
     Program PWSCF v.7.1 starts on 14Dec2023 at 20: 3:19 

     This program is part of the open-source Quantum ESPRESSO suite
     for quantum simulation of materials; please cite
         "P. Giannozzi et al., J. Phys.:Condens. Matter 21 395502 (2009);
         "P. Giannozzi et al., J. Phys.:Condens. Matter 29 465901 (2017);
         "P. Giannozzi et al., J. Chem. Phys. 152 154105 (2020);
          URL http://www.quantum-espresso.org", 
     in publications or presentations arising from this work. More details at
     http://www.quantum-espresso.org/quote

     Parallel version (MPI), running on    24 processors

     MPI processes distributed on     1 nodes
     121280 MiB available memory on the printing compute node when the environment starts
 
     Reading input from pw_mp-22905_scf_k3000_E52.in
Warning: card &CELL ignored
Warning: card / ignored

     Current dimensions of program PWSCF are:
     Max number of different atomic species (ntypx) = 10
     Max number of k-points (npk) =  40000
     Max angular momentum in pseudopotentials (lmaxx) =  4
 
     K-points division:     npool     =       2
     R & G space division:  proc/nbgrp/npool/nimage =      12
     Subspace diagonalization in iterative solution of the eigenvalue problem:
     a serial algorithm will be used

 
     Parallelization info
     --------------------
     sticks:   dense  smooth     PW     G-vecs:    dense   smooth      PW
     Min          55      55     17                  932      932     165
     Max          56      56     19                  935      935     166
     Sum         661     661    211                11191    11191    1989
 
     Using Slab Decomposition
 


     bravais-lattice index     =            2
     lattice parameter (alat)  =       9.6078  a.u.
     unit-cell volume          =     221.7256 (a.u.)^3
     number of atoms/cell      =            2
     number of atomic types    =            2
     number of electrons       =        10.00
     number of Kohn-Sham states=           10
     kinetic-energy cutoff     =      52.0000  Ry
     charge density cutoff     =     208.0000  Ry
     scf convergence threshold =      1.0E-10
     mixing beta               =       0.7000
     number of iterations used =            8  plain     mixing
     Exchange-correlation= PBE
                           (   1   4   3   4   0   0   0)

     celldm(1)=   9.607829  celldm(2)=   0.000000  celldm(3)=   0.000000
     celldm(4)=   0.000000  celldm(5)=   0.000000  celldm(6)=   0.000000

     crystal axes: (cart. coord. in units of alat)
               a(1) = (  -0.500000   0.000000   0.500000 )  
               a(2) = (   0.000000   0.500000   0.500000 )  
               a(3) = (  -0.500000   0.500000   0.000000 )  

     reciprocal axes: (cart. coord. in units 2 pi/alat)
               b(1) = ( -1.000000 -1.000000  1.000000 )  
               b(2) = (  1.000000  1.000000  1.000000 )  
               b(3) = ( -1.000000  1.000000 -1.000000 )  


     PseudoPot. # 1 for Cl read from file:
     /usr/scratch4/magr4985/MG/HTDF/pseudo/SG15/Cl.upf
     MD5 check sum: 0f993535b366f580ecbcdacce103c843
     Pseudo is Norm-conserving, Zval =  7.0
     Generated using ONCVPSP code by D. R. Hamann
     Using radial grid of  602 points,  4 beta functions with: 
                l(1) =   0
                l(2) =   0
                l(3) =   1
                l(4) =   1

     PseudoPot. # 2 for Li read from file:
     /usr/scratch4/magr4985/MG/HTDF/pseudo/SG15/Li.upf
     MD5 check sum: c91dd4cee9943b136ac3b62641658f95
     Pseudo is Norm-conserving, Zval =  3.0
     Generated using ONCVPSP code by D. R. Hamann
     Using radial grid of  602 points,  4 beta functions with: 
                l(1) =   0
                l(2) =   0
                l(3) =   1
                l(4) =   1

     atomic species   valence    mass     pseudopotential
        Cl             7.00    35.45300     Cl( 1.00)
        Li             3.00     6.94100     Li( 1.00)

     48 Sym. Ops., with inversion, found



   Cartesian axes

     site n.     atom                  positions (alat units)
         1           Li  tau(   1) = (   0.0000000   0.0000000   0.0000000  )
         2           Cl  tau(   2) = (  -0.5000000   0.5000000   0.5000000  )

     number of k points=    72  Gaussian smearing, width (Ry)=  0.0005
                       cart. coord. in units 2pi/alat
        k(    1) = (   0.0000000   0.0000000   0.0000000), wk =   0.0011574
        k(    2) = (  -0.0833333   0.0833333  -0.0833333), wk =   0.0092593
        k(    3) = (  -0.1666667   0.1666667  -0.1666667), wk =   0.0092593
        k(    4) = (  -0.2500000   0.2500000  -0.2500000), wk =   0.0092593
        k(    5) = (  -0.3333333   0.3333333  -0.3333333), wk =   0.0092593
        k(    6) = (  -0.4166667   0.4166667  -0.4166667), wk =   0.0092593
        k(    7) = (   0.5000000  -0.5000000   0.5000000), wk =   0.0046296
        k(    8) = (   0.0000000   0.1666667   0.0000000), wk =   0.0069444
        k(    9) = (  -0.0833333   0.2500000  -0.0833333), wk =   0.0277778
        k(   10) = (  -0.1666667   0.3333333  -0.1666667), wk =   0.0277778
        k(   11) = (  -0.2500000   0.4166667  -0.2500000), wk =   0.0277778
        k(   12) = (  -0.3333333   0.5000000  -0.3333333), wk =   0.0277778
        k(   13) = (   0.5833333  -0.4166667   0.5833333), wk =   0.0277778
        k(   14) = (   0.5000000  -0.3333333   0.5000000), wk =   0.0277778
        k(   15) = (   0.4166667  -0.2500000   0.4166667), wk =   0.0277778
        k(   16) = (   0.3333333  -0.1666667   0.3333333), wk =   0.0277778
        k(   17) = (   0.2500000  -0.0833333   0.2500000), wk =   0.0277778
        k(   18) = (   0.1666667  -0.0000000   0.1666667), wk =   0.0138889
        k(   19) = (   0.0000000   0.3333333   0.0000000), wk =   0.0069444
        k(   20) = (  -0.0833333   0.4166667  -0.0833333), wk =   0.0277778
        k(   21) = (  -0.1666667   0.5000000  -0.1666667), wk =   0.0277778
        k(   22) = (  -0.2500000   0.5833333  -0.2500000), wk =   0.0277778
        k(   23) = (   0.6666667  -0.3333333   0.6666667), wk =   0.0277778
        k(   24) = (   0.5833333  -0.2500000   0.5833333), wk =   0.0277778
        k(   25) = (   0.5000000  -0.1666667   0.5000000), wk =   0.0277778
        k(   26) = (   0.4166667  -0.0833333   0.4166667), wk =   0.0277778
        k(   27) = (   0.3333333   0.0000000   0.3333333), wk =   0.0138889
        k(   28) = (   0.0000000   0.5000000   0.0000000), wk =   0.0069444
        k(   29) = (  -0.0833333   0.5833333  -0.0833333), wk =   0.0277778
        k(   30) = (  -0.1666667   0.6666667  -0.1666667), wk =   0.0277778
        k(   31) = (   0.7500000  -0.2500000   0.7500000), wk =   0.0277778
        k(   32) = (   0.6666667  -0.1666667   0.6666667), wk =   0.0277778
        k(   33) = (   0.5833333  -0.0833333   0.5833333), wk =   0.0277778
        k(   34) = (   0.5000000   0.0000000   0.5000000), wk =   0.0138889
        k(   35) = (   0.0000000   0.6666667   0.0000000), wk =   0.0069444
        k(   36) = (  -0.0833333   0.7500000  -0.0833333), wk =   0.0277778
        k(   37) = (   0.8333333  -0.1666667   0.8333333), wk =   0.0277778
        k(   38) = (   0.7500000  -0.0833333   0.7500000), wk =   0.0277778
        k(   39) = (   0.6666667  -0.0000000   0.6666667), wk =   0.0138889
        k(   40) = (   0.0000000   0.8333333   0.0000000), wk =   0.0069444
        k(   41) = (   0.9166667  -0.0833333   0.9166667), wk =   0.0277778
        k(   42) = (   0.8333333   0.0000000   0.8333333), wk =   0.0138889
        k(   43) = (   0.0000000  -1.0000000   0.0000000), wk =   0.0034722
        k(   44) = (  -0.1666667   0.3333333   0.0000000), wk =   0.0277778
        k(   45) = (  -0.2500000   0.4166667  -0.0833333), wk =   0.0555556
        k(   46) = (  -0.3333333   0.5000000  -0.1666667), wk =   0.0555556
        k(   47) = (   0.5833333  -0.4166667   0.7500000), wk =   0.0555556
        k(   48) = (   0.5000000  -0.3333333   0.6666667), wk =   0.0277778
        k(   49) = (  -0.1666667   0.5000000   0.0000000), wk =   0.0277778
        k(   50) = (  -0.2500000   0.5833333  -0.0833333), wk =   0.0555556
        k(   51) = (   0.6666667  -0.3333333   0.8333333), wk =   0.0555556
        k(   52) = (   0.5833333  -0.2500000   0.7500000), wk =   0.0555556
        k(   53) = (   0.5000000  -0.1666667   0.6666667), wk =   0.0555556
        k(   54) = (   0.4166667  -0.0833333   0.5833333), wk =   0.0555556
        k(   55) = (   0.3333333   0.0000000   0.5000000), wk =   0.0277778
        k(   56) = (  -0.1666667   0.6666667  -0.0000000), wk =   0.0277778
        k(   57) = (   0.7500000  -0.2500000   0.9166667), wk =   0.0555556
        k(   58) = (   0.6666667  -0.1666667   0.8333333), wk =   0.0555556
        k(   59) = (   0.5833333  -0.0833333   0.7500000), wk =   0.0555556
        k(   60) = (   0.5000000   0.0000000   0.6666667), wk =   0.0277778
        k(   61) = (   0.8333333  -0.1666667   1.0000000), wk =   0.0277778
        k(   62) = (   0.7500000  -0.0833333   0.9166667), wk =   0.0555556
        k(   63) = (   0.6666667   0.0000000   0.8333333), wk =   0.0277778
        k(   64) = (  -0.1666667  -1.0000000  -0.0000000), wk =   0.0138889
        k(   65) = (   0.6666667  -0.3333333   1.0000000), wk =   0.0277778
        k(   66) = (   0.5833333  -0.2500000   0.9166667), wk =   0.0555556
        k(   67) = (   0.5000000  -0.1666667   0.8333333), wk =   0.0277778
        k(   68) = (   0.6666667  -0.1666667   1.0000000), wk =   0.0277778
        k(   69) = (   0.5833333  -0.0833333   0.9166667), wk =   0.0555556
        k(   70) = (   0.5000000   0.0000000   0.8333333), wk =   0.0277778
        k(   71) = (  -0.3333333  -1.0000000   0.0000000), wk =   0.0138889
        k(   72) = (  -0.5000000  -1.0000000   0.0000000), wk =   0.0069444

     Dense  grid:    11191 G-vectors     FFT dimensions: (  32,  32,  32)

     Estimated max dynamical RAM per process >       2.07 MB

     Estimated total dynamical RAM >      46.96 MB

     Initial potential from superposition of free atoms

     starting charge       9.8826, renormalised to      10.0000
     Starting wfcs are random

     total cpu time spent up to now is        0.3 secs

     Self-consistent Calculation

     iteration #  1     ecut=    52.00 Ry     beta= 0.70
     Davidson diagonalization with overlap
     ethr =  1.00E-02,  avg # of iterations =  7.4

     Threshold (ethr) on eigenvalues was too large:
     Diagonalizing with lowered threshold

     Davidson diagonalization with overlap
     ethr =  1.06E-04,  avg # of iterations =  3.9

     total cpu time spent up to now is        0.7 secs

     total energy              =     -44.70072392 Ry
     estimated scf accuracy    <       0.01097900 Ry

     iteration #  2     ecut=    52.00 Ry     beta= 0.70
     Davidson diagonalization with overlap
     ethr =  1.10E-04,  avg # of iterations =  2.0

     total cpu time spent up to now is        0.8 secs

     total energy              =     -44.70259957 Ry
     estimated scf accuracy    <       0.00124401 Ry

     iteration #  3     ecut=    52.00 Ry     beta= 0.70
     Davidson diagonalization with overlap
     ethr =  1.24E-05,  avg # of iterations =  2.4

     total cpu time spent up to now is        0.9 secs

     total energy              =     -44.70290369 Ry
     estimated scf accuracy    <       0.00010375 Ry

     iteration #  4     ecut=    52.00 Ry     beta= 0.70
     Davidson diagonalization with overlap
     ethr =  1.04E-06,  avg # of iterations =  3.1

     total cpu time spent up to now is        1.0 secs

     total energy              =     -44.70291822 Ry
     estimated scf accuracy    <       0.00000136 Ry

     iteration #  5     ecut=    52.00 Ry     beta= 0.70
     Davidson diagonalization with overlap
     ethr =  1.36E-08,  avg # of iterations =  2.0

     total cpu time spent up to now is        1.1 secs

     total energy              =     -44.70291873 Ry
     estimated scf accuracy    <       0.00000004 Ry

     iteration #  6     ecut=    52.00 Ry     beta= 0.70
     Davidson diagonalization with overlap
     ethr =  4.30E-10,  avg # of iterations =  2.0

     total cpu time spent up to now is        1.2 secs

     total energy              =     -44.70291874 Ry
     estimated scf accuracy    <          9.4E-10 Ry

     iteration #  7     ecut=    52.00 Ry     beta= 0.70
     Davidson diagonalization with overlap
     ethr =  9.37E-12,  avg # of iterations =  2.1

     total cpu time spent up to now is        1.4 secs

     End of self-consistent calculation

          k = 0.0000 0.0000 0.0000 (  1411 PWs)   bands (ev):

   -41.6062 -11.6180   1.8411   1.8411   1.8411   8.3450  13.9489  13.9489
    13.9489  16.5519

          k =-0.0833 0.0833-0.0833 (  1417 PWs)   bands (ev):

   -41.6061 -11.5818   1.5829   1.8213   1.8213   8.5774  13.4848  13.9751
    13.9752  15.3971

          k =-0.1667 0.1667-0.1667 (  1411 PWs)   bands (ev):

   -41.6053 -11.4800   0.9530   1.7687   1.7687   9.0289  12.9081  13.5047
    13.5047  15.2337

          k =-0.2500 0.2500-0.2500 (  1396 PWs)   bands (ev):

   -41.6039 -11.3339   0.2072   1.7002   1.7002   9.2003  12.6782  12.6782
    13.0110  16.0107

          k =-0.3333 0.3333-0.3333 (  1411 PWs)   bands (ev):

   -41.6035 -11.1786  -0.4590   1.6354   1.6354   9.0090  12.0134  12.0134
    13.7911  17.1685

          k =-0.4167 0.4167-0.4167 (  1419 PWs)   bands (ev):

   -41.6031 -11.0581  -0.9140   1.5901   1.5901   8.7765  11.6003  11.6003
    14.6901  18.4829

          k = 0.5000-0.5000 0.5000 (  1404 PWs)   bands (ev):

   -41.6023 -11.0123  -1.0753   1.5739   1.5739   8.6840  11.4612  11.4612
    15.0997  18.9826

          k = 0.0000 0.1667 0.0000 (  1419 PWs)   bands (ev):

   -41.6061 -11.5695   1.6143   1.7528   1.7528   8.6753  13.4158  13.9726
    13.9726  14.4259

          k =-0.0833 0.2500-0.0833 (  1412 PWs)   bands (ev):

   -41.6054 -11.4890   1.1326   1.6594   1.7255   9.1177  12.8136  13.3705
    13.8624  14.3627

          k =-0.1667 0.3333-0.1667 (  1396 PWs)   bands (ev):

   -41.6040 -11.3565   0.4346   1.5683   1.6671   9.4640  12.4508  12.6604
    13.2820  15.0967

          k =-0.2500 0.4167-0.2500 (  1400 PWs)   bands (ev):

   -41.6032 -11.2025  -0.2456   1.5039   1.5696   9.3854  11.8664  12.5778
    13.1772  16.1121

          k =-0.3333 0.5000-0.3333 (  1405 PWs)   bands (ev):

   -41.6027 -11.0682  -0.7612   1.4617   1.4812   9.1413  11.5001  12.0183
    14.1136  17.2377

          k = 0.5833-0.4167 0.5833 (  1413 PWs)   bands (ev):

   -41.6026 -10.9960  -1.0152   1.3724   1.5045   8.9911  11.3960  11.6865
    14.8008  18.2750

          k = 0.5000-0.3333 0.5000 (  1411 PWs)   bands (ev):

   -41.6026 -11.0115  -0.9600   1.3237   1.5674   9.0158  11.5458  11.6145
    14.6737  18.3218

          k = 0.4167-0.2500 0.4167 (  1410 PWs)   bands (ev):

   -41.6031 -11.1091  -0.6069   1.3287   1.6548   9.2010  11.8177  11.9202
    13.8739  16.9434

          k = 0.3333-0.1667 0.3333 (  1402 PWs)   bands (ev):

   -41.6036 -11.2552  -0.0241   1.3896   1.7455   9.4161  12.3019  12.4073
    13.0959  15.7311

          k = 0.2500-0.0833 0.2500 (  1393 PWs)   bands (ev):

   -41.6042 -11.4060   0.6672   1.5003   1.8155   9.3436  12.5557  13.0658
    13.2918  14.8099

          k = 0.1667-0.0000 0.1667 (  1405 PWs)   bands (ev):

   -41.6053 -11.5234   1.2762   1.6574   1.8442   8.9103  13.0040  13.7465
    14.0910  14.2358

          k = 0.0000 0.3333 0.0000 (  1407 PWs)   bands (ev):

   -41.6048 -11.4312   1.0314   1.5215   1.5215   9.5558  12.4182  12.7078
    14.1472  14.1473

          k =-0.0833 0.4167-0.0833 (  1395 PWs)   bands (ev):

   -41.6037 -11.3182   0.5203   1.3936   1.4191  10.0660  11.9818  12.0580
    14.0168  14.5933

          k =-0.1667 0.5000-0.1667 (  1400 PWs)   bands (ev):

   -41.6031 -11.1753  -0.0790   1.2780   1.3076  10.1755  11.5878  12.1776
    13.4468  15.4581

          k =-0.2500 0.5833-0.2500 (  1411 PWs)   bands (ev):

   -41.6028 -11.0391  -0.5755   1.0906   1.2829   9.9155  11.3519  12.8188
    13.0204  16.4417

          k = 0.6667-0.3333 0.6667 (  1411 PWs)   bands (ev):

   -41.6023 -10.9504  -0.8626   0.9098   1.3242   9.6904  11.3338  12.3264
    13.9442  17.2844

          k = 0.5833-0.2500 0.5833 (  1402 PWs)   bands (ev):

   -41.6019 -10.9394  -0.8830   0.7863   1.4222   9.6286  11.5053  12.0366
    14.2425  18.2058

          k = 0.5000-0.1667 0.5000 (  1407 PWs)   bands (ev):

   -41.6024 -11.0099  -0.6382   0.7575   1.5545   9.7344  11.8099  11.9765
    13.6622  17.0136

          k = 0.4167-0.0833 0.4167 (  1404 PWs)   bands (ev):

   -41.6030 -11.1374  -0.2007   0.8556   1.6879   9.8970  12.0798  12.1541
    12.9936  15.8664

          k = 0.3333 0.0000 0.3333 (  1386 PWs)   bands (ev):

   -41.6032 -11.2824   0.2815   1.1170   1.7850   9.7900  12.1482  12.5494
    13.0318  15.0839

          k = 0.0000 0.5000 0.0000 (  1387 PWs)   bands (ev):

   -41.6029 -11.2267   0.2828   1.2261   1.2261  10.5877  11.4883  11.7192
    14.5652  14.5652

          k =-0.0833 0.5833-0.0833 (  1401 PWs)   bands (ev):

   -41.6028 -11.1026  -0.1464   1.0555   1.1066  10.6355  11.2386  11.8294
    14.4588  15.1163

          k =-0.1667 0.6667-0.1667 (  1408 PWs)   bands (ev):

   -41.6024 -10.9769  -0.5271   0.7980   1.0605  10.3645  11.3716  12.2432
    13.8977  15.9623

          k = 0.7500-0.2500 0.7500 (  1406 PWs)   bands (ev):

   -41.6018 -10.8859  -0.7392   0.4962   1.0968  10.1295  11.6049  12.9526
    13.2864  16.5811

          k = 0.6667-0.1667 0.6667 (  1415 PWs)   bands (ev):

   -41.6020 -10.8591  -0.7316   0.2391   1.2083  10.0357  11.8700  12.7760
    13.5259  16.9256

          k = 0.5833-0.0833 0.5833 (  1408 PWs)   bands (ev):

   -41.6019 -10.9055  -0.5341   0.1285   1.3717  10.0812  12.1534  12.4101
    13.2729  17.4271

          k = 0.5000 0.0000 0.5000 (  1414 PWs)   bands (ev):

   -41.6027 -11.0091  -0.3325   0.3397   1.5481  10.1426  12.1991  12.1993
    12.8532  16.4454

          k = 0.0000 0.6667 0.0000 (  1379 PWs)   bands (ev):

   -41.6014 -11.0010  -0.4437   0.9510   0.9510  10.3844  10.7820  12.6021
    15.1896  15.1896

          k =-0.0833 0.7500-0.0833 (  1397 PWs)   bands (ev):

   -41.6016 -10.8964  -0.7294   0.7623   0.8731  10.2196  10.7067  13.0833
    15.0703  15.7326

          k = 0.8333-0.1667 0.8333 (  1402 PWs)   bands (ev):

   -41.6014 -10.8187  -0.8520   0.4383   0.8875  10.1005  11.1604  13.3037
    14.4374  16.1811

          k = 0.7500-0.0833 0.7500 (  1407 PWs)   bands (ev):

   -41.6014 -10.7920  -0.7500   0.0582   0.9917  10.0535  11.9266  13.3607
    13.7101  16.1762

          k = 0.6667-0.0000 0.6667 (  1420 PWs)   bands (ev):

   -41.6020 -10.8246  -0.4308  -0.2664   1.1658  10.0881  12.6397  12.9715
    13.0143  16.5936

          k = 0.0000 0.8333 0.0000 (  1395 PWs)   bands (ev):

   -41.6013 -10.8191  -0.9735   0.7607   0.7607   9.9979  10.3469  13.9071
    15.8525  15.8525

          k = 0.9167-0.0833 0.9167 (  1393 PWs)   bands (ev):

   -41.6009 -10.7675  -1.0736   0.6038   0.7439   9.9692  10.4348  14.1821
    15.5778  16.0912

          k = 0.8333 0.0000 0.8333 (  1402 PWs)   bands (ev):

   -41.6011 -10.7577  -0.9747   0.3098   0.8258   9.9958  11.0644  13.9910
    14.7046  16.0145

          k = 0.0000-1.0000 0.0000 (  1388 PWs)   bands (ev):

   -41.6007 -10.7484  -1.1684   0.6931   0.6931   9.8696  10.2008  14.5083
    16.1757  16.1758

          k =-0.1667 0.3333 0.0000 (  1396 PWs)   bands (ev):

   -41.6042 -11.3924   0.7345   1.4084   1.7048   9.5920  12.3274  12.6521
    13.8009  14.4720

          k =-0.2500 0.4167-0.0833 (  1394 PWs)   bands (ev):

   -41.6033 -11.2541   0.1593   1.1956   1.6471   9.9003  12.0005  12.2440
    13.3460  15.1578

          k =-0.3333 0.5000-0.1667 (  1401 PWs)   bands (ev):

   -41.6028 -11.1076  -0.4045   1.0658   1.5486   9.7779  11.6069  12.4306
    13.2249  16.1773

          k = 0.5833-0.4167 0.7500 (  1409 PWs)   bands (ev):

   -41.6024 -10.9944  -0.8037   1.0018   1.4557   9.5620  11.4017  12.1340
    13.9967  17.2971

          k = 0.5000-0.3333 0.6667 (  1416 PWs)   bands (ev):

   -41.6025 -10.9516  -0.9473   0.9843   1.4171   9.4740  11.3496  11.9814
    14.4443  18.4015

          k =-0.1667 0.5000 0.0000 (  1399 PWs)   bands (ev):

   -41.6032 -11.1993   0.1259   1.0925   1.3778  10.5523  11.6194  11.6288
    14.1270  14.8307

          k =-0.2500 0.5833-0.0833 (  1400 PWs)   bands (ev):

   -41.6025 -11.0636  -0.3051   0.8391   1.2916  10.5841  11.4046  11.8475
    13.7580  15.6212

          k = 0.6667-0.3333 0.8333 (  1405 PWs)   bands (ev):

   -41.6021 -10.9481  -0.6420   0.6381   1.2170  10.3082  11.3402  12.5192
    13.4199  16.5550

          k = 0.5833-0.2500 0.7500 (  1409 PWs)   bands (ev):

   -41.6019 -10.8886  -0.7912   0.4842   1.2195  10.1398  11.3879  12.6110
    13.7106  17.2467

          k = 0.5000-0.1667 0.6667 (  1406 PWs)   bands (ev):

   -41.6019 -10.9055  -0.7164   0.4120   1.3059  10.1466  11.4846  12.4823
    13.6746  17.4873

          k = 0.4167-0.0833 0.5833 (  1405 PWs)   bands (ev):

   -41.6023 -10.9928  -0.4583   0.4803   1.4413  10.2852  11.6066  12.2628
    13.3021  16.4416

          k = 0.3333 0.0000 0.5000 (  1395 PWs)   bands (ev):

   -41.6026 -11.1216  -0.1361   0.7536   1.5732  10.3069  11.7978  11.9149
    13.3219  15.5637

          k =-0.1667 0.6667-0.0000 (  1399 PWs)   bands (ev):

   -41.6021 -10.9869  -0.4627   0.8002   1.0315  10.5646  11.0307  12.1873
    14.6719  15.4125

          k = 0.7500-0.2500 0.9167 (  1405 PWs)   bands (ev):

   -41.6018 -10.8833  -0.6791   0.5073   0.9672  10.4574  11.3064  12.3922
    14.2725  16.1351

          k = 0.6667-0.1667 0.8333 (  1410 PWs)   bands (ev):

   -41.6017 -10.8226  -0.7158   0.1827   0.9872  10.3513  11.8067  12.6942
    13.6882  16.5908

          k = 0.5833-0.0833 0.7500 (  1407 PWs)   bands (ev):

   -41.6016 -10.8246  -0.5527  -0.0904   1.0996  10.3526  12.0708  12.9795
    13.1340  16.9447

          k = 0.5000 0.0000 0.6667 (  1413 PWs)   bands (ev):

   -41.6020 -10.8882  -0.4179  -0.0307   1.2694  10.4204  12.0094  12.3703
    13.2698  17.1257

          k = 0.8333-0.1667 1.0000 (  1398 PWs)   bands (ev):

   -41.6013 -10.8167  -0.9050   0.5989   0.7898  10.2072  10.6521  13.4634
    15.0939  16.0580

          k = 0.7500-0.0833 0.9167 (  1405 PWs)   bands (ev):

   -41.6013 -10.7715  -0.8985   0.3039   0.7950  10.2574  11.1319  13.5081
    14.3579  16.4175

          k = 0.6667 0.0000 0.8333 (  1400 PWs)   bands (ev):

   -41.6011 -10.7747  -0.6976  -0.0401   0.9110  10.3013  11.9751  13.3466
    13.3939  16.4878

          k =-0.1667-1.0000-0.0000 (  1394 PWs)   bands (ev):

   -41.6009 -10.7508  -1.0710   0.5276   0.7050  10.0871  10.5226  14.2251
    15.0621  16.3788

          k = 0.6667-0.3333 1.0000 (  1402 PWs)   bands (ev):

   -41.6020 -10.9469  -0.4753   0.4226   1.1901  11.0247  11.3552  11.6499
    13.9051  16.0838

          k = 0.5833-0.2500 0.9167 (  1408 PWs)   bands (ev):

   -41.6017 -10.8580  -0.5804   0.1370   1.0737  10.9634  11.3405  12.2820
    13.6365  16.8989

          k = 0.5000-0.1667 0.8333 (  1404 PWs)   bands (ev):

   -41.6015 -10.8246  -0.6169   0.0372   1.0241  10.8826  11.3484  12.9577
    13.1976  17.2822

          k = 0.6667-0.1667 1.0000 (  1411 PWs)   bands (ev):

   -41.6017 -10.8087  -0.7063   0.1971   0.8563  10.8313  11.4406  12.3181
    14.0915  16.6835

          k = 0.5833-0.0833 0.9167 (  1409 PWs)   bands (ev):

   -41.6015 -10.7755  -0.5797  -0.1134   0.8239  11.0078  11.9551  12.4185
    13.2797  17.2300

          k = 0.5000 0.0000 0.8333 (  1404 PWs)   bands (ev):

   -41.6013 -10.7939  -0.4018  -0.2801   0.9124  11.1201  11.8245  12.4302
    13.1857  17.6834

          k =-0.3333-1.0000 0.0000 (  1406 PWs)   bands (ev):

   -41.6013 -10.7556  -0.7906   0.1177   0.7288  10.7353  11.3622  13.3657
    13.4704  16.9976

          k =-0.5000-1.0000 0.0000 (  1424 PWs)   bands (ev):

   -41.6019 -10.7581  -0.3674  -0.3674   0.7406  11.5832  12.1293  12.4392
    12.4392  18.0299

     the Fermi energy is     3.8666 ev

!    total energy              =     -44.70291875 Ry
     estimated scf accuracy    <          9.9E-12 Ry
     smearing contrib. (-TS)   =      -0.00000000 Ry
     internal energy E=F+TS    =     -44.70291875 Ry

     The total energy is F=E-TS. E is the sum of the following terms:
     one-electron contribution =     -10.53056745 Ry
     hartree contribution      =       7.46562342 Ry
     xc contribution           =      -9.19664254 Ry
     ewald contribution        =     -32.44133217 Ry

     convergence has been achieved in   7 iterations

     Writing all to output data dir out/mp-22905.save/
 
     init_run     :      0.06s CPU      0.09s WALL (       1 calls)
     electrons    :      0.95s CPU      1.11s WALL (       1 calls)

     Called by init_run:
     wfcinit      :      0.04s CPU      0.05s WALL (       1 calls)
     potinit      :      0.01s CPU      0.01s WALL (       1 calls)
     hinit0       :      0.01s CPU      0.02s WALL (       1 calls)

     Called by electrons:
     c_bands      :      0.83s CPU      0.96s WALL (       8 calls)
     sum_band     :      0.11s CPU      0.12s WALL (       8 calls)
     v_of_rho     :      0.01s CPU      0.01s WALL (       8 calls)
     mix_rho      :      0.00s CPU      0.00s WALL (       8 calls)

     Called by c_bands:
     init_us_2    :      0.02s CPU      0.02s WALL (     612 calls)
     init_us_2:cp :      0.01s CPU      0.02s WALL (     612 calls)
     cegterg      :      0.77s CPU      0.89s WALL (     288 calls)

     Called by *egterg:
     cdiaghg      :      0.14s CPU      0.16s WALL (    1189 calls)
     h_psi        :      0.58s CPU      0.68s WALL (    1261 calls)
     g_psi        :      0.00s CPU      0.01s WALL (     937 calls)

     Called by h_psi:
     h_psi:calbec :      0.03s CPU      0.03s WALL (    1261 calls)
     vloc_psi     :      0.54s CPU      0.62s WALL (    1261 calls)
     add_vuspsi   :      0.01s CPU      0.01s WALL (    1261 calls)

     General routines
     calbec       :      0.02s CPU      0.03s WALL (    1261 calls)
     fft          :      0.00s CPU      0.02s WALL (      80 calls)
     ffts         :      0.00s CPU      0.00s WALL (       8 calls)
     fftw         :      0.56s CPU      0.64s WALL (   20822 calls)
 
     Parallel routines
 
     PWSCF        :      1.05s CPU      1.44s WALL

 
   This run was terminated on:  20: 3:20  14Dec2023            

=------------------------------------------------------------------------------=
   JOB DONE.
=------------------------------------------------------------------------------=
