
     Program PWSCF v.7.1 starts on 19Nov2023 at 21:50:48 

     This program is part of the open-source Quantum ESPRESSO suite
     for quantum simulation of materials; please cite
         "P. Giannozzi et al., J. Phys.:Condens. Matter 21 395502 (2009);
         "P. Giannozzi et al., J. Phys.:Condens. Matter 29 465901 (2017);
         "P. Giannozzi et al., J. Chem. Phys. 152 154105 (2020);
          URL http://www.quantum-espresso.org", 
     in publications or presentations arising from this work. More details at
     http://www.quantum-espresso.org/quote

     Parallel version (MPI), running on    24 processors

     MPI processes distributed on     1 nodes
     123365 MiB available memory on the printing compute node when the environment starts
 
     Reading input from pw_mp-8062_scf_k3000_E133.in
Warning: card &CELL ignored
Warning: card / ignored

     Current dimensions of program PWSCF are:
     Max number of different atomic species (ntypx) = 10
     Max number of k-points (npk) =  40000
     Max angular momentum in pseudopotentials (lmaxx) =  4
 
     K-points division:     npool     =       2
     R & G space division:  proc/nbgrp/npool/nimage =      12
     Subspace diagonalization in iterative solution of the eigenvalue problem:
     a serial algorithm will be used

 
     Parallelization info
     --------------------
     sticks:   dense  smooth     PW     G-vecs:    dense   smooth      PW
     Min         103     103     30                 2400     2400     386
     Max         104     104     31                 2404     2404     389
     Sum        1237    1237    367                28811    28811    4645
 
     Using Slab Decomposition
 


     bravais-lattice index     =            2
     lattice parameter (alat)  =       8.2279  a.u.
     unit-cell volume          =     139.2515 (a.u.)^3
     number of atoms/cell      =            2
     number of atomic types    =            2
     number of electrons       =         8.00
     number of Kohn-Sham states=            8
     kinetic-energy cutoff     =     133.0000  Ry
     charge density cutoff     =     532.0000  Ry
     scf convergence threshold =      1.0E-10
     mixing beta               =       0.7000
     number of iterations used =            8  plain     mixing
     Exchange-correlation= PBE
                           (   1   4   3   4   0   0   0)

     celldm(1)=   8.227854  celldm(2)=   0.000000  celldm(3)=   0.000000
     celldm(4)=   0.000000  celldm(5)=   0.000000  celldm(6)=   0.000000

     crystal axes: (cart. coord. in units of alat)
               a(1) = (  -0.500000   0.000000   0.500000 )  
               a(2) = (   0.000000   0.500000   0.500000 )  
               a(3) = (  -0.500000   0.500000   0.000000 )  

     reciprocal axes: (cart. coord. in units 2 pi/alat)
               b(1) = ( -1.000000 -1.000000  1.000000 )  
               b(2) = (  1.000000  1.000000  1.000000 )  
               b(3) = ( -1.000000  1.000000 -1.000000 )  


     PseudoPot. # 1 for C  read from file:
     /usr/scratch4/magr4985/MG/HTDF/pseudo/SG15/C.upf
     MD5 check sum: 1a5f83a7b1f58d24996abe00ed223ac6
     Pseudo is Norm-conserving, Zval =  4.0
     Generated using ONCVPSP code by D. R. Hamann
     Using radial grid of  602 points,  4 beta functions with: 
                l(1) =   0
                l(2) =   0
                l(3) =   1
                l(4) =   1

     PseudoPot. # 2 for Si read from file:
     /usr/scratch4/magr4985/MG/HTDF/pseudo/SG15/Si.upf
     MD5 check sum: 7f029a58b69e3aa87b46a36c608bf45e
     Pseudo is Norm-conserving, Zval =  4.0
     Generated using ONCVPSP code by D. R. Hamann
     Using radial grid of  602 points,  4 beta functions with: 
                l(1) =   0
                l(2) =   0
                l(3) =   1
                l(4) =   1

     atomic species   valence    mass     pseudopotential
        C              4.00    12.01070     C ( 1.00)
        Si             4.00    28.08550     Si( 1.00)

     24 Sym. Ops. (no inversion) found



   Cartesian axes

     site n.     atom                  positions (alat units)
         1           Si  tau(   1) = (  -0.2500000   0.2500000   0.2500001  )
         2           C   tau(   2) = (   0.0000000   0.0000000   0.0000000  )

     number of k points=    72  Gaussian smearing, width (Ry)=  0.0005
                       cart. coord. in units 2pi/alat
        k(    1) = (   0.0000000   0.0000000   0.0000000), wk =   0.0011574
        k(    2) = (  -0.0833333   0.0833333  -0.0833333), wk =   0.0092593
        k(    3) = (  -0.1666667   0.1666667  -0.1666667), wk =   0.0092593
        k(    4) = (  -0.2500000   0.2500000  -0.2500000), wk =   0.0092593
        k(    5) = (  -0.3333333   0.3333333  -0.3333333), wk =   0.0092593
        k(    6) = (  -0.4166667   0.4166667  -0.4166667), wk =   0.0092593
        k(    7) = (   0.5000000  -0.5000000   0.5000000), wk =   0.0046296
        k(    8) = (   0.0000000   0.1666667   0.0000000), wk =   0.0069444
        k(    9) = (  -0.0833333   0.2500000  -0.0833333), wk =   0.0277778
        k(   10) = (  -0.1666667   0.3333333  -0.1666667), wk =   0.0277778
        k(   11) = (  -0.2500000   0.4166667  -0.2500000), wk =   0.0277778
        k(   12) = (  -0.3333333   0.5000000  -0.3333333), wk =   0.0277778
        k(   13) = (   0.5833333  -0.4166667   0.5833333), wk =   0.0277778
        k(   14) = (   0.5000000  -0.3333333   0.5000000), wk =   0.0277778
        k(   15) = (   0.4166667  -0.2500000   0.4166667), wk =   0.0277778
        k(   16) = (   0.3333333  -0.1666667   0.3333333), wk =   0.0277778
        k(   17) = (   0.2500000  -0.0833333   0.2500000), wk =   0.0277778
        k(   18) = (   0.1666667  -0.0000000   0.1666667), wk =   0.0138889
        k(   19) = (   0.0000000   0.3333333   0.0000000), wk =   0.0069444
        k(   20) = (  -0.0833333   0.4166667  -0.0833333), wk =   0.0277778
        k(   21) = (  -0.1666667   0.5000000  -0.1666667), wk =   0.0277778
        k(   22) = (  -0.2500000   0.5833333  -0.2500000), wk =   0.0277778
        k(   23) = (   0.6666667  -0.3333333   0.6666667), wk =   0.0277778
        k(   24) = (   0.5833333  -0.2500000   0.5833333), wk =   0.0277778
        k(   25) = (   0.5000000  -0.1666667   0.5000000), wk =   0.0277778
        k(   26) = (   0.4166667  -0.0833333   0.4166667), wk =   0.0277778
        k(   27) = (   0.3333333   0.0000000   0.3333333), wk =   0.0138889
        k(   28) = (   0.0000000   0.5000000   0.0000000), wk =   0.0069444
        k(   29) = (  -0.0833333   0.5833333  -0.0833333), wk =   0.0277778
        k(   30) = (  -0.1666667   0.6666667  -0.1666667), wk =   0.0277778
        k(   31) = (   0.7500000  -0.2500000   0.7500000), wk =   0.0277778
        k(   32) = (   0.6666667  -0.1666667   0.6666667), wk =   0.0277778
        k(   33) = (   0.5833333  -0.0833333   0.5833333), wk =   0.0277778
        k(   34) = (   0.5000000   0.0000000   0.5000000), wk =   0.0138889
        k(   35) = (   0.0000000   0.6666667   0.0000000), wk =   0.0069444
        k(   36) = (  -0.0833333   0.7500000  -0.0833333), wk =   0.0277778
        k(   37) = (   0.8333333  -0.1666667   0.8333333), wk =   0.0277778
        k(   38) = (   0.7500000  -0.0833333   0.7500000), wk =   0.0277778
        k(   39) = (   0.6666667  -0.0000000   0.6666667), wk =   0.0138889
        k(   40) = (   0.0000000   0.8333333   0.0000000), wk =   0.0069444
        k(   41) = (   0.9166667  -0.0833333   0.9166667), wk =   0.0277778
        k(   42) = (   0.8333333   0.0000000   0.8333333), wk =   0.0138889
        k(   43) = (   0.0000000  -1.0000000   0.0000000), wk =   0.0034722
        k(   44) = (  -0.1666667   0.3333333   0.0000000), wk =   0.0277778
        k(   45) = (  -0.2500000   0.4166667  -0.0833333), wk =   0.0555556
        k(   46) = (  -0.3333333   0.5000000  -0.1666667), wk =   0.0555556
        k(   47) = (   0.5833333  -0.4166667   0.7500000), wk =   0.0555556
        k(   48) = (   0.5000000  -0.3333333   0.6666667), wk =   0.0277778
        k(   49) = (  -0.1666667   0.5000000   0.0000000), wk =   0.0277778
        k(   50) = (  -0.2500000   0.5833333  -0.0833333), wk =   0.0555556
        k(   51) = (   0.6666667  -0.3333333   0.8333333), wk =   0.0555556
        k(   52) = (   0.5833333  -0.2500000   0.7500000), wk =   0.0555556
        k(   53) = (   0.5000000  -0.1666667   0.6666667), wk =   0.0555556
        k(   54) = (   0.4166667  -0.0833333   0.5833333), wk =   0.0555556
        k(   55) = (   0.3333333   0.0000000   0.5000000), wk =   0.0277778
        k(   56) = (  -0.1666667   0.6666667  -0.0000000), wk =   0.0277778
        k(   57) = (   0.7500000  -0.2500000   0.9166667), wk =   0.0555556
        k(   58) = (   0.6666667  -0.1666667   0.8333333), wk =   0.0555556
        k(   59) = (   0.5833333  -0.0833333   0.7500000), wk =   0.0555556
        k(   60) = (   0.5000000   0.0000000   0.6666667), wk =   0.0277778
        k(   61) = (   0.8333333  -0.1666667   1.0000000), wk =   0.0277778
        k(   62) = (   0.7500000  -0.0833333   0.9166667), wk =   0.0555556
        k(   63) = (   0.6666667   0.0000000   0.8333333), wk =   0.0277778
        k(   64) = (  -0.1666667  -1.0000000  -0.0000000), wk =   0.0138889
        k(   65) = (   0.6666667  -0.3333333   1.0000000), wk =   0.0277778
        k(   66) = (   0.5833333  -0.2500000   0.9166667), wk =   0.0555556
        k(   67) = (   0.5000000  -0.1666667   0.8333333), wk =   0.0277778
        k(   68) = (   0.6666667  -0.1666667   1.0000000), wk =   0.0277778
        k(   69) = (   0.5833333  -0.0833333   0.9166667), wk =   0.0555556
        k(   70) = (   0.5000000   0.0000000   0.8333333), wk =   0.0277778
        k(   71) = (  -0.3333333  -1.0000000   0.0000000), wk =   0.0138889
        k(   72) = (  -0.5000000  -1.0000000   0.0000000), wk =   0.0069444

     Dense  grid:    28811 G-vectors     FFT dimensions: (  45,  45,  45)

     Estimated max dynamical RAM per process >       2.96 MB

     Estimated total dynamical RAM >      63.89 MB

     Initial potential from superposition of free atoms

     starting charge       7.9468, renormalised to       8.0000
     Starting wfcs are random

     total cpu time spent up to now is        0.3 secs

     Self-consistent Calculation

     iteration #  1     ecut=   133.00 Ry     beta= 0.70
     Davidson diagonalization with overlap
     ethr =  1.00E-02,  avg # of iterations =  8.6

     total cpu time spent up to now is        0.9 secs

     total energy              =     -19.19199546 Ry
     estimated scf accuracy    <       0.38457902 Ry

     iteration #  2     ecut=   133.00 Ry     beta= 0.70
     Davidson diagonalization with overlap
     ethr =  4.81E-03,  avg # of iterations =  2.0

     total cpu time spent up to now is        1.2 secs

     total energy              =     -19.29582640 Ry
     estimated scf accuracy    <       0.11258594 Ry

     iteration #  3     ecut=   133.00 Ry     beta= 0.70
     Davidson diagonalization with overlap
     ethr =  1.41E-03,  avg # of iterations =  1.0

     total cpu time spent up to now is        1.4 secs

     total energy              =     -19.31544371 Ry
     estimated scf accuracy    <       0.00105208 Ry

     iteration #  4     ecut=   133.00 Ry     beta= 0.70
     Davidson diagonalization with overlap
     ethr =  1.32E-05,  avg # of iterations =  5.4

     total cpu time spent up to now is        1.8 secs

     total energy              =     -19.31610534 Ry
     estimated scf accuracy    <       0.00036794 Ry

     iteration #  5     ecut=   133.00 Ry     beta= 0.70
     Davidson diagonalization with overlap
     ethr =  4.60E-06,  avg # of iterations =  1.5

     total cpu time spent up to now is        2.0 secs

     total energy              =     -19.31616464 Ry
     estimated scf accuracy    <       0.00000257 Ry

     iteration #  6     ecut=   133.00 Ry     beta= 0.70
     Davidson diagonalization with overlap
     ethr =  3.21E-08,  avg # of iterations =  3.7

     total cpu time spent up to now is        2.3 secs

     total energy              =     -19.31616760 Ry
     estimated scf accuracy    <       0.00000149 Ry

     iteration #  7     ecut=   133.00 Ry     beta= 0.70
     Davidson diagonalization with overlap
     ethr =  1.86E-08,  avg # of iterations =  1.4

     total cpu time spent up to now is        2.5 secs

     total energy              =     -19.31616782 Ry
     estimated scf accuracy    <          9.2E-09 Ry

     iteration #  8     ecut=   133.00 Ry     beta= 0.70
     Davidson diagonalization with overlap
     ethr =  1.14E-10,  avg # of iterations =  3.5

     total cpu time spent up to now is        2.8 secs

     End of self-consistent calculation

          k = 0.0000 0.0000 0.0000 (  3695 PWs)   bands (ev):

    -5.8966   9.4840   9.4840   9.4841  15.7707  16.8743  16.8743  16.8743

          k =-0.0833 0.0833-0.0833 (  3623 PWs)   bands (ev):

    -5.7605   8.7652   9.3911   9.3911  16.0131  17.0123  17.0485  17.0485

          k =-0.1667 0.1667-0.1667 (  3608 PWs)   bands (ev):

    -5.3564   7.1326   9.1605   9.1605  15.8890  17.3859  17.3859  17.8772

          k =-0.2500 0.2500-0.2500 (  3602 PWs)   bands (ev):

    -4.6989   5.2176   8.8890   8.8890  15.5304  17.4598  17.4599  18.8626

          k =-0.3333 0.3333-0.3333 (  3633 PWs)   bands (ev):

    -3.8268   3.3371   8.6547   8.6547  15.2220  17.1862  17.1862  19.4189

          k =-0.4167 0.4167-0.4167 (  3609 PWs)   bands (ev):

    -2.8659   1.7367   8.5017   8.5017  15.0297  16.8838  16.8838  19.5506

          k = 0.5000-0.5000 0.5000 (  3600 PWs)   bands (ev):

    -2.3206   0.9732   8.4490   8.4490  14.9655  16.7642  16.7642  19.5496

          k = 0.0000 0.1667 0.0000 (  3631 PWs)   bands (ev):

    -5.7152   8.9462   9.1497   9.1497  16.1137  16.5251  17.3704  17.3704

          k =-0.0833 0.2500-0.0833 (  3617 PWs)   bands (ev):

    -5.4003   7.6789   8.8164   9.0623  15.9315  16.7746  17.8732  17.9467

          k =-0.1667 0.3333-0.1667 (  3613 PWs)   bands (ev):

    -4.8264   5.8867   8.5037   8.8220  15.6572  17.1156  18.1406  18.3484

          k =-0.2500 0.4167-0.2500 (  3614 PWs)   bands (ev):

    -4.0218   4.0132   8.2854   8.4873  15.3777  16.9441  17.9403  19.0514

          k =-0.3333 0.5000-0.3333 (  3606 PWs)   bands (ev):

    -3.0692   2.3106   8.1623   8.1966  15.1973  16.6095  17.5334  19.7810

          k = 0.5833-0.4167 0.5833 (  3619 PWs)   bands (ev):

    -2.2916   1.1794   7.9128   8.2443  15.1706  16.4419  17.2073  20.0991

          k = 0.5000-0.3333 0.5000 (  3618 PWs)   bands (ev):

    -2.4872   1.4472   7.7795   8.4158  15.2907  16.5235  17.0868  20.0957

          k = 0.4167-0.2500 0.4167 (  3609 PWs)   bands (ev):

    -3.3936   2.8452   7.7880   8.6817  15.5145  16.8624  17.1811  19.7601

          k = 0.3333-0.1667 0.3333 (  3608 PWs)   bands (ev):

    -4.3133   4.6298   7.9509   8.9936  15.8167  17.3028  17.3625  19.0424

          k = 0.2500-0.0833 0.2500 (  3621 PWs)   bands (ev):

    -5.0458   6.4825   8.2706   9.2782  16.1743  17.2596  17.3366  18.4001

          k = 0.1667-0.0000 0.1667 (  3621 PWs)   bands (ev):

    -5.5351   8.0278   8.7870   9.4377  16.3207  16.7945  17.0934  17.8613

          k = 0.0000 0.3333 0.0000 (  3623 PWs)   bands (ev):

    -5.1760   7.7032   8.3915   8.3915  15.0948  16.8637  18.5915  18.5915

          k =-0.0833 0.4167-0.0833 (  3602 PWs)   bands (ev):

    -4.6907   6.4161   8.0149   8.1305  14.6490  16.7509  18.7432  19.1522

          k =-0.1667 0.5000-0.1667 (  3599 PWs)   bands (ev):

    -3.9660   4.7350   7.7068   7.7639  14.4421  17.0924  18.5258  19.1925

          k =-0.2500 0.5833-0.2500 (  3598 PWs)   bands (ev):

    -3.0605   3.0640   7.1920   7.6748  14.3037  17.4257  18.8262  19.0206

          k = 0.6667-0.3333 0.6667 (  3610 PWs)   bands (ev):

    -2.1786   1.7408   6.7359   7.7560  14.3556  17.3437  18.3906  20.1558

          k = 0.5833-0.2500 0.5833 (  3626 PWs)   bands (ev):

    -1.9974   1.5010   6.4234   7.9939  14.6619  17.2534  18.0745  20.6802

          k = 0.5000-0.1667 0.5000 (  3617 PWs)   bands (ev):

    -2.7540   2.5842   6.3091   8.3517  15.2097  17.2629  17.9263  20.1370

          k = 0.4167-0.0833 0.4167 (  3606 PWs)   bands (ev):

    -3.6874   4.1545   6.4591   8.7618  15.9161  17.3471  17.8565  19.0870

          k = 0.3333 0.0000 0.3333 (  3603 PWs)   bands (ev):

    -4.4796   5.6025   7.0741   9.1162  16.5560  17.1281  17.6311  18.4541

          k = 0.0000 0.5000 0.0000 (  3591 PWs)   bands (ev):

    -4.2961   6.1601   7.5741   7.5741  13.5932  15.8529  20.1206  20.1206

          k =-0.0833 0.5833-0.0833 (  3594 PWs)   bands (ev):

    -3.6596   5.0495   7.0757   7.2688  13.1542  15.6051  20.2144  20.5941

          k =-0.1667 0.6667-0.1667 (  3596 PWs)   bands (ev):

    -2.8265   3.7012   6.3056   7.1408  13.1088  16.2679  20.0264  20.4501

          k = 0.7500-0.2500 0.7500 (  3595 PWs)   bands (ev):

    -1.9374   2.4515   5.5567   7.2032  13.2405  17.4715  20.0171  20.0303

          k = 0.6667-0.1667 0.6667 (  3605 PWs)   bands (ev):

    -1.4782   1.8862   5.0167   7.4478  13.5982  18.3238  19.5578  20.5352

          k = 0.5833-0.0833 0.5833 (  3607 PWs)   bands (ev):

    -1.9798   2.5422   4.7936   7.8426  14.2098  18.5163  19.1250  20.3563

          k = 0.5000 0.0000 0.5000 (  3599 PWs)   bands (ev):

    -2.8659   3.5732   5.1735   8.3207  15.0431  18.2809  18.5795  19.3730

          k = 0.0000 0.6667 0.0000 (  3567 PWs)   bands (ev):

    -3.1163   4.4544   6.9041   6.9041  12.1608  14.7257  21.6768  21.6768

          k =-0.0833 0.7500-0.0833 (  3591 PWs)   bands (ev):

    -2.3765   3.5170   6.2620   6.7202  11.9627  14.7479  21.8020  22.0151

          k = 0.8333-0.1667 0.8333 (  3590 PWs)   bands (ev):

    -1.5567   2.6641   5.1711   6.7364  12.2393  15.7257  21.6259  21.7370

          k = 0.7500-0.0833 0.7500 (  3600 PWs)   bands (ev):

    -1.0160   2.2410   4.2042   6.9505  12.6858  17.2983  21.1567  21.4881

          k = 0.6667-0.0000 0.6667 (  3615 PWs)   bands (ev):

    -1.2522   2.4763   3.8774   7.3381  13.3360  18.6684  20.3074  21.0547

          k = 0.0000 0.8333 0.0000 (  3607 PWs)   bands (ev):

    -1.7557   2.7348   6.4755   6.4755  11.1968  14.0560  22.9842  22.9842

          k = 0.9167-0.0833 0.9167 (  3596 PWs)   bands (ev):

    -1.1080   2.0787   5.8478   6.4333  11.3415  14.3261  23.0652  23.0802

          k = 0.8333 0.0000 0.8333 (  3602 PWs)   bands (ev):

    -0.7949   1.9839   4.7661   6.5972  11.9480  15.5433  22.4165  22.7682

          k = 0.0000-1.0000 0.0000 (  3572 PWs)   bands (ev):

    -0.8636   1.7115   6.3289   6.3289  10.8673  13.8367  23.5482  23.5482

          k =-0.1667 0.3333 0.0000 (  3620 PWs)   bands (ev):

    -5.0001   6.8012   7.9759   8.9685  15.6772  17.0213  18.2142  18.2833

          k =-0.2500 0.4167-0.0833 (  3605 PWs)   bands (ev):

    -4.3499   5.2804   7.3848   8.7208  15.5365  17.2628  18.1004  18.5758

          k =-0.3333 0.5000-0.1667 (  3613 PWs)   bands (ev):

    -3.4901   3.5537   7.0999   8.3605  15.3231  16.9035  18.3890  19.0667

          k = 0.5833-0.4167 0.7500 (  3605 PWs)   bands (ev):

    -2.5492   2.0299   6.9886   8.0474  15.1629  16.5122  18.2241  20.1129

          k = 0.5000-0.3333 0.6667 (  3612 PWs)   bands (ev):

    -2.0218   1.3000   6.9680   7.9199  15.1102  16.3617  18.1471  20.5676

          k =-0.1667 0.5000 0.0000 (  3600 PWs)   bands (ev):

    -4.1292   5.5366   7.1130   7.9756  14.2301  16.4648  18.8433  19.8887

          k =-0.2500 0.5833-0.0833 (  3595 PWs)   bands (ev):

    -3.3468   4.2049   6.4859   7.6098  14.1643  16.8656  18.5456  20.1988

          k = 0.6667-0.3333 0.8333 (  3609 PWs)   bands (ev):

    -2.4328   2.7707   6.0824   7.3031  14.1837  17.3940  18.7652  20.1416

          k = 0.5833-0.2500 0.7500 (  3609 PWs)   bands (ev):

    -1.7108   1.7841   5.7570   7.2748  14.3512  17.2599  19.5200  20.3741

          k = 0.5000-0.1667 0.6667 (  3618 PWs)   bands (ev):

    -1.8992   2.0391   5.5536   7.5199  14.6961  17.1159  19.5344  20.3192

          k = 0.4167-0.0833 0.5833 (  3605 PWs)   bands (ev):

    -2.7549   3.2511   5.5952   7.9409  15.1515  17.1624  18.9112  19.6428

          k = 0.3333 0.0000 0.5000 (  3603 PWs)   bands (ev):

    -3.6392   4.5067   6.1429   8.4047  15.5130  17.3369  17.9968  19.2382

          k =-0.1667 0.6667-0.0000 (  3596 PWs)   bands (ev):

    -2.9673   4.1960   6.4131   6.9127  12.8797  15.4579  20.2077  21.5813

          k = 0.7500-0.2500 0.9167 (  3601 PWs)   bands (ev):

    -2.1233   3.2008   5.5913   6.5990  13.0981  16.1822  19.8316  21.8503

          k = 0.6667-0.1667 0.8333 (  3605 PWs)   bands (ev):

    -1.3537   2.3553   4.7900   6.6242  13.4311  17.4657  19.5865  21.6274

          k = 0.5833-0.0833 0.7500 (  3604 PWs)   bands (ev):

    -1.2437   2.2838   4.3029   6.9145  13.9007  18.1773  19.9672  20.9184

          k = 0.5000 0.0000 0.6667 (  3619 PWs)   bands (ev):

    -1.9101   2.8969   4.4577   7.3912  14.5222  17.9232  19.4322  20.4780

          k = 0.8333-0.1667 1.0000 (  3607 PWs)   bands (ev):

    -1.6456   2.7504   5.9768   6.1637  12.0073  14.8441  21.6359  22.9945

          k = 0.7500-0.0833 0.9167 (  3604 PWs)   bands (ev):

    -0.9834   2.2480   4.9333   6.1348  12.5602  15.8264  21.1727  22.8853

          k = 0.6667 0.0000 0.8333 (  3598 PWs)   bands (ev):

    -0.8205   2.2932   4.0477   6.4231  13.1813  17.3988  20.5142  21.7486

          k =-0.1667-1.0000-0.0000 (  3580 PWs)   bands (ev):

    -0.8099   1.8548   5.8591   5.8783  11.7157  14.6412  22.5129  23.6010

          k = 0.6667-0.3333 1.0000 (  3589 PWs)   bands (ev):

    -2.5402   3.5604   5.4123   7.0915  14.4002  17.2630  18.1223  21.1934

          k = 0.5833-0.2500 0.9167 (  3612 PWs)   bands (ev):

    -1.6867   2.6601   4.9063   6.5936  14.5710  17.5516  18.6528  21.3674

          k = 0.5000-0.1667 0.8333 (  3602 PWs)   bands (ev):

    -1.2350   2.1392   4.7989   6.3928  14.6139  17.4266  19.8251  20.7838

          k = 0.6667-0.1667 1.0000 (  3597 PWs)   bands (ev):

    -1.3556   2.7168   5.0046   5.7934  13.7154  16.7732  19.3506  22.4194

          k = 0.5833-0.0833 0.9167 (  3613 PWs)   bands (ev):

    -0.8438   2.4315   4.3787   5.5836  14.2633  17.8903  19.1828  20.9134

          k = 0.5000 0.0000 0.8333 (  3605 PWs)   bands (ev):

    -1.0186   2.5582   4.1863   5.9359  14.6004  18.0823  19.1855  20.5581

          k =-0.3333-1.0000 0.0000 (  3612 PWs)   bands (ev):

    -0.6948   2.2241   5.0025   5.1356  13.4906  16.6057  20.3658  21.7117

          k =-0.5000-1.0000 0.0000 (  3636 PWs)   bands (ev):

    -0.6328   2.4931   4.5172   4.8308  14.6919  18.9750  18.9929  19.2738

     the Fermi energy is    10.7036 ev

!    total energy              =     -19.31616783 Ry
     estimated scf accuracy    <          8.4E-11 Ry
     smearing contrib. (-TS)   =      -0.00000000 Ry
     internal energy E=F+TS    =     -19.31616783 Ry

     The total energy is F=E-TS. E is the sum of the following terms:
     one-electron contribution =       5.39179878 Ry
     hartree contribution      =       2.33933850 Ry
     xc contribution           =      -6.09681992 Ry
     ewald contribution        =     -20.95048519 Ry

     convergence has been achieved in   8 iterations

     Writing all to output data dir out/mp-8062.save/
 
     init_run     :      0.13s CPU      0.16s WALL (       1 calls)
     electrons    :      2.31s CPU      2.58s WALL (       1 calls)

     Called by init_run:
     wfcinit      :      0.09s CPU      0.10s WALL (       1 calls)
     potinit      :      0.01s CPU      0.01s WALL (       1 calls)
     hinit0       :      0.01s CPU      0.03s WALL (       1 calls)

     Called by electrons:
     c_bands      :      1.97s CPU      2.17s WALL (       8 calls)
     sum_band     :      0.30s CPU      0.33s WALL (       8 calls)
     v_of_rho     :      0.03s CPU      0.04s WALL (       9 calls)
     mix_rho      :      0.01s CPU      0.01s WALL (       8 calls)

     Called by c_bands:
     init_us_2    :      0.04s CPU      0.04s WALL (     612 calls)
     init_us_2:cp :      0.04s CPU      0.04s WALL (     612 calls)
     cegterg      :      1.74s CPU      1.84s WALL (     288 calls)

     Called by *egterg:
     cdiaghg      :      0.12s CPU      0.13s WALL (    1243 calls)
     h_psi        :      1.56s CPU      1.65s WALL (    1279 calls)
     g_psi        :      0.01s CPU      0.01s WALL (     955 calls)

     Called by h_psi:
     h_psi:calbec :      0.04s CPU      0.04s WALL (    1279 calls)
     vloc_psi     :      1.49s CPU      1.57s WALL (    1279 calls)
     add_vuspsi   :      0.02s CPU      0.02s WALL (    1279 calls)

     General routines
     calbec       :      0.03s CPU      0.04s WALL (    1279 calls)
     fft          :      0.02s CPU      0.03s WALL (      89 calls)
     ffts         :      0.00s CPU      0.00s WALL (       8 calls)
     fftw         :      1.59s CPU      1.68s WALL (   17426 calls)
     davcio       :      0.03s CPU      0.12s WALL (    1004 calls)
 
     Parallel routines
 
     PWSCF        :      2.53s CPU      2.93s WALL

 
   This run was terminated on:  21:50:51  19Nov2023            

=------------------------------------------------------------------------------=
   JOB DONE.
=------------------------------------------------------------------------------=
