
     Program PWSCF v.7.1 starts on  5Dec2023 at 21:13: 9 

     This program is part of the open-source Quantum ESPRESSO suite
     for quantum simulation of materials; please cite
         "P. Giannozzi et al., J. Phys.:Condens. Matter 21 395502 (2009);
         "P. Giannozzi et al., J. Phys.:Condens. Matter 29 465901 (2017);
         "P. Giannozzi et al., J. Chem. Phys. 152 154105 (2020);
          URL http://www.quantum-espresso.org", 
     in publications or presentations arising from this work. More details at
     http://www.quantum-espresso.org/quote

     Parallel version (MPI), running on    24 processors

     MPI processes distributed on     1 nodes
     122640 MiB available memory on the printing compute node when the environment starts
 
     Reading input from pw_mp-2542_scf_k3000_E99.in
Warning: card &CELL ignored
Warning: card / ignored

     Current dimensions of program PWSCF are:
     Max number of different atomic species (ntypx) = 10
     Max number of k-points (npk) =  40000
     Max angular momentum in pseudopotentials (lmaxx) =  4
 
     R & G space division:  proc/nbgrp/npool/nimage =      24
     Subspace diagonalization in iterative solution of the eigenvalue problem:
     a serial algorithm will be used

 
     Parallelization info
     --------------------
     sticks:   dense  smooth     PW     G-vecs:    dense   smooth      PW
     Min          29      29      8                 1025     1025     164
     Max          30      30      9                 1031     1031     171
     Sum         703     703    211                24671    24671    3995
 
     Using Slab Decomposition
 


     bravais-lattice index     =            4
     lattice parameter (alat)  =       5.0914  a.u.
     unit-cell volume          =     185.6482 (a.u.)^3
     number of atoms/cell      =            4
     number of atomic types    =            2
     number of electrons       =        20.00
     number of Kohn-Sham states=           20
     kinetic-energy cutoff     =      99.0000  Ry
     charge density cutoff     =     396.0000  Ry
     scf convergence threshold =      1.0E-10
     mixing beta               =       0.7000
     number of iterations used =            8  plain     mixing
     Exchange-correlation= PBE
                           (   1   4   3   4   0   0   0)

     celldm(1)=   5.091445  celldm(2)=   0.000000  celldm(3)=   1.624191
     celldm(4)=   0.000000  celldm(5)=   0.000000  celldm(6)=   0.000000

     crystal axes: (cart. coord. in units of alat)
               a(1) = (   1.000000   0.000000   0.000000 )  
               a(2) = (  -0.500000   0.866025   0.000000 )  
               a(3) = (   0.000000   0.000000   1.624191 )  

     reciprocal axes: (cart. coord. in units 2 pi/alat)
               b(1) = (  1.000000  0.577350  0.000000 )  
               b(2) = (  0.000000  1.154701  0.000000 )  
               b(3) = (  0.000000  0.000000  0.615691 )  


     PseudoPot. # 1 for Be read from file:
     /usr/scratch4/magr4985/MG/HTDF/pseudo/SG15/Be.upf
     MD5 check sum: dc1f98d164da9dc61a6fd2fad64b4ce2
     Pseudo is Norm-conserving, Zval =  4.0
     Generated using ONCVPSP code by D. R. Hamann
     Using radial grid of  602 points,  4 beta functions with: 
                l(1) =   0
                l(2) =   0
                l(3) =   1
                l(4) =   1

     PseudoPot. # 2 for O  read from file:
     /usr/scratch4/magr4985/MG/HTDF/pseudo/SG15/O.upf
     MD5 check sum: e36c48deb68f4e355fffe4602be2c42c
     Pseudo is Norm-conserving, Zval =  6.0
     Generated using ONCVPSP code by D. R. Hamann
     Using radial grid of  602 points,  4 beta functions with: 
                l(1) =   0
                l(2) =   0
                l(3) =   1
                l(4) =   1

     atomic species   valence    mass     pseudopotential
        Be             4.00     9.01220     Be( 1.00)
        O              6.00    15.99940     O ( 1.00)

      6 Sym. Ops. (no inversion) found



   Cartesian axes

     site n.     atom                  positions (alat units)
         1           Be  tau(   1) = (   0.5000000   0.2886752   0.0002601  )
         2           Be  tau(   2) = (   0.0000000   0.5773502   0.8123555  )
         3           O   tau(   3) = (   0.5000000   0.2886752   0.6128719  )
         4           O   tau(   4) = (   0.0000000   0.5773502   1.4249672  )

     number of k points=    72  Gaussian smearing, width (Ry)=  0.0005
                       cart. coord. in units 2pi/alat
        k(    1) = (   0.0000000   0.0000000   0.0000000), wk =   0.0033333
        k(    2) = (   0.0000000   0.0000000   0.1026152), wk =   0.0066667
        k(    3) = (   0.0000000   0.0000000   0.2052304), wk =   0.0066667
        k(    4) = (   0.0000000   0.0000000  -0.3078456), wk =   0.0033333
        k(    5) = (   0.0000000   0.1154701   0.0000000), wk =   0.0200000
        k(    6) = (   0.0000000   0.1154701   0.1026152), wk =   0.0200000
        k(    7) = (   0.0000000   0.1154701   0.2052304), wk =   0.0200000
        k(    8) = (   0.0000000   0.1154701  -0.3078456), wk =   0.0200000
        k(    9) = (   0.0000000   0.2309401   0.0000000), wk =   0.0200000
        k(   10) = (   0.0000000   0.2309401   0.1026152), wk =   0.0200000
        k(   11) = (   0.0000000   0.2309401   0.2052304), wk =   0.0200000
        k(   12) = (   0.0000000   0.2309401  -0.3078456), wk =   0.0200000
        k(   13) = (   0.0000000   0.3464102   0.0000000), wk =   0.0200000
        k(   14) = (   0.0000000   0.3464102   0.1026152), wk =   0.0200000
        k(   15) = (   0.0000000   0.3464102   0.2052304), wk =   0.0200000
        k(   16) = (   0.0000000   0.3464102  -0.3078456), wk =   0.0200000
        k(   17) = (   0.0000000   0.4618802   0.0000000), wk =   0.0200000
        k(   18) = (   0.0000000   0.4618802   0.1026152), wk =   0.0200000
        k(   19) = (   0.0000000   0.4618802   0.2052304), wk =   0.0200000
        k(   20) = (   0.0000000   0.4618802  -0.3078456), wk =   0.0200000
        k(   21) = (   0.0000000  -0.5773503   0.0000000), wk =   0.0100000
        k(   22) = (   0.0000000  -0.5773503   0.1026152), wk =   0.0200000
        k(   23) = (   0.0000000  -0.5773503   0.2052304), wk =   0.0200000
        k(   24) = (   0.0000000  -0.5773503  -0.3078456), wk =   0.0100000
        k(   25) = (   0.1000000   0.1732051   0.0000000), wk =   0.0200000
        k(   26) = (   0.1000000   0.1732051   0.1026152), wk =   0.0400000
        k(   27) = (   0.1000000   0.1732051   0.2052304), wk =   0.0400000
        k(   28) = (   0.1000000   0.1732051  -0.3078456), wk =   0.0200000
        k(   29) = (   0.1000000   0.2886751   0.0000000), wk =   0.0400000
        k(   30) = (   0.1000000   0.2886751   0.1026152), wk =   0.0400000
        k(   31) = (   0.1000000   0.2886751   0.2052304), wk =   0.0400000
        k(   32) = (   0.1000000   0.2886751  -0.3078456), wk =   0.0400000
        k(   33) = (   0.1000000   0.4041452   0.0000000), wk =   0.0400000
        k(   34) = (   0.1000000   0.4041452   0.1026152), wk =   0.0400000
        k(   35) = (   0.1000000   0.4041452   0.2052304), wk =   0.0400000
        k(   36) = (   0.1000000   0.4041452  -0.3078456), wk =   0.0400000
        k(   37) = (   0.1000000   0.5196152   0.0000000), wk =   0.0400000
        k(   38) = (   0.1000000   0.5196152   0.1026152), wk =   0.0400000
        k(   39) = (   0.1000000   0.5196152   0.2052304), wk =   0.0400000
        k(   40) = (   0.1000000   0.5196152  -0.3078456), wk =   0.0400000
        k(   41) = (   0.2000000   0.3464102   0.0000000), wk =   0.0200000
        k(   42) = (   0.2000000   0.3464102   0.1026152), wk =   0.0400000
        k(   43) = (   0.2000000   0.3464102   0.2052304), wk =   0.0400000
        k(   44) = (   0.2000000   0.3464102  -0.3078456), wk =   0.0200000
        k(   45) = (   0.2000000   0.4618802   0.0000000), wk =   0.0400000
        k(   46) = (   0.2000000   0.4618802   0.1026152), wk =   0.0400000
        k(   47) = (   0.2000000   0.4618802   0.2052304), wk =   0.0400000
        k(   48) = (   0.2000000   0.4618802  -0.3078456), wk =   0.0400000
        k(   49) = (   0.2000000   0.5773503   0.0000000), wk =   0.0200000
        k(   50) = (   0.2000000   0.5773503   0.1026152), wk =   0.0400000
        k(   51) = (   0.2000000   0.5773503   0.2052304), wk =   0.0400000
        k(   52) = (   0.2000000   0.5773503  -0.3078456), wk =   0.0200000
        k(   53) = (   0.3000000   0.5196152   0.0000000), wk =   0.0200000
        k(   54) = (   0.3000000   0.5196152   0.1026152), wk =   0.0400000
        k(   55) = (   0.3000000   0.5196152   0.2052304), wk =   0.0400000
        k(   56) = (   0.3000000   0.5196152  -0.3078456), wk =   0.0200000
        k(   57) = (   0.0000000  -0.1154701   0.1026152), wk =   0.0200000
        k(   58) = (   0.0000000  -0.1154701   0.2052304), wk =   0.0200000
        k(   59) = (   0.0000000  -0.2309401   0.1026152), wk =   0.0200000
        k(   60) = (   0.0000000  -0.2309401   0.2052304), wk =   0.0200000
        k(   61) = (   0.0000000  -0.3464102   0.1026152), wk =   0.0200000
        k(   62) = (   0.0000000  -0.3464102   0.2052304), wk =   0.0200000
        k(   63) = (   0.0000000  -0.4618802   0.1026152), wk =   0.0200000
        k(   64) = (   0.0000000  -0.4618802   0.2052304), wk =   0.0200000
        k(   65) = (  -0.1000000  -0.2886751   0.1026152), wk =   0.0400000
        k(   66) = (  -0.1000000  -0.2886751   0.2052304), wk =   0.0400000
        k(   67) = (  -0.1000000  -0.4041452   0.1026152), wk =   0.0400000
        k(   68) = (  -0.1000000  -0.4041452   0.2052304), wk =   0.0400000
        k(   69) = (  -0.1000000  -0.5196152   0.1026152), wk =   0.0400000
        k(   70) = (  -0.1000000  -0.5196152   0.2052304), wk =   0.0400000
        k(   71) = (  -0.2000000  -0.4618802   0.1026152), wk =   0.0400000
        k(   72) = (  -0.2000000  -0.4618802   0.2052304), wk =   0.0400000

     Dense  grid:    24671 G-vectors     FFT dimensions: (  36,  36,  54)

     Estimated max dynamical RAM per process >       1.98 MB

     Estimated total dynamical RAM >      47.48 MB

     Initial potential from superposition of free atoms

     starting charge      19.9483, renormalised to      20.0000
     Starting wfcs are random

     total cpu time spent up to now is        0.3 secs

     Self-consistent Calculation

     iteration #  1     ecut=    99.00 Ry     beta= 0.70
     Davidson diagonalization with overlap
     ethr =  1.00E-02,  avg # of iterations =  8.0

     total cpu time spent up to now is        2.5 secs

     total energy              =    -117.46151056 Ry
     estimated scf accuracy    <       0.49708358 Ry

     iteration #  2     ecut=    99.00 Ry     beta= 0.70
     Davidson diagonalization with overlap
     ethr =  2.49E-03,  avg # of iterations =  2.0

     total cpu time spent up to now is        3.5 secs

     total energy              =    -117.58531677 Ry
     estimated scf accuracy    <       0.25671575 Ry

     iteration #  3     ecut=    99.00 Ry     beta= 0.70
     Davidson diagonalization with overlap
     ethr =  1.28E-03,  avg # of iterations =  1.8

     total cpu time spent up to now is        4.5 secs

     total energy              =    -117.63866000 Ry
     estimated scf accuracy    <       0.00265597 Ry

     iteration #  4     ecut=    99.00 Ry     beta= 0.70
     Davidson diagonalization with overlap
     ethr =  1.33E-05,  avg # of iterations =  3.1

     total cpu time spent up to now is        5.7 secs

     total energy              =    -117.63920079 Ry
     estimated scf accuracy    <       0.00003565 Ry

     iteration #  5     ecut=    99.00 Ry     beta= 0.70
     Davidson diagonalization with overlap
     ethr =  1.78E-07,  avg # of iterations =  2.6

     total cpu time spent up to now is        7.1 secs

     total energy              =    -117.63920804 Ry
     estimated scf accuracy    <       0.00000246 Ry

     iteration #  6     ecut=    99.00 Ry     beta= 0.70
     Davidson diagonalization with overlap
     ethr =  1.23E-08,  avg # of iterations =  2.0

     total cpu time spent up to now is        8.3 secs

     total energy              =    -117.63920855 Ry
     estimated scf accuracy    <       0.00000012 Ry

     iteration #  7     ecut=    99.00 Ry     beta= 0.70
     Davidson diagonalization with overlap
     ethr =  5.91E-10,  avg # of iterations =  1.0

     total cpu time spent up to now is        9.5 secs

     total energy              =    -117.63920855 Ry
     estimated scf accuracy    <       0.00000002 Ry

     iteration #  8     ecut=    99.00 Ry     beta= 0.70
     Davidson diagonalization with overlap
     ethr =  8.66E-11,  avg # of iterations =  1.2

     total cpu time spent up to now is       10.6 secs

     total energy              =    -117.63920856 Ry
     estimated scf accuracy    <          4.0E-10 Ry

     iteration #  9     ecut=    99.00 Ry     beta= 0.70
     Davidson diagonalization with overlap
     ethr =  1.98E-12,  avg # of iterations =  2.0

     total cpu time spent up to now is       11.7 secs

     End of self-consistent calculation

          k = 0.0000 0.0000 0.0000 (  3027 PWs)   bands (ev):

   -90.2019 -90.1991 -12.1358 -10.3262   0.2620   5.5158   5.5159   6.4960
     6.4960   6.5159  14.2209  18.2317  20.8963  20.8963  21.4102  21.8081
    23.0356  23.0356  30.1906  30.2799

          k = 0.0000 0.0000 0.1026 (  3050 PWs)   bands (ev):

   -90.2017 -90.1993 -12.0409 -10.4862   0.6450   5.5779   5.5779   5.9879
     6.4266   6.4266  14.5875  17.9970  20.9624  20.9624  21.3623  21.6386
    22.7899  22.7899  30.7584  30.7584

          k = 0.0000 0.0000 0.2052 (  3056 PWs)   bands (ev):

   -90.2012 -90.1998 -11.7677 -10.8836   1.6860   4.6981   5.7498   5.7498
     6.2397   6.2397  15.4509  17.3574  21.1938  21.1938  21.2575  21.3512
    22.2230  22.2230  32.0871  32.0871

          k = 0.0000 0.0000-0.3078 (  3050 PWs)   bands (ev):

   -90.2005 -90.2005 -11.3554 -11.3554   3.1376   3.1376   5.9910   5.9910
     5.9910   5.9910  16.4526  16.4526  21.2143  21.2143  21.6297  21.6297
    21.6297  21.6297  33.9317  33.9333

          k = 0.0000 0.1155 0.0000 (  3064 PWs)   bands (ev):

   -90.2016 -90.1990 -12.0178 -10.2624   0.4079   5.0318   5.3131   5.9745
     6.4209   6.4266  14.6154  18.6253  20.7315  21.0315  21.1750  21.9789
    23.3127  23.3190  27.6603  29.7746

          k = 0.0000 0.1155 0.1026 (  3060 PWs)   bands (ev):

   -90.2015 -90.1992 -11.9251 -10.4162   0.7731   5.0983   5.3818   5.6386
     6.2295   6.3407  14.9005  18.3214  20.7275  21.0079  21.2489  21.8294
    23.0820  23.2048  28.3702  30.2887

          k = 0.0000 0.1155 0.2052 (  3068 PWs)   bands (ev):

   -90.2010 -90.1997 -11.6586 -10.7997   1.7621   4.5401   5.3212   5.5732
     5.9288   6.1261  15.6296  17.5510  20.6806  20.8629  21.4967  21.8824
    22.5312  22.8513  30.0153  31.7080

          k = 0.0000 0.1155-0.3078 (  3074 PWs)   bands (ev):

   -90.2004 -90.2003 -11.2572 -11.2572   3.1241   3.1241   5.6083   5.6083
     5.8439   5.8439  16.5795  16.5795  20.6971  20.6971  21.9430  21.9430
    22.3305  22.3305  31.7880  31.7880

          k = 0.0000 0.2309 0.0000 (  3068 PWs)   bands (ev):

   -90.2010 -90.1988 -11.6823 -10.0987   0.8220   3.8351   4.8457   4.8459
     6.1492   6.2000  15.4250  19.1845  19.6951  21.2500  21.7321  22.3996
    23.7247  24.0188  25.9153  29.6092

          k = 0.0000 0.2309 0.1026 (  3085 PWs)   bands (ev):

   -90.2009 -90.1989 -11.5967 -10.2335   1.1199   3.9202   4.6227   4.9270
     5.9854   6.0979  15.5135  18.5449  20.0625  21.1544  21.8451  22.2765
    23.7893  23.8077  26.6173  30.1060

          k = 0.0000 0.2309 0.2052 (  3075 PWs)   bands (ev):

   -90.2005 -90.1993 -11.3517 -10.5737   1.9043   3.7808   4.4303   5.1547
     5.5081   5.8287  15.8795  17.5593  20.3371  20.8338  22.1772  22.5292
    23.2919  23.6429  28.1814  31.0720

          k = 0.0000 0.2309-0.3078 (  3072 PWs)   bands (ev):

   -90.1999 -90.1999 -10.9857 -10.9857   2.9049   2.9049   4.8970   4.8970
     5.4814   5.4814  16.5992  16.5992  20.5368  20.5368  22.6912  22.6912
    23.1276  23.1276  29.9414  29.9414

          k = 0.0000 0.3464 0.0000 (  3094 PWs)   bands (ev):

   -90.2003 -90.1985 -11.1914  -9.9192   1.3380   2.6225   3.6644   4.3496
     5.6664   5.9130  16.0874  18.2892  19.3920  21.9741  22.0024  23.0654
    23.8914  24.8923  25.5295  30.7385

          k = 0.0000 0.3464 0.1026 (  3089 PWs)   bands (ev):

   -90.2001 -90.1986 -11.1197 -10.0219   1.4309   2.8017   3.5133   4.4408
     5.6323   5.7915  15.9368  17.7666  19.9312  21.9199  22.2005  22.5387
    24.2986  24.6898  25.9987  30.7944

          k = 0.0000 0.3464 0.2052 (  3087 PWs)   bands (ev):

   -90.1998 -90.1989 -10.9157 -10.2864   1.7123   2.6716   3.8149   4.6982
     5.3302   5.4743  15.8519  16.9711  20.4460  21.4031  22.7300  22.8493
    24.1521  24.2006  27.2825  30.3187

          k = 0.0000 0.3464-0.3078 (  3096 PWs)   bands (ev):

   -90.1994 -90.1994 -10.6159 -10.6159   2.1588   2.1588   4.6372   4.6372
     5.0715   5.0715  16.2313  16.2313  20.8543  20.8543  23.4392  23.4392
    23.6186  23.6187  28.9224  28.9224

          k = 0.0000 0.4619 0.0000 (  3098 PWs)   bands (ev):

   -90.1995 -90.1983 -10.6725  -9.8439   1.0824   2.6441   2.7990   3.9921
     5.0070   5.6824  16.3295  17.2137  19.7409  21.8842  21.9419  23.8120
    24.7673  25.3369  25.6458  30.8618

          k = 0.0000 0.4619 0.1026 (  3094 PWs)   bands (ev):

   -90.1995 -90.1984 -10.6224  -9.9055   1.0315   2.3686   3.1468   4.0892
     5.1366   5.5486  15.9983  16.9458  20.2915  21.7898  22.2139  23.1690
    24.6473  25.4151  26.1723  30.8712

          k = 0.0000 0.4619 0.2052 (  3095 PWs)   bands (ev):

   -90.1992 -90.1986 -10.4821 -10.0689   1.0658   1.8191   3.9287   4.3641
     5.1616   5.2017  15.6153  16.3914  20.7558  21.7549  22.8725  22.9355
    24.3679  24.7764  27.4373  30.2884

          k = 0.0000 0.4619-0.3078 (  3082 PWs)   bands (ev):

   -90.1990 -90.1989 -10.2812 -10.2812   1.3359   1.3360   4.7210   4.7210
     4.7652   4.7652  15.7962  15.7962  21.1403  21.1403  23.7418  23.7419
    23.8767  23.8767  28.8822  28.8822

          k = 0.0000-0.5774 0.0000 (  3106 PWs)   bands (ev):

   -90.1992 -90.1983 -10.3927  -9.8824   0.7702   2.4383   3.1298   3.8636
     4.5430   5.5955  16.3573  16.8052  20.0339  21.6637  21.8778  24.4822
    24.7081  25.4158  25.9390  30.9319

          k = 0.0000-0.5774 0.1026 (  3096 PWs)   bands (ev):

   -90.1992 -90.1984 -10.3599  -9.9178   0.7285   2.0966   3.4382   3.9626
     4.7922   5.4577  15.9379  16.6552  20.7213  21.3608  22.1751  23.6523
    24.5043  25.6894  26.4740  30.9992

          k = 0.0000-0.5774 0.2052 (  3086 PWs)   bands (ev):

   -90.1990 -90.1986 -10.2693 -10.0139   0.7515   1.4897   4.1301   4.2432
     5.0312   5.1009  15.4743  16.1823  21.0245  21.5898  22.9665  22.9853
    24.3432  24.9926  27.7081  30.4279

          k = 0.0000-0.5774-0.3078 (  3092 PWs)   bands (ev):

   -90.1988 -90.1988 -10.1430 -10.1430   1.0005   1.0005   4.6534   4.6534
     4.7860   4.7861  15.6139  15.6140  21.2126  21.2126  23.7526  23.7526
    24.0030  24.0030  29.0559  29.0559

          k = 0.1000 0.1732 0.0000 (  3080 PWs)   bands (ev):

   -90.2012 -90.1989 -11.7908 -10.1483   0.6901   4.3902   4.5540   5.4886
     6.1625   6.2445  15.2328  19.1574  20.0415  20.9265  21.8780  22.0117
    23.5257  23.8722  26.8122  28.2268

          k = 0.1000 0.1732 0.1026 (  3070 PWs)   bands (ev):

   -90.2011 -90.1990 -11.7028 -10.2895   1.0142   4.4798   4.5302   5.2986
     6.0659   6.0914  15.3880  18.6554  20.1791  20.8951  21.9247  21.9719
    23.5714  23.6397  27.5637  28.5959

          k = 0.1000 0.1732 0.2052 (  3067 PWs)   bands (ev):

   -90.2006 -90.1995 -11.4503 -10.6444   1.8795   4.0686   4.7342   5.1484
     5.7218   5.8184  15.8801  17.6888  20.3092  20.6608  22.1228  22.2883
    23.1142  23.4188  29.1850  29.6761

          k = 0.1000 0.1732-0.3078 (  3072 PWs)   bands (ev):

   -90.2001 -90.2000 -11.0721 -11.0721   3.0198   3.0198   5.0781   5.0781
     5.5582   5.5582  16.6903  16.6903  20.4338  20.4338  22.5220  22.5220
    22.9221  22.9221  30.4536  30.4536

          k = 0.1000 0.2887 0.0000 (  3089 PWs)   bands (ev):

   -90.2005 -90.1986 -11.3756  -9.9740   1.1989   3.1426   3.7257   4.7947
     5.7925   5.8722  16.0819  18.5919  19.8818  21.3480  21.9527  22.5723
    23.6794  24.7705  26.2288  28.2126

          k = 0.1000 0.2887 0.1026 (  3094 PWs)   bands (ev):

   -90.2004 -90.1987 -11.2980 -10.0897   1.4046   3.2073   3.7604   4.6866
     5.6466   5.8449  16.0371  18.2051  20.0499  21.1406  22.2008  22.5342
    23.9249  24.4833  26.7339  28.5348

          k = 0.1000 0.2887 0.2052 (  3079 PWs)   bands (ev):

   -90.2000 -90.1991 -11.0767 -10.3852   1.9229   3.0716   4.0374   4.6569
     5.3182   5.5708  16.1324  17.4131  20.2671  20.7765  22.6703  22.8812
    23.8552  24.0351  27.8663  29.3409

          k = 0.1000 0.2887-0.3078 (  3078 PWs)   bands (ev):

   -90.1996 -90.1995 -10.7491 -10.7491   2.5481   2.5481   4.5694   4.5694
     5.1731   5.1731  16.6221  16.6222  20.4816  20.4816  23.1830  23.1830
    23.5894  23.5894  29.1883  29.1883

          k = 0.1000 0.4041 0.0000 (  3088 PWs)   bands (ev):

   -90.1998 -90.1984 -10.8620  -9.8432   1.4450   2.3729   3.0715   4.0982
     5.2902   5.4958  16.5908  17.6536  19.6510  21.8391  22.1963  23.3989
    23.9124  25.4387  26.0137  29.4514

          k = 0.1000 0.4041 0.1026 (  3092 PWs)   bands (ev):

   -90.1997 -90.1985 -10.8024  -9.9219   1.4068   2.4322   3.1901   4.0993
     5.2415   5.4867  16.3497  17.4497  19.8969  21.7253  22.4706  22.8950
    24.4177  25.0540  26.4771  29.6305

          k = 0.1000 0.4041 0.2052 (  3096 PWs)   bands (ev):

   -90.1994 -90.1987 -10.6341 -10.1278   1.4765   2.1617   3.7237   4.3225
     4.9156   5.4127  16.0944  16.9079  20.3137  21.3218  22.7423  23.3149
    24.3294  24.6109  27.4345  29.6739

          k = 0.1000 0.4041-0.3078 (  3096 PWs)   bands (ev):

   -90.1991 -90.1991 -10.3903 -10.3903   1.7552   1.7552   4.2840   4.2840
     5.0029   5.0029  16.3154  16.3154  20.7728  20.7728  23.3878  23.3878
    24.2013  24.2013  28.7061  28.7061

          k = 0.1000 0.5196 0.0000 (  3078 PWs)   bands (ev):

   -90.1992 -90.1983 -10.4234  -9.8505   0.9151   2.5589   2.9647   3.7600
     4.6399   5.3166  16.3918  17.3421  19.8393  21.6499  22.2431  24.3051
    24.8243  25.2722  25.8269  30.6994

          k = 0.1000 0.5196 0.1026 (  3089 PWs)   bands (ev):

   -90.1992 -90.1984 -10.3872  -9.8911   0.8882   2.2247   3.2043   3.9250
     4.7971   5.2318  16.1459  17.1754  20.1397  21.3840  22.5835  23.7867
    24.5794  25.3578  26.4908  30.6970

          k = 0.1000 0.5196 0.2052 (  3095 PWs)   bands (ev):

   -90.1990 -90.1986 -10.2869 -10.0004   0.9318   1.6554   3.6237   4.4074
     4.6429   5.2473  15.8586  16.6591  20.6304  21.1264  22.8724  23.7437
    24.2106  25.0953  27.5882  30.1048

          k = 0.1000 0.5196-0.3078 (  3100 PWs)   bands (ev):

   -90.1988 -90.1988 -10.1459 -10.1459   1.1848   1.1848   4.1045   4.1045
     5.0246   5.0246  16.0572  16.0572  20.9219  20.9219  23.3640  23.3640
    24.5713  24.5713  28.8352  28.8352

          k = 0.2000 0.3464 0.0000 (  3098 PWs)   bands (ev):

   -90.1999 -90.1984 -10.9319  -9.8440   1.7359   2.2035   3.0714   4.3530
     5.1225   5.4268  17.1246  17.4032  20.5916  21.2440  22.2126  22.4584
    24.1056  25.4579  27.0102  27.7117

          k = 0.2000 0.3464 0.1026 (  3094 PWs)   bands (ev):

   -90.1998 -90.1985 -10.8689  -9.9291   1.7431   2.2266   3.3449   4.1449
     4.9873   5.5296  16.9371  17.3843  20.3802  20.9855  22.5090  22.6990
    24.3024  25.1255  27.1502  28.1745

          k = 0.2000 0.3464 0.2052 (  3101 PWs)   bands (ev):

   -90.1995 -90.1988 -10.6909 -10.1510   1.8411   2.2113   3.8992   3.9150
     4.7529   5.4770  16.6923  17.1728  20.2432  20.5842  22.8164  23.4366
    24.4482  24.4526  27.7004  28.8792

          k = 0.2000 0.3464-0.3078 (  3106 PWs)   bands (ev):

   -90.1991 -90.1991 -10.4318 -10.4318   2.0443   2.0443   3.9790   3.9790
     5.0526   5.0526  16.8070  16.8070  20.3326  20.3326  23.4318  23.4318
    24.2364  24.2364  28.6009  28.6009

          k = 0.2000 0.4619 0.0000 (  3093 PWs)   bands (ev):

   -90.1992 -90.1983 -10.4668  -9.8054   1.2781   2.2918   3.0905   3.6933
     4.6217   4.8992  16.4122  18.1259  20.2362  21.5915  22.5948  23.3543
    24.3084  25.6228  26.4125  29.3426

          k = 0.2000 0.4619 0.1026 (  3088 PWs)   bands (ev):

   -90.1992 -90.1984 -10.4259  -9.8535   1.3096   2.1099   3.2292   3.7073
     4.4871   5.1181  16.5440  17.8865  19.9986  21.1651  22.9671  23.3690
    24.6155  25.3229  26.7533  29.4836

          k = 0.2000 0.4619 0.2052 (  3106 PWs)   bands (ev):

   -90.1990 -90.1986 -10.3121  -9.9819   1.4065   1.8555   3.1729   3.7955
     4.5907   5.3256  16.7202  17.3834  19.9002  20.5242  23.1862  23.8162
    24.7223  25.0365  27.4291  29.2788

          k = 0.2000 0.4619-0.3078 (  3100 PWs)   bands (ev):

   -90.1988 -90.1988 -10.1506 -10.1506   1.5965   1.5965   3.4026   3.4026
     5.1234   5.1234  16.9368  16.9368  20.1293  20.1293  23.5834  23.5834
    24.8640  24.8640  28.3499  28.3499

          k = 0.2000 0.5774 0.0000 (  3086 PWs)   bands (ev):

   -90.1989 -90.1984 -10.2065  -9.8622   0.9333   2.7335   2.8175   3.7410
     4.2086   4.6798  16.0333  18.4912  20.2203  21.4772  22.7348  24.1865
    24.8501  25.1177  25.9389  31.0454

          k = 0.2000 0.5774 0.1026 (  3092 PWs)   bands (ev):

   -90.1989 -90.1984 -10.1840  -9.8857   0.9800   2.4113   2.7438   4.0869
     4.1253   4.8604  16.2168  18.2922  19.8702  21.0167  23.1757  24.1388
    24.7473  25.1282  26.4814  30.7365

          k = 0.2000 0.5774 0.2052 (  3093 PWs)   bands (ev):

   -90.1988 -90.1985 -10.1220  -9.9497   1.1277   1.8624   2.8255   3.6954
     4.7121   5.1936  16.5494  17.6740  19.6914  20.4071  23.5289  23.9314
    24.7710  25.3725  27.3080  29.6144

          k = 0.2000 0.5774-0.3078 (  3104 PWs)   bands (ev):

   -90.1987 -90.1986 -10.0363 -10.0363   1.4126   1.4126   3.1843   3.1843
     5.1690   5.1690  16.9760  16.9761  20.0001  20.0001  23.6548  23.6548
    25.1910  25.1910  28.3160  28.3160

          k = 0.3000 0.5196 0.0000 (  3086 PWs)   bands (ev):

   -90.1988 -90.1984 -10.1183  -9.8696   0.9910   2.5638   3.1408   3.5880
     4.0181   4.3892  15.8021  19.1933  20.7372  21.3510  23.0855  23.4793
    24.5714  25.2701  26.2673  30.5959

          k = 0.3000 0.5196 0.1026 (  3089 PWs)   bands (ev):

   -90.1987 -90.1984 -10.1018  -9.8864   1.1125   2.3197   2.8654   3.5180
     4.2447   4.7117  16.1778  18.9823  20.1436  20.5642  23.6291  23.7528
    24.8549  25.2784  26.4159  30.4546

          k = 0.3000 0.5196 0.2052 (  3094 PWs)   bands (ev):

   -90.1987 -90.1985 -10.0566  -9.9322   1.4380   2.0071   2.5183   3.0236
     4.8320   5.1430  17.0420  18.3429  19.4847  19.5301  23.9061  24.0598
    25.3384  25.4351  26.8922  29.1852

          k = 0.3000 0.5196-0.3078 (  3108 PWs)   bands (ev):

   -90.1986 -90.1986  -9.9946  -9.9946   1.7829   1.7829   2.5384   2.5384
     5.2143   5.2143  17.7748  17.7748  19.1611  19.1611  24.0230  24.0230
    25.5544  25.5544  27.7681  27.7681

          k = 0.0000-0.1155 0.1026 (  3060 PWs)   bands (ev):

   -90.2015 -90.1992 -11.9251 -10.4162   0.7731   5.0983   5.3818   5.6386
     6.2295   6.3407  14.9005  18.3214  20.7275  21.0079  21.2489  21.8294
    23.0820  23.2048  28.3702  30.2887

          k = 0.0000-0.1155 0.2052 (  3068 PWs)   bands (ev):

   -90.2010 -90.1997 -11.6586 -10.7997   1.7621   4.5401   5.3212   5.5732
     5.9288   6.1261  15.6296  17.5510  20.6806  20.8629  21.4967  21.8824
    22.5312  22.8513  30.0153  31.7080

          k = 0.0000-0.2309 0.1026 (  3085 PWs)   bands (ev):

   -90.2009 -90.1989 -11.5967 -10.2335   1.1199   3.9202   4.6227   4.9270
     5.9854   6.0979  15.5135  18.5449  20.0625  21.1544  21.8451  22.2765
    23.7893  23.8077  26.6173  30.1060

          k = 0.0000-0.2309 0.2052 (  3075 PWs)   bands (ev):

   -90.2005 -90.1993 -11.3517 -10.5737   1.9043   3.7808   4.4303   5.1547
     5.5081   5.8287  15.8795  17.5593  20.3371  20.8338  22.1772  22.5292
    23.2919  23.6429  28.1814  31.0720

          k = 0.0000-0.3464 0.1026 (  3089 PWs)   bands (ev):

   -90.2001 -90.1986 -11.1197 -10.0219   1.4309   2.8017   3.5133   4.4408
     5.6323   5.7915  15.9368  17.7666  19.9312  21.9199  22.2005  22.5387
    24.2986  24.6898  25.9987  30.7944

          k = 0.0000-0.3464 0.2052 (  3087 PWs)   bands (ev):

   -90.1998 -90.1989 -10.9157 -10.2864   1.7123   2.6716   3.8149   4.6982
     5.3302   5.4743  15.8519  16.9710  20.4460  21.4031  22.7300  22.8493
    24.1521  24.2006  27.2825  30.3187

          k = 0.0000-0.4619 0.1026 (  3094 PWs)   bands (ev):

   -90.1995 -90.1984 -10.6224  -9.9055   1.0315   2.3686   3.1468   4.0892
     5.1366   5.5486  15.9983  16.9458  20.2915  21.7898  22.2139  23.1690
    24.6473  25.4151  26.1723  30.8712

          k = 0.0000-0.4619 0.2052 (  3095 PWs)   bands (ev):

   -90.1992 -90.1986 -10.4821 -10.0689   1.0658   1.8191   3.9287   4.3641
     5.1616   5.2017  15.6153  16.3914  20.7558  21.7549  22.8726  22.9355
    24.3679  24.7764  27.4373  30.2884

          k =-0.1000-0.2887 0.1026 (  3094 PWs)   bands (ev):

   -90.2004 -90.1987 -11.2980 -10.0897   1.4046   3.2073   3.7604   4.6866
     5.6466   5.8449  16.0371  18.2051  20.0499  21.1406  22.2008  22.5342
    23.9249  24.4833  26.7339  28.5348

          k =-0.1000-0.2887 0.2052 (  3079 PWs)   bands (ev):

   -90.2000 -90.1991 -11.0767 -10.3852   1.9229   3.0716   4.0374   4.6569
     5.3182   5.5708  16.1324  17.4131  20.2671  20.7765  22.6703  22.8812
    23.8552  24.0351  27.8663  29.3409

          k =-0.1000-0.4041 0.1026 (  3092 PWs)   bands (ev):

   -90.1997 -90.1985 -10.8024  -9.9219   1.4068   2.4322   3.1901   4.0993
     5.2415   5.4867  16.3497  17.4497  19.8969  21.7253  22.4706  22.8950
    24.4177  25.0540  26.4771  29.6305

          k =-0.1000-0.4041 0.2052 (  3096 PWs)   bands (ev):

   -90.1994 -90.1987 -10.6341 -10.1278   1.4765   2.1617   3.7237   4.3225
     4.9156   5.4127  16.0944  16.9079  20.3137  21.3218  22.7423  23.3149
    24.3293  24.6109  27.4345  29.6739

          k =-0.1000-0.5196 0.1026 (  3089 PWs)   bands (ev):

   -90.1992 -90.1984 -10.3872  -9.8911   0.8882   2.2247   3.2043   3.9250
     4.7971   5.2318  16.1459  17.1754  20.1397  21.3840  22.5835  23.7867
    24.5794  25.3578  26.4908  30.6970

          k =-0.1000-0.5196 0.2052 (  3095 PWs)   bands (ev):

   -90.1990 -90.1986 -10.2869 -10.0004   0.9318   1.6554   3.6237   4.4074
     4.6429   5.2473  15.8586  16.6591  20.6304  21.1264  22.8724  23.7437
    24.2106  25.0953  27.5882  30.1048

          k =-0.2000-0.4619 0.1026 (  3088 PWs)   bands (ev):

   -90.1992 -90.1984 -10.4259  -9.8535   1.3096   2.1099   3.2292   3.7073
     4.4871   5.1181  16.5440  17.8865  19.9986  21.1651  22.9671  23.3690
    24.6155  25.3229  26.7533  29.4836

          k =-0.2000-0.4619 0.2052 (  3106 PWs)   bands (ev):

   -90.1990 -90.1986 -10.3121  -9.9819   1.4065   1.8555   3.1729   3.7955
     4.5907   5.3256  16.7202  17.3834  19.9002  20.5242  23.1862  23.8162
    24.7223  25.0365  27.4291  29.2788

     the Fermi energy is    10.6970 ev

!    total energy              =    -117.63920856 Ry
     estimated scf accuracy    <          7.6E-11 Ry
     smearing contrib. (-TS)   =      -0.00000000 Ry
     internal energy E=F+TS    =    -117.63920856 Ry

     The total energy is F=E-TS. E is the sum of the following terms:
     one-electron contribution =     -39.06432951 Ry
     hartree contribution      =      21.24059265 Ry
     xc contribution           =     -22.87459420 Ry
     ewald contribution        =     -76.94087750 Ry

     convergence has been achieved in   9 iterations

     Writing all to output data dir out/mp-2542.save/
 
     init_run     :      0.21s CPU      0.27s WALL (       1 calls)
     electrons    :      8.84s CPU     11.41s WALL (       1 calls)

     Called by init_run:
     wfcinit      :      0.19s CPU      0.23s WALL (       1 calls)
     potinit      :      0.01s CPU      0.01s WALL (       1 calls)
     hinit0       :      0.01s CPU      0.01s WALL (       1 calls)

     Called by electrons:
     c_bands      :      6.69s CPU      8.42s WALL (       9 calls)
     sum_band     :      2.11s CPU      2.86s WALL (       9 calls)
     v_of_rho     :      0.02s CPU      0.02s WALL (      10 calls)
     mix_rho      :      0.02s CPU      0.05s WALL (       9 calls)

     Called by c_bands:
     init_us_2    :      0.05s CPU      0.05s WALL (    1368 calls)
     init_us_2:cp :      0.04s CPU      0.05s WALL (    1368 calls)
     cegterg      :      5.42s CPU      5.74s WALL (     648 calls)

     Called by *egterg:
     cdiaghg      :      0.99s CPU      1.03s WALL (    2355 calls)
     h_psi        :      4.16s CPU      4.45s WALL (    2427 calls)
     g_psi        :      0.02s CPU      0.02s WALL (    1707 calls)

     Called by h_psi:
     h_psi:calbec :      0.12s CPU      0.13s WALL (    2427 calls)
     vloc_psi     :      3.96s CPU      4.23s WALL (    2427 calls)
     add_vuspsi   :      0.06s CPU      0.07s WALL (    2427 calls)

     General routines
     calbec       :      0.11s CPU      0.12s WALL (    2427 calls)
     fft          :      0.01s CPU      0.01s WALL (      99 calls)
     ffts         :      0.00s CPU      0.00s WALL (       9 calls)
     fftw         :      5.61s CPU      6.07s WALL (   87044 calls)
     davcio       :      0.10s CPU      1.76s WALL (    2174 calls)
 
     Parallel routines
 
     PWSCF        :      9.32s CPU     12.20s WALL

 
   This run was terminated on:  21:13:21   5Dec2023            

=------------------------------------------------------------------------------=
   JOB DONE.
=------------------------------------------------------------------------------=
