
     Program PWSCF v.7.1 starts on  5Dec2023 at 19:18:34 

     This program is part of the open-source Quantum ESPRESSO suite
     for quantum simulation of materials; please cite
         "P. Giannozzi et al., J. Phys.:Condens. Matter 21 395502 (2009);
         "P. Giannozzi et al., J. Phys.:Condens. Matter 29 465901 (2017);
         "P. Giannozzi et al., J. Chem. Phys. 152 154105 (2020);
          URL http://www.quantum-espresso.org", 
     in publications or presentations arising from this work. More details at
     http://www.quantum-espresso.org/quote

     Parallel version (MPI), running on    24 processors

     MPI processes distributed on     1 nodes
     122793 MiB available memory on the printing compute node when the environment starts
 
     Reading input from pw_mp-2542_scf_k3000_E94.in
Warning: card &CELL ignored
Warning: card / ignored

     Current dimensions of program PWSCF are:
     Max number of different atomic species (ntypx) = 10
     Max number of k-points (npk) =  40000
     Max angular momentum in pseudopotentials (lmaxx) =  4
 
     R & G space division:  proc/nbgrp/npool/nimage =      24
     Subspace diagonalization in iterative solution of the eigenvalue problem:
     a serial algorithm will be used

 
     Parallelization info
     --------------------
     sticks:   dense  smooth     PW     G-vecs:    dense   smooth      PW
     Min          28      28      8                  952      952     152
     Max          29      29      9                  958      958     159
     Sum         673     673    199                22887    22887    3693
 
     Using Slab Decomposition
 


     bravais-lattice index     =            4
     lattice parameter (alat)  =       5.0914  a.u.
     unit-cell volume          =     185.6482 (a.u.)^3
     number of atoms/cell      =            4
     number of atomic types    =            2
     number of electrons       =        20.00
     number of Kohn-Sham states=           20
     kinetic-energy cutoff     =      94.0000  Ry
     charge density cutoff     =     376.0000  Ry
     scf convergence threshold =      1.0E-10
     mixing beta               =       0.7000
     number of iterations used =            8  plain     mixing
     Exchange-correlation= PBE
                           (   1   4   3   4   0   0   0)

     celldm(1)=   5.091445  celldm(2)=   0.000000  celldm(3)=   1.624191
     celldm(4)=   0.000000  celldm(5)=   0.000000  celldm(6)=   0.000000

     crystal axes: (cart. coord. in units of alat)
               a(1) = (   1.000000   0.000000   0.000000 )  
               a(2) = (  -0.500000   0.866025   0.000000 )  
               a(3) = (   0.000000   0.000000   1.624191 )  

     reciprocal axes: (cart. coord. in units 2 pi/alat)
               b(1) = (  1.000000  0.577350  0.000000 )  
               b(2) = (  0.000000  1.154701  0.000000 )  
               b(3) = (  0.000000  0.000000  0.615691 )  


     PseudoPot. # 1 for Be read from file:
     /usr/scratch4/magr4985/MG/HTDF/pseudo/SG15/Be.upf
     MD5 check sum: dc1f98d164da9dc61a6fd2fad64b4ce2
     Pseudo is Norm-conserving, Zval =  4.0
     Generated using ONCVPSP code by D. R. Hamann
     Using radial grid of  602 points,  4 beta functions with: 
                l(1) =   0
                l(2) =   0
                l(3) =   1
                l(4) =   1

     PseudoPot. # 2 for O  read from file:
     /usr/scratch4/magr4985/MG/HTDF/pseudo/SG15/O.upf
     MD5 check sum: e36c48deb68f4e355fffe4602be2c42c
     Pseudo is Norm-conserving, Zval =  6.0
     Generated using ONCVPSP code by D. R. Hamann
     Using radial grid of  602 points,  4 beta functions with: 
                l(1) =   0
                l(2) =   0
                l(3) =   1
                l(4) =   1

     atomic species   valence    mass     pseudopotential
        Be             4.00     9.01220     Be( 1.00)
        O              6.00    15.99940     O ( 1.00)

      6 Sym. Ops. (no inversion) found



   Cartesian axes

     site n.     atom                  positions (alat units)
         1           Be  tau(   1) = (   0.5000000   0.2886752   0.0002601  )
         2           Be  tau(   2) = (   0.0000000   0.5773502   0.8123555  )
         3           O   tau(   3) = (   0.5000000   0.2886752   0.6128719  )
         4           O   tau(   4) = (   0.0000000   0.5773502   1.4249672  )

     number of k points=    72  Gaussian smearing, width (Ry)=  0.0005
                       cart. coord. in units 2pi/alat
        k(    1) = (   0.0000000   0.0000000   0.0000000), wk =   0.0033333
        k(    2) = (   0.0000000   0.0000000   0.1026152), wk =   0.0066667
        k(    3) = (   0.0000000   0.0000000   0.2052304), wk =   0.0066667
        k(    4) = (   0.0000000   0.0000000  -0.3078456), wk =   0.0033333
        k(    5) = (   0.0000000   0.1154701   0.0000000), wk =   0.0200000
        k(    6) = (   0.0000000   0.1154701   0.1026152), wk =   0.0200000
        k(    7) = (   0.0000000   0.1154701   0.2052304), wk =   0.0200000
        k(    8) = (   0.0000000   0.1154701  -0.3078456), wk =   0.0200000
        k(    9) = (   0.0000000   0.2309401   0.0000000), wk =   0.0200000
        k(   10) = (   0.0000000   0.2309401   0.1026152), wk =   0.0200000
        k(   11) = (   0.0000000   0.2309401   0.2052304), wk =   0.0200000
        k(   12) = (   0.0000000   0.2309401  -0.3078456), wk =   0.0200000
        k(   13) = (   0.0000000   0.3464102   0.0000000), wk =   0.0200000
        k(   14) = (   0.0000000   0.3464102   0.1026152), wk =   0.0200000
        k(   15) = (   0.0000000   0.3464102   0.2052304), wk =   0.0200000
        k(   16) = (   0.0000000   0.3464102  -0.3078456), wk =   0.0200000
        k(   17) = (   0.0000000   0.4618802   0.0000000), wk =   0.0200000
        k(   18) = (   0.0000000   0.4618802   0.1026152), wk =   0.0200000
        k(   19) = (   0.0000000   0.4618802   0.2052304), wk =   0.0200000
        k(   20) = (   0.0000000   0.4618802  -0.3078456), wk =   0.0200000
        k(   21) = (   0.0000000  -0.5773503   0.0000000), wk =   0.0100000
        k(   22) = (   0.0000000  -0.5773503   0.1026152), wk =   0.0200000
        k(   23) = (   0.0000000  -0.5773503   0.2052304), wk =   0.0200000
        k(   24) = (   0.0000000  -0.5773503  -0.3078456), wk =   0.0100000
        k(   25) = (   0.1000000   0.1732051   0.0000000), wk =   0.0200000
        k(   26) = (   0.1000000   0.1732051   0.1026152), wk =   0.0400000
        k(   27) = (   0.1000000   0.1732051   0.2052304), wk =   0.0400000
        k(   28) = (   0.1000000   0.1732051  -0.3078456), wk =   0.0200000
        k(   29) = (   0.1000000   0.2886751   0.0000000), wk =   0.0400000
        k(   30) = (   0.1000000   0.2886751   0.1026152), wk =   0.0400000
        k(   31) = (   0.1000000   0.2886751   0.2052304), wk =   0.0400000
        k(   32) = (   0.1000000   0.2886751  -0.3078456), wk =   0.0400000
        k(   33) = (   0.1000000   0.4041452   0.0000000), wk =   0.0400000
        k(   34) = (   0.1000000   0.4041452   0.1026152), wk =   0.0400000
        k(   35) = (   0.1000000   0.4041452   0.2052304), wk =   0.0400000
        k(   36) = (   0.1000000   0.4041452  -0.3078456), wk =   0.0400000
        k(   37) = (   0.1000000   0.5196152   0.0000000), wk =   0.0400000
        k(   38) = (   0.1000000   0.5196152   0.1026152), wk =   0.0400000
        k(   39) = (   0.1000000   0.5196152   0.2052304), wk =   0.0400000
        k(   40) = (   0.1000000   0.5196152  -0.3078456), wk =   0.0400000
        k(   41) = (   0.2000000   0.3464102   0.0000000), wk =   0.0200000
        k(   42) = (   0.2000000   0.3464102   0.1026152), wk =   0.0400000
        k(   43) = (   0.2000000   0.3464102   0.2052304), wk =   0.0400000
        k(   44) = (   0.2000000   0.3464102  -0.3078456), wk =   0.0200000
        k(   45) = (   0.2000000   0.4618802   0.0000000), wk =   0.0400000
        k(   46) = (   0.2000000   0.4618802   0.1026152), wk =   0.0400000
        k(   47) = (   0.2000000   0.4618802   0.2052304), wk =   0.0400000
        k(   48) = (   0.2000000   0.4618802  -0.3078456), wk =   0.0400000
        k(   49) = (   0.2000000   0.5773503   0.0000000), wk =   0.0200000
        k(   50) = (   0.2000000   0.5773503   0.1026152), wk =   0.0400000
        k(   51) = (   0.2000000   0.5773503   0.2052304), wk =   0.0400000
        k(   52) = (   0.2000000   0.5773503  -0.3078456), wk =   0.0200000
        k(   53) = (   0.3000000   0.5196152   0.0000000), wk =   0.0200000
        k(   54) = (   0.3000000   0.5196152   0.1026152), wk =   0.0400000
        k(   55) = (   0.3000000   0.5196152   0.2052304), wk =   0.0400000
        k(   56) = (   0.3000000   0.5196152  -0.3078456), wk =   0.0200000
        k(   57) = (   0.0000000  -0.1154701   0.1026152), wk =   0.0200000
        k(   58) = (   0.0000000  -0.1154701   0.2052304), wk =   0.0200000
        k(   59) = (   0.0000000  -0.2309401   0.1026152), wk =   0.0200000
        k(   60) = (   0.0000000  -0.2309401   0.2052304), wk =   0.0200000
        k(   61) = (   0.0000000  -0.3464102   0.1026152), wk =   0.0200000
        k(   62) = (   0.0000000  -0.3464102   0.2052304), wk =   0.0200000
        k(   63) = (   0.0000000  -0.4618802   0.1026152), wk =   0.0200000
        k(   64) = (   0.0000000  -0.4618802   0.2052304), wk =   0.0200000
        k(   65) = (  -0.1000000  -0.2886751   0.1026152), wk =   0.0400000
        k(   66) = (  -0.1000000  -0.2886751   0.2052304), wk =   0.0400000
        k(   67) = (  -0.1000000  -0.4041452   0.1026152), wk =   0.0400000
        k(   68) = (  -0.1000000  -0.4041452   0.2052304), wk =   0.0400000
        k(   69) = (  -0.1000000  -0.5196152   0.1026152), wk =   0.0400000
        k(   70) = (  -0.1000000  -0.5196152   0.2052304), wk =   0.0400000
        k(   71) = (  -0.2000000  -0.4618802   0.1026152), wk =   0.0400000
        k(   72) = (  -0.2000000  -0.4618802   0.2052304), wk =   0.0400000

     Dense  grid:    22887 G-vectors     FFT dimensions: (  32,  32,  54)

     Estimated max dynamical RAM per process >       1.85 MB

     Estimated total dynamical RAM >      44.37 MB

     Initial potential from superposition of free atoms

     starting charge      19.9483, renormalised to      20.0000
     Starting wfcs are random

     total cpu time spent up to now is        0.5 secs

     Self-consistent Calculation

     iteration #  1     ecut=    94.00 Ry     beta= 0.70
     Davidson diagonalization with overlap
     ethr =  1.00E-02,  avg # of iterations =  8.1

     total cpu time spent up to now is        2.6 secs

     total energy              =    -117.46193636 Ry
     estimated scf accuracy    <       0.49644219 Ry

     iteration #  2     ecut=    94.00 Ry     beta= 0.70
     Davidson diagonalization with overlap
     ethr =  2.48E-03,  avg # of iterations =  2.0

     total cpu time spent up to now is        3.8 secs

     total energy              =    -117.58545955 Ry
     estimated scf accuracy    <       0.25563933 Ry

     iteration #  3     ecut=    94.00 Ry     beta= 0.70
     Davidson diagonalization with overlap
     ethr =  1.28E-03,  avg # of iterations =  1.8

     total cpu time spent up to now is        4.6 secs

     total energy              =    -117.63863417 Ry
     estimated scf accuracy    <       0.00265776 Ry

     iteration #  4     ecut=    94.00 Ry     beta= 0.70
     Davidson diagonalization with overlap
     ethr =  1.33E-05,  avg # of iterations =  2.9

     total cpu time spent up to now is        5.5 secs

     total energy              =    -117.63917515 Ry
     estimated scf accuracy    <       0.00003387 Ry

     iteration #  5     ecut=    94.00 Ry     beta= 0.70
     Davidson diagonalization with overlap
     ethr =  1.69E-07,  avg # of iterations =  2.3

     total cpu time spent up to now is        6.5 secs

     total energy              =    -117.63918217 Ry
     estimated scf accuracy    <       0.00000238 Ry

     iteration #  6     ecut=    94.00 Ry     beta= 0.70
     Davidson diagonalization with overlap
     ethr =  1.19E-08,  avg # of iterations =  2.0

     total cpu time spent up to now is        7.4 secs

     total energy              =    -117.63918266 Ry
     estimated scf accuracy    <       0.00000012 Ry

     iteration #  7     ecut=    94.00 Ry     beta= 0.70
     Davidson diagonalization with overlap
     ethr =  6.19E-10,  avg # of iterations =  1.0

     total cpu time spent up to now is        8.2 secs

     total energy              =    -117.63918266 Ry
     estimated scf accuracy    <       0.00000003 Ry

     iteration #  8     ecut=    94.00 Ry     beta= 0.70
     Davidson diagonalization with overlap
     ethr =  1.25E-10,  avg # of iterations =  1.0

     total cpu time spent up to now is        9.1 secs

     total energy              =    -117.63918266 Ry
     estimated scf accuracy    <          2.0E-10 Ry

     iteration #  9     ecut=    94.00 Ry     beta= 0.70
     Davidson diagonalization with overlap
     ethr =  9.85E-13,  avg # of iterations =  2.0

     total cpu time spent up to now is       10.0 secs

     End of self-consistent calculation

          k = 0.0000 0.0000 0.0000 (  2863 PWs)   bands (ev):

   -90.2019 -90.1992 -12.1358 -10.3263   0.2623   5.5158   5.5158   6.4960
     6.4960   6.5166  14.2208  18.2318  20.8963  20.8963  21.4108  21.8082
    23.0357  23.0357  30.1915  30.2799

          k = 0.0000 0.0000 0.1026 (  2839 PWs)   bands (ev):

   -90.2017 -90.1993 -12.0409 -10.4862   0.6454   5.5779   5.5779   5.9885
     6.4266   6.4266  14.5876  17.9972  20.9625  20.9625  21.3629  21.6387
    22.7899  22.7899  30.7584  30.7584

          k = 0.0000 0.0000 0.2052 (  2870 PWs)   bands (ev):

   -90.2012 -90.1998 -11.7678 -10.8836   1.6864   4.6986   5.7498   5.7498
     6.2397   6.2397  15.4510  17.3576  21.1938  21.1938  21.2579  21.3514
    22.2231  22.2231  32.0872  32.0872

          k = 0.0000 0.0000-0.3078 (  2834 PWs)   bands (ev):

   -90.2005 -90.2005 -11.3554 -11.3554   3.1380   3.1380   5.9910   5.9910
     5.9910   5.9910  16.4528  16.4528  21.2146  21.2146  21.6297  21.6297
    21.6297  21.6297  33.9336  33.9460

          k = 0.0000 0.1155 0.0000 (  2841 PWs)   bands (ev):

   -90.2017 -90.1991 -12.0178 -10.2624   0.4082   5.0318   5.3131   5.9745
     6.4209   6.4272  14.6154  18.6255  20.7318  21.0317  21.1750  21.9790
    23.3129  23.3191  27.6604  29.7746

          k = 0.0000 0.1155 0.1026 (  2843 PWs)   bands (ev):

   -90.2015 -90.1992 -11.9251 -10.4162   0.7735   5.0983   5.3818   5.6389
     6.2298   6.3406  14.9005  18.3216  20.7277  21.0081  21.2490  21.8294
    23.0821  23.2049  28.3702  30.2887

          k = 0.0000 0.1155 0.2052 (  2858 PWs)   bands (ev):

   -90.2010 -90.1997 -11.6586 -10.7997   1.7625   4.5406   5.3213   5.5732
     5.9289   6.1261  15.6297  17.5512  20.6808  20.8630  21.4968  21.8825
    22.5312  22.8515  30.0154  31.7080

          k = 0.0000 0.1155-0.3078 (  2850 PWs)   bands (ev):

   -90.2004 -90.2004 -11.2572 -11.2572   3.1245   3.1245   5.6083   5.6083
     5.8439   5.8439  16.5797  16.5797  20.6972  20.6972  21.9431  21.9431
    22.3307  22.3307  31.7881  31.7881

          k = 0.0000 0.2309 0.0000 (  2842 PWs)   bands (ev):

   -90.2011 -90.1988 -11.6823 -10.0988   0.8223   3.8351   4.8458   4.8459
     6.1499   6.2000  15.4250  19.1848  19.6952  21.2500  21.7321  22.3998
    23.7248  24.0189  25.9154  29.6092

          k = 0.0000 0.2309 0.1026 (  2845 PWs)   bands (ev):

   -90.2009 -90.1989 -11.5968 -10.2335   1.1202   3.9203   4.6227   4.9270
     5.9859   6.0979  15.5135  18.5452  20.0626  21.1544  21.8452  22.2766
    23.7896  23.8078  26.6174  30.1060

          k = 0.0000 0.2309 0.2052 (  2848 PWs)   bands (ev):

   -90.2005 -90.1994 -11.3518 -10.5737   1.9047   3.7810   4.4304   5.1547
     5.5084   5.8287  15.8796  17.5595  20.3373  20.8339  22.1773  22.5293
    23.2920  23.6431  28.1814  31.0720

          k = 0.0000 0.2309-0.3078 (  2868 PWs)   bands (ev):

   -90.1999 -90.1999 -10.9858 -10.9858   2.9052   2.9052   4.8971   4.8971
     5.4814   5.4814  16.5993  16.5993  20.5369  20.5369  22.6913  22.6913
    23.1278  23.1278  29.9415  29.9415

          k = 0.0000 0.3464 0.0000 (  2848 PWs)   bands (ev):

   -90.2003 -90.1985 -11.1915  -9.9192   1.3383   2.6226   3.6645   4.3496
     5.6670   5.9130  16.0874  18.2893  19.3922  21.9742  22.0025  23.0656
    23.8915  24.8924  25.5297  30.7386

          k = 0.0000 0.3464 0.1026 (  2851 PWs)   bands (ev):

   -90.2001 -90.1986 -11.1197 -10.0219   1.4311   2.8018   3.5134   4.4408
     5.6329   5.7915  15.9368  17.7667  19.9314  21.9200  22.2005  22.5388
    24.2989  24.6899  25.9988  30.7945

          k = 0.0000 0.3464 0.2052 (  2858 PWs)   bands (ev):

   -90.1998 -90.1989 -10.9158 -10.2864   1.7125   2.6718   3.8151   4.6982
     5.3307   5.4743  15.8519  16.9712  20.4461  21.4031  22.7301  22.8495
    24.1522  24.2009  27.2826  30.3189

          k = 0.0000 0.3464-0.3078 (  2872 PWs)   bands (ev):

   -90.1994 -90.1994 -10.6159 -10.6159   2.1590   2.1590   4.6375   4.6375
     5.0715   5.0715  16.2314  16.2314  20.8543  20.8543  23.4393  23.4393
    23.6189  23.6189  28.9226  28.9226

          k = 0.0000 0.4619 0.0000 (  2858 PWs)   bands (ev):

   -90.1996 -90.1984 -10.6726  -9.8439   1.0825   2.6444   2.7991   3.9921
     5.0076   5.6824  16.3295  17.2138  19.7410  21.8844  21.9420  23.8123
    24.7674  25.3371  25.6459  30.8619

          k = 0.0000 0.4619 0.1026 (  2859 PWs)   bands (ev):

   -90.1995 -90.1984 -10.6225  -9.9055   1.0316   2.3687   3.1471   4.0892
     5.1371   5.5486  15.9984  16.9459  20.2916  21.7899  22.2140  23.1691
    24.6477  25.4153  26.1724  30.8714

          k = 0.0000 0.4619 0.2052 (  2845 PWs)   bands (ev):

   -90.1993 -90.1987 -10.4821 -10.0690   1.0659   1.8192   3.9291   4.3641
     5.1621   5.2017  15.6153  16.3914  20.7559  21.7549  22.8728  22.9355
    24.3682  24.7765  27.4375  30.2887

          k = 0.0000 0.4619-0.3078 (  2850 PWs)   bands (ev):

   -90.1990 -90.1990 -10.2813 -10.2813   1.3361   1.3361   4.7214   4.7214
     4.7652   4.7652  15.7963  15.7963  21.1404  21.1404  23.7421  23.7421
    23.8767  23.8767  28.8824  28.8824

          k = 0.0000-0.5774 0.0000 (  2862 PWs)   bands (ev):

   -90.1992 -90.1983 -10.3927  -9.8824   0.7703   2.4383   3.1302   3.8637
     4.5435   5.5955  16.3574  16.8052  20.0340  21.6639  21.8779  24.4826
    24.7082  25.4160  25.9392  30.9320

          k = 0.0000-0.5774 0.1026 (  2856 PWs)   bands (ev):

   -90.1992 -90.1984 -10.3600  -9.9179   0.7286   2.0967   3.4386   3.9627
     4.7926   5.4577  15.9380  16.6552  20.7214  21.3609  22.1751  23.6524
    24.5047  25.6896  26.4742  30.9994

          k = 0.0000-0.5774 0.2052 (  2872 PWs)   bands (ev):

   -90.1990 -90.1986 -10.2693 -10.0139   0.7516   1.4898   4.1305   4.2432
     5.0316   5.1009  15.4743  16.1823  21.0246  21.5899  22.9666  22.9855
    24.3435  24.9927  27.7082  30.4282

          k = 0.0000-0.5774-0.3078 (  2868 PWs)   bands (ev):

   -90.1988 -90.1988 -10.1430 -10.1430   1.0006   1.0006   4.6534   4.6534
     4.7865   4.7865  15.6139  15.6139  21.2127  21.2127  23.7529  23.7529
    24.0031  24.0031  29.0561  29.0561

          k = 0.1000 0.1732 0.0000 (  2850 PWs)   bands (ev):

   -90.2012 -90.1989 -11.7908 -10.1483   0.6905   4.3902   4.5540   5.4886
     6.1625   6.2451  15.2328  19.1577  20.0417  20.9266  21.8781  22.0117
    23.5259  23.8723  26.8122  28.2269

          k = 0.1000 0.1732 0.1026 (  2853 PWs)   bands (ev):

   -90.2011 -90.1990 -11.7028 -10.2895   1.0146   4.4799   4.5302   5.2987
     6.0659   6.0919  15.3880  18.6557  20.1792  20.8952  21.9248  21.9720
    23.5717  23.6397  27.5637  28.5959

          k = 0.1000 0.1732 0.2052 (  2843 PWs)   bands (ev):

   -90.2007 -90.1995 -11.4503 -10.6444   1.8798   4.0688   4.7342   5.1485
     5.7219   5.8184  15.8802  17.6890  20.3093  20.6609  22.1229  22.2884
    23.1143  23.4190  29.1851  29.6762

          k = 0.1000 0.1732-0.3078 (  2856 PWs)   bands (ev):

   -90.2001 -90.2001 -11.0721 -11.0721   3.0202   3.0202   5.0782   5.0782
     5.5582   5.5582  16.6905  16.6905  20.4339  20.4339  22.5221  22.5221
    22.9223  22.9223  30.4537  30.4537

          k = 0.1000 0.2887 0.0000 (  2845 PWs)   bands (ev):

   -90.2005 -90.1986 -11.3756  -9.9741   1.1992   3.1427   3.7258   4.7947
     5.7925   5.8728  16.0819  18.5922  19.8819  21.3481  21.9528  22.5725
    23.6796  24.7707  26.2289  28.2127

          k = 0.1000 0.2887 0.1026 (  2845 PWs)   bands (ev):

   -90.2004 -90.1987 -11.2980 -10.0897   1.4049   3.2074   3.7605   4.6867
     5.6467   5.8453  16.0371  18.2053  20.0500  21.1407  22.2010  22.5344
    23.9251  24.4834  26.7340  28.5349

          k = 0.1000 0.2887 0.2052 (  2851 PWs)   bands (ev):

   -90.2001 -90.1991 -11.0767 -10.3853   1.9232   3.0717   4.0376   4.6570
     5.3183   5.5710  16.1324  17.4133  20.2672  20.7766  22.6704  22.8813
    23.8553  24.0354  27.8664  29.3411

          k = 0.1000 0.2887-0.3078 (  2866 PWs)   bands (ev):

   -90.1996 -90.1996 -10.7491 -10.7491   2.5483   2.5483   4.5696   4.5696
     5.1732   5.1732  16.6223  16.6223  20.4816  20.4816  23.1830  23.1830
    23.5896  23.5896  29.1884  29.1884

          k = 0.1000 0.4041 0.0000 (  2868 PWs)   bands (ev):

   -90.1998 -90.1984 -10.8620  -9.8432   1.4452   2.3731   3.0716   4.0982
     5.2907   5.4959  16.5909  17.6536  19.6511  21.8392  22.1965  23.3990
    23.9126  25.4388  26.0139  29.4515

          k = 0.1000 0.4041 0.1026 (  2857 PWs)   bands (ev):

   -90.1997 -90.1985 -10.8024  -9.9219   1.4069   2.4323   3.1903   4.0994
     5.2418   5.4870  16.3498  17.4498  19.8970  21.7255  22.4708  22.8951
    24.4181  25.0541  26.4772  29.6306

          k = 0.1000 0.4041 0.2052 (  2859 PWs)   bands (ev):

   -90.1994 -90.1987 -10.6341 -10.1278   1.4767   2.1618   3.7239   4.3226
     4.9157   5.4130  16.0944  16.9079  20.3137  21.3218  22.7424  23.3151
    24.3295  24.6111  27.4347  29.6741

          k = 0.1000 0.4041-0.3078 (  2850 PWs)   bands (ev):

   -90.1991 -90.1991 -10.3903 -10.3903   1.7553   1.7553   4.2842   4.2842
     5.0031   5.0031  16.3154  16.3154  20.7729  20.7729  23.3879  23.3879
    24.2016  24.2016  28.7063  28.7063

          k = 0.1000 0.5196 0.0000 (  2859 PWs)   bands (ev):

   -90.1992 -90.1983 -10.4234  -9.8506   0.9151   2.5590   2.9650   3.7601
     4.6404   5.3166  16.3919  17.3421  19.8393  21.6501  22.2433  24.3054
    24.8245  25.2723  25.8271  30.6995

          k = 0.1000 0.5196 0.1026 (  2860 PWs)   bands (ev):

   -90.1992 -90.1984 -10.3873  -9.8912   0.8883   2.2248   3.2046   3.9251
     4.7975   5.2319  16.1459  17.1754  20.1398  21.3842  22.5837  23.7868
    24.5797  25.3580  26.4909  30.6972

          k = 0.1000 0.5196 0.2052 (  2862 PWs)   bands (ev):

   -90.1990 -90.1986 -10.2869 -10.0005   0.9319   1.6555   3.6239   4.4077
     4.6430   5.2477  15.8586  16.6591  20.6304  21.1264  22.8725  23.7438
    24.2108  25.0955  27.5883  30.1051

          k = 0.1000 0.5196-0.3078 (  2858 PWs)   bands (ev):

   -90.1988 -90.1988 -10.1459 -10.1459   1.1849   1.1849   4.1047   4.1047
     5.0250   5.0250  16.0572  16.0572  20.9220  20.9220  23.3641  23.3641
    24.5716  24.5716  28.8354  28.8354

          k = 0.2000 0.3464 0.0000 (  2850 PWs)   bands (ev):

   -90.1999 -90.1984 -10.9319  -9.8440   1.7362   2.2035   3.0715   4.3530
     5.1225   5.4274  17.1245  17.4033  20.5916  21.2442  22.2128  22.4585
    24.1059  25.4580  27.0103  27.7118

          k = 0.2000 0.3464 0.1026 (  2856 PWs)   bands (ev):

   -90.1998 -90.1985 -10.8689  -9.9292   1.7433   2.2267   3.3451   4.1449
     4.9873   5.5301  16.9371  17.3844  20.3802  20.9857  22.5090  22.6992
    24.3027  25.1256  27.1503  28.1747

          k = 0.2000 0.3464 0.2052 (  2854 PWs)   bands (ev):

   -90.1995 -90.1988 -10.6909 -10.1510   1.8413   2.2113   3.8994   3.9151
     4.7529   5.4774  16.6923  17.1729  20.2432  20.5843  22.8165  23.4368
    24.4483  24.4529  27.7005  28.8793

          k = 0.2000 0.3464-0.3078 (  2856 PWs)   bands (ev):

   -90.1991 -90.1991 -10.4318 -10.4318   2.0445   2.0445   3.9791   3.9791
     5.0528   5.0528  16.8070  16.8070  20.3327  20.3327  23.4318  23.4318
    24.2367  24.2367  28.6010  28.6011

          k = 0.2000 0.4619 0.0000 (  2876 PWs)   bands (ev):

   -90.1992 -90.1983 -10.4668  -9.8054   1.2781   2.2920   3.0908   3.6934
     4.6218   4.8996  16.4123  18.1259  20.2362  21.5917  22.5950  23.3543
    24.3087  25.6229  26.4126  29.3426

          k = 0.2000 0.4619 0.1026 (  2864 PWs)   bands (ev):

   -90.1992 -90.1984 -10.4260  -9.8535   1.3097   2.1101   3.2294   3.7075
     4.4872   5.1185  16.5440  17.8865  19.9987  21.1652  22.9673  23.3691
    24.6158  25.3230  26.7534  29.4837

          k = 0.2000 0.4619 0.2052 (  2859 PWs)   bands (ev):

   -90.1990 -90.1986 -10.3121  -9.9819   1.4066   1.8556   3.1730   3.7957
     4.5910   5.3260  16.7202  17.3834  19.9002  20.5243  23.1862  23.8164
    24.7225  25.0368  27.4293  29.2790

          k = 0.2000 0.4619-0.3078 (  2848 PWs)   bands (ev):

   -90.1988 -90.1988 -10.1507 -10.1507   1.5966   1.5966   3.4027   3.4028
     5.1237   5.1237  16.9368  16.9368  20.1293  20.1293  23.5834  23.5834
    24.8644  24.8644  28.3501  28.3501

          k = 0.2000 0.5774 0.0000 (  2876 PWs)   bands (ev):

   -90.1989 -90.1984 -10.2066  -9.8623   0.9333   2.7335   2.8177   3.7413
     4.2089   4.6800  16.0333  18.4912  20.2203  21.4774  22.7351  24.1868
    24.8502  25.1178  25.9389  31.0455

          k = 0.2000 0.5774 0.1026 (  2871 PWs)   bands (ev):

   -90.1989 -90.1984 -10.1840  -9.8858   0.9800   2.4114   2.7439   4.0872
     4.1255   4.8607  16.2168  18.2922  19.8702  21.0168  23.1759  24.1389
    24.7473  25.1285  26.4815  30.7366

          k = 0.2000 0.5774 0.2052 (  2870 PWs)   bands (ev):

   -90.1988 -90.1985 -10.1221  -9.9497   1.1278   1.8625   2.8256   3.6955
     4.7124   5.1940  16.5494  17.6740  19.6915  20.4071  23.5291  23.9315
    24.7712  25.3729  27.3081  29.6146

          k = 0.2000 0.5774-0.3078 (  2870 PWs)   bands (ev):

   -90.1987 -90.1987 -10.0364 -10.0364   1.4127   1.4127   3.1844   3.1844
     5.1693   5.1694  16.9760  16.9760  20.0001  20.0001  23.6549  23.6549
    25.1913  25.1913  28.3161  28.3161

          k = 0.3000 0.5196 0.0000 (  2874 PWs)   bands (ev):

   -90.1988 -90.1984 -10.1183  -9.8696   0.9911   2.5640   3.1409   3.5882
     4.0182   4.3897  15.8021  19.1933  20.7373  21.3512  23.0858  23.4795
    24.5716  25.2702  26.2674  30.5960

          k = 0.3000 0.5196 0.1026 (  2874 PWs)   bands (ev):

   -90.1988 -90.1985 -10.1018  -9.8864   1.1126   2.3198   2.8655   3.5180
     4.2450   4.7121  16.1778  18.9823  20.1436  20.5644  23.6294  23.7530
    24.8551  25.2785  26.4160  30.4547

          k = 0.3000 0.5196 0.2052 (  2865 PWs)   bands (ev):

   -90.1987 -90.1985 -10.0567  -9.9322   1.4380   2.0073   2.5184   3.0237
     4.8324   5.1433  17.0420  18.3429  19.4848  19.5301  23.9062  24.0600
    25.3388  25.4353  26.8923  29.1853

          k = 0.3000 0.5196-0.3078 (  2856 PWs)   bands (ev):

   -90.1986 -90.1986  -9.9946  -9.9946   1.7830   1.7830   2.5385   2.5385
     5.2147   5.2147  17.7748  17.7748  19.1611  19.1611  24.0231  24.0231
    25.5548  25.5548  27.7682  27.7682

          k = 0.0000-0.1155 0.1026 (  2843 PWs)   bands (ev):

   -90.2015 -90.1992 -11.9251 -10.4162   0.7735   5.0983   5.3818   5.6389
     6.2298   6.3406  14.9005  18.3216  20.7277  21.0081  21.2490  21.8294
    23.0821  23.2049  28.3702  30.2887

          k = 0.0000-0.1155 0.2052 (  2858 PWs)   bands (ev):

   -90.2010 -90.1997 -11.6586 -10.7997   1.7625   4.5406   5.3213   5.5732
     5.9289   6.1261  15.6297  17.5512  20.6808  20.8630  21.4968  21.8825
    22.5312  22.8515  30.0154  31.7080

          k = 0.0000-0.2309 0.1026 (  2845 PWs)   bands (ev):

   -90.2009 -90.1989 -11.5968 -10.2335   1.1202   3.9203   4.6227   4.9270
     5.9859   6.0979  15.5135  18.5452  20.0626  21.1544  21.8452  22.2766
    23.7896  23.8078  26.6174  30.1060

          k = 0.0000-0.2309 0.2052 (  2848 PWs)   bands (ev):

   -90.2005 -90.1994 -11.3518 -10.5737   1.9047   3.7810   4.4304   5.1547
     5.5084   5.8287  15.8796  17.5595  20.3373  20.8339  22.1773  22.5293
    23.2920  23.6431  28.1814  31.0720

          k = 0.0000-0.3464 0.1026 (  2851 PWs)   bands (ev):

   -90.2001 -90.1986 -11.1197 -10.0219   1.4311   2.8018   3.5134   4.4408
     5.6329   5.7915  15.9368  17.7667  19.9314  21.9200  22.2005  22.5388
    24.2989  24.6899  25.9988  30.7945

          k = 0.0000-0.3464 0.2052 (  2858 PWs)   bands (ev):

   -90.1998 -90.1989 -10.9158 -10.2864   1.7125   2.6718   3.8151   4.6982
     5.3307   5.4743  15.8519  16.9712  20.4461  21.4031  22.7301  22.8495
    24.1522  24.2009  27.2826  30.3189

          k = 0.0000-0.4619 0.1026 (  2859 PWs)   bands (ev):

   -90.1995 -90.1984 -10.6225  -9.9055   1.0316   2.3687   3.1471   4.0892
     5.1371   5.5486  15.9984  16.9459  20.2916  21.7899  22.2140  23.1691
    24.6477  25.4153  26.1724  30.8714

          k = 0.0000-0.4619 0.2052 (  2845 PWs)   bands (ev):

   -90.1993 -90.1987 -10.4821 -10.0690   1.0659   1.8192   3.9291   4.3641
     5.1621   5.2017  15.6153  16.3914  20.7559  21.7549  22.8728  22.9355
    24.3682  24.7765  27.4375  30.2887

          k =-0.1000-0.2887 0.1026 (  2845 PWs)   bands (ev):

   -90.2004 -90.1987 -11.2980 -10.0897   1.4049   3.2074   3.7605   4.6867
     5.6467   5.8453  16.0371  18.2053  20.0500  21.1407  22.2010  22.5344
    23.9251  24.4834  26.7340  28.5349

          k =-0.1000-0.2887 0.2052 (  2851 PWs)   bands (ev):

   -90.2001 -90.1991 -11.0767 -10.3853   1.9232   3.0717   4.0376   4.6570
     5.3183   5.5710  16.1324  17.4133  20.2672  20.7766  22.6704  22.8813
    23.8553  24.0354  27.8664  29.3411

          k =-0.1000-0.4041 0.1026 (  2857 PWs)   bands (ev):

   -90.1997 -90.1985 -10.8024  -9.9219   1.4069   2.4323   3.1903   4.0994
     5.2418   5.4870  16.3498  17.4498  19.8970  21.7255  22.4708  22.8951
    24.4181  25.0541  26.4772  29.6306

          k =-0.1000-0.4041 0.2052 (  2859 PWs)   bands (ev):

   -90.1994 -90.1987 -10.6341 -10.1278   1.4767   2.1618   3.7239   4.3226
     4.9157   5.4130  16.0944  16.9079  20.3137  21.3218  22.7424  23.3151
    24.3295  24.6111  27.4347  29.6741

          k =-0.1000-0.5196 0.1026 (  2860 PWs)   bands (ev):

   -90.1992 -90.1984 -10.3873  -9.8912   0.8883   2.2248   3.2046   3.9251
     4.7975   5.2319  16.1459  17.1754  20.1398  21.3842  22.5837  23.7868
    24.5797  25.3580  26.4909  30.6972

          k =-0.1000-0.5196 0.2052 (  2862 PWs)   bands (ev):

   -90.1990 -90.1986 -10.2869 -10.0005   0.9319   1.6555   3.6239   4.4077
     4.6430   5.2477  15.8586  16.6591  20.6304  21.1264  22.8725  23.7438
    24.2108  25.0955  27.5883  30.1051

          k =-0.2000-0.4619 0.1026 (  2864 PWs)   bands (ev):

   -90.1992 -90.1984 -10.4260  -9.8535   1.3097   2.1101   3.2294   3.7075
     4.4872   5.1185  16.5440  17.8865  19.9987  21.1652  22.9673  23.3691
    24.6158  25.3230  26.7534  29.4837

          k =-0.2000-0.4619 0.2052 (  2859 PWs)   bands (ev):

   -90.1990 -90.1986 -10.3121  -9.9820   1.4066   1.8556   3.1730   3.7957
     4.5910   5.3260  16.7202  17.3834  19.9003  20.5243  23.1862  23.8164
    24.7225  25.0368  27.4293  29.2790

     the Fermi energy is    10.7074 ev

!    total energy              =    -117.63918266 Ry
     estimated scf accuracy    <          5.5E-11 Ry
     smearing contrib. (-TS)   =      -0.00000000 Ry
     internal energy E=F+TS    =    -117.63918266 Ry

     The total energy is F=E-TS. E is the sum of the following terms:
     one-electron contribution =     -39.06442713 Ry
     hartree contribution      =      21.24069811 Ry
     xc contribution           =     -22.87457614 Ry
     ewald contribution        =     -76.94087750 Ry

     convergence has been achieved in   9 iterations

     Writing all to output data dir out/mp-2542.save/
 
     init_run     :      0.22s CPU      0.25s WALL (       1 calls)
     electrons    :      7.04s CPU      9.56s WALL (       1 calls)

     Called by init_run:
     wfcinit      :      0.18s CPU      0.21s WALL (       1 calls)
     potinit      :      0.01s CPU      0.02s WALL (       1 calls)
     hinit0       :      0.01s CPU      0.01s WALL (       1 calls)

     Called by electrons:
     c_bands      :      5.46s CPU      7.19s WALL (       9 calls)
     sum_band     :      1.55s CPU      2.28s WALL (       9 calls)
     v_of_rho     :      0.02s CPU      0.02s WALL (      10 calls)
     mix_rho      :      0.01s CPU      0.04s WALL (       9 calls)

     Called by c_bands:
     init_us_2    :      0.04s CPU      0.05s WALL (    1368 calls)
     init_us_2:cp :      0.04s CPU      0.05s WALL (    1368 calls)
     cegterg      :      4.58s CPU      4.88s WALL (     648 calls)

     Called by *egterg:
     cdiaghg      :      0.97s CPU      1.02s WALL (    2311 calls)
     h_psi        :      3.36s CPU      3.60s WALL (    2383 calls)
     g_psi        :      0.02s CPU      0.02s WALL (    1663 calls)

     Called by h_psi:
     h_psi:calbec :      0.11s CPU      0.12s WALL (    2383 calls)
     vloc_psi     :      3.17s CPU      3.39s WALL (    2383 calls)
     add_vuspsi   :      0.06s CPU      0.06s WALL (    2383 calls)

     General routines
     calbec       :      0.11s CPU      0.12s WALL (    2383 calls)
     fft          :      0.01s CPU      0.01s WALL (      99 calls)
     ffts         :      0.00s CPU      0.00s WALL (       9 calls)
     fftw         :      4.32s CPU      4.69s WALL (   86936 calls)
     davcio       :      0.09s CPU      1.95s WALL (    2174 calls)
 
     Parallel routines
 
     PWSCF        :      7.51s CPU     10.47s WALL

 
   This run was terminated on:  19:18:45   5Dec2023            

=------------------------------------------------------------------------------=
   JOB DONE.
=------------------------------------------------------------------------------=
