
     Program PWSCF v.7.1 starts on  5Dec2023 at 16:32: 7 

     This program is part of the open-source Quantum ESPRESSO suite
     for quantum simulation of materials; please cite
         "P. Giannozzi et al., J. Phys.:Condens. Matter 21 395502 (2009);
         "P. Giannozzi et al., J. Phys.:Condens. Matter 29 465901 (2017);
         "P. Giannozzi et al., J. Chem. Phys. 152 154105 (2020);
          URL http://www.quantum-espresso.org", 
     in publications or presentations arising from this work. More details at
     http://www.quantum-espresso.org/quote

     Parallel version (MPI), running on    24 processors

     MPI processes distributed on     1 nodes
     122984 MiB available memory on the printing compute node when the environment starts
 
     Reading input from pw_mp-5967_scf_k3000_E58.in
Warning: card &CELL ignored
Warning: card / ignored

     Current dimensions of program PWSCF are:
     Max number of different atomic species (ntypx) = 10
     Max number of k-points (npk) =  40000
     Max angular momentum in pseudopotentials (lmaxx) =  4
 
     K-points division:     npool     =       2
     R & G space division:  proc/nbgrp/npool/nimage =      12
     Subspace diagonalization in iterative solution of the eigenvalue problem:
     a serial algorithm will be used

 
     Parallelization info
     --------------------
     sticks:   dense  smooth     PW     G-vecs:    dense   smooth      PW
     Min          80      80     25                 1674     1674     281
     Max          82      82     26                 1676     1676     283
     Sum         967     967    301                20107    20107    3383
 
     Using Slab Decomposition
 


     bravais-lattice index     =            2
     lattice parameter (alat)  =      11.0675  a.u.
     unit-cell volume          =     338.9178 (a.u.)^3
     number of atoms/cell      =            3
     number of atomic types    =            3
     number of electrons       =        44.00
     number of Kohn-Sham states=           44
     kinetic-energy cutoff     =      58.0000  Ry
     charge density cutoff     =     232.0000  Ry
     scf convergence threshold =      1.0E-10
     mixing beta               =       0.7000
     number of iterations used =            8  plain     mixing
     Exchange-correlation= PBE
                           (   1   4   3   4   0   0   0)

     celldm(1)=  11.067549  celldm(2)=   0.000000  celldm(3)=   0.000000
     celldm(4)=   0.000000  celldm(5)=   0.000000  celldm(6)=   0.000000

     crystal axes: (cart. coord. in units of alat)
               a(1) = (  -0.500000   0.000000   0.500000 )  
               a(2) = (   0.000000   0.500000   0.500000 )  
               a(3) = (  -0.500000   0.500000   0.000000 )  

     reciprocal axes: (cart. coord. in units 2 pi/alat)
               b(1) = ( -1.000000 -1.000000  1.000000 )  
               b(2) = (  1.000000  1.000000  1.000000 )  
               b(3) = ( -1.000000  1.000000 -1.000000 )  


     PseudoPot. # 1 for Co read from file:
     /usr/scratch4/magr4985/MG/HTDF/pseudo/SG15/Co.upf
     MD5 check sum: 04640e31e65e5bce9f0417487be359f7
     Pseudo is Norm-conserving, Zval = 17.0
     Generated using ONCVPSP code by D. R. Hamann
     Using radial grid of  602 points,  6 beta functions with: 
                l(1) =   0
                l(2) =   0
                l(3) =   1
                l(4) =   1
                l(5) =   2
                l(6) =   2

     PseudoPot. # 2 for Sb read from file:
     /usr/scratch4/magr4985/MG/HTDF/pseudo/SG15/Sb.upf
     MD5 check sum: 0417cd6c0fe8ce4611e2b23135f1abd9
     Pseudo is Norm-conserving, Zval = 15.0
     Generated using ONCVPSP code by D. R. Hamann
     Using radial grid of  602 points,  6 beta functions with: 
                l(1) =   0
                l(2) =   0
                l(3) =   1
                l(4) =   1
                l(5) =   2
                l(6) =   2

     PseudoPot. # 3 for Ti read from file:
     /usr/scratch4/magr4985/MG/HTDF/pseudo/SG15/Ti.upf
     MD5 check sum: 1aea57736bd12dcfee93c97d0b9b5968
     Pseudo is Norm-conserving, Zval = 12.0
     Generated using ONCVPSP code by D. R. Hamann
     Using radial grid of  602 points,  6 beta functions with: 
                l(1) =   0
                l(2) =   0
                l(3) =   1
                l(4) =   1
                l(5) =   2
                l(6) =   2

     atomic species   valence    mass     pseudopotential
        Co            17.00    58.93320     Co( 1.00)
        Sb            15.00   121.76000     Sb( 1.00)
        Ti            12.00    47.86700     Ti( 1.00)

     24 Sym. Ops. (no inversion) found



   Cartesian axes

     site n.     atom                  positions (alat units)
         1           Ti  tau(   1) = (   0.0000000   0.0000000   0.0000000  )
         2           Co  tau(   2) = (  -0.2500000   0.2500000   0.2500001  )
         3           Sb  tau(   3) = (  -0.5000000   0.5000000   0.5000000  )

     number of k points=    47  Gaussian smearing, width (Ry)=  0.0005
                       cart. coord. in units 2pi/alat
        k(    1) = (   0.0000000   0.0000000   0.0000000), wk =   0.0020000
        k(    2) = (  -0.1000000   0.1000000  -0.1000000), wk =   0.0160000
        k(    3) = (  -0.2000000   0.2000000  -0.2000000), wk =   0.0160000
        k(    4) = (  -0.3000000   0.3000000  -0.3000000), wk =   0.0160000
        k(    5) = (  -0.4000000   0.4000000  -0.4000000), wk =   0.0160000
        k(    6) = (   0.5000000  -0.5000000   0.5000000), wk =   0.0080000
        k(    7) = (   0.0000000   0.2000000   0.0000000), wk =   0.0120000
        k(    8) = (  -0.1000000   0.3000000  -0.1000000), wk =   0.0480000
        k(    9) = (  -0.2000000   0.4000000  -0.2000000), wk =   0.0480000
        k(   10) = (  -0.3000000   0.5000000  -0.3000000), wk =   0.0480000
        k(   11) = (   0.6000000  -0.4000000   0.6000000), wk =   0.0480000
        k(   12) = (   0.5000000  -0.3000000   0.5000000), wk =   0.0480000
        k(   13) = (   0.4000000  -0.2000000   0.4000000), wk =   0.0480000
        k(   14) = (   0.3000000  -0.1000000   0.3000000), wk =   0.0480000
        k(   15) = (   0.2000000   0.0000000   0.2000000), wk =   0.0240000
        k(   16) = (   0.0000000   0.4000000   0.0000000), wk =   0.0120000
        k(   17) = (  -0.1000000   0.5000000  -0.1000000), wk =   0.0480000
        k(   18) = (  -0.2000000   0.6000000  -0.2000000), wk =   0.0480000
        k(   19) = (   0.7000000  -0.3000000   0.7000000), wk =   0.0480000
        k(   20) = (   0.6000000  -0.2000000   0.6000000), wk =   0.0480000
        k(   21) = (   0.5000000  -0.1000000   0.5000000), wk =   0.0480000
        k(   22) = (   0.4000000   0.0000000   0.4000000), wk =   0.0240000
        k(   23) = (   0.0000000   0.6000000   0.0000000), wk =   0.0120000
        k(   24) = (  -0.1000000   0.7000000  -0.1000000), wk =   0.0480000
        k(   25) = (   0.8000000  -0.2000000   0.8000000), wk =   0.0480000
        k(   26) = (   0.7000000  -0.1000000   0.7000000), wk =   0.0480000
        k(   27) = (   0.6000000  -0.0000000   0.6000000), wk =   0.0240000
        k(   28) = (   0.0000000   0.8000000   0.0000000), wk =   0.0120000
        k(   29) = (   0.9000000  -0.1000000   0.9000000), wk =   0.0480000
        k(   30) = (   0.8000000   0.0000000   0.8000000), wk =   0.0240000
        k(   31) = (   0.0000000  -1.0000000   0.0000000), wk =   0.0060000
        k(   32) = (  -0.2000000   0.4000000   0.0000000), wk =   0.0480000
        k(   33) = (  -0.3000000   0.5000000  -0.1000000), wk =   0.0960000
        k(   34) = (   0.6000000  -0.4000000   0.8000000), wk =   0.0960000
        k(   35) = (   0.5000000  -0.3000000   0.7000000), wk =   0.0480000
        k(   36) = (  -0.2000000   0.6000000   0.0000000), wk =   0.0480000
        k(   37) = (   0.7000000  -0.3000000   0.9000000), wk =   0.0960000
        k(   38) = (   0.6000000  -0.2000000   0.8000000), wk =   0.0960000
        k(   39) = (   0.5000000  -0.1000000   0.7000000), wk =   0.0960000
        k(   40) = (   0.4000000   0.0000000   0.6000000), wk =   0.0480000
        k(   41) = (   0.8000000  -0.2000000   1.0000000), wk =   0.0480000
        k(   42) = (   0.7000000  -0.1000000   0.9000000), wk =   0.0960000
        k(   43) = (   0.6000000   0.0000000   0.8000000), wk =   0.0480000
        k(   44) = (  -0.2000000  -1.0000000   0.0000000), wk =   0.0240000
        k(   45) = (   0.6000000  -0.2000000   1.0000000), wk =   0.0480000
        k(   46) = (   0.5000000  -0.1000000   0.9000000), wk =   0.0480000
        k(   47) = (  -0.4000000  -1.0000000   0.0000000), wk =   0.0240000

     Dense  grid:    20107 G-vectors     FFT dimensions: (  40,  40,  40)

     Estimated max dynamical RAM per process >       9.56 MB

     Estimated total dynamical RAM >     224.55 MB

     Initial potential from superposition of free atoms

     starting charge      43.7930, renormalised to      44.0000
     Starting wfcs are random

     total cpu time spent up to now is        0.5 secs

     Self-consistent Calculation

     iteration #  1     ecut=    58.00 Ry     beta= 0.70
     Davidson diagonalization with overlap
     ethr =  1.00E-02,  avg # of iterations =  9.8

     total cpu time spent up to now is        2.7 secs

     total energy              =    -526.88790247 Ry
     estimated scf accuracy    <       1.03789302 Ry

     iteration #  2     ecut=    58.00 Ry     beta= 0.70
     Davidson diagonalization with overlap
     ethr =  2.36E-03,  avg # of iterations =  2.1

     total cpu time spent up to now is        3.4 secs

     total energy              =    -524.98689259 Ry
     estimated scf accuracy    <      48.13891899 Ry

     iteration #  3     ecut=    58.00 Ry     beta= 0.70
     Davidson diagonalization with overlap
     ethr =  2.36E-03,  avg # of iterations =  2.0

     total cpu time spent up to now is        4.1 secs

     total energy              =    -527.59550212 Ry
     estimated scf accuracy    <       0.19468532 Ry

     iteration #  4     ecut=    58.00 Ry     beta= 0.70
     Davidson diagonalization with overlap
     ethr =  4.42E-04,  avg # of iterations =  1.4

     total cpu time spent up to now is        4.7 secs

     total energy              =    -527.60554667 Ry
     estimated scf accuracy    <       0.10671374 Ry

     iteration #  5     ecut=    58.00 Ry     beta= 0.70
     Davidson diagonalization with overlap
     ethr =  2.43E-04,  avg # of iterations =  1.0

     total cpu time spent up to now is        5.3 secs

     total energy              =    -527.61239028 Ry
     estimated scf accuracy    <       0.00474133 Ry

     iteration #  6     ecut=    58.00 Ry     beta= 0.70
     Davidson diagonalization with overlap
     ethr =  1.08E-05,  avg # of iterations =  3.8

     total cpu time spent up to now is        6.1 secs

     total energy              =    -527.61262784 Ry
     estimated scf accuracy    <       0.00062742 Ry

     iteration #  7     ecut=    58.00 Ry     beta= 0.70
     Davidson diagonalization with overlap
     ethr =  1.43E-06,  avg # of iterations =  3.4

     total cpu time spent up to now is        6.9 secs

     total energy              =    -527.61271283 Ry
     estimated scf accuracy    <       0.00015804 Ry

     iteration #  8     ecut=    58.00 Ry     beta= 0.70
     Davidson diagonalization with overlap
     ethr =  3.59E-07,  avg # of iterations =  1.0

     total cpu time spent up to now is        7.4 secs

     total energy              =    -527.61273728 Ry
     estimated scf accuracy    <       0.00000183 Ry

     iteration #  9     ecut=    58.00 Ry     beta= 0.70
     Davidson diagonalization with overlap
     ethr =  4.16E-09,  avg # of iterations =  2.1

     total cpu time spent up to now is        8.2 secs

     total energy              =    -527.61273782 Ry
     estimated scf accuracy    <       0.00000047 Ry

     iteration # 10     ecut=    58.00 Ry     beta= 0.70
     Davidson diagonalization with overlap
     ethr =  1.06E-09,  avg # of iterations =  1.0

     total cpu time spent up to now is        8.7 secs

     total energy              =    -527.61273781 Ry
     estimated scf accuracy    <       0.00000009 Ry

     iteration # 11     ecut=    58.00 Ry     beta= 0.70
     Davidson diagonalization with overlap
     ethr =  2.10E-10,  avg # of iterations =  1.8

     total cpu time spent up to now is        9.3 secs

     total energy              =    -527.61273782 Ry
     estimated scf accuracy    <          1.6E-09 Ry

     iteration # 12     ecut=    58.00 Ry     beta= 0.70
     Davidson diagonalization with overlap
     ethr =  3.74E-12,  avg # of iterations =  2.0

     total cpu time spent up to now is       10.0 secs

     End of self-consistent calculation

          k = 0.0000 0.0000 0.0000 (  2565 PWs)   bands (ev):

   -77.8743 -41.1562 -41.1562 -41.1562 -40.2780 -16.5391 -16.5391 -16.5391
   -12.0676 -12.0676 -12.0582 -12.0582 -12.0582   5.1226  13.9092  13.9092
    13.9092  14.7382  14.7382  16.3592  16.3592  16.3592  18.2292  18.2292
    19.4255  19.4255  19.4255  20.7890  24.3209  24.6591  24.6591  24.6591
    26.6066  26.6066  26.6066  29.5439  29.5439  34.7462  38.2746  38.2746
    38.2746  42.9335  42.9335  44.1448

          k =-0.1000 0.1000-0.1000 (  2544 PWs)   bands (ev):

   -77.8743 -41.1569 -41.1563 -41.1563 -40.2772 -16.5411 -16.5399 -16.5399
   -12.0664 -12.0664 -12.0581 -12.0577 -12.0577   5.2391  13.7281  13.8151
    13.8151  14.8270  14.8270  16.0010  16.3111  16.3111  18.1526  18.1526
    19.0544  19.6743  19.6743  21.5699  23.6934  24.4477  24.4477  25.0640
    26.4683  26.4683  27.2491  30.1533  30.1533  35.2263  37.5075  37.5076
    38.3936  41.7741  42.5100  42.5101

          k =-0.2000 0.2000-0.2000 (  2553 PWs)   bands (ev):

   -77.8742 -41.1588 -41.1563 -41.1563 -40.2751 -16.5461 -16.5417 -16.5417
   -12.0634 -12.0634 -12.0577 -12.0563 -12.0563   5.5739  13.0983  13.6259
    13.6259  14.9796  14.9796  15.4079  16.2258  16.2258  18.0755  18.0755
    18.7759  20.1896  20.1896  21.7302  23.8175  23.8175  23.9824  25.6253
    26.5554  26.5554  28.7078  31.5193  31.5193  35.7117  35.7117  36.4810
    38.7451  39.0190  42.7123  42.7123

          k =-0.3000 0.3000-0.3000 (  2539 PWs)   bands (ev):

   -77.8742 -41.1610 -41.1563 -41.1563 -40.2725 -16.5523 -16.5441 -16.5441
   -12.0599 -12.0599 -12.0573 -12.0544 -12.0544   6.0731  12.0954  13.4457
    13.4458  15.0563  15.0563  15.1141  16.2113  16.2113  18.0969  18.0969
    18.6219  20.6897  20.6897  20.8786  23.0441  23.0442  25.5067  26.1675
    27.1146  27.1147  30.7815  33.2119  33.2119  33.7006  33.7006  35.8843
    38.7461  39.3047  42.3952  42.3952

          k =-0.4000 0.4000-0.4000 (  2515 PWs)   bands (ev):

   -77.8742 -41.1628 -41.1563 -41.1563 -40.2704 -16.5573 -16.5459 -16.5459
   -12.0575 -12.0575 -12.0568 -12.0524 -12.0524   6.6007  11.1516  13.3228
    13.3228  15.0483  15.0483  15.0510  16.2675  16.2675  18.1826  18.1826
    18.4696  20.2544  21.0092  21.0092  22.4495  22.4495  26.1169  27.7203
    28.0512  28.0512  31.7871  31.7871  32.4059  34.3264  35.1916  35.1916
    39.9239  39.9239  39.9800  40.0328

          k = 0.5000-0.5000 0.5000 (  2512 PWs)   bands (ev):

   -77.8742 -41.1635 -41.1563 -41.1563 -40.2696 -16.5592 -16.5466 -16.5466
   -12.0567 -12.0567 -12.0567 -12.0516 -12.0516   6.8575  10.7420  13.2796
    13.2796  15.0332  15.0332  15.0535  16.3008  16.3008  18.2336  18.2336
    18.3863  20.0503  21.1034  21.1034  22.2343  22.2343  26.1974  28.8143
    28.8143  29.1939  30.7060  30.7060  31.1687  35.9798  36.8851  36.8851
    38.0297  38.0297  38.2085  40.3804

          k = 0.0000 0.2000 0.0000 (  2549 PWs)   bands (ev):

   -77.8743 -41.1572 -41.1563 -41.1563 -40.2770 -16.5424 -16.5397 -16.5397
   -12.0671 -12.0653 -12.0587 -12.0572 -12.0572   5.2768  13.4694  13.9256
    13.9256  14.7964  14.8617  16.0916  16.1927  16.1927  18.0484  18.1810
    19.2159  19.5505  19.5505  21.9645  23.7458  24.3371  24.3371  24.7010
    26.2317  27.4066  27.4066  29.5817  30.6342  35.4421  37.0902  38.0097
    38.0097  40.8931  42.3925  42.3925

          k =-0.1000 0.3000-0.1000 (  2553 PWs)   bands (ev):

   -77.8742 -41.1586 -41.1563 -41.1563 -40.2753 -16.5463 -16.5412 -16.5408
   -12.0654 -12.0627 -12.0588 -12.0560 -12.0559   5.5356  13.0300  13.7756
    13.8477  14.9191  14.9465  15.5784  16.0643  16.1600  17.9667  18.1006
    18.9886  19.7521  19.9146  22.5775  23.3316  23.7589  24.1251  25.1988
    26.5850  27.6943  28.4667  30.3473  31.6181  35.5810  36.4472  36.8266
    38.0213  40.3857  40.5866  42.1238

          k =-0.2000 0.4000-0.2000 (  2532 PWs)   bands (ev):

   -77.8742 -41.1607 -41.1563 -41.1563 -40.2729 -16.5512 -16.5438 -16.5429
   -12.0623 -12.0600 -12.0581 -12.0547 -12.0542   5.9758  12.3417  13.4296
    13.6653  15.0036  15.0339  15.2219  16.0563  16.1154  17.9934  18.0619
    18.8063  20.0016  20.2083  22.0190  22.6860  23.8059  24.5707  26.3760
    26.9516  27.9495  30.1578  31.8882  33.0985  33.6255  34.5608  37.5088
    38.3901  38.7169  41.1021  42.4608

          k =-0.3000 0.5000-0.3000 (  2519 PWs)   bands (ev):

   -77.8742 -41.1626 -41.1564 -41.1563 -40.2706 -16.5558 -16.5461 -16.5450
   -12.0590 -12.0583 -12.0569 -12.0533 -12.0525   6.4960  11.4753  13.2025
    13.4796  15.0015  15.0546  15.1342  16.1252  16.1574  18.0516  18.1282
    18.6081  20.0962  20.1851  21.4970  22.4713  23.4373  25.7116  26.8289
    28.2909  28.6118  31.6079  31.6545  32.9726  33.8784  35.1275  35.3516
    38.9044  39.4679  40.6311  41.5333

          k = 0.6000-0.4000 0.6000 (  2516 PWs)   bands (ev):

   -77.8742 -41.1637 -41.1564 -41.1563 -40.2694 -16.5582 -16.5472 -16.5464
   -12.0577 -12.0569 -12.0564 -12.0524 -12.0516   6.8641  10.9000  13.1353
    13.3442  15.0248  15.0592  15.0816  16.1669  16.2240  18.1217  18.2288
    18.4036  19.9636  20.4118  20.9497  22.7194  23.0881  26.6333  27.3256
    28.9227  29.5129  30.6773  30.7274  32.8430  35.2490  35.9206  37.0410
    37.7598  38.9162  38.9740  39.6339

          k = 0.5000-0.3000 0.5000 (  2526 PWs)   bands (ev):

   -77.8742 -41.1634 -41.1564 -41.1563 -40.2697 -16.5577 -16.5466 -16.5466
   -12.0585 -12.0565 -12.0564 -12.0525 -12.0520   6.7808  11.0291  13.2018
    13.2862  15.0092  15.0807  15.0932  16.1496  16.2141  18.1162  18.2322
    18.4336  19.9394  20.6974  20.8031  22.8049  22.9921  26.6254  27.5248
    27.7472  29.3884  30.7398  31.9644  32.7136  34.5106  35.4724  36.7043
    38.4435  39.2072  39.3526  40.0028

          k = 0.4000-0.2000 0.4000 (  2520 PWs)   bands (ev):

   -77.8742 -41.1620 -41.1564 -41.1563 -40.2713 -16.5543 -16.5455 -16.5446
   -12.0607 -12.0575 -12.0570 -12.0538 -12.0534   6.3264  11.7687  13.3162
    13.3947  14.9803  15.1233  15.1278  16.0429  16.1945  18.0576  18.1437
    18.6707  19.8837  20.9526  21.0630  22.8375  23.2099  25.7293  26.6110
    26.8805  28.9655  31.2077  31.9383  33.1243  33.7488  34.8549  35.7569
    38.7427  39.7001  40.8503  41.9851

          k = 0.3000-0.1000 0.3000 (  2547 PWs)   bands (ev):

   -77.8742 -41.1600 -41.1563 -41.1563 -40.2737 -16.5492 -16.5434 -16.5421
   -12.0635 -12.0602 -12.0577 -12.0558 -12.0548   5.8150  12.6655  13.4312
    13.6909  14.9521  15.0801  15.2768  15.9540  16.2417  18.0600  18.0604
    18.8789  19.7127  20.7435  21.7017  23.3296  23.4924  24.4788  25.8722
    26.4612  27.9195  29.6625  31.1625  32.9477  33.7927  35.8757  37.4592
    38.2105  38.6911  41.5030  41.9237

          k = 0.2000 0.0000 0.2000 (  2557 PWs)   bands (ev):

   -77.8743 -41.1580 -41.1563 -41.1563 -40.2760 -16.5442 -16.5413 -16.5403
   -12.0657 -12.0638 -12.0581 -12.0572 -12.0564   5.4274  13.3416  13.6132
    13.8993  14.8661  14.9581  15.6855  16.0499  16.3194  18.0620  18.1089
    19.0058  19.5667  20.1572  22.1884  23.3677  23.9277  24.2583  25.7012
    25.7205  27.1780  28.2606  30.1661  31.3929  35.7695  36.1538  37.5539
    37.9299  41.0862  41.3822  41.6237

          k = 0.0000 0.4000 0.0000 (  2533 PWs)   bands (ev):

   -77.8742 -41.1596 -41.1563 -41.1563 -40.2742 -16.5493 -16.5411 -16.5411
   -12.0656 -12.0619 -12.0598 -12.0547 -12.0547   5.7061  12.6382  13.9751
    13.9751  14.8644  14.9593  15.6452  15.8664  15.8664  17.7919  18.0441
    19.1940  19.5514  19.5514  22.3593  23.5546  24.4343  24.4385  24.4385
    27.7555  28.9269  28.9269  29.7035  31.7341  35.2041  36.7527  36.7527
    37.6065  38.3871  41.7307  41.7307

          k =-0.1000 0.5000-0.1000 (  2533 PWs)   bands (ev):

   -77.8742 -41.1613 -41.1564 -41.1563 -40.2722 -16.5527 -16.5428 -16.5423
   -12.0638 -12.0614 -12.0596 -12.0533 -12.0531   6.0563  12.2006  13.7433
    13.9106  14.8511  15.0736  15.3285  15.8004  15.8366  17.7781  17.9732
    19.0481  19.4792  19.5888  21.7028  23.3122  24.2851  24.6788  26.3951
    28.3626  29.0398  30.0730  30.8524  32.6173  33.6675  34.9040  36.5008
    38.1914  39.1412  40.6337  41.9664

          k =-0.2000 0.6000-0.2000 (  2532 PWs)   bands (ev):

   -77.8742 -41.1630 -41.1564 -41.1564 -40.2701 -16.5551 -16.5457 -16.5442
   -12.0608 -12.0606 -12.0589 -12.0526 -12.0518   6.5076  11.7194  13.2169
    13.7267  14.9361  15.1137  15.1568  15.8217  15.9225  17.8376  18.0194
    18.7596  19.4419  19.5374  21.4195  23.2886  24.5965  24.6938  28.0558
    28.7884  29.3692  31.3289  31.4095  32.8591  32.9509  34.6925  36.8114
    37.5059  39.0145  39.9838  41.2355

          k = 0.7000-0.3000 0.7000 (  2521 PWs)   bands (ev):

   -77.8742 -41.1642 -41.1565 -41.1564 -40.2687 -16.5562 -16.5481 -16.5459
   -12.0604 -12.0578 -12.0575 -12.0527 -12.0512   6.8933  11.2847  12.8656
    13.5264  14.9750  15.1312  15.1322  15.8440  16.0282  17.8997  18.1942
    18.4631  19.3832  19.5163  21.1956  23.6162  24.4803  25.4051  28.1640
    29.2092  29.5044  30.8064  31.0928  34.2776  34.7951  35.4165  36.2606
    37.1883  37.8564  40.2428  40.3326

          k = 0.6000-0.2000 0.6000 (  2514 PWs)   bands (ev):

   -77.8742 -41.1643 -41.1565 -41.1564 -40.2686 -16.5563 -16.5484 -16.5468
   -12.0610 -12.0559 -12.0559 -12.0535 -12.0516   6.9678  11.2132  12.7848
    13.3720  14.9654  15.1543  15.1808  15.8712  16.0376  18.0019  18.2899
    18.3496  19.2431  19.8992  21.0292  23.8275  24.1346  26.4882  27.6431
    27.7004  28.8434  32.1235  32.4263  33.5699  34.2700  36.2460  36.7802
    37.3909  38.4940  39.0420  40.0021

          k = 0.5000-0.1000 0.5000 (  2528 PWs)   bands (ev):

   -77.8742 -41.1633 -41.1565 -41.1563 -40.2697 -16.5554 -16.5465 -16.5464
   -12.0620 -12.0560 -12.0556 -12.0537 -12.0529   6.6681  11.6012  12.9650
    13.2969  14.9628  15.1686  15.2170  15.8246  16.0466  18.0186  18.2298
    18.6364  19.1821  20.5230  21.0272  23.7075  23.7768  25.7374  26.4755
    28.2737  29.4007  31.1828  31.9033  33.7766  33.8790  35.9409  36.4789
    37.3947  39.4393  39.7818  40.5033

          k = 0.4000 0.0000 0.4000 (  2533 PWs)   bands (ev):

   -77.8742 -41.1617 -41.1564 -41.1563 -40.2716 -16.5529 -16.5453 -16.5438
   -12.0629 -12.0572 -12.0571 -12.0546 -12.0538   6.2150  12.1502  13.3161
    13.3835  14.9489  15.1771  15.1986  15.7810  16.1377  18.0346  18.1244
    19.0129  19.2193  20.9592  21.3215  23.3705  23.4283  24.9687  25.8381
    27.7701  29.4342  30.9014  31.0070  32.1110  34.4179  35.7193  37.1898
    37.9601  39.1064  40.1210  41.6031

          k = 0.0000 0.6000 0.0000 (  2526 PWs)   bands (ev):

   -77.8742 -41.1625 -41.1564 -41.1564 -40.2707 -16.5548 -16.5427 -16.5427
   -12.0638 -12.0629 -12.0609 -12.0518 -12.0518   6.2966  11.8963  14.0502
    14.0502  14.5989  15.1886  15.3243  15.5927  15.5927  17.6075  17.8465
    19.1558  19.1558  19.2268  20.8014  23.3731  25.5075  25.5075  26.6730
    29.9062  29.9324  30.6267  30.6267  32.5603  33.5496  34.6354  34.6354
    36.2892  40.4538  41.0882  41.0882

          k =-0.1000 0.7000-0.1000 (  2518 PWs)   bands (ev):

   -77.8742 -41.1639 -41.1564 -41.1564 -40.2691 -16.5560 -16.5444 -16.5438
   -12.0636 -12.0622 -12.0617 -12.0509 -12.0506   6.6344  11.6439  13.6395
    13.9869  14.7344  15.0949  15.2341  15.5513  15.6480  17.6091  17.8236
    18.8036  18.9559  19.1871  20.6276  23.3940  25.6421  26.0261  28.3051
    30.0600  30.3971  31.3832  31.6278  32.5113  32.8868  33.9878  34.4981
    36.2557  39.1698  39.9517  41.2780

          k = 0.8000-0.2000 0.8000 (  2528 PWs)   bands (ev):

   -77.8742 -41.1649 -41.1565 -41.1564 -40.2679 -16.5555 -16.5474 -16.5452
   -12.0641 -12.0606 -12.0596 -12.0510 -12.0502   6.9526  11.5405  12.9231
    13.7863  14.8899  15.0579  15.2381  15.5190  15.7899  17.6714  18.0517
    18.5064  18.8459  18.9915  20.9859  23.7910  25.5433  26.0448  28.8907
    29.5619  30.5069  30.9911  31.5486  33.8545  33.9131  34.9779  35.0118
    36.6192  37.9276  39.1267  39.8629

          k = 0.7000-0.1000 0.7000 (  2537 PWs)   bands (ev):

   -77.8742 -41.1651 -41.1566 -41.1564 -40.2676 -16.5540 -16.5503 -16.5464
   -12.0640 -12.0581 -12.0569 -12.0523 -12.0507   7.0953  11.6269  12.3668
    13.5614  14.8531  15.2480  15.2834  15.5411  15.8300  17.7963  18.3387
    18.3584  18.8073  19.0239  21.2178  24.6801  25.5145  25.6798  27.5117
    27.8952  30.5761  32.2034  32.5217  33.7938  35.0294  35.7051  36.1552
    36.2309  38.7037  38.8092  39.1231

          k = 0.6000-0.0000 0.6000 (  2536 PWs)   bands (ev):

   -77.8742 -41.1645 -41.1566 -41.1564 -40.2682 -16.5546 -16.5492 -16.5469
   -12.0633 -12.0555 -12.0553 -12.0541 -12.0518   6.9755  11.6374  12.4225
    13.3850  14.9070  15.2464  15.2912  15.6695  15.8907  17.9570  18.3259
    18.4468  18.7801  19.7093  21.1873  24.6713  24.8738  25.7494  26.8081
    27.3166  30.3968  31.2528  33.3376  33.9467  34.9996  35.7544  35.7857
    37.9359  38.6826  38.8569  39.2689

          k = 0.0000 0.8000 0.0000 (  2518 PWs)   bands (ev):

   -77.8742 -41.1649 -41.1564 -41.1564 -40.2680 -16.5568 -16.5439 -16.5439
   -12.0661 -12.0634 -12.0623 -12.0496 -12.0496   6.8316  11.4836  14.1232
    14.1232  14.3329  14.9489  15.4082  15.4427  15.4428  17.4827  17.6521
    18.6975  18.6975  19.0186  20.1224  23.2870  27.1848  27.1848  28.3069
    30.2817  32.0277  32.0277  32.2767  32.3044  32.5771  32.5771  33.8596
    34.9575  38.8448  38.8448  39.9819

          k = 0.9000-0.1000 0.9000 (  2512 PWs)   bands (ev):

   -77.8742 -41.1655 -41.1565 -41.1564 -40.2672 -16.5565 -16.5454 -16.5446
   -12.0672 -12.0632 -12.0611 -12.0494 -12.0492   7.0196  11.4563  13.5182
    14.0404  14.6771  14.8212  15.3478  15.4065  15.5886  17.4979  17.7396
    18.5156  18.5619  18.8631  20.3682  23.3712  27.2984  27.6282  28.8204
    29.9015  31.2681  31.4269  32.4174  32.5571  33.5356  33.6727  34.6301
    35.2065  38.0463  38.1380  39.2658

          k = 0.8000 0.0000 0.8000 (  2530 PWs)   bands (ev):

   -77.8742 -41.1656 -41.1566 -41.1564 -40.2671 -16.5549 -16.5483 -16.5455
   -12.0664 -12.0611 -12.0590 -12.0504 -12.0496   7.1185  11.6206  12.7186
    13.8112  14.7400  15.1405  15.3418  15.3616  15.6847  17.6019  18.1654
    18.4136  18.5182  18.7444  20.9368  23.8228  26.7265  27.0999  27.8155
    28.4841  32.0431  32.0732  32.7044  33.0216  33.3112  34.9081  35.4589
    35.8403  38.0459  38.8968  39.3833

          k = 0.0000-1.0000 0.0000 (  2498 PWs)   bands (ev):

   -77.8742 -41.1657 -41.1564 -41.1564 -40.2670 -16.5570 -16.5444 -16.5444
   -12.0684 -12.0641 -12.0618 -12.0488 -12.0488   7.0500  11.3830  14.1540
    14.1540  14.2381  14.7154  15.4011  15.4011  15.5042  17.4362  17.5656
    18.5052  18.5052  18.8403  20.0533  23.2623  28.5024  28.5024  28.8080
    30.5596  30.7605  30.7605  31.7223  33.1945  33.1945  33.6923  34.6510
    34.9728  37.7689  37.7689  38.3926

          k =-0.2000 0.4000 0.0000 (  2542 PWs)   bands (ev):

   -77.8742 -41.1602 -41.1564 -41.1563 -40.2735 -16.5501 -16.5428 -16.5418
   -12.0642 -12.0606 -12.0588 -12.0549 -12.0544   5.8437  12.5574  13.6097
    13.8031  14.9214  15.0501  15.3561  15.8241  16.1173  17.9383  18.0471
    19.0528  19.4582  20.1624  22.7051  22.7990  23.3434  24.8527  25.5512
    27.3505  28.3090  29.8264  30.5026  32.6699  33.8709  36.3006  36.9180
    37.9771  40.0895  40.3251  40.9034

          k =-0.3000 0.5000-0.1000 (  2535 PWs)   bands (ev):

   -77.8742 -41.1621 -41.1564 -41.1563 -40.2712 -16.5537 -16.5451 -16.5439
   -12.0623 -12.0589 -12.0575 -12.0536 -12.0531   6.2933  11.9790  13.3067
    13.5406  14.9522  15.1260  15.1974  15.8285  16.0637  17.9840  18.0516
    18.8667  19.4187  20.1216  22.1332  22.6488  23.6717  25.1770  26.6026
    27.9196  29.4447  30.8079  31.4987  32.3695  34.0386  34.8390  36.8318
    38.1242  39.7466  40.6222  41.2161

          k = 0.6000-0.4000 0.8000 (  2523 PWs)   bands (ev):

   -77.8742 -41.1636 -41.1565 -41.1564 -40.2694 -16.5562 -16.5472 -16.5460
   -12.0605 -12.0575 -12.0561 -12.0533 -12.0519   6.7492  11.3636  13.0075
    13.4086  14.9790  15.1174  15.1591  15.9098  16.0848  18.0125  18.1560
    18.5413  19.4749  19.8817  21.5355  22.9441  24.0335  25.7463  27.5459
    28.2943  29.4617  30.9534  31.9782  33.1731  34.4542  35.3155  36.5401
    37.7510  38.3854  40.3172  41.2179

          k = 0.5000-0.3000 0.7000 (  2522 PWs)   bands (ev):

   -77.8742 -41.1642 -41.1565 -41.1564 -40.2687 -16.5570 -16.5480 -16.5467
   -12.0598 -12.0568 -12.0556 -12.0535 -12.0513   6.9603  11.0751  12.9094
    13.3680  14.9905  15.1025  15.1492  15.9409  16.1157  18.0627  18.1898
    18.3855  19.5587  19.7036  21.3059  23.0859  24.1185  26.6757  27.3158
    28.2192  29.5854  30.4842  32.6054  33.4259  34.8423  35.6093  37.2492
    37.7901  38.3734  38.7906  39.5831

          k =-0.2000 0.6000 0.0000 (  2534 PWs)   bands (ev):

   -77.8742 -41.1628 -41.1564 -41.1564 -40.2704 -16.5548 -16.5442 -16.5437
   -12.0630 -12.0612 -12.0596 -12.0522 -12.0519   6.4069  11.8604  13.5647
    13.7505  14.8705  15.1363  15.2200  15.6474  15.8273  17.7742  17.9285
    18.9810  19.0926  19.4760  21.3632  23.4420  24.0819  25.7517  27.2813
    29.3174  29.7585  30.9110  31.2696  32.2386  33.7794  34.7100  34.8953
    38.0566  39.8585  40.4633  40.9983

          k = 0.7000-0.3000 0.9000 (  2523 PWs)   bands (ev):

   -77.8742 -41.1641 -41.1565 -41.1564 -40.2687 -16.5555 -16.5467 -16.5454
   -12.0629 -12.0597 -12.0583 -12.0523 -12.0508   6.7933  11.6018  13.0199
    13.5950  14.9473  15.1003  15.2029  15.6132  15.9007  17.8328  18.0180
    18.6219  18.9682  19.2583  21.5824  23.6749  24.1039  26.1342  28.1204
    29.5080  29.8927  30.9446  31.9567  32.8967  33.8309  34.8501  35.8573
    38.0058  38.2179  39.5232  39.8040

          k = 0.6000-0.2000 0.8000 (  2520 PWs)   bands (ev):

   -77.8742 -41.1648 -41.1566 -41.1564 -40.2679 -16.5549 -16.5491 -16.5467
   -12.0631 -12.0577 -12.0565 -12.0535 -12.0503   7.0433  11.4740  12.6040
    13.4726  14.9009  15.1531  15.2483  15.5967  15.9720  17.9052  18.1775
    18.4021  18.9865  19.0357  21.7331  23.8323  24.8665  25.9459  27.3510
    29.4052  29.9076  30.7071  33.0470  34.2020  34.3933  35.0827  36.5619
    36.9538  38.6158  39.0248  39.9052

          k = 0.5000-0.1000 0.7000 (  2527 PWs)   bands (ev):

   -77.8742 -41.1646 -41.1566 -41.1564 -40.2681 -16.5549 -16.5488 -16.5470
   -12.0631 -12.0564 -12.0553 -12.0547 -12.0509   6.9953  11.5326  12.5702
    13.3861  14.9119  15.1970  15.2563  15.6278  15.9732  18.0036  18.1727
    18.4311  18.8779  19.3578  21.8183  23.6999  24.7593  26.1450  27.0062
    28.2364  29.8799  31.7414  32.8631  33.6850  34.4312  35.5485  36.6888
    37.5360  38.4351  38.9149  39.7818

          k = 0.4000 0.0000 0.6000 (  2530 PWs)   bands (ev):

   -77.8742 -41.1635 -41.1565 -41.1564 -40.2694 -16.5550 -16.5465 -16.5462
   -12.0628 -12.0576 -12.0560 -12.0535 -12.0521   6.6842  11.7120  12.9419
    13.3687  14.9571  15.1991  15.2062  15.6970  15.9795  18.0055  18.1088
    18.7509  18.9374  19.7968  22.0009  23.1994  23.8745  26.1082  26.5860
    28.8873  29.7466  30.7744  31.8912  33.5392  34.1123  35.1179  36.4677
    38.1947  39.1397  39.4839  39.9792

          k = 0.8000-0.2000 1.0000 (  2519 PWs)   bands (ev):

   -77.8742 -41.1649 -41.1565 -41.1564 -40.2679 -16.5561 -16.5454 -16.5451
   -12.0653 -12.0620 -12.0605 -12.0507 -12.0496   6.9000  11.5422  13.3883
    13.8019  14.8603  14.9209  15.2801  15.4557  15.7106  17.6089  17.8379
    18.5976  18.6871  18.9921  20.7954  23.4623  25.6316  27.2867  28.4993
    29.9334  31.0416  31.4670  32.1827  32.5129  33.1569  33.8295  34.8678
    36.3895  38.2374  38.5633  40.8966

          k = 0.7000-0.1000 0.9000 (  2523 PWs)   bands (ev):

   -77.8742 -41.1654 -41.1566 -41.1564 -40.2672 -16.5547 -16.5481 -16.5463
   -12.0661 -12.0603 -12.0583 -12.0518 -12.0492   7.0961  11.6445  12.7581
    13.6029  14.7934  15.0981  15.3001  15.3809  15.8378  17.6926  18.0862
    18.3780  18.5768  18.7859  21.4218  23.8671  25.4137  26.8324  28.1015
    29.5481  31.0714  31.6369  32.3805  33.5424  33.7878  34.4996  35.3456
    36.9284  38.2028  38.8049  40.0547

          k = 0.6000 0.0000 0.8000 (  2530 PWs)   bands (ev):

   -77.8742 -41.1653 -41.1566 -41.1564 -40.2673 -16.5529 -16.5507 -16.5470
   -12.0652 -12.0577 -12.0564 -12.0536 -12.0497   7.1326  11.8605  12.2104
    13.4697  14.8094  15.2822  15.3095  15.3617  15.9042  17.8479  18.2561
    18.3645  18.6685  18.7739  21.8186  24.7559  25.1576  25.3492  27.7504
    28.3102  31.7337  31.7811  32.5228  32.8029  35.0900  35.5791  36.1595
    36.9413  38.7012  38.9457  39.2199

          k =-0.2000-1.0000 0.0000 (  2514 PWs)   bands (ev):

   -77.8742 -41.1657 -41.1565 -41.1564 -40.2670 -16.5559 -16.5459 -16.5456
   -12.0676 -12.0625 -12.0602 -12.0501 -12.0488   7.0936  11.5063  13.3178
    13.7774  14.7534  14.8668  15.3512  15.3616  15.6897  17.5405  17.8112
    18.4406  18.5004  18.7810  20.7109  23.4564  27.1995  27.2420  28.9002
    29.9275  30.5530  31.7515  32.9334  33.2349  33.2822  34.1087  34.4271
    35.5951  38.2015  38.5311  38.9039

          k = 0.6000-0.2000 1.0000 (  2510 PWs)   bands (ev):

   -77.8742 -41.1650 -41.1566 -41.1564 -40.2676 -16.5543 -16.5480 -16.5474
   -12.0649 -12.0583 -12.0568 -12.0536 -12.0497   7.0446  11.6928  12.6395
    13.3995  14.8560  15.1615  15.2652  15.4356  15.9546  17.9369  18.0527
    18.3668  18.6743  18.9282  22.3879  23.7750  24.1003  26.6611  27.6709
    28.9745  31.1981  31.5021  32.5708  32.7621  33.9365  35.0704  36.4923
    37.8595  38.3912  39.0110  39.4179

          k = 0.5000-0.1000 0.9000 (  2530 PWs)   bands (ev):

   -77.8742 -41.1654 -41.1566 -41.1564 -40.2672 -16.5528 -16.5499 -16.5479
   -12.0658 -12.0567 -12.0558 -12.0556 -12.0492   7.1460  11.8611  12.3381
    13.3310  14.8013  15.1957  15.3122  15.3358  15.9988  18.0016  18.0741
    18.2992  18.5840  18.7236  22.7943  23.7822  24.9662  25.1484  28.0788
    29.6030  30.9100  31.4334  32.5653  33.5926  33.7908  35.1306  37.0241
    37.4847  38.8762  39.0384  39.9845

          k =-0.4000-1.0000 0.0000 (  2528 PWs)   bands (ev):

   -77.8742 -41.1656 -41.1566 -41.1565 -40.2670 -16.5531 -16.5486 -16.5483
   -12.0669 -12.0585 -12.0570 -12.0537 -12.0487   7.1676  11.8615  12.5345
    13.2902  14.7687  15.1416  15.2687  15.3377  15.9806  17.8482  18.1131
    18.2335  18.4563  18.6763  22.4404  24.1177  24.8928  25.3869  29.1947
    29.8083  30.4746  31.7125  33.0302  33.3770  33.4252  34.1850  36.3077
    37.7019  39.3029  39.3574  39.8620

     the Fermi energy is    16.5341 ev

!    total energy              =    -527.61273782 Ry
     estimated scf accuracy    <          2.1E-11 Ry
     smearing contrib. (-TS)   =      -0.00000000 Ry
     internal energy E=F+TS    =    -527.61273782 Ry

     The total energy is F=E-TS. E is the sum of the following terms:
     one-electron contribution =    -231.90570742 Ry
     hartree contribution      =     136.92922151 Ry
     xc contribution           =     -58.08896771 Ry
     ewald contribution        =    -374.54728421 Ry

     convergence has been achieved in  12 iterations

     Writing all to output data dir out/mp-5967.save/
 
     init_run     :      0.22s CPU      0.25s WALL (       1 calls)
     electrons    :      8.80s CPU      9.49s WALL (       1 calls)

     Called by init_run:
     wfcinit      :      0.18s CPU      0.20s WALL (       1 calls)
     potinit      :      0.01s CPU      0.01s WALL (       1 calls)
     hinit0       :      0.02s CPU      0.03s WALL (       1 calls)

     Called by electrons:
     c_bands      :      7.85s CPU      8.47s WALL (      12 calls)
     sum_band     :      0.91s CPU      0.95s WALL (      12 calls)
     v_of_rho     :      0.04s CPU      0.04s WALL (      13 calls)
     mix_rho      :      0.01s CPU      0.01s WALL (      12 calls)

     Called by c_bands:
     init_us_2    :      0.06s CPU      0.07s WALL (     600 calls)
     init_us_2:cp :      0.06s CPU      0.07s WALL (     600 calls)
     cegterg      :      7.28s CPU      7.83s WALL (     288 calls)

     Called by *egterg:
     cdiaghg      :      2.14s CPU      2.39s WALL (    1039 calls)
     h_psi        :      4.50s CPU      4.77s WALL (    1063 calls)
     g_psi        :      0.03s CPU      0.03s WALL (     751 calls)

     Called by h_psi:
     h_psi:calbec :      0.17s CPU      0.18s WALL (    1063 calls)
     vloc_psi     :      4.19s CPU      4.44s WALL (    1063 calls)
     add_vuspsi   :      0.11s CPU      0.12s WALL (    1063 calls)

     General routines
     calbec       :      0.16s CPU      0.17s WALL (    1063 calls)
     fft          :      0.02s CPU      0.02s WALL (     129 calls)
     ffts         :      0.00s CPU      0.00s WALL (      12 calls)
     fftw         :      4.48s CPU      4.74s WALL (   79630 calls)
 
     Parallel routines
 
     PWSCF        :      9.11s CPU     10.13s WALL

 
   This run was terminated on:  16:32:17   5Dec2023            

=------------------------------------------------------------------------------=
   JOB DONE.
=------------------------------------------------------------------------------=
