
     Program PWSCF v.7.1 starts on 18Nov2023 at 12:35: 6 

     This program is part of the open-source Quantum ESPRESSO suite
     for quantum simulation of materials; please cite
         "P. Giannozzi et al., J. Phys.:Condens. Matter 21 395502 (2009);
         "P. Giannozzi et al., J. Phys.:Condens. Matter 29 465901 (2017);
         "P. Giannozzi et al., J. Chem. Phys. 152 154105 (2020);
          URL http://www.quantum-espresso.org", 
     in publications or presentations arising from this work. More details at
     http://www.quantum-espresso.org/quote

     Parallel version (MPI), running on     8 processors

     MPI processes distributed on     1 nodes
     123405 MiB available memory on the printing compute node when the environment starts
 
     Reading input from pw_mp-984_nscf_k40_E63.in
Warning: card &IONS ignored
Warning: card / ignored
Warning: card &CELL ignored
Warning: card / ignored

     Current dimensions of program PWSCF are:
     Max number of different atomic species (ntypx) = 10
     Max number of k-points (npk) =  40000
     Max angular momentum in pseudopotentials (lmaxx) =  4

     Atomic positions and unit cell read from directory:
     out/mp-984.save/
     Atomic positions from file used, from input discarded
 
 
     R & G space division:  proc/nbgrp/npool/nimage =       8
     Subspace diagonalization in iterative solution of the eigenvalue problem:
     one sub-group per band group will be used
     scalapack distributed-memory algorithm (size of sub-group:  2*  2 procs)

 
     Parallelization info
     --------------------
     sticks:   dense  smooth     PW     G-vecs:    dense   smooth      PW
     Min          47      47     15                 2387     2387     401
     Max          48      48     16                 2402     2402     410
     Sum         379     379    121                19135    19135    3233
 
     Using Slab Decomposition
 


     bravais-lattice index     =            4
     lattice parameter (alat)  =       4.7478  a.u.
     unit-cell volume          =     284.3248 (a.u.)^3
     number of atoms/cell      =            4
     number of atomic types    =            2
     number of electrons       =        16.00
     number of Kohn-Sham states=         1200
     kinetic-energy cutoff     =      63.0000  Ry
     charge density cutoff     =     252.0000  Ry
     Exchange-correlation= PBE
                           (   1   4   3   4   0   0   0)

     celldm(1)=   4.747801  celldm(2)=   0.000000  celldm(3)=   3.067656
     celldm(4)=   0.000000  celldm(5)=   0.000000  celldm(6)=   0.000000

     crystal axes: (cart. coord. in units of alat)
               a(1) = (   1.000000   0.000000   0.000000 )  
               a(2) = (  -0.500000   0.866025   0.000000 )  
               a(3) = (   0.000000   0.000000   3.067656 )  

     reciprocal axes: (cart. coord. in units 2 pi/alat)
               b(1) = (  1.000000  0.577350  0.000000 )  
               b(2) = (  0.000000  1.154701  0.000000 )  
               b(3) = (  0.000000  0.000000  0.325982 )  


     PseudoPot. # 1 for B  read from file:
     /usr/scratch4/magr4985/MG/HTDF/pseudo/SG15/B.upf
     MD5 check sum: eb3cbeacc2d324d57d903df00f564d27
     Pseudo is Norm-conserving, Zval =  3.0
     Generated using ONCVPSP code by D. R. Hamann
     Using radial grid of  602 points,  4 beta functions with: 
                l(1) =   0
                l(2) =   0
                l(3) =   1
                l(4) =   1

     PseudoPot. # 2 for N  read from file:
     /usr/scratch4/magr4985/MG/HTDF/pseudo/SG15/N.upf
     MD5 check sum: c233fa8df51455e992258b7c3dee8a9f
     Pseudo is Norm-conserving, Zval =  5.0
     Generated using ONCVPSP code by D. R. Hamann
     Using radial grid of  602 points,  4 beta functions with: 
                l(1) =   0
                l(2) =   0
                l(3) =   1
                l(4) =   1

     atomic species   valence    mass     pseudopotential
        B              3.00    10.81100     B ( 1.00)
        N              5.00    14.00670     N ( 1.00)

     12 Sym. Ops., with inversion, found



   Cartesian axes

     site n.     atom                  positions (alat units)
         1           B   tau(   1) = (   0.5000000   0.2886752   0.7669140  )
         2           B   tau(   2) = (   0.0000000   0.5773502   2.3007420  )
         3           N   tau(   3) = (   0.5000000   0.2886752   2.3007420  )
         4           N   tau(   4) = (   0.0000000   0.5773502   0.7669140  )

     number of k points=     8  Gaussian smearing, width (Ry)=  0.0005
                       cart. coord. in units 2pi/alat
        k(    1) = (   0.0000000   0.0000000   0.0000000), wk =   0.0625000
        k(    2) = (   0.0000000   0.0000000  -0.1629909), wk =   0.0625000
        k(    3) = (   0.0000000   0.2886751   0.0000000), wk =   0.3750000
        k(    4) = (   0.0000000   0.2886751  -0.1629909), wk =   0.3750000
        k(    5) = (   0.0000000  -0.5773503   0.0000000), wk =   0.1875000
        k(    6) = (   0.0000000  -0.5773503  -0.1629909), wk =   0.1875000
        k(    7) = (   0.2500000   0.4330127   0.0000000), wk =   0.3750000
        k(    8) = (   0.2500000   0.4330127  -0.1629909), wk =   0.3750000

     Dense  grid:    19135 G-vectors     FFT dimensions: (  24,  24,  75)

     Estimated max dynamical RAM per process >      95.07 MB

     Estimated total dynamical RAM >     760.54 MB

     The potential is recalculated from file :
     out/mp-984.save/charge-density

     Starting wfcs are random

     Band Structure Calculation
     ParO style diagonalization

     ethr =  5.00E-06,  avg # of iterations =  6.0

     total cpu time spent up to now is      602.2 secs

     End of band structure calculation

          k = 0.0000 0.0000 0.0000 (  2359 PWs)   bands (ev):

   -14.3959 -14.3100  -2.4322  -1.4658   1.8422   1.8422   1.8489   1.8489
     7.8572  11.7891  14.1953  14.7269  14.7269  14.7603  14.7603  15.8129
    17.1653  17.9351  21.0647  26.7718  28.4210  28.8645  32.1976  32.1976
    34.3224  34.3224  34.4752  34.8509  34.8509  36.1093  38.0962  38.0962
    38.1089  38.1089  38.9767  38.9767  40.4199  40.6198  41.3421  42.5871
    43.9744  45.6669  45.6669  45.7374  45.7374  48.3119  48.3119  51.1330
    51.1359  51.1360  53.2334  53.2334  53.6452  53.8081  57.2600  57.2843
    57.2843  57.8927  60.8724  63.2202  63.2202  64.8300  64.8300  67.3716
    68.0148  68.0148  70.1561  70.1561  70.6400  73.5321  76.8919  76.8919
    77.3940  77.3940  80.0324  80.8432  82.5271  82.8882  82.9300  82.9300
    83.0003  86.7449  87.1631  87.1631  87.2192  89.8488  89.8488  90.7952
    90.7952  93.0478  93.0478  93.2478  93.4750  95.9213  96.2215  96.2215
    96.4816  97.1473  97.1473  97.1877  97.1877  97.3719  97.3719  97.8652
    98.4555  99.9422  99.9422 100.9117 100.9117 100.9778 103.4619 103.4619
   103.8628 106.1904 106.1904 106.2412 107.0212 109.2652 110.9373 110.9373
   111.1868 111.1868 111.8634 113.2955 113.2955 113.4788 113.4788 113.9364
   114.2164 114.2164 114.3024 114.3115 114.3722 114.7290 114.7290 115.3096
   115.3097 115.6638 116.1227 117.3039 117.3039 118.0099 118.0099 119.4861
   120.3006 122.7724 123.8545 125.8659 126.5609 126.5609 126.6996 126.6996
   128.3340 128.3340 128.6914 128.6914 128.7257 128.8394 129.0499 129.0499
   129.4062 130.2218 130.2218 131.3272 131.3799 132.1404 132.1404 132.3158
   133.1849 133.1849 133.5731 133.5789 133.5789 135.5376 135.5376 135.8914
   137.5251 137.8732 138.4390 138.6626 138.6626 141.0802 141.0802 143.3098
   143.3098 143.8870 143.8870 144.1852 144.9043 145.9737 146.6262 146.9408
   146.9408 147.6821 147.6821 147.9502 147.9502 148.6660 148.6660 149.4530
   152.9926 153.1204 153.1204 153.3171 153.3171 153.7148 153.7148 153.8435
   153.9770 154.2679 154.2679 154.3933 154.5239 154.9468 154.9468 155.0031
   157.4638 160.0298 160.0491 160.0491 160.4622 160.4622 161.0602 161.3609
   161.3609 163.8829 166.4234 169.3561 169.3561 170.4211 170.9311 173.9721
   173.9721 176.4750 176.4750 177.2698 177.2698 178.4351 180.3312 180.3312
   180.7743 180.7743 181.6192 181.6279 181.7748 182.2014 183.0565 183.0565
   183.1931 183.1931 183.9758 183.9758 184.5940 185.6141 185.7500 185.7500
   186.8351 186.8351 187.2034 188.4876 188.4876 190.1083 190.1083 190.1368
   190.1368 190.1857 190.2131 190.2131 191.0976 191.1274 193.3012 193.3012
   197.6992 201.0477 201.1028 202.6735 202.6735 203.3911 203.3911 204.0319
   206.4463 206.8796 207.7668 208.4465 209.0605 209.0605 209.3863 210.2094
   210.2094 210.9747 210.9747 210.9772 211.0338 211.0338 211.3060 211.3060
   211.4251 211.4388 211.4388 211.4550 211.4550 211.7512 211.7512 212.3299
   212.4013 213.2705 213.2705 213.6384 213.6384 214.4405 214.7007 217.7577
   221.0886 221.0886 221.2471 221.3863 221.9263 222.1798 222.1798 222.6566
   222.8593 223.2345 223.2345 224.1727 224.1727 224.5642 225.0161 225.1622
   225.1622 225.2409 225.6290 225.6290 225.8060 226.5746 226.5746 227.8554
   227.8554 228.1292 228.1292 228.3982 228.3982 228.6559 228.6559 228.8588
   228.9410 228.9410 229.2731 229.7001 229.9483 229.9483 231.2943 231.2943
   231.5157 231.7796 231.8754 232.6745 232.6745 232.7674 232.7873 232.7873
   233.2833 234.1125 234.1125 234.1195 235.3458 236.3892 236.3892 237.0900
   237.0900 238.1376 238.1376 238.5926 238.5926 238.6122 239.0144 239.9390
   241.2656 241.2656 241.5682 241.5682 241.9262 241.9910 242.0647 242.0647
   242.1071 242.3598 242.3598 242.3837 243.1195 243.9099 243.9485 243.9485
   244.0384 244.0384 244.1509 244.1509 244.7858 244.7858 245.9003 246.9835
   247.5176 248.2376 248.2435 248.2435 249.8442 249.8442 251.0233 251.0233
   251.1877 251.1877 251.3331 252.2840 252.3075 252.3452 253.3143 253.3143
   253.6688 253.6688 254.7417 254.7417 255.6120 255.7240 255.7959 255.7959
   257.2956 257.3111 257.3111 258.1708 258.3347 258.3347 259.0108 259.0108
   259.2336 259.2336 259.5815 259.6112 260.1505 260.5323 263.5562 263.5562
   267.0907 267.0907 267.2136 267.2136 267.3866 267.5990 271.4770 272.0740
   272.4262 272.4262 272.5655 273.8923 273.8923 275.1439 275.1439 275.6349
   275.8552 275.8552 276.7034 276.9793 276.9793 277.1569 277.1569 277.9852
   278.0890 278.7320 280.0148 280.0148 280.1574 280.1574 280.4122 280.4122
   280.4691 280.4691 280.9931 281.2122 281.5382 281.5382 281.6330 281.6330
   281.8605 281.8605 281.9587 282.0987 282.2159 282.5505 282.5505 282.6010
   282.6528 282.6528 282.7403 282.9325 282.9325 283.5946 285.7658 286.2057
   287.4539 287.5904 287.5904 287.7099 287.7099 287.7837 289.0059 289.7687
   289.7687 289.8513 289.8513 289.9010 290.2474 290.2474 291.5430 291.5430
   292.1929 292.1929 293.6965 293.6965 293.7229 294.2577 294.2577 294.3206
   294.3206 295.4570 295.4853 295.4856 295.5128 299.0118 299.2921 299.8015
   299.8015 300.8741 301.4845 301.4845 302.3369 302.6812 302.6812 303.0162
   303.0162 303.1453 303.1980 303.3593 303.3593 303.7539 303.9239 303.9239
   304.2418 304.2418 304.7794 304.7794 305.3651 305.6446 305.6602 305.9982
   306.5595 306.5595 308.1334 308.1334 309.3279 309.3279 309.3492 309.3492
   309.8034 309.8212 309.9571 311.5167 317.0113 317.0113 318.9843 318.9843
   319.1976 320.1715 320.1715 320.2624 320.2813 320.2813 320.3313 320.3313
   320.5526 321.0827 322.3717 322.3717 324.7303 324.7657 324.7657 325.1681
   325.1681 326.4227 326.7381 327.0795 327.5979 329.2894 330.7152 330.7152
   330.9527 331.1195 331.1195 331.2007 331.2007 333.7091 333.7091 333.8842
   333.8842 334.5981 334.5981 334.6725 335.0894 336.3269 336.3269 336.6960
   337.1380 337.1380 337.4360 337.4360 338.2646 338.3812 338.4077 338.4077
   338.4104 339.6625 339.6625 339.9318 339.9318 341.0761 341.0761 341.5038
   341.5038 341.5052 342.2792 342.2792 342.3520 342.3678 342.3678 342.6175
   342.6835 343.0530 343.4883 343.5652 343.5977 343.5977 343.8698 343.8698
   343.9877 343.9877 344.3044 344.4729 344.4729 344.5296 345.5579 349.2183
   349.2183 352.6024 352.9401 352.9401 355.9218 356.8307 358.3959 358.3960
   359.9850 359.9851 360.0978 360.1780 361.1419 361.1419 363.9052 365.4095
   366.4894 368.6621 368.6621 368.8207 368.8207 368.9192 368.9192 369.5571
   369.5571 369.5618 369.6128 369.6128 369.6544 372.0715 372.0715 372.1479
   372.1479 373.2749 373.8833 373.8833 374.0040 374.1647 374.5161 375.3515
   375.3515 376.2793 376.2878 376.8856 376.9434 376.9434 377.0110 377.0110
   377.2767 377.2767 377.7506 378.1045 378.6974 379.6437 379.6437 379.9334
   379.9334 380.2916 380.2916 380.3401 380.3401 380.3489 380.4916 380.6376
   381.2651 381.2651 381.2821 382.3799 382.3799 382.4017 382.4017 382.4138
   383.0161 383.6560 384.6157 384.8450 384.8450 384.8463 384.8487 384.8487
   387.2441 387.2441 387.3553 387.3553 388.6259 388.6259 388.6387 388.7251
   388.7251 388.8607 388.8607 388.9262 390.7152 390.9604 391.5937 391.5937
   391.8823 392.0095 392.0095 392.1413 392.1413 392.2081 392.2508 392.2508
   392.3140 392.3140 393.5282 395.2127 395.2127 395.3079 395.3079 395.4626
   395.9053 395.9053 396.3545 396.5607 396.6275 396.6275 396.6913 397.1447
   397.5643 397.8255 397.8255 398.1218 398.1218 398.2012 398.2012 398.2784
   398.7745 398.8570 399.7182 399.7182 400.0838 400.0838 400.7266 400.9083
   401.5362 401.5362 401.5387 402.1183 402.2505 402.2700 402.2700 402.6868
   402.7871 402.7871 402.9088 402.9088 402.9184 402.9184 403.0004 409.4701
   411.7542 411.7542 412.1445 412.4776 412.4776 413.2974 413.2974 413.6439
   413.6439 413.8304 413.9046 413.9046 413.9523 414.1415 414.1415 414.1887
   414.3937 414.9146 415.1122 415.1122 415.1467 415.1467 415.1785 415.4350
   415.4350 415.5413 415.6772 415.7884 415.7884 415.8489 415.8489 416.7760
   416.7760 417.4916 417.8172 417.8172 417.8270 417.8270 418.1207 418.3959
   418.7647 418.7647 419.1853 419.1853 419.2649 419.2771 419.2771 419.3558
   419.4741 419.9802 420.6177 420.6177 420.9428 421.0221 421.1583 421.1984
   421.4115 421.4115 421.7266 421.7266 421.7669 421.8449 422.0834 422.0834
   422.5038 422.5038 423.1495 423.3316 423.3316 423.3962 423.3962 423.6176
   423.6815 425.1409 426.6623 426.7209 426.7209 426.7797 426.7797 426.8173
   426.9999 426.9999 427.4012 427.4012 427.4486 427.4486 428.4968 428.7383
   428.7383 429.0063 429.3649 429.3649 429.4892 429.5096 429.5096 430.4392
   430.6076 430.6151 430.6151 430.8799 430.8799 430.9827 430.9973 431.0780
   431.0780 431.2031 431.2031 431.2541 431.6114 432.7698 436.8223 436.8223
   436.8897 436.8897 437.6530 438.2294 438.2294 438.2403 438.3062 438.3062
   438.3187 438.3187 438.3201 439.5846 440.0211 440.0211 440.1157 440.1157
   440.3861 440.3861 440.4697 440.6822 442.1372 442.4074 442.4531 442.4531
   443.6137 446.0309 446.0309 446.3449 446.3932 446.3932 446.4167 446.4167
   446.6028 446.7127 447.5600 447.7615 447.8463 448.0323 448.0323 448.0773
   448.0773 448.4455 448.4455 448.5313 448.5313 448.5735 448.6076 448.6950
   450.1264 450.1264 450.6084 450.6084 451.9237 451.9237 451.9675 452.0540
   452.0540 453.3528 453.5290 453.5290 453.6180 453.6180 454.7259 454.8163
   455.3776 455.3776 455.3930 455.3930 456.2288 456.8227 461.5445 461.5445
   462.2228 462.2228 463.9808 464.2751 464.2751 464.7780 464.7780 465.0828
   465.0828 465.1940 465.2493 465.2493 465.2533 465.2693 465.2693 466.1119
   466.1119 466.2006 466.2006 466.6874 466.9248 466.9400 467.3198 467.3991
   467.7956 467.7956 468.2155 468.2599 468.2599 468.6173 468.6173 469.4413
   470.0495 470.1682 470.2638 470.3624 470.4344 470.4344 470.6937 470.6937
   470.8816 470.8816 471.0325 471.0325 471.0581 471.0581 471.1849 471.1849
   471.2530 471.3270 471.6925 471.8120 471.8120 471.8936 471.8936 472.1209
   472.1959 478.9829 479.6423 479.6423 481.9090 483.1805 483.1805 483.3809
   483.3809 483.4659 483.4659 483.6320 483.6320 483.7023 483.9156 484.0279
   484.4412 484.6351 484.6351 484.8600 485.1038 485.1038 485.2843 485.2843
   485.5193 485.5193 485.9621 486.5304 486.5304 487.6466 487.6466 487.9988
   488.1335 488.1335 488.3676 489.2187 489.7131 492.5217 492.8953 494.0681
   495.3234 495.3234 495.5043 495.5043 495.8715 495.8715 496.0139 496.0139
   496.0663 497.2425 497.3909 497.4471 497.4471 497.5787 497.6000 497.8070
   497.9327 497.9327 498.0406 498.0406 498.4656 498.4656 498.4812 498.5090
   498.5786 498.5786 498.5941 498.5941 498.8546 498.8546 498.8643 498.8643
   499.0187 499.0590 500.0152 505.8908 507.6779 509.7318 509.7633 509.7633
   509.7685 509.7685 510.4471 511.2529 512.2186 512.2896 512.2896 512.3079
   512.3079 512.4216 512.8680 512.8680 513.4588 513.4588 513.5598 513.5715
   513.5715 514.3777 515.7790 515.7790 515.8841 515.8841 516.2167 516.3100
   516.3100 516.6150 516.6329 516.6329 517.4764 517.4764 517.7766 517.8575
   519.0909 519.0909 519.1507 519.1507 519.4339 520.0204 520.0204 520.1769
   520.1769 520.3223 520.4088 522.0334 523.1599 523.5259 523.5259 523.6042
   523.6512 523.6512 523.8278 523.8278 523.9331 523.9331 524.0460 524.1652
   524.1652 524.9906 524.9964 524.9964 525.0311 525.0311 525.1430 525.1430
   525.2205 525.3480 525.3612 525.3612 525.4338 525.4453 525.4453 525.4745
   525.9464 527.7049 527.7679 527.7679 528.6942 528.6942 529.0313 529.0313

          k = 0.0000 0.0000-0.1630 (  2364 PWs)   bands (ev):

   -14.3534 -14.3534  -1.9853  -1.9853   1.8450   1.8450   1.8450   1.8450
     9.4543   9.4552  14.7433  14.7433  14.7433  14.7433  15.3310  15.3327
    17.4630  17.4642  23.7242  23.7244  28.7080  28.7081  32.9852  32.9852
    32.9853  32.9853  35.4594  35.4598  35.7928  35.7928  35.7929  35.7929
    40.7622  40.7631  40.9028  40.9028  40.9028  40.9028  41.6339  41.6341
    42.8694  42.8694  42.8695  42.8695  47.9271  47.9274  51.8424  51.8424
    51.8425  51.8425  52.3838  52.3845  55.2335  55.2335  55.2335  55.2335
    57.2563  57.2571  61.2601  61.2601  61.2603  61.2603  68.0399  68.0401
    70.5459  70.5478  73.4976  73.4976  73.4977  73.4977  76.3237  76.3240
    77.6034  77.6034  77.6034  77.6034  79.2192  79.2192  79.2193  79.2193
    82.9436  82.9436  88.2389  88.2402  90.7747  90.7754  92.1033  92.1033
    92.1033  92.1033  93.3800  93.3800  95.8726  95.8726  95.8728  95.8728
    98.1581  98.1581  98.1582  98.1582  98.9253  98.9255 100.4275 100.4278
   102.2173 102.2173 102.2175 102.2175 103.1263 103.1263 103.1265 103.1265
   103.4642 103.4645 104.1835 104.1835 104.1837 104.1837 107.1439 107.1439
   107.1440 107.1440 107.6788 107.6789 109.4841 109.4853 111.1863 111.1863
   111.1866 111.1866 114.5960 114.5963 116.3127 116.3135 118.2683 118.2693
   118.6428 118.6428 118.6431 118.6431 120.9937 120.9937 120.9939 120.9939
   122.0524 122.0525 125.6840 125.6850 128.5999 128.5999 128.5999 128.5999
   129.8122 129.8123 129.8906 129.8906 129.8907 129.8907 129.9893 129.9893
   129.9896 129.9896 130.9926 130.9926 131.4718 131.4719 132.0231 132.0231
   132.0234 132.0234 136.4274 136.4274 136.4274 136.4274 136.6821 136.6821
   136.6822 136.6822 137.0818 137.0818 138.6452 138.6460 140.4014 140.4017
   141.2670 141.2670 141.2673 141.2673 141.4023 141.4023 141.4026 141.4026
   141.9807 141.9808 142.8521 142.8540 148.8642 148.8642 148.8647 148.8647
   151.3645 151.3645 151.3645 151.3645 153.1200 153.1201 154.6246 154.6247
   156.8279 156.8283 160.4194 160.4194 160.4198 160.4198 160.9153 160.9173
   163.8448 163.8448 163.8450 163.8450 166.6303 166.6303 166.6307 166.6307
   167.1280 167.1281 167.9654 167.9654 167.9655 167.9655 171.0466 171.0466
   171.0468 171.0468 171.6032 171.6032 171.6033 171.6033 171.6424 171.6434
   173.2800 173.2806 173.8587 173.8593 176.4839 176.4839 179.7850 179.7850
   179.7851 179.7851 187.3425 187.3425 187.3425 187.3425 189.1185 189.1197
   191.8339 191.8344 195.3885 195.3885 195.3886 195.3886 196.3231 196.3231
   196.3233 196.3233 196.7500 196.7500 196.7507 196.7507 197.3643 197.3645
   197.4552 197.4552 197.4557 197.4557 197.4968 197.4969 198.3980 198.3983
   201.1099 201.1099 204.3875 204.3875 204.3876 204.3876 206.1641 206.1641
   206.1646 206.1646 210.2548 210.2551 210.8275 210.8275 210.8278 210.8278
   211.3588 211.3588 211.3588 211.3588 211.7182 211.7186 212.4780 212.4780
   216.4443 216.4460 217.8692 217.8696 220.8299 220.8315 221.4258 221.4258
   221.4258 221.4258 222.6504 222.6504 222.6505 222.6505 223.6841 223.6842
   224.6441 224.6441 224.6442 224.6442 224.6845 224.6847 225.8835 225.8835
   225.8839 225.8839 226.6089 226.6089 226.6090 226.6090 226.9005 226.9007
   227.0053 227.0059 227.1184 227.1184 227.1186 227.1186 227.5961 227.5976
   228.0894 228.0894 228.0895 228.0895 230.1713 230.1719 231.5055 231.5055
   231.5059 231.5059 231.5898 231.5898 231.5899 231.5899 232.1875 232.1875
   232.1882 232.1882 232.3046 232.3046 232.5912 232.5915 232.9897 232.9904
   233.8308 233.8308 233.8309 233.8309 235.3307 235.3307 235.3308 235.3308
   235.6381 235.6381 236.7631 236.7632 242.5093 242.5093 242.5095 242.5095
   244.4635 244.4642 244.8787 244.8787 244.8789 244.8789 246.5198 246.5199
   247.1260 247.1260 247.1261 247.1261 247.4366 247.4383 248.9758 248.9770
   249.7871 249.7871 249.7873 249.7873 250.1936 250.1936 251.2627 251.2627
   251.2627 251.2627 254.7869 254.7880 255.5587 255.5587 255.5588 255.5588
   256.2634 256.2634 256.2637 256.2637 259.8892 259.8896 261.3148 261.3148
   261.3152 261.3152 261.3716 261.3717 262.4256 262.4256 262.4258 262.4258
   263.6208 263.6208 263.6209 263.6209 264.9529 264.9532 265.5404 265.5404
   265.5405 265.5405 266.1869 266.1870 266.3521 266.3521 267.0868 267.0868
   267.0870 267.0870 268.7219 268.7219 268.7223 268.7223 268.9984 268.9986
   269.7548 269.7548 269.7550 269.7550 269.9032 269.9034 270.1991 270.1996
   270.6364 270.6364 270.6367 270.6367 272.5337 272.5337 272.5348 272.5348
   273.0547 273.0560 273.5319 273.5320 277.7623 277.7651 284.3636 284.3639
   286.6570 286.6570 286.6575 286.6575 287.4224 287.4224 287.4227 287.4227
   287.5246 287.5254 288.3475 288.3477 288.6955 288.6955 288.6957 288.6957
   290.3414 290.3414 290.3417 290.3417 291.1965 291.1966 292.9328 292.9328
   292.9332 292.9332 293.1623 293.1632 294.9006 294.9006 294.9009 294.9009
   295.2894 295.2895 296.0601 296.0613 296.0986 296.0986 296.0986 296.0986
   296.9531 296.9531 296.9532 296.9532 297.1353 297.1354 298.1684 298.1684
   298.1688 298.1688 299.6613 299.6617 302.8711 302.8720 303.0009 303.0009
   303.0010 303.0010 303.9116 303.9135 305.2025 305.2025 305.2030 305.2030
   305.4862 305.4862 306.7798 306.7798 306.7804 306.7804 309.2205 309.2205
   309.2205 309.2205 310.9860 310.9860 310.9860 310.9860 311.0121 311.0122
   311.5746 311.5746 312.6045 312.6065 314.4157 314.4157 314.4162 314.4162
   317.5931 317.5931 317.5946 317.5946 317.8972 317.8972 317.8975 317.8975
   318.5046 318.5064 318.8436 318.8437 319.7475 319.7475 319.7475 319.7475
   321.4082 321.4086 322.5224 322.5224 322.5231 322.5231 324.6147 324.6156
   324.9921 324.9921 324.9925 324.9925 325.6029 325.6030 327.2151 327.2155
   330.1638 330.1638 330.1640 330.1640 330.8789 330.8789 330.9577 330.9577
   330.9578 330.9578 332.2361 332.2371 340.1363 340.1422 342.2662 342.2662
   342.2668 342.2668 345.5864 345.5864 345.5865 345.5865 348.5768 348.5768
   348.5771 348.5771 348.8843 348.8860 351.9644 351.9660 353.2064 353.2064
   353.2073 353.2073 353.3369 353.3381 353.9134 353.9140 355.8293 355.8293
   355.8294 355.8294 356.2122 356.2122 356.2123 356.2123 356.6302 356.6306
   357.6503 357.6504 357.9570 357.9570 357.9573 357.9573 359.1970 359.1970
   359.1978 359.1978 359.6589 359.6607 359.7540 359.7540 360.1871 360.1871
   360.1873 360.1873 360.7647 360.7647 360.7651 360.7651 360.8433 360.8438
   361.1383 361.1383 361.1386 361.1386 361.4725 361.4725 362.4905 362.4911
   362.5575 362.5576 362.5578 362.5578 365.0365 365.0365 365.0371 365.0371
   368.1927 368.1927 368.1940 368.1940 369.4461 369.4469 369.6620 369.6638
   373.4983 373.4983 373.4983 373.4983 381.3034 381.3037 382.8174 382.8174
   382.8175 382.8175 383.1541 383.1541 383.1542 383.1542 383.2473 383.2475
   383.6347 383.6347 383.6348 383.6348 384.4855 384.4856 385.3242 385.3247
   385.4371 385.4371 385.4372 385.4372 387.2005 387.2015 387.3833 387.3840
   389.8016 389.8016 389.8017 389.8017 391.3582 391.3582 391.6261 391.6264
   391.6976 391.6976 391.6976 391.6976 392.4246 392.4246 392.4252 392.4252
   393.0611 393.0611 393.0611 393.0611 394.2282 394.2283 395.1654 395.1654
   395.1658 395.1658 396.1093 396.1093 397.3985 397.3990 398.0289 398.0289
   398.0289 398.0289 398.7117 398.7121 399.6471 399.6496 399.9653 399.9653
   399.9654 399.9654 400.0715 400.0721 400.1050 400.1050 400.1053 400.1053
   400.6252 400.6253 400.6652 400.6652 400.6666 400.6666 400.9839 400.9839
   400.9841 400.9841 401.3379 401.3379 401.3379 401.3379 401.3384 401.3384
   401.5810 401.5812 405.1843 405.1843 405.1845 405.1845 406.1475 406.1475
   406.1476 406.1476 406.2433 406.2435 407.2120 407.2132 411.0702 411.0735
   413.8637 413.8641 414.0964 414.0964 414.0965 414.0965 414.5877 414.5890
   414.6893 414.6893 414.6895 414.6895 415.7699 415.7701 416.1401 416.1401
   416.1403 416.1403 416.1998 416.2019 416.5213 416.5213 416.5215 416.5215
   416.6568 416.6570 417.4624 417.4624 417.4626 417.4626 419.6606 419.6606
   419.6611 419.6611 420.7187 420.7187 420.7191 420.7191 421.1165 421.1167
   421.8220 421.8220 421.8220 421.8220 421.8551 421.8557 422.3714 422.3714
   422.3715 422.3715 422.6433 422.6433 422.6437 422.6437 423.0094 423.0094
   423.0572 423.0575 423.1821 423.1821 423.1824 423.1824 423.7452 423.7453
   423.8374 423.8374 423.8374 423.8374 424.1121 424.1121 424.1143 424.1143
   424.3152 424.3152 424.3153 424.3153 424.5083 424.5083 424.9011 424.9011
   425.0816 425.0831 426.7989 426.7989 426.7990 426.7990 427.2874 427.2874
   427.2875 427.2875 427.3850 427.3851 427.7218 427.7223 433.8955 433.8955
   433.8956 433.8956 436.5509 436.5539 436.8346 436.8346 436.8346 436.8346
   437.9665 437.9672 438.4792 438.4794 438.6376 438.6376 438.6376 438.6376
   438.8839 438.8885 439.0081 439.0081 439.0083 439.0083 439.2423 439.2425
   439.5584 439.5584 439.5591 439.5591 441.4805 441.4805 441.4810 441.4810
   442.8128 442.8136 444.9962 444.9967 445.3097 445.3097 445.3099 445.3099
   446.5561 446.5561 446.5562 446.5562 446.8310 446.8314 450.5027 450.5027
   450.5031 450.5031 450.8589 450.8604 451.4328 451.4328 451.4328 451.4328
   451.4655 451.4658 452.5210 452.5225 453.0143 453.0144 454.0895 454.0895
   454.0904 454.0904 455.0096 455.0096 455.0107 455.0107 455.5482 455.5482
   455.5485 455.5485 455.8026 455.8029 455.9721 455.9721 455.9721 455.9721
   456.2047 456.2067 458.2998 458.3007 458.4048 458.4049 458.5643 458.5643
   458.5643 458.5643 459.0982 459.0982 459.0984 459.0984 459.3151 459.3153
   460.9314 460.9314 460.9317 460.9317 461.6929 461.6944 461.7583 461.7583
   461.7588 461.7588 462.4898 462.4916 474.7623 474.7624 476.9086 476.9086
   476.9088 476.9088 478.2348 478.2390 479.8382 479.8382 479.8389 479.8389
   480.1135 480.1142 480.7082 480.7082 480.7085 480.7085 480.9422 480.9428
   481.6995 481.6995 481.6997 481.6997 481.8605 481.8617 481.8879 481.8879
   481.8890 481.8890 482.2875 482.2882 483.5634 483.5635 483.8116 483.8116
   483.8117 483.8117 484.3094 484.3094 484.3097 484.3097 484.5150 484.5155
   484.5420 484.5420 484.5428 484.5428 485.2816 485.2816 485.2822 485.2822
   485.7764 485.7796 486.7531 486.7531 486.7535 486.7536 487.7514 487.7514
   487.7515 487.7515 488.3568 488.3594 488.9444 488.9444 488.9458 488.9458
   489.0507 489.0529 489.7837 489.7838 490.3375 490.3375 490.3376 490.3376
   492.0483 492.0483 492.0484 492.0484 493.2712 493.2723 494.1658 494.1682
   496.1159 496.1166 496.8056 496.8056 496.8065 496.8065 497.7234 497.7234
   497.7235 497.7235 498.0295 498.0302 505.4317 505.4317 505.4318 505.4318
   505.8180 505.8222 506.9726 506.9726 506.9732 506.9732 507.2438 507.2447
   509.7056 509.7066 509.9115 509.9115 509.9115 509.9115 510.3416 510.3416
   510.3417 510.3417 510.5046 510.5047 511.0368 511.0368 511.0369 511.0369
   511.8716 511.8728 512.0920 512.0920 512.0921 512.0921 512.7638 512.7639
   513.7100 513.7103 513.7698 513.7704 514.0402 514.0402 514.0406 514.0406
   514.6175 514.6175 514.6179 514.6179 514.8337 514.8342 515.2538 515.2538
   515.2563 515.2563 516.1671 516.1671 516.1679 516.1679 516.2077 516.2082
   516.4861 516.4861 516.4866 516.4867 516.4869 516.4869 516.6504 516.6504
   516.6508 516.6508 517.4002 517.4013 519.3116 519.3116 519.3117 519.3117
   519.3972 519.3972 519.3972 519.3972 519.5669 519.5669 519.9414 519.9414
   524.0537 524.0562 532.2718 532.2718 532.2723 532.2723 533.0253 533.0253

          k = 0.0000 0.2887 0.0000 (  2400 PWs)   bands (ev):

   -13.2490 -13.1774  -1.8849  -1.8761  -0.8375   0.0232   0.2239   0.2374
     9.7419  11.4478  12.4601  13.6694  14.3341  16.1442  17.2394  19.1428
    19.1808  20.1329  22.4673  23.3574  25.4258  27.0811  27.4880  30.0396
    31.0335  31.4240  31.8854  32.6335  32.8932  35.0047  37.8051  38.1944
    38.3566  39.8068  40.3667  42.2434  42.5064  44.6779  45.6207  46.1295
    46.3012  47.2607  47.8043  48.4120  49.2088  50.5364  51.2178  51.2800
    51.3120  53.4179  54.3210  56.7706  58.1515  58.1538  58.5656  59.0611
    59.3341  59.6244  60.4163  60.4465  62.9284  66.2315  67.3209  68.2216
    68.3535  69.2323  69.7388  71.2068  71.8731  74.7676  75.2065  75.2522
    76.2275  76.7834  77.1684  78.2810  78.4148  78.8950  79.4804  79.6892
    81.5747  81.6398  82.0541  82.7628  82.9102  84.8083  86.5081  86.6495
    86.8004  87.4258  87.4414  88.4235  89.5586  91.3420  92.3692  92.6116
    93.3252  94.1023  96.2294  97.3266  97.3968  98.2331  98.6798  99.0352
    99.2937  99.8107 100.4323 100.7759 100.8372 101.1933 102.7355 102.7587
   103.1968 104.8749 105.0013 105.8969 106.0599 106.0874 107.7048 107.8030
   107.8911 109.6567 110.4976 110.6522 111.4213 112.0650 112.6274 112.7504
   112.9227 113.2160 114.8122 115.6118 115.7919 116.3934 116.4314 116.7729
   117.5061 118.6355 118.9516 119.1758 120.4741 121.0546 121.4975 122.4997
   123.0630 123.0847 124.1823 124.5167 124.8901 125.3883 125.5256 126.9474
   127.3671 127.4177 128.1383 128.5064 129.1366 129.2881 129.3899 129.8444
   131.1326 131.3874 131.5879 131.7035 132.0491 132.1429 132.2734 133.5636
   133.9615 134.2201 136.1760 136.2596 138.0393 138.6454 138.8183 138.9400
   140.8021 140.8228 141.4579 142.3004 143.2868 144.2109 144.3697 144.9969
   146.1501 146.6146 146.6272 146.9405 148.8167 149.6544 150.1346 150.1713
   150.2064 150.7263 151.4613 152.2037 153.1160 153.2791 153.2813 153.9077
   154.4202 154.5538 155.4799 156.1434 156.3555 157.0655 157.2512 157.7779
   157.9495 158.6061 159.7597 159.7801 160.9149 161.0439 161.5843 161.6173
   162.2156 162.6495 162.7109 162.9190 162.9377 164.8402 165.5793 165.6605
   167.0218 168.5295 168.7751 169.6808 169.7195 170.8588 171.0989 172.8035
   172.9036 173.7129 174.4287 175.1540 176.4604 177.0771 177.5199 178.2584
   178.5346 178.8322 179.1592 179.3508 179.8568 179.9377 180.3738 181.0324
   181.4802 181.5786 181.8857 182.2177 182.3006 183.2828 184.5849 184.9652
   186.3327 186.7335 186.7836 187.6019 188.5978 188.7283 190.1205 190.6057
   190.7875 191.1901 191.5627 192.6360 193.1694 193.9996 194.1357 195.1750
   195.6629 195.9589 196.1048 196.3001 196.8433 196.9058 197.1286 197.4606
   197.4804 198.1054 198.3617 198.5566 198.5963 199.4399 199.6883 200.2984
   200.5729 200.8786 201.0446 201.2056 201.4618 202.1150 202.7124 202.9701
   203.1634 204.5612 205.9549 206.2240 206.4593 207.8341 207.8502 207.9218
   209.6315 209.8294 209.9577 210.1605 211.4411 211.8982 212.2585 213.5402
   214.5228 214.8820 215.4338 215.5777 216.2579 216.9195 216.9684 217.4984
   217.5165 217.6087 217.8673 218.9380 219.2084 219.2645 219.6794 221.4140
   221.5222 221.8229 222.1392 222.3550 223.1408 223.7864 224.3963 224.9332
   226.1296 226.3228 226.7083 226.9726 227.8091 227.8283 228.2452 228.5217
   228.7213 228.7547 229.2437 229.5648 229.7877 230.4200 230.7884 230.9970
   232.1355 232.3710 232.6887 232.6981 232.9985 233.1626 234.8241 235.0552
   235.0949 235.1115 235.4982 236.2908 236.4213 237.0901 237.9444 238.1440
   238.4300 238.4639 238.5526 239.9192 240.5305 240.9600 241.2298 241.2728
   241.3305 241.4083 241.5825 241.9045 241.9717 242.1702 243.3038 244.4325
   244.4451 245.0848 246.4216 246.4289 247.7470 247.9175 248.6195 248.9832
   249.1114 249.1382 249.2222 249.2392 249.5349 249.6470 249.9233 250.1890
   250.2618 250.4408 250.7032 250.8566 251.2877 251.3177 251.8886 251.9178
   252.8367 253.4383 254.6950 256.5081 256.9775 256.9885 257.0908 257.5510
   257.7263 259.1038 259.3890 260.2416 260.2967 261.8944 262.0611 262.3497
   263.7070 264.2187 264.3436 264.5173 264.7279 265.1648 265.1972 266.0238
   266.0440 266.2284 266.2823 266.4607 266.7769 266.8405 267.0329 267.8321
   267.9610 268.1572 268.4012 269.1071 269.3034 269.7981 270.0846 270.1058
   270.1271 270.5763 270.6433 270.7309 271.6314 272.0566 272.0713 272.1973
   272.2206 272.5128 272.6611 272.6845 272.8253 272.9423 273.2326 273.2958
   273.3301 273.4945 273.9275 274.5400 274.7996 276.2593 276.8959 276.9965
   276.9971 277.2070 277.2956 277.5037 277.5476 278.6692 278.9803 279.2749
   280.5821 281.4039 281.7262 281.9588 282.4333 282.6613 282.7412 285.2006
   286.0341 286.3070 287.0567 288.1569 288.3448 288.4149 288.8383 288.9743
   289.3656 289.4702 289.9165 290.2251 290.9555 291.1441 291.2260 291.4871
   294.1690 294.2330 294.5680 294.7634 295.2092 295.5230 296.2108 296.4120
   297.0859 297.3610 297.3838 297.6247 298.0561 298.8397 299.1615 299.2663
   299.8449 299.8572 299.8818 299.9758 300.4523 300.9320 301.1038 301.2239
   301.5334 301.8472 301.8569 301.9150 302.0030 302.5252 305.1860 305.8919
   307.0738 308.2263 308.8354 309.2328 309.3399 309.7284 311.0836 311.5007
   311.5425 311.8436 311.9237 312.1753 312.2893 313.1098 313.1459 313.6159
   313.6562 314.3918 315.0379 315.0791 315.2608 315.3291 315.6005 316.1581
   316.2168 316.4739 317.2045 317.4160 317.4332 317.5757 319.1343 319.2883
   319.3550 319.6684 319.8125 320.1386 320.2467 320.3452 320.3759 320.4107
   320.7371 320.8024 322.0947 322.3395 322.5232 323.2558 323.3673 323.9385
   324.4722 325.4637 325.9039 325.9538 327.7263 328.6482 329.0881 329.2876
   330.6208 331.6762 331.7146 331.8669 332.4318 333.2536 335.0327 335.0871
   336.1733 336.5941 336.6950 336.7210 337.0781 337.4411 337.8441 338.7348
   338.9279 339.2335 339.3661 339.8542 339.9707 340.0416 340.1186 340.2213
   340.5965 340.7438 342.1816 342.3455 342.7458 342.9623 342.9777 343.2697
   343.6238 343.8097 343.9998 344.0625 344.2040 344.4158 344.5290 345.1648
   345.5096 345.6556 345.9199 346.0902 346.3675 346.4464 346.5110 347.6544
   347.7577 347.7595 348.0595 348.4324 349.0811 349.0976 349.5878 349.6430
   349.6561 349.7692 350.0130 350.0261 350.7588 350.9303 351.5392 351.6086
   352.5423 352.8543 352.9509 353.5982 354.7244 355.5666 355.8859 356.1939
   356.2217 357.0525 357.0669 357.1644 358.1853 358.3269 358.6541 358.9900
   359.2658 359.6401 360.1802 360.2474 361.6720 361.7488 363.7803 364.0394
   364.4165 364.7192 365.3230 365.4180 367.0918 367.3032 367.4152 367.5984
   367.8264 367.8996 368.1183 368.4030 368.7323 369.1175 369.1815 369.3635
   369.5671 369.8393 370.2118 370.9561 371.2226 371.3525 371.7838 371.9930
   372.0781 372.3582 372.8892 372.9166 373.1772 373.1880 374.6530 374.8980
   375.7541 376.4676 376.5284 376.7657 377.4680 377.7112 377.7327 378.2773
   378.7425 378.9073 379.2408 379.4512 379.6453 380.2760 380.4250 380.7028
   381.0701 381.2647 381.5002 382.6780 382.7609 382.9486 382.9499 383.4490
   383.4968 383.7734 383.8810 383.9231 384.1639 384.4125 384.4974 384.5639
   385.6895 385.7906 386.7957 387.2510 387.6131 388.8460 388.9561 389.3451
   389.5754 389.8275 390.1798 390.6671 390.8925 390.9520 391.0130 391.2242
   391.3769 391.4016 391.4382 391.6575 391.7984 392.3864 393.3317 393.5761
   393.8768 393.9683 393.9810 394.1780 394.2110 394.2825 394.5977 394.6755
   394.9341 395.3283 395.7795 395.8108 396.2639 396.6076 396.6644 397.0659
   397.2441 397.5211 398.1111 398.2488 399.1058 399.2018 400.5428 400.6853
   400.7266 401.6794 401.7917 402.6828 402.8914 403.4438 403.9369 404.3381
   404.7774 405.7613 406.4309 406.4976 406.8792 407.9214 408.3646 408.5158
   408.6332 409.0233 409.0274 409.2064 409.6196 410.2021 410.5739 410.7513
   410.9741 411.1059 411.2829 411.6658 411.8341 412.0031 412.9857 413.2979
   414.2485 414.7856 415.0671 415.1900 415.1974 415.6267 415.7418 415.8192
   416.1343 416.1581 416.4261 416.4840 416.5854 416.9210 417.0896 417.1302
   417.2454 417.8496 417.9129 418.4244 418.4395 418.4916 420.1899 420.5234
   420.5352 420.5479 420.5834 420.6076 420.9826 421.1016 421.1141 421.4139
   421.6890 422.1502 422.4389 424.9994 425.1669 425.6671 425.9028 425.9813
   427.2881 427.3297 427.6415 428.6447 429.0687 429.7299 429.8320 429.9413
   430.4170 430.8127 430.9249 431.0901 431.5208 431.6046 431.7218 431.9094
   432.0764 432.1363 432.2388 432.4371 432.4658 432.4970 432.9661 433.1902
   433.2272 434.2076 434.2827 434.3392 434.7483 435.0343 435.0697 435.4410
   435.5009 435.7858 437.0100 437.6165 438.0997 438.3605 438.5709 438.8743
   438.8913 439.1211 439.3670 439.4516 439.5223 439.5923 439.7671 439.7779
   440.7602 441.3659 442.2204 442.3379 443.1692 443.5388 444.1250 444.9247
   444.9741 445.0014 446.4006 446.5879 447.1960 447.2100 447.5338 447.5733
   447.6435 447.7378 447.7838 448.1575 448.3302 448.4985 448.5795 449.4121
   450.2272 450.8165 451.3451 451.3690 451.4414 451.8459 452.0656 452.3005
   452.3382 452.5866 453.4100 453.4241 453.5596 454.0284 454.0408 454.0657
   454.0999 454.6214 454.6502 455.1338 455.5624 455.8129 455.9779 456.4276
   456.4867 456.6100 456.8063 457.5630 457.8673 457.8704 458.1083 458.2983
   458.3336 458.7005 459.3323 459.5053 460.2042 460.2868 460.5929 460.8287
   460.9299 461.3674 461.6946 461.7944 461.8348 461.9389 462.2669 462.3673
   462.4193 462.9094 462.9313 463.3339 463.5322 463.5805 463.7137 463.7271
   463.7902 463.8386 463.9579 464.0229 464.2703 464.5899 464.8326 464.8817
   464.9681 466.2275 466.3478 466.3519 466.8389 467.1707 467.9902 468.0762
   468.2226 468.5183 470.0382 471.0339 471.0424 471.0607 471.1155 471.2665
   471.3777 471.5415 471.8238 472.0171 472.1376 472.8429 473.5598 473.8695
   474.7139 474.7594 475.7420 476.7316 477.3879 477.5778 477.6438 477.9699
   478.0165 478.7894 478.9003 478.9380 479.3453 479.5056 479.7494 479.9605
   480.1163 480.7344 480.8459 481.5200 481.7172 481.8622 482.7174 483.6854
   483.6984 484.0043 484.0513 484.2451 484.8159 485.0373 485.3260 485.4988
   485.6500 485.9519 486.3190 486.4506 486.5169 486.5465 487.2989 487.3667
   487.8436 487.9066 488.5414 488.5573 488.6418 488.8672 488.9464 489.3601
   489.4150 489.5339 489.5813 489.8002 490.0226 490.0993 490.1471 490.6362
   490.7309 490.8368 491.1671 491.6048 491.6665 491.9692 492.5791 492.7363
   494.3799 494.8668 495.0095 495.4417 495.8128 496.1200 496.1737 496.2232
   496.2349 498.1807 498.2842 499.3932 499.4691 499.6997 500.1802 500.3566
   502.3493 502.7212 502.8980 503.3579 503.6237 503.6642 503.9929 504.1421
   504.6576 505.6280 505.7238 505.7525 508.0258 508.0820 508.0867 508.2033
   508.4170 508.7165 509.1773 509.2996 509.8413 510.1496 510.2027 510.8753
   510.9153 511.3203 511.4000 511.5343 511.9041 512.1399 512.1512 512.6367
   512.7222 512.8831 512.9200 512.9741 514.0252 514.0690 514.1083 514.1626
   514.4981 514.8606 514.8985 515.0417 515.2377 515.2632 515.3693 515.4663
   515.5043 515.5571 515.6075 515.6136 515.7797 515.9106 516.5981 516.7880
   517.1560 517.4982 517.5112 517.8192 517.9705 518.1270 518.1405 518.1529
   518.4772 518.5105 518.5771 519.2404 521.3925 521.7558 523.9345 524.0088
   525.4294 525.5306 527.8922 528.2344 528.3743 528.8785 529.3913 529.4461
   529.9702 530.0440 530.2296 530.4181 530.7936 530.9821 531.2023 531.4670
   531.6719 531.7580 532.0354 532.0815 532.1711 532.9678 533.0331 533.0333

          k = 0.0000 0.2887-0.1630 (  2382 PWs)   bands (ev):

   -13.2135 -13.2135  -1.8832  -1.8832  -0.4305  -0.4305   0.2310   0.2310
    10.7377  10.7387  13.0390  13.0398  14.4593  14.4595  19.1617  19.1617
    19.4178  19.4178  22.9269  22.9272  26.6779  26.6782  28.3734  28.3735
    30.4527  30.4530  31.8133  31.8137  35.9261  35.9264  36.1054  36.1054
    39.2060  39.2062  43.1125  43.1129  44.3587  44.3589  44.6119  44.6122
    46.2707  46.2709  48.7201  48.7203  50.7978  50.7981  51.0790  51.0792
    52.6268  52.6270  53.4942  53.4944  54.2824  54.2824  59.0482  59.0485
    61.3648  61.3652  65.5270  65.5270  65.5602  65.5603  66.1097  66.1098
    68.4867  68.4869  71.1963  71.1967  71.4102  71.4104  74.1533  74.1534
    74.9511  74.9513  76.3833  76.3834  77.7118  77.7121  81.5237  81.5237
    82.6498  82.6506  83.7078  83.7079  84.6657  84.6659  85.9642  85.9642
    87.7023  87.7030  88.4690  88.4690  88.8558  88.8559  93.0515  93.0517
    95.4721  95.4722  97.5112  97.5117  97.9604  97.9607  98.9496  98.9497
    99.0642  99.0643 100.0980 100.0980 100.7239 100.7241 100.8519 100.8521
   102.2519 102.2519 104.5847 104.5850 106.4838 106.4844 108.1498 108.1500
   108.4499 108.4501 109.9948 109.9950 111.5662 111.5663 114.2384 114.2387
   115.0467 115.0467 115.4714 115.4715 117.2285 117.2288 117.9204 117.9206
   118.8202 118.8202 119.4060 119.4066 120.7744 120.7745 122.0228 122.0229
   122.4715 122.4716 123.7629 123.7630 124.1499 124.1500 124.1797 124.1798
   125.5142 125.5144 126.4295 126.4297 127.0818 127.0820 128.2457 128.2462
   130.6235 130.6242 132.5365 132.5366 134.7420 134.7424 136.6787 136.6791
   136.7693 136.7694 138.6943 138.6944 139.4054 139.4055 140.4409 140.4411
   140.9231 140.9235 142.4675 142.4676 143.3460 143.3461 143.9892 143.9894
   144.0754 144.0755 145.8581 145.8582 146.9333 146.9336 147.4018 147.4018
   148.3258 148.3260 149.2039 149.2041 151.4007 151.4010 152.6116 152.6117
   155.3334 155.3334 156.7633 156.7636 157.8243 157.8246 158.6274 158.6277
   159.6019 159.6021 160.9748 160.9750 161.7823 161.7827 162.9138 162.9141
   164.3539 164.3544 164.8430 164.8432 165.6468 165.6470 166.7361 166.7362
   167.3424 167.3426 169.3126 169.3128 170.4478 170.4485 171.6189 171.6192
   172.3335 172.3336 172.8879 172.8884 175.3811 175.3813 175.4885 175.4891
   176.4213 176.4218 178.0535 178.0538 178.9417 178.9424 181.1414 181.1420
   181.8078 181.8080 184.0036 184.0037 185.3285 185.3293 185.9355 185.9356
   185.9574 185.9575 187.3850 187.3851 189.3396 189.3400 190.7378 190.7385
   191.2066 191.2070 191.5143 191.5147 191.8358 191.8358 193.5733 193.5739
   194.2792 194.2794 194.9471 194.9472 195.1647 195.1649 196.6153 196.6154
   196.6971 196.6978 198.0408 198.0409 199.7580 199.7580 201.7091 201.7100
   201.8598 201.8602 203.3737 203.3741 203.4166 203.4167 203.8836 203.8843
   205.3132 205.3136 206.2366 206.2371 207.8237 207.8239 209.5678 209.5681
   210.3012 210.3013 211.2121 211.2124 213.3101 213.3102 213.4772 213.4774
   213.9544 213.9546 214.3254 214.3256 214.9726 214.9729 217.3859 217.3859
   217.7691 217.7693 218.3989 218.3992 218.7957 218.7963 218.9890 218.9891
   219.8090 219.8092 220.3982 220.3987 222.2631 222.2634 224.1896 224.1897
   224.7622 224.7625 225.9146 225.9147 226.7629 226.7631 227.6559 227.6564
   228.2764 228.2766 229.6067 229.6069 230.6310 230.6313 231.1593 231.1595
   231.9602 231.9610 232.8430 232.8430 234.3148 234.3150 234.5178 234.5178
   234.9797 234.9801 236.1444 236.1448 236.1672 236.1674 238.9781 238.9785
   239.5030 239.5030 240.1493 240.1497 241.1416 241.1417 242.0935 242.0936
   242.4516 242.4517 243.4725 243.4728 244.0175 244.0176 244.6839 244.6843
   245.0452 245.0453 245.7537 245.7538 246.1695 246.1696 248.1462 248.1466
   249.6600 249.6607 250.0904 250.0910 250.2495 250.2499 250.5628 250.5631
   250.8929 250.8936 251.3968 251.3975 253.0161 253.0164 255.0195 255.0204
   255.1418 255.1419 256.0984 256.0986 256.4080 256.4084 257.3321 257.3324
   258.4306 258.4307 258.5433 258.5434 259.3297 259.3300 259.9446 259.9447
   260.0360 260.0363 261.2468 261.2471 262.3181 262.3183 263.6248 263.6257
   264.2301 264.2303 265.4165 265.4168 265.5456 265.5458 266.0765 266.0767
   266.5554 266.5556 266.7371 266.7372 267.1658 267.1659 267.5974 267.5976
   269.4681 269.4685 270.5925 270.5929 271.6208 271.6214 272.8385 272.8389
   274.0076 274.0079 274.5666 274.5674 274.6033 274.6037 275.5832 275.5838
   275.8843 275.8844 276.7742 276.7744 277.3691 277.3695 277.9711 277.9713
   278.6110 278.6111 280.4196 280.4201 280.5604 280.5605 282.3625 282.3630
   283.6050 283.6053 284.4782 284.4786 284.6326 284.6328 285.0981 285.0989
   286.3730 286.3734 287.6669 287.6669 288.2457 288.2462 288.3482 288.3483
   288.9579 288.9585 289.7961 289.7962 290.3694 290.3701 290.7238 290.7242
   291.0871 291.0872 292.4004 292.4005 293.3047 293.3051 294.0761 294.0766
   295.6611 295.6614 295.8304 295.8304 296.3946 296.3953 297.5181 297.5186
   297.7102 297.7111 298.7755 298.7760 299.1381 299.1387 300.2597 300.2598
   301.4949 301.4951 302.1142 302.1142 305.0604 305.0608 307.0037 307.0038
   307.6075 307.6080 308.3725 308.3728 310.0070 310.0079 310.2035 310.2036
   311.8489 311.8490 312.7174 312.7175 313.7886 313.7887 313.7897 313.7901
   314.1906 314.1907 314.5745 314.5750 315.6232 315.6235 315.9575 315.9578
   316.9921 316.9925 317.7256 317.7262 319.3866 319.3875 319.9927 319.9929
   321.0767 321.0770 321.1627 321.1634 321.7391 321.7395 322.3661 322.3662
   322.7699 322.7700 323.6275 323.6276 324.0359 324.0370 324.9209 324.9211
   327.0677 327.0678 327.3195 327.3200 328.2132 328.2135 329.9007 329.9014
   330.6245 330.6248 331.4623 331.4625 332.8477 332.8478 333.1310 333.1313
   334.5631 334.5632 334.5645 334.5648 335.4338 335.4339 335.6188 335.6195
   336.3655 336.3656 336.8148 336.8150 337.0081 337.0084 337.6686 337.6687
   337.9288 337.9290 338.2726 338.2729 339.4619 339.4623 341.1418 341.1426
   342.5059 342.5060 343.3503 343.3507 343.4735 343.4736 344.0158 344.0170
   345.0891 345.0892 345.7686 345.7687 346.3439 346.3443 347.0032 347.0038
   348.7522 348.7523 349.9721 349.9729 351.0539 351.0540 352.6116 352.6119
   353.3552 353.3553 354.3734 354.3736 354.4840 354.4846 355.0567 355.0578
   356.0201 356.0203 356.6893 356.6895 358.1603 358.1607 359.0965 359.0966
   359.2679 359.2681 359.9301 359.9303 360.1680 360.1682 360.8917 360.8923
   361.6109 361.6111 362.1371 362.1372 362.5301 362.5304 362.9985 362.9988
   363.2155 363.2164 363.3528 363.3529 364.2865 364.2868 365.7118 365.7120
   366.0764 366.0773 367.3240 367.3247 368.1050 368.1050 368.4249 368.4256
   368.7261 368.7269 368.7482 368.7483 369.0315 369.0318 369.4999 369.4999
   370.4347 370.4350 371.1637 371.1639 371.2112 371.2117 371.3183 371.3191
   374.5755 374.5760 376.6669 376.6670 377.1090 377.1092 377.5641 377.5641
   377.6910 377.6911 378.9004 378.9005 380.1002 380.1003 380.1141 380.1143
   381.0080 381.0081 381.2581 381.2585 381.8544 381.8549 382.5059 382.5065
   382.9165 382.9169 384.6097 384.6100 384.7537 384.7543 385.2353 385.2355
   385.3753 385.3756 385.3876 385.3877 386.6598 386.6599 386.8429 386.8430
   387.3611 387.3620 390.6687 390.6694 390.8563 390.8564 391.4650 391.4652
   391.8742 391.8755 392.2875 392.2881 393.4748 393.4753 393.8922 393.8925
   394.0351 394.0353 395.4113 395.4113 396.7860 396.7866 397.5390 397.5407
   398.7573 398.7577 399.5829 399.5833 399.6988 399.6989 400.9365 400.9368
   401.4134 401.4136 401.5861 401.5863 401.7199 401.7203 402.0256 402.0261
   402.1318 402.1327 403.4330 403.4331 403.7818 403.7822 404.7734 404.7737
   405.2016 405.2022 405.6144 405.6144 405.8057 405.8058 406.3438 406.3438
   406.8048 406.8052 407.0295 407.0296 408.0345 408.0346 408.4021 408.4021
   409.1198 409.1206 409.5670 409.5671 410.2749 410.2751 411.3270 411.3271
   411.6756 411.6768 412.3972 412.3973 412.6426 412.6430 413.2881 413.2887
   414.5984 414.5992 414.8195 414.8201 415.1934 415.1940 416.3966 416.3972
   417.3501 417.3503 417.5373 417.5373 419.5391 419.5392 419.8088 419.8094
   422.4022 422.4035 423.5072 423.5077 423.5473 423.5476 423.9410 423.9414
   424.3479 424.3480 425.2909 425.2912 427.1268 427.1269 427.1561 427.1572
   428.0007 428.0016 428.8700 428.8703 430.3371 430.3375 430.6388 430.6391
   430.8130 430.8132 431.8721 431.8724 432.2672 432.2674 432.7756 432.7757
   433.1220 433.1222 433.1394 433.1397 433.4234 433.4237 433.9320 433.9326
   434.1899 434.1902 434.5122 434.5126 435.0440 435.0444 435.2797 435.2804
   436.4388 436.4389 437.0057 437.0084 439.0353 439.0365 439.5079 439.5083
   439.5919 439.5924 440.7460 440.7463 441.1527 441.1530 441.1754 441.1757
   441.5300 441.5302 441.8522 441.8523 441.9164 441.9170 442.2848 442.2850
   442.3885 442.3889 443.6855 443.6856 443.9580 443.9586 444.5198 444.5200
   444.8007 444.8009 445.3063 445.3064 445.4708 445.4723 447.1077 447.1081
   447.2685 447.2690 449.0017 449.0020 449.8459 449.8462 451.4272 451.4296
   451.8088 451.8092 452.4753 452.4754 453.0248 453.0251 454.3312 454.3314
   454.3645 454.3646 455.0328 455.0335 455.1522 455.1533 455.9989 455.9990
   456.5061 456.5064 456.6044 456.6044 456.9149 456.9150 457.0730 457.0732
   457.2561 457.2562 457.8329 457.8330 458.2500 458.2501 458.3192 458.3197
   459.6746 459.6748 460.5092 460.5098 460.6996 460.6996 461.5461 461.5468
   461.9764 461.9769 465.1669 465.1677 465.4661 465.4662 465.5993 465.5995
   466.1138 466.1139 468.4902 468.4925 468.6529 468.6531 469.2273 469.2279
   469.7781 469.7783 470.3867 470.3871 470.4571 470.4571 471.2454 471.2460
   471.4340 471.4350 471.8507 471.8510 472.2297 472.2302 473.5168 473.5169
   474.5407 474.5408 474.6877 474.6877 474.8733 474.8735 475.0625 475.0630
   475.4780 475.4782 475.9844 475.9847 477.0961 477.0970 477.5772 477.5774
   479.4838 479.4846 479.6367 479.6368 479.6765 479.6769 480.8438 480.8440
   480.8579 480.8589 480.9734 480.9739 481.0811 481.0815 481.5347 481.5348
   482.1232 482.1245 482.6556 482.6557 483.6223 483.6232 484.2957 484.2961
   484.5950 484.5961 485.0790 485.0795 485.5589 485.5594 486.0567 486.0579
   487.0548 487.0550 487.3858 487.3863 487.4087 487.4098 487.8936 487.8939
   487.9072 487.9074 489.0448 489.0453 489.4168 489.4169 489.7472 489.7475
   491.0718 491.0724 492.6557 492.6559 494.2316 494.2320 494.5486 494.5490
   495.8436 495.8440 496.1083 496.1084 497.2440 497.2455 498.1609 498.1611
   498.8997 498.9001 499.3656 499.3657 499.5014 499.5019 500.1135 500.1136
   500.3104 500.3108 500.7108 500.7110 501.0680 501.0681 501.4327 501.4330
   501.8453 501.8467 503.0186 503.0188 503.4053 503.4056 504.0635 504.0644
   504.7029 504.7030 504.7918 504.7925 505.8679 505.8685 508.1271 508.1288
   509.3062 509.3064 509.5661 509.5663 510.3289 510.3294 510.8224 510.8226
   511.2531 511.2532 511.2547 511.2551 513.1170 513.1175 513.2908 513.2910
   513.4190 513.4197 515.7088 515.7093 516.0726 516.0727 516.7266 516.7267
   517.7358 517.7361 517.9599 517.9600 518.3627 518.3639 518.9042 518.9053
   520.1915 520.1928 521.0453 521.0454 522.8478 522.8482 522.8930 522.8931
   523.5381 523.5391 524.6311 524.6318 524.6706 524.6707 525.2842 525.2849
   525.9954 525.9958 526.7213 526.7215 526.9772 526.9781 529.1580 529.1590
   529.5988 529.5996 529.9207 529.9211 530.9028 530.9030 530.9118 530.9119
   532.1702 532.1712 532.6855 532.6859 532.8591 532.8602 533.2690 533.2698

          k = 0.0000-0.5774 0.0000 (  2392 PWs)   bands (ev):

   -11.3152 -11.2966  -5.6446  -5.6264  -0.9547  -0.9394   2.1141   2.5249
     7.7343   8.4004  12.6895  13.1764  15.4648  16.2562  17.7327  19.4715
    21.8239  22.4605  23.2934  24.6693  24.7996  25.5477  28.1336  28.2974
    28.5984  29.1160  31.0243  31.1397  32.5378  33.7741  34.0414  37.4706
    37.6995  40.4663  41.1885  41.5129  42.3680  43.4227  44.3648  45.9496
    47.2752  51.3461  53.6184  53.9906  54.2060  55.7023  55.9735  56.9870
    57.0400  57.5842  57.9180  59.6110  59.8344  60.2226  60.5724  60.9500
    61.1828  61.6868  62.2463  63.0960  63.7762  64.2175  65.3595  66.5517
    66.6733  68.7482  68.8402  69.9424  71.2313  72.7826  73.0440  73.6062
    73.7270  74.4026  74.4369  74.4997  75.2952  76.2539  76.7458  76.9085
    77.7094  79.4360  80.3411  81.2539  81.8439  82.7202  83.5916  84.1600
    85.3931  86.3249  86.6130  88.3895  88.6453  88.7898  89.4385  89.6877
    90.1081  90.5872  90.7311  90.8371  91.0418  92.0337  92.5732  92.7560
    96.5712  98.5958  99.7021 102.2299 102.2555 102.8909 103.4206 104.7718
   105.5923 105.8122 106.0110 106.1457 106.2327 106.4980 107.3376 107.3538
   107.5868 108.5087 108.9817 109.2066 109.8559 110.0045 110.2304 110.4953
   111.4726 111.7367 112.1830 112.3573 113.4941 113.6093 116.4362 116.7683
   116.7749 117.9409 118.4269 119.5897 120.4146 120.9748 121.5809 122.1865
   123.2481 123.4997 123.5018 124.7917 124.9185 125.4757 125.7829 127.2327
   127.6779 128.6037 129.6822 130.3975 130.7643 132.3239 133.8679 134.1769
   134.8149 134.8434 136.2182 138.0677 138.0757 138.1405 138.3285 138.5756
   138.8918 139.5660 140.1939 140.9808 141.1869 141.3020 141.5172 141.5315
   142.8789 143.6461 144.1251 145.7403 147.0583 147.4372 148.6286 148.6583
   149.1432 149.2416 150.0208 150.9572 152.5844 152.6729 152.7074 153.6343
   154.0526 155.3020 155.3695 155.3941 155.6169 156.1205 157.0257 157.2298
   158.4559 158.6380 158.9383 159.2355 159.6696 159.9432 160.7769 160.8596
   161.4018 161.4804 162.0800 162.7419 163.9821 165.1091 165.5497 165.7114
   165.9343 166.9055 167.2748 167.4165 167.5498 167.5857 168.3263 168.7550
   169.4352 169.8023 169.8171 170.2126 170.3424 170.5236 170.7273 170.8629
   171.2556 173.0565 173.0942 173.3303 173.5328 173.9561 174.1344 174.1555
   174.4861 175.2928 175.5803 175.9198 177.6534 178.0755 178.3835 179.0109
   179.4193 179.6116 180.2162 180.5780 181.2838 182.1507 182.8381 183.5184
   183.6526 184.3427 184.4207 184.4368 184.4751 184.8152 185.1168 185.1755
   185.7602 186.2060 186.3483 186.5920 186.5922 186.6482 186.6826 187.8698
   189.3437 189.3539 189.9466 190.0751 190.2884 190.9574 191.6170 192.0873
   196.0173 198.6467 198.8134 198.8533 199.3765 199.8972 200.0134 200.0883
   200.4619 200.9427 200.9478 201.2139 202.0196 202.7237 202.8275 202.9208
   204.3706 204.4736 204.9449 205.0263 206.1065 206.4968 206.9459 207.1977
   207.6309 207.6332 207.9716 208.2246 208.2435 208.3630 208.8693 210.4919
   211.0405 211.2216 211.5310 211.9479 212.0829 212.7480 214.0420 214.4524
   215.1169 215.6327 216.0822 216.2578 216.2922 216.3127 217.1615 217.4309
   217.6990 218.3821 219.1778 219.3774 219.7143 220.7670 221.3994 221.8290
   222.1047 222.4630 223.0620 223.2404 223.4586 223.6047 223.6303 223.7750
   223.9494 224.1818 224.6598 224.9324 224.9760 225.0938 225.2983 227.4688
   228.1402 229.3054 229.4461 229.4986 229.6984 231.0955 231.1866 231.4076
   231.6006 231.7375 233.2951 233.4949 233.8408 234.3253 235.3169 235.4069
   235.4818 235.7055 235.8950 235.9178 237.6793 239.0522 241.4730 243.4870
   244.0522 244.1579 245.6601 246.6275 247.5217 247.6642 247.7165 248.0961
   248.8218 248.8957 249.4688 249.5407 249.6876 249.7532 250.0295 250.3545
   250.7926 251.0103 251.1849 251.3611 251.6018 251.8819 251.8997 252.3808
   252.9519 253.0323 253.7966 253.8229 254.0307 254.1428 254.2523 254.4826
   254.6566 254.8576 255.0772 255.2541 255.2913 255.7101 256.0685 256.1047
   256.2852 258.6899 258.8249 258.9558 260.1615 260.2089 260.3490 260.4760
   260.6927 260.8994 261.1807 262.1355 263.2543 263.5237 263.5687 263.8263
   264.4511 265.3361 266.3354 266.8269 266.9336 267.9157 268.1533 268.7052
   268.7591 268.8795 269.8999 270.0381 270.3248 270.5726 270.7127 271.2226
   271.2407 271.2986 271.3150 271.3660 271.4804 271.5905 271.7730 272.2195
   273.2708 274.8933 277.7783 278.8979 279.8337 280.0772 280.5715 280.5780
   280.6397 281.0146 281.2576 281.4402 281.6584 281.9138 282.0013 282.4359
   283.2593 283.7453 283.8052 283.8831 283.9602 284.7454 286.5415 288.3290
   289.1424 291.4983 291.7804 292.4422 293.5717 293.7263 294.7659 294.8153
   294.8660 294.8933 294.9469 295.1058 295.4035 295.8650 297.1565 297.2173
   297.2685 297.3425 297.4572 297.4659 298.0490 299.1774 299.6736 299.6902
   299.7290 300.0549 300.2545 301.0712 301.3691 301.3846 301.4323 301.5969
   301.6755 301.8063 301.8463 302.2733 302.6168 302.6783 302.7942 302.8023
   302.8043 302.8144 302.9060 303.0860 303.1199 303.5518 303.6249 304.0353
   304.3029 305.5969 306.5477 306.6462 306.8452 306.8837 306.9172 307.3130
   307.6193 307.9482 308.7592 308.8809 309.0226 309.7948 310.2463 310.2512
   310.6785 311.7028 312.0677 312.2805 312.4104 312.7324 312.7868 312.7888
   314.0155 314.7020 314.7047 314.7306 314.9379 315.0971 315.1926 315.3412
   316.0771 316.1246 317.3741 317.6466 317.9439 318.1889 318.3169 318.4569
   318.7622 318.9475 319.4100 320.1698 320.8572 320.8822 321.4520 321.5019
   321.5518 321.6096 322.0001 322.1422 322.4060 323.6170 323.9285 323.9593
   325.1872 325.3424 325.7885 326.2527 326.2824 327.1521 327.3972 327.5137
   327.5328 327.7228 327.8709 327.9108 328.2089 328.2194 328.2342 328.3904
   328.8528 329.2058 329.3968 329.9615 330.4702 330.5662 330.8444 331.3111
   331.3705 331.4140 331.6824 331.7806 331.9765 335.0396 338.2138 339.8935
   341.8793 341.9176 342.2775 342.7880 342.7941 342.8362 342.9454 343.3880
   343.9563 344.3692 344.7055 344.7068 345.0597 345.1077 345.4296 345.4687
   345.5091 345.7668 345.8910 345.8955 345.9022 346.9064 347.8228 348.2477
   348.5991 348.6107 348.7055 348.7332 348.7989 348.9017 349.0597 349.4516
   349.6642 349.7446 350.2757 350.3817 350.4963 350.5139 350.5812 350.5914
   351.0045 351.1267 351.4623 351.6846 352.1679 352.7304 353.1906 353.2232
   353.3948 353.8346 354.9018 354.9666 355.1709 355.4893 356.0846 356.9276
   358.4006 358.5834 358.7547 358.9151 358.9334 358.9392 359.0163 360.3634
   360.9460 361.3092 361.5868 361.6129 361.8677 362.1216 362.6313 362.9583
   362.9735 363.3198 363.5931 363.5933 364.0247 364.6888 364.9439 365.0133
   365.4602 365.8124 365.9252 365.9492 366.0442 366.1012 366.1374 366.2051
   366.2075 366.2395 367.4520 367.6468 367.7272 367.7856 367.8705 367.8727
   368.5332 369.0840 369.3776 370.0328 370.7422 371.0735 371.3309 371.3364
   372.4378 372.7907 372.8262 373.2947 373.3674 374.1511 374.1909 374.7636
   374.7822 374.8199 375.5839 375.8001 376.9864 377.1173 377.2444 378.2622
   378.5317 378.5324 378.5655 378.5704 379.4986 379.5852 381.4731 381.9839
   382.1969 382.5634 387.8259 388.3910 388.6830 388.8577 388.9453 390.2899
   390.3997 390.6423 390.8351 391.8810 392.0062 392.7069 392.7565 393.1067
   393.7884 394.0595 394.1923 394.2981 394.4979 394.9640 395.0543 395.0580
   395.0739 395.1364 395.1914 395.3987 395.7322 395.9062 395.9841 396.1326
   396.2193 396.5354 396.8870 397.0941 397.1202 397.1708 397.3465 397.6142
   397.7525 397.7703 397.7839 397.8619 397.9110 397.9241 398.4053 398.7384
   398.8318 399.2307 399.3644 399.6255 399.8043 400.2823 400.6901 400.7885
   401.2973 401.6459 401.8803 402.0763 402.6600 402.8199 403.9212 404.0164
   404.6947 404.9754 404.9928 405.0551 405.0607 406.1890 406.1899 406.4924
   406.5667 407.3803 407.8693 407.9728 408.1985 408.2738 408.8113 409.8989
   410.0533 410.1269 410.1495 410.3659 410.6230 410.6689 410.8685 411.4223
   411.7250 411.8616 412.1470 412.3602 412.4146 412.7834 413.0377 413.3717
   413.8991 414.5484 414.5778 414.8570 415.1726 415.1804 415.4860 415.8776
   419.0306 419.2510 420.1448 420.7667 421.1916 421.7142 422.7142 423.0303
   423.0324 423.3126 423.5904 423.8885 424.0338 424.3617 424.6434 424.9154
   425.2804 425.6627 425.7740 425.9662 425.9801 426.1830 426.4692 426.5112
   426.5434 426.6888 426.9097 427.9581 428.1303 428.1807 428.1830 428.3568
   428.6261 428.8113 429.3120 429.5163 429.7627 430.2877 432.2267 432.5562
   433.7089 433.7394 436.6818 436.8361 438.0385 438.5926 440.3388 440.5236
   441.6292 441.6396 442.3591 443.1482 443.5312 443.9054 444.0170 444.1376
   444.6717 444.8276 444.9220 445.0743 445.1666 445.2077 445.2601 445.4496
   445.4897 445.6860 445.9292 446.6640 446.9207 447.2855 447.3002 447.3694
   447.8515 448.0094 448.0871 448.1463 448.2285 448.3614 448.4581 448.5126
   448.7284 448.9522 449.0292 449.1090 450.7164 450.8039 450.8344 450.8741
   454.1628 454.1734 454.2198 454.3568 454.9184 455.0837 455.2083 455.5882
   455.9380 456.4599 456.5488 456.5828 456.6041 457.2391 457.4622 457.5581
   457.9729 458.1351 458.1552 458.3427 458.3634 458.5498 458.7639 458.8459
   459.7194 459.7991 459.8424 460.4175 460.4935 460.7071 461.2953 461.6438
   461.9536 462.2282 462.3117 462.4298 462.4393 462.8176 463.7288 464.1037
   464.1462 464.1839 464.2695 464.2739 464.4840 465.1952 465.4601 465.9156
   465.9297 466.0450 466.1847 466.1994 466.2795 466.2949 466.6687 467.2674
   468.4262 469.6546 469.7165 469.7362 469.8562 470.0069 470.2714 470.2836
   470.7221 470.8339 471.2919 471.8192 472.0635 473.4004 473.5922 473.8563
   474.3493 474.4803 474.9069 475.0246 475.1532 475.3784 475.9405 475.9615
   477.0365 477.1252 478.1876 478.2675 479.6769 480.1133 480.1693 481.4132
   482.3027 482.7955 483.9004 484.2487 485.3081 485.4547 485.5565 485.5578
   486.1385 486.5155 486.7320 486.7500 486.8838 486.9321 487.3102 487.3452
   487.8328 487.8346 487.8375 487.8570 488.5038 489.5316 489.5441 489.5671
   489.6872 489.9080 491.0195 491.0899 491.2363 491.4998 491.5351 491.5911
   491.6451 491.8034 492.0333 492.1544 492.2396 492.2500 492.2755 492.3433
   492.3671 492.3801 493.0469 493.1432 493.4517 494.5238 494.6421 496.6353
   496.6605 496.8174 496.8200 496.8334 496.9925 497.0632 497.2552 497.3650
   497.3875 497.9162 498.1164 498.1696 498.8434 499.6649 499.8960 500.3118
   500.3123 500.4642 501.1182 501.2764 502.2544 502.4312 502.7133 502.8193
   503.0657 503.0779 503.0874 503.4396 503.6905 503.6958 504.1310 504.2265
   504.3900 504.3917 504.3964 504.4138 504.4164 505.0856 505.5020 505.6546
   505.7033 506.1385 506.4835 506.6210 507.1096 507.4109 507.7885 508.1370
   508.3640 508.6005 508.8132 508.8373 508.8566 508.9077 508.9404 509.0945
   509.2202 509.2489 509.2861 509.2904 509.3150 509.3504 509.4894 509.5959
   509.6552 510.2751 510.4427 510.5586 510.6017 510.8329 510.8455 510.8573
   511.4521 512.3745 512.9145 513.0447 513.1695 513.4208 513.6533 514.1273
   515.7261 516.1239 516.8999 517.1044 517.3989 517.6393 517.7978 517.8433
   517.8492 518.0916 518.3020 518.3529 518.3859 518.4051 518.5218 518.5252
   518.5654 518.6832 518.7244 519.6231 519.7508 520.3493 521.0106 522.0630
   522.3264 523.3930 523.5601 523.5849 524.0119 524.1097 524.3738 524.8828
   526.0324 526.5158 526.5265 526.6596 531.1603 532.3739 532.5719 532.6762
   533.1342 533.4769 533.8874 533.9098 533.9386 534.2940 534.3023 534.9759

          k = 0.0000-0.5774-0.1630 (  2412 PWs)   bands (ev):

   -11.3059 -11.3059  -5.6363  -5.6363  -0.9472  -0.9472   2.3192   2.3192
     8.0067   8.0067  13.0135  13.0136  16.1432  16.1434  18.1046  18.1048
    21.5835  21.5837  24.7052  24.7052  26.0713  26.0714  26.4946  26.4946
    30.4234  30.4239  30.6787  30.6793  34.1229  34.1230  34.6480  34.6482
    36.9928  36.9930  41.2506  41.2506  44.3176  44.3184  47.6375  47.6377
    48.6430  48.6431  53.2524  53.2526  54.1585  54.1586  56.3784  56.3786
    56.6753  56.6755  57.8476  57.8478  58.9770  58.9772  60.6573  60.6574
    62.1542  62.1542  63.6432  63.6440  65.7074  65.7074  66.0522  66.0528
    68.7785  68.7788  69.1998  69.1998  71.0211  71.0213  72.9764  72.9767
    73.5896  73.5898  73.7852  73.7854  77.3363  77.3366  78.5501  78.5504
    80.3496  80.3499  80.5319  80.5319  81.8916  81.8917  81.9821  81.9821
    82.6387  82.6387  83.6074  83.6076  86.4798  86.4804  91.0032  91.0045
    92.2111  92.2113  94.6048  94.6050  95.3218  95.3220  96.4967  96.4970
    97.3653  97.3659  99.5413  99.5413 100.5175 100.5177 101.2010 101.2012
   103.3646 103.3646 103.8437 103.8438 105.9829 105.9833 106.4902 106.4904
   107.1713 107.1715 109.0535 109.0540 111.6275 111.6278 111.8641 111.8642
   113.2334 113.2335 113.3794 113.3796 115.1734 115.1734 116.3274 116.3276
   117.0041 117.0043 120.4303 120.4305 121.1901 121.1902 122.1556 122.1558
   123.1743 123.1744 125.7713 125.7714 126.5618 126.5620 126.8192 126.8194
   127.3967 127.3969 128.1629 128.1632 129.8095 129.8100 131.3269 131.3274
   132.4837 132.4837 132.6883 132.6884 136.9985 136.9992 137.7304 137.7310
   141.5315 141.5316 141.6621 141.6622 143.5784 143.5785 144.0457 144.0458
   145.2966 145.2971 148.6965 148.6965 149.0527 149.0528 150.3986 150.3987
   150.7024 150.7030 151.4145 151.4145 151.9598 151.9599 152.8287 152.8288
   153.6666 153.6667 153.8159 153.8160 155.0612 155.0620 156.2696 156.2699
   156.4817 156.4817 157.0435 157.0439 158.5179 158.5180 159.3724 159.3729
   161.3684 161.3690 162.3618 162.3618 162.6065 162.6066 163.5372 163.5375
   167.1728 167.1733 167.5963 167.5964 168.6908 168.6910 168.8673 168.8675
   169.2569 169.2574 169.4254 169.4256 170.8466 170.8471 171.1827 171.1829
   172.2193 172.2194 173.5639 173.5640 174.7636 174.7636 175.9685 175.9686
   176.2858 176.2858 176.8425 176.8425 177.1689 177.1691 177.1779 177.1784
   177.8861 177.8863 178.3846 178.3847 179.6492 179.6496 180.9185 180.9187
   183.6720 183.6728 183.9299 183.9307 184.9025 184.9029 187.5009 187.5013
   189.0361 189.0368 189.8727 189.8727 191.6941 191.6942 192.3059 192.3062
   192.4927 192.4931 192.7582 192.7583 193.2192 193.2193 193.6266 193.6267
   194.6416 194.6420 196.1978 196.1980 196.2227 196.2232 196.8066 196.8068
   199.0915 199.0918 199.4967 199.4972 200.6357 200.6359 200.7824 200.7825
   201.0872 201.0876 201.9326 201.9330 204.7866 204.7868 205.2066 205.2067
   205.8409 205.8411 207.1195 207.1196 209.3766 209.3769 209.5480 209.5481
   210.7295 210.7295 211.3314 211.3317 211.4203 211.4204 213.6034 213.6051
   213.7252 213.7252 216.3770 216.3774 216.3881 216.3883 217.1411 217.1413
   217.7739 217.7741 221.2095 221.2096 221.7344 221.7346 223.1058 223.1062
   223.4785 223.4786 223.6672 223.6673 224.2571 224.2572 225.7354 225.7357
   226.9831 226.9833 227.3258 227.3259 229.0599 229.0603 229.1649 229.1649
   231.3931 231.3935 231.7605 231.7608 232.7858 232.7863 233.6643 233.6652
   233.7441 233.7443 235.0063 235.0076 235.0826 235.0830 236.3048 236.3055
   237.3382 237.3383 237.6641 237.6653 239.6829 239.6833 239.6959 239.6963
   240.9223 240.9224 241.0416 241.0421 241.1387 241.1389 242.0788 242.0790
   244.2358 244.2365 245.7912 245.7917 246.8547 246.8552 247.9289 247.9290
   248.1699 248.1701 248.3815 248.3819 249.1524 249.1525 249.1568 249.1570
   251.2110 251.2113 251.2278 251.2280 251.4057 251.4059 251.7789 251.7793
   254.6820 254.6821 255.1809 255.1809 256.4744 256.4748 257.3908 257.3915
   258.8010 258.8011 259.7711 259.7711 260.1515 260.1515 264.4113 264.4113
   264.9697 264.9699 265.3050 265.3072 266.3204 266.3206 266.8567 266.8576
   266.9354 266.9355 268.4372 268.4373 269.7126 269.7126 270.0511 270.0511
   270.2310 270.2314 271.8924 271.8927 272.3246 272.3250 272.4370 272.4371
   273.1904 273.1905 274.7170 274.7179 275.8958 275.8959 275.9014 275.9016
   277.2149 277.2151 277.8740 277.8751 278.2445 278.2449 278.8821 278.8834
   280.7909 280.7912 282.5256 282.5258 283.0348 283.0349 283.3862 283.3864
   284.1960 284.1960 285.0177 285.0177 286.8649 286.8653 286.8662 286.8666
   287.0208 287.0211 289.2613 289.2614 289.8907 289.8912 291.0557 291.0558
   291.1706 291.1710 292.4415 292.4421 293.6758 293.6759 293.8479 293.8480
   294.3584 294.3584 295.2023 295.2024 295.2940 295.2940 295.5832 295.5833
   295.8227 295.8228 295.9797 295.9798 296.8634 296.8638 297.0865 297.0870
   297.5155 297.5161 299.0418 299.0424 301.1286 301.1290 301.8641 301.8642
   302.1264 302.1264 302.9002 302.9014 303.8357 303.8361 304.1297 304.1297
   304.8031 304.8035 305.1549 305.1553 309.3993 309.3993 310.5238 310.5243
   311.1562 311.1565 312.7244 312.7244 312.8188 312.8189 312.8384 312.8403
   313.0352 313.0356 314.2017 314.2019 314.5406 314.5410 315.8994 315.8995
   317.7528 317.7530 318.2533 318.2537 318.2596 318.2599 318.5416 318.5417
   318.6944 318.6948 319.7385 319.7385 319.8184 319.8186 320.3361 320.3368
   320.5241 320.5242 321.7536 321.7536 322.1259 322.1260 322.2235 322.2241
   322.4633 322.4636 322.5687 322.5690 323.4355 323.4358 324.2364 324.2365
   325.3663 325.3670 325.9303 325.9306 326.6246 326.6259 326.6780 326.6797
   326.8420 326.8423 328.9379 328.9379 329.3617 329.3619 329.3999 329.4009
   331.9092 331.9095 332.3614 332.3615 333.6703 333.6705 334.1073 334.1074
   335.0631 335.0637 335.6070 335.6073 335.7231 335.7232 335.8444 335.8446
   337.3347 337.3347 337.4055 337.4056 337.5071 337.5071 339.1018 339.1022
   341.6294 341.6307 341.8230 341.8232 342.0265 342.0278 342.4098 342.4102
   343.6001 343.6002 343.7643 343.7644 343.9742 343.9743 344.0195 344.0197
   344.2647 344.2648 344.3249 344.3250 344.4976 344.4980 346.8938 346.8950
   347.2073 347.2074 347.3311 347.3312 348.5413 348.5414 349.3826 349.3834
   350.9390 350.9393 351.2752 351.2752 351.8647 351.8650 352.3188 352.3188
   352.5846 352.5852 353.1113 353.1115 353.2758 353.2759 354.5004 354.5009
   355.7923 355.7924 355.8190 355.8192 357.2386 357.2387 359.4340 359.4341
   361.5266 361.5281 362.5912 362.5913 362.9612 362.9613 364.2082 364.2090
   365.5078 365.5079 365.8835 365.8843 366.8617 366.8618 367.2897 367.2899
   367.3401 367.3401 367.7203 367.7206 369.7518 369.7519 370.7484 370.7485
   371.8588 371.8590 372.2535 372.2540 372.3028 372.3046 372.8265 372.8271
   373.1520 373.1522 373.9469 373.9472 374.2316 374.2320 375.3899 375.3908
   376.2139 376.2139 376.6936 376.6937 377.8090 377.8093 378.9274 378.9278
   379.6156 379.6160 379.7973 379.7976 380.4984 380.4987 380.9263 380.9265
   381.2708 381.2710 381.5187 381.5190 382.3694 382.3699 382.7413 382.7413
   383.8374 383.8383 384.6935 384.6936 385.3116 385.3117 385.4694 385.4695
   385.7472 385.7472 386.7519 386.7527 388.1599 388.1611 388.6425 388.6429
   388.8204 388.8209 389.0528 389.0534 389.6828 389.6828 389.6835 389.6838
   390.0566 390.0567 390.9228 390.9229 391.4227 391.4228 391.5455 391.5456
   392.9500 392.9507 393.0348 393.0350 393.0438 393.0440 393.3990 393.3993
   393.6608 393.6608 393.6745 393.6746 394.5618 394.5630 396.5750 396.5763
   398.3259 398.3261 399.0294 399.0296 399.2553 399.2560 399.4335 399.4337
   399.8358 399.8362 400.5480 400.5485 401.0866 401.0867 401.9655 401.9655
   406.7771 406.7774 408.3777 408.3794 408.8062 408.8062 409.6797 409.6803
   409.8095 409.8096 410.6181 410.6187 411.0177 411.0178 411.1387 411.1388
   411.7427 411.7442 412.8476 412.8480 412.9327 412.9329 412.9634 412.9641
   413.4380 413.4380 414.0409 414.0411 415.1122 415.1122 416.2294 416.2295
   416.9888 416.9891 418.8151 418.8158 419.6570 419.6575 420.4865 420.4873
   420.9045 420.9052 421.2208 421.2209 421.4736 421.4740 422.4452 422.4453
   423.1794 423.1800 423.5663 423.5672 425.0879 425.0879 427.2547 427.2557
   427.5517 427.5532 427.9811 427.9814 428.9776 428.9777 429.0847 429.0850
   429.2206 429.2208 430.0752 430.0759 430.9985 430.9987 431.2797 431.2798
   431.6915 431.6919 432.7714 432.7715 433.1425 433.1427 433.8579 433.8579
   433.9050 433.9054 435.5377 435.5381 435.8776 435.8782 436.4586 436.4586
   436.6839 436.6842 436.9890 436.9891 437.0145 437.0150 438.2297 438.2310
   438.3726 438.3729 438.6330 438.6344 441.0407 441.0408 441.3651 441.3652
   441.5289 441.5302 441.8699 441.8700 442.5316 442.5317 442.9399 442.9399
   443.7260 443.7262 445.1065 445.1078 445.1231 445.1240 446.1650 446.1665
   446.4004 446.4008 446.4818 446.4819 453.4204 453.4204 454.4064 454.4066
   454.6073 454.6075 454.7589 454.7590 454.9702 454.9703 455.5129 455.5132
   456.5160 456.5164 457.8488 457.8499 458.9463 458.9468 459.4889 459.4910
   459.6894 459.6896 459.7620 459.7628 460.4857 460.4858 461.1054 461.1056
   461.2441 461.2442 461.7173 461.7187 461.8815 461.8815 462.4492 462.4493
   463.6242 463.6242 463.9202 463.9202 463.9324 463.9326 464.5132 464.5136
   465.7237 465.7246 466.4575 466.4576 467.4475 467.4479 467.5024 467.5032
   467.6100 467.6104 469.2226 469.2230 469.2973 469.2977 470.0448 470.0449
   471.7307 471.7312 471.7369 471.7373 474.5476 474.5483 474.7677 474.7683
   474.9272 474.9284 476.0347 476.0354 476.4247 476.4254 477.0156 477.0167
   477.4066 477.4066 477.8861 477.8865 477.9717 477.9719 478.3066 478.3068
   478.6402 478.6421 478.6638 478.6639 479.6238 479.6247 479.8395 479.8402
   480.0149 480.0153 481.6593 481.6593 482.1495 482.1495 482.9051 482.9051
   483.1959 483.1961 484.2003 484.2006 484.6410 484.6410 484.7951 484.7967
   485.4557 485.4558 486.2646 486.2646 486.2747 486.2747 486.4162 486.4163
   486.4817 486.4818 487.1405 487.1407 487.1568 487.1570 487.5218 487.5219
   488.7917 488.7925 489.0458 489.0477 489.6473 489.6479 490.3654 490.3662
   490.8189 490.8191 491.1516 491.1517 493.1458 493.1467 494.0903 494.0910
   494.2004 494.2005 494.2733 494.2741 494.7240 494.7241 494.7251 494.7269
   494.7918 494.7922 495.2235 495.2238 495.3699 495.3702 495.7285 495.7290
   497.4541 497.4542 497.4636 497.4638 497.5383 497.5384 498.1934 498.1942
   502.5101 502.5101 502.6400 502.6402 502.6616 502.6618 502.7192 502.7193
   504.3084 504.3085 506.2169 506.2170 507.9656 507.9668 508.6697 508.6697
   508.7727 508.7728 509.1514 509.1515 509.2811 509.2813 510.4361 510.4363
   510.9860 510.9860 511.1095 511.1100 511.4915 511.4916 511.5766 511.5767
   511.6323 511.6343 511.9323 511.9323 513.6197 513.6199 513.9344 513.9345
   514.5245 514.5253 514.8807 514.8808 515.3736 515.3737 515.9525 515.9533
   516.2589 516.2592 516.2899 516.2902 517.6281 517.6281 517.6805 517.6805
   518.9304 518.9307 518.9872 518.9875 519.2259 519.2266 519.2349 519.2351
   520.4438 520.4441 520.9026 520.9029 520.9315 520.9317 521.7858 521.7866
   522.7359 522.7362 522.9389 522.9390 523.0009 523.0010 523.5744 523.5747
   523.8872 523.8877 524.3210 524.3211 525.5774 525.5774 525.6684 525.6687
   525.6928 525.6929 525.8470 525.8471 527.3539 527.3547 527.4927 527.4929
   527.5332 527.5334 527.5499 527.5501 528.5294 528.5296 528.9087 528.9088

          k = 0.2500 0.4330 0.0000 (  2408 PWs)   bands (ev):

   -11.4435 -11.4051  -4.3720  -4.3574  -2.6710  -2.6556   1.8414   2.3914
     8.9294   9.0136  13.3058  15.5782  16.8054  16.9229  17.7817  19.0184
    19.5306  20.3042  22.0276  22.4867  22.9876  24.4750  25.7859  28.7417
    30.4914  30.7198  32.1340  32.5644  32.6366  33.9571  34.6319  38.1359
    38.9171  42.3670  42.5085  43.2716  43.9106  45.1195  47.3137  47.5390
    48.4336  48.4683  49.2840  49.3430  50.0696  52.3524  52.6923  55.1539
    55.3507  55.8542  56.7935  57.9714  60.0614  60.4244  60.7123  61.0559
    62.8457  63.9214  64.2931  64.9906  66.3070  66.7660  66.7805  67.5255
    68.3401  69.0400  69.2215  69.6645  69.6976  70.3902  71.0220  71.3854
    73.6141  73.9735  75.0048  76.4813  77.1953  77.2998  77.9448  78.2807
    80.5251  80.5729  80.6412  81.4101  83.9789  84.3453  84.3855  84.4323
    85.9814  86.2351  86.9730  87.3493  87.8056  90.3086  90.3920  90.9769
    91.1928  91.2869  91.4159  91.5005  92.7961  94.1052  95.0894  95.4247
    95.5553  95.6391  96.1465  96.9653  97.9380  98.3721  98.4496  99.0775
   100.2836 100.4715 100.9013 101.8107 102.6301 103.0378 103.7875 104.9125
   106.2093 106.9852 108.4315 108.8271 110.2515 110.6368 112.7651 113.8306
   114.0236 114.3356 114.4025 115.9972 116.7815 118.8662 119.4471 119.9139
   120.1730 120.5619 120.9924 121.6269 122.7334 123.1993 123.3592 123.6171
   125.1854 125.4080 125.8654 126.0101 126.3459 126.9631 128.0584 128.1334
   129.2361 130.2751 130.6661 132.3469 132.5313 133.4489 133.6160 133.8291
   134.3653 134.5266 134.7601 134.9326 135.8911 136.5562 137.4229 138.9741
   139.6445 140.4483 140.7139 140.9722 141.0542 141.1111 141.3016 141.9953
   142.2055 142.3050 142.6714 143.0950 143.4589 145.2918 146.6883 148.3440
   148.8627 149.5702 149.9199 150.5674 151.3623 151.5184 152.4122 152.5620
   153.0056 153.2156 153.9568 154.5719 154.6942 155.2179 155.3696 156.4000
   156.4044 156.6056 158.0647 158.2166 159.4601 159.4787 159.8340 160.3192
   160.3551 161.1466 161.1683 162.0717 162.7592 162.8391 163.0300 163.0490
   164.1609 164.3984 165.1775 166.8380 167.0413 167.1475 167.5290 167.7040
   167.7892 167.8476 169.1173 169.9321 170.6499 170.8796 170.8846 171.1768
   171.1868 172.2486 172.3417 173.0166 173.3681 173.6021 174.5822 175.2331
   175.2882 176.1311 177.4598 180.1558 180.3337 180.7985 180.9963 181.3157
   181.7690 181.9899 182.8440 182.8694 182.9009 183.6029 183.9212 184.0567
   184.1006 184.3585 184.6111 185.7820 186.3142 186.4773 187.4915 188.0158
   188.8545 188.8560 188.9102 189.9414 190.0041 190.1365 190.9090 191.1826
   191.3981 191.6468 191.7628 192.4518 193.3024 193.4805 194.2865 194.8797
   195.1351 195.3887 195.5999 197.0278 197.4853 197.7585 197.8501 197.9970
   198.5911 199.3417 199.6371 200.2323 200.6058 201.4942 202.6113 202.6121
   203.2586 203.6698 204.6345 205.5898 205.7372 206.0849 206.1646 206.4492
   206.5250 207.5899 207.9074 207.9140 208.0228 208.6250 208.6768 210.2968
   210.3609 210.7304 210.8174 211.7971 211.8858 213.0842 213.2366 213.7047
   214.0736 214.2266 214.3338 214.4950 215.1393 215.3560 215.6412 216.2403
   216.3617 216.3864 217.4960 217.6830 217.8371 218.0221 218.6378 219.0922
   219.5413 220.3710 221.1986 221.2767 221.3998 222.0907 222.2773 223.8577
   224.4675 226.7368 227.2690 227.4528 227.7405 227.9716 228.4302 229.6694
   229.8594 229.8653 230.5203 231.4251 231.5445 233.1603 233.3176 233.7494
   234.0025 235.3365 235.6437 235.7297 235.8488 236.1162 236.8327 237.0059
   237.6400 237.8638 237.9400 238.2853 238.4392 238.5492 238.6153 238.7028
   238.8595 239.1036 239.2924 240.3586 240.8542 240.9484 241.1920 241.8946
   242.1592 242.2044 242.5897 243.8473 243.9038 248.1236 248.7873 249.2040
   249.2231 249.5666 250.2610 250.3744 250.9422 251.1638 251.6073 251.7884
   252.8503 253.4729 253.4927 254.2405 254.2496 254.5673 255.0727 255.4861
   255.8905 256.1351 257.1968 257.5774 258.1782 259.0471 259.5579 259.9851
   260.2370 260.6060 260.9446 260.9827 261.2786 261.9588 262.3567 262.3671
   262.8795 264.1811 264.6608 264.7716 264.9600 265.1499 265.2187 265.8273
   266.6065 267.0801 267.9169 268.0116 268.4541 269.0261 269.0504 269.3554
   269.8303 270.5675 270.9467 271.2583 272.7755 273.5538 274.1880 274.2802
   274.6807 274.9029 275.0385 275.4240 276.0016 277.2261 277.2780 277.5439
   277.5620 277.8344 278.1776 278.4078 278.5574 278.5878 279.5097 279.5312
   279.6514 280.6314 281.6082 281.6351 282.9767 282.9904 283.6621 283.6631
   283.7671 284.1437 284.7657 285.4416 285.6554 285.7119 286.2070 286.2746
   287.3375 288.4055 288.4737 288.5612 289.0322 289.0628 289.5958 290.1206
   291.1260 291.3841 291.5481 292.2093 292.4899 293.0671 293.3379 293.4480
   293.9284 295.1192 295.4122 295.6113 296.0889 296.1632 296.3053 296.8453
   297.4070 297.4590 297.5849 297.8238 297.8358 298.1894 299.1246 299.8907
   299.8958 299.9448 300.3702 300.9958 301.7831 301.8246 302.2909 302.7713
   302.7831 303.5350 303.5771 303.8202 304.1050 304.2576 304.9918 305.8226
   305.9942 306.0195 306.2033 306.2924 306.7385 306.9972 307.5327 307.8765
   307.9294 308.3943 309.0330 309.3116 309.7451 309.7757 310.0461 310.1871
   310.1925 310.2078 310.4691 310.4815 310.7295 310.7854 311.6552 312.0344
   312.7618 313.5746 314.2888 314.3967 314.8982 315.2725 315.3929 315.4878
   315.7634 318.1137 318.7771 319.1341 319.5193 319.6078 320.3868 320.6335
   321.1222 321.4435 321.9558 322.0098 322.6290 322.7312 323.8308 324.0977
   324.4240 324.8531 325.0490 325.2625 325.4242 325.5576 325.6795 325.8179
   325.9469 327.4138 327.5043 327.7380 328.4379 328.6448 329.3491 329.3998
   330.6293 330.7956 330.9081 331.0936 331.3704 331.4817 331.7220 331.9171
   332.2179 332.4824 332.7527 332.7590 333.1913 333.3805 334.0195 334.3756
   334.5308 334.7808 334.9077 335.2899 335.5477 335.7776 335.8459 336.2630
   336.3162 336.6635 336.9163 336.9536 337.0807 337.1661 337.2728 337.4450
   337.6697 337.6992 338.3370 338.6192 340.3894 340.3909 340.4865 340.6125
   341.0574 341.2728 342.3376 342.5736 343.2010 343.4195 344.2683 344.3293
   344.9782 346.3495 346.8489 346.9692 347.8104 347.9631 348.1967 348.4548
   348.5138 348.6881 349.0750 350.0269 350.3835 350.7039 350.7359 351.3113
   351.5415 352.8581 353.4333 353.8187 354.8181 354.8208 354.9958 355.6444
   356.3769 356.6712 356.7826 356.8156 356.9393 357.4349 357.4722 357.8416
   357.8869 358.1372 358.1991 358.2148 358.2443 358.3501 358.6121 358.7566
   359.4334 359.6645 360.4979 360.5025 361.4054 361.6881 362.1536 362.6382
   363.8338 364.7912 364.8565 364.9207 364.9397 364.9860 365.2219 366.6882
   367.0461 367.4305 367.8453 368.1350 368.1888 368.3783 369.0090 369.0121
   369.0432 370.3773 370.5238 370.8517 371.0476 371.2225 371.7871 372.5213
   372.8675 373.0456 373.5331 373.5434 374.0975 374.1891 374.5086 375.0132
   375.0753 375.1595 375.3293 375.7213 375.7275 376.0481 376.2820 376.3160
   376.5238 376.9963 377.1618 377.2637 377.3007 377.3261 378.1376 378.1516
   378.1957 378.3932 378.8965 379.1146 379.1353 379.3452 379.6193 379.6929
   379.9080 379.9282 380.1275 380.3467 380.5924 380.7739 380.8631 381.4125
   381.5912 381.9505 382.0315 382.0458 382.5144 384.2635 384.6509 385.1274
   385.4771 385.9541 386.3061 386.6404 391.5571 391.7974 391.8807 392.4832
   392.8525 393.4999 393.5267 393.8211 393.8986 394.2540 394.7422 395.4221
   395.6300 395.6659 396.0957 396.4993 396.7483 396.8608 397.0746 397.6373
   397.6705 397.9018 398.1806 398.3151 399.0887 399.1542 400.1246 400.2466
   401.3449 401.6068 401.7851 401.8499 402.6012 402.8931 403.2679 404.0869
   404.1763 404.3836 404.4749 404.8561 405.7253 405.8301 406.6214 406.6306
   406.9172 406.9894 407.0588 407.6785 407.7388 407.8487 408.1088 408.6349
   408.9697 409.0143 409.9528 410.8898 411.0717 411.2351 411.6449 412.6081
   412.8369 412.9216 412.9663 413.2049 413.5077 413.9611 415.2600 415.7343
   416.2267 416.6149 417.7740 418.1216 418.1662 419.6013 419.6689 420.0461
   420.1475 420.3055 420.4702 420.4903 420.7548 421.1015 421.2798 421.2822
   421.5662 421.8639 422.2398 422.8731 422.8867 423.1474 423.2340 423.2396
   423.8811 424.1478 424.3552 424.4311 425.4315 425.9876 425.9911 426.0993
   426.2573 426.3631 426.3857 426.5714 426.5949 426.6640 426.9387 427.1559
   428.9482 429.1980 429.3559 429.5687 430.2300 430.4629 430.6326 430.7701
   431.0284 431.6726 431.8429 431.9409 432.2770 432.4948 432.8765 433.1813
   433.2054 433.2597 433.3564 434.0780 434.1055 434.2986 435.5968 435.7061
   435.7926 435.9529 435.9576 436.2797 437.4240 437.6965 437.7690 437.8878
   439.0850 439.5808 441.1120 441.3459 441.8479 441.9239 442.1363 443.0580
   443.5356 443.6696 443.9608 444.0811 444.6938 445.0197 445.2956 446.0860
   446.3007 446.4440 446.6126 446.9216 447.0873 447.2122 447.3092 447.4751
   447.5607 447.7879 448.1396 448.5803 448.6410 449.5706 449.5717 449.9221
   450.6284 450.8591 450.9007 450.9233 451.0727 451.1311 451.2291 451.2327
   451.6141 451.6178 451.7461 452.0919 452.1079 452.6805 452.8056 452.8074
   453.1060 453.1355 453.3914 453.9521 455.6780 455.6804 456.1323 456.1815
   456.6824 456.8654 457.1089 457.1728 457.3587 458.0297 458.5492 458.7263
   458.9025 459.1703 459.7712 459.8352 460.5655 460.5971 462.2792 462.5399
   463.9297 464.0969 464.6465 464.8426 465.4696 465.9594 466.1341 466.4877
   467.1971 467.6324 468.2866 468.4916 469.6913 470.2010 470.9994 471.3357
   471.3725 471.4969 472.2666 473.0107 473.5212 474.3432 474.8298 475.1200
   475.3891 475.4889 475.7794 475.9994 476.0883 476.1649 476.8451 477.0810
   477.3769 477.4991 477.6089 478.0998 478.2785 478.4918 478.8333 478.9114
   479.1043 479.3031 479.3256 479.3960 479.4400 479.5043 479.8138 479.9380
   480.4466 480.5388 480.5754 481.1810 481.4797 481.7929 481.8731 482.0210
   482.6748 482.7415 483.8405 483.9557 484.9495 485.8661 486.3938 486.7432
   488.4500 488.6770 488.7865 489.2069 489.3870 489.4838 489.7693 489.9685
   490.0442 490.2612 490.5901 490.7501 490.7901 491.2727 491.3324 491.6693
   491.8048 491.8348 492.1095 492.4426 492.4693 493.2560 493.3007 493.3912
   493.7125 493.8914 493.9729 494.1676 494.2972 494.3580 495.2955 495.3875
   495.5132 495.7326 496.2249 496.2605 496.3251 496.6129 496.9686 497.1358
   497.1768 497.7190 497.8008 498.2691 498.2924 498.3202 498.6447 498.7906
   498.9352 499.1539 499.5410 499.6581 499.7770 499.9165 500.1594 500.1629
   500.2383 500.5053 500.9051 501.1925 501.3833 501.7145 502.5202 503.1987
   503.8534 504.1710 504.2098 504.5729 504.5928 504.6228 504.8294 505.2538
   505.4133 505.4821 505.5478 505.9121 506.1982 506.3349 506.5205 507.1160
   507.2797 507.5298 507.7771 507.8785 507.9299 508.7686 509.5224 511.0305
   511.1976 511.7199 511.9468 512.0973 512.1075 513.1513 513.6933 514.6132
   514.7069 515.4185 515.6716 515.7586 515.7604 515.8375 516.0076 516.1123
   516.3156 516.3296 516.5380 516.8914 517.3380 517.7821 517.9969 518.0635
   518.0729 518.4764 518.4870 518.5527 519.2612 519.4081 519.4311 519.5270
   519.9930 520.8264 521.1508 521.3138 521.3427 521.6403 521.9093 522.1382
   522.2526 522.3104 522.4453 522.7379 522.7442 522.9161 523.3218 525.0108
   525.0514 525.1317 525.1781 525.1915 525.4630 526.2620 526.3298 526.7467
   527.1964 527.5777 527.6231 527.6950 527.7504 529.9999 530.3291 530.4505
   530.8065 531.2392 531.5039 531.7019 531.7314 532.3464 533.2620 533.5627

          k = 0.2500 0.4330-0.1630 (  2418 PWs)   bands (ev):

   -11.4244 -11.4244  -4.3651  -4.3651  -2.6641  -2.6641   2.1102   2.1102
     8.9241   8.9242  14.5734  14.5738  16.8065  16.8066  18.1635  18.1637
    19.4807  19.4808  22.9417  22.9422  23.8914  23.8914  27.4839  27.4840
    30.1506  30.1509  31.2315  31.2318  33.2040  33.2048  39.5393  39.5395
    39.9840  39.9843  40.6717  40.6718  45.4586  45.4587  46.5328  46.5333
    48.1778  48.1781  49.9549  49.9550  51.2488  51.2489  54.5059  54.5061
    55.6155  55.6159  59.3959  59.3961  60.2138  60.2139  61.2408  61.2410
    62.4410  62.4410  63.5692  63.5694  64.6273  64.6274  65.4749  65.4750
    68.2829  68.2830  69.2305  69.2305  70.2510  70.2515  73.7413  73.7415
    75.7589  75.7591  76.7065  76.7067  77.3450  77.3450  79.0575  79.0576
    79.9388  79.9391  82.5488  82.5489  83.1086  83.1087  84.8684  84.8685
    86.1153  86.1153  86.7795  86.7795  87.3982  87.3982  87.9463  87.9464
    88.6717  88.6719  90.2692  90.2692  93.7404  93.7405  94.5609  94.5611
    96.0576  96.0580  97.1936  97.1936  98.3908  98.3911 101.5240 101.5243
   102.4143 102.4144 103.5504 103.5505 103.7100 103.7101 105.7519 105.7520
   108.7228 108.7230 109.2158 109.2162 109.9558 109.9558 110.0717 110.0718
   111.5217 111.5217 112.8484 112.8487 116.1390 116.1390 119.2434 119.2434
   119.5354 119.5355 120.3301 120.3302 122.0611 122.0613 124.3122 124.3125
   126.3974 126.3974 126.9601 126.9602 128.3879 128.3879 129.4721 129.4725
   130.4744 130.4744 131.7322 131.7325 131.9096 131.9098 134.6028 134.6029
   135.0878 135.0879 135.7913 135.7914 136.0207 136.0208 137.6025 137.6026
   137.8977 137.8981 138.4895 138.4900 142.5354 142.5358 143.1321 143.1321
   144.0346 144.0347 144.6412 144.6414 146.1506 146.1507 147.3774 147.3780
   148.8247 148.8247 149.6985 149.6988 150.3707 150.3709 151.5807 151.5809
   152.9321 152.9327 153.1990 153.1990 154.4206 154.4209 155.2471 155.2471
   156.5676 156.5676 157.5122 157.5122 158.0814 158.0814 158.9665 158.9667
   159.8159 159.8159 160.5713 160.5714 160.9370 160.9370 162.0224 162.0224
   165.3297 165.3299 165.6389 165.6390 167.2255 167.2255 168.5364 168.5364
   168.8546 168.8552 169.3211 169.3212 171.1103 171.1106 172.0378 172.0380
   173.3944 173.3946 174.8901 174.8902 175.2087 175.2090 177.6187 177.6189
   178.0880 178.0885 180.1919 180.1923 180.5335 180.5337 180.7739 180.7742
   181.9317 181.9319 182.5720 182.5720 183.0161 183.0162 183.5705 183.5707
   183.7350 183.7352 184.6951 184.6956 185.8690 185.8694 186.5856 186.5857
   188.6569 188.6581 188.7423 188.7423 189.4355 189.4356 190.3808 190.3809
   190.8468 190.8469 191.4774 191.4777 192.6354 192.6355 193.9390 193.9392
   194.6150 194.6151 194.7322 194.7325 196.7161 196.7161 199.3441 199.3442
   199.4573 199.4576 200.1186 200.1187 201.2200 201.2201 202.4914 202.4920
   203.5991 203.5993 204.3627 204.3630 204.7113 204.7114 205.4911 205.4913
   206.0771 206.0775 206.8695 206.8699 206.9435 206.9435 207.5028 207.5028
   209.9232 209.9238 210.6545 210.6549 212.6563 212.6568 213.8399 213.8402
   214.9455 214.9458 215.1644 215.1646 216.9708 216.9713 218.3355 218.3356
   220.0425 220.0426 221.2707 221.2710 222.0219 222.0226 222.4027 222.4029
   222.7275 222.7276 223.6544 223.6548 224.4983 224.4983 225.0655 225.0655
   225.2960 225.2967 225.9926 225.9929 226.3057 226.3058 227.7549 227.7550
   228.3669 228.3671 229.7536 229.7539 230.3085 230.3088 230.6896 230.6897
   230.9459 230.9460 231.4437 231.4439 231.6550 231.6550 232.6982 232.6985
   234.3109 234.3114 234.9516 234.9518 237.2596 237.2597 237.7408 237.7410
   239.2488 239.2490 241.7044 241.7049 243.9366 243.9367 245.0639 245.0640
   246.1729 246.1731 247.7318 247.7321 249.0310 249.0310 249.3026 249.3026
   249.8596 249.8598 250.5690 250.5690 251.1370 251.1370 251.3916 251.3916
   252.8707 252.8709 253.9134 253.9137 254.0887 254.0889 254.8296 254.8298
   255.2633 255.2637 256.9093 256.9094 258.5145 258.5151 259.3997 259.4001
   259.6661 259.6665 260.2154 260.2157 261.5714 261.5717 262.0733 262.0734
   262.9513 262.9514 263.1236 263.1243 264.8446 264.8449 266.1052 266.1057
   267.5921 267.5922 268.0958 268.0959 268.3854 268.3855 269.0126 269.0127
   270.9351 270.9352 271.9334 271.9336 274.1080 274.1082 274.9864 274.9864
   275.2260 275.2264 276.0048 276.0051 276.5871 276.5871 277.5235 277.5240
   278.2165 278.2173 278.8639 278.8640 279.2534 279.2538 279.9654 279.9656
   280.0957 280.0961 280.7374 280.7378 281.4843 281.4846 282.4684 282.4688
   283.0521 283.0527 284.5449 284.5450 286.7468 286.7469 286.9813 286.9819
   287.6881 287.6882 287.7785 287.7789 288.4494 288.4495 289.5365 289.5374
   291.0061 291.0066 293.1213 293.1218 294.0072 294.0073 294.0619 294.0619
   294.9899 294.9902 295.3359 295.3359 296.0270 296.0274 296.5329 296.5329
   297.3863 297.3864 297.6869 297.6871 299.0774 299.0775 299.2647 299.2649
   300.3326 300.3330 300.8208 300.8209 301.9563 301.9564 301.9956 301.9959
   302.2831 302.2833 302.8872 302.8873 303.1799 303.1799 303.8909 303.8911
   304.4124 304.4128 305.7177 305.7178 306.4805 306.4805 307.4322 307.4324
   308.1468 308.1470 308.3997 308.3998 309.9317 309.9321 310.4506 310.4510
   311.2013 311.2014 311.7178 311.7181 311.8392 311.8394 314.0605 314.0605
   314.4386 314.4387 315.3437 315.3438 316.2537 316.2539 316.5098 316.5099
   316.8426 316.8427 317.3498 317.3499 318.1300 318.1303 318.8082 318.8085
   320.2307 320.2308 320.4323 320.4324 321.3431 321.3432 321.9588 321.9591
   322.2158 322.2158 322.9648 322.9651 323.7394 323.7400 324.5285 324.5295
   325.2318 325.2321 326.5539 326.5541 326.6255 326.6256 328.6406 328.6408
   329.0591 329.0597 329.4953 329.4963 331.2641 331.2653 332.0886 332.0894
   333.5050 333.5052 334.7059 334.7062 335.2216 335.2220 335.3526 335.3527
   336.0664 336.0665 336.4264 336.4269 337.0871 337.0881 338.0248 338.0250
   338.7967 338.7969 339.2015 339.2019 340.9270 340.9275 341.4145 341.4148
   341.7328 341.7330 341.9906 341.9906 342.5550 342.5551 343.7457 343.7461
   344.5242 344.5246 345.0232 345.0235 346.5646 346.5647 346.6167 346.6171
   347.1639 347.1640 347.3156 347.3158 347.6163 347.6164 347.9681 347.9684
   348.8928 348.8933 349.5458 349.5458 350.0136 350.0138 350.5625 350.5626
   350.8552 350.8552 351.0954 351.0955 351.7603 351.7604 352.7213 352.7215
   353.7821 353.7823 354.5783 354.5785 354.9717 354.9721 355.8091 355.8091
   355.8415 355.8418 356.7670 356.7673 357.5076 357.5080 358.3956 358.3956
   358.7574 358.7576 359.0506 359.0516 359.5319 359.5320 360.2130 360.2131
   361.6467 361.6468 362.1788 362.1794 364.2785 364.2788 364.3436 364.3439
   364.6082 364.6084 365.1585 365.1589 365.5705 365.5707 365.7960 365.7961
   366.4051 366.4055 368.0430 368.0432 368.2277 368.2278 368.8406 368.8407
   369.7825 369.7828 372.0297 372.0304 372.3274 372.3277 373.3359 373.3363
   373.6520 373.6521 374.0967 374.0971 374.4196 374.4198 376.1211 376.1212
   376.2430 376.2431 376.7760 376.7764 377.6889 377.6893 379.2059 379.2064
   380.7315 380.7320 382.7836 382.7838 383.4430 383.4432 383.7874 383.7875
   385.0472 385.0483 386.2149 386.2151 386.9743 386.9746 387.6381 387.6384
   388.3402 388.3403 389.2970 389.2980 390.2972 390.2974 391.0305 391.0311
   391.3877 391.3879 391.6703 391.6704 392.1670 392.1674 392.3041 392.3049
   392.8228 392.8234 393.6580 393.6583 395.6388 395.6389 395.9362 395.9364
   396.1803 396.1809 396.4854 396.4864 396.6482 396.6485 397.2321 397.2322
   397.4490 397.4494 397.9689 397.9691 398.5226 398.5226 398.9906 398.9911
   400.5024 400.5026 400.6778 400.6779 401.5029 401.5030 401.9774 401.9775
   402.4713 402.4716 402.8907 402.8909 404.0329 404.0334 404.6140 404.6156
   405.1544 405.1544 405.5559 405.5565 406.0548 406.0550 406.4113 406.4118
   406.8138 406.8139 407.9999 408.0005 408.2858 408.2861 409.2234 409.2235
   409.6591 409.6592 411.4716 411.4725 411.8872 411.8874 412.5939 412.5946
   413.5592 413.5593 414.7054 414.7059 416.8004 416.8005 417.2835 417.2839
   419.2646 419.2647 419.7460 419.7465 420.0778 420.0779 420.8596 420.8598
   421.3991 421.3991 421.7634 421.7637 423.6030 423.6032 423.7692 423.7700
   424.1444 424.1446 424.6812 424.6814 425.0988 425.0991 426.1315 426.1319
   426.3295 426.3297 427.0359 427.0366 427.6446 427.6453 427.7408 427.7412
   428.2031 428.2033 428.4430 428.4431 428.6331 428.6332 429.3926 429.3931
   429.9490 429.9492 430.3200 430.3203 431.6313 431.6314 432.4591 432.4598
   434.0608 434.0610 436.4726 436.4729 436.6592 436.6593 437.0252 437.0253
   437.6344 437.6352 438.2271 438.2272 439.9288 439.9289 440.7139 440.7141
   440.8215 440.8219 441.4085 441.4090 441.8670 441.8677 442.6528 442.6530
   443.7599 443.7601 444.2624 444.2626 444.6169 444.6170 445.4488 445.4499
   445.9462 445.9463 446.3386 446.3387 447.1398 447.1404 447.3287 447.3287
   449.1675 449.1676 450.1277 450.1283 450.7959 450.7964 451.7617 451.7624
   451.7996 451.8002 452.2198 452.2198 452.6728 452.6734 453.4531 453.4532
   453.6420 453.6421 453.7692 453.7697 453.9663 453.9667 455.6532 455.6532
   458.0252 458.0258 458.2463 458.2471 458.6885 458.6886 459.1136 459.1144
   459.4547 459.4548 459.5827 459.5828 460.2808 460.2812 461.5746 461.5749
   462.9501 462.9505 463.3924 463.3924 463.5649 463.5653 463.7846 463.7848
   463.9478 463.9483 464.1814 464.1819 464.7352 464.7353 464.8571 464.8582
   465.1756 465.1759 467.1840 467.1841 467.2595 467.2595 467.7061 467.7064
   467.7683 467.7687 468.4493 468.4496 470.4192 470.4194 470.7517 470.7528
   471.6025 471.6038 472.5510 472.5515 473.3878 473.3888 473.4714 473.4718
   473.8140 473.8144 474.1099 474.1101 474.6357 474.6367 475.1829 475.1833
   475.6715 475.6720 476.6699 476.6704 476.9045 476.9048 477.1528 477.1535
   478.1914 478.1915 478.9792 478.9793 479.3235 479.3238 481.5406 481.5413
   482.3149 482.3150 483.0732 483.0739 484.4381 484.4381 485.9135 485.9140
   486.2735 486.2736 487.6049 487.6057 488.6135 488.6138 488.8161 488.8164
   490.1080 490.1085 490.8117 490.8119 490.9933 490.9935 491.5404 491.5411
   491.7197 491.7206 492.3836 492.3840 492.4641 492.4647 492.6974 492.6975
   492.8210 492.8211 493.2992 493.2993 494.2942 494.2943 494.4082 494.4083
   495.0159 495.0162 495.1833 495.1837 495.7441 495.7444 496.2852 496.2854
   498.1851 498.1853 498.6238 498.6248 499.5194 499.5196 499.6852 499.6855
   500.2385 500.2385 500.5583 500.5588 501.6738 501.6741 501.8227 501.8229
   502.7360 502.7362 503.8110 503.8111 504.0683 504.0686 505.3938 505.3939
   506.7082 506.7088 507.3026 507.3026 507.5146 507.5154 507.8262 507.8272
   509.1039 509.1047 510.6109 510.6125 511.0858 511.0860 511.7998 511.7999
   512.2451 512.2452 512.7290 512.7291 512.9995 512.9998 513.0494 513.0496
   513.5228 513.5230 514.0573 514.0575 514.6194 514.6195 514.8196 514.8197
   514.8750 514.8751 515.0425 515.0426 515.6292 515.6293 516.3868 516.3873
   516.8281 516.8281 516.8596 516.8597 516.8880 516.8881 517.0526 517.0527
   517.5010 517.5013 518.1464 518.1469 518.4667 518.4668 518.7117 518.7120
   519.2836 519.2839 520.1609 520.1615 520.4073 520.4090 523.3650 523.3652
   523.9265 523.9265 524.2215 524.2215 524.4074 524.4075 524.6720 524.6724
   524.8846 524.8847 525.0349 525.0355 525.3434 525.3438 525.4374 525.4376
   527.4914 527.4921 528.2813 528.2817 528.8598 528.8603 529.4313 529.4325
   530.1973 530.1976 530.4365 530.4370 530.9755 530.9757 532.2510 532.2511

     the Fermi energy is     2.7134 ev
     (compare with:     3.3718 eV, computed in scf)

     Writing all to output data dir out/mp-984.save/
 
     init_run     :      0.04s CPU      0.05s WALL (       1 calls)
     electrons    :    559.79s CPU    601.89s WALL (       1 calls)

     Called by init_run:
     wfcinit      :      0.00s CPU      0.00s WALL (       1 calls)
     potinit      :      0.01s CPU      0.01s WALL (       1 calls)
     hinit0       :      0.02s CPU      0.02s WALL (       1 calls)

     Called by electrons:
     c_bands      :    559.78s CPU    601.89s WALL (       1 calls)
     v_of_rho     :      0.01s CPU      0.01s WALL (       1 calls)

     Called by c_bands:
     init_us_2    :      0.00s CPU      0.00s WALL (       8 calls)
     init_us_2:cp :      0.00s CPU      0.00s WALL (       8 calls)
     paro_k       :    541.71s CPU    582.57s WALL (       8 calls)

     Called by paro_*:
     h_psi        :      8.11s CPU      8.57s WALL (     834 calls)
     g_psi        :      0.22s CPU      0.25s WALL (   80393 calls)

     Called by h_psi:
     h_psi:calbec :      0.24s CPU      0.25s WALL (     834 calls)
     vloc_psi     :      7.63s CPU      8.08s WALL (     834 calls)
     add_vuspsi   :      0.17s CPU      0.18s WALL (     834 calls)

     General routines
     calbec       :      0.23s CPU      0.25s WALL (     834 calls)
     fft          :      0.00s CPU      0.01s WALL (      10 calls)
     fftw         :      6.83s CPU      7.24s WALL (  132144 calls)
 
     Parallel routines
 
     PWSCF        :   9m20.51s CPU  10m 2.94s WALL

 
   This run was terminated on:  12:45: 9  18Nov2023            

=------------------------------------------------------------------------------=
   JOB DONE.
=------------------------------------------------------------------------------=
