
     Program PWSCF v.7.1 starts on  5Apr2024 at 11:36:59 

     This program is part of the open-source Quantum ESPRESSO suite
     for quantum simulation of materials; please cite
         "P. Giannozzi et al., J. Phys.:Condens. Matter 21 395502 (2009);
         "P. Giannozzi et al., J. Phys.:Condens. Matter 29 465901 (2017);
         "P. Giannozzi et al., J. Chem. Phys. 152 154105 (2020);
          URL http://www.quantum-espresso.org", 
     in publications or presentations arising from this work. More details at
     http://www.quantum-espresso.org/quote

     Parallel version (MPI), running on     8 processors

     MPI processes distributed on     1 nodes
     225923 MiB available memory on the printing compute node when the environment starts
 
     Reading input from pw_BN_nscf_k101_E62.in
Warning: card &IONS ignored
Warning: card / ignored
Warning: card &CELL ignored
Warning: card / ignored

     Current dimensions of program PWSCF are:
     Max number of different atomic species (ntypx) = 10
     Max number of k-points (npk) =  40000
     Max angular momentum in pseudopotentials (lmaxx) =  4

     Atomic positions and unit cell read from directory:
     out/BN.save/
     Atomic positions from file used, from input discarded
 
 
     R & G space division:  proc/nbgrp/npool/nimage =       8
     Subspace diagonalization in iterative solution of the eigenvalue problem:
     one sub-group per band group will be used
     scalapack distributed-memory algorithm (size of sub-group:  2*  2 procs)

 
     Parallelization info
     --------------------
     sticks:   dense  smooth     PW     G-vecs:    dense   smooth      PW
     Min          47      47     15                 5093     5093     867
     Max          48      48     16                 5114     5114     882
     Sum         379     379    121                40811    40811    7001
 
     Using Slab Decomposition
 


     bravais-lattice index     =            4
     lattice parameter (alat)  =       4.7160  a.u.
     unit-cell volume          =     618.7652 (a.u.)^3
     number of atoms/cell      =            2
     number of atomic types    =            2
     number of electrons       =         8.00
     number of Kohn-Sham states=         1200
     kinetic-energy cutoff     =      62.0000  Ry
     charge density cutoff     =     248.0000  Ry
     Exchange-correlation= PBE
                           (   1   4   3   4   0   0   0)

     celldm(1)=   4.716000  celldm(2)=   0.000000  celldm(3)=   6.811990
     celldm(4)=   0.000000  celldm(5)=   0.000000  celldm(6)=   0.000000

     crystal axes: (cart. coord. in units of alat)
               a(1) = (   1.000000   0.000000   0.000000 )  
               a(2) = (  -0.500000   0.866025   0.000000 )  
               a(3) = (   0.000000   0.000000   6.811990 )  

     reciprocal axes: (cart. coord. in units 2 pi/alat)
               b(1) = (  1.000000  0.577350  0.000000 )  
               b(2) = (  0.000000  1.154701  0.000000 )  
               b(3) = (  0.000000  0.000000  0.146800 )  


     PseudoPot. # 1 for B  read from file:
     /usr/scratch4/magr4985/FGWC/FGWC/pseudo/SG15/B.upf
     MD5 check sum: eb3cbeacc2d324d57d903df00f564d27
     Pseudo is Norm-conserving, Zval =  3.0
     Generated using ONCVPSP code by D. R. Hamann
     Using radial grid of  602 points,  4 beta functions with: 
                l(1) =   0
                l(2) =   0
                l(3) =   1
                l(4) =   1

     PseudoPot. # 2 for N  read from file:
     /usr/scratch4/magr4985/FGWC/FGWC/pseudo/SG15/N.upf
     MD5 check sum: c233fa8df51455e992258b7c3dee8a9f
     Pseudo is Norm-conserving, Zval =  5.0
     Generated using ONCVPSP code by D. R. Hamann
     Using radial grid of  602 points,  4 beta functions with: 
                l(1) =   0
                l(2) =   0
                l(3) =   1
                l(4) =   1

     atomic species   valence    mass     pseudopotential
        B              3.00    10.81100     B ( 1.00)
        N              5.00    14.00670     N ( 1.00)

     12 Sym. Ops. (no inversion) found



   Cartesian axes

     site n.     atom                  positions (alat units)
         1           B   tau(   1) = (   0.0000000   0.5773502   0.0000000  )
         2           N   tau(   2) = (   0.5000000   0.2886752   0.0000000  )

     number of k points=    10  Gaussian smearing, width (Ry)=  0.0005
                       cart. coord. in units 2pi/alat
        k(    1) = (   0.0000000   0.0000000   0.0000000), wk =   0.0312500
        k(    2) = (   0.0000000   0.1443376   0.0000000), wk =   0.1875000
        k(    3) = (   0.0000000   0.2886751   0.0000000), wk =   0.1875000
        k(    4) = (   0.0000000   0.4330127   0.0000000), wk =   0.1875000
        k(    5) = (   0.0000000  -0.5773503   0.0000000), wk =   0.0937500
        k(    6) = (   0.1250000   0.2165064   0.0000000), wk =   0.1875000
        k(    7) = (   0.1250000   0.3608439   0.0000000), wk =   0.3750000
        k(    8) = (   0.1250000   0.5051815   0.0000000), wk =   0.3750000
        k(    9) = (   0.2500000   0.4330127   0.0000000), wk =   0.1875000
        k(   10) = (   0.2500000   0.5773503   0.0000000), wk =   0.1875000

     Dense  grid:    40811 G-vectors     FFT dimensions: (  24,  24, 162)

     Estimated max dynamical RAM per process >     243.74 MB

     Estimated total dynamical RAM >       1.90 GB

     The potential is recalculated from file :
     out/BN.save/charge-density

     Starting wfcs are random

     Band Structure Calculation
     Davidson diagonalization with overlap

     ethr =  5.00E-06,  avg # of iterations =  9.8

     total cpu time spent up to now is      575.2 secs

     End of band structure calculation

          k = 0.0000 0.0000 0.0000 (  5055 PWs)   bands (ev):

   -21.4317  -9.0300  -5.0945  -5.0945   0.9668   1.9002   2.3095   3.6625
     4.2112   6.4787   7.1441   7.9537   7.9537   9.2346  10.0376  11.7318
    12.8396  16.4755  17.8816  22.0185  22.4148  24.4763  26.4629  26.4629
    28.1984  29.3598  29.3599  31.8342  31.9292  32.2780  32.2780  33.0366
    33.0366  33.4295  33.5888  33.9369  34.4164  34.4164  34.4205  34.4205
    34.4916  34.4916  34.5623  34.6330  34.6330  34.6456  34.7921  35.5256
    36.0550  36.0550  36.2733  36.2733  36.3646  36.3704  36.3704  36.5840
    36.5840  36.6048  37.1204  38.1983  38.7624  38.9633  38.9633  39.4746
    39.4746  39.5053  39.5053  39.7571  39.9166  39.9166  40.5852  40.6586
    40.8531  42.3542  42.8298  42.8298  43.7413  43.7413  43.9018  43.9018
    44.2242  44.3066  44.4076  44.4076  45.1227  47.0268  47.0268  47.2842
    48.2027  49.1443  49.1443  49.3978  49.3978  49.6540  49.9757  49.9757
    50.5411  50.8426  50.8617  51.4860  51.4860  53.7717  55.6254  55.6254
    55.7723  55.9952  55.9952  56.4181  56.6201  56.6201  57.3550  57.3623
    57.3623  59.6800  61.1681  61.3585  63.1396  63.1396  63.6703  63.6703
    64.0672  64.1286  64.3285  64.3285  64.7263  64.7263  65.0410  69.0299
    70.4037  70.7669  70.7669  72.2659  72.3272  72.3272  72.4100  72.4100
    72.6582  73.0812  73.0812  73.3555  73.3555  74.0464  74.1080  76.9888
    78.5112  80.1741  80.9550  80.9550  81.3275  82.2027  82.2027  82.3355
    82.8425  82.8425  83.0319  83.0319  85.0385  85.2976  87.6272  87.9176
    87.9645  87.9645  90.1074  90.3505  90.3505  92.4825  92.4825  92.8090
    93.1697  93.1697  93.2321  93.6417  93.6417  94.0693  94.0856  94.0856
    94.2751  94.2751  94.7734  96.3680  96.3680  97.7647  97.7647  97.7777
    98.0648  98.1932  98.7790  98.7790  98.8004  98.8004  98.9361  98.9361
    98.9502  98.9502  98.9596  98.9962  99.0564  99.2660 100.2299 100.2299
   100.3579 100.5974 100.6261 100.6261 100.8326 100.8326 100.9282 100.9631
   100.9631 101.0150 101.4720 101.6633 102.8555 102.8555 103.2097 103.7595
   103.7595 103.8857 104.1133 104.1133 104.1343 104.1343 104.2507 104.2796
   104.8635 105.0157 105.0157 105.3192 105.3192 105.4634 105.5977 105.5977
   105.8377 105.8377 105.8794 105.8794 106.3444 107.8827 108.2592 108.2592
   108.5637 108.5637 108.5799 108.5799 108.7066 108.7353 108.8520 108.8520
   109.3069 109.6449 111.6526 113.5231 113.5231 113.5804 113.5942 113.5942
   113.8581 114.0823 114.0823 114.1327 114.1327 114.2755 114.3034 114.6670
   114.8309 116.3636 117.8801 117.8801 117.8887 117.8887 118.0986 118.4731
   118.4731 118.6983 118.6983 119.4028 120.0813 120.1938 120.1938 120.2146
   120.2146 120.4871 120.6218 120.6218 120.7638 120.7638 120.9324 120.9555
   122.2682 123.3512 123.8658 123.8658 124.6095 124.6935 124.6935 126.7269
   127.0189 127.0189 128.1153 128.1153 128.2910 128.2910 128.5036 128.5036
   128.6605 128.6777 128.7059 128.8630 128.8630 129.5819 129.9053 129.9053
   130.0125 130.0680 130.1519 130.9601 130.9601 131.0364 131.0364 131.1182
   131.1315 131.1315 131.1349 131.1508 131.1509 131.1509 131.1880 131.6005
   131.7426 131.7426 132.0105 132.0105 132.6087 132.7336 132.7336 132.8316
   132.8316 132.9050 132.9300 132.9300 132.9962 132.9962 133.0337 133.0388
   133.0388 133.0612 133.0612 133.2247 133.2652 133.6393 134.4258 135.5330
   135.5330 135.5549 135.8282 135.8282 136.0115 136.0350 136.0350 136.1609
   136.1609 136.5713 136.7792 136.8202 136.8202 137.0598 137.0598 137.0840
   137.2732 137.2732 137.2986 137.2986 137.4520 137.4587 139.1588 139.8907
   139.8907 139.9434 140.6023 140.6023 140.7059 140.7059 140.7950 140.7950
   140.8312 140.9822 141.6084 142.6759 143.8032 144.6088 144.6088 145.3147
   145.3147 145.6839 145.6839 146.0086 146.0086 146.2544 146.3269 146.4633
   146.4916 146.5881 146.5881 146.7972 146.7972 146.8292 146.8292 146.9367
   146.9367 147.2905 147.3029 147.4066 147.4066 147.4346 147.4346 147.5914
   147.6556 147.7327 148.2047 148.2047 148.2073 148.2073 149.3230 149.3394
   149.9500 151.6666 151.6666 152.1745 152.7035 152.7035 152.7413 152.7413
   152.8492 152.9003 152.9003 153.2436 154.0207 155.5645 156.3237 156.3237
   157.3425 157.3425 157.9148 157.9148 157.9278 157.9278 158.1767 158.1839
   158.1940 158.6977 158.6977 159.3968 160.3653 160.3653 160.6407 160.6407
   160.7062 160.7062 160.8213 160.9117 161.2446 161.2469 162.4330 162.9904
   162.9904 163.1199 163.2639 163.2639 163.9210 163.9210 164.0689 164.0689
   164.7360 166.5297 166.5297 166.6190 167.1007 167.9206 168.0290 168.0290
   168.5361 168.6516 168.6516 169.0090 169.0090 169.7183 169.7957 169.7957
   169.9271 169.9271 170.0425 170.0711 170.0711 170.0850 170.0850 170.1248
   170.1335 170.1818 171.3082 173.3855 173.3855 175.2532 177.6919 178.5635
   178.5635 178.7095 178.7095 179.0868 179.0868 179.2995 179.4464 179.4734
   179.7626 179.8758 180.0069 180.0069 180.3485 180.3485 180.4838 180.4838
   180.9640 180.9640 181.0351 181.0351 181.6088 182.1250 182.1250 182.5987
   182.7473 182.7473 182.9283 182.9283 182.9543 182.9543 183.1086 183.1203
   183.7640 185.7568 186.1474 187.7651 187.7651 188.3577 189.7516 189.7516
   189.8087 189.8087 189.9406 190.0458 190.0458 190.2963 190.3518 190.4257
   190.4257 193.4313 194.8973 195.8664 195.8664 196.0216 196.1561 196.1561
   196.6762 196.8665 196.8665 196.9042 196.9042 197.1472 197.1509 197.2579
   198.5175 198.5175 198.5433 198.5433 199.3334 199.5458 199.5746 199.5746
   199.5839 199.5839 199.8808 199.8808 201.0671 201.6658 201.7602 201.7602
   201.9244 201.9244 202.0345 202.0345 202.0485 202.0657 202.2523 202.2523
   205.4268 205.7797 207.1360 207.1360 208.2597 208.3330 208.8676 209.8508
   210.5109 211.0183 211.0183 211.1686 211.1686 211.9088 211.9088 211.9540
   211.9540 212.2210 212.2534 214.3250 214.3250 214.3288 214.3288 214.3621
   214.9813 214.9813 215.0534 215.0534 215.2200 215.7490 216.0441 216.0494
   217.5028 217.8125 217.8564 217.8564 217.8658 217.8658 218.2552 218.2552
   218.6925 218.6925 218.6939 218.6939 219.0830 219.0830 219.2769 219.6808
   219.7124 221.1003 222.1520 222.1520 222.7034 222.7034 222.9060 224.5359
   224.5359 224.5954 225.3403 225.3403 226.0760 226.0760 226.1177 226.5770
   226.6900 226.6900 226.7398 226.7443 226.7505 226.9480 226.9480 227.0864
   227.0864 227.5135 227.5135 227.5281 227.5281 227.5565 227.5565 227.6113
   227.6314 227.6568 227.6568 227.6897 227.7041 227.7603 227.7603 227.7609
   227.7609 227.7735 227.7939 227.7939 227.8003 227.8190 227.8243 227.8243
   227.8446 227.8650 227.8747 227.8747 227.9377 227.9578 227.9578 228.3500
   228.3571 228.5168 228.5168 228.7971 228.8547 228.8547 229.1939 229.1939
   229.2091 229.2091 229.4243 229.4401 229.4583 229.4884 229.4970 229.4970
   229.5033 229.5258 229.5258 229.5632 229.5632 229.5702 229.5702 229.5730
   229.6818 229.6818 229.7274 229.7624 229.7624 229.8260 229.8260 229.8554
   229.8978 229.8978 229.9328 230.3381 230.7279 232.2260 232.2260 232.2868
   232.4478 232.4478 232.5503 232.5503 232.6445 232.6445 232.7238 232.7322
   232.8186 232.8186 232.8853 233.0583 233.0583 233.1634 233.1634 233.1824
   233.1824 233.2052 233.2362 233.3132 233.4681 234.4085 236.1795 236.1795
   236.5812 236.5812 236.7988 236.8353 236.8353 236.8582 236.9225 236.9998
   236.9998 237.0930 237.1257 237.1382 237.1382 237.5270 237.5270 237.6171
   237.6171 237.6627 237.6627 237.6855 237.7158 237.7256 237.9541 238.0248
   238.0248 238.1119 238.1119 238.8721 238.8721 238.9640 238.9640 239.0740
   239.3428 241.0519 241.0519 241.3741 241.7544 241.7544 242.0035 242.1641
   242.1641 242.4328 242.4328 242.4824 242.4824 242.6091 242.6270 243.0437
   243.0437 243.1021 243.1103 243.1659 243.1659 243.2246 243.2246 243.2371
   243.2641 243.2972 243.4100 243.4100 243.5535 243.5535 243.5563 243.6699
   243.6699 243.8310 243.8310 244.5615 245.1023 245.2029 245.2029 245.3313
   245.3313 245.4008 245.4008 245.4200 245.4200 245.4606 245.5178 245.5190
   245.8654 247.9785 247.9785 248.4444 248.5166 248.5166 248.9171 248.9171
   249.0870 249.0870 249.2211 249.2330 249.2362 249.2515 249.2515 249.6361
   249.6764 249.7408 249.7408 249.8552 249.8552 249.9104 249.9104 249.9497
   249.9771 250.0010 250.5677 253.0996 253.0996 253.8134 255.6736 255.6736
   256.4094 256.4094 256.4125 256.7006 256.7006 256.7940 256.7940 256.9105
   256.9164 256.9987 257.0353 257.4255 257.4255 257.5357 257.5357 257.6247
   257.6247 257.6316 257.6818 257.7027 258.1855 258.5117 258.5117 258.8045
   258.8045 259.0570 259.0570 259.3756 259.9732 259.9732 260.0637 260.0997
   260.0997 260.1601 260.1601 260.1985 260.2185 260.2185 260.2938 260.2938
   260.3615 260.3807 260.4705 260.4705 261.1458 262.6992 263.2667 263.2667
   263.3615 263.3615 263.3908 263.4344 263.4344 263.5199 263.5199 263.7066
   263.7136 263.8100 263.8100 263.8589 264.7876 264.7876 264.8173 265.3112
   265.3112 265.5025 265.5025 265.6600 265.6600 265.6708 265.6722 265.9134
   266.2302 266.2302 266.4287 266.4287 266.4988 266.5075 266.5420 266.5656
   266.5656 266.6480 266.6480 267.1853 271.6138 271.8266 272.9677 273.8105
   273.8105 273.9687 274.8183 274.8183 275.1123 275.1947 275.1947 275.2522
   275.2522 275.4827 275.4898 275.9917 275.9917 275.9952 275.9952 276.0645
   276.2389 276.2389 276.2748 276.2748 276.3269 276.3288 276.3417 276.3556
   276.7660 277.0339 277.0339 277.1026 277.1026 277.1870 277.1870 277.2780
   277.2780 277.7211 278.6076 279.4300 279.9204 281.3058 281.3058 281.3954
   281.5697 281.5697 281.7508 281.7508 281.8577 281.8577 282.8315 282.8315
   282.8412 282.8412 282.9640 282.9644 283.0650 283.2703 283.2703 283.2967
   283.2967 283.4517 283.7109 284.3698 284.8478 284.8478 284.9508 284.9852
   284.9852 285.1192 285.1192 285.6907 286.0577 286.0577 286.1956 286.1956
   286.2856 286.2856 286.3578 286.3624 286.6815 286.6815 286.9116 287.0833
   287.1629 287.1629 287.1707 287.1707 287.2321 287.2321 287.2414 287.2527
   287.9779 290.2901 290.2901 290.7339 290.7339 290.7687 291.1978 291.9919
   292.0467 292.0467 292.1042 292.1042 292.1066 292.1085 292.1085 292.1181
   292.1181 292.1236 292.2102 292.9904 293.6612 293.6612 293.8012 293.9647
   293.9647 293.9794 293.9794 293.9927 294.0376 294.0376 294.0737 294.2664
   294.4435 294.4435 294.6874 295.0900 295.0900 295.3067 295.3067 295.4328
   295.4328 295.7267 296.1187 296.5856 296.5884 296.5884 297.1564 297.1564
   297.1642 297.1642 297.1714 297.1898 297.1898 297.2340 297.2546 297.3585
   297.5383 297.5383 297.7073 297.8830 298.0244 298.0244 298.1017 298.1017
   298.1429 298.1429 298.2798 298.2854 298.4525 298.6537 298.6537 298.7431
   298.8808 298.8808 299.0889 299.0889 299.0894 299.0894 299.1643 299.1749
   299.7151 300.8832 301.2362 301.2362 301.6568 301.6568 301.6823 301.7016
   301.7134 301.7134 301.7244 301.7244 301.7609 301.8108 302.2289 302.2289
   302.3181 302.3757 302.3757 303.0097 303.0097 303.0114 303.0114 303.2669
   303.2774 303.4176 304.7314 305.1568 305.1568 305.2973 305.2973 306.2825
   306.2825 306.2972 306.2972 306.3040 306.4774 306.5437 306.5437 307.0032
   307.1585 307.1585 307.1757 307.1757 307.1818 307.1973 307.1973 307.2105
   307.9100 309.5309 309.5464 309.5464 310.6781 310.6781 310.8471 310.8471
   310.9908 310.9908 311.1674 311.2527 311.2613 311.4345 311.4345 311.5865
   311.8426 311.8426 312.0729 312.0729 312.0786 312.0786 312.1680 312.1811

          k = 0.0000 0.1443 0.0000 (  5044 PWs)   bands (ev):

   -21.1318  -8.6237  -6.2831  -5.6487   1.4787   2.3766   2.8139   4.1250
     4.7169   6.7596   7.4704   8.0277   8.8126   9.2569  10.7965  11.8782
    13.4392  16.7664  18.4116  21.8188  22.6676  23.8455  24.1714  24.8514
    26.0080  27.0027  27.0223  27.8177  28.9638  29.0261  29.2332  30.1864
    30.3960  30.9221  30.9366  31.0937  31.4858  32.0973  32.1269  32.4019
    32.5187  32.7185  33.1847  33.2189  33.3345  35.4325  35.7008  36.0853
    36.2105  36.3131  36.6324  36.6655  37.0393  37.9888  38.6477  38.9392
    39.0441  39.0527  39.4665  39.8747  39.9948  40.0292  40.5469  40.6816
    40.7256  41.0429  41.1361  41.2459  41.7226  42.0812  42.1892  42.9349
    42.9822  43.2208  43.7127  44.0650  44.2259  44.4999  44.8676  44.9868
    45.3635  46.0119  46.1586  46.8506  47.0025  47.2230  47.9916  48.0528
    48.7003  48.7743  49.1819  49.5448  49.7713  49.7905  51.1581  51.5964
    52.6330  52.7168  52.7299  52.8361  53.3252  53.8674  54.2709  54.7048
    54.7665  55.8227  56.6875  57.3494  58.4161  58.8924  59.5155  59.8142
    60.2915  60.6196  61.0179  61.1361  61.2866  61.7865  61.9443  64.0574
    64.7036  64.7853  65.5082  66.0744  67.0785  67.8864  67.9482  68.3369
    68.4014  69.3409  69.4636  69.6791  71.3499  72.2705  72.3617  72.8984
    73.5378  74.4027  75.2594  76.1265  76.4256  76.7050  77.2082  77.2242
    78.7450  78.8695  78.9766  79.5417  80.4995  80.8807  80.9500  81.7114
    82.6734  83.4936  84.1825  85.4835  85.8777  86.0462  86.3548  86.4680
    86.4818  86.9854  87.1412  87.2309  87.3460  87.3617  87.8343  88.4955
    88.5247  88.5887  89.1622  89.3288  89.3873  89.8816  89.8884  90.5433
    90.6967  90.7149  91.3436  91.8248  91.9941  92.5010  92.7196  92.7278
    93.3991  95.1548  96.4700  96.8343  96.8376  96.9956  97.4337  97.6672
    97.7000  97.8634  97.9773  98.1232  98.1751  98.4873  99.3453  99.3669
    99.4471  99.4827  99.9185 100.8682 101.1376 101.1438 101.1854 101.5202
   101.5758 101.6381 101.8999 101.9254 102.1716 102.1748 102.4773 102.5843
   102.6774 103.1651 103.2605 104.1038 104.3489 104.5754 105.0840 105.2048
   106.7379 107.0868 107.6301 108.2388 108.6581 108.9405 108.9852 109.2548
   109.2611 109.2781 109.4661 109.5198 109.9887 110.0087 110.1777 110.7585
   110.7602 110.9099 111.0965 111.4708 111.5155 111.5967 111.9066 112.7401
   113.3314 113.3842 113.5366 113.5998 113.8594 114.0019 114.1543 114.2807
   114.3300 114.5022 114.8547 114.9680 114.9749 115.3016 115.4437 115.4801
   115.7250 116.0593 116.1814 116.3367 116.4458 116.7022 116.7330 116.7644
   116.8497 116.9768 117.4703 117.6346 117.6518 118.6426 119.9412 119.9569
   120.2852 120.5535 120.8263 120.9812 121.1171 121.2441 121.2713 121.3021
   121.5702 121.9910 122.1028 122.4426 122.9435 122.9653 123.2505 123.4801
   123.5444 123.5594 123.7464 123.7884 124.2593 124.7184 125.1687 125.2133
   125.2858 125.2993 125.4119 125.6582 125.7305 125.7600 125.8637 126.2904
   126.6025 126.6175 126.7604 127.1360 127.4422 127.7736 128.0575 128.3419
   128.3603 128.3658 128.6507 129.0602 129.1237 129.2320 129.2976 129.3008
   130.0312 130.5603 130.8046 131.1497 131.9479 132.2717 132.4037 132.6553
   132.7904 132.9311 133.1183 133.1998 133.2591 133.6903 133.7239 134.5225
   135.2053 135.4260 135.4700 135.6478 136.3895 136.4336 136.8054 136.9930
   137.1370 137.3056 137.6530 137.6595 137.9580 138.2722 138.5183 138.5265
   138.6470 138.7390 139.2383 139.2935 139.5064 139.6387 139.6595 139.6653
   139.7359 140.1223 140.2796 140.6877 140.8684 140.9940 141.3514 141.4951
   141.5176 141.6291 141.8073 141.9310 142.4435 143.3559 143.8964 144.1375
   144.2807 144.4260 144.4444 144.7679 144.7813 144.8023 144.8225 145.1092
   145.2072 145.6588 146.0668 146.1799 146.2772 146.5068 146.6848 146.8856
   147.0296 147.3731 147.6365 147.6842 148.0304 148.2130 148.7457 148.9031
   148.9219 149.1115 149.1578 149.2819 149.7696 149.7743 149.8641 149.9177
   150.2060 150.5950 151.3650 151.5051 152.0468 152.5414 152.5957 152.7136
   152.8715 152.9636 153.3839 153.4081 153.7848 154.1971 154.3822 154.7404
   155.0097 155.1791 155.4742 155.8970 155.9552 156.8227 156.8248 156.8256
   157.2260 157.8119 157.8493 158.2704 158.4640 158.4886 158.7628 159.0605
   159.1629 159.2738 159.6256 159.6450 159.8546 160.1430 160.2747 160.5944
   160.7084 161.1948 161.4277 161.6555 161.7280 161.8480 162.2017 162.4659
   162.7950 163.3902 163.7292 164.7872 165.1669 165.6741 166.9441 167.2874
   167.7161 168.0124 168.3537 168.4689 168.6741 168.8448 169.2206 169.3012
   169.5380 169.8651 169.9044 170.1176 170.2137 170.3420 170.6458 170.6556
   170.6748 171.1347 171.1906 171.2186 171.2280 171.7851 171.8222 172.0844
   172.0904 172.7233 172.7834 172.9132 173.2211 174.4460 174.8041 175.9977
   176.9320 177.0914 177.2151 177.2941 177.4414 177.6824 177.7789 177.8267
   178.0459 179.8307 180.1500 180.5855 181.8778 181.9789 182.3718 182.4057
   182.4519 182.8534 183.0063 183.3587 183.4079 183.7302 183.9391 184.1497
   184.8563 185.0446 185.1010 185.3353 185.4425 185.6096 185.7080 185.7896
   186.1627 186.1800 186.2789 186.4966 187.1746 187.1880 187.5606 187.6840
   188.6377 188.7861 189.0668 190.0940 190.4364 191.0344 193.0263 193.6181
   193.9159 194.0578 194.0767 194.6246 194.6987 194.7207 195.1068 195.2176
   195.5599 195.5677 195.8061 195.9065 196.5779 196.9282 197.2145 197.3821
   197.7161 197.7807 198.3916 198.4147 198.5585 198.6025 199.0160 199.4183
   199.4722 200.0905 200.3597 200.5535 200.5659 200.9980 201.7988 202.8145
   203.5617 203.6136 204.4368 204.4466 205.4162 205.4983 206.2317 206.3271
   206.6323 206.7382 206.8870 206.9952 207.2499 207.3077 207.5368 207.6547
   208.0104 208.0407 208.1136 208.1792 208.4977 208.8646 208.9651 209.2408
   209.2507 209.5496 209.5527 209.9441 209.9739 210.0575 210.2087 210.2142
   210.3543 210.4716 210.6628 210.7959 211.2157 211.5033 211.9532 212.0469
   212.0721 212.0934 212.2157 212.2527 212.3083 212.6490 212.6744 213.0049
   213.1449 213.2959 213.3179 213.5043 213.9267 213.9323 213.9960 214.0759
   214.1236 214.2260 214.7044 214.7450 215.3228 215.6569 216.1820 216.2711
   216.4093 216.4359 216.6386 217.0628 217.2194 217.2758 217.2764 217.6716
   217.8554 217.9231 218.0196 218.1945 218.7784 219.7033 219.9961 220.6647
   221.1780 221.3829 221.3922 221.6719 221.7378 221.7839 221.9921 222.1359
   222.1829 222.5582 222.6235 222.6850 222.9800 223.0077 223.1588 223.2075
   223.3352 223.3891 223.6547 223.8741 224.0552 224.1600 224.1964 224.1996
   224.4157 224.6422 224.7171 224.9599 225.1741 225.3213 225.5490 225.7730
   226.1226 226.2233 226.2662 226.2738 226.5563 226.9761 227.0223 227.1730
   227.3605 227.6729 227.9621 228.0245 228.2240 228.3544 228.4732 228.4824
   228.8364 229.0768 229.3360 229.3754 229.4667 229.7521 229.8791 229.9844
   230.0014 230.1993 230.6670 230.7156 231.1299 231.1394 231.9233 232.1331
   232.1811 232.1976 232.2809 232.3490 232.6883 233.3179 233.3473 233.4648
   233.4805 233.6402 233.7720 233.8944 233.9117 233.9229 234.0658 234.0806
   234.1195 234.1978 234.2969 234.3829 234.8476 234.9765 235.5201 235.5958
   236.0986 236.1781 236.2337 236.3619 236.5555 236.8142 236.9704 237.1853
   237.2400 237.2919 237.4257 237.4394 237.4704 237.5687 237.6703 237.7111
   237.7771 238.7041 239.0121 239.0770 239.2496 239.2681 239.6868 240.2225
   240.6571 240.8743 241.0618 241.3364 241.3687 241.4305 241.5111 241.6302
   241.6656 241.8305 242.0237 242.0741 242.4135 242.7283 242.7643 243.0562
   243.1069 243.1518 243.8439 243.9408 244.1589 244.3172 244.3200 244.3570
   244.5173 244.6924 245.2901 245.3360 245.4113 245.5979 245.7413 245.8132
   245.8881 245.9557 245.9676 246.0095 246.1229 246.1860 246.2034 246.2951
   246.4363 246.6199 246.7557 246.7674 246.9205 247.1471 247.3630 247.4124
   247.4620 247.7257 248.2422 248.2729 248.3127 248.3736 248.3858 248.9127
   249.1843 249.3512 249.3690 249.4098 249.7503 249.8532 250.1691 250.1748
   250.1792 250.3126 250.3391 250.4293 250.7060 250.7774 251.2417 251.4530
   251.5813 251.6252 251.8891 252.1465 252.2501 252.3512 252.3584 252.7049
   252.7568 252.7612 252.7615 253.0660 253.2594 253.3482 253.4651 253.4657
   253.4763 253.5029 253.5103 253.7890 253.9626 253.9775 254.0560 254.2262
   254.2517 254.3807 254.4153 254.9327 255.4308 255.7056 255.8131 256.2290
   256.2686 256.4201 256.4405 256.4987 256.5951 257.6259 257.7112 257.7704
   257.7996 257.9712 258.0301 258.2924 259.2270 259.2863 259.4362 259.6124
   259.7001 259.9454 260.0517 260.1142 260.3907 260.7907 261.0722 261.1340
   261.2884 261.4290 261.5086 261.7766 261.9979 262.0654 262.0827 262.4262
   262.6165 262.6412 263.1618 263.3133 263.3417 263.4959 263.4989 263.5798
   263.8481 264.0565 264.5344 264.5662 264.6315 265.3855 265.7205 265.8814
   265.9972 266.3551 266.7524 267.0339 267.1095 267.1715 267.2298 267.9326
   268.2595 268.4495 268.4676 268.4736 268.5517 268.8019 268.8636 269.0380
   269.1880 269.4706 269.6958 269.7023 269.7170 269.8782 270.2072 270.2368
   270.3371 270.3790 270.3903 270.3976 270.4092 270.6024 270.6602 270.9592
   271.1209 271.3866 271.4616 271.4783 271.6077 272.0716 272.1675 272.4672
   272.8568 272.8649 273.2168 273.5183 273.5914 273.6042 273.6761 273.8252
   273.8934 274.0036 274.0277 274.3067 274.7074 275.0345 275.4038 276.0435
   276.1046 276.3942 276.4794 276.7200 277.5622 277.6419 277.7207 277.8656
   277.9461 277.9563 278.2516 278.5297 278.5398 278.5627 278.6899 278.9143
   278.9269 279.0860 279.1612 279.7323 279.7900 279.8204 279.9646 280.0782
   280.2473 280.5004 280.5189 280.5230 280.5503 280.8123 281.6633 281.9336
   282.2142 282.2211 282.2662 282.3733 282.4154 282.5107 282.5203 282.6619
   282.6845 282.7729 282.8592 282.8855 282.9636 283.2370 283.2731 283.2874
   283.3283 283.4350 283.6050 283.6056 284.5544 285.1568 285.4024 285.6155
   285.6322 285.6474 285.7153 285.8212 286.0591 286.3192 286.3577 286.7451
   286.7484 286.7501 286.9648 286.9968 287.0534 287.5293 287.6980 287.8804
   288.5232 289.2944 289.8019 290.0644 290.0955 290.1049 290.1570 290.3510
   290.5866 290.6395 290.6914 290.8174 290.9399 290.9714 291.3718 291.4290
   291.5471 291.5588 291.9819 292.0470 292.0530 292.1089 292.2531 292.2568
   292.8290 293.3047 293.6880 294.1051 294.1747 294.7424 294.7760 294.9001
   295.2420 295.2760 295.3285 295.5076 295.6447 295.6745 295.8503 295.8738
   295.9886 296.0803 296.1063 296.1876 296.5512 296.5630 296.5638 296.8302
   297.4851 297.6159 297.8243 297.8447 297.9283 298.0435 298.6788 299.2709
   299.2941 300.8684 300.9032 301.6829 301.6872 301.8589 302.0006 302.1162
   302.2325 302.3216 302.3702 302.6236 302.8555 302.9248 302.9544 303.1373
   303.1964 303.2413 303.3213 303.3824 303.4089 303.4298 303.5620 304.0875
   304.2676 304.2814 304.2906 304.6953 304.7061 304.7126 304.7224 305.0214
   305.6472 305.8532 306.0058 306.1523 306.3849 306.4657 306.5740 306.5897
   306.7327 306.7400 306.8388 306.8809 306.9800 307.0632 307.4286 307.4697
   307.5263 307.7006 307.8106 308.0247 308.3372 308.7999 309.2851 309.3955
   309.4575 309.6890 309.7204 309.7787 309.8209 309.8349 309.9483 310.1227
   310.1489 310.2165 310.2541 310.2560 310.2959 310.6512 311.6168 311.6826
   311.8836 312.4324 312.7747 312.8342 313.1974 313.6378 313.7656 314.0687
   314.1097 314.1297 314.7245 314.8076 314.8419 314.9922 315.2045 315.4993

          k = 0.0000 0.2887 0.0000 (  5086 PWs)   bands (ev):

   -20.2741  -8.8582  -7.4536  -6.7409   2.9366   3.6672   4.3108   5.1406
     6.1028   6.4046   7.4051   8.9986   9.4358  12.4631  12.5542  12.9002
    14.8849  17.0226  19.0442  19.1982  20.0069  20.5468  20.7565  21.7921
    22.4160  22.4650  24.4445  24.6609  25.9220  25.9401  26.5991  26.7759
    27.6229  27.9463  28.4277  28.4686  28.7001  29.0727  30.1803  30.2136
    30.2340  30.3487  31.0616  31.5432  32.5211  33.2815  33.6005  33.7869
    34.2550  34.8309  35.7189  35.8272  37.3471  37.6593  37.8097  38.5460
    38.6281  40.2984  40.6298  40.7021  41.5188  42.2825  42.9937  43.2799
    43.4651  43.6146  44.0462  44.2567  44.3029  44.4837  44.6173  44.9222
    44.9710  45.3884  46.4963  46.6362  46.6757  46.8098  48.1370  49.1589
    49.4166  49.4641  49.6901  49.8582  50.1449  50.3342  50.5125  50.8029
    51.6870  51.8248  52.5309  52.5966  52.9149  53.5680  53.9145  54.0994
    54.2218  54.6538  55.0154  55.9935  57.4188  57.6090  57.6189  57.8185
    57.9084  58.3158  58.8373  59.2985  59.3161  59.7897  59.8333  61.3051
    62.2369  62.4481  62.5039  63.3782  64.2675  65.3453  65.6876  65.7266
    66.1895  66.8249  66.9137  67.1014  67.3866  67.7722  67.8963  68.6560
    69.2635  70.3638  70.6297  72.2050  73.2232  73.5808  73.6758  74.0400
    74.4413  74.9356  75.1020  75.5004  75.8567  75.9178  75.9348  76.4998
    76.6122  76.6456  76.7964  76.8541  76.9244  77.9939  78.1280  78.6963
    78.7246  79.0584  79.1480  79.6215  80.4931  80.9215  81.1770  81.3919
    81.9500  82.1260  82.2543  82.3365  82.8078  83.4869  83.5536  84.3677
    84.8904  86.3151  86.3423  86.3512  87.2106  87.2599  87.4310  88.0112
    88.3432  89.3861  89.8077  90.4208  90.4469  91.3102  91.4710  91.7125
    91.9226  91.9338  92.4784  92.6376  92.6884  93.5190  93.7682  93.8840
    94.0662  95.9761  96.4433  97.0368  98.0896  98.5309  98.6001  99.2585
    99.3809  99.3917  99.5166  99.5653  99.9290 100.0278 100.2830 100.4325
   100.8468 100.8644 100.9226 100.9532 100.9862 101.0408 101.3217 102.6521
   102.6805 102.6844 102.7397 102.7709 102.8758 103.2641 103.3283 103.4520
   103.6114 103.9617 103.9719 104.8951 105.1911 105.7410 105.8123 105.8222
   105.9142 106.3268 106.3591 106.3767 106.4021 107.8797 108.4352 109.3909
   109.6854 109.7948 109.8984 110.5942 110.7898 110.8802 111.1133 111.5846
   111.6481 111.8821 112.3603 112.4018 112.5916 113.7485 114.3949 114.6827
   114.7587 114.8092 115.0029 115.4251 115.5095 115.7453 115.8951 115.9167
   116.0045 116.1149 116.2719 116.6410 116.6843 116.8839 117.0227 117.0509
   117.0628 117.2401 117.6525 117.8634 118.0826 118.1667 118.6752 118.9054
   118.9075 118.9395 119.1727 120.4745 121.4321 121.6095 121.8937 121.9852
   122.1868 122.6328 122.6706 122.8625 122.9447 122.9557 122.9983 123.4805
   123.8968 124.0578 124.2417 124.7188 124.8412 124.8497 124.8602 125.0763
   125.0956 125.1015 125.5154 126.1048 126.1826 126.4634 126.4998 126.6815
   126.7285 126.7893 126.9816 127.0325 127.1157 127.4707 127.7011 128.3570
   128.4894 128.8829 129.6665 129.7524 130.0151 130.0962 130.1202 130.2686
   130.4225 130.4283 130.6417 131.2691 131.5766 131.8602 132.1425 132.2014
   132.3263 132.8392 133.1608 133.5032 134.2828 134.3288 134.6824 134.6921
   135.0207 135.0889 135.5317 135.7665 135.8420 136.2409 137.2571 137.7767
   137.8145 138.3664 138.4172 138.6408 139.0308 139.0710 139.2104 139.5203
   139.7081 139.8558 140.0567 140.2082 140.2688 140.3549 141.1384 141.3215
   141.6725 141.6827 142.3176 142.5571 142.5871 142.6079 142.9397 145.1261
   145.2085 145.7709 146.2497 146.2554 146.3175 146.7901 146.8534 146.9559
   147.2801 147.5670 147.8205 147.8273 148.0980 148.1110 148.4683 148.6387
   148.8697 149.0925 149.2153 149.2390 149.2491 149.2914 149.3893 149.4859
   149.5112 149.6507 150.5188 150.7125 150.7505 150.7565 151.1053 151.1179
   151.2563 152.3718 152.8815 153.4015 153.9094 153.9226 154.1793 154.2099
   154.6988 154.7703 154.7801 155.0726 155.1166 155.7006 155.7519 156.1966
   156.7665 157.2003 157.3313 157.7356 157.8562 157.9478 158.3152 158.3199
   158.7544 158.8452 158.8453 159.2029 159.2679 159.5371 159.6836 159.8878
   160.0413 160.4139 160.5980 160.7446 160.7858 161.1239 162.4741 162.4861
   163.1841 163.3212 163.7712 164.0982 164.1062 164.4108 164.5867 164.5997
   164.9971 165.0013 165.0696 165.0936 165.3969 165.3977 165.8523 165.9337
   166.7540 167.1980 167.5831 167.6398 167.7888 168.5514 169.8494 169.8825
   170.3866 170.5960 170.6833 170.6998 170.9599 171.1625 171.3191 171.6028
   171.6182 172.0428 172.2303 172.3451 172.8205 173.0908 173.2216 173.5558
   173.5918 173.6432 173.6736 174.2578 174.4932 174.5137 174.6270 174.6937
   174.8861 174.9510 175.0067 175.3681 175.9744 175.9831 176.0951 176.1471
   177.1218 178.0579 178.3066 178.6133 179.6001 179.8213 180.4366 180.4445
   180.8498 181.9547 182.4571 182.5606 182.7229 183.5575 183.7894 183.7932
   183.9604 184.0976 184.1963 184.4922 184.6387 184.8857 184.8928 185.6128
   186.4623 186.7125 187.0553 187.2602 187.2896 187.5033 187.5855 187.7301
   187.7314 187.8118 188.1426 188.1747 188.4713 188.5378 188.8522 189.2820
   189.3559 189.4051 189.4907 189.7069 189.7307 189.7570 189.8316 190.5639
   190.6660 190.7289 190.7778 190.8410 191.1628 191.4763 191.5194 191.6945
   192.3675 192.7541 193.0446 193.0848 193.7041 194.1667 194.2211 194.4897
   194.5616 194.7571 194.8338 195.1334 195.1604 195.8974 196.0669 196.1305
   196.8676 196.8800 196.9395 197.2482 197.2609 197.3549 197.4272 197.4907
   197.5479 197.7246 197.7923 198.1957 198.3660 198.6298 198.6398 198.6832
   199.0006 199.0142 199.0252 199.3045 199.4418 199.5240 199.5307 199.5485
   200.3787 200.4606 200.4695 200.8117 200.9227 201.9754 202.4623 202.5410
   202.6415 202.6455 202.8540 203.0686 203.4537 204.0014 204.0571 204.3561
   204.6558 204.7134 204.7470 205.3799 205.9245 205.9360 206.4642 206.5876
   206.8721 207.0084 207.1048 207.2920 207.6731 207.7654 207.7704 208.1801
   208.3832 208.7697 208.7773 208.9287 209.0569 209.2238 209.4875 209.4958
   209.8086 210.5031 211.1958 211.2031 211.2485 211.5762 211.9610 212.0870
   212.1191 212.5199 212.5924 212.6107 213.0176 213.0869 213.2882 213.4441
   213.5602 213.6165 213.7332 213.7586 214.0461 214.2103 214.2984 214.9245
   215.1251 215.2030 215.2484 216.5741 217.1716 217.4973 218.1940 218.3771
   218.4121 218.7706 219.0275 219.1402 219.5215 219.6518 219.6885 219.7378
   219.8985 220.2669 220.3254 220.6460 220.7242 221.6126 221.6322 221.6355
   221.6472 221.8620 222.3422 222.7824 223.0690 223.0958 223.1121 223.1309
   223.2475 223.4522 223.4888 223.5353 223.6596 224.2084 224.3471 224.8157
   225.3754 225.8677 225.9069 226.5144 226.6114 226.7797 226.7797 226.8676
   226.8782 227.2006 227.4009 227.5091 227.7381 227.9456 227.9809 227.9882
   228.1001 228.8391 228.8677 229.2026 229.2510 229.4125 229.7438 229.9283
   229.9659 229.9792 230.0961 230.1254 230.2677 230.5249 230.5395 230.9482
   231.0952 231.6212 231.6683 232.0899 232.1561 232.5954 232.6853 232.8335
   232.9390 233.0376 233.0889 233.6219 234.3430 234.3740 235.1692 235.4811
   235.5547 235.8497 235.8703 235.9062 236.1916 236.3037 236.4806 236.5764
   236.7207 236.7400 236.8996 237.3424 237.7143 237.7327 237.7754 237.7800
   237.7877 237.8702 237.8827 238.0625 238.1670 238.3740 238.5308 238.9960
   239.1100 239.5557 239.6433 239.8953 239.9460 239.9473 240.8860 241.2695
   241.3602 242.1302 242.4523 242.7350 242.9963 243.1472 243.4046 243.5404
   243.5506 243.6912 244.3692 244.9995 245.0662 245.1856 245.2327 245.7082
   245.7267 245.8074 245.8096 245.8526 245.8654 245.9218 246.0830 246.1953
   246.5030 246.5531 246.7818 246.8955 246.9192 247.0951 247.1963 247.2385
   247.3958 247.4412 247.4794 247.5711 247.5757 247.6301 247.8367 248.0739
   248.2007 248.3202 248.6080 248.6100 248.6231 248.7897 248.8113 248.9913
   249.0395 250.3042 250.3426 250.7826 250.9639 250.9854 250.9865 251.0537
   251.4484 252.3610 252.5967 252.7507 252.8102 253.1505 253.2378 253.5521
   253.7795 253.8643 253.8675 254.1495 254.2812 254.2823 254.2892 254.6790
   255.3061 255.5571 256.0221 256.0988 256.2571 256.3206 256.5103 257.1790
   258.1286 258.5212 258.8256 259.0150 259.1650 259.5683 259.7951 259.8204
   259.9121 260.1447 260.1516 260.1550 260.2435 260.4542 260.5013 260.7395
   260.7531 260.8219 260.8421 261.0018 261.1001 261.7326 261.7501 261.8991
   261.9300 261.9402 262.0553 262.2521 262.3902 262.3976 262.8038 262.8661
   262.9282 263.1820 263.3045 263.3819 263.4263 263.7203 263.7855 263.9057
   264.1014 264.2979 264.7527 264.9496 265.0572 265.2954 265.3056 265.7127
   266.4909 266.6996 266.7358 266.9626 267.0668 267.1769 267.2095 267.2733
   267.3249 267.3445 267.4996 267.5325 267.9208 268.1407 268.1947 268.2608
   268.5744 268.6869 268.7375 268.8473 268.9623 269.4523 269.5239 269.6483
   269.6523 269.8409 269.8434 269.8454 269.9364 269.9952 269.9972 270.0082
   270.0146 270.0280 270.0450 270.1925 270.4596 270.9399 271.1045 271.3120
   271.3194 271.3318 271.4894 271.5403 271.7965 271.8339 271.8401 271.8661
   271.9069 272.0403 272.0820 272.1015 272.6370 273.1222 273.3231 273.3852
   273.4800 274.4682 274.5312 274.7710 274.8859 275.0612 275.1071 275.1378
   275.1856 275.2032 275.2911 275.4163 275.4400 275.5140 275.8148 276.0404
   276.1548 276.1862 276.2017 276.4914 276.8465 276.9029 276.9811 277.0085
   277.3800 277.5939 277.6031 278.1859 278.2045 278.2825 278.3793 278.3832
   278.7927 278.8772 278.9483 279.4057 279.4412 279.6075 279.6396 279.6450
   279.7146 279.9181 280.1160 280.2212 280.3054 280.3618 280.6225 280.8758
   280.9733 281.1033 281.1664 281.4616 281.7499 281.7670 281.8536 281.9104
   282.6215 282.9106 283.3106 283.5120 283.5981 283.7687 283.9197 284.1035
   284.2803 284.4528 284.5079 284.7017 284.8094 284.8690 284.9213 285.0769
   285.0936 285.1547 285.2962 285.3589 285.5429 285.7243 285.8225 285.9930
   286.8989 286.9082 286.9827 287.4744 287.5168 288.2058 288.7942 289.3040
   289.5639 289.6404 289.6715 290.6303 290.8796 290.9525 291.0902 291.3034
   291.3364 291.4189 291.5304 291.7644 291.8839 291.9268 291.9482 291.9983
   292.0628 292.2172 292.2518 292.2776 292.3860 292.4868 292.5508 292.7786
   293.6148 294.0609 294.1458 294.3351 294.6689 294.9563 295.1601 295.2547
   295.2812 295.3177 295.3197 296.0476 296.3403 296.5096 296.6855 296.8822
   297.0990 298.3791 298.5550 298.7394 298.7853 299.0045 299.2933 299.3108
   299.3706 299.4533 299.5298 299.5750 299.5932 299.8702 300.0510 300.1138
   300.2148 300.2293 300.2553 300.3813 300.4482 300.5987 300.6227 300.8372
   301.5202 301.8063 301.9996 302.2530 302.2853 302.3031 302.6582 302.7150
   303.5401 304.0842 304.2072 304.5349 304.6591 305.0805 305.0996 305.1262
   305.1532 305.3436 305.4739 305.5417 305.7758 306.8836 307.1271 307.6822
   307.6918 308.0714 308.0883 308.1368 308.1964 308.4422 308.4815 308.4954
   308.4984 308.6251 308.8422 308.8804 309.2856 309.8282 309.8847 309.9237
   310.0008 310.0971 310.2726 310.3949 310.7471 310.9290 311.1973 311.5292
   311.5409 311.5598 312.8222 313.2506 313.4047 313.5214 314.0455 314.8323
   315.7239 315.7355 315.8227 315.8644 316.2261 316.3175 316.5953 316.6087
   317.0929 317.3071 317.4149 317.5880 317.6191 317.8110 318.0242 318.0758
   318.1281 318.1443 318.2493 318.2655 318.2688 318.2981 318.4079 318.6558

          k = 0.0000 0.4330 0.0000 (  5108 PWs)   bands (ev):

   -19.0677 -11.4330  -7.6194  -5.7607   2.6119   5.1455   6.5163   6.6435
     7.1520   8.2453   8.8892  11.0762  11.7342  12.9175  13.6483  14.7236
    14.9670  15.5691  16.0081  16.2040  16.6500  17.7136  18.2016  19.8293
    20.3253  20.6345  21.6446  22.3001  24.1623  24.5634  25.2977  25.5885
    26.3190  26.6883  26.9201  26.9656  27.2470  27.3695  28.1858  28.7234
    28.8516  28.8865  29.5650  29.7875  30.7737  31.4373  31.7362  32.1231
    32.6071  33.8402  35.0672  35.5002  36.2914  36.5483  36.8484  37.1428
    37.4227  37.8141  39.2631  41.4927  42.0122  42.0332  42.1075  43.6672
    44.1135  44.6689  44.6965  44.7567  46.3334  47.6673  48.2296  48.7441
    48.9550  49.7098  50.1233  50.3948  51.0888  51.1311  51.1406  51.4386
    52.5170  52.8397  52.8855  53.0283  53.0791  53.5010  55.1153  55.2380
    55.4582  55.5786  56.0843  56.1475  56.2014  56.5502  56.9415  57.0803
    57.9469  58.9407  59.2014  60.2638  60.5866  60.9828  61.4473  61.8312
    61.9451  62.4141  63.0415  63.1082  63.3859  63.7260  64.6088  64.8904
    65.0363  65.1543  65.2307  65.2860  65.6961  66.1840  66.3569  66.4517
    66.5683  66.9127  66.9588  67.0784  67.2492  67.4094  67.4426  68.3075
    68.6690  68.7688  69.1351  69.2077  69.4303  70.6094  71.6116  71.7763
    72.3893  72.4375  72.5605  72.7024  72.8140  72.8950  73.1253  73.3516
    73.8901  73.9748  74.1252  75.0402  75.1884  76.3418  76.4260  76.8839
    76.9016  77.1081  77.3162  78.0070  78.1812  78.3997  79.5698  79.8775
    80.1283  80.5873  80.5916  80.9188  81.9466  82.3779  82.4555  82.5410
    83.4499  84.5990  84.7656  85.3501  85.4091  85.8670  85.8923  86.0967
    86.2806  87.2550  87.2723  87.6411  87.7214  88.7082  88.8998  88.9561
    89.0519  89.3666  89.4240  89.4281  89.5825  90.1557  90.8376  91.9073
    92.2061  92.2487  92.5170  93.3833  93.8229  95.1908  95.2406  95.4143
    96.4091  96.4567  96.7718  96.9416  97.1977  97.7142  97.7975  98.1273
    98.6844  98.7322  98.9667  99.0745  99.4224  99.5982 101.0389 101.1822
   101.2592 102.1579 102.1741 102.4189 102.7140 102.9012 103.2274 103.3198
   103.5106 103.6565 104.3120 104.3222 104.6559 104.8030 105.2744 105.4279
   105.4796 105.5086 105.5525 105.8021 107.4064 107.4982 107.5966 108.3397
   108.3936 108.5380 108.5777 109.0497 109.0963 109.9718 110.0764 110.1330
   110.1911 110.4617 110.6453 110.9646 111.0478 111.0809 111.4356 111.4620
   111.4804 111.4894 111.5358 111.7822 112.0209 112.8972 112.9865 112.9983
   113.0122 113.4362 113.4494 113.4680 113.7282 113.8241 114.5231 115.1936
   115.3395 115.7381 116.2210 116.3142 116.6430 116.6513 116.9378 117.0440
   117.5489 118.3534 118.4555 118.8337 118.9913 119.3995 119.6226 119.8691
   120.6733 121.0144 121.1261 121.7639 121.8252 122.0193 122.2695 122.6348
   123.0830 123.2746 123.4368 124.5340 124.5597 124.9709 124.9729 125.2002
   125.2456 125.2748 125.5734 125.7190 126.1598 126.3551 126.7090 126.7896
   126.8508 127.0814 127.7953 127.8353 128.0469 128.3457 129.6309 131.9246
   132.0218 132.2833 132.7887 132.8639 133.1571 133.4752 133.5584 133.5798
   133.5864 133.8075 134.1371 134.2992 134.8328 135.0745 135.1348 135.8423
   135.9006 136.3085 137.0877 137.3410 137.6703 138.0678 138.3901 138.5016
   138.8356 139.1718 139.3319 139.5103 139.6605 139.6953 139.7456 139.9079
   140.2210 140.4920 140.7084 140.7555 141.1811 141.2662 141.2709 141.5176
   141.7281 141.7538 141.8525 142.0438 142.6871 142.8796 143.1962 143.9566
   144.3730 144.8475 144.9028 145.0088 145.5462 146.2100 146.3834 147.0162
   147.2077 148.3180 148.7662 148.9214 148.9578 149.2385 149.3296 149.3307
   149.3919 149.5273 149.5629 149.8315 150.1364 150.2593 151.0776 151.1567
   151.1810 151.4096 151.4657 151.7997 152.4878 152.6375 152.9058 153.0399
   153.8669 154.0680 154.3791 154.7134 154.8736 155.0525 155.5105 156.0970
   156.2430 156.7655 157.5106 158.1529 158.2610 158.2794 158.4668 158.9332
   159.3067 159.3096 159.5515 159.7577 159.7645 159.9202 160.1040 160.3607
   160.3693 161.1658 161.2086 161.2823 161.2999 161.6652 161.6666 161.7444
   161.8174 161.9869 162.0523 162.1485 162.2931 162.8120 162.9704 163.6887
   163.7788 163.9841 164.1813 164.3651 164.5148 164.8716 164.9601 164.9865
   165.0196 165.1677 165.4420 165.4448 166.4293 167.9469 168.5821 168.8966
   168.9601 169.0843 169.1450 169.4324 169.5804 169.6147 169.8609 169.9816
   170.2003 170.2614 170.6652 171.0106 171.0582 171.2595 171.7046 171.7994
   171.8685 171.8906 172.0860 172.3050 172.5480 173.0890 173.4804 173.5255
   173.6995 173.7228 173.7989 173.7998 173.9322 174.2173 174.5437 174.6160
   174.8712 174.9629 175.4668 175.5794 176.0083 176.1339 176.3116 176.4602
   176.5025 177.0153 177.1694 177.6184 177.6304 177.7821 177.8423 178.0020
   178.2171 178.5075 179.3306 179.6834 179.8458 179.9426 180.0556 180.0597
   180.3688 180.5464 180.5481 181.1506 181.1702 181.4012 181.4219 181.5299
   181.5937 181.6304 181.9167 182.1467 182.3260 182.3798 182.4140 182.8671
   183.3515 183.6524 183.8678 183.9152 183.9439 183.9472 184.0057 184.2416
   184.5890 184.8687 185.5454 185.5480 185.7751 185.7805 185.8202 185.9169
   186.0623 186.2538 186.6851 186.7494 186.9769 187.1223 187.1224 187.2856
   187.4795 187.6857 187.8552 187.8694 188.4044 188.9327 189.0357 189.0696
   189.0901 189.2343 189.2365 189.2979 189.3635 189.5766 189.7322 189.9288
   190.3876 191.1477 191.4227 191.4537 191.8713 192.0775 192.3716 192.6928
   192.9660 193.2283 193.2293 193.4101 193.4876 193.5529 193.6629 193.9402
   194.1918 194.4399 194.4714 195.0480 195.3296 195.6359 196.1419 196.3461
   196.3675 196.5018 196.5397 197.1017 197.2712 197.3261 197.6724 197.7044
   197.7589 197.9409 198.1903 198.4220 198.6735 198.9175 198.9394 198.9593
   198.9892 198.9976 199.0361 199.2777 199.2807 199.9060 200.1223 200.3008
   200.8085 200.9913 201.1592 201.2359 201.4130 201.4794 201.5624 202.5911
   204.4798 204.8067 205.2533 205.5064 205.5226 205.5727 205.8189 206.3131
   207.5419 207.6175 207.6466 207.9424 208.2625 208.9221 209.0051 209.4076
   209.5424 209.5450 209.6680 209.7504 210.0437 210.2408 210.2438 210.5374
   210.6360 210.6641 210.7015 210.7569 210.9171 210.9507 211.3256 212.0498
   212.6522 212.8195 212.9976 213.1004 213.2688 213.3636 213.4701 213.6023
   213.7518 213.7780 213.9048 214.6077 215.3295 215.4458 215.5614 215.7994
   215.9084 216.0942 216.2348 216.4561 216.9295 217.1024 217.9406 218.1504
   218.3649 218.6169 218.6747 218.6865 218.8125 219.0824 219.4082 219.6592
   219.9099 219.9707 220.0983 220.1104 220.1323 220.2102 221.0728 221.3972
   221.5771 221.6639 221.7075 221.8868 222.1581 222.1917 222.2101 222.2595
   222.2765 222.9128 222.9689 223.5845 223.6035 223.6563 223.7619 224.0712
   224.1834 224.2087 224.2712 224.7644 225.1136 225.1639 225.2648 225.5369
   225.9615 226.1946 226.2247 227.5245 227.5702 228.0674 228.8965 229.0170
   229.3122 229.4443 229.5070 229.6001 229.7681 230.0887 230.1738 230.3275
   230.3541 230.4228 230.5022 230.7185 230.7812 230.8546 230.8860 230.9818
   231.4851 231.5361 231.6880 231.7542 231.9691 231.9738 232.1170 232.1794
   232.1794 232.2458 232.4296 232.4822 232.5323 232.6223 232.6513 233.4647
   233.4968 233.8571 233.8669 234.1200 234.4319 234.8518 234.9435 235.0144
   235.1088 235.2234 235.2377 235.7801 236.8307 237.3438 237.4482 237.6226
   237.7520 238.2634 238.7361 238.9394 239.2729 239.3852 239.6410 240.3036
   240.4293 240.4780 241.3158 241.3311 241.4151 241.7972 241.9354 242.0516
   242.4139 242.4640 242.5359 242.5542 242.8060 242.8076 242.9838 243.2289
   243.2664 243.3492 243.4090 243.5135 243.5371 244.0882 244.2701 244.2992
   244.3298 244.3854 245.4160 245.6027 245.7381 246.0489 246.1501 246.1828
   246.4035 246.6979 247.0014 247.4133 247.4357 248.6535 248.9552 249.0116
   249.3461 249.3715 249.5874 249.6469 249.6612 249.8113 249.8237 249.9256
   249.9417 250.2270 250.5817 250.9207 250.9452 251.6836 251.8879 251.9703
   252.1714 252.2819 252.3594 252.6888 252.7156 252.7174 253.1152 253.3287
   253.3532 253.4783 253.5232 253.8535 253.8724 253.9198 253.9237 254.1338
   254.2304 254.4426 254.6278 254.7342 254.8822 255.1513 255.2103 255.2513
   255.4012 255.4939 255.6995 255.9205 256.0492 256.3997 257.0271 257.0512
   257.4016 257.4866 257.6181 257.7355 257.7434 257.8489 258.1098 258.3578
   258.3829 258.5390 258.8144 258.9825 259.4309 259.4803 259.5007 259.6927
   259.7764 260.4001 260.4149 260.4282 260.5259 261.8237 262.1692 262.2158
   262.2931 262.3237 262.3667 262.6599 263.2448 264.4579 264.7370 265.4950
   265.4976 265.6714 265.6858 265.7362 265.9192 266.0938 266.3996 266.5905
   266.6321 267.0529 267.0978 267.2651 267.5511 267.6389 267.6907 267.8035
   268.1864 268.2399 268.2480 268.2998 268.5336 268.5490 268.7633 268.8721
   268.8904 268.9146 269.1933 269.5673 269.6095 269.7214 269.8438 270.0375
   270.0399 270.0952 270.0976 270.9730 271.2077 271.2800 271.3210 271.6595
   271.7412 272.1872 272.2385 272.2830 272.2940 272.9480 273.1709 273.3285
   273.3825 273.4668 273.8579 273.8861 273.9097 274.4300 274.5071 274.5238
   274.9307 274.9908 275.4634 275.4738 275.5056 275.8848 275.9946 276.0510
   276.0547 276.4536 276.6482 276.6757 278.0133 278.1770 278.4087 278.6571
   278.7716 278.9510 278.9676 279.1773 280.3185 280.3650 280.4374 280.4782
   280.7828 280.9370 281.0006 281.3115 281.5479 281.6078 281.6167 281.9905
   282.0468 282.1934 282.2912 282.3024 282.3180 282.3444 282.5197 282.5947
   282.6225 282.6253 282.6692 282.9744 283.7795 284.1585 284.3287 284.6777
   284.7330 285.0077 285.0336 285.2465 285.3681 285.5618 285.6214 285.7103
   285.8250 285.9122 286.0645 286.4746 286.5940 286.7486 286.7653 286.9374
   287.6068 287.8108 287.8656 288.4101 288.6049 288.8138 288.8379 289.1020
   289.4484 289.7074 289.7691 289.8903 290.0101 290.0888 290.1298 290.1683
   290.2694 290.5677 290.7419 290.7650 290.9112 291.0516 291.3954 291.7484
   291.9495 292.1339 292.3652 292.4401 292.4488 292.5318 292.5337 292.5344
   292.5808 292.6455 292.6715 292.9892 293.9953 294.2169 294.3903 294.5377
   294.5429 294.6709 294.8297 294.9147 295.0549 295.1352 295.3952 295.5140
   295.6209 295.6829 296.3294 296.3656 296.5198 296.6106 296.7890 296.9734
   297.1086 297.4412 297.6104 297.7146 297.8936 297.9217 297.9567 298.0032
   298.0528 298.2164 298.4849 298.5877 298.6161 298.8506 299.0231 299.0647
   300.0521 300.2858 300.3568 301.0873 301.1221 301.4505 301.4828 301.8053
   301.8384 301.8999 302.2665 302.3498 302.4601 302.5218 302.6345 302.7993
   302.9053 302.9764 303.0671 303.3065 303.7136 303.9835 303.9987 304.1529
   304.1672 304.1799 304.4569 304.8170 305.6671 305.8886 305.9687 305.9722
   306.7658 307.0084 307.2295 307.3985 307.4078 307.5322 307.7315 307.8386
   307.8546 308.1066 308.2394 308.3333 308.3721 308.3750 309.0796 309.4128
   309.9180 309.9260 309.9265 310.0513 310.4798 310.5924 311.3542 311.4379
   312.0946 312.4517 312.6002 312.6210 312.8981 312.9364 313.2784 313.3458
   313.6016 313.8701 313.9730 314.1460 314.2025 314.5046 314.5116 314.5996
   314.8175 314.8200 314.8310 315.0003 315.5564 315.5791 315.6962 315.7343
   316.1174 316.1601 317.5139 317.5286 317.5414 317.6100 317.8870 318.1558
   318.1854 318.3016 318.4761 318.5483 318.5995 318.7098 318.9603 319.3164
   319.4121 319.4182 319.5962 319.6620 320.0539 320.6696 320.7491 320.7616

          k = 0.0000-0.5774 0.0000 (  5116 PWs)   bands (ev):

   -18.3258 -12.6755  -7.9408  -4.6474   1.1231   6.1973   8.8175   9.2553
     9.4918  10.0513  10.3165  10.3942  11.3101  11.8203  12.0427  12.3752
    13.7016  14.7794  14.8223  15.5401  16.8060  18.1083  18.1735  18.9079
    19.8222  19.8333  20.7555  21.6845  23.9678  24.3610  24.8106  25.2149
    25.2480  26.1203  26.4162  26.4638  26.4764  26.6142  27.4773  27.8521
    28.2052  28.3509  28.7667  29.9378  30.7625  31.1486  31.6247  31.7611
    32.4753  32.5416  33.2532  34.2627  34.8694  36.0565  36.3792  36.5400
    37.2819  39.1201  39.8524  40.5575  41.0306  41.4582  41.5678  41.9227
    44.0979  45.9330  47.2217  47.8350  48.1188  48.1240  48.7574  48.9112
    49.3786  49.8178  50.5974  51.8112  52.6637  53.7860  54.5240  54.7169
    55.7939  55.9942  56.6556  56.7109  56.9688  57.4890  57.9401  58.4402
    58.5113  58.5223  58.5482  58.5823  58.6311  58.6486  58.6912  58.7272
    58.8887  59.3100  59.5318  60.1553  60.2536  60.4738  60.5266  60.6329
    60.6775  61.1449  61.8062  62.1542  63.1006  63.4257  63.5795  63.7768
    63.8586  64.2040  64.2297  64.3443  64.7828  65.1905  65.4313  66.2266
    66.9648  67.3452  67.5521  68.2157  68.3348  68.4149  68.4224  68.4815
    69.0647  69.0806  69.3076  69.7774  69.9270  72.1881  72.3722  72.5932
    72.9860  73.0262  73.6735  73.6883  73.8112  74.0966  74.2012  74.2887
    74.3292  74.7002  74.7513  74.7672  74.8101  74.8131  75.1243  76.5189
    76.5604  76.6173  76.9569  77.5321  77.6739  78.6282  79.0270  79.2002
    79.7440  79.7949  80.2238  80.3122  80.3847  80.5112  80.5892  80.6597
    80.9548  81.0502  81.0749  81.6279  83.2261  83.6836  83.8720  84.3056
    84.4870  84.7976  85.0246  85.3499  85.7218  86.3570  86.8045  87.8459
    87.9469  88.1332  88.2839  88.3148  88.3497  89.4230  89.6479  89.7488
    89.9548  91.5123  91.5130  93.0517  94.1521  94.3777  95.2321  95.3899
    95.5232  96.0454  96.2813  96.3836  96.4549  96.6784  96.7834  96.9086
    96.9914  97.5017  97.5878  97.6788  97.7102  98.3624  98.5228  98.7489
   101.2752 101.6445 102.4714 103.2485 103.9284 103.9920 104.0780 104.3327
   104.7095 105.1621 105.5873 106.1434 106.1991 106.4406 106.4967 106.6479
   106.8537 106.8862 106.9007 106.9109 106.9340 106.9955 107.0178 107.0730
   107.0735 107.1832 107.4218 107.8251 107.9899 108.4443 108.5996 108.6475
   108.6702 108.6809 108.9693 108.9940 109.0048 109.4159 110.0505 110.0927
   110.1671 110.3836 111.3152 111.4519 111.6763 111.8410 111.9438 112.0836
   112.2678 112.3047 112.3597 112.6107 112.6802 112.8349 113.6468 114.8877
   115.1255 115.8222 116.0582 116.4940 116.6469 116.6995 116.7946 116.8529
   116.9934 117.0665 117.5448 117.5811 117.6686 117.7988 119.0531 119.7792
   120.0952 120.7967 120.9774 121.1663 121.6787 121.9596 122.2293 122.3119
   122.4809 122.5326 122.5410 122.7987 123.3120 123.3247 123.3927 123.7018
   124.3934 124.6116 124.9907 125.0230 125.2350 126.1225 127.0137 128.0345
   128.5100 128.6149 128.8145 128.9585 128.9857 129.0429 129.0608 129.4463
   129.5792 129.6803 129.7491 129.7788 130.1230 131.1987 132.5283 133.3835
   133.6418 134.0209 134.8924 135.1665 135.7115 135.8615 136.0002 136.0003
   136.6463 136.9552 137.3054 137.6847 138.1167 138.2066 138.7082 139.4192
   139.8748 140.2010 140.3148 141.2823 141.6003 142.1096 142.1564 142.3477
   142.5034 142.7488 142.8750 143.4765 143.9566 144.1053 144.2366 144.4882
   144.7233 145.3738 145.4436 145.5783 145.6279 145.7120 145.7133 145.8931
   146.9085 146.9588 147.3465 148.7735 148.7866 151.2756 151.8408 152.5295
   152.6574 153.1651 153.9541 154.0526 154.1735 154.2105 154.8487 154.8929
   154.9827 155.0223 155.1056 155.1114 155.2024 155.2868 155.2909 155.2966
   155.3027 155.3029 155.3849 155.4341 155.6985 155.7061 156.0091 156.1579
   156.3375 156.5563 156.6246 156.6316 156.6465 156.8330 156.9164 156.9643
   156.9662 156.9847 157.1680 157.1874 157.1885 157.3000 157.3391 157.4085
   157.8063 158.4537 158.6150 158.6181 158.6967 159.7719 160.0932 160.1548
   160.1958 160.3938 160.3955 160.4429 160.5276 161.2325 162.7454 163.6102
   163.7103 163.8346 164.0065 164.0800 164.6600 164.7760 164.8457 164.9248
   165.1143 165.1684 165.2373 165.3595 165.4866 165.6720 165.8198 166.3082
   166.3809 166.3977 168.2448 168.4762 168.7958 169.0154 169.1059 169.8321
   169.9702 170.2306 170.3306 170.3400 170.4523 170.4586 170.5067 170.5164
   171.0923 171.2136 171.2867 171.2925 171.3110 171.3452 171.3923 171.3989
   171.5058 171.5729 171.6012 171.6618 171.6857 171.7661 171.9417 172.0828
   172.2373 172.3511 172.6703 172.8675 172.9293 172.9769 173.1229 173.2210
   173.2445 173.2502 173.2605 173.3176 173.3508 173.5349 174.1973 174.4132
   174.4947 175.1963 175.5219 175.5641 175.6131 176.0652 176.1794 176.1915
   176.3132 176.3606 176.5089 176.6833 176.7149 176.8895 177.0946 177.1391
   177.1850 177.2065 177.2232 177.2696 177.3268 177.3965 177.8288 177.9136
   178.0709 178.2342 178.9686 179.7652 180.3063 180.6684 180.8448 180.8685
   180.9185 180.9313 180.9413 181.7239 182.8425 183.0535 183.8828 184.2720
   184.5412 184.5750 184.7326 184.7674 184.7758 184.8115 185.4494 186.2446
   186.3689 186.4110 186.4809 186.5656 186.6180 186.7051 187.0724 187.0990
   187.3341 187.3648 187.5958 187.6009 187.8764 187.9048 188.0694 188.1357
   188.8951 189.3749 189.6840 190.0595 190.1703 190.2280 190.5783 190.7243
   191.1681 191.4045 191.4982 191.6138 191.6897 192.3333 192.3648 192.4684
   192.6439 192.8629 192.8993 192.9554 192.9915 193.0748 193.2925 193.4359
   193.4795 193.5280 193.5504 193.8009 193.8130 193.8487 194.5891 194.5970
   194.6074 196.6327 196.6736 197.1356 199.3765 199.8001 200.0435 200.5391
   200.5883 200.6379 200.6862 200.9639 201.0009 201.0900 201.6031 202.1432
   202.1664 202.6819 202.7331 202.8117 203.0993 203.2777 203.4039 203.4328
   203.5310 203.5396 203.6153 203.6535 203.7457 203.8647 203.9385 203.9833
   204.5709 204.8632 204.9231 204.9890 204.9902 205.0293 205.0483 205.0775
   205.2010 205.2107 205.2882 205.2989 205.3070 205.4530 205.4707 205.4728
   205.7742 206.4069 208.1151 208.2487 208.5302 208.6545 208.6614 208.7368
   209.1052 209.1817 209.3803 209.5107 209.5282 209.6412 209.6970 209.9706
   210.3061 210.3213 211.3880 211.8328 212.0916 212.3071 212.4924 212.9587
   213.0005 213.1717 213.7466 213.7938 213.9227 214.0077 214.0586 214.2860
   214.3227 214.3280 214.5438 214.8088 214.9265 216.8587 217.4900 217.8837
   218.1812 218.2443 218.5843 218.6629 218.7979 218.8293 218.8758 218.9262
   219.0523 219.1673 219.2864 219.4890 219.6455 219.6660 219.6705 219.6897
   219.8879 219.9553 220.1022 220.1970 220.2367 220.3879 220.4185 220.4339
   220.5329 220.6526 221.1050 221.3206 221.5090 221.5216 222.0189 222.1692
   222.7181 222.7566 222.8311 223.1428 223.1917 223.2047 223.2793 223.7095
   223.8598 224.6779 224.7175 224.7482 224.8879 225.0130 225.0383 225.3915
   225.7157 225.7938 225.9629 226.0193 226.2025 226.2497 226.2547 226.2915
   227.1584 228.0375 229.0543 229.2907 229.3121 229.3641 229.6542 229.9087
   230.1250 230.1484 230.1969 230.2141 230.2937 230.3156 230.3702 230.6311
   230.6367 231.5770 232.0559 232.6578 232.9161 232.9297 233.1803 234.4311
   234.5185 234.5674 234.9781 235.0596 235.2950 235.4933 235.5158 235.5821
   236.1766 236.3232 236.4236 236.4419 236.5163 236.6017 237.3029 237.7584
   238.1474 238.1788 238.6653 239.0136 239.1094 239.1470 239.1938 239.2020
   239.5247 240.0155 240.6189 240.6383 240.9683 241.2022 241.3628 241.4450
   241.6042 241.8581 241.8697 241.8877 241.9322 241.9475 242.0016 242.0703
   242.0903 242.3382 242.4163 242.5435 242.5862 242.6101 242.7387 242.7447
   242.9783 243.2668 244.2870 244.6040 245.3989 245.4584 248.1899 248.3929
   248.7405 249.0617 249.1681 249.1755 249.5350 250.2504 250.3305 250.5949
   250.6328 250.8376 251.2899 251.3127 251.5627 251.6270 251.6365 251.6444
   251.8129 251.8200 251.8749 251.8754 251.8920 251.8932 251.9225 252.0845
   252.3260 252.4013 252.5556 252.9148 252.9164 252.9887 253.0736 253.1257
   253.2782 253.2955 253.5548 253.6175 253.6277 253.6800 253.6912 253.7276
   253.7605 253.7626 253.7884 253.8208 253.9624 254.0793 254.8999 254.9035
   254.9477 255.1058 255.1275 255.2116 255.2669 255.8389 256.3876 256.4903
   256.8229 256.8570 256.9105 256.9255 256.9372 256.9724 257.0013 257.2548
   257.4117 257.7689 257.8712 257.9184 257.9354 257.9644 258.1493 258.3056
   258.7586 258.8741 259.1864 260.2150 260.9568 261.2623 261.3341 261.3485
   261.4859 261.5313 261.5436 261.6298 261.8798 261.9901 262.4631 262.5198
   262.5354 262.5911 262.6154 262.7687 262.8205 262.8340 263.2153 264.3895
   264.8345 265.6557 265.9097 266.6049 266.6518 266.8703 266.9783 267.0929
   267.1107 267.2444 267.3793 267.6481 267.7414 267.8228 267.8636 268.0719
   268.0865 268.1465 268.2835 268.5546 268.6222 268.9456 269.2591 269.2624
   269.3282 269.3456 269.4726 269.4989 269.8982 270.0010 270.1336 270.7429
   270.7852 271.2734 271.4542 271.6877 271.7567 272.1512 273.0274 273.3903
   273.4546 273.5040 273.6596 273.6664 273.6832 273.7143 273.7267 274.0480
   274.1643 274.2784 274.3270 274.3493 274.4435 274.4594 277.4701 277.9107
   278.2180 278.3655 278.4219 278.4246 278.4360 278.5818 278.7811 280.1592
   280.5788 281.0258 281.0557 281.1014 281.2997 281.3354 281.3930 281.3955
   281.7334 281.7750 282.5389 282.6122 282.9764 282.9947 283.1368 283.2934
   283.5877 283.6419 283.7372 283.7504 283.8114 283.9472 284.0164 284.0485
   284.0550 284.1491 284.6497 284.7616 284.7653 284.7879 284.9812 284.9986
   285.0021 285.0066 285.1551 287.2502 287.2627 287.3509 287.8030 288.3491
   288.4620 288.7400 289.1553 289.4060 289.4279 289.8180 290.1109 290.2479
   290.2858 290.2914 290.2947 290.3540 290.3556 290.5556 290.6499 291.1951
   291.2518 291.2869 291.2877 291.7671 292.2870 292.5874 292.6580 292.7885
   292.8760 292.8797 295.1332 297.3813 297.4858 297.6279 297.6425 297.7117
   298.2613 298.7123 298.7989 298.8728 299.0468 299.1252 299.1429 299.3562
   299.4776 299.6010 299.6330 299.7403 299.8323 300.0139 300.0434 300.0818
   300.1225 300.1429 300.1536 300.1735 300.1824 300.1885 300.2097 300.2896
   300.2935 300.2944 300.3488 300.4056 300.4762 300.5763 300.6166 300.7157
   300.8856 301.6371 301.6918 301.7347 301.7349 301.7466 301.8637 301.9241
   302.0218 302.0300 302.0318 302.0384 302.0418 302.0653 302.0943 302.0996
   302.1473 302.4065 303.0841 303.2196 303.3752 303.4697 303.8017 304.8567
   304.8587 304.9506 305.1025 305.1498 305.2065 305.2080 305.2738 305.7346
   305.7928 305.8171 306.0416 306.2581 306.3448 306.5635 306.5739 306.5873
   306.7208 306.8550 307.9577 307.9656 308.3062 308.9613 309.2986 309.3030
   309.3236 309.5526 309.7073 309.8529 309.9325 310.0541 310.0705 310.4734
   310.5087 310.6464 310.7020 310.7218 310.7506 310.7603 310.8446 310.8555
   310.8755 310.9783 310.9842 310.9865 311.2899 311.5117 313.2574 313.6914
   314.0962 314.3205 314.7028 314.8016 314.9332 314.9716 315.0486 315.1738
   315.1768 315.4745 315.5192 315.5975 315.9580 316.0946 316.1056 316.1664
   316.2080 316.2711 316.2779 316.3300 316.3380 316.3382 316.3888 316.3934
   316.5436 317.0028 317.0472 317.2860 317.3714 317.4360 317.5054 317.6481
   317.7395 317.7398 317.7753 318.0336 318.0536 318.0706 318.1441 318.2346
   318.2355 318.3063 318.3503 318.7730 318.8380 318.8396 319.2331 319.4903

          k = 0.1250 0.2165 0.0000 (  5090 PWs)   bands (ev):

   -20.5511  -7.9149  -7.8337  -6.7234   2.4713   3.2861   3.8173   4.9431
     5.7081   6.6066   8.1867   8.6112   8.6930  10.4212  12.5243  12.5870
    14.5960  16.9991  19.1814  19.3534  22.1948  22.2454  22.7209  23.7542
    23.8202  23.9610  24.2511  24.7275  24.9176  25.7046  25.9863  26.1504
    26.5181  26.7081  28.7991  29.1135  29.2046  29.3200  29.5956  32.0100
    32.8967  33.2412  33.3570  33.4763  34.0177  34.6620  35.0562  35.2439
    35.9990  36.0003  36.0366  36.6389  37.6381  37.8051  37.9016  38.3551
    38.6503  38.7105  39.2353  39.3741  40.3911  40.7103  40.9314  41.2586
    41.3240  41.4272  43.0658  43.1985  43.2648  44.2049  45.2493  45.5083
    45.5773  45.7544  45.8314  46.0555  46.4828  47.4241  47.5945  47.8305
    48.1272  48.1563  48.3494  49.1377  49.6679  49.9114  50.2705  50.3444
    50.5799  51.0335  51.5215  51.6911  52.0779  52.4369  52.9030  53.0866
    53.5259  53.6105  53.7010  53.8311  54.1925  56.2794  57.0893  57.3085
    57.3188  57.7434  57.8876  58.2289  58.3610  59.8903  60.8663  61.3466
    61.9729  62.3399  62.6514  62.8841  62.8995  63.2035  63.6202  64.4277
    64.9734  65.2490  65.4316  65.4983  67.4208  68.7872  68.9161  69.9419
    70.3364  70.6822  71.7159  71.8177  71.9562  72.4874  73.0243  73.4718
    73.7018  74.4705  74.9043  74.9554  76.0130  76.1223  76.1533  76.7194
    77.0401  77.4524  77.5140  77.9816  78.2262  78.9558  79.2971  80.3469
    80.7625  80.8494  80.9942  81.6177  82.6397  82.6608  83.1272  83.7282
    83.9013  84.1861  84.7644  85.3042  85.5626  85.7602  85.9768  86.4078
    86.6416  86.7595  87.2904  87.5608  87.6404  88.2508  88.2895  88.2978
    88.3816  89.2587  89.8931  90.1378  90.3136  90.7575  90.9385  91.4902
    92.1930  92.4802  92.9780  93.3230  93.3503  94.0619  94.2786  94.4742
    94.6630  94.8493  94.9460  95.3094  95.8024  95.8286  96.0620  96.2726
    96.9044  97.3110  97.7335  97.7363  98.0625  98.1129  98.9717  99.9436
   100.2937 100.5751 101.9252 102.2457 102.9165 103.0792 103.2360 103.9689
   104.2277 104.5514 105.1323 105.5137 105.5309 105.8996 106.1274 106.6613
   107.0129 107.0897 107.1735 107.3531 107.4483 107.5471 107.6480 107.7479
   108.0068 108.3687 108.4346 108.4560 108.4930 108.7004 109.1931 109.8347
   109.9095 110.1650 110.3753 110.4092 110.4968 110.5747 110.7210 111.3068
   112.2060 112.2281 112.4536 112.4772 112.7091 113.0603 113.0626 113.4443
   113.7003 113.7629 114.2563 114.3018 114.3844 114.4756 115.0206 115.1044
   116.0585 116.4019 116.9262 117.0116 117.0282 117.2315 117.4490 117.5031
   117.7067 117.7835 117.9265 118.1516 118.1712 118.2660 118.6165 119.1058
   119.2396 119.3330 119.5240 119.6539 119.9849 120.1483 120.6380 121.1049
   121.5152 121.6126 121.9611 122.0501 122.1003 122.4548 122.7440 122.9675
   123.2736 123.4161 123.7882 124.4076 124.4172 124.5285 124.6901 125.0434
   125.1675 125.5339 125.9456 126.2974 126.4332 126.6404 126.6789 127.0666
   127.4697 127.5181 127.6385 128.3069 128.6745 129.0761 129.5431 129.6323
   130.1332 130.3592 130.4520 130.7454 130.7592 131.3071 131.5951 131.8191
   132.3664 132.4658 132.5776 132.5777 132.6386 132.6458 133.0543 133.1040
   133.3699 133.6926 134.0146 134.0152 134.1180 134.2111 134.2461 134.3842
   134.5033 134.5830 134.6491 134.7150 134.7760 134.8293 135.6701 135.6892
   135.8897 136.1562 136.3387 136.8521 137.1260 137.4090 137.5781 137.6550
   137.6809 137.7884 137.8574 138.0172 138.1897 138.2284 139.1539 139.3024
   139.9189 141.1800 141.3578 141.5806 141.7873 142.0910 142.0948 142.3209
   142.5615 143.4757 144.4921 144.5149 145.2874 145.7761 145.7812 146.0754
   146.3347 146.4263 146.6611 147.0147 147.0505 147.0644 147.3241 147.3855
   147.3966 147.6644 147.7409 147.9148 148.1617 148.3450 148.4488 148.7909
   149.2403 149.3362 149.9126 150.0998 150.2271 150.3998 150.7973 150.9330
   151.0128 151.8618 152.3509 152.6878 152.9705 153.2953 153.6658 153.8491
   153.9255 154.2339 154.3375 154.5623 155.4816 155.9502 156.0846 156.1863
   156.3514 156.6289 156.6854 156.7573 156.8005 157.0749 157.8948 157.9234
   158.4240 158.6036 158.6881 158.9673 158.9874 159.2512 159.3850 159.5995
   159.9694 159.9868 160.0628 160.2275 160.4143 160.9606 161.2686 161.4099
   161.4291 161.7974 161.8074 161.9808 162.0268 162.0514 162.1595 162.7059
   162.8715 163.1115 163.5916 163.9682 164.4790 165.2841 165.7168 166.2114
   166.4321 166.4326 166.4986 166.6020 167.0407 167.3034 167.4815 167.5944
   168.4554 168.9745 169.0466 169.6061 169.8144 170.0664 170.4247 170.5954
   170.6955 171.0630 171.2101 171.3559 171.6567 171.7542 171.9314 172.0182
   172.0270 172.1186 172.1335 172.2034 172.4295 172.7111 172.7491 173.9247
   174.1348 174.6301 175.0252 175.2396 177.2402 177.2995 177.5792 178.0662
   178.4629 178.4785 178.5217 178.5567 179.2117 179.4756 179.7853 180.1825
   180.2432 180.3254 180.4611 181.0566 181.5034 182.3378 182.5400 182.6952
   182.8901 182.9587 183.3385 183.5491 183.6838 183.7321 184.6241 184.8116
   185.8077 185.9314 186.0674 186.1973 186.3671 186.5664 186.8755 186.9489
   187.1465 187.4626 187.4953 188.5207 188.7060 188.7723 189.4242 189.4814
   189.5824 190.5806 190.6440 191.2906 191.7682 191.8554 191.9300 192.1193
   192.3268 192.4317 192.4697 192.8376 192.9072 192.9621 193.0271 193.0805
   193.6133 194.2633 194.5146 194.5972 194.6566 194.7322 194.8200 194.8789
   194.9966 195.3365 195.6247 195.8959 195.9104 196.1342 196.2954 196.3470
   196.8828 197.0132 197.4045 197.7358 198.0720 198.4358 198.4842 199.1596
   199.4894 199.9934 200.0825 200.9496 200.9559 201.1021 201.5085 201.7254
   202.1372 202.4438 202.5797 202.8040 203.0146 203.2420 203.3786 203.6880
   203.7456 204.0958 204.2108 204.4096 204.5688 204.7282 204.9302 204.9397
   205.0034 205.0817 205.0946 205.2921 205.7187 206.1376 206.3230 206.5549
   206.7182 206.7996 206.8659 206.8704 206.9270 207.1185 207.1695 207.5379
   207.6303 207.8057 207.8375 208.1341 208.4245 208.6245 208.6690 208.7995
   209.2995 209.4402 209.5984 209.9811 210.0284 210.0598 210.1502 210.6862
   210.7624 210.7895 211.2321 211.6186 212.7143 212.9509 213.0101 213.4162
   213.9872 214.0913 214.4093 214.5910 214.6783 214.7003 215.0786 215.1783
   215.4905 215.5867 215.6262 215.7710 215.8135 215.9004 216.0544 216.4563
   216.5185 216.6627 216.9320 216.9581 217.0283 217.2039 217.2159 217.2768
   217.2870 218.1139 218.4535 218.6753 218.9806 219.0514 219.0576 219.3336
   219.5011 219.6562 219.7474 220.0291 220.0868 220.2044 220.4274 220.7538
   221.0163 221.6170 221.8322 221.9988 222.1394 222.1717 222.2734 222.2911
   222.2951 222.3448 222.6498 222.8512 223.0109 223.6134 224.1198 224.5328
   225.0637 225.1774 225.4787 225.5297 225.9115 226.2628 226.3711 226.5975
   226.7932 226.8930 227.0234 227.2381 227.2926 227.4098 227.4616 227.6309
   227.6870 227.7825 228.1552 229.2588 229.2624 229.3268 229.7357 230.1363
   230.2265 230.3860 230.6211 230.6910 231.0083 231.4101 231.4918 231.6004
   231.9590 232.0491 232.0633 232.1496 232.2048 232.2275 233.0486 233.3270
   233.4241 233.7457 234.0880 234.1355 234.1992 234.4312 234.4860 234.5678
   235.0027 235.5537 236.6223 236.8880 237.3312 237.4182 237.8202 237.9362
   238.6322 238.6633 238.8177 238.9757 239.0504 239.4102 239.5530 239.8298
   239.9326 239.9692 240.2095 240.2602 240.3575 240.4243 240.5258 240.6196
   240.7625 241.0520 241.2327 241.2405 241.2671 241.2992 241.3424 241.4379
   241.4887 241.5393 241.7892 241.9851 242.8057 242.9170 243.0577 243.0600
   243.1073 243.1121 243.1218 243.8225 243.9669 244.7685 245.0638 245.2270
   245.6955 245.9662 246.0013 246.2878 246.3297 246.5245 246.5682 246.6176
   246.8230 246.9168 246.9921 247.4675 248.1728 249.0274 249.5249 249.9384
   250.1702 250.3304 250.4723 250.4992 250.6734 250.7318 250.8965 250.9740
   251.2413 251.3973 251.4511 251.8607 251.9617 252.2308 252.2665 252.2728
   252.3783 252.4581 252.4850 252.5320 252.7904 252.8760 253.0070 253.0509
   253.2106 253.2604 253.3437 253.3540 253.3803 253.4189 253.6800 254.0109
   254.3470 254.4272 254.6117 254.7377 254.7717 254.8320 254.8531 255.0600
   255.1965 255.2014 255.2564 255.3196 255.3235 255.4814 255.7797 255.9475
   256.0398 256.1543 256.3750 256.3844 256.4686 256.5612 257.3641 257.3660
   257.3805 257.3985 257.8224 257.8562 258.4106 258.4498 258.5842 258.6685
   258.6784 258.6940 259.2009 259.2347 259.2713 259.4359 259.5910 259.8284
   259.9191 259.9775 260.1002 260.5746 260.9633 261.3796 261.7565 261.7921
   261.8537 261.9150 262.0985 262.3645 262.3793 262.4655 262.5152 262.5568
   262.6409 262.6817 263.0668 263.2198 263.2721 263.2979 263.3694 263.6518
   263.6662 263.7078 263.8654 263.8753 264.1788 264.3165 264.3642 264.4399
   265.1376 265.2072 265.2796 265.2841 265.4049 265.5137 265.5476 265.7959
   266.5756 266.8855 266.8999 266.9834 267.0150 267.0852 267.3401 267.4206
   267.7801 267.9125 268.2636 268.3358 268.3975 268.4824 268.9076 269.2457
   269.3908 269.7018 270.0810 270.3570 270.4004 270.4552 270.5763 270.6354
   270.6777 270.7598 270.7963 271.0209 271.0704 271.1455 271.5107 271.7044
   271.7239 272.0745 272.2437 272.4324 272.4595 272.4944 272.5661 272.5668
   272.7745 272.9599 273.0655 273.1241 273.4170 273.4553 273.8909 274.4738
   274.5829 274.7020 274.9024 274.9590 275.0547 275.0801 275.0993 275.2384
   275.2607 275.3717 275.3947 275.4257 276.0016 276.0722 276.0722 276.1767
   276.3567 276.4680 276.6089 276.6221 276.6682 276.7291 276.9243 277.1436
   277.6713 278.3593 278.4296 278.7306 278.8751 278.9958 279.1214 279.1589
   279.2124 279.4458 279.4895 279.5568 279.6474 279.9930 280.0550 280.0930
   280.2800 280.8289 281.0178 282.4237 282.5980 282.6658 282.7345 282.9642
   283.4016 283.6745 283.8212 284.8642 285.1621 285.3645 285.5180 286.0515
   286.1880 286.3766 286.4582 286.6728 286.7361 286.7534 286.8516 287.0831
   287.3742 287.4450 287.5006 287.8169 287.9424 288.5203 288.5510 288.7838
   288.7910 288.9732 289.0172 289.2031 289.2063 289.2970 289.4612 289.8281
   290.1293 290.5615 290.6770 290.9598 291.2679 291.3198 291.3816 291.5762
   291.5871 291.6767 292.0470 292.0757 292.1135 292.3482 292.4848 292.5207
   292.6470 293.5784 293.6000 293.6057 293.6197 293.6669 293.7625 294.3122
   294.4043 294.4429 294.5972 294.9651 295.0769 295.0773 295.2371 295.2856
   295.4402 295.4586 295.4819 295.5489 295.5739 295.5843 295.6174 295.6321
   295.8906 295.9932 296.0354 296.5502 296.5860 296.7931 296.8545 297.0773
   297.3209 297.9528 298.1488 298.6447 298.7099 298.8706 299.1349 299.4278
   299.4941 299.7534 299.8009 299.9762 300.1033 300.7109 300.7494 300.8072
   300.9108 301.1401 301.2852 301.4400 301.5560 301.6134 301.7786 302.3222
   302.5292 302.6909 302.7737 302.8261 302.9534 302.9944 303.1065 303.2018
   303.2539 303.2588 303.2816 303.4312 303.5314 303.9513 304.2985 304.9093
   305.1725 305.2237 305.4638 305.4839 305.9221 306.2834 306.4787 306.4929
   306.7878 306.9771 307.1540 307.9493 308.0241 308.2190 308.6217 308.6762
   308.6922 310.6991 310.7544 310.9503 311.3406 311.3714 311.6017 311.8285
   311.9170 312.2811 312.4225 312.4343 312.4569 312.8186 312.9084 312.9988
   313.0654 313.2776 313.3035 313.8392 313.8547 314.1700 314.3539 314.4953
   314.6912 314.7328 315.1670 315.2708 315.2864 315.5809 315.6218 315.8380
   315.8647 316.0218 316.0553 316.0652 316.1694 316.5379 316.6348 316.7411

          k = 0.1250 0.3608 0.0000 (  5103 PWs)   bands (ev):

   -19.4948 -10.2323  -7.9832  -6.3725   3.5968   4.3915   5.6525   5.8092
     7.3264   7.5132   8.5094  10.1946  10.6384  12.3277  13.5122  15.1407
    15.5241  16.0409  17.5317  17.7608  18.1976  19.1525  19.9976  20.1074
    20.6667  21.4132  21.4679  21.9905  22.3483  23.3091  23.6097  23.9529
    24.6536  25.8150  26.1147  27.1341  27.1889  27.8753  28.1802  28.6394
    30.4196  31.4381  31.9149  32.6443  33.3869  33.5340  33.8641  34.0024
    34.6587  35.4512  35.7762  35.9445  37.0413  37.0893  38.4571  38.5106
    39.3199  39.3254  40.1026  41.1049  41.2949  41.9363  41.9454  42.5807
    42.8737  43.5850  43.5964  44.0641  44.2105  44.5294  45.1615  45.4120
    47.1551  47.3114  47.3466  47.9747  48.6103  49.1406  49.9490  51.1769
    51.2666  51.6410  51.8943  52.5400  52.9750  53.9315  54.1068  54.1707
    54.6926  55.3943  55.7384  55.8256  56.0931  56.2626  56.6512  56.9408
    57.3781  57.6386  58.1091  58.2042  58.4123  59.0894  59.6288  59.9041
    60.1802  60.1842  60.7944  62.0008  62.2463  62.5994  62.9396  63.3553
    63.8364  63.8390  64.2778  64.4012  64.5087  65.1544  65.5407  66.0436
    66.1366  66.3272  66.6926  67.3582  67.8175  67.8786  68.5205  68.7744
    69.0452  69.0908  70.1547  70.1925  71.0401  71.0599  71.5161  71.6065
    72.1062  72.1309  73.1096  73.2024  74.3086  74.6434  75.6050  75.6821
    76.2502  76.2864  76.3842  76.4365  77.0697  77.6962  78.1707  78.2535
    78.7633  79.4342  79.6194  79.8430  80.0811  80.1370  80.3280  80.5850
    81.3730  81.4920  81.6094  82.0177  82.7323  83.1341  83.1691  83.5683
    83.5952  84.1342  85.7775  86.3059  86.6554  87.2230  87.5634  87.9642
    88.0919  88.6857  88.7657  88.9747  89.1825  89.8175  89.8176  89.9385
    90.3287  90.4280  91.5005  91.5558  92.0171  92.1562  92.3299  92.4113
    92.6953  92.7932  93.1861  93.4919  93.6132  94.3006  94.3218  94.4192
    94.6266  95.3065  95.6032  95.7551  95.8232  96.1784  96.4160  96.5110
    96.7831  97.9349  98.3295  99.2591  99.3196  99.7315  99.8438 100.1775
   100.7569 101.0071 101.3205 101.5463 101.5965 101.7502 102.0327 102.2290
   102.4210 102.6762 103.4623 103.8077 103.9238 104.0981 104.4344 104.5446
   104.7157 104.8070 105.2331 105.2449 105.4419 105.7292 105.9424 106.0792
   106.4553 106.5783 107.3424 107.5886 107.8231 107.8437 108.9065 109.3008
   109.3726 110.4752 111.7703 111.9090 112.0264 112.1705 112.7070 113.0585
   113.1488 113.3282 113.3342 113.8702 114.3716 114.4799 114.5568 114.9882
   115.2162 116.0237 116.0661 116.3287 116.3464 116.6330 116.7349 116.7892
   117.3182 117.4102 117.5643 117.5676 118.1899 118.5323 119.0621 119.1894
   119.2878 119.4100 119.5831 120.0665 120.0695 120.2737 120.8415 122.0620
   123.0401 123.4439 123.5261 123.9292 124.2449 124.4311 124.4329 125.0064
   125.1153 125.3950 125.6221 125.6339 125.8213 126.0427 126.4027 126.4922
   126.5935 126.6216 126.9004 127.2478 127.4275 128.3397 128.3974 128.5216
   128.5336 128.6284 128.8702 129.3748 129.4485 129.6121 129.8972 130.7395
   130.8737 131.3710 131.4899 131.6857 131.7740 131.8066 131.8924 132.0734
   132.3432 132.4828 133.2754 133.5154 134.3110 134.6190 134.9580 135.3386
   135.4239 135.6756 135.7631 136.2254 136.3995 136.4602 136.6264 136.9860
   137.0879 137.2804 137.5250 137.5985 138.1646 138.1772 138.4608 138.6089
   138.6834 138.9841 139.5361 140.2715 140.3423 140.5381 140.5453 140.9616
   141.1982 141.3009 141.4664 141.5839 141.9451 141.9828 142.2506 142.4345
   142.6387 142.7046 142.8594 143.4421 143.8683 143.9331 144.2860 144.5101
   144.9473 145.0429 145.3473 146.0298 146.9085 147.3306 147.4558 147.5718
   147.9103 148.1175 148.2631 148.3685 148.5279 148.5616 148.7207 149.1316
   149.1454 149.6214 149.7822 149.9088 149.9417 150.4219 150.7126 150.9164
   151.1741 151.3518 152.0034 152.1680 152.2990 152.3109 152.5513 152.5809
   153.0881 153.4065 153.5904 153.6950 154.2305 154.3789 155.0328 155.4445
   155.8447 156.1547 156.3649 156.4397 156.7282 157.4784 157.7375 158.8658
   158.8878 159.5617 160.2196 160.4895 160.6196 160.8613 161.2491 161.5866
   161.9691 162.2875 162.5185 162.6022 163.1229 163.3760 163.7587 163.9315
   164.0265 164.0614 164.2531 164.6633 164.8250 164.9211 165.2128 165.2658
   165.5017 165.7886 166.1837 166.6364 166.7723 166.9228 166.9274 167.3422
   167.6602 167.8563 167.9799 168.3446 168.5920 168.8838 169.1307 169.3413
   170.0850 170.3022 170.8590 171.4670 171.5856 171.8277 171.9453 171.9820
   172.1200 172.2989 172.5580 172.7328 173.0418 173.1370 173.3879 173.8986
   174.1366 174.1661 174.2567 174.5634 174.5849 174.8449 174.8663 174.8798
   174.9526 175.2872 175.4657 175.8989 176.2315 176.2483 176.4715 176.4951
   176.6701 176.8798 176.9556 177.0424 177.3532 177.4631 177.8942 178.4681
   178.6690 178.8867 178.9159 179.2276 179.4139 179.7635 179.8629 180.0130
   180.0475 180.1640 180.5039 180.6580 180.8341 180.8585 181.2549 181.4783
   181.8581 182.1285 182.6508 182.8109 182.9446 183.5597 183.6815 183.9822
   184.0781 184.2275 184.3876 184.5605 184.6900 184.9337 185.2475 185.3669
   185.5668 185.7049 185.7289 186.0673 186.2628 186.4352 186.5536 186.8891
   186.9019 187.0221 187.0503 187.4814 187.5488 188.0312 188.2102 188.3042
   188.5078 188.5681 188.5954 188.6516 188.7267 188.9755 189.4299 189.6454
   189.8848 189.8981 190.0022 190.1255 190.5368 190.6359 190.6927 190.7764
   191.6989 191.8964 192.2899 192.3388 193.2041 193.7076 193.7374 194.4961
   194.7207 194.9580 195.7012 195.7375 195.8220 196.1118 196.1916 196.5101
   196.5483 196.6986 196.7853 196.9775 197.0556 197.2011 197.5857 197.5864
   197.7592 198.0668 198.2341 198.5079 198.9344 199.4348 199.5789 200.1947
   200.2378 200.5693 200.6270 200.7502 201.1016 201.2585 201.5119 201.5878
   201.8616 201.9687 202.2527 202.6365 202.9071 203.0450 203.0804 203.0824
   203.2110 203.4750 203.5467 203.7602 204.1196 204.1727 204.2995 204.7103
   204.8313 204.8358 204.8905 204.9769 205.1245 205.1965 205.5798 205.7913
   205.9213 206.6325 206.6779 206.8626 207.0504 207.3554 207.8101 207.9756
   208.0759 208.2077 208.3835 208.4284 208.7649 208.8675 208.9529 209.2501
   209.6294 209.7002 210.0058 210.0935 210.2271 210.3070 210.7950 211.6673
   211.7276 211.9713 212.2811 212.2889 212.6054 212.6606 212.8206 212.8384
   213.0691 213.1158 213.4507 213.4604 214.0485 214.4959 214.6660 214.9463
[...]
   173.1603 173.9717 174.2101 174.2715 174.5651 174.8772 174.9449 175.6825
   175.8154 176.2081 176.2121 176.3905 176.4476 176.7831 176.8513 177.1354
   177.5208 177.6883 177.8819 178.0656 178.1407 178.1955 178.5507 178.6512
   178.6930 178.7658 179.1354 179.5520 179.8960 180.2579 181.0413 181.5559
   181.7790 181.7899 182.4822 182.5605 182.5820 183.2540 183.5926 183.7432
   184.1768 184.2200 184.3926 184.5188 184.6465 184.9036 185.0074 185.3430
   185.3860 185.4247 185.4330 185.4402 185.4447 185.4533 185.4828 185.6708
   185.8202 185.9813 186.2729 186.4077 186.6652 186.6711 186.9572 186.9814
   187.0263 187.2159 187.2449 187.3051 187.3117 187.3392 187.3419 187.6223
   187.8269 187.8873 188.0535 188.1606 188.6048 189.7484 189.9935 190.1527
   190.2405 190.4360 190.5221 190.5490 190.5938 190.7457 190.7870 190.9122
   191.1457 191.2800 191.5786 191.6192 192.0956 192.3905 193.1568 193.2058
   193.5377 193.7730 193.8084 194.1507 194.2848 194.5781 194.6739 194.7909
   194.9034 194.9702 195.0624 195.1056 195.1697 195.6440 195.7454 195.9937
   196.1297 197.0275 197.2325 197.4571 198.7229 198.7962 199.1922 199.3833
   199.6226 199.6914 199.8336 199.9627 200.2036 200.2153 200.2970 200.3444
   200.3703 200.4360 200.5410 200.5647 200.6222 201.1410 201.1480 201.4476
   201.4513 201.5206 201.6192 202.0287 202.7021 202.7537 202.9325 203.1530
   203.4973 204.1719 204.6583 204.8394 205.0863 206.2402 206.3872 206.6186
   206.7126 207.0265 207.2200 207.2390 207.5709 207.6001 207.7407 207.7657
   207.8855 208.2044 208.6012 208.6375 208.8548 209.0504 209.4611 209.5347
   209.5951 209.6337 209.6805 209.7013 209.7514 209.8479 209.9989 210.0533
   210.4935 210.7434 211.1865 211.4514 211.4708 211.6755 211.7554 212.1232
   212.2210 212.3668 212.5602 212.7186 212.8052 212.9671 213.6589 213.8019
   214.0390 214.0677 214.4482 214.7379 214.7538 214.8678 214.9342 214.9485
   215.0653 215.2841 215.3878 216.0900 217.1294 217.2938 217.5587 218.2569
   218.4074 218.7012 218.8823 218.9520 219.1571 219.3509 219.4321 219.6529
   219.8428 219.9417 220.0436 220.1838 220.6671 220.7065 220.7494 220.9024
   220.9217 221.6640 221.6797 222.5473 222.5695 222.7703 222.9923 223.2224
   223.4177 223.4800 223.5136 223.7528 223.8078 223.8644 224.0640 224.1905
   224.3724 224.3909 224.4712 224.6448 224.7376 224.7646 224.9947 225.5226
   225.6719 225.6833 225.6994 225.7111 226.1202 226.1237 226.6315 226.8187
   227.1007 227.1231 227.1268 227.4034 227.5657 227.5859 227.6194 227.9476
   228.1831 228.3034 228.6562 229.3824 229.5926 230.4882 230.5873 230.7815
   230.7847 230.8349 231.2020 231.2067 231.3005 231.3941 231.9006 232.2550
   232.3872 232.8216 233.0509 233.1524 233.2748 233.3558 233.4136 233.5141
   233.5315 233.7638 234.0954 234.3151 234.3717 234.5074 234.7682 234.8766
   234.9799 235.2806 235.2972 235.3553 235.3760 235.4182 236.0184 236.8551
   237.0925 238.3153 238.5941 238.8309 238.9390 239.2339 239.6684 239.7960
   240.4117 240.4575 240.7474 240.7847 241.0161 241.2528 241.4442 241.7148
   242.1382 242.2270 242.4058 242.5780 243.2170 243.6643 243.7562 243.8600
   243.9437 244.1711 244.3029 244.3166 244.4443 244.4575 244.5347 244.6663
   244.9836 245.0771 245.2934 245.3572 245.4535 245.5379 245.5456 246.4034
   246.5219 247.2216 247.3391 247.5308 247.6193 247.6579 247.7377 247.8029
   248.0353 248.3373 248.8066 249.5812 249.6430 249.9312 249.9324 250.2264
   250.4716 250.6461 250.7698 250.9862 251.3589 252.3581 252.9107 253.3774
   253.6808 254.3755 254.4519 254.7653 254.9580 255.2224 255.4095 255.6794
   255.8201 256.0718 256.1412 256.2038 256.2965 256.3168 256.4152 256.8068
   256.8875 257.3991 257.4894 257.5580 257.7702 257.8954 257.9032 257.9147
   257.9287 257.9760 258.0893 258.1486 258.1739 258.3665 259.1033 259.1205
   259.5537 259.7109 259.7399 259.7510 259.9923 260.3553 260.6972 261.3447
   261.8164 262.4796 262.9067 262.9722 263.0540 263.1941 263.3001 263.7533
   263.7986 263.9294 264.0524 264.1178 264.1928 264.6314 264.6790 264.8705
   265.0024 265.1513 265.3508 265.5772 265.7141 265.8112 266.3167 266.4009
   266.4768 266.4789 266.6507 266.7514 267.2866 267.3389 267.7865 267.8257
   267.8892 268.1541 268.1975 268.2796 268.5269 268.9223 269.0405 269.1651
   269.2473 269.2480 269.2780 269.3151 269.4305 269.6361 269.7547 270.1496
   271.5485 272.0066 272.1566 272.5196 272.7102 272.7610 272.9080 273.2109
   273.2724 273.3974 273.4915 273.5241 273.7705 274.0861 274.3301 274.5838
   274.7703 274.7966 274.8641 275.1575 275.4079 275.4739 276.3044 278.1624
   278.6664 279.1099 279.2914 279.4369 279.4805 280.0035 280.0614 280.2747
   280.2901 280.6307 280.8212 281.0108 281.1518 281.5145 281.8577 281.9853
   282.0299 282.0551 282.1088 282.2123 282.5202 282.6090 282.6305 282.7773
   282.9707 283.1069 283.3376 283.4200 283.4240 283.5242 283.6105 283.7750
   283.9427 283.9623 284.0186 284.2004 284.3150 284.4828 284.6084 284.6726
   284.6892 284.7375 284.7491 285.2191 285.7443 286.6536 286.8133 286.8809
   286.9113 286.9381 287.3047 287.3953 287.4290 287.5424 287.7150 287.7299
   288.0646 288.1342 288.2854 288.5813 289.2869 289.3963 289.5870 289.8488
   290.0749 290.3236 290.4195 290.7532 290.9554 291.1182 291.1966 291.3060
   291.4404 291.6044 291.6679 292.3918 292.4177 292.5635 292.8435 292.9343
   293.1736 293.1861 293.3225 293.4098 293.4444 293.5054 293.5248 294.7927
   295.3551 295.6092 295.6195 295.9199 295.9310 296.1148 296.3822 296.4358
   296.5530 296.7313 296.9107 297.0147 297.1502 297.2371 297.4910 297.6258
   297.9222 297.9634 298.0548 298.0737 298.0789 298.1200 298.1476 298.1903
   298.2128 298.3174 298.3453 298.4512 298.4677 299.4670 299.4898 299.5242
   299.9147 299.9608 300.0040 300.0086 300.0233 300.3259 300.8478 300.9476
   300.9633 301.1738 301.7699 302.1537 302.1854 302.6560 303.2262 303.2446
   303.2624 303.2644 303.4210 303.6382 303.6566 303.7393 303.8809 304.0730
   304.1438 304.3011 304.6281 304.9888 305.2410 305.2949 305.4774 305.6868
   305.8995 305.9739 305.9889 306.0308 306.1316 306.2259 306.2274 306.3124
   306.3792 306.7926 306.9122 307.2386 307.2813 307.3318 307.4265 307.5306
   307.7637 307.7655 307.8079 307.8313 307.8735 307.9625 308.0413 308.1490
   308.2399 308.3745 308.5670 309.0039 309.3715 309.4065 309.4461 310.3058
   310.5770 310.8218 311.0095 311.0129 311.1122 311.2019 311.2609 311.4584
   311.4651 311.6168 311.6566 311.6853 311.7192 311.7402 311.9950 312.0434
   312.0934 312.5505 312.5529 312.8945 312.9126 313.1009 313.1559 313.1677
   313.2368 313.2854 313.3325 313.3634 313.5923 313.6092 313.8386 313.9300
   313.9564 314.1475 314.3586 314.4565 314.4916 314.6082 314.6457 314.6885
   314.7712 315.3337 315.5233 315.6488 316.0252 316.3850 316.5068 316.6109
   316.6853 317.1791 317.6026 318.1724 319.3348 319.5360 319.6662 319.7120

          k = 0.2500 0.5774 0.0000 (  5130 PWs)   bands (ev):

   -17.8549 -12.0074 -10.3430  -3.9299   1.1027   9.0068   9.2053  10.1635
    11.2217  11.3785  11.7758  11.9320  12.0226  13.1522  13.1944  13.7767
    13.7788  14.7071  15.4223  15.4651  15.8535  16.1450  16.2554  16.7932
    17.2969  17.7707  18.4520  18.7515  19.7701  20.5033  21.1598  21.7223
    21.9298  22.6516  24.0425  24.1419  25.5035  25.7494  26.8470  27.2226
    27.8685  29.2485  31.2127  31.4232  32.0489  33.6863  34.2161  34.3009
    36.3695  37.1689  37.5788  38.4103  39.7722  39.8723  40.5871  40.8211
    41.1445  41.2509  41.4978  41.7667  42.1454  42.7806  44.5793  44.7404
    45.2670  45.4092  45.5434  46.9706  47.2380  47.7909  48.0416  48.1098
    48.4099  48.6293  48.8415  49.4045  49.8717  49.9184  50.0318  50.0692
    50.3726  50.7220  50.9212  52.3780  52.8979  52.8994  53.5616  53.7660
    53.8369  54.4689  54.7937  55.3252  56.0916  56.9259  57.4306  57.4960
    58.3072  58.3849  59.0468  59.5957  60.2550  61.0607  61.4519  62.1404
    62.4811  62.5295  63.3310  63.8450  63.9495  64.3303  64.8758  65.4906
    67.5057  68.2853  69.1692  69.1895  69.5847  69.7102  69.9464  70.1290
    70.6557  70.7037  70.7716  71.2858  71.2861  71.9643  72.2528  72.2531
    72.3270  72.4382  73.5517  73.8711  73.9951  74.1255  74.1999  74.5055
    74.6176  74.7925  75.5333  76.1280  76.1542  76.1932  76.3769  76.8868
    76.9180  76.9666  77.0911  77.3808  77.5375  77.5943  77.6984  77.9387
    78.2298  78.2414  78.2759  78.3939  78.8228  78.9805  80.4464  80.7177
    81.0934  81.2786  81.2969  81.5877  81.8112  81.9527  82.2152  82.4717
    82.5646  82.8798  82.9989  83.5593  84.0862  84.1903  84.3439  84.3623
    84.7333  84.7519  85.2482  85.3301  85.7164  85.8041  85.9144  86.1438
    86.2898  86.3991  86.4224  86.5420  86.9331  87.0012  87.1295  87.2411
    87.2654  87.6530  88.1318  88.2692  89.0122  89.1314  89.6788  89.7735
    90.6049  90.9393  91.2890  91.6415  91.9497  92.0606  92.9954  93.6004
    93.8070  93.8607  94.0593  94.3551  94.6082  94.6462  94.9478  94.9529
    95.6100  95.8828  96.1291  96.4132  96.7505  97.5223  97.8076  97.9899
    98.1780  98.3882  98.7017  98.9645  99.2318  99.6178  99.8917 100.0652
   100.2161 100.8937 101.0271 101.7583 101.7640 102.7846 103.4177 104.1424
   104.9072 104.9233 105.4926 106.0539 106.0804 106.2950 106.4650 106.9887
   107.1264 107.2556 108.2223 108.5320 108.7310 108.9807 109.8140 110.0297
   110.1695 110.3471 111.1402 111.4275 111.4481 111.6206 112.5319 113.0844
   113.4615 114.0544 114.2528 114.2746 114.3512 114.3994 114.7880 114.9686
   117.0064 118.6296 119.0021 119.4124 119.4401 119.7477 120.0644 120.2839
   121.1627 121.4021 121.7636 121.9583 122.8009 123.0760 123.0871 123.4264
   124.1124 124.2808 124.2904 124.3626 124.3790 125.3650 125.3964 125.5668
   127.2020 127.7116 127.8957 128.8420 129.5088 129.9293 130.5539 130.8755
   131.0932 131.1745 131.7676 131.8877 131.9269 132.1025 132.2069 132.3291
   132.3959 132.5041 132.6466 132.7233 132.7366 132.9627 134.0070 134.2420
   134.5234 134.7077 134.7190 134.7423 134.8553 135.7742 136.4982 136.6718
   136.7917 137.1742 137.3518 137.4660 138.0798 138.0815 138.3318 138.8316
   138.8467 140.5553 140.7971 141.1442 141.5266 141.6120 141.6967 142.0143
   142.0647 142.4281 142.4516 142.5016 142.8220 142.8772 142.9716 143.3600
   143.4002 143.6174 143.8624 144.2302 144.3306 144.6698 144.6861 144.7019
   144.7043 145.0696 145.5124 146.1053 146.1501 146.2768 146.3605 146.4116
   146.4647 146.7179 146.8593 147.0061 147.0435 147.0758 147.3355 147.3971
   147.5749 147.7424 147.9982 148.3073 148.6711 148.7014 148.7019 148.7939
   149.4464 149.7028 149.7738 149.9362 150.0231 150.5532 150.6336 150.7363
   151.3110 151.5785 152.5043 153.2103 153.3231 153.4718 153.4874 153.6969
   153.9136 154.1023 154.3217 154.3692 154.4779 154.4974 154.6507 154.7262
   154.8834 155.2507 155.2826 155.7710 155.9869 156.3802 156.6212 157.0774
   157.0963 157.2528 158.1030 158.1894 158.2996 158.3558 158.4624 159.2452
   159.3024 159.4259 159.4276 159.6707 159.8547 160.0512 160.4273 160.7351
   160.8699 160.9327 161.1266 161.3510 161.5355 161.5949 162.0489 162.2794
   162.2934 162.5582 162.5679 163.3776 163.6353 163.7447 163.7801 164.4815
   165.3398 165.9925 166.3342 166.7403 166.7832 167.0456 167.1306 167.4933
   168.1932 168.3624 168.3683 168.6278 168.7109 168.7333 168.7898 169.0111
   169.0198 169.3696 169.6523 170.0199 170.1804 170.2396 170.4036 170.4106
   170.6129 170.6827 170.6908 170.7041 170.7274 170.9146 171.2350 171.4230
   172.3205 172.5242 172.6444 173.1134 173.4845 173.8443 173.9732 174.0484
   174.0851 174.2216 174.2311 174.4578 174.5939 175.0720 175.5830 176.0792
   176.1691 176.5632 176.7625 176.9602 177.1297 177.4505 177.5354 177.7479
   177.8050 178.1404 178.2342 178.2934 178.5078 178.6993 178.7819 179.2450
   179.6104 179.7824 179.9752 180.7436 180.8257 181.2458 181.4593 182.2828
   182.4207 182.6107 182.6463 182.8502 182.8960 182.9810 183.3307 183.6184
   183.6725 183.8011 184.0442 184.0457 184.5414 184.5632 184.8203 184.9043
   185.3770 186.1401 186.2036 186.5449 186.5625 186.8352 186.9447 186.9519
   187.4759 188.1047 188.2589 188.7762 189.0110 189.1643 189.5895 189.6693
   190.0070 190.0372 190.2576 190.6697 190.7655 190.8878 190.9655 191.2540
   191.6521 191.7408 192.0199 192.0680 192.5114 192.9116 193.0808 193.1619
   193.6318 194.2821 194.4064 194.5631 194.9124 195.1285 195.1883 195.4196
   195.4445 196.0039 196.1761 196.3267 196.3849 196.4761 196.8168 196.8560
   196.9494 196.9842 196.9933 197.1113 197.3985 197.4074 197.6093 197.6577
   197.7350 198.0716 198.4145 198.5493 198.6018 199.0685 199.0825 199.1203
   199.2772 199.4078 199.9267 199.9479 200.0349 200.3858 200.8658 201.2981
   201.5623 202.0091 202.0573 202.1426 202.2422 202.8282 202.8807 202.9297
   202.9701 203.2567 203.3803 203.5330 203.5338 204.2137 204.4806 204.5143
   204.7838 204.9736 205.0016 205.0040 205.0945 205.1915 205.2090 205.2836
   205.7037 205.9395 206.1054 206.3419 206.4136 206.4703 206.5573 206.6964
   206.8259 207.0777 207.1231 207.2221 207.2822 207.2878 207.4057 207.4142
   207.5158 207.5307 208.3418 208.8021 210.1488 210.1817 210.1890 210.1944
   210.6480 210.6973 211.5945 211.7901 211.8847 212.1072 212.1277 212.2660
   212.2760 213.0337 213.0399 213.2685 213.6886 213.9168 213.9808 214.2657
   214.3821 214.5172 214.5409 214.6640 214.8660 214.9869 215.3626 215.3970
   215.5058 215.5778 215.7849 215.8541 215.8639 216.1815 216.4573 216.5280
   216.6505 216.8248 216.8251 216.9884 217.0183 217.0914 217.1718 217.1724
   217.2395 217.6615 218.0677 218.1379 218.3714 218.6708 218.8392 218.8560
   218.9097 218.9258 218.9516 219.1357 219.2486 219.2593 219.3312 219.5494
   219.8913 219.9159 219.9216 220.1815 220.2001 220.2896 220.3136 221.9170
   221.9319 222.1008 222.1554 222.2549 222.2716 222.4092 222.5703 222.8868
   223.1549 223.5875 223.8359 225.2116 225.4316 225.5479 225.9920 226.1334
   226.1488 226.3104 226.5906 226.6317 226.7565 226.8081 226.8561 227.0102
   227.3861 227.7713 227.7934 227.9672 228.1108 228.2888 228.3586 228.5855
   229.0512 229.2568 229.7743 230.0950 230.3956 230.8304 230.8345 230.9341
   231.1550 231.3204 231.6659 231.8743 232.0257 232.0465 232.1397 232.3583
   232.5502 232.7573 232.8157 233.0785 233.1212 233.2022 234.0088 234.1378
   234.3141 234.3947 234.7989 234.9306 235.0885 235.2180 235.3908 236.0650
   236.2515 236.4060 236.7259 236.9822 237.0781 237.5477 237.7751 238.2661
   238.6286 238.9060 239.1439 239.2387 239.3179 239.4314 240.1345 240.3996
   240.6750 240.9013 241.0730 241.1997 241.4169 241.9424 241.9842 242.3513
   242.4460 243.0610 243.0824 243.3320 243.3748 243.3758 243.4590 243.6444
   244.1508 244.4811 244.4917 244.6897 244.8131 245.1035 245.2745 245.8679
   246.0204 246.1272 246.1885 246.2397 246.3780 246.5935 246.7961 246.8420
   246.9240 247.3913 247.5380 247.9444 249.1310 249.2814 250.0268 250.7387
   251.3963 251.6139 251.6910 251.9044 252.2162 252.2636 252.3503 252.7700
   253.0780 253.2306 253.3522 253.7454 254.2095 254.4999 254.8376 255.0804
   255.2715 255.2988 255.3991 255.6130 255.9305 255.9666 256.0897 256.1550
   256.1976 256.2917 256.4081 256.9336 257.0954 257.3336 257.3732 257.6816
   258.3682 258.4514 258.6598 258.9979 259.2251 259.4379 259.5788 259.9241
   260.0172 260.4007 260.4496 260.8495 260.9026 261.2069 261.3008 261.4318
   261.5572 261.7068 261.8547 262.2583 262.5389 263.0561 263.2737 263.3596
   263.5664 263.6037 263.8284 263.9277 264.6398 264.9741 265.0653 265.0933
   265.2012 265.3708 266.2560 266.3845 266.3909 266.6214 266.8247 266.9160
   267.1677 267.4268 267.7646 267.8189 267.8793 267.9056 268.0599 268.3555
   268.9437 269.0263 269.0286 269.9165 270.1386 271.7992 272.2916 272.3608
   272.3930 272.8709 273.3344 273.4050 273.6995 273.8095 273.8710 274.6022
   274.9130 275.2413 275.3378 275.7007 275.7628 275.9151 275.9379 276.0035
   276.1560 276.1821 276.1955 276.2330 276.8921 277.2269 277.2973 277.4825
   277.4844 277.5223 277.5520 277.7910 277.8117 277.8534 277.9565 278.2617
   278.3388 279.0808 279.1811 279.3015 279.3507 279.3640 279.5000 279.6848
   279.6916 279.9051 279.9053 280.4615 280.6295 280.7233 280.7854 281.1737
   281.3324 281.3364 281.6241 281.8991 282.1046 282.1951 282.3081 282.4271
   282.4519 282.5904 282.5987 282.6644 283.0363 283.0549 283.2151 283.4389
   283.7256 284.3611 285.9384 286.3805 286.4252 286.8232 286.8920 286.9202
   287.1142 287.1707 287.2284 287.4872 287.5515 287.6950 288.0108 288.0489
   288.1166 288.1398 288.2504 288.3215 288.4857 288.5470 288.6722 288.7878
   288.8923 289.1885 289.5397 289.5793 289.6303 289.6893 290.2016 290.5555
   290.6373 290.6910 291.1458 291.3801 291.4965 291.6076 291.7986 292.3761
   292.3906 292.4269 292.6082 293.2273 293.7439 293.9944 294.0324 294.3568
   294.4219 294.5215 294.7377 294.7552 294.8108 294.8502 294.8968 295.0523
   295.4865 295.6733 295.7262 295.8162 295.8270 295.8736 295.9693 296.7046
   297.0676 297.0746 297.3780 297.5045 297.5150 297.7021 297.7192 297.7544
   297.8721 297.9145 297.9562 298.2835 298.3187 298.6162 298.8004 299.0335
   299.0850 299.2464 299.2658 299.4088 299.4451 299.4757 300.5351 300.5827
   300.8677 301.0625 301.1206 301.3352 301.4479 301.7314 302.5327 302.6781
   302.7165 302.8894 303.7267 304.0749 304.3398 304.4060 304.5445 304.5460
   304.8683 305.0602 305.2725 305.5161 305.5604 305.6454 305.6674 305.7391
   305.7668 306.1935 306.3602 306.6379 306.6682 306.7797 307.2064 307.2603
   307.3171 307.6351 307.7299 307.7395 307.7435 307.8011 308.3389 308.7113
   308.7117 309.0305 309.1399 309.2101 309.2726 309.3675 309.6910 309.7055
   309.7651 309.9407 310.4975 310.7807 310.8390 310.8506 310.9251 310.9377
   311.1042 311.1283 311.3955 311.4047 311.5536 311.6182 312.1235 312.4211
   312.5608 312.7776 312.8037 313.0511 313.4058 313.6016 313.7185 313.7212
   313.7899 313.8820 313.8958 313.9074 314.4764 314.7347 314.8038 314.8949
   314.9814 315.0486 315.1053 315.2065 315.2376 315.3358 315.3634 315.5281
   315.5594 315.6029 315.6360 315.6796 315.8269 315.9008 315.9245 315.9419
   315.9913 316.0762 316.8431 316.8713 316.9107 317.1803 317.2194 317.7441
   318.1508 318.1670 318.2158 318.4880 318.7326 318.7938 318.8634 318.9009
   318.9323 318.9853 319.0520 319.1044 319.1339 319.2856 319.6679 319.7845

     the Fermi energy is    -0.0720 ev
     (compare with:    -1.2161 eV, computed in scf)

     Writing all to output data dir out/BN.save/
 
     init_run     :      0.11s CPU      0.15s WALL (       1 calls)
     electrons    :    557.44s CPU    574.76s WALL (       1 calls)

     Called by init_run:
     wfcinit      :      0.00s CPU      0.00s WALL (       1 calls)
     potinit      :      0.01s CPU      0.02s WALL (       1 calls)
     hinit0       :      0.05s CPU      0.08s WALL (       1 calls)

     Called by electrons:
     c_bands      :    557.44s CPU    574.76s WALL (       1 calls)
     v_of_rho     :      0.01s CPU      0.01s WALL (       1 calls)

     Called by c_bands:
     init_us_2    :      0.00s CPU      0.00s WALL (      10 calls)
     init_us_2:cp :      0.00s CPU      0.00s WALL (      10 calls)
     cegterg      :    542.43s CPU    558.96s WALL (      10 calls)

     Called by *egterg:
     cdiaghg      :    503.57s CPU    519.29s WALL (     108 calls)
     h_psi        :      9.46s CPU      9.72s WALL (     118 calls)
     g_psi        :      0.07s CPU      0.07s WALL (      98 calls)

     Called by h_psi:
     h_psi:calbec :      0.14s CPU      0.15s WALL (     118 calls)
     vloc_psi     :      9.11s CPU      9.36s WALL (     118 calls)
     add_vuspsi   :      0.12s CPU      0.12s WALL (     118 calls)

     General routines
     calbec       :      0.14s CPU      0.15s WALL (     118 calls)
     fft          :      0.00s CPU      0.04s WALL (      10 calls)
     fftw         :      8.24s CPU      8.45s WALL (  152750 calls)
 
     Parallel routines
 
     PWSCF        :   9m18.67s CPU   9m36.71s WALL

 
   This run was terminated on:  11:46:35   5Apr2024            

=------------------------------------------------------------------------------=
   JOB DONE.
=------------------------------------------------------------------------------=
