
     Program PWSCF v.7.1 starts on 17Nov2023 at 20: 3: 6 

     This program is part of the open-source Quantum ESPRESSO suite
     for quantum simulation of materials; please cite
         "P. Giannozzi et al., J. Phys.:Condens. Matter 21 395502 (2009);
         "P. Giannozzi et al., J. Phys.:Condens. Matter 29 465901 (2017);
         "P. Giannozzi et al., J. Chem. Phys. 152 154105 (2020);
          URL http://www.quantum-espresso.org", 
     in publications or presentations arising from this work. More details at
     http://www.quantum-espresso.org/quote

     Parallel version (MPI), running on    24 processors

     MPI processes distributed on     1 nodes
     123535 MiB available memory on the printing compute node when the environment starts
 
     Reading input from pw_mp-20351_scf_k3000_E40.in
Warning: card &CELL ignored
Warning: card / ignored

     Current dimensions of program PWSCF are:
     Max number of different atomic species (ntypx) = 10
     Max number of k-points (npk) =  40000
     Max angular momentum in pseudopotentials (lmaxx) =  4
 
     K-points division:     npool     =       2
     R & G space division:  proc/nbgrp/npool/nimage =      12
     Subspace diagonalization in iterative solution of the eigenvalue problem:
     a serial algorithm will be used

 
     Parallelization info
     --------------------
     sticks:   dense  smooth     PW     G-vecs:    dense   smooth      PW
     Min          57      57     17                  994      994     173
     Max          58      58     18                  998      998     175
     Sum         685     685    211                11935    11935    2085
 
     Using Slab Decomposition
 


     bravais-lattice index     =            2
     lattice parameter (alat)  =      11.1569  a.u.
     unit-cell volume          =     347.1883 (a.u.)^3
     number of atoms/cell      =            2
     number of atomic types    =            2
     number of electrons       =        18.00
     number of Kohn-Sham states=           18
     kinetic-energy cutoff     =      40.0000  Ry
     charge density cutoff     =     160.0000  Ry
     scf convergence threshold =      1.0E-10
     mixing beta               =       0.7000
     number of iterations used =            8  plain     mixing
     Exchange-correlation= PBE
                           (   1   4   3   4   0   0   0)

     celldm(1)=  11.156853  celldm(2)=   0.000000  celldm(3)=   0.000000
     celldm(4)=   0.000000  celldm(5)=   0.000000  celldm(6)=   0.000000

     crystal axes: (cart. coord. in units of alat)
               a(1) = (  -0.500000   0.000000   0.500000 )  
               a(2) = (   0.000000   0.500000   0.500000 )  
               a(3) = (  -0.500000   0.500000   0.000000 )  

     reciprocal axes: (cart. coord. in units 2 pi/alat)
               b(1) = ( -1.000000 -1.000000  1.000000 )  
               b(2) = (  1.000000  1.000000  1.000000 )  
               b(3) = ( -1.000000  1.000000 -1.000000 )  


     PseudoPot. # 1 for In read from file:
     /usr/scratch4/magr4985/MG/HTDF/pseudo/SG15/In.upf
     MD5 check sum: 2123f823f6143602c63cd302e3a0bdd6
     Pseudo is Norm-conserving, Zval = 13.0
     Generated using ONCVPSP code by D. R. Hamann
     Using radial grid of  602 points,  6 beta functions with: 
                l(1) =   0
                l(2) =   0
                l(3) =   1
                l(4) =   1
                l(5) =   2
                l(6) =   2

     PseudoPot. # 2 for P  read from file:
     /usr/scratch4/magr4985/MG/HTDF/pseudo/SG15/P.upf
     MD5 check sum: 0688a67b2b263c6b42d3d97c42745426
     Pseudo is Norm-conserving, Zval =  5.0
     Generated using ONCVPSP code by D. R. Hamann
     Using radial grid of  602 points,  4 beta functions with: 
                l(1) =   0
                l(2) =   0
                l(3) =   1
                l(4) =   1

     atomic species   valence    mass     pseudopotential
        In            13.00   114.81800     In( 1.00)
        P              5.00    30.97380     P ( 1.00)

     24 Sym. Ops. (no inversion) found



   Cartesian axes

     site n.     atom                  positions (alat units)
         1           In  tau(   1) = (   0.0000000   0.0000000   0.0000000  )
         2           P   tau(   2) = (  -0.2500000   0.2500000   0.2500001  )

     number of k points=    72  Gaussian smearing, width (Ry)=  0.0005
                       cart. coord. in units 2pi/alat
        k(    1) = (   0.0000000   0.0000000   0.0000000), wk =   0.0011574
        k(    2) = (  -0.0833333   0.0833333  -0.0833333), wk =   0.0092593
        k(    3) = (  -0.1666667   0.1666667  -0.1666667), wk =   0.0092593
        k(    4) = (  -0.2500000   0.2500000  -0.2500000), wk =   0.0092593
        k(    5) = (  -0.3333333   0.3333333  -0.3333333), wk =   0.0092593
        k(    6) = (  -0.4166667   0.4166667  -0.4166667), wk =   0.0092593
        k(    7) = (   0.5000000  -0.5000000   0.5000000), wk =   0.0046296
        k(    8) = (   0.0000000   0.1666667   0.0000000), wk =   0.0069444
        k(    9) = (  -0.0833333   0.2500000  -0.0833333), wk =   0.0277778
        k(   10) = (  -0.1666667   0.3333333  -0.1666667), wk =   0.0277778
        k(   11) = (  -0.2500000   0.4166667  -0.2500000), wk =   0.0277778
        k(   12) = (  -0.3333333   0.5000000  -0.3333333), wk =   0.0277778
        k(   13) = (   0.5833333  -0.4166667   0.5833333), wk =   0.0277778
        k(   14) = (   0.5000000  -0.3333333   0.5000000), wk =   0.0277778
        k(   15) = (   0.4166667  -0.2500000   0.4166667), wk =   0.0277778
        k(   16) = (   0.3333333  -0.1666667   0.3333333), wk =   0.0277778
        k(   17) = (   0.2500000  -0.0833333   0.2500000), wk =   0.0277778
        k(   18) = (   0.1666667  -0.0000000   0.1666667), wk =   0.0138889
        k(   19) = (   0.0000000   0.3333333   0.0000000), wk =   0.0069444
        k(   20) = (  -0.0833333   0.4166667  -0.0833333), wk =   0.0277778
        k(   21) = (  -0.1666667   0.5000000  -0.1666667), wk =   0.0277778
        k(   22) = (  -0.2500000   0.5833333  -0.2500000), wk =   0.0277778
        k(   23) = (   0.6666667  -0.3333333   0.6666667), wk =   0.0277778
        k(   24) = (   0.5833333  -0.2500000   0.5833333), wk =   0.0277778
        k(   25) = (   0.5000000  -0.1666667   0.5000000), wk =   0.0277778
        k(   26) = (   0.4166667  -0.0833333   0.4166667), wk =   0.0277778
        k(   27) = (   0.3333333   0.0000000   0.3333333), wk =   0.0138889
        k(   28) = (   0.0000000   0.5000000   0.0000000), wk =   0.0069444
        k(   29) = (  -0.0833333   0.5833333  -0.0833333), wk =   0.0277778
        k(   30) = (  -0.1666667   0.6666667  -0.1666667), wk =   0.0277778
        k(   31) = (   0.7500000  -0.2500000   0.7500000), wk =   0.0277778
        k(   32) = (   0.6666667  -0.1666667   0.6666667), wk =   0.0277778
        k(   33) = (   0.5833333  -0.0833333   0.5833333), wk =   0.0277778
        k(   34) = (   0.5000000   0.0000000   0.5000000), wk =   0.0138889
        k(   35) = (   0.0000000   0.6666667   0.0000000), wk =   0.0069444
        k(   36) = (  -0.0833333   0.7500000  -0.0833333), wk =   0.0277778
        k(   37) = (   0.8333333  -0.1666667   0.8333333), wk =   0.0277778
        k(   38) = (   0.7500000  -0.0833333   0.7500000), wk =   0.0277778
        k(   39) = (   0.6666667  -0.0000000   0.6666667), wk =   0.0138889
        k(   40) = (   0.0000000   0.8333333   0.0000000), wk =   0.0069444
        k(   41) = (   0.9166667  -0.0833333   0.9166667), wk =   0.0277778
        k(   42) = (   0.8333333   0.0000000   0.8333333), wk =   0.0138889
        k(   43) = (   0.0000000  -1.0000000   0.0000000), wk =   0.0034722
        k(   44) = (  -0.1666667   0.3333333   0.0000000), wk =   0.0277778
        k(   45) = (  -0.2500000   0.4166667  -0.0833333), wk =   0.0555556
        k(   46) = (  -0.3333333   0.5000000  -0.1666667), wk =   0.0555556
        k(   47) = (   0.5833333  -0.4166667   0.7500000), wk =   0.0555556
        k(   48) = (   0.5000000  -0.3333333   0.6666667), wk =   0.0277778
        k(   49) = (  -0.1666667   0.5000000   0.0000000), wk =   0.0277778
        k(   50) = (  -0.2500000   0.5833333  -0.0833333), wk =   0.0555556
        k(   51) = (   0.6666667  -0.3333333   0.8333333), wk =   0.0555556
        k(   52) = (   0.5833333  -0.2500000   0.7500000), wk =   0.0555556
        k(   53) = (   0.5000000  -0.1666667   0.6666667), wk =   0.0555556
        k(   54) = (   0.4166667  -0.0833333   0.5833333), wk =   0.0555556
        k(   55) = (   0.3333333   0.0000000   0.5000000), wk =   0.0277778
        k(   56) = (  -0.1666667   0.6666667  -0.0000000), wk =   0.0277778
        k(   57) = (   0.7500000  -0.2500000   0.9166667), wk =   0.0555556
        k(   58) = (   0.6666667  -0.1666667   0.8333333), wk =   0.0555556
        k(   59) = (   0.5833333  -0.0833333   0.7500000), wk =   0.0555556
        k(   60) = (   0.5000000   0.0000000   0.6666667), wk =   0.0277778
        k(   61) = (   0.8333333  -0.1666667   1.0000000), wk =   0.0277778
        k(   62) = (   0.7500000  -0.0833333   0.9166667), wk =   0.0555556
        k(   63) = (   0.6666667   0.0000000   0.8333333), wk =   0.0277778
        k(   64) = (  -0.1666667  -1.0000000  -0.0000000), wk =   0.0138889
        k(   65) = (   0.6666667  -0.3333333   1.0000000), wk =   0.0277778
        k(   66) = (   0.5833333  -0.2500000   0.9166667), wk =   0.0555556
        k(   67) = (   0.5000000  -0.1666667   0.8333333), wk =   0.0277778
        k(   68) = (   0.6666667  -0.1666667   1.0000000), wk =   0.0277778
        k(   69) = (   0.5833333  -0.0833333   0.9166667), wk =   0.0555556
        k(   70) = (   0.5000000   0.0000000   0.8333333), wk =   0.0277778
        k(   71) = (  -0.3333333  -1.0000000   0.0000000), wk =   0.0138889
        k(   72) = (  -0.5000000  -1.0000000   0.0000000), wk =   0.0069444

     Dense  grid:    11935 G-vectors     FFT dimensions: (  32,  32,  32)

     Estimated max dynamical RAM per process >       4.19 MB

     Estimated total dynamical RAM >      97.57 MB

     Initial potential from superposition of free atoms

     starting charge      17.8730, renormalised to      18.0000
     Starting wfcs are random

     total cpu time spent up to now is        0.3 secs

     Self-consistent Calculation

     iteration #  1     ecut=    40.00 Ry     beta= 0.70
     Davidson diagonalization with overlap
     ethr =  1.00E-02,  avg # of iterations =  8.6

     Threshold (ethr) on eigenvalues was too large:
     Diagonalizing with lowered threshold

     Davidson diagonalization with overlap
     ethr =  7.48E-04,  avg # of iterations =  2.2

     total cpu time spent up to now is        1.1 secs

     total energy              =    -117.76356825 Ry
     estimated scf accuracy    <       0.12559628 Ry

     iteration #  2     ecut=    40.00 Ry     beta= 0.70
     Davidson diagonalization with overlap
     ethr =  6.98E-04,  avg # of iterations =  2.3

     total cpu time spent up to now is        1.3 secs

     total energy              =    -117.80155262 Ry
     estimated scf accuracy    <       0.04637306 Ry

     iteration #  3     ecut=    40.00 Ry     beta= 0.70
     Davidson diagonalization with overlap
     ethr =  2.58E-04,  avg # of iterations =  1.9

     total cpu time spent up to now is        1.5 secs

     total energy              =    -117.81063074 Ry
     estimated scf accuracy    <       0.00062798 Ry

     iteration #  4     ecut=    40.00 Ry     beta= 0.70
     Davidson diagonalization with overlap
     ethr =  3.49E-06,  avg # of iterations =  7.3

     total cpu time spent up to now is        1.9 secs

     total energy              =    -117.81073314 Ry
     estimated scf accuracy    <       0.00003496 Ry

     iteration #  5     ecut=    40.00 Ry     beta= 0.70
     Davidson diagonalization with overlap
     ethr =  1.94E-07,  avg # of iterations =  2.0

     total cpu time spent up to now is        2.1 secs

     total energy              =    -117.81073821 Ry
     estimated scf accuracy    <       0.00000217 Ry

     iteration #  6     ecut=    40.00 Ry     beta= 0.70
     Davidson diagonalization with overlap
     ethr =  1.21E-08,  avg # of iterations =  2.5

     total cpu time spent up to now is        2.3 secs

     total energy              =    -117.81073887 Ry
     estimated scf accuracy    <       0.00000006 Ry

     iteration #  7     ecut=    40.00 Ry     beta= 0.70
     Davidson diagonalization with overlap
     ethr =  3.10E-10,  avg # of iterations =  3.1

     total cpu time spent up to now is        2.6 secs

     total energy              =    -117.81073891 Ry
     estimated scf accuracy    <          3.2E-09 Ry

     iteration #  8     ecut=    40.00 Ry     beta= 0.70
     Davidson diagonalization with overlap
     ethr =  1.75E-11,  avg # of iterations =  2.3

     total cpu time spent up to now is        2.8 secs

     End of self-consistent calculation

          k = 0.0000 0.0000 0.0000 (  1459 PWs)   bands (ev):

    -6.8690  -6.8690  -6.8690  -6.7264  -6.7264  -4.0463   7.3263   7.3263
     7.3263   7.9152  11.4365  11.4365  11.4365  15.8081  16.7528  16.7528
    18.5249  18.5249

          k =-0.0833 0.0833-0.0833 (  1459 PWs)   bands (ev):

    -6.8766  -6.8658  -6.8658  -6.7265  -6.7265  -3.9694   6.3976   7.2417
     7.2417   8.6038  11.4622  11.5661  11.5661  16.2194  16.3873  16.3873
    18.1805  19.1464

          k =-0.1667 0.1667-0.1667 (  1477 PWs)   bands (ev):

    -6.8976  -6.8576  -6.8576  -6.7260  -6.7260  -3.7452   5.1518   7.0339
     7.0339   9.0525  11.8063  11.8638  11.8638  15.9488  15.9488  16.7589
    18.1797  20.3918

          k =-0.2500 0.2500-0.2500 (  1468 PWs)   bands (ev):

    -6.9245  -6.8475  -6.8475  -6.7240  -6.7240  -3.3959   3.9250   6.7901
     6.7901   9.0624  12.1218  12.1218  12.6068  15.9199  15.9199  16.4486
    19.5798  21.8569

          k =-0.3333 0.3333-0.3333 (  1477 PWs)   bands (ev):

    -6.9503  -6.8393  -6.8393  -6.7204  -6.7204  -2.9704   2.8349   6.5781
     6.5781   8.9292  12.2027  12.2027  13.5503  16.1992  16.4249  16.4249
    21.0037  22.2952

          k =-0.4167 0.4167-0.4167 (  1486 PWs)   bands (ev):

    -6.9691  -6.8345  -6.8345  -6.7164  -6.7164  -2.5749   2.0269   6.4380
     6.4380   8.8166  12.1732  12.1732  14.2213  16.3961  17.3130  17.3130
    20.2428  20.7984

          k = 0.5000-0.5000 0.5000 (  1476 PWs)   bands (ev):

    -6.9759  -6.8328  -6.8328  -6.7145  -6.7145  -2.4000   1.7122   6.3893
     6.3893   8.7756  12.1493  12.1493  14.4090  16.7341  17.9773  17.9773
    19.5470  19.9205

          k = 0.0000 0.1667 0.0000 (  1459 PWs)   bands (ev):

    -6.8827  -6.8628  -6.8628  -6.7287  -6.7243  -3.9438   6.3562   7.0832
     7.0832   8.8684  11.1146  11.7752  11.7752  15.7971  16.3829  16.8199
    18.7547  18.7547

          k =-0.0833 0.2500-0.0833 (  1467 PWs)   bands (ev):

    -6.9000  -6.8561  -6.8545  -6.7311  -6.7222  -3.7689   5.4246   6.8307
     6.9055   9.3800  11.0236  12.1444  12.1492  15.2545  16.6241  17.0761
    18.4310  19.5243

          k =-0.1667 0.3333-0.1667 (  1474 PWs)   bands (ev):

    -6.9236  -6.8478  -6.8443  -6.7315  -6.7195  -3.4606   4.2733   6.5750
     6.6558   9.5234  11.3805  12.4682  12.5672  15.1841  16.5051  17.1211
    19.2037  20.8420

          k =-0.2500 0.4167-0.2500 (  1473 PWs)   bands (ev):

    -6.9480  -6.8398  -6.8355  -6.7291  -6.7162  -3.0567   3.1706   6.3709
     6.3781   9.4239  11.7788  12.5773  13.1008  15.6869  16.8161  16.8623
    20.6136  22.0019

          k =-0.3333 0.5000-0.3333 (  1476 PWs)   bands (ev):

    -6.9674  -6.8342  -6.8301  -6.7241  -6.7136  -2.6391   2.2741   6.1246
     6.2731   9.3027  11.8847  12.5050  13.8869  16.2534  17.0581  17.6097
    20.1124  20.7114

          k = 0.5833-0.4167 0.5833 (  1484 PWs)   bands (ev):

    -6.9771  -6.8317  -6.8285  -6.7190  -6.7138  -2.3710   1.7827   5.9592
     6.2730   9.2366  11.9182  12.3885  14.4557  16.6248  17.8054  17.9873
    19.1466  20.0063

          k = 0.5000-0.3333 0.5000 (  1486 PWs)   bands (ev):

    -6.9747  -6.8315  -6.8301  -6.7176  -6.7163  -2.4309   1.8885   5.8977
     6.3758   9.2462  12.0079  12.3062  14.3755  16.6877  17.0991  18.2013
    19.0661  20.9903

          k = 0.4167-0.2500 0.4167 (  1477 PWs)   bands (ev):

    -6.9605  -6.8349  -6.8340  -6.7232  -6.7168  -2.7725   2.5416   5.9518
     6.5661   9.3269  12.1422  12.2491  13.6800  16.1026  16.5716  17.6065
    20.0298  21.9943

          k = 0.3333-0.1667 0.3333 (  1478 PWs)   bands (ev):

    -6.9382  -6.8434  -6.8397  -6.7279  -6.7195  -3.1989   3.5224   6.1249
     6.8123   9.4390  12.1290  12.1301  12.8636  15.4713  16.4883  17.0989
    20.0040  21.7381

          k = 0.2500-0.0833 0.2500 (  1477 PWs)   bands (ev):

    -6.9126  -6.8537  -6.8483  -6.7295  -6.7222  -3.5769   4.6421   6.4155
     7.0604   9.4482  11.6460  11.8784  12.4769  15.3742  16.1856  17.2917
    18.6948  20.2319

          k = 0.1667-0.0000 0.1667 (  1454 PWs)   bands (ev):

    -6.8898  -6.8623  -6.8580  -6.7283  -6.7243  -3.8434   5.7040   6.8248
     7.2306   9.1023  11.3714  11.6230  12.0593  15.7522  16.2946  16.8008
    18.4268  19.0472

          k = 0.0000 0.3333 0.0000 (  1463 PWs)   bands (ev):

    -6.9177  -6.8459  -6.8459  -6.7362  -6.7185  -3.6459   5.1655   6.5432
     6.5432   9.8889  10.4834  12.6056  12.6056  14.6080  17.0168  17.7173
    19.4381  19.4384

          k =-0.0833 0.4167-0.0833 (  1475 PWs)   bands (ev):

    -6.9394  -6.8364  -6.8348  -6.7400  -6.7150  -3.3869   4.3705   6.2423
     6.2666  10.1006  10.5027  12.9215  13.0491  14.5845  17.0451  18.2889
    19.4478  20.3049

          k =-0.1667 0.5000-0.1667 (  1473 PWs)   bands (ev):

    -6.9597  -6.8295  -6.8248  -6.7404  -6.7116  -3.0204   3.4168   5.8730
     6.0630  10.0194  11.0541  12.8727  13.2641  15.3784  17.2969  18.0543
    20.4557  21.5822

          k =-0.2500 0.5833-0.2500 (  1476 PWs)   bands (ev):

    -6.9754  -6.8262  -6.8185  -6.7367  -6.7098  -2.6096   2.5429   5.5075
     5.9653   9.9222  11.5567  13.1264  13.2134  16.2840  17.9012  17.9434
    20.0429  20.7560

          k = 0.6667-0.3333 0.6667 (  1483 PWs)   bands (ev):

    -6.9836  -6.8254  -6.8165  -6.7303  -6.7113  -2.2850   1.9548   5.2221
     5.9859   9.8772  11.7217  13.0416  13.9097  16.5926  18.0269  18.2651
    19.1565  20.2102

          k = 0.5833-0.2500 0.5833 (  1483 PWs)   bands (ev):

    -6.9826  -6.8263  -6.8182  -6.7239  -6.7168  -2.2320   1.8688   5.0592
     6.1208   9.9036  11.8162  12.8635  14.3516  16.6770  17.0164  18.0698
    19.6437  21.2384

          k = 0.5000-0.1667 0.5000 (  1487 PWs)   bands (ev):

    -6.9724  -6.8284  -6.8237  -6.7240  -6.7200  -2.4899   2.3221   5.0502
     6.3495   9.9869  11.9801  12.6956  13.6685  15.9626  17.3296  18.4583
    19.1553  22.0169

          k = 0.4167-0.0833 0.4167 (  1479 PWs)   bands (ev):

    -6.9551  -6.8330  -6.8322  -6.7295  -6.7186  -2.8908   3.1035   5.2362
     6.6317  10.0626  12.1421  12.4704  12.7505  15.2694  17.5677  18.2224
    19.4301  20.9150

          k = 0.3333 0.0000 0.3333 (  1492 PWs)   bands (ev):

    -6.9339  -6.8444  -6.8389  -6.7313  -6.7198  -3.2798   3.9471   5.6875
     6.8999   9.9400  11.7836  12.1466  12.6020  15.0933  16.7524  18.1996
    18.8288  21.0527

          k = 0.0000 0.5000 0.0000 (  1475 PWs)   bands (ev):

    -6.9613  -6.8224  -6.8224  -6.7473  -6.7106  -3.1806   4.0020   5.9669
     5.9669   9.8408  10.4069  13.6765  13.6765  14.2408  17.3241  19.3070
    20.5441  20.5441

          k =-0.0833 0.5833-0.0833 (  1476 PWs)   bands (ev):

    -6.9808  -6.8128  -6.8110  -6.7514  -6.7067  -2.8636   3.3379   5.6123
     5.7430   9.8041  10.4735  13.6046  14.1022  15.1482  17.5640  19.5378
    20.8453  21.4505

          k =-0.1667 0.6667-0.1667 (  1484 PWs)   bands (ev):

    -6.9935  -6.8098  -6.8036  -6.7504  -6.7052  -2.4853   2.6356   5.1347
     5.6312   9.8595  10.9522  13.4002  14.1634  16.2995  18.0673  19.2524
    20.2938  20.8155

          k = 0.7500-0.2500 0.7500 (  1478 PWs)   bands (ev):

    -6.9979  -6.8120  -6.8008  -6.7447  -6.7071  -2.1484   2.0894   4.6953
     5.6466   9.8845  11.6747  13.4930  13.9783  16.6896  18.1045  19.2298
    19.5585  20.3463

          k = 0.6667-0.1667 0.6667 (  1487 PWs)   bands (ev):

    -6.9947  -6.8166  -6.8028  -6.7366  -6.7135  -2.0147   1.8978   4.4046
     5.7864   9.9842  12.1100  13.7078  14.0242  15.9870  17.0941  19.2686
    20.2153  21.3472

          k = 0.5833-0.0833 0.5833 (  1488 PWs)   bands (ev):

    -6.9851  -6.8217  -6.8092  -6.7284  -6.7216  -2.1743   2.1387   4.3384
     6.0306  10.1565  12.2809  13.3872  13.7758  16.0738  16.2880  19.3974
    20.4264  21.6413

          k = 0.5000 0.0000 0.5000 (  1478 PWs)   bands (ev):

    -6.9712  -6.8266  -6.8201  -6.7274  -6.7219  -2.5180   2.6241   4.5923
     6.3366  10.2863  12.3800  12.8740  12.9617  15.4352  17.6278  19.1379
    19.4837  20.5380

          k = 0.0000 0.6667 0.0000 (  1479 PWs)   bands (ev):

    -7.0011  -6.7981  -6.7981  -6.7595  -6.7026  -2.6035   2.9180   5.4932
     5.4932   9.4170  10.1653  14.8635  14.8635  14.9085  17.6972  20.5803
    21.4201  21.4201

          k =-0.0833 0.7500-0.0833 (  1485 PWs)   bands (ev):

    -7.0139  -6.7919  -6.7896  -6.7620  -6.7003  -2.2818   2.4076   5.1481
     5.3558   9.4714  10.1532  14.6327  15.2090  16.1912  18.0517  19.9951
    20.5709  21.2231

          k = 0.8333-0.1667 0.8333 (  1492 PWs)   bands (ev):

    -7.0167  -6.7947  -6.7865  -6.7581  -6.7019  -1.9823   2.0041   4.6326
     5.3496   9.5957  10.7540  14.4549  15.0718  16.7671  18.2013  19.2726
    20.1157  21.1332

          k = 0.7500-0.0833 0.7500 (  1490 PWs)   bands (ev):

    -7.0105  -6.8028  -6.7888  -6.7500  -6.7077  -1.8321   1.8432   4.1981
     5.4753   9.7282  11.6910  14.4564  14.6783  15.8491  17.3621  19.9157
    21.0097  21.1681

          k = 0.6667-0.0000 0.6667 (  1484 PWs)   bands (ev):

    -6.9986  -6.8127  -6.7966  -6.7392  -6.7155  -1.9152   1.9430   4.0478
     5.7155   9.9462  12.3740  14.1056  14.3798  15.2160  16.5317  20.4612
    21.3033  21.4859

          k = 0.0000 0.8333 0.0000 (  1488 PWs)   bands (ev):

    -7.0283  -6.7802  -6.7802  -6.7691  -6.6966  -2.0398   2.0427   5.1882
     5.1882   9.1924   9.7720  15.9117  16.0643  16.0643  18.0372  19.9738
    19.9738  20.9311

          k = 0.9167-0.0833 0.9167 (  1486 PWs)   bands (ev):

    -7.0320  -6.7805  -6.7768  -6.7674  -6.6966  -1.8343   1.7802   4.9058
     5.1522   9.3146   9.8860  15.7205  16.1673  16.8123  18.2522  19.2092
    19.5079  21.2231

          k = 0.8333 0.0000 0.8333 (  1494 PWs)   bands (ev):

    -7.0250  -6.7894  -6.7796  -6.7609  -6.7011  -1.7548   1.7354   4.4572
     5.2524   9.4942  10.6635  15.3281  15.5812  16.2630  17.8419  19.5152
    20.1660  21.8400

          k = 0.0000-1.0000 0.0000 (  1524 PWs)   bands (ev):

    -7.0381  -6.7738  -6.7738  -6.7728  -6.6949  -1.7726   1.6699   5.0833
     5.0833   9.1353   9.5991  16.4324  16.7863  16.7863  18.1796  19.1212
    19.1212  20.6254

          k =-0.1667 0.3333 0.0000 (  1467 PWs)   bands (ev):

    -6.9199  -6.8481  -6.8443  -6.7340  -6.7191  -3.5517   4.7217   6.2654
     6.8163   9.8356  10.9041  12.4233  12.6053  14.9184  16.6386  17.8083
    18.7678  19.9220

          k =-0.2500 0.4167-0.0833 (  1479 PWs)   bands (ev):

    -6.9423  -6.8393  -6.8347  -6.7348  -6.7163  -3.2134   3.7824   5.8111
     6.6122  10.0012  11.2610  12.6396  12.8284  15.1116  16.9272  17.9126
    19.5076  21.2721

          k =-0.3333 0.5000-0.1667 (  1476 PWs)   bands (ev):

    -6.9624  -6.8327  -6.8267  -6.7320  -6.7141  -2.8024   2.8343   5.5311
     6.3634   9.9299  11.6737  12.7063  13.2136  15.7126  17.3890  17.9183
    19.8618  21.6415

          k = 0.5833-0.4167 0.7500 (  1482 PWs)   bands (ev):

    -6.9765  -6.8295  -6.8217  -6.7267  -6.7138  -2.4228   2.0984   5.3851
     6.1705   9.8449  11.7144  12.7650  13.9554  16.3760  17.4790  18.3401
    19.0546  20.9485

          k = 0.5000-0.3333 0.6667 (  1480 PWs)   bands (ev):

    -6.9816  -6.8286  -6.8200  -6.7232  -6.7148  -2.2559   1.8081   5.3411
     6.0981   9.8121  11.6890  12.7616  14.4613  16.5432  17.5529  18.2398
    18.9839  20.7961

          k =-0.1667 0.5000 0.0000 (  1479 PWs)   bands (ev):

    -6.9600  -6.8266  -6.8234  -6.7439  -6.7114  -3.0980   3.7323   5.6871
     6.1494  10.2583  10.5265  12.9341  13.5895  14.9119  17.3241  18.9947
    19.6206  21.2722

          k =-0.2500 0.5833-0.0833 (  1481 PWs)   bands (ev):

    -6.9766  -6.8217  -6.8134  -6.7441  -6.7092  -2.7225   2.9778   5.2407
     5.9328  10.2901  11.0166  12.7112  13.9445  15.6217  17.9719  18.8554
    19.9208  21.2774

          k = 0.6667-0.3333 0.8333 (  1484 PWs)   bands (ev):

    -6.9871  -6.8209  -6.8073  -6.7399  -6.7097  -2.3407   2.2946   4.9175
     5.7672  10.2587  11.5621  12.8084  14.0314  16.2848  18.4792  18.5492
    19.2913  20.9617

          k = 0.5833-0.2500 0.7500 (  1486 PWs)   bands (ev):

    -6.9904  -6.8223  -6.8055  -6.7339  -6.7132  -2.1030   1.9103   4.7047
     5.7472  10.2849  11.6895  13.2029  14.2896  15.9868  18.0138  18.7243
    19.2952  21.1945

          k = 0.5000-0.1667 0.6667 (  1490 PWs)   bands (ev):

    -6.9865  -6.8244  -6.8080  -6.7307  -6.7167  -2.1611   2.0061   4.6264
     5.8792  10.3713  11.7248  13.1001  14.2911  15.8883  17.3006  18.7668
    19.8884  21.5737

          k = 0.4167-0.0833 0.5833 (  1490 PWs)   bands (ev):

    -6.9761  -6.8270  -6.8147  -6.7334  -6.7160  -2.4718   2.5155   4.7378
     6.1227  10.4687  11.7850  12.5504  13.7895  15.6503  17.8322  18.9104
    19.3409  21.2305

          k = 0.3333 0.0000 0.5000 (  1483 PWs)   bands (ev):

    -6.9608  -6.8313  -6.8246  -6.7357  -6.7151  -2.8635   3.1806   5.1205
     6.4052  10.4275  11.4680  12.4096  13.3196  15.2174  17.8722  18.8013
    19.1839  20.7161

          k =-0.1667 0.6667-0.0000 (  1484 PWs)   bands (ev):

    -6.9968  -6.8056  -6.7997  -6.7549  -6.7041  -2.5401   2.7968   5.2309
     5.5394   9.8777  10.4320  13.5904  14.8508  15.6695  18.0241  19.8288
    20.5723  21.2841

          k = 0.7500-0.2500 0.9167 (  1484 PWs)   bands (ev):

    -7.0047  -6.8055  -6.7927  -6.7529  -6.7045  -2.1918   2.2782   4.7919
     5.3731  10.0578  10.8826  13.3790  15.0688  16.2920  18.6304  18.9698
    20.2954  20.8552

          k = 0.6667-0.1667 0.8333 (  1487 PWs)   bands (ev):

    -7.0045  -6.8102  -6.7909  -6.7468  -6.7087  -1.9374   1.9415   4.3899
     5.3738  10.1481  11.6908  13.3207  14.8587  16.0216  18.2207  19.0901
    20.3362  21.0509

          k = 0.5833-0.0833 0.7500 (  1489 PWs)   bands (ev):

    -6.9982  -6.8164  -6.7940  -6.7393  -6.7149  -1.9147   1.9239   4.1704
     5.5324  10.3101  12.1770  13.3181  14.7450  15.3204  17.2016  19.9173
    20.5910  21.6917

          k = 0.5000 0.0000 0.6667 (  1493 PWs)   bands (ev):

    -6.9881  -6.8221  -6.8025  -6.7342  -6.7183  -2.1353   2.1825   4.2578
     5.8057  10.5056  12.2475  12.6528  14.5179  15.5357  16.8291  20.0102
    20.4574  21.1162

          k = 0.8333-0.1667 1.0000 (  1490 PWs)   bands (ev):

    -7.0222  -6.7892  -6.7827  -6.7627  -6.6994  -2.0042   2.0308   4.9628
     5.1126   9.6372  10.1261  14.6405  15.9943  16.3975  18.4922  19.1886
    19.9978  21.5380

          k = 0.7500-0.0833 0.9167 (  1488 PWs)   bands (ev):

    -7.0203  -6.7951  -6.7811  -6.7576  -6.7027  -1.8016   1.8148   4.5342
     5.0805   9.8769  10.7299  14.4324  15.4032  16.6457  18.3702  19.1165
    19.9490  21.9555

          k = 0.6667 0.0000 0.8333 (  1488 PWs)   bands (ev):

    -7.0107  -6.8056  -6.7845  -6.7495  -6.7090  -1.7689   1.8147   4.1727
     5.2449  10.0670  11.7013  14.1088  14.5414  16.1233  17.5796  19.8885
    20.6237  21.7609

          k =-0.1667-1.0000-0.0000 (  1486 PWs)   bands (ev):

    -7.0310  -6.7828  -6.7777  -6.7644  -6.6979  -1.7553   1.7035   4.9149
     4.9211   9.5648   9.9877  15.6325  15.7643  17.0987  18.4043  19.1148
    19.2313  21.5443

          k = 0.6667-0.3333 1.0000 (  1492 PWs)   bands (ev):

    -6.9888  -6.8190  -6.8023  -6.7442  -6.7099  -2.3674   2.5036   4.7095
     5.6714  10.8372  11.1010  12.4153  14.7681  15.6472  18.3513  19.0336
    20.0032  21.0091

          k = 0.5833-0.2500 0.9167 (  1488 PWs)   bands (ev):

    -6.9955  -6.8190  -6.7947  -6.7413  -6.7126  -2.0495   2.0836   4.4140
     5.4216  10.9188  11.5731  12.5357  15.0219  15.6140  17.7939  19.4919
    20.2221  21.2020

          k = 0.5000-0.1667 0.8333 (  1492 PWs)   bands (ev):

    -6.9977  -6.8194  -6.7923  -6.7393  -6.7143  -1.9143   1.9055   4.3258
     5.3220  10.9291  11.6204  13.0002  14.7574  15.4488  18.3765  18.8451
    20.1650  21.7468

          k = 0.6667-0.1667 1.0000 (  1472 PWs)   bands (ev):

    -7.0085  -6.8076  -6.7850  -6.7507  -6.7070  -1.9166   1.9866   4.5279
     5.0232  10.7149  10.9728  13.1294  15.3148  16.2636  18.3260  19.4301
    20.0247  21.4345

          k = 0.5833-0.0833 0.9167 (  1488 PWs)   bands (ev):

    -7.0067  -6.8126  -6.7829  -6.7463  -6.7114  -1.7680   1.8496   4.3003
     4.9063  10.9344  11.7008  13.0228  14.2677  16.6085  18.5537  18.9757
    20.2307  21.6310

          k = 0.5000 0.0000 0.8333 (  1487 PWs)   bands (ev):

    -7.0018  -6.8168  -6.7859  -6.7426  -6.7140  -1.8241   1.9080   4.2064
     5.0836  11.0818  11.9574  12.6525  14.3376  16.2116  17.8017  19.9100
    20.2697  21.4867

          k =-0.3333-1.0000 0.0000 (  1488 PWs)   bands (ev):

    -7.0157  -6.8029  -6.7797  -6.7528  -6.7065  -1.7201   1.7765   4.6091
     4.6421  10.6277  10.9152  14.0771  14.3818  17.2879  18.5392  19.2533
    19.3158  22.1453

          k =-0.5000-1.0000 0.0000 (  1480 PWs)   bands (ev):

    -7.0068  -6.8140  -6.7803  -6.7455  -6.7126  -1.7022   1.8164   4.4665
     4.5187  11.6291  11.6315  12.8578  13.5587  17.3521  18.5737  19.3138
    19.3605  21.8356

     the Fermi energy is     7.6285 ev

!    total energy              =    -117.81073891 Ry
     estimated scf accuracy    <          5.8E-11 Ry
     smearing contrib. (-TS)   =      -0.00000000 Ry
     internal energy E=F+TS    =    -117.81073891 Ry

     The total energy is F=E-TS. E is the sum of the following terms:
     one-electron contribution =     -41.93807273 Ry
     hartree contribution      =      30.56800105 Ry
     xc contribution           =     -17.37299555 Ry
     ewald contribution        =     -89.06767167 Ry

     convergence has been achieved in   8 iterations

     Writing all to output data dir out/mp-20351.save/
 
     init_run     :      0.08s CPU      0.17s WALL (       1 calls)
     electrons    :      2.33s CPU      2.54s WALL (       1 calls)

     Called by init_run:
     wfcinit      :      0.06s CPU      0.11s WALL (       1 calls)
     potinit      :      0.00s CPU      0.01s WALL (       1 calls)
     hinit0       :      0.00s CPU      0.05s WALL (       1 calls)

     Called by electrons:
     c_bands      :      2.10s CPU      2.28s WALL (       9 calls)
     sum_band     :      0.21s CPU      0.23s WALL (       9 calls)
     v_of_rho     :      0.01s CPU      0.01s WALL (       9 calls)
     mix_rho      :      0.00s CPU      0.00s WALL (       9 calls)

     Called by c_bands:
     init_us_2    :      0.03s CPU      0.03s WALL (     684 calls)
     init_us_2:cp :      0.03s CPU      0.03s WALL (     684 calls)
     cegterg      :      1.88s CPU      2.03s WALL (     324 calls)

     Called by *egterg:
     cdiaghg      :      0.51s CPU      0.57s WALL (    1458 calls)
     h_psi        :      1.23s CPU      1.35s WALL (    1530 calls)
     g_psi        :      0.01s CPU      0.01s WALL (    1170 calls)

     Called by h_psi:
     h_psi:calbec :      0.05s CPU      0.06s WALL (    1530 calls)
     vloc_psi     :      1.14s CPU      1.24s WALL (    1530 calls)
     add_vuspsi   :      0.03s CPU      0.03s WALL (    1530 calls)

     General routines
     calbec       :      0.05s CPU      0.06s WALL (    1530 calls)
     fft          :      0.01s CPU      0.05s WALL (      90 calls)
     ffts         :      0.00s CPU      0.00s WALL (       9 calls)
     fftw         :      1.18s CPU      1.28s WALL (   41974 calls)
 
     Parallel routines
 
     PWSCF        :      2.47s CPU      2.90s WALL

 
   This run was terminated on:  20: 3: 9  17Nov2023            

=------------------------------------------------------------------------------=
   JOB DONE.
=------------------------------------------------------------------------------=
