
     Program PWSCF v.7.1 starts on  4Dec2023 at 14:36:28 

     This program is part of the open-source Quantum ESPRESSO suite
     for quantum simulation of materials; please cite
         "P. Giannozzi et al., J. Phys.:Condens. Matter 21 395502 (2009);
         "P. Giannozzi et al., J. Phys.:Condens. Matter 29 465901 (2017);
         "P. Giannozzi et al., J. Chem. Phys. 152 154105 (2020);
          URL http://www.quantum-espresso.org", 
     in publications or presentations arising from this work. More details at
     http://www.quantum-espresso.org/quote

     Parallel version (MPI), running on    24 processors

     MPI processes distributed on     1 nodes
     121495 MiB available memory on the printing compute node when the environment starts
 
     Reading input from pw_mp-1541_nscf_k260_E72.in
Warning: card &IONS ignored
Warning: card / ignored
Warning: card &CELL ignored
Warning: card / ignored

     Current dimensions of program PWSCF are:
     Max number of different atomic species (ntypx) = 10
     Max number of k-points (npk) =  40000
     Max angular momentum in pseudopotentials (lmaxx) =  4

     Atomic positions and unit cell read from directory:
     out/mp-1541.save/
     Atomic positions from file used, from input discarded
 
 
     K-points division:     npool     =       2
     R & G space division:  proc/nbgrp/npool/nimage =      12
     Subspace diagonalization in iterative solution of the eigenvalue problem:
     one sub-group per band group will be used
     scalapack distributed-memory algorithm (size of sub-group:  3*  3 procs)

 
     Parallelization info
     --------------------
     sticks:   dense  smooth     PW     G-vecs:    dense   smooth      PW
     Min          79      79     23                 1599     1599     260
     Max          80      80     24                 1601     1601     263
     Sum         955     955    283                19195    19195    3143
 
     Using Slab Decomposition
 


     bravais-lattice index     =            2
     lattice parameter (alat)  =       9.7660  a.u.
     unit-cell volume          =     232.8564 (a.u.)^3
     number of atoms/cell      =            2
     number of atomic types    =            2
     number of electrons       =        10.00
     number of Kohn-Sham states=         1200
     kinetic-energy cutoff     =      72.0000  Ry
     charge density cutoff     =     288.0000  Ry
     Exchange-correlation= PBE
                           (   1   4   3   4   0   0   0)

     celldm(1)=   9.765986  celldm(2)=   0.000000  celldm(3)=   0.000000
     celldm(4)=   0.000000  celldm(5)=   0.000000  celldm(6)=   0.000000

     crystal axes: (cart. coord. in units of alat)
               a(1) = (  -0.500000   0.000000   0.500000 )  
               a(2) = (   0.000000   0.500000   0.500000 )  
               a(3) = (  -0.500000   0.500000   0.000000 )  

     reciprocal axes: (cart. coord. in units 2 pi/alat)
               b(1) = ( -1.000000 -1.000000  1.000000 )  
               b(2) = (  1.000000  1.000000  1.000000 )  
               b(3) = ( -1.000000  1.000000 -1.000000 )  


     PseudoPot. # 1 for Be read from file:
     /usr/scratch4/magr4985/MG/HTDF/pseudo/SG15/Be.upf
     MD5 check sum: dc1f98d164da9dc61a6fd2fad64b4ce2
     Pseudo is Norm-conserving, Zval =  4.0
     Generated using ONCVPSP code by D. R. Hamann
     Using radial grid of  602 points,  4 beta functions with: 
                l(1) =   0
                l(2) =   0
                l(3) =   1
                l(4) =   1

     PseudoPot. # 2 for Se read from file:
     /usr/scratch4/magr4985/MG/HTDF/pseudo/SG15/Se.upf
     MD5 check sum: e78e48a4f5d8ce1f8dc76ec1271f249c
     Pseudo is Norm-conserving, Zval =  6.0
     Generated using ONCVPSP code by D. R. Hamann
     Using radial grid of  602 points,  6 beta functions with: 
                l(1) =   0
                l(2) =   0
                l(3) =   1
                l(4) =   1
                l(5) =   2
                l(6) =   2

     atomic species   valence    mass     pseudopotential
        Be             4.00     9.01220     Be( 1.00)
        Se             6.00    78.96000     Se( 1.00)

     24 Sym. Ops. (no inversion) found



   Cartesian axes

     site n.     atom                  positions (alat units)
         1           Be  tau(   1) = (   0.0000000   0.0000000   0.0000000  )
         2           Se  tau(   2) = (  -0.2500000   0.2500000   0.2500001  )

     number of k points=    16  Gaussian smearing, width (Ry)=  0.0005
                       cart. coord. in units 2pi/alat
        k(    1) = (   0.0000000   0.0000000   0.0000000), wk =   0.0092593
        k(    2) = (  -0.1666667   0.1666667  -0.1666667), wk =   0.0740741
        k(    3) = (  -0.3333333   0.3333333  -0.3333333), wk =   0.0740741
        k(    4) = (   0.5000000  -0.5000000   0.5000000), wk =   0.0370370
        k(    5) = (   0.0000000   0.3333333   0.0000000), wk =   0.0555556
        k(    6) = (  -0.1666667   0.5000000  -0.1666667), wk =   0.2222222
        k(    7) = (   0.6666667  -0.3333333   0.6666667), wk =   0.2222222
        k(    8) = (   0.5000000  -0.1666667   0.5000000), wk =   0.2222222
        k(    9) = (   0.3333333   0.0000000   0.3333333), wk =   0.1111111
        k(   10) = (   0.0000000   0.6666667   0.0000000), wk =   0.0555556
        k(   11) = (   0.8333333  -0.1666667   0.8333333), wk =   0.2222222
        k(   12) = (   0.6666667  -0.0000000   0.6666667), wk =   0.1111111
        k(   13) = (   0.0000000  -1.0000000   0.0000000), wk =   0.0277778
        k(   14) = (   0.6666667  -0.3333333   1.0000000), wk =   0.2222222
        k(   15) = (   0.5000000  -0.1666667   0.8333333), wk =   0.2222222
        k(   16) = (  -0.3333333  -1.0000000   0.0000000), wk =   0.1111111

     Dense  grid:    19195 G-vectors     FFT dimensions: (  40,  40,  40)

     Estimated max dynamical RAM per process >      76.75 MB

     Estimated total dynamical RAM >       1.80 GB

     The potential is recalculated from file :
     out/mp-1541.save/charge-density

     Starting wfcs are random

     Band Structure Calculation
     ParO style diagonalization

     ethr =  5.00E-06,  avg # of iterations =  5.7

     total cpu time spent up to now is      413.3 secs

     End of band structure calculation

          k = 0.0000 0.0000 0.0000 (  2421 PWs)   bands (ev):

   -94.4730  -8.3377   5.3827   5.3827   5.3827   9.6313  10.3890  10.3890
    10.3890  17.3799  17.9251  17.9251  19.9228  19.9228  19.9228  24.1256
    33.0887  33.0887  33.0887  37.6570  37.6570  37.6570  39.4043  39.4043
    39.5660  39.5660  39.5660  48.8296  49.6771  49.6771  49.6771  53.3554
    53.3554  53.3554  54.1843  54.1843  54.9882  54.9882  54.9882  56.1931
    57.4656  57.4656  57.4656  58.0338  58.0338  58.4501  58.4501  58.4501
    58.5133  58.5133  58.5133  63.2299  63.8944  63.8944  63.8944  65.2782
    65.2782  65.2782  68.4055  72.8431  83.7239  83.7239  83.7239  84.8136
    84.8136  87.7218  90.1184  90.1184  90.1184  91.3994  91.3994  91.3994
    95.4785  95.4785  95.8953  95.8953  95.8954  98.2629  98.2629  98.2629
   102.0712 102.0712 102.0712 102.0758 102.0758 102.0758 102.2829 102.2829
   102.4698 105.3783 105.3783 105.3783 105.5147 105.5147 107.0224 107.0224
   107.0224 108.3794 108.3794 108.3794 108.7273 108.7273 108.7273 109.9892
   110.0035 110.2829 110.2829 110.2829 111.1772 111.1772 111.1772 111.2978
   111.2978 120.5196 123.6188 123.6188 123.6188 125.3311 125.4927 125.4927
   125.4927 128.1817 128.1817 128.1817 128.3906 128.3906 128.3906 128.4251
   128.4251 128.9085 128.9085 128.9085 129.6957 129.6957 129.6957 130.1663
   130.1663 136.1404 140.0535 141.6305 141.6305 141.6305 141.7916 141.7916
   144.0111 144.0111 144.0111 145.6277 145.9462 145.9462 145.9462 147.1990
   147.1990 147.1990 147.2541 147.2541 147.2541 147.4175 147.4175 147.4175
   147.4296 147.6988 147.6988 148.1801 148.1801 148.1801 148.7854 148.7854
   148.7854 162.2770 165.0132 165.0132 165.0132 165.7398 166.6964 166.6964
   166.6964 166.7389 166.7389 168.5276 168.5276 168.5276 176.0500 176.0500
   176.0500 181.4232 181.4232 181.4232 181.5097 183.1804 183.1804 183.5309
   183.5309 183.5309 183.8217 183.8217 183.8217 186.3107 186.3107 186.3107
   186.5718 186.5718 186.5718 187.0067 187.0067 189.2792 189.6570 189.6570
   189.8070 189.8070 189.8070 189.9853 189.9853 189.9853 191.1521 191.1521
   191.1521 191.4251 192.3563 192.3563 192.3563 192.9446 192.9446 193.2358
   193.2358 193.2358 193.7455 193.7455 193.7455 194.0427 194.2948 194.2948
   194.2948 194.7042 195.1130 195.1130 195.1130 195.9021 195.9021 196.7204
   196.7204 196.7204 197.0714 199.5310 199.5310 199.5310 199.6083 199.6083
   199.8842 199.8842 199.8842 200.0425 200.0425 200.0425 200.3554 200.3554
   200.3554 200.3852 200.3852 211.1161 212.1663 212.1663 212.1663 213.7796
   213.7796 218.1213 218.1213 218.1213 218.4428 218.4428 218.4428 218.5016
   218.5016 218.5016 218.5057 218.5057 218.5057 221.8086 221.8086 221.8372
   221.8372 221.8372 221.9005 222.8669 224.6915 224.6915 224.6915 227.0427
   227.2080 227.2080 227.2080 232.3967 232.3967 232.3967 233.0783 233.0783
   233.2981 233.2981 233.2981 233.4990 233.4990 233.4990 233.7554 233.7554
   233.7554 234.1203 234.1203 237.6450 239.3450 239.3450 239.3450 242.2414
   242.2414 242.2414 242.2592 242.2592 242.6572 242.6572 242.6572 242.8196
   243.0745 243.0745 243.0745 243.0978 243.0978 243.0978 243.6770 243.6770
   243.6770 243.8998 243.8998 260.5071 260.5071 260.5071 260.5946 262.0881
   262.0881 262.0881 262.5424 265.3925 265.3925 265.4866 265.4866 265.4866
   265.7399 265.7399 265.7399 266.5002 266.5002 266.5002 266.5404 271.3680
   271.3680 271.5012 271.5012 271.5012 272.5139 275.1202 275.1202 275.1202
   275.5691 279.8164 279.8164 279.8164 280.0888 280.0888 280.0888 280.0912
   280.0912 280.9195 280.9195 280.9195 281.1548 281.2354 281.2354 281.2354
   281.4410 281.4410 281.4410 281.5395 281.5395 281.5395 281.9360 281.9360
   281.9360 282.8295 282.8295 286.3847 286.3847 286.4374 286.4412 286.4412
   286.4412 286.4851 286.4851 286.4851 286.5479 286.5479 286.5479 289.1354
   289.1697 289.1697 289.1697 289.9210 289.9210 289.9210 289.9488 289.9488
   289.9488 289.9544 289.9544 296.2376 296.2376 296.2376 296.6281 299.6656
   299.6656 299.6656 299.7515 302.9558 302.9558 302.9558 302.9834 302.9834
   302.9834 303.1850 303.1850 303.7328 303.7328 303.7328 303.8067 303.8067
   303.8067 304.4698 304.4698 308.1598 308.1598 308.5913 308.5913 308.5913
   308.8246 308.8246 308.8246 309.0221 309.0221 309.0221 309.6178 309.6178
   309.6178 309.9053 309.9053 310.3819 311.0359 311.0359 311.0359 311.4115
   311.4115 311.4115 311.6950 317.2723 317.2723 317.2723 318.6685 319.7004
   320.4116 320.4116 320.4116 320.9312 320.9312 322.1201 322.1201 322.1201
   322.8130 322.8130 322.8130 322.9693 322.9693 322.9693 323.2883 323.3235
   323.3235 323.3235 323.9614 323.9614 323.9614 325.4000 325.4000 325.4000
   325.8649 325.8649 325.9896 325.9896 325.9896 326.0414 326.1941 326.6025
   326.6025 327.4750 327.4750 327.4750 327.5158 327.5158 327.5158 327.8914
   327.8914 327.9126 327.9126 327.9126 328.2221 328.2221 328.2221 328.3239
   328.3239 328.4273 328.4273 328.4273 328.6422 328.6422 328.6422 328.7474
   328.7474 328.7474 329.0462 329.0462 329.0462 329.3056 329.4899 329.4899
   329.4899 329.5356 329.5356 351.0417 351.0417 351.0417 351.2001 351.2466
   351.2466 360.4060 360.4060 360.4060 362.2037 363.1352 363.2476 363.2476
   363.2476 365.3330 365.3330 365.3586 365.3586 365.3586 365.8808 365.8808
   365.8808 366.1174 366.1174 366.1174 366.2047 366.2047 366.2047 367.2205
   367.2205 370.1858 370.9696 370.9696 370.9696 372.0505 372.0505 372.7478
   372.7478 372.7478 374.1422 374.6263 374.6263 374.6263 375.1072 376.1111
   376.1111 376.1111 376.1294 376.1294 376.1294 376.1399 376.1399 376.1399
   376.6491 376.6491 376.6491 378.9892 378.9892 379.0457 379.0457 379.0457
   379.1986 379.2096 379.2096 379.2096 379.3168 379.3168 379.3306 379.3306
   379.3306 379.3424 379.3424 379.3424 379.3798 379.3798 379.3798 379.5146
   379.5146 388.0060 388.0060 388.0060 388.3196 388.3196 388.3196 388.4132
   388.4132 388.7399 388.7399 388.7399 389.0435 395.8883 395.8883 395.8883
   397.1823 397.6060 397.6060 398.0716 398.0716 398.0716 398.2493 398.2493
   398.2493 398.3690 398.3690 398.3690 398.6626 398.6626 398.6626 399.5047
   399.5399 399.5399 399.5399 399.5587 399.5587 405.6006 405.6006 405.6006
   407.7398 408.1964 408.1964 408.1964 408.4979 408.4979 408.7092 408.7092
   408.7092 411.0794 411.5158 411.5158 411.5158 411.9749 411.9749 411.9749
   412.6176 412.6176 412.6176 412.6466 412.6466 413.3089 413.3089 413.3089
   413.3172 413.3310 413.3310 413.3310 413.3359 413.3359 413.3359 413.3460
   413.3460 413.9973 413.9973 413.9973 414.7210 415.3753 415.7880 415.7880
   415.7880 418.1939 418.1939 418.1939 418.2192 418.2192 418.2192 418.2959
   418.2959 418.2959 418.3450 418.3450 418.3605 422.4769 422.4769 422.4769
   423.3218 423.3218 423.3218 423.3885 423.4551 423.4551 423.7089 423.7089
   423.7089 424.3934 424.3934 424.3984 424.3984 424.3984 424.3999 424.3999
   424.3999 424.4629 424.5142 424.5142 424.5142 441.0457 441.0457 441.0457
   441.4256 441.4292 441.4292 442.5619 442.5619 442.5619 442.6995 442.6995
   442.6995 442.7771 442.7771 442.7771 442.9337 442.9337 442.9337 443.4945
   443.4986 443.4986 443.5010 443.5010 443.5010 447.9129 447.9129 447.9129
   450.0600 450.8385 451.1778 451.1778 451.1778 451.7385 451.7385 451.7385
   451.8342 451.8342 452.2435 453.5665 453.5665 453.5665 453.6362 453.6362
   453.6362 453.6424 453.6424 453.6424 453.9238 453.9238 454.2550 454.2550
   454.2550 454.7748 454.7748 459.5868 459.5868 459.5868 459.6370 459.6370
   459.6370 459.6422 459.6422 459.6422 459.6609 459.6609 459.9045 459.9045
   459.9045 460.0210 460.0210 460.8784 460.8784 460.8784 461.6757 461.7035
   461.7035 461.7035 461.7214 461.7214 461.7214 461.8768 461.8768 461.8768
   462.0702 462.0702 462.0702 462.0743 462.0743 462.0743 462.1233 462.2030
   462.2030 462.2030 462.3326 463.2399 463.2399 464.6893 464.6893 464.6893
   466.0656 466.6201 466.7795 466.7795 466.7795 466.9366 466.9366 466.9366
   467.0265 467.0265 467.0265 467.0359 467.0359 467.1212 467.1212 467.1212
   467.3097 467.3097 467.3097 467.8323 467.8323 468.8489 468.8489 468.9621
   468.9621 468.9621 469.2233 469.3158 469.3158 469.3158 469.4231 469.4231
   469.4231 469.4649 469.4650 469.4650 469.6489 469.6489 469.6489 469.7407
   469.7407 469.9154 469.9154 469.9154 470.0429 483.3274 483.3274 483.3274
   484.4183 484.4686 484.8879 484.8879 484.8879 490.6865 490.6865 490.6865
   490.7097 490.7097 490.7203 490.7203 490.7203 490.7500 490.7500 490.7500
   490.7752 490.7752 490.7752 490.7962 490.7962 499.6060 499.6060 499.6060
   499.6254 499.6750 499.6750 501.6020 501.6020 501.6020 501.6474 501.6474
   501.6474 501.7335 501.7335 501.7335 501.8344 501.8344 501.8344 504.6357
   504.6357 504.6357 505.4705 505.4705 505.4856 505.4856 505.4856 505.5192
   506.3021 507.0449 507.0449 508.2085 508.2085 508.2085 508.2125 508.2125
   508.2125 508.3335 508.3335 508.3335 508.4784 508.4784 508.4784 509.2005
   509.2005 509.2006 509.2006 509.2006 509.2104 527.9859 527.9859 527.9859
   528.3886 529.0193 529.0193 529.0193 529.1486 530.0577 530.0577 530.0577
   530.1450 530.1450 530.1450 530.1703 530.1703 530.3439 530.3439 530.3439
   530.3768 530.3768 530.3768 530.4882 530.4882 535.4617 535.4617 535.4617
   535.5392 535.5392 535.6248 535.6248 535.6248 536.0621 536.0621 536.0621
   536.7717 544.8603 544.8603 544.8603 545.9724 546.2909 546.2909 546.2909
   546.5313 548.5258 548.5258 548.5258 549.0720 549.0720 549.2975 549.2975
   549.2975 549.8648 549.8648 549.8648 549.8796 550.0945 550.0945 550.0945
   550.1889 550.1889 550.4358 550.4358 550.4358 550.4926 550.4926 550.4926
   550.7590 550.7590 550.7590 551.1005 551.1005 551.1005 551.1679 551.1679
   551.2714 551.3718 551.3718 551.3718 551.5833 552.9567 552.9567 552.9567
   553.0000 553.0000 553.0745 553.0745 553.0745 553.1246 553.1246 553.1702
   553.1702 553.1702 553.1918 553.1918 553.1918 554.3434 554.3434 554.3434
   554.4003 554.4767 554.4767 556.0219 556.1520 556.1520 556.1520 556.2747
   556.2747 556.2747 556.3906 556.3906 556.3906 556.4208 556.4208 559.8913
   559.8913 559.8913 560.1378 560.1378 560.1378 560.1405 560.1405 560.2618
   560.2618 560.2618 560.2808 571.6354 571.6354 571.6354 573.2493 573.3055
   573.3055 573.6418 573.6418 573.6418 573.6929 573.6929 573.6929 574.0288
   574.0288 574.0288 574.0325 574.0325 574.4481 574.6198 574.6198 574.6287
   574.6287 574.6287 574.6849 574.6849 574.6849 574.8745 574.9585 574.9585
   574.9585 576.9523 576.9523 576.9523 577.2248 577.2248 577.2248 577.3736
   577.3736 577.3736 577.7086 578.0083 578.0083 578.3542 578.3542 578.3542
   578.8596 578.8596 578.8596 578.9045 578.9045 578.9045 579.1692 579.1692
   579.1692 579.7104 579.7104 579.7171 579.7171 579.7171 579.7904 579.7904
   579.7904 579.8456 579.8456 579.8456 579.9061 581.8270 581.8270 581.8648
   581.8648 581.8648 581.9333 592.4993 592.4993 592.4993 593.3848 593.5222
   593.5222 593.5222 593.5272 593.5272 593.5272 593.6100 593.6100 593.8086
   593.8086 593.8086 593.8530 593.8530 593.8530 593.9327 593.9327 594.0691
   594.0691 594.0691 594.2228 594.5525 594.5525 594.5525 595.8090 595.9366
   596.0050 596.0050 596.0050 596.0712 596.0712 596.0712 596.0752 596.0752
   596.2728 596.2728 596.2728 596.6753 596.6753 596.6753 596.8636 596.8636
   596.9297 596.9297 596.9297 597.8556 597.8556 597.8556 597.8666 597.8666
   597.8666 597.9958 597.9958 597.9958 598.0700 598.0700 598.0700 598.1022

          k =-0.1667 0.1667-0.1667 (  2397 PWs)   bands (ev):

   -94.4729  -8.0761   3.3913   5.0452   5.0452   9.8804  10.9363  10.9363
    12.1761  16.7217  16.7217  17.5678  19.6682  22.6238  22.6238  26.2287
    30.2911  30.5828  30.5828  35.6646  35.6646  38.8637  38.8637  39.9101
    40.4275  44.5097  45.5131  45.5131  47.1663  47.1663  48.7544  48.7544
    49.2364  51.7737  51.7737  52.3687  53.0741  53.9748  53.9748  54.3420
    56.4548  57.3730  57.3730  58.1016  60.1488  60.1488  61.0276  61.0276
    62.0157  62.9226  62.9226  63.9462  65.1146  67.0912  67.0912  69.0155
    69.0155  69.2261  71.6610  75.6946  77.7279  77.7279  79.6453  83.4293
    83.4293  86.2131  87.4341  87.4341  90.9879  91.4385  91.6653  91.6653
    93.6645  93.6645  94.0742  94.7901  94.7901  95.8917  95.8917  96.6589
    98.0104  99.4151  99.4151 100.5280 100.5280 100.8852 102.0653 102.0653
   102.5939 102.7782 104.1996 104.1996 106.0463 106.0463 106.1107 107.2176
   107.2810 107.2810 109.0776 110.4130 110.4130 111.2727 113.1674 113.1674
   113.3998 113.4406 113.4406 114.5705 114.6852 114.6852 117.6893 117.6893
   118.9108 119.7525 119.7525 120.3638 120.8243 121.7108 121.9189 121.9189
   122.6606 122.6606 124.9970 127.0912 127.0912 127.6681 128.4187 128.4187
   129.1148 131.8844 131.8844 132.3029 132.7439 134.2173 134.2535 134.2535
   135.9679 135.9679 136.5629 137.2004 137.2004 138.0162 138.5847 138.5958
   138.5958 140.0703 141.4571 141.4571 141.7365 141.9880 141.9880 143.9907
   143.9907 147.2178 149.3067 150.0380 150.0380 151.5099 151.5099 153.0772
   153.1981 153.1981 154.8314 154.9271 154.9271 156.9059 157.3013 157.3013
   157.9355 159.9309 159.9309 160.0441 163.4981 164.8414 165.1099 166.3394
   166.3394 167.0827 167.0827 169.6876 169.6876 169.7353 171.2729 171.2729
   174.0142 174.0142 174.8895 175.5164 177.0460 177.0460 177.5239 178.7453
   179.1446 179.1446 180.7554 181.0323 181.0323 181.9298 182.0741 182.0741
   182.3482 182.3482 183.5074 184.2079 184.2079 184.4094 185.4790 185.4790
   185.9364 186.3007 186.3007 187.4101 187.7210 187.7210 188.9537 189.5581
   189.5581 189.6792 190.6319 190.6319 191.6692 193.2829 193.2829 193.3931
   193.9534 193.9534 194.8651 195.0008 195.0008 196.0002 197.7449 197.7449
   198.0526 198.7932 199.2653 199.2653 200.0078 200.0078 200.3431 200.9922
   200.9922 201.5006 201.6943 201.6943 203.8946 204.0314 204.0314 204.4580
   205.2798 205.2798 205.4455 205.4510 205.4510 206.1961 206.5435 207.3007
   207.3007 209.3875 209.3875 209.4229 209.8276 209.8276 210.0253 210.8784
   211.0477 211.0477 213.4585 213.4585 213.5247 213.5702 213.9950 213.9950
   216.7663 218.1135 218.1135 218.8383 218.8383 221.6164 222.2477 222.2477
   222.5403 223.4994 223.4994 223.9242 224.6334 224.6334 227.5243 227.5243
   227.6749 228.6472 229.3128 229.3128 230.2284 230.7315 230.7315 231.8089
   231.9599 231.9599 232.9225 232.9225 232.9982 233.0090 233.2379 233.2379
   235.6571 235.6571 235.9006 237.5374 238.3101 238.3101 239.9550 242.0864
   242.4575 242.4575 243.5104 243.5104 243.7235 245.0285 245.5677 245.5677
   246.5146 247.3113 247.3113 247.6817 252.3491 252.3491 252.4024 253.7639
   253.7639 254.2421 254.3980 254.5031 254.5031 255.3492 255.3492 257.4460
   257.4460 257.8355 259.2535 260.7884 261.4219 261.4219 262.9137 262.9137
   264.7564 264.7564 264.9419 265.1505 265.4575 265.4575 266.3499 266.6759
   266.6759 267.3934 268.0103 268.0103 269.3734 269.3734 270.1033 270.3041
   270.4259 270.4259 271.0598 271.7865 271.7865 272.1814 272.3249 272.3249
   276.0573 277.6914 277.6914 278.8364 280.2754 280.5303 280.5303 281.7051
   281.7051 281.9488 282.5551 282.5551 283.8446 284.4416 284.4416 285.2638
   285.2638 285.2798 285.7740 286.0988 286.0988 286.6005 286.7370 286.7370
   286.9388 287.3167 287.3167 288.9170 290.6782 291.1016 291.1016 291.6345
   291.8154 291.8154 292.6275 292.6275 292.6481 292.9744 293.3302 293.3302
   295.4282 295.6057 295.6057 295.7705 297.1372 297.3734 297.3734 298.4111
   298.4111 298.4677 298.8488 299.0792 299.0792 299.8983 299.8983 300.0389
   301.7473 301.8550 301.8550 302.3057 302.3057 302.8961 304.2314 304.2314
   304.3250 304.3250 304.3584 305.3801 305.3896 305.3896 306.3879 306.3879
   306.4092 307.4480 308.1148 308.1148 308.6159 308.6965 308.8148 308.8148
   309.1515 309.1515 309.6376 309.6376 309.6414 310.2047 310.2047 310.3635
   311.4402 311.9538 311.9538 312.6650 312.8030 312.8030 314.1027 314.1192
   314.1192 316.1006 316.1006 316.1421 316.9992 316.9992 317.0517 319.1161
   319.1161 319.3299 319.9435 320.5760 320.6040 320.6040 320.7201 320.7201
   321.7507 322.9025 322.9663 322.9663 323.2426 323.2426 323.3143 324.4042
   324.4042 324.6273 326.4070 326.4070 328.1435 328.2622 328.2622 328.7646
   328.7646 328.9738 331.8838 331.8838 332.1960 332.3928 332.3928 333.7752
   333.7752 333.8939 334.0157 335.0719 335.4277 335.4277 336.4053 336.4053
   336.4356 336.4669 336.6339 336.6339 337.5133 339.9144 340.1373 340.1373
   341.4544 341.9592 341.9592 342.2516 342.2516 343.0666 343.2375 343.2375
   343.9808 346.2347 346.2347 347.8860 349.1487 349.1487 349.1567 349.3419
   350.5925 350.8931 350.8931 352.6683 352.6683 352.8716 352.8716 353.4324
   353.8787 353.8787 354.8954 355.8436 355.8436 359.0748 359.0748 359.4198
   361.3665 361.3665 361.6355 362.2355 362.3837 362.3837 365.7561 365.7561
   365.9130 366.3259 366.3259 366.3857 366.5593 366.5593 366.7902 367.1000
   367.1792 367.1792 367.9732 368.0402 368.0402 368.2605 368.3134 368.3134
   375.0020 375.0020 375.2859 376.1062 376.2130 376.2130 376.5220 376.5220
   376.5552 379.0241 379.0241 379.0681 380.9044 380.9044 380.9044 382.5120
   383.1881 383.1881 383.4774 383.6512 383.6512 383.8755 384.3317 384.5231
   384.5231 385.4450 385.4450 386.4864 387.8395 387.8395 387.8944 388.1539
   388.5997 388.5997 388.8703 389.0292 389.0292 389.4099 389.4429 389.7170
   389.7170 390.3299 390.3299 390.7779 390.7779 390.8499 391.3361 391.3712
   391.3712 391.5625 391.5705 391.5705 391.8653 391.8984 391.8984 393.6404
   394.6287 394.6287 396.8403 396.8403 396.8483 397.0409 397.0409 397.1165
   398.1151 398.6268 398.6268 400.3885 403.2511 403.2511 403.5978 405.2309
   405.2309 405.6339 405.6909 405.6909 405.7599 405.7599 406.0991 406.6568
   406.6568 406.8664 407.5478 407.5478 407.8114 410.7728 410.8519 410.8519
   411.3742 411.3742 411.7249 411.7446 411.8574 411.8574 413.1946 413.3532
   413.3532 413.6059 413.6059 413.7254 414.6262 414.6262 414.8428 414.9488
   415.0783 415.0783 419.2450 419.6351 419.6351 419.6860 419.8050 419.8050
   419.8068 419.9547 419.9547 421.1013 421.1013 421.1619 421.3387 421.3387
   421.3434 421.5949 421.5949 422.1954 422.2372 422.3309 422.3309 423.3382
   423.8817 423.8817 424.0666 426.9406 426.9406 427.9497 427.9497 428.0289
   428.2971 428.2971 428.3553 429.5490 430.4414 430.4414 432.2863 432.2863
   432.4814 432.9588 432.9588 434.6409 435.3436 435.3436 435.5606 435.6161
   435.6349 435.6349 435.9249 436.1761 436.2395 436.2395 436.8115 436.8115
   436.9055 437.2289 437.2289 439.5547 439.7861 440.0837 440.0837 440.7358
   440.7358 441.8147 441.8147 441.9113 442.6903 443.1265 443.1265 443.4366
   443.4366 443.4557 443.5036 443.8406 444.0789 444.0789 445.4227 445.4227
   445.7301 447.0707 447.0707 447.4968 448.2529 448.2529 448.3913 448.8484
   448.8501 448.8501 449.1068 449.2906 449.2906 449.9365 450.0480 450.0480
   450.1956 450.1956 450.3825 450.6213 450.6712 450.6712 451.0233 451.0353
   451.0353 453.1268 453.1268 453.2971 454.0894 454.0936 454.0936 454.8062
   457.4852 457.5204 457.5204 457.9428 457.9428 458.2290 460.1348 460.1587
   460.1587 460.3930 460.3930 460.4530 461.2354 461.2354 462.8328 462.8328
   462.9228 463.9064 463.9064 464.7352 464.8453 465.4553 465.4553 466.2508
   466.2508 466.5740 466.9168 467.0562 467.0562 467.8685 467.9017 467.9017
   468.5695 468.6212 468.6212 470.5905 470.5905 470.7698 472.5847 472.5847
   472.6300 472.8919 472.9089 472.9089 474.0473 474.2557 474.2557 476.8223
   476.8520 476.9002 476.9002 477.4443 477.4443 477.5267 477.7341 477.7341
   478.2059 478.2059 478.3677 478.8282 479.1856 479.3405 479.3405 480.3216
   480.3216 480.3516 480.8138 480.8138 481.0251 481.2238 481.2238 481.6452
   481.6452 481.6680 482.4445 483.1793 483.1793 483.7407 483.7407 483.7515
   484.7967 485.3696 485.3696 485.8982 485.9698 485.9698 486.7652 486.9705
   486.9705 487.2877 487.3248 487.3248 488.0667 488.0667 489.9841 490.9529
   490.9688 490.9688 492.4243 492.4243 492.4496 492.7321 493.3186 493.3187
   493.7204 494.3424 494.3424 496.0753 496.0753 496.2865 496.4599 496.4599
   496.9157 498.7064 498.7064 498.7165 499.1235 499.1235 499.1299 499.1859
   500.8604 500.8604 504.9221 505.0078 505.0078 508.9031 508.9031 509.3252
   511.2538 511.2538 511.3150 513.8170 515.1959 515.2434 515.2434 515.3033
   515.3898 515.3898 515.7503 515.8078 515.8666 515.8666 518.7872 518.7872
   518.9884 519.6860 519.7428 519.7428 521.0516 521.0516 521.1757 521.1757
   522.7474 523.0454 523.0454 524.2171 524.5388 524.5388 524.6837 524.7226
   524.7226 526.1359 526.1386 526.1386 529.2151 529.2151 529.3250 529.6542
   529.8227 529.8227 530.1127 530.1127 530.1133 530.1185 530.3476 530.3476
   532.7422 532.7422 532.8382 533.0875 533.0875 533.1282 533.8434 533.8624
   533.8624 534.4549 534.5262 534.5262 535.1091 535.1091 535.2044 535.4031
   535.5726 535.5726 535.8422 535.8422 535.9102 536.2926 536.2926 536.6014
   540.2419 540.2419 540.2461 544.3548 544.3572 544.3572 544.9163 544.9163
   544.9352 545.6098 545.6098 545.9472 546.0203 546.0623 546.0623 546.6438
   546.6438 546.7179 549.1892 549.1892 549.3576 549.9098 549.9098 550.7740
   550.9262 550.9262 551.1083 551.8260 552.1522 552.1522 552.9796 553.1066
   553.1066 555.1245 555.1245 555.1734 555.2538 555.2538 555.3622 555.5285
   555.5285 555.6835 556.3156 556.6084 556.6084 556.6643 556.6643 556.7607
   557.7515 557.7515 558.0190 558.6551 560.1371 560.1371 561.7634 561.7634
   561.8336 562.0696 562.0696 562.1703 562.2803 562.2803 562.3349 562.3349
   562.3361 562.4591 563.5994 563.6738 563.6738 564.0211 564.8590 564.8590
   565.7263 565.7263 565.7336 566.1021 566.1087 566.1087 567.1251 567.3694
   567.3694 567.6852 567.7960 567.8392 567.8392 567.9749 567.9749 568.0977
   568.1141 568.1141 568.5912 568.7277 568.7277 569.1077 569.2132 569.2132
   569.3100 572.3297 572.8295 572.8295 573.0011 573.0637 573.0637 573.0891
   573.2004 573.2004 575.2444 575.5273 575.5273 575.9649 575.9649 576.1401
   576.1426 576.1426 576.1997 576.2614 576.3879 576.3879 576.7029 577.1547
   577.1547 577.4035 577.4035 577.5460 577.6317 577.6621 577.6621 578.6167
   579.1137 579.1137 580.1419 582.2903 582.2903 582.4638 582.6530 582.6530
   582.6824 582.8030 583.0522 583.0522 584.8110 584.8110 584.9099 584.9209
   584.9393 584.9393 585.2378 585.2378 586.7771 586.7771 586.9293 587.0045
   587.0215 587.0215 587.0638 587.0951 587.0951 588.6071 588.6071 588.9567
   589.7942 589.7942 590.0360 590.3402 590.5636 590.5636 591.5440 591.6054
   591.6054 592.0647 592.0647 592.3271 592.5418 592.5418 592.6191 592.9455
   592.9455 593.0980 594.9470 594.9470 594.9507 596.8728 597.2864 597.2864
   599.2140 599.2880 599.2880 599.8088 600.9276 600.9276 601.1061 601.2099
   601.2099 601.2288 601.2482 601.2482 601.5509 601.9160 601.9160 602.0945
   602.0945 602.4559 602.5972 602.6346 602.6346 603.3366 603.3366 603.6029

          k =-0.3333 0.3333-0.3333 (  2424 PWs)   bands (ev):

   -94.4729  -7.4413   0.8567   4.5320   4.5320   9.7366  11.3983  11.3983
    14.7630  17.3389  17.3389  17.4532  20.8444  25.0034  25.0034  27.3110
    27.7162  27.7162  31.0633  35.8206  35.8206  37.3396  39.1443  39.1443
    40.7843  40.8365  40.8365  43.8113  44.9842  44.9842  46.1806  47.9370
    47.9370  48.6632  49.4676  53.3793  53.3793  54.0420  54.9756  54.9756
    56.3266  56.6507  56.6507  59.9707  62.9020  62.9020  65.2353  65.6214
    65.6214  67.2408  68.7620  68.7620  70.8233  72.0210  72.0210  72.2844
    73.4256  73.6341  73.6341  74.9087  74.9087  75.7867  77.3154  77.3154
    80.5128  80.5128  82.2717  85.0087  85.0087  85.7904  86.8912  87.2547
    89.7852  89.7852  90.5449  92.2196  92.7850  92.7850  94.6936  94.6936
    96.7447  99.5962  99.5962 100.9085 101.3248 101.3248 102.1372 102.1372
   102.4495 102.8962 102.8962 103.3723 105.2731 105.2731 106.3587 107.2037
   107.2037 107.4821 108.2579 112.1539 112.1539 113.9583 114.9267 114.9267
   115.7413 115.8427 115.8427 116.3406 117.7321 117.7321 117.9255 118.2131
   118.6637 118.6637 121.3864 121.3864 121.9219 124.0042 124.8118 124.9391
   124.9391 127.1669 127.1670 128.1369 128.9821 129.1770 129.1770 129.5709
   129.5709 130.3343 130.3343 130.7916 131.7352 131.7352 132.1175 132.7902
   135.1195 135.6023 135.6023 136.7473 136.7473 137.4220 137.7255 137.7255
   139.4424 140.3783 140.3783 142.4544 143.0790 143.0790 145.4253 145.6173
   145.6173 146.0330 151.9876 153.3341 153.3341 155.8051 156.6685 156.6685
   157.0512 157.6957 157.6957 158.7637 158.7637 158.9238 160.1218 160.1218
   160.1634 161.2483 162.1907 162.1907 163.9368 164.0873 164.5111 164.5111
   165.4582 165.4582 165.5361 165.5361 166.5704 167.2283 167.3608 167.3608
   168.5381 168.5381 168.9229 169.3044 169.3044 170.6671 173.1743 173.7395
   173.7395 174.2573 174.4303 174.4303 175.2526 175.2526 178.7496 179.2486
   179.2486 180.5641 180.7307 180.7307 181.1404 182.7389 183.7102 183.7102
   185.2397 186.1104 186.1104 186.1841 187.7802 187.7802 188.9814 189.4915
   189.6422 189.6422 191.3393 191.3393 191.6132 192.1255 192.1255 192.2609
   194.2645 194.3734 194.3734 194.7052 195.1012 195.1012 195.6853 195.6853
   197.3828 197.9814 198.1380 198.1380 199.1477 199.1477 200.7871 200.7871
   201.1574 202.8669 203.7200 203.7200 204.2635 205.4044 206.0838 206.0838
   206.8174 206.8174 207.2121 207.2121 207.2599 209.4782 209.4782 209.6570
   209.6841 210.3871 210.9914 210.9914 213.0337 213.0337 215.1614 215.1614
   215.3016 215.5092 215.5092 216.4155 218.6646 218.8537 219.1080 220.2241
   220.2241 220.5965 221.0629 221.0629 222.5786 222.5786 222.9646 223.8442
   223.8442 224.0585 224.3566 224.3566 227.1495 227.1495 228.9030 229.0581
   229.3587 229.3587 230.0581 230.1484 230.1484 230.6906 230.8288 230.8288
   231.8842 233.5894 233.5894 234.1308 236.6434 236.6434 236.7230 238.5615
   238.5615 239.5277 240.5446 240.5446 241.4576 243.5572 243.5572 244.2680
   244.2680 245.3985 247.1345 247.5660 247.5660 247.8371 248.2292 248.2292
   249.9726 250.2915 250.2996 250.2996 250.8264 250.8264 251.1014 251.1014
   251.4367 251.5839 252.3581 252.7987 252.7987 253.7892 253.7892 254.5881
   254.7655 254.7655 255.0409 255.0409 255.1285 256.2330 257.3666 257.4217
   257.4217 260.7546 260.7546 262.3900 262.3900 262.5075 263.8934 265.1610
   265.1761 265.1761 265.4644 265.4644 266.1494 266.1494 266.7744 266.7744
   266.9224 267.0467 267.0467 267.0541 268.0447 268.3968 272.2271 273.6162
   273.6162 274.6930 274.6930 275.3927 277.5750 277.5750 278.0116 278.9530
   278.9530 279.0704 280.0722 280.0722 280.1633 280.8748 281.0835 281.0835
   281.2043 281.2043 281.3922 283.7372 283.8726 283.8726 284.1312 284.1312
   285.4393 285.4393 285.6129 285.8447 285.9412 285.9412 287.8148 287.8148
   287.9195 291.6888 291.6888 291.8694 292.3177 292.8565 292.8565 293.1231
   293.2796 293.2796 294.1564 294.1965 294.1965 294.9602 294.9602 294.9932
   296.4411 296.4411 296.5997 298.2401 298.5611 298.5611 300.3909 300.4369
   300.4369 302.5144 302.5144 302.5845 303.0821 303.2186 303.2186 304.2966
   304.4255 304.4255 306.4046 306.6638 306.6638 308.2842 308.3536 308.3536
   308.7761 308.7761 308.9698 309.4508 309.4790 309.8931 309.8931 310.5993
   310.8020 310.8020 311.0949 311.0949 311.2675 313.2420 314.3549 314.3549
   314.7195 316.0125 316.3315 316.3315 316.5033 316.5136 316.5136 317.9110
   318.5591 318.5591 319.1034 319.1436 319.1436 319.2052 319.2052 319.3463
   319.3463 319.3808 321.9016 321.9016 321.9879 322.4822 322.5864 322.5864
   322.8949 323.5179 323.5179 325.6513 325.6513 325.7162 325.7669 329.2675
   329.4476 329.4476 329.7254 329.7254 334.2547 334.2547 334.4445 335.4625
   335.4625 335.6345 335.6783 336.4234 336.4234 337.1170 337.5888 337.5888
   339.0573 339.0573 339.7360 339.9037 339.9037 340.3219 340.6271 340.6271
   340.7337 341.1039 341.2167 341.2167 341.2949 342.3846 342.3846 343.5610
   343.5610 343.8941 344.3868 345.3772 345.3772 345.5246 346.2668 346.3031
   346.3031 346.6975 346.7132 346.7132 349.6705 349.6705 352.3434 352.3864
   352.3864 352.7481 352.9496 352.9496 354.4289 354.7423 354.7423 355.2090
   355.2090 355.2951 355.4828 355.4828 357.0781 357.1023 357.1023 357.4821
   358.1769 358.1769 358.1979 358.8553 360.4818 360.7469 360.7469 361.3722
   361.3722 361.3853 361.9959 362.5613 362.5613 365.1724 365.1724 365.3602
   365.9836 366.2898 366.2898 366.5946 367.6788 367.6788 367.8186 367.9403
   367.9403 369.5304 369.7036 369.7036 370.5184 370.5184 370.6058 371.1448
   371.1448 371.2733 371.8809 372.1838 372.1838 372.5813 374.4646 374.7256
   374.7256 376.9888 376.9888 377.1944 377.2835 377.2835 377.3303 378.4898
   378.4898 382.6943 382.6943 382.9091 383.0314 383.0314 383.2659 385.3615
   385.3615 385.5741 386.6733 386.9967 386.9967 387.8716 388.2058 388.2058
   389.2292 389.2292 389.5170 391.8941 392.0316 392.0316 393.8827 393.8827
   393.8872 394.9590 397.0358 397.0358 397.1371 397.6690 397.6940 397.6940
   397.8827 397.8827 400.0081 400.0081 400.0793 400.2863 401.0736 401.0736
   401.8255 401.8382 401.8382 402.0557 402.6560 402.6560 404.0615 404.0615
   404.5991 404.6021 404.6021 405.0563 405.2948 405.4356 405.4356 406.3078
   406.3078 408.2689 410.6479 410.7566 410.7566 411.2280 411.4749 411.4749
   411.5389 411.9355 411.9355 412.8820 413.6160 413.6160 413.6943 414.0895
   414.0895 414.2291 414.2291 414.2717 415.4143 415.4143 415.5942 416.2384
   416.9532 416.9532 417.0180 417.5084 417.6882 417.6882 418.1197 418.1197
   418.2895 418.4197 418.4197 420.4868 420.4868 420.5249 421.7812 421.8157
   421.8157 422.3926 422.4092 422.4092 423.7930 424.0131 424.0131 425.2154
   425.2214 425.2214 425.6813 425.7113 425.7284 425.7284 426.3287 426.5302
   426.5302 427.6282 428.9924 428.9924 429.1222 429.1222 429.3975 429.7199
   430.3051 430.3660 430.3660 430.7103 430.9874 430.9874 431.4935 431.4935
   431.5185 432.4304 432.4692 432.4692 432.6920 432.6920 432.8998 432.9390
   432.9390 433.2345 433.2345 433.8100 433.8100 433.8231 434.2249 434.2249
   434.2294 434.9461 434.9461 435.0978 436.3193 436.3193 436.4310 436.6644
   436.6764 436.6764 439.4086 439.4086 439.6351 439.9079 439.9711 439.9711
   445.2192 445.2192 445.2475 447.3260 447.3260 447.7873 448.4407 448.5097
   448.5097 451.7735 452.2333 452.2333 452.6135 452.8375 452.8375 453.1585
   453.1585 453.2591 454.9467 455.1051 455.1051 458.0179 458.1217 458.1217
   458.4256 458.4256 458.4608 459.2629 459.4183 459.4183 459.6326 459.6326
   459.6470 459.9318 459.9318 460.2089 460.2089 460.2102 460.4040 460.8907
   460.9072 460.9072 461.2870 461.5619 461.5619 464.2007 464.6837 464.6837
   465.5938 465.5938 465.6591 466.1192 466.1333 466.1333 466.2533 466.3044
   466.3044 467.0866 467.0866 467.1657 468.9640 468.9640 468.9773 470.3144
   472.0404 472.2417 472.2417 472.6885 472.6885 473.3208 475.1737 475.2104
   475.2104 476.8631 476.8631 476.8789 477.1531 477.2459 477.2459 477.3719
   477.3719 477.5134 477.5498 477.5498 477.7967 478.3688 478.3688 478.3951
   479.8891 479.8891 479.8949 480.6585 480.6585 480.6753 483.5805 483.6973
   483.6973 484.0144 484.0144 484.0152 485.1856 486.9819 486.9819 487.4284
   488.9802 488.9802 489.0834 489.2490 489.4145 489.4145 490.8634 490.8634
   490.9469 490.9780 490.9780 491.1833 491.2518 491.2518 491.3998 491.5932
   491.5932 492.1625 492.4106 492.4106 494.6461 494.8860 494.8860 496.0268
   496.0268 496.0290 496.2606 496.2841 496.2841 497.8884 497.8884 497.9378
   498.5912 499.0513 499.0513 501.6989 501.6989 501.9754 501.9836 502.1027
   502.1027 502.8329 503.0274 503.0274 503.7112 504.0687 504.0687 505.4665
   505.6060 505.6060 506.6956 506.8622 506.8622 506.9846 507.0807 507.0807
   507.7192 507.7192 507.7230 507.8430 509.8614 509.9121 509.9121 510.5827
   510.5827 515.9193 516.1253 516.1253 516.7273 516.7273 516.7812 516.8545
   516.8545 518.6383 518.6383 518.6651 518.7366 519.4492 519.5506 519.5506
   520.9098 520.9098 521.0316 521.0504 521.1562 521.1562 521.2259 521.8620
   521.8620 522.1212 522.6083 522.6083 522.8972 523.0990 523.0990 524.7274
   524.7274 525.3675 526.9517 526.9517 526.9582 528.2698 528.2698 528.2837
   530.1650 530.2498 530.2498 530.5783 530.6758 530.6758 531.4626 531.4626
   531.6910 532.3147 532.3147 532.3667 532.6461 533.3616 533.3616 533.4714
   533.6024 533.6440 533.6440 534.7394 534.7971 534.7971 535.1393 535.2473
   535.2473 535.5040 535.5040 535.8044 535.8044 536.2726 536.7526 536.7597
   536.7597 537.0325 541.0684 541.2243 541.2243 541.5391 541.5754 541.5754
   542.2480 542.2480 542.4578 543.0593 543.0593 543.1958 545.9185 547.1796
   547.2222 547.2222 547.9902 547.9902 547.9908 548.1532 548.1532 548.2261
   549.4230 549.4980 549.4980 549.7884 549.7884 549.7960 550.3721 550.3721
   550.6303 550.8399 550.8399 550.9118 551.2197 551.2197 551.5063 552.0509
   552.0570 552.0570 552.5671 552.5671 554.5886 554.8683 554.8683 555.5848
   555.5848 555.7278 555.8003 555.8186 555.8186 556.8313 556.8821 556.8821
   558.4078 558.4358 558.4358 560.3247 560.3247 560.5732 562.4266 562.4532
   562.4532 562.8709 562.8953 562.8953 563.1280 563.1280 563.3049 563.3648
   563.3648 563.5891 563.9533 563.9533 563.9711 565.3305 565.3305 565.4280
   565.6827 565.6827 565.6829 566.7651 566.7651 566.8009 567.0138 567.0138
   567.1221 568.2282 570.2142 570.2142 575.9736 575.9736 576.0148 576.2695
   576.2695 576.3328 576.7698 576.7698 577.2402 577.3273 577.3273 577.5340
   577.5340 577.6004 577.9252 577.9252 577.9576 578.1308 579.4474 579.4474
   580.0716 580.0716 580.1275 580.1388 580.5090 580.5090 580.5607 580.7029
   580.7029 580.7193 581.1912 581.2220 581.2628 581.2628 582.6394 582.6394
   584.9129 584.9129 585.5791 585.7236 585.7236 585.8808 585.8866 585.9111
   585.9111 587.9242 587.9242 588.0809 588.1111 588.1111 588.2463 588.2463
   588.2470 588.3346 588.4212 588.6685 588.6685 588.8204 588.9724 588.9724
   592.1545 592.2542 592.2542 592.9811 593.0716 593.0716 593.6237 593.6237
   593.7704 593.8415 593.8415 593.8603 594.0526 594.1900 594.1900 594.3627
   594.3956 594.3956 597.2142 597.3301 597.3301 598.1325 598.1325 598.1362
   604.6781 604.9300 604.9300 605.8645 605.9644 605.9644 607.6849 607.6849
   607.7228 608.0912 608.4331 608.4331 608.5938 608.5938 608.9751 609.1016
   609.1016 609.3387 609.4560 609.4560 609.5143 609.6304 609.8795 609.8795

          k = 0.5000-0.5000 0.5000 (  2392 PWs)   bands (ev):

   -94.4729  -7.0333  -0.2382   4.3244   4.3244   9.6621  11.3487  11.3487
    15.3560  18.8179  19.6399  19.6399  20.0465  21.5961  21.5961  28.4431
    32.4117  32.4117  32.5103  33.5048  33.5048  36.8502  36.8502  37.1919
    38.1746  40.5993  40.5993  41.3965  43.8838  43.8838  46.3075  46.3944
    46.3944  47.9409  48.7443  53.5608  53.6828  53.6828  55.6740  55.6740
    57.6620  60.9089  63.2341  63.2341  64.0554  64.0554  66.0736  66.2447
    66.2447  66.8604  67.2111  67.2111  71.7947  72.5937  72.5937  73.5504
    73.5504  74.8502  75.8417  75.8417  77.0404  77.0404  78.2437  78.9714
    79.4973  80.7120  81.7300  81.7300  82.1253  82.1253  84.7720  86.4041
    87.8231  87.8231  88.9873  88.9873  90.1730  91.6651  93.0031  93.0031
    94.8492  94.8492  99.2073 100.0245 100.4015 100.4015 101.7555 102.6333
   102.6333 103.2858 106.5596 106.5596 107.2478 108.1832 108.1832 108.2882
   109.9198 110.3485 110.3485 110.7377 110.7378 111.5838 111.7702 111.8545
   111.8545 111.9882 112.6682 112.6682 119.3228 120.4207 120.8988 120.8988
   121.7583 121.7583 123.2598 123.2598 123.8029 123.8861 123.8861 124.1666
   125.8531 126.3837 126.3837 127.0622 128.1081 128.1081 128.3567 129.4696
   129.4696 130.6724 130.8447 130.8447 131.7167 135.9529 135.9529 136.0525
   136.4608 136.5674 136.5674 137.2929 139.2269 139.2269 139.8244 139.8244
   143.5955 143.5955 143.9020 143.9021 145.0121 145.6347 146.1491 146.1764
   148.2830 149.7596 149.7596 149.7967 149.7967 150.6498 150.6498 150.9460
   152.6249 152.6249 154.7266 155.1820 155.1820 155.5711 155.6517 155.6517
   160.9958 162.4977 164.6760 164.8675 164.8675 165.3108 165.4515 165.4515
   165.7581 165.7581 166.2059 166.5527 167.0471 167.0471 168.2740 168.2740
   169.2358 169.2358 170.3379 171.2291 173.5983 173.5983 174.8966 175.0496
   175.0496 175.4762 177.6677 177.6677 177.8779 178.3260 178.3260 178.4665
   178.4665 178.6770 179.2154 179.2154 179.5581 179.5581 179.6762 180.2979
   180.2979 180.3440 183.1149 184.2022 184.2022 185.1674 185.7788 185.7788
   187.9888 188.5782 189.2100 189.4810 189.4810 189.9179 189.9179 190.1739
   190.1739 190.7489 190.7489 191.1460 196.2740 197.1717 197.1717 198.6950
   198.7870 198.7870 199.2893 200.0531 201.6658 201.6663 201.7921 201.7921
   202.2068 202.2068 202.5861 203.3490 203.3490 204.1042 204.8738 204.8738
   206.9599 206.9599 207.2736 207.7601 207.7601 207.9188 210.2422 211.6449
   211.6449 211.8412 213.0351 213.0351 214.0921 214.2488 214.2488 214.3368
   214.6094 214.6094 216.0878 216.0878 216.1354 216.1354 216.2121 216.3035
   223.2665 224.8751 227.1032 227.1032 228.2382 228.2382 228.9262 228.9262
   229.1263 229.1263 229.5059 229.9647 230.7144 230.7144 231.0673 231.0673
   231.6499 231.9208 234.0403 234.0531 234.6049 234.8268 234.8268 235.1513
   235.1513 235.4783 237.4459 237.8362 237.9503 237.9503 238.8500 238.8500
   240.2086 240.2086 241.4466 241.4466 242.3843 242.5252 242.6456 242.6456
   243.1092 243.1092 244.1900 244.1900 244.5490 245.2442 245.3714 245.3714
   246.0478 246.0478 246.0755 246.0755 246.4068 246.5717 246.7967 246.7967
   246.8715 246.8715 248.0789 248.0886 251.9352 253.0499 255.3092 255.3092
   256.0191 256.4427 256.7019 256.7019 259.2609 259.2609 259.3965 259.3965
   260.7703 260.7703 261.0404 261.0927 261.6909 261.6909 263.1747 263.7886
   263.7886 264.5610 264.5610 265.2170 265.3619 265.3619 265.4706 265.9055
   265.9390 265.9390 267.1080 268.0496 268.0496 268.0590 268.3549 268.3549
   269.9331 269.9331 269.9975 269.9975 270.1840 270.3256 276.9385 276.9385
   277.2345 277.5947 279.4420 279.4420 279.5249 279.5249 279.7187 279.7733
   279.7733 279.7866 279.8893 279.8893 280.0043 280.7982 280.9267 280.9267
   285.9347 285.9347 286.4501 286.8435 287.2155 287.2155 287.9661 288.2799
   288.2799 289.5540 289.5734 289.5734 290.1738 290.3754 291.0568 291.0568
   291.3425 291.5677 291.5677 291.6172 296.1444 296.1444 296.3905 296.3905
   298.7050 299.1040 299.1040 300.3090 300.3090 301.0866 301.7048 301.8371
   301.8371 301.9164 302.3895 302.3895 302.5191 302.8685 303.8839 303.8839
   304.2974 305.6779 305.6779 305.8797 306.0376 306.0376 306.1091 306.1091
   309.8243 309.9835 309.9835 310.3090 310.3196 310.3196 310.9839 311.0901
   311.0901 311.3764 311.3764 311.5214 313.7804 313.7804 314.5863 315.2645
   315.5417 315.5417 317.5452 317.6392 317.6392 317.7065 317.7065 317.8097
   319.6751 320.1530 320.3398 320.3398 321.0133 321.0133 322.6432 322.6432
   322.8832 322.8832 323.5924 324.4142 324.9260 324.9452 325.9065 325.9065
   326.2270 326.2270 330.4452 330.4866 330.4866 330.8504 331.9361 331.9361
   332.2825 332.2825 332.3645 332.3876 332.4961 332.4961 332.8323 334.0929
   334.8524 334.8524 335.1754 335.3220 335.3425 335.3425 338.7854 339.8998
   339.8998 340.6201 340.9335 340.9335 342.3537 342.3537 343.0566 343.5493
   343.5493 343.6876 343.9370 343.9792 343.9793 344.3813 344.9044 344.9044
   346.3594 346.3594 346.3890 346.3966 346.4069 346.4069 348.0293 348.0349
   348.0349 348.1020 348.1151 348.1151 349.0708 349.0708 349.1231 349.1611
   349.1611 349.1718 350.8462 351.3024 351.3137 351.3137 351.3560 351.3560
   352.7636 353.3687 353.3687 353.6196 354.1036 354.1036 356.4849 356.4849
   357.0216 357.0788 357.2845 357.2845 357.5420 357.6985 357.7108 357.7108
   358.3083 358.3083 359.2705 359.2705 359.3774 359.4305 359.4896 359.4896
   365.3270 365.3270 365.6524 365.7225 365.8112 365.8112 368.2010 369.9397
   370.0020 370.0020 370.5765 370.5838 370.5838 370.8524 373.7615 373.7615
   374.0020 374.0020 378.8832 378.8832 378.9092 378.9092 379.4859 379.4859
   379.6631 379.7146 379.7182 379.8855 380.5024 380.5024 380.5283 380.6261
   380.6261 380.6396 380.7730 380.7730 381.6464 381.6464 381.6673 381.6673
   382.9685 382.9740 387.4086 388.0799 388.0799 388.3072 388.3270 388.3270
   388.3794 389.6821 389.6821 389.9149 390.6868 390.8315 390.8315 390.9704
   390.9704 391.6130 391.6130 391.8774 394.1087 394.1087 394.1822 394.1822
   394.2771 394.2840 398.1950 399.1794 399.6096 399.6096 399.8395 399.8876
   399.8876 399.9755 402.1038 402.1038 403.8641 403.8879 404.1078 404.1078
   405.0998 405.0998 405.1154 405.1154 405.3824 405.3824 405.9154 406.2085
   406.7518 406.7518 408.1833 408.2810 408.2810 408.6212 408.7700 408.7700
   410.1271 410.1281 410.1281 410.9765 411.2460 411.2460 411.4056 411.8283
   411.8283 412.2913 412.4157 412.4157 413.6551 413.6551 413.7830 413.8605
   413.8787 413.8787 415.0253 415.0253 415.2445 415.2445 415.5197 415.6335
   416.4288 416.6450 416.6450 416.9048 417.6433 417.6433 418.8104 418.8104
   418.8636 418.9008 418.9276 418.9276 423.1398 423.1398 423.6361 424.1752
   424.1752 424.3230 425.2031 425.3847 425.3847 426.0412 426.0412 426.3503
   426.6182 426.9406 426.9406 427.2743 427.2743 427.3248 431.2317 431.2317
   431.6998 431.8448 431.9010 431.9010 432.3808 432.4294 432.4294 432.5772
   432.6790 432.7177 432.7177 433.0491 433.0491 433.2252 433.3451 433.3451
   437.8490 437.8490 437.8540 437.8540 437.9149 437.9191 438.7171 438.7171
   439.5475 440.0074 440.1910 440.1910 440.3957 440.4032 440.4032 440.4311
   440.5930 440.5930 442.1603 442.9544 444.7054 444.7054 444.8899 444.8899
   446.3475 446.3475 446.3772 446.9636 447.1550 447.1550 447.2585 447.4946
   447.4946 447.7239 447.7728 447.7825 447.8032 447.8032 447.9191 447.9191
   448.2337 448.2337 452.4848 452.4848 452.9561 453.0446 453.1814 453.1814
   454.5666 456.1339 458.8944 458.8944 458.9606 458.9606 459.3656 459.3656
   459.3787 459.4191 459.4191 459.4369 459.4486 459.8260 461.7203 461.7203
   461.7589 461.7589 468.0807 468.0807 468.5561 468.8181 468.8181 468.9893
   469.2316 469.2316 469.7123 469.8470 469.9243 469.9243 469.9928 469.9928
   470.0235 470.0657 470.1007 470.1007 470.1422 470.1422 470.1946 470.3962
   470.3962 470.4410 472.6654 472.6654 472.6991 472.7496 472.7496 472.7623
   474.0338 475.1967 475.1967 476.0478 476.0690 476.0690 479.4103 479.4103
   479.9860 480.3546 480.4217 480.4217 481.1714 481.1780 481.2838 481.2838
   481.3250 481.3250 483.8335 483.8335 483.8547 483.9169 483.9169 483.9266
   485.9765 486.1258 486.1258 486.2783 486.3249 486.3249 487.5206 488.2209
   488.2209 488.8441 488.8555 488.8555 489.1111 489.1111 489.3621 489.3974
   489.4456 489.4731 489.4731 489.5756 489.6585 489.6585 489.6979 489.6979
   493.4639 493.4639 493.5007 493.5007 493.5990 493.6007 500.2302 500.2673
   500.2673 500.3729 500.4767 500.4767 501.0531 502.7106 503.8265 503.8265
   504.2427 504.4054 504.4067 504.4067 504.5877 504.5962 504.5962 504.9486
   504.9896 504.9896 505.4757 505.4757 505.6933 505.6933 506.3528 506.7935
   508.8812 508.8812 509.0920 509.5631 509.9000 509.9000 511.4997 511.4997
   511.8582 511.9652 511.9652 512.0819 512.8033 512.8033 513.2291 513.2477
   513.3891 513.3891 513.4670 513.6855 514.3397 514.3397 514.3931 514.3931
   515.4579 515.4579 515.5962 515.7863 515.7863 516.3579 516.3660 516.4802
   516.5072 516.5072 516.7588 516.7588 517.4242 517.4524 517.4621 517.4621
   517.5190 517.5190 517.6722 517.6722 517.6824 517.7661 517.7661 517.7666
   525.7492 526.3588 526.3588 526.9248 527.0424 527.0424 527.6022 527.6023
   527.6023 527.8906 527.8977 527.9315 527.9321 527.9321 528.0302 528.0302
   528.1965 528.1965 529.6341 529.6341 529.7706 530.4305 530.4305 530.5736
   534.4501 534.9970 534.9970 535.2414 535.2516 535.2516 535.2887 535.3055
   535.3055 535.5810 535.5810 536.4305 537.0242 538.0518 538.3434 538.3434
   538.3956 538.5681 538.6208 538.6208 539.0784 539.1705 539.1705 539.4235
   539.4235 539.4971 539.8866 539.8866 540.0715 540.0715 541.5920 541.5920
   541.9085 541.9835 541.9835 542.0620 546.3977 546.3977 546.4200 546.4200
   548.0371 548.0407 548.2737 548.2737 548.4797 548.8171 548.9112 548.9112
   548.9435 548.9841 548.9841 549.0046 549.3257 549.3257 549.8324 550.3953
   550.3953 550.9939 551.2536 551.2536 551.3106 551.6691 552.1654 552.1654
   552.3169 552.3169 554.2190 554.2190 554.2210 554.2210 555.0380 555.0387
   557.4434 557.4434 557.8924 557.9789 557.9789 558.0582 559.9147 559.9147
   560.0586 560.1115 560.1115 560.1366 569.0841 569.0841 569.6599 569.8654
   570.0741 570.0741 570.3047 570.3047 570.3444 570.4861 570.4861 570.5232
   570.5968 570.5968 570.7096 570.7365 570.7365 570.8605 570.8736 570.9655
   570.9655 570.9927 570.9927 571.1362 571.3448 571.5962 571.5962 572.2579
   572.2579 572.6368 572.6585 572.7897 572.7897 572.9867 572.9867 573.0100
   577.6241 577.8117 577.8117 577.9897 578.1256 578.1256 578.5311 578.7929
   578.7929 578.8382 578.8476 579.0650 579.1245 579.1245 579.1726 579.1726
   579.1881 579.5598 579.5598 579.7541 579.8199 579.8199 579.9598 579.9739
   580.0909 580.0909 580.5201 581.1394 581.1394 581.5807 581.5807 581.8139
   584.8631 584.8631 584.8803 584.8803 585.0540 585.0590 585.1024 585.1024
   585.1356 585.1356 586.6015 586.6016 586.7823 586.7823 586.8155 586.8155
   586.8165 586.8785 586.9766 587.1691 587.1691 587.2538 592.7810 592.7810
   592.9807 593.3545 593.5549 593.5549 596.6076 596.6103 596.6103 596.6648
   596.6648 596.6716 602.3069 602.3069 602.4798 602.4807 602.5241 602.5241
   602.5948 602.5948 602.6337 602.6666 602.6922 602.6922 605.4017 605.4017
   605.4970 605.7258 605.8199 605.8199 605.9030 605.9200 605.9382 605.9382
   606.0115 606.0115 613.0230 613.0265 613.0265 613.1262 613.1476 613.1476

          k = 0.0000 0.3333 0.0000 (  2405 PWs)   bands (ev):

   -94.4729  -7.9888   3.6704   4.4421   4.4421   9.6510  11.4040  11.9395
    11.9395  14.9607  18.5043  18.5851  21.0415  21.0415  22.2330  27.5230
    29.5539  29.5539  31.5552  33.0595  37.0927  37.0927  37.8362  41.5105
    43.8003  43.8003  44.3839  45.7339  46.0064  46.0064  46.8758  50.0396
    50.6153  50.6153  51.9750  52.5617  53.1166  53.1166  53.5707  54.9350
    57.2156  57.2156  57.9912  58.8140  59.2117  59.2117  60.8653  61.6050
    61.6050  62.3724  62.5223  64.6569  67.3179  67.3202  67.3202  69.8432
    70.4763  72.9539  72.9539  73.8446  74.4737  82.3886  82.3886  83.4431
    85.2644  85.2644  85.4228  86.1865  87.5013  87.5013  88.7614  91.6213
    91.7604  93.0966  93.4797  93.4797  94.4048  95.4796  95.4796  96.5406
    98.5573  98.5573  98.6478  98.9526 100.7763 101.2486 101.8395 101.8395
   103.5531 103.8010 105.8674 105.9880 105.9880 107.2611 107.2611 107.2966
   108.4109 108.7536 110.0404 110.0404 111.5535 111.8944 112.8390 112.8390
   113.2903 113.7348 113.7348 114.1996 115.9475 117.1768 117.3247 117.3247
   118.1821 118.3555 120.0121 120.0121 120.6812 120.8769 121.9848 122.0493
   122.0493 122.8066 123.7425 123.7425 125.5591 125.8643 127.6392 129.5419
   129.5419 130.3787 132.4670 132.4671 133.0675 134.3867 135.2375 135.2375
   135.7765 135.7959 137.1936 137.1936 137.4769 139.1499 140.5855 140.8828
   141.1988 141.1988 143.1183 143.1853 143.1853 143.5717 143.5717 143.8990
   144.3750 148.7317 149.6155 149.8724 149.8724 149.9046 150.7908 150.7908
   152.1018 152.5042 152.5457 153.6574 153.6574 155.7782 157.2917 158.0573
   158.0573 158.3437 161.6587 164.7025 164.9614 164.9614 165.8465 166.4638
   166.4638 166.7914 168.0050 168.1507 168.1507 170.2981 170.7696 172.1270
   172.1270 173.9489 174.0135 174.0135 174.4341 175.6049 176.1002 177.2842
   177.2842 178.4021 179.1566 180.3538 180.8362 180.8362 181.0797 181.5968
   181.7205 181.7205 183.1185 183.3159 183.3159 184.0100 185.3089 185.8119
   185.8119 185.9912 186.2545 187.0452 187.0452 187.0579 187.4144 188.5729
   188.5729 189.1543 191.7517 192.2561 192.3041 192.3041 193.1366 193.4226
   193.4978 193.4978 194.8818 194.9733 195.5524 196.3974 196.3974 196.9396
   196.9396 197.1355 197.9285 197.9285 199.6305 200.0333 200.0551 201.3246
   201.4658 201.4658 202.7280 203.4986 203.4986 203.6714 205.4044 205.4044
   205.4271 207.0976 207.6291 208.3833 209.1380 209.1380 209.5862 210.1462
   210.4380 210.4380 211.1796 211.1796 211.2833 211.3906 211.8109 213.4969
   213.4969 214.0615 215.5471 216.1071 216.1071 216.5327 217.5859 217.5988
   217.5988 217.9465 218.2298 218.4845 218.4845 218.6556 218.8218 218.8794
   219.8213 219.8213 220.2498 222.0427 222.7467 222.7467 223.4994 223.7140
   223.8612 223.8612 224.3128 227.1519 227.2675 227.2675 227.3637 232.2542
   232.6737 232.6737 234.5335 234.7898 235.3519 235.5325 235.5325 235.8087
   237.7028 238.3751 238.3751 239.4214 241.3691 241.3691 243.2439 243.3712
   243.3712 243.7951 244.1848 244.9129 246.0308 246.0308 246.7733 247.7036
   248.3018 248.7824 248.7824 248.7928 249.5032 249.8426 249.8426 250.0751
   252.2462 252.4596 252.6015 252.6015 253.0388 253.2182 253.2182 253.5876
   254.9627 256.2745 256.2745 259.6350 260.8988 260.8988 261.8214 262.4962
   264.7750 264.7750 264.9442 264.9442 265.1489 265.4305 265.9871 266.4841
   266.4963 266.4963 266.5233 270.0903 270.3505 270.3505 270.8029 272.8095
   272.8095 272.9029 274.0098 275.7047 275.7047 276.2993 276.4260 277.9339
   277.9339 278.0301 278.7334 279.1232 279.6756 279.6756 280.6346 280.6784
   280.6784 280.9732 281.3332 282.2500 282.6177 282.6177 282.9949 284.6709
   284.6709 285.2233 285.3686 285.5706 285.6974 285.8759 285.8759 286.3459
   286.4145 286.4145 287.1034 287.2182 287.4397 287.4397 287.9319 288.7478
   289.2144 289.2144 289.9732 290.9048 290.9048 291.0868 291.4541 291.6082
   292.2029 292.2029 292.6903 295.2934 296.2537 297.4067 297.4067 297.6518
   298.1184 298.1184 298.1933 298.6484 298.8617 298.8617 299.0380 299.2640
   300.7676 302.4061 302.4061 302.4526 302.5174 302.7359 302.7359 303.7036
   303.7456 303.7456 304.2201 304.3264 304.5144 304.5144 304.5431 305.4477
   306.7816 307.9801 307.9801 309.2357 309.2357 309.6735 309.8012 309.8055
   309.8055 309.8970 310.3695 310.8985 311.4273 311.4820 311.4820 312.3332
   312.3332 312.3539 312.4709 314.3821 314.3821 314.6163 314.7356 315.5123
   315.5199 315.5199 316.3419 316.6489 316.6489 316.8140 316.8727 319.4422
   320.7654 320.7654 321.5046 321.8459 321.9689 322.4166 322.4166 322.4642
   322.5313 322.5313 322.5649 322.6869 322.7281 322.8212 322.8212 323.3600
   325.6558 326.4488 326.4488 327.5943 328.8416 328.8416 329.6959 329.9683
   330.1978 330.1978 330.2258 330.8562 331.9514 332.6898 332.6898 333.2663
   335.5236 336.1495 336.1495 336.3410 336.5821 336.6908 336.6908 337.0161
   337.3996 339.4957 339.4957 339.7110 340.0592 340.0592 340.1363 340.4032
   343.5036 344.0258 344.3452 344.3934 344.3934 346.9924 346.9924 347.3045
   347.3045 347.3434 347.3819 347.7762 349.5139 349.6298 349.6298 349.7576
   350.1758 350.1758 350.8991 351.3220 351.4157 351.4157 351.7649 352.3445
   352.8467 354.8350 354.8350 355.0169 355.2631 355.2631 355.3841 355.7166
   356.0121 356.0121 356.1190 356.3333 363.0205 363.0486 363.0486 363.6669
   365.3709 365.3709 365.4153 365.4315 365.5395 366.2487 366.2487 366.4330
   366.9956 366.9956 367.4147 368.5193 369.1112 369.5942 369.5942 370.2821
   373.8591 373.8591 374.0072 374.6879 375.0302 375.2547 375.2547 375.6882
   378.0632 378.1333 378.1333 378.3395 379.4394 379.4899 379.4899 379.8963
   381.5784 383.5621 384.3269 384.3269 384.4949 384.8099 384.8099 384.9000
   385.3852 387.1758 387.1758 387.4165 388.3164 388.4682 388.5301 388.5301
   388.7564 388.8099 388.8261 388.8261 389.0410 390.1746 390.1746 390.4958
   390.5192 391.9644 392.1070 392.1070 392.4115 392.6038 392.6038 392.6209
   392.8095 393.1767 393.3922 393.3922 393.7398 394.3862 394.3862 394.3872
   394.5099 395.1457 395.8612 395.8612 396.6132 396.8522 397.2400 397.2400
   397.4957 400.5581 401.4537 401.7145 401.7145 402.0499 402.2812 402.2812
   402.2955 403.0593 403.1853 403.1853 403.2276 403.2369 404.7139 404.7139
   405.5468 405.9176 405.9681 405.9681 406.5568 406.6442 406.6442 406.8095
   406.9175 407.0210 407.0210 407.5702 409.4176 411.5440 411.5658 411.7090
   411.7090 411.9385 412.0478 412.0987 412.1062 412.1062 413.6407 413.6407
   414.3529 415.2336 415.2336 415.4340 415.5412 418.0351 418.0351 418.4995
   418.8538 419.2738 420.8277 420.8376 420.8376 420.9362 423.9220 425.2628
   425.2628 426.4169 427.3545 427.9272 427.9272 428.1674 428.2296 428.6284
   428.6284 428.9854 429.1407 429.1407 429.7909 429.8287 429.8287 430.0813
   430.3667 430.3749 430.3749 430.4352 430.9583 432.9035 432.9195 433.0629
   433.0629 433.2433 433.2433 433.3894 433.8912 434.2781 434.5270 434.5270
   434.5520 436.0894 436.2211 436.2211 436.4416 437.7544 437.9728 437.9728
   438.0950 438.1578 438.2388 438.2388 438.4811 438.9488 439.2842 439.2842
   439.5993 441.0440 441.2745 441.2745 441.5208 441.8480 441.8480 441.8519
   441.8886 442.9831 442.9831 443.1890 443.2055 443.4843 443.4843 443.5259
   443.6249 446.4246 446.4246 446.5061 446.8041 446.8147 446.9425 446.9989
   446.9989 448.1561 448.1561 448.1749 448.1900 449.1930 449.1930 449.7379
   449.8668 449.8929 450.2314 450.2314 450.6758 452.6955 452.6955 452.9226
   453.0109 453.0765 453.1655 453.1655 453.4470 458.2359 458.2359 458.4026
   458.4758 458.6304 458.6304 458.9991 459.2593 460.0636 460.0636 460.6659
   461.0736 461.0812 461.0812 461.1033 461.2079 462.8933 462.8933 463.0212
   463.6811 463.9477 463.9477 464.0350 464.0441 464.1615 464.4464 464.4464
   465.2008 466.1914 466.2838 466.2838 466.6184 466.8748 467.8859 467.9072
   467.9072 468.0870 468.6969 468.6969 468.8918 468.9059 468.9059 468.9703
   471.4889 472.4116 472.4690 473.0361 473.0361 473.9273 474.9863 474.9863
   475.1408 475.1408 475.2074 475.2456 475.3378 475.6301 475.6301 475.7178
   476.0585 476.0814 476.0814 476.2894 476.3354 476.4905 476.4905 476.6583
   476.8096 477.8133 477.8256 477.8256 478.0544 480.7981 481.0682 481.0682
   481.3529 484.2911 484.4518 484.4518 484.6233 485.0189 485.3718 485.3718
   485.6124 486.2135 488.0839 488.2004 488.2004 488.3136 491.1816 491.1816
   491.1949 491.2360 494.5581 494.5581 495.4425 495.6283 495.6283 496.0863
   496.2959 496.4817 497.5874 497.8498 497.8498 498.9831 499.5804 499.5804
   500.0057 500.2035 500.3744 500.3744 500.5850 501.6442 501.6442 501.6897
   501.7007 501.8435 501.8435 501.8649 501.8776 502.5671 502.5671 502.6021
   503.0838 508.7390 508.8735 508.8735 509.0311 509.1974 509.1974 509.3194
   509.4138 509.4307 509.4307 510.2902 510.4157 510.8521 511.0376 511.0512
   511.0512 513.8291 513.8291 513.8350 513.9087 514.5325 514.7905 514.7905
   515.0921 515.5678 515.6007 515.6007 515.6027 515.7865 515.9454 516.2233
   516.2233 516.7151 517.6391 517.6391 517.7335 518.7994 519.6163 519.6163
   519.7474 520.0411 523.3612 523.4305 523.4305 524.1118 524.5137 524.6189
   524.9782 524.9782 529.1409 529.1796 529.1796 529.2517 531.5976 531.5976
   531.8035 531.9407 533.8998 534.6279 534.6279 534.6363 534.8132 534.8626
   534.8626 534.9529 534.9979 535.7728 535.9078 535.9078 536.0273 536.0273
   536.0579 536.1340 539.6314 539.7149 539.7149 539.7746 539.7746 539.8189
   539.8993 540.1903 540.1927 540.3699 541.2495 541.2495 542.6910 542.6910
   543.5891 544.4350 544.8995 544.8995 545.2482 545.5455 545.7227 545.7523
   545.7736 545.7736 546.0157 546.1640 546.1640 546.2254 547.1706 547.2067
   547.2067 547.2439 550.6496 550.6496 551.4103 551.7873 553.9298 553.9330
   553.9330 553.9773 554.2996 554.2996 554.4723 554.6868 555.9106 555.9114
   555.9173 555.9173 556.5934 556.6215 556.6215 556.6661 559.0336 559.4183
   559.4183 559.9633 560.1885 560.6825 560.6825 561.0277 561.0277 561.1271
   561.2079 561.3475 561.4420 562.0028 562.0028 562.2850 562.5499 562.5499
   562.8612 562.9408 563.1401 563.3748 563.3748 563.5807 564.1540 564.2462
   564.2462 564.5844 565.0661 565.6145 565.6145 565.9931 566.7336 566.7336
   567.1156 567.3268 567.3886 567.3886 567.5384 567.8673 569.3312 569.3312
   569.6156 569.6670 570.4637 570.5243 570.5243 570.6234 570.8604 570.9271
   570.9271 571.2151 572.0947 572.1257 572.1257 572.1520 572.1797 572.2199
   572.2199 572.2993 575.8927 575.8927 576.0499 576.1280 576.8528 577.0065
   577.0065 577.2114 578.0705 578.0705 578.1939 578.4315 578.4322 578.4956
   578.5202 578.5202 578.7067 578.7488 578.7488 578.8068 578.9108 579.0249
   579.0249 579.0515 579.9713 579.9713 580.0892 580.2856 581.5538 581.6215
   581.6215 581.7236 582.2048 582.2048 582.3045 582.5696 584.2833 584.8595
   584.8595 585.2856 586.0925 586.0925 586.3596 586.4122 586.4614 586.4619
   586.4619 586.5219 587.0633 587.0654 587.0654 587.1691 588.5504 588.7354
   588.7354 588.7707 591.7661 591.7661 592.0211 592.1118 592.1118 592.1421
   592.2268 592.3166 592.3374 594.2823 594.2823 594.5665 594.6623 595.1841
   595.1841 595.2468 595.2640 598.1096 598.3791 598.3791 598.4163 599.5854
   599.6739 599.6739 599.7182 599.8159 600.1623 600.1623 600.6140 600.8274
   600.8274 601.0655 601.1537 601.1537 601.3194 601.3359 601.3971 606.4263
   606.7225 606.7702 606.8067 606.8067 606.9348 606.9348 607.5798 607.9686

          k =-0.1667 0.5000-0.1667 (  2398 PWs)   bands (ev):

   -94.4729  -7.4709   1.6415   3.8762   3.8947   9.8041  11.7531  12.5314
    12.8255  16.5769  18.8807  18.9370  21.1322  23.9933  25.5358  26.0012
    26.4266  29.5997  32.1111  32.3851  34.4924  37.5149  37.5694  39.8084
    41.3951  41.4965  42.7049  45.1991  45.2262  45.9190  46.2025  48.2037
    48.2311  49.2256  50.5943  52.2657  52.5760  54.4095  54.5476  56.1199
    56.5990  57.6209  58.1215  59.5419  60.5575  60.7517  61.5001  64.1128
    65.6629  66.2016  66.5919  67.8935  69.3557  70.9242  72.1598  72.9823
    73.6032  74.2925  76.2522  77.3398  77.8177  78.3942  79.1383  79.8102
    80.3200  81.6293  83.2221  83.2548  84.5234  85.4549  85.5179  87.4714
    89.2556  90.3189  91.4500  91.8845  92.8403  93.2061  93.5620  94.2824
    95.4216  96.1915  96.9822  97.3267 100.6985 101.2710 101.3431 102.5886
   104.0564 104.5713 104.6846 104.7977 106.4757 107.5889 107.6033 108.0290
   108.6254 109.2389 109.3527 111.2461 112.4295 112.5610 113.4310 113.7018
   114.4996 114.7639 115.0043 116.3915 116.4329 116.6810 117.6162 119.0335
   119.3198 119.5004 120.5331 120.9419 121.7651 122.3160 122.7322 123.9116
   124.5507 125.1590 125.4699 127.5735 127.9806 128.5047 129.2253 129.3185
   130.3425 130.4068 130.7298 131.0157 131.1006 131.6518 133.2210 133.9334
   135.1505 135.9100 136.1329 137.3670 139.0061 139.5006 140.7617 141.4002
   142.4656 142.4665 143.6430 143.9790 145.1502 146.8697 147.0365 147.3380
   148.0756 148.7748 150.3586 151.0735 151.7717 152.2874 152.5084 152.8805
   153.9794 154.1043 155.0801 155.3874 156.2472 158.1804 158.2645 158.3465
   160.4877 160.6315 161.1611 161.7735 162.8933 163.8798 163.9095 164.4637
   164.9704 165.0198 165.8049 166.1233 166.7844 166.9810 167.9565 168.4171
   168.5904 168.9110 168.9689 171.6088 171.7369 172.1556 172.8892 173.1973
   174.8064 175.7638 176.1169 176.2781 176.8009 176.9274 178.3448 179.3630
   179.4892 179.6555 180.2347 180.4905 182.1272 182.2251 182.7773 183.3794
   183.8471 184.2425 184.4615 184.6354 185.4944 186.2961 186.6816 188.0822
   188.9400 189.6778 190.1499 190.9149 191.2357 192.4170 192.5531 192.6035
   192.8600 194.6941 195.3340 195.4762 195.7680 196.1531 196.8162 196.8692
   198.9179 199.4082 199.8117 199.9894 200.7530 200.9202 201.7464 202.5120
   203.0260 203.9929 203.9990 204.3117 205.4642 205.6154 205.6322 206.8121
   207.2168 207.4171 208.3496 209.1814 209.1932 210.3395 211.0659 211.6106
   211.8532 212.1444 212.5334 212.6815 212.7169 213.8189 214.1566 214.5675
   214.7544 216.2825 216.4922 216.8028 217.1983 217.6148 218.1584 219.1249
   219.1781 219.9935 220.0348 220.6928 221.0159 221.1089 221.7237 222.0386
   222.1180 223.5461 224.5765 224.8588 224.8882 226.1755 227.1334 227.1704
   227.9139 228.0534 229.0245 229.6024 229.8946 230.0629 230.1897 230.4785
   232.7107 233.0740 234.1163 234.1282 234.8498 235.0852 235.8757 237.5878
   238.1360 238.9528 240.0540 240.7779 241.6455 241.6785 241.7340 242.9419
   243.0360 243.5954 243.6474 243.6798 244.2999 245.1029 245.4485 246.7456
   246.8174 247.1315 248.7178 248.8494 249.1180 249.1394 249.4759 249.5571
   251.3909 251.7683 253.9592 253.9732 254.3638 254.7638 255.5041 256.3318
   256.8842 257.7834 258.5486 259.1496 259.2005 260.7500 261.2375 261.7100
   262.1461 262.2265 263.5344 263.7559 263.9647 264.3070 264.5459 265.0240
   265.9049 266.0102 266.0787 266.2161 267.5495 268.2108 268.2425 268.5523
   268.6736 269.8358 270.7281 270.9981 272.3368 272.3948 273.5555 273.8765
   274.2899 275.6823 275.8050 276.1304 276.4756 276.6756 276.8163 277.0481
   277.3292 277.3573 277.7151 278.4667 278.5624 280.0309 280.7168 281.2089
   281.2886 281.7095 281.9248 282.6569 283.1398 284.0394 284.2874 284.4307
   284.6336 285.0227 285.0861 286.4677 286.6365 286.7884 287.5409 287.7320
   287.8387 289.0704 289.6414 291.0353 291.4691 291.6262 292.5653 292.6422
   293.2100 293.4843 293.7119 293.9816 294.1868 294.2157 294.4437 295.0843
   295.1129 296.0257 297.9262 298.0161 298.3198 298.5320 298.7220 299.2030
   299.5519 299.7387 300.0551 300.2475 300.7454 301.3347 301.8004 301.9298
   302.5918 302.9028 303.2291 303.3357 303.5708 304.0131 304.1139 304.1720
   304.5616 305.2286 306.8686 308.0511 310.0870 310.5572 310.6468 311.1628
   311.7055 311.9424 312.0570 313.4552 313.8342 314.0518 314.3797 314.6341
   315.0456 315.1472 315.8705 316.3923 316.5340 316.6098 317.7351 318.3601
   318.7019 319.8598 319.8952 320.3060 321.4295 321.4484 322.4818 322.8000
   323.1804 323.7732 324.1707 324.3442 324.3951 325.1584 325.4654 325.4873
   325.7990 326.2596 326.5746 327.3700 327.4447 329.2037 329.3330 329.3867
   329.4891 329.6130 330.2115 330.7043 330.7232 330.9629 331.3539 331.4691
   332.9569 333.1147 333.6654 334.0756 334.1410 335.6692 335.8604 337.0912
   337.4277 337.8616 338.2206 338.2882 338.4177 339.2750 339.3174 339.8663
   340.0986 340.5276 340.6689 340.7904 341.0103 341.2071 341.2734 343.1821
   343.3096 343.5649 343.9314 344.5718 344.5830 345.4054 345.7274 345.9936
   346.5873 346.7622 348.0508 349.4196 350.1840 350.3137 351.6597 351.9107
   352.0850 352.2537 352.7653 352.7753 354.5961 355.0364 355.1301 355.2150
   355.3759 355.3801 355.7782 356.2310 357.1184 357.8068 358.1557 359.5594
   359.6034 360.2256 360.4831 360.8571 361.6413 362.0387 362.7687 362.9566
   363.0883 363.6952 364.1409 364.3749 364.4994 365.0390 365.0804 365.7864
   365.8339 366.9734 367.1487 367.7090 367.8498 367.9210 367.9765 368.1805
   368.6411 369.0286 369.3074 369.7120 369.8429 370.2157 370.3464 371.3597
   371.6929 372.6797 373.6719 373.9245 373.9544 375.5838 375.6125 376.2750
   376.7314 377.3013 377.6066 378.2736 378.3333 378.4693 378.5331 378.6550
   378.8395 380.1319 380.4953 382.7022 382.9458 383.3107 383.8070 383.8406
   384.1105 386.6282 386.7271 387.5100 387.6256 388.0845 388.0966 388.6665
   389.6367 389.8398 391.3104 391.5482 391.9340 392.0880 392.2916 392.6976
   392.7552 393.6869 393.8404 393.9190 394.7097 395.0237 395.6260 395.8288
   396.2900 397.5732 398.8811 399.0155 399.1686 399.7035 399.9272 400.4185
   400.4454 401.1530 401.4898 402.1885 402.5112 403.0179 403.0956 403.3106
   403.8722 403.9601 404.3268 404.6115 405.1711 405.5478 405.6694 406.0117
   406.2430 406.2792 406.5306 407.0555 407.2603 407.4631 407.5950 407.6741
   408.7638 409.0652 409.8272 410.6522 410.7721 410.9285 411.1578 411.6675
   411.9057 412.0423 412.2214 412.2218 412.7440 413.1879 413.7519 414.3231
   415.0185 415.1786 415.4302 415.8400 416.3390 416.5123 416.6232 417.4725
   418.0987 418.7615 418.9878 420.3622 420.8314 420.9047 420.9696 421.5631
   422.0970 422.1615 422.3077 422.4011 422.7352 423.7900 423.9846 424.1500
   424.7603 425.0989 425.2358 425.4078 426.0480 426.2230 427.0251 427.9409
   428.2025 428.5065 428.5149 429.2287 429.8982 429.9867 430.1184 430.1212
   432.3785 432.4664 432.7684 432.9218 433.4312 433.8931 434.3170 434.4999
   434.9039 434.9588 435.0296 435.2740 435.4960 435.7022 435.8016 436.0698
   436.1496 436.5935 437.0594 437.1841 437.7410 438.3909 438.6528 438.7798
   438.8541 439.4698 440.0521 440.1890 440.2317 441.1254 441.1260 442.0485
   442.0774 443.1377 443.1902 444.4990 444.5874 445.2364 445.7452 445.8529
   446.0409 446.3420 446.7769 447.1644 447.3584 447.4885 447.9960 448.1180
   448.9544 449.2184 449.3622 449.5760 450.1313 450.7196 451.4747 451.5190
   451.7760 452.1037 452.3438 452.3505 452.4765 452.7681 452.8091 453.2260
   453.3571 453.4300 453.4535 453.6877 454.2739 454.3607 456.3637 456.4360
   457.3885 457.8994 457.9759 458.5627 459.2342 459.9839 460.5406 460.5793
   460.8889 460.8949 461.3094 462.2971 463.2457 463.3056 463.4584 464.2968
   464.6506 464.9588 465.4954 465.7664 466.0349 466.1616 466.4928 466.5888
   466.6174 466.9247 466.9876 467.9104 468.3239 468.5032 468.7565 468.8571
   468.9636 469.1774 469.2128 469.3728 471.6403 472.4944 474.1718 474.1957
   474.5074 474.9221 475.2294 475.2630 475.5694 475.6527 475.9568 476.0290
   476.2395 476.3416 477.5424 478.6375 478.6641 478.7517 478.8135 479.4795
   480.2060 480.5126 481.2372 481.2448 481.9982 483.0281 483.1281 483.2638
   483.8782 483.9578 484.8849 484.9123 485.8298 486.7760 486.7938 487.1595
   487.1876 487.5006 487.7962 488.7603 488.9260 489.3237 489.6334 489.7023
   490.0139 490.2173 490.2674 491.1083 492.3507 492.8387 492.8713 493.5357
   494.8669 494.9285 495.4360 496.3831 497.3940 498.3202 498.7155 499.0567
   499.3574 500.6475 500.9514 501.0290 501.2238 501.5297 501.6743 502.1162
   502.4349 502.6897 502.7557 502.9840 503.0083 503.6940 503.8664 504.0118
   504.1267 504.2988 504.3126 504.3894 504.4659 504.5163 504.6486 504.7259
   505.1050 505.1085 506.3348 507.5694 508.6676 508.6734 508.9041 508.9310
   509.1989 509.3357 509.5779 509.7511 510.3321 510.4258 510.6701 510.7387
   511.2926 511.4711 511.8924 511.9128 512.3767 512.4430 512.5784 512.7320
   512.8665 512.9259 513.6382 513.9384 514.5298 516.2521 516.8204 516.9036
   517.1437 517.5752 517.6413 517.9577 518.0847 518.1100 520.4707 520.6384
   520.8998 520.9275 521.3351 523.1691 523.2808 523.5480 523.7363 524.0976
   524.1146 524.2311 524.6480 524.9434 524.9839 525.2320 525.5316 525.7824
   526.2911 526.3559 527.0931 528.1383 528.4019 528.6045 528.6604 529.5054
   529.5578 529.7091 529.7448 530.6796 531.6142 532.4085 532.4974 532.9039
   533.3931 533.6515 533.8389 534.6111 534.6838 534.8941 534.9457 535.0570
   535.4818 536.0902 536.2162 536.4901 538.1520 538.2558 538.6728 539.3644
   539.4115 539.5271 539.8807 540.1955 540.7151 540.7569 540.9596 541.0428
   542.1129 543.5271 544.0310 544.1102 544.9346 545.4504 545.7630 546.0404
   546.1466 546.2479 546.2941 546.3511 546.4518 546.5311 546.8746 547.0323
   547.3816 547.5553 547.7723 547.8294 549.3171 550.2242 550.7366 550.7507
   551.1246 551.1810 551.4389 552.1282 553.0733 554.0933 554.2460 554.3708
   554.7051 554.7670 555.4814 555.5676 555.6258 556.0122 556.0804 556.8346
   556.8596 557.1569 557.2594 557.4856 557.5231 558.6801 558.7844 559.5375
   559.7886 559.8768 560.0386 560.2348 561.0775 561.4696 561.5767 561.7858
   561.9846 562.0036 562.5747 562.7074 563.0256 563.6160 563.6862 563.8334
   564.1966 564.4480 564.6330 564.7239 564.9399 565.6662 566.1927 566.3539
   566.6288 567.8735 568.8632 568.9398 569.1794 569.3854 569.4906 571.3602
   571.6069 572.8476 572.8811 573.5507 573.5739 574.0947 574.1817 574.4964
   575.8247 576.2962 576.3430 576.5492 576.7773 576.8125 577.4533 577.5139
   577.6637 577.7188 577.8583 577.9929 578.0217 579.1590 580.3659 580.3851
   581.3871 581.4134 581.5389 581.8068 582.0953 582.2028 582.5080 582.6213
   582.6424 583.2609 583.4750 583.7281 583.8948 584.5359 584.5788 584.7431
   585.0322 585.6496 586.0347 586.2933 587.2193 587.3470 587.6254 588.4381
   588.7050 588.8324 589.2326 589.2394 589.3902 590.2420 590.7823 591.0679
   591.1200 591.7478 591.9627 592.1133 592.2615 592.3957 592.7209 592.7803
   592.9006 593.0533 593.1922 593.2458 593.2881 593.5412 593.7812 593.8380
   594.8846 594.8933 595.3686 595.4490 595.9682 596.0495 596.6400 596.6769
   596.8647 597.0300 597.5868 598.7049 598.9020 598.9041 599.3427 599.5125
   599.7670 600.1325 600.2108 600.5878 600.6644 600.9445 601.5376 601.8182
   601.9211 602.4530 602.6927 602.7193 604.1715 604.3431 604.6697 605.0147
   605.3345 606.1504 606.1624 606.6536 606.7060 606.9029 606.9675 607.2567

          k = 0.6667-0.3333 0.6667 (  2390 PWs)   bands (ev):

   -94.4729  -6.9387   0.1638   3.1904   3.8297  10.0093  11.8826  12.5771
    14.3208  17.5057  19.6973  19.9972  20.4246  22.1849  25.6591  27.7772
    29.4365  31.4614  31.9100  32.8844  33.7935  34.8643  37.3845  37.4475
    38.8218  39.7646  40.2939  41.5843  42.5562  44.9071  45.3125  47.5520
    47.9393  49.4734  50.8637  51.2348  53.8879  54.3417  56.2447  59.0330
    59.1607  59.7925  60.5537  61.2221  62.1480  63.4101  64.3383  65.0234
    66.3023  67.4680  67.7836  70.0027  70.6500  72.1070  72.9182  73.2378
    74.7908  74.9430  75.1299  76.3463  76.5726  77.9807  79.0702  79.1528
    81.0722  81.1866  82.1125  82.9501  83.7863  84.1114  85.3269  85.6070
    87.7430  87.9291  88.7729  90.3915  90.4620  91.9217  92.6075  93.5147
    93.7265  95.7310  96.2975  97.1931  97.7252  99.2439 100.4563 101.4643
   101.6432 103.7765 103.9756 104.4889 104.9759 105.9331 106.6600 107.6980
   108.5052 109.2111 110.5925 111.2114 111.7300 112.1551 113.6713 114.1170
   114.4548 114.9432 115.7610 116.8965 117.6344 118.1687 118.8520 119.2247
   119.6660 120.5126 120.7906 121.6775 121.8313 123.1668 124.8634 125.5886
   126.2553 126.5880 127.8970 128.1467 129.1088 129.1186 129.7525 130.4412
   130.9056 131.9320 133.8145 134.2973 134.4876 135.3014 135.7364 136.1055
   136.8574 137.1886 138.5452 138.8781 140.3163 140.8729 141.4217 141.8125
   142.6500 143.5067 143.8990 144.3265 144.4030 145.2568 146.0467 147.5970
   147.9999 149.1802 149.9537 150.4638 150.6841 151.7569 152.3436 152.4715
   152.7088 153.1706 153.7538 154.2496 154.9925 155.6220 155.6734 156.2406
   157.3628 158.9285 160.2337 160.5022 160.9986 162.0442 162.4797 163.9533
   164.5809 164.7712 165.3525 166.1451 166.9298 167.5816 167.9650 169.0496
   169.2193 170.4099 170.5025 171.4195 171.7661 172.5178 172.9055 173.2937
   173.4959 174.5527 175.0140 175.1640 175.1822 175.7627 176.8974 178.7337
   179.0462 179.5116 180.4804 180.7307 181.7057 181.7893 182.1065 183.1996
   183.4405 184.5499 184.8951 185.2806 185.5619 185.8697 185.9777 186.3853
   186.8838 187.2100 187.3258 188.3359 189.5534 190.0684 191.1132 192.2880
   192.4531 192.7185 193.5864 194.1561 194.5388 194.9022 195.3151 195.3522
   195.6287 195.6778 197.7346 198.2217 198.8383 200.3264 200.3766 201.2385
   201.7948 202.2737 202.5947 204.1287 204.4426 205.7298 205.9878 206.4465
   207.6521 207.8108 208.3016 209.3341 211.2710 211.8433 212.0474 212.9672
   213.1712 213.2761 213.9676 214.8618 215.5318 215.7944 215.7972 216.0888
   216.3688 217.7231 217.8063 218.7865 219.7096 219.7686 220.2581 220.4722
   221.1246 221.5570 222.0948 223.7934 224.1255 225.4886 225.7374 226.2547
   226.6505 227.1277 228.2383 228.6437 228.8454 229.2742 229.3347 229.6773
   231.1500 231.8122 232.1651 232.5171 233.6613 233.6731 234.8052 235.3989
   235.5562 236.2212 236.2422 237.0879 237.2611 237.7487 238.5298 238.7460
   238.7773 239.4477 239.8285 240.4550 240.4958 240.7293 242.0058 242.2590
   242.8873 243.1747 243.6223 243.9573 244.4781 245.0577 245.2664 245.4548
   246.2374 247.5464 248.0773 248.3106 248.6505 250.0795 250.2485 251.5419
   251.5895 252.1728 252.4787 252.5963 252.9838 253.5327 253.6358 254.5337
   255.5718 255.7064 256.3971 256.9580 257.1706 258.2803 259.1089 259.7483
   259.9538 260.4608 260.7843 260.9479 260.9905 261.2485 261.4800 261.5067
   262.1427 262.9407 263.3344 263.5673 264.4258 264.4892 264.8566 265.2616
   266.1283 266.4850 267.1353 268.2134 268.5757 269.2271 269.5184 269.7780
   270.2636 271.0191 271.3946 272.7727 272.8057 273.2813 273.6392 274.7194
   275.6160 275.6280 276.1398 276.2950 277.2137 279.6287 279.7818 280.6580
   281.3767 281.8086 281.9273 282.4969 282.8456 282.8589 283.3034 284.1138
   284.2287 284.5801 284.6557 285.0426 285.2912 285.3792 286.1200 287.7316
   288.1228 289.0807 289.1431 289.3041 289.7542 289.9967 290.4262 291.0179
   291.6283 292.0538 292.1740 293.3868 295.2416 295.6126 295.6877 295.8520
   295.9599 296.2816 296.5415 296.6409 298.2612 298.8363 298.9935 299.3742
   299.7584 300.0831 301.3462 301.5832 302.1702 302.3449 302.4405 302.6103
   305.1720 305.2007 305.6405 305.7031 306.2509 306.2890 306.4025 307.8302
   308.0710 308.3518 308.9046 309.2629 309.3263 309.7639 309.8699 310.6833
   312.7857 313.3129 313.3964 313.5304 313.6928 314.1812 315.7366 317.5979
   317.7205 318.2424 318.4224 319.0118 320.0216 320.6293 320.7780 320.7924
   321.1810 321.2069 322.8640 323.1000 323.3589 323.8455 323.8916 324.2352
   324.4130 324.5747 324.9003 325.0459 325.4238 325.6170 325.7586 326.5832
   327.1602 327.2553 327.7042 327.7691 327.9771 329.0580 330.2922 330.4027
   330.7462 331.4433 331.7296 331.9410 332.2543 333.1328 333.6060 333.8745
   333.9964 334.2598 335.0320 335.1116 335.3953 336.4236 336.8988 337.1286
   337.5729 337.5878 337.7137 338.5528 339.5386 340.1521 340.7262 340.8112
   341.0097 341.2565 341.6507 342.0214 342.2747 342.8076 343.5774 343.5890
   343.9358 344.9916 345.0387 345.5045 345.8724 345.8907 346.0103 347.1636
   347.2956 349.1198 349.3251 350.1376 350.1391 350.3681 350.5484 351.5824
   351.6728 352.0687 352.0977 353.8003 353.8060 354.3961 354.6716 354.8961
   355.3899 355.4440 355.8438 355.9071 356.2237 356.6750 357.1759 357.8130
   357.9003 358.1431 359.6122 359.9386 360.1292 360.5879 362.7532 363.1918
   363.3030 363.4060 363.6688 364.3020 364.4550 365.0944 365.1276 366.0534
   366.3520 366.6018 366.7930 366.7961 367.6518 367.9879 368.0414 368.5543
   369.0764 370.0381 370.3779 371.0017 372.2672 372.3848 373.4803 373.8146
   374.3629 374.3932 374.6572 374.8730 375.1325 375.3656 375.9725 376.0420
   377.0838 378.0600 378.2785 379.3589 379.3610 380.1602 380.3558 380.4222
   380.5327 380.7920 381.5773 381.9772 382.4957 382.7193 383.0685 383.2067
[...]
   321.7406 321.8575 324.2609 324.5759 324.7027 324.8766 325.5907 325.7687
   326.3815 326.9230 326.9520 328.7383 329.1994 329.2504 329.5327 329.6766
   331.3552 331.3898 333.0690 334.2353 334.6247 334.8371 335.4084 335.8452
   336.2017 336.3608 336.5582 336.8911 337.7212 337.8214 338.1355 338.6387
   338.7747 338.9923 339.1858 339.6282 339.7822 340.1116 340.9775 341.8115
   342.3095 342.3588 343.5387 344.2241 344.4931 344.7658 345.0999 345.1586
   345.3945 345.6047 345.9644 346.5417 346.7094 347.1424 347.3610 347.6388
   348.1765 348.5478 348.6888 350.1264 350.3835 350.9573 351.0264 353.5364
   353.7268 353.8962 354.2895 354.5046 354.6623 355.1939 355.3246 355.5221
   356.1943 356.5043 356.8692 357.1059 357.3190 358.8979 359.1927 359.7350
   360.0365 360.1342 360.4517 360.7951 363.5927 363.8722 364.9165 365.1675
   365.4331 365.5455 365.6099 365.6279 365.9190 366.0398 367.0399 367.8637
   368.3026 368.6120 368.7403 369.3526 369.9684 370.0537 370.4338 370.6599
   371.1997 371.4721 371.6145 371.7986 372.1284 372.2902 372.3763 372.6932
   372.9661 373.2345 373.5423 373.7397 375.6688 375.6996 376.2842 376.6846
   377.4891 377.5345 379.0724 379.2640 379.7171 379.8448 380.1255 380.2280
   380.8782 381.1790 381.6596 381.8316 381.8797 382.0242 382.1927 382.5869
   383.1343 383.1535 384.1700 384.2981 384.3387 384.3990 384.8974 385.0368
   385.2125 385.3706 385.8315 386.0133 386.3986 386.4116 387.1527 387.3138
   387.6962 387.8510 388.2085 388.8872 389.4515 389.4685 390.8047 391.5390
   393.4208 393.5998 394.6833 394.9263 395.3350 395.7425 395.9471 396.0457
   396.1279 396.1412 396.2897 396.3493 396.4158 396.5593 396.7239 396.8042
   397.2362 397.3814 398.5272 398.6641 400.3789 400.5220 401.4581 401.5410
   401.9977 402.3049 403.8988 403.9546 404.1184 404.3971 404.5083 404.6274
   405.6776 405.7076 407.5257 407.5768 407.7594 408.0448 408.3906 408.7408
   409.6771 409.8874 410.9616 411.0229 411.3355 411.3717 411.5865 411.6671
   411.8695 412.0736 412.2496 412.3488 412.5903 412.6705 413.4595 413.5194
   415.1036 415.1814 416.7076 416.7587 416.9586 417.2636 418.8908 419.0153
   419.2660 419.3983 421.1113 421.3044 421.3688 421.4024 423.7535 424.2432
   425.6902 425.9462 426.0411 426.3332 426.4219 426.7668 426.9044 426.9607
   427.3914 427.4693 428.1686 428.2549 428.6913 428.9897 430.0238 430.3026
   430.3933 430.5101 431.2778 431.3476 432.1451 432.3121 433.6366 433.8699
   434.2513 434.6116 434.9680 435.1354 435.2468 435.6204 435.6677 437.3704
   437.5101 440.8437 440.8738 441.6835 441.8603 442.8405 442.9412 443.3626
   443.7944 444.1827 444.2694 444.6482 444.8311 445.3551 445.5239 445.9299
   446.2055 446.4261 446.5207 446.7391 446.8378 447.3658 447.6774 448.4865
   448.9457 449.4547 449.7729 450.1738 450.3977 450.5084 450.6639 451.0221
   451.3601 452.0733 452.1873 452.4167 455.1177 455.1867 455.7723 456.0237
   456.2984 456.5374 456.5896 456.6391 456.8081 456.9191 457.6830 458.1250
   458.2623 459.3579 459.7129 459.9209 460.1848 460.2399 460.4020 460.5218
   460.7803 460.8698 461.5184 461.7664 462.0233 462.1194 462.2654 462.3295
   463.6602 463.8279 463.9623 464.1959 464.2824 464.3470 465.1751 465.2140
   465.9913 466.3136 467.8309 467.8494 468.5968 468.8704 469.1949 469.2102
   469.9747 470.1165 470.3788 470.4787 471.1609 471.2868 471.4137 471.5167
   471.5919 472.6245 473.2029 473.8033 474.9016 475.2403 475.4352 475.9365
   475.9870 476.2051 477.4129 477.6101 477.7057 477.9189 477.9898 478.6492
   479.2314 479.3494 479.9252 480.1192 481.1325 481.4108 482.3172 482.5194
   482.9735 483.0470 483.1704 484.0923 484.3339 484.6145 484.8820 485.0261
   485.1565 485.4302 485.4776 485.5546 485.5971 486.2991 486.3904 486.6751
   486.7356 486.7815 486.8987 487.2842 487.5202 487.6175 488.1333 490.9052
   491.1740 491.3378 491.4309 491.4634 491.6839 491.9716 492.0787 492.9560
   493.0343 493.3184 493.4031 493.8266 493.8930 497.1982 497.5921 497.8827
   497.9395 498.6907 498.8401 499.4814 499.6835 499.7148 500.6260 500.7544
   501.3533 501.5605 501.6542 501.7400 501.8348 501.8961 502.2228 502.2669
   502.5167 502.6133 503.5254 503.5406 503.6503 504.3517 504.4266 504.6407
   504.8356 505.3054 506.2677 506.3842 506.5840 506.6522 506.8060 506.9496
   507.1624 507.7174 508.0986 508.1662 508.3827 508.7424 509.1598 509.2227
   509.3595 509.4531 509.5041 509.6500 509.7979 510.0503 514.7010 514.7522
   514.9073 515.2203 515.6345 515.8404 517.1157 517.1616 517.5302 517.6899
   518.9205 519.0962 519.8257 519.9222 520.1090 520.3361 520.4234 521.3236
   521.6817 521.7462 522.4216 522.5952 522.6146 522.7785 523.0034 523.2694
   523.8373 524.3187 525.1565 525.6637 525.6931 526.2490 527.0985 527.2097
   527.6648 528.0533 528.0728 528.2671 528.3798 528.5962 528.6744 528.9014
   529.1856 529.3671 530.0704 530.2350 530.5969 530.8080 531.0248 531.1462
   531.9152 532.0157 532.8852 532.9940 533.0885 533.4268 533.5673 533.6588
   534.4406 534.8309 535.0963 535.1704 535.5507 535.5959 535.7148 536.1199
   536.3811 536.4144 536.6308 536.7217 537.7163 538.1180 538.5099 538.5307
   539.5073 539.8706 541.9240 541.9971 542.5534 542.7017 542.7247 542.9801
   543.5718 543.7467 543.9504 544.2554 545.3925 545.4415 545.6546 545.7536
   546.3403 546.4778 546.5036 546.7974 547.1934 547.3494 547.9474 548.1945
   549.4366 549.5235 550.1915 550.2282 550.3424 550.4029 550.7371 550.8488
   551.2589 551.3054 551.3801 551.4311 552.0180 552.3574 552.4788 552.5497
   553.2947 553.4079 553.5175 553.5923 553.7608 553.9116 554.0004 554.0317
   554.3640 554.4297 557.4360 557.4927 558.5801 558.6782 560.3463 560.4839
   560.9279 561.1140 561.2186 561.2433 561.3975 561.5561 562.0579 562.0962
   562.3245 562.4774 563.4414 563.6165 564.0584 564.1472 564.5813 564.7961
   564.9956 565.2929 565.5105 565.5800 566.2199 566.3034 566.6056 566.6294
   566.6567 566.9660 570.9614 571.8152 572.3989 572.5209 572.8265 572.9378
   573.5749 573.7240 573.7998 573.8075 574.3828 574.7087 575.2611 575.4561
   575.4738 575.6312 576.0727 576.5045 577.1101 577.2063 577.4120 577.4807
   577.7068 577.7879 578.9175 579.0575 579.1953 579.4671 580.6913 580.7346
   581.7576 581.8700 582.5919 582.6392 582.9696 583.1883 583.7436 583.7934
   583.8605 583.9466 584.1817 584.3013 584.3454 584.4186 584.4885 584.6766
   584.8372 584.9298 586.5530 586.6031 587.9762 587.9998 588.1013 588.2943
   588.6604 588.6920 588.9349 588.9848 589.3244 591.3509 591.3873 592.2192
   592.3619 592.6435 592.9313 593.2961 593.5118 593.6978 593.7339 594.4433
   594.4669 594.4876 594.8637 595.2236 595.2575 595.7483 595.7990 596.0367
   596.1145 598.2361 598.4074 599.9078 600.0325 600.0767 600.1529 601.4320
   601.4912 602.8220 602.9626 603.5329 603.6557 603.7226 603.7916 604.7538
   605.2453 605.4855 605.7506 606.0517 606.5861 606.7949 607.6117 607.8260
   608.0081 608.0285 609.0078 609.2554 609.4691 609.5039 610.1982 610.2963

          k =-0.3333-1.0000 0.0000 (  2402 PWs)   bands (ev):

   -94.4729  -6.5630   0.7617   2.0187   2.2832   9.9828  11.3101  14.2392
    14.9544  18.7167  18.9872  21.3702  22.2032  25.9551  26.5735  27.3062
    28.2127  28.2751  29.4256  32.5361  33.3459  33.6327  34.6009  35.9879
    36.3479  39.2495  41.5988  41.9122  43.2568  45.0668  47.1997  48.2058
    48.3160  49.8883  50.8302  52.8166  53.3864  56.5690  56.9033  57.2480
    57.8919  60.3654  62.0801  63.0894  63.6597  63.9221  64.3697  64.5474
    64.9003  66.9966  67.2115  68.3219  71.6327  71.6608  72.9771  73.5242
    74.5181  75.6841  75.7489  76.2603  77.1122  78.5145  80.1810  80.9499
    81.2147  81.8484  82.3310  83.2142  84.5658  84.6776  85.5307  86.7894
    88.1496  89.7227  90.5916  91.0796  91.5406  92.0660  93.2695  93.3242
    94.9377  95.5780  95.8461  96.2498  96.4486  97.2299  97.2310 100.0701
   100.2151 100.7782 101.7124 102.2796 102.7905 102.8516 103.6920 104.1198
   104.4141 104.8278 106.7453 107.6246 107.6836 109.4867 110.5202 110.8870
   113.3007 115.3713 116.9432 118.2246 119.4090 119.5092 120.9203 121.3208
   122.8582 124.2034 124.7022 125.2052 125.4247 127.4706 127.7546 128.0134
   128.6493 128.9147 129.4757 130.2774 130.6288 130.8513 132.3795 132.6622
   133.7997 134.2344 134.5717 134.7504 136.3157 136.7244 137.4424 138.0770
   138.1409 138.3047 139.3728 140.3440 140.7410 140.8209 142.5957 142.8305
   142.9668 144.0164 144.1166 144.4318 144.9874 145.5324 146.9036 147.1290
   148.2053 148.5469 149.1150 149.1920 149.4217 150.1242 151.0793 151.4382
   153.5590 154.1053 154.2710 155.1110 155.5974 156.2748 157.3013 157.8661
   158.0160 158.7771 159.1096 159.4296 159.6507 159.8364 159.9291 161.5275
   161.7597 162.3668 162.9512 163.6976 165.2713 165.4673 166.8275 167.2111
   167.7114 167.7382 168.2445 168.2617 168.8480 169.1279 169.2025 169.4453
   170.5169 170.8304 171.4173 171.6498 173.9184 174.9141 175.4794 176.3266
   176.4636 176.6027 176.7492 179.4488 180.2091 180.3188 181.5837 182.4529
   183.3155 183.9546 184.1575 184.2358 184.8656 185.4246 185.5247 186.0283
   186.9876 187.0648 191.4153 191.4524 192.9886 193.0227 194.2803 195.0204
   195.7270 196.0663 196.2826 196.7654 197.1388 197.3831 197.4834 197.5064
   199.2306 199.6814 200.1115 200.2685 200.9489 201.0208 202.2477 202.9212
   203.5679 203.9981 204.8645 205.1470 205.5949 205.6681 207.5842 207.8620
   209.1064 209.1380 210.1690 210.5428 210.5598 210.8109 211.5865 211.7591
   212.6222 212.8212 213.0368 213.3253 214.4045 214.4434 214.7954 215.0465
   215.9297 216.0350 216.9029 217.0715 218.1888 218.8472 219.0856 221.6174
   223.2965 224.0471 224.0837 224.6997 225.2084 225.4287 225.9792 226.0862
   227.0057 227.3796 228.0070 228.0269 229.5331 229.5778 229.9593 230.0487
   230.6753 230.7342 232.2927 232.5141 232.8523 232.8669 233.6875 233.9386
   237.6824 237.8572 238.2022 238.4618 238.6242 238.7249 238.9635 239.4061
   239.6222 239.6880 240.7026 241.9802 242.6384 242.7688 243.5710 244.4010
   244.9000 244.9296 245.5891 245.9788 246.2673 246.4834 246.8771 246.9962
   247.1052 247.1562 247.8928 248.1591 248.6193 248.6491 248.7736 248.9095
   249.5782 249.8784 250.1648 250.6111 250.9097 251.2611 251.2861 251.7287
   254.1502 254.7424 255.1487 255.3135 257.5730 257.8051 257.8191 258.3145
   258.5196 258.5550 258.9306 258.9778 259.2329 259.3745 260.9708 260.9939
   264.8981 264.9806 265.5044 265.7711 266.0817 266.1062 266.3994 266.8775
   267.4794 267.5063 267.7890 267.9522 268.5962 268.6396 268.9282 268.9843
   269.8826 269.9392 270.0682 270.1312 272.0365 272.0855 272.6140 273.1184
   273.4101 273.9372 274.0857 274.1747 276.8196 276.9163 278.7390 279.0947
   279.6442 280.0881 280.9897 281.2691 282.1597 282.2598 282.6470 282.8750
   283.0052 283.2387 284.1396 284.3930 284.8405 285.3548 285.6733 286.1540
   287.9748 288.0021 288.8978 289.2303 290.7444 291.0240 292.1265 292.1922
   292.4682 292.6580 293.6988 293.7267 293.8416 293.8827 295.2418 296.1098
   296.7459 296.8272 297.7631 297.8637 298.2019 298.5346 299.0176 299.8374
   299.8430 300.2487 300.7266 301.5187 302.1844 302.4885 302.5530 303.0542
   303.2243 303.7335 305.3171 306.0936 306.4279 306.5486 306.7164 306.7173
   306.8680 306.9137 307.9896 308.0474 308.4338 308.6385 308.6570 309.3527
   309.8950 310.0066 310.3949 310.5509 314.2043 314.2277 316.8894 316.8978
   317.4490 317.7410 318.0626 318.7141 319.4507 319.6568 319.8399 320.2440
   320.3956 320.5387 320.6313 320.9500 321.5079 321.5994 321.8439 322.1708
   322.6009 322.8393 324.2060 324.2496 324.7300 324.8466 324.9017 324.9107
   324.9855 325.2391 326.4891 328.6567 328.8023 328.8824 329.4440 330.1206
   330.8926 331.3099 331.6575 331.7481 332.6574 332.9635 332.9759 333.1670
   335.1903 335.2827 338.2376 338.3356 339.2212 339.7950 340.3127 340.9017
   342.5291 342.5688 344.0284 344.3911 344.6017 344.7962 344.9026 345.0644
   345.1984 345.2525 345.3769 345.4396 345.5345 345.7306 346.0397 346.2090
   346.2624 346.5978 346.8886 346.9537 349.2654 350.0399 350.5099 350.6389
   350.7432 350.8099 352.6687 353.0840 353.3801 354.0714 354.1506 354.5513
   355.1039 355.2435 355.8814 355.9092 357.3205 357.3765 357.8191 358.2047
   358.3480 358.7040 359.4260 360.1083 360.2436 360.4588 360.8200 360.9281
   361.0864 361.3486 361.5377 361.8173 362.2892 362.3739 362.6115 362.9326
   363.7756 363.8610 363.8961 364.0775 364.4196 364.6748 364.7897 364.8624
   366.5121 366.6132 367.9205 367.9436 368.6571 368.7698 369.3206 370.2858
   370.5036 370.8598 370.9209 371.0131 371.5141 371.5746 371.6631 371.8355
   371.8960 371.9911 372.0193 372.0890 372.1401 372.4447 372.8247 372.8312
   373.9542 374.0279 375.5058 375.6454 375.8983 376.6294 377.8994 378.1824
   379.3623 379.3850 379.4636 379.7559 379.7924 380.0001 380.0634 380.2181
   381.3055 381.3309 382.2352 382.3534 383.1730 383.3103 383.4877 383.7098
   384.6401 385.8323 386.1126 386.1912 386.2957 386.5179 386.5688 386.8892
   386.8966 390.0558 390.7782 391.3520 391.6364 392.1286 393.1547 393.1898
   394.1445 394.1805 394.8929 394.9489 395.0659 395.3887 395.4724 395.7181
   395.9580 395.9863 396.3748 396.3877 396.5077 396.6612 397.8373 398.1024
   399.0923 399.6312 399.6724 400.0629 400.2309 400.7069 402.1320 402.4421
   402.8159 402.8613 404.3699 404.5231 404.5364 404.6588 404.8769 405.0179
   405.8755 405.8775 406.2769 406.3203 406.4654 406.4875 407.9273 407.9390
   407.9893 408.0628 408.6022 409.0540 411.4236 411.5598 411.8850 412.2248
   412.2847 412.4396 412.6774 412.9374 413.3122 413.5214 413.8367 413.8529
   413.9793 413.9875 414.5897 414.7421 415.3940 417.9028 418.2968 418.3460
   418.3646 418.8281 419.8162 419.8235 419.9207 420.0685 420.2487 420.2523
   420.2803 421.8754 422.3939 423.8176 423.9663 424.2051 426.3384 426.5115
   428.1726 428.1896 428.2864 428.3516 430.2404 430.5038 430.7341 430.7994
   431.0851 431.2073 431.7749 432.0485 433.0238 433.0489 433.1353 433.2354
   434.6368 434.7391 434.9475 435.2535 435.4737 435.4802 435.7299 435.7791
   437.0438 437.3295 438.2447 438.4950 440.7210 440.7659 441.0113 441.2097
   441.4237 441.8796 444.0593 444.2499 444.5757 444.7331 445.3237 446.4136
   447.6978 447.7694 448.0419 448.0999 448.7569 448.9599 449.6116 449.6751
   449.9838 450.0686 450.4930 450.4992 450.7255 450.9665 454.0105 454.0296
   455.3669 455.6157 456.1644 456.5536 456.8506 457.0752 457.1879 457.2697
   457.7766 458.0029 458.0899 458.2527 458.3588 458.4213 458.5058 458.8169
   459.0174 459.3226 459.7765 460.2215 460.4959 460.5158 461.0355 461.1541
   461.5356 461.6584 462.5376 463.1436 463.9509 464.1958 465.5482 465.6518
   466.8300 466.8611 467.1743 467.4199 468.5652 468.7352 468.9380 469.1102
   469.4207 469.4268 470.7612 470.8715 470.8789 471.4266 471.4416 471.8032
   471.9599 472.1854 472.3167 472.3767 473.0623 473.0721 473.1554 473.2608
   473.7499 473.9359 474.0540 474.1220 474.3551 474.6785 475.2687 475.7330
   476.3589 476.4053 476.5039 476.6130 477.3967 477.9106 479.8798 479.9257
   480.1782 480.3069 480.3342 480.5428 480.7160 480.7781 480.8128 481.9403
   482.2131 482.2890 482.3904 482.5775 483.5265 483.6519 483.7474 483.9450
   484.4247 484.6140 484.6155 484.6601 484.7061 484.8584 484.9700 485.4929
   485.5100 485.5710 485.6402 485.7112 485.7814 486.6887 487.5587 487.8929
   488.0299 488.6122 488.7136 489.1573 489.2645 489.8660 490.0745 491.2722
   494.2327 494.3025 494.5342 494.8366 495.4068 495.4825 495.6273 495.6333
   496.9000 496.9337 496.9637 496.9818 497.7276 497.7448 497.8146 497.8237
   499.4416 499.6924 499.8609 500.1519 501.0716 501.1335 501.5451 501.8396
   502.6673 502.7814 504.2289 504.2963 504.9741 505.1724 505.3856 505.7367
   505.7601 505.7971 505.9199 506.0380 507.4754 507.5554 507.6434 507.7667
   508.1525 508.3881 508.3983 509.1124 509.2524 509.5226 510.8210 511.4252
   511.7467 511.7966 511.8818 511.9950 512.1606 512.4496 512.7049 513.7481
   513.9651 514.1000 514.1677 514.3187 514.3319 514.6511 515.3142 515.3265
   516.7390 516.7785 516.9056 517.0292 518.0011 518.0188 518.1011 518.1984
   519.8868 520.6857 520.7013 520.7479 520.8509 521.1495 521.2772 521.5579
   521.6894 522.4095 522.6004 522.7951 522.8582 522.8667 522.9448 523.5011
   523.5039 525.4097 525.4664 525.6206 525.6727 526.8697 527.7552 527.9374
   529.6146 529.7230 529.8710 529.9340 531.3168 531.3381 532.3502 532.3672
   532.4185 532.4396 533.0728 533.6684 534.0823 534.0876 534.3821 534.5890
   535.1573 535.1857 535.2680 535.3793 535.4371 535.5842 538.9887 539.0947
   539.1396 539.1438 539.3008 539.3439 539.5616 539.8881 540.0661 540.1818
   540.7854 541.0055 541.0558 541.1127 542.5927 542.7141 543.3517 543.3813
   543.6194 544.2316 544.5211 544.5817 545.6878 545.7504 546.1212 546.8433
   547.5939 547.7249 547.7472 548.1237 548.3044 548.3572 548.4440 548.6593
   549.7158 549.8020 549.8626 550.0213 550.0780 550.1439 550.2479 550.4938
   550.8054 550.9018 551.4400 551.4653 552.6198 552.6457 553.1989 553.3585
   554.4551 554.5508 555.3269 555.6239 555.6820 555.7915 555.7985 556.0139
   556.9917 557.0032 557.0309 557.0394 557.1383 557.3141 558.6777 558.6966
   559.5279 559.6279 559.7948 559.8169 560.5531 560.6380 561.4337 561.4917
   562.2227 562.3125 562.9001 563.0515 563.1947 563.2397 564.1699 564.4358
   565.4306 565.5621 565.6258 566.0753 566.1057 566.5026 569.0615 569.5004
   569.5905 569.5993 569.8231 569.9876 570.6319 570.6758 571.6881 571.8668
   572.6000 572.6336 572.9869 573.0615 573.7741 574.3159 575.6296 575.7748
   576.6797 576.7898 577.2055 577.2683 577.4037 577.5343 578.1379 578.2852
   578.3259 578.5426 579.0654 579.0904 579.7853 580.1374 580.4901 580.5030
   580.7565 580.8402 581.0327 581.0423 581.5056 581.5982 581.8249 582.0289
   583.7549 583.7643 583.9034 583.9264 584.1031 584.1404 585.4648 585.4924
   585.5406 585.6348 585.7385 585.8066 585.8807 586.0208 587.5199 587.5424
   588.7111 588.7722 589.1084 589.1433 591.5848 591.8393 591.8471 592.0735
   592.6312 592.6819 592.9687 593.4905 594.4212 594.5561 594.5600 594.6437
   594.6530 594.7034 594.8611 595.1414 595.1553 595.3683 595.4727 596.1765
   596.2034 597.2604 597.4493 597.9349 597.9593 598.3994 598.4050 601.9322
   602.4872 603.0109 604.4340 604.4869 604.5498 604.6968 606.5464 606.5761
   607.1406 607.1983 607.2078 607.3540 607.9441 607.9615 608.0160 608.0472
   609.0833 609.0964 609.4200 609.5435 609.7106 609.7422 609.8003 609.8848

     the Fermi energy is     7.7559 ev
     (compare with:     5.6062 eV, computed in scf)

     Writing all to output data dir out/mp-1541.save/
 
     init_run     :      0.02s CPU      0.10s WALL (       1 calls)
     electrons    :    385.34s CPU    411.90s WALL (       1 calls)

     Called by init_run:
     wfcinit      :      0.00s CPU      0.01s WALL (       1 calls)
     potinit      :      0.00s CPU      0.07s WALL (       1 calls)
     hinit0       :      0.01s CPU      0.01s WALL (       1 calls)

     Called by electrons:
     c_bands      :    385.34s CPU    411.87s WALL (       1 calls)
     v_of_rho     :      0.00s CPU      0.00s WALL (       1 calls)

     Called by c_bands:
     init_us_2    :      0.00s CPU      0.00s WALL (       8 calls)
     init_us_2:cp :      0.00s CPU      0.00s WALL (       8 calls)
     paro_k       :    366.81s CPU    389.76s WALL (       8 calls)

     Called by paro_*:
     h_psi        :      8.40s CPU      8.84s WALL (     812 calls)
     g_psi        :      0.17s CPU      0.19s WALL (   77931 calls)

     Called by h_psi:
     h_psi:calbec :      0.19s CPU      0.20s WALL (     812 calls)
     vloc_psi     :      8.03s CPU      8.46s WALL (     812 calls)
     add_vuspsi   :      0.11s CPU      0.11s WALL (     812 calls)

     General routines
     calbec       :      0.19s CPU      0.20s WALL (     812 calls)
     fft          :      0.00s CPU      0.00s WALL (      10 calls)
     fftw         :      7.18s CPU      7.57s WALL (  128980 calls)
 
     Parallel routines
 
     PWSCF        :   6m26.07s CPU   6m55.94s WALL

 
   This run was terminated on:  14:43:23   4Dec2023            

=------------------------------------------------------------------------------=
   JOB DONE.
=------------------------------------------------------------------------------=
