
     Program PWSCF v.7.1 starts on  4Dec2023 at 15: 6: 8 

     This program is part of the open-source Quantum ESPRESSO suite
     for quantum simulation of materials; please cite
         "P. Giannozzi et al., J. Phys.:Condens. Matter 21 395502 (2009);
         "P. Giannozzi et al., J. Phys.:Condens. Matter 29 465901 (2017);
         "P. Giannozzi et al., J. Chem. Phys. 152 154105 (2020);
          URL http://www.quantum-espresso.org", 
     in publications or presentations arising from this work. More details at
     http://www.quantum-espresso.org/quote

     Parallel version (MPI), running on    24 processors

     MPI processes distributed on     1 nodes
     121394 MiB available memory on the printing compute node when the environment starts
 
     Reading input from pw_mp-1541_scf_k3000_E72.in
Warning: card &CELL ignored
Warning: card / ignored

     Current dimensions of program PWSCF are:
     Max number of different atomic species (ntypx) = 10
     Max number of k-points (npk) =  40000
     Max angular momentum in pseudopotentials (lmaxx) =  4
 
     K-points division:     npool     =       2
     R & G space division:  proc/nbgrp/npool/nimage =      12
     Subspace diagonalization in iterative solution of the eigenvalue problem:
     a serial algorithm will be used

 
     Parallelization info
     --------------------
     sticks:   dense  smooth     PW     G-vecs:    dense   smooth      PW
     Min          79      79     23                 1599     1599     260
     Max          80      80     24                 1601     1601     263
     Sum         955     955    283                19195    19195    3143
 
     Using Slab Decomposition
 


     bravais-lattice index     =            2
     lattice parameter (alat)  =       9.7660  a.u.
     unit-cell volume          =     232.8564 (a.u.)^3
     number of atoms/cell      =            2
     number of atomic types    =            2
     number of electrons       =        10.00
     number of Kohn-Sham states=           10
     kinetic-energy cutoff     =      72.0000  Ry
     charge density cutoff     =     288.0000  Ry
     scf convergence threshold =      1.0E-10
     mixing beta               =       0.7000
     number of iterations used =            8  plain     mixing
     Exchange-correlation= PBE
                           (   1   4   3   4   0   0   0)

     celldm(1)=   9.765986  celldm(2)=   0.000000  celldm(3)=   0.000000
     celldm(4)=   0.000000  celldm(5)=   0.000000  celldm(6)=   0.000000

     crystal axes: (cart. coord. in units of alat)
               a(1) = (  -0.500000   0.000000   0.500000 )  
               a(2) = (   0.000000   0.500000   0.500000 )  
               a(3) = (  -0.500000   0.500000   0.000000 )  

     reciprocal axes: (cart. coord. in units 2 pi/alat)
               b(1) = ( -1.000000 -1.000000  1.000000 )  
               b(2) = (  1.000000  1.000000  1.000000 )  
               b(3) = ( -1.000000  1.000000 -1.000000 )  


     PseudoPot. # 1 for Be read from file:
     /usr/scratch4/magr4985/MG/HTDF/pseudo/SG15/Be.upf
     MD5 check sum: dc1f98d164da9dc61a6fd2fad64b4ce2
     Pseudo is Norm-conserving, Zval =  4.0
     Generated using ONCVPSP code by D. R. Hamann
     Using radial grid of  602 points,  4 beta functions with: 
                l(1) =   0
                l(2) =   0
                l(3) =   1
                l(4) =   1

     PseudoPot. # 2 for Se read from file:
     /usr/scratch4/magr4985/MG/HTDF/pseudo/SG15/Se.upf
     MD5 check sum: e78e48a4f5d8ce1f8dc76ec1271f249c
     Pseudo is Norm-conserving, Zval =  6.0
     Generated using ONCVPSP code by D. R. Hamann
     Using radial grid of  602 points,  6 beta functions with: 
                l(1) =   0
                l(2) =   0
                l(3) =   1
                l(4) =   1
                l(5) =   2
                l(6) =   2

     atomic species   valence    mass     pseudopotential
        Be             4.00     9.01220     Be( 1.00)
        Se             6.00    78.96000     Se( 1.00)

     24 Sym. Ops. (no inversion) found



   Cartesian axes

     site n.     atom                  positions (alat units)
         1           Be  tau(   1) = (   0.0000000   0.0000000   0.0000000  )
         2           Se  tau(   2) = (  -0.2500000   0.2500000   0.2500001  )

     number of k points=    72  Gaussian smearing, width (Ry)=  0.0005
                       cart. coord. in units 2pi/alat
        k(    1) = (   0.0000000   0.0000000   0.0000000), wk =   0.0011574
        k(    2) = (  -0.0833333   0.0833333  -0.0833333), wk =   0.0092593
        k(    3) = (  -0.1666667   0.1666667  -0.1666667), wk =   0.0092593
        k(    4) = (  -0.2500000   0.2500000  -0.2500000), wk =   0.0092593
        k(    5) = (  -0.3333333   0.3333333  -0.3333333), wk =   0.0092593
        k(    6) = (  -0.4166667   0.4166667  -0.4166667), wk =   0.0092593
        k(    7) = (   0.5000000  -0.5000000   0.5000000), wk =   0.0046296
        k(    8) = (   0.0000000   0.1666667   0.0000000), wk =   0.0069444
        k(    9) = (  -0.0833333   0.2500000  -0.0833333), wk =   0.0277778
        k(   10) = (  -0.1666667   0.3333333  -0.1666667), wk =   0.0277778
        k(   11) = (  -0.2500000   0.4166667  -0.2500000), wk =   0.0277778
        k(   12) = (  -0.3333333   0.5000000  -0.3333333), wk =   0.0277778
        k(   13) = (   0.5833333  -0.4166667   0.5833333), wk =   0.0277778
        k(   14) = (   0.5000000  -0.3333333   0.5000000), wk =   0.0277778
        k(   15) = (   0.4166667  -0.2500000   0.4166667), wk =   0.0277778
        k(   16) = (   0.3333333  -0.1666667   0.3333333), wk =   0.0277778
        k(   17) = (   0.2500000  -0.0833333   0.2500000), wk =   0.0277778
        k(   18) = (   0.1666667  -0.0000000   0.1666667), wk =   0.0138889
        k(   19) = (   0.0000000   0.3333333   0.0000000), wk =   0.0069444
        k(   20) = (  -0.0833333   0.4166667  -0.0833333), wk =   0.0277778
        k(   21) = (  -0.1666667   0.5000000  -0.1666667), wk =   0.0277778
        k(   22) = (  -0.2500000   0.5833333  -0.2500000), wk =   0.0277778
        k(   23) = (   0.6666667  -0.3333333   0.6666667), wk =   0.0277778
        k(   24) = (   0.5833333  -0.2500000   0.5833333), wk =   0.0277778
        k(   25) = (   0.5000000  -0.1666667   0.5000000), wk =   0.0277778
        k(   26) = (   0.4166667  -0.0833333   0.4166667), wk =   0.0277778
        k(   27) = (   0.3333333   0.0000000   0.3333333), wk =   0.0138889
        k(   28) = (   0.0000000   0.5000000   0.0000000), wk =   0.0069444
        k(   29) = (  -0.0833333   0.5833333  -0.0833333), wk =   0.0277778
        k(   30) = (  -0.1666667   0.6666667  -0.1666667), wk =   0.0277778
        k(   31) = (   0.7500000  -0.2500000   0.7500000), wk =   0.0277778
        k(   32) = (   0.6666667  -0.1666667   0.6666667), wk =   0.0277778
        k(   33) = (   0.5833333  -0.0833333   0.5833333), wk =   0.0277778
        k(   34) = (   0.5000000   0.0000000   0.5000000), wk =   0.0138889
        k(   35) = (   0.0000000   0.6666667   0.0000000), wk =   0.0069444
        k(   36) = (  -0.0833333   0.7500000  -0.0833333), wk =   0.0277778
        k(   37) = (   0.8333333  -0.1666667   0.8333333), wk =   0.0277778
        k(   38) = (   0.7500000  -0.0833333   0.7500000), wk =   0.0277778
        k(   39) = (   0.6666667  -0.0000000   0.6666667), wk =   0.0138889
        k(   40) = (   0.0000000   0.8333333   0.0000000), wk =   0.0069444
        k(   41) = (   0.9166667  -0.0833333   0.9166667), wk =   0.0277778
        k(   42) = (   0.8333333   0.0000000   0.8333333), wk =   0.0138889
        k(   43) = (   0.0000000  -1.0000000   0.0000000), wk =   0.0034722
        k(   44) = (  -0.1666667   0.3333333   0.0000000), wk =   0.0277778
        k(   45) = (  -0.2500000   0.4166667  -0.0833333), wk =   0.0555556
        k(   46) = (  -0.3333333   0.5000000  -0.1666667), wk =   0.0555556
        k(   47) = (   0.5833333  -0.4166667   0.7500000), wk =   0.0555556
        k(   48) = (   0.5000000  -0.3333333   0.6666667), wk =   0.0277778
        k(   49) = (  -0.1666667   0.5000000   0.0000000), wk =   0.0277778
        k(   50) = (  -0.2500000   0.5833333  -0.0833333), wk =   0.0555556
        k(   51) = (   0.6666667  -0.3333333   0.8333333), wk =   0.0555556
        k(   52) = (   0.5833333  -0.2500000   0.7500000), wk =   0.0555556
        k(   53) = (   0.5000000  -0.1666667   0.6666667), wk =   0.0555556
        k(   54) = (   0.4166667  -0.0833333   0.5833333), wk =   0.0555556
        k(   55) = (   0.3333333   0.0000000   0.5000000), wk =   0.0277778
        k(   56) = (  -0.1666667   0.6666667  -0.0000000), wk =   0.0277778
        k(   57) = (   0.7500000  -0.2500000   0.9166667), wk =   0.0555556
        k(   58) = (   0.6666667  -0.1666667   0.8333333), wk =   0.0555556
        k(   59) = (   0.5833333  -0.0833333   0.7500000), wk =   0.0555556
        k(   60) = (   0.5000000   0.0000000   0.6666667), wk =   0.0277778
        k(   61) = (   0.8333333  -0.1666667   1.0000000), wk =   0.0277778
        k(   62) = (   0.7500000  -0.0833333   0.9166667), wk =   0.0555556
        k(   63) = (   0.6666667   0.0000000   0.8333333), wk =   0.0277778
        k(   64) = (  -0.1666667  -1.0000000  -0.0000000), wk =   0.0138889
        k(   65) = (   0.6666667  -0.3333333   1.0000000), wk =   0.0277778
        k(   66) = (   0.5833333  -0.2500000   0.9166667), wk =   0.0555556
        k(   67) = (   0.5000000  -0.1666667   0.8333333), wk =   0.0277778
        k(   68) = (   0.6666667  -0.1666667   1.0000000), wk =   0.0277778
        k(   69) = (   0.5833333  -0.0833333   0.9166667), wk =   0.0555556
        k(   70) = (   0.5000000   0.0000000   0.8333333), wk =   0.0277778
        k(   71) = (  -0.3333333  -1.0000000   0.0000000), wk =   0.0138889
        k(   72) = (  -0.5000000  -1.0000000   0.0000000), wk =   0.0069444

     Dense  grid:    19195 G-vectors     FFT dimensions: (  40,  40,  40)

     Estimated max dynamical RAM per process >       4.13 MB

     Estimated total dynamical RAM >      94.51 MB

     Initial potential from superposition of free atoms

     starting charge       9.9572, renormalised to      10.0000
     Starting wfcs are random

     total cpu time spent up to now is        0.2 secs

     Self-consistent Calculation

     iteration #  1     ecut=    72.00 Ry     beta= 0.70
     Davidson diagonalization with overlap
     ethr =  1.00E-02,  avg # of iterations =  7.8

     Threshold (ethr) on eigenvalues was too large:
     Diagonalizing with lowered threshold

     Davidson diagonalization with overlap
     ethr =  3.02E-04,  avg # of iterations =  2.0

     total cpu time spent up to now is        0.9 secs

     total energy              =     -45.63345992 Ry
     estimated scf accuracy    <       0.03050222 Ry

     iteration #  2     ecut=    72.00 Ry     beta= 0.70
     Davidson diagonalization with overlap
     ethr =  3.05E-04,  avg # of iterations =  1.1

     total cpu time spent up to now is        1.0 secs

     total energy              =     -45.63501790 Ry
     estimated scf accuracy    <       0.00127991 Ry

     iteration #  3     ecut=    72.00 Ry     beta= 0.70
     Davidson diagonalization with overlap
     ethr =  1.28E-05,  avg # of iterations =  4.2

     total cpu time spent up to now is        1.3 secs

     total energy              =     -45.63511968 Ry
     estimated scf accuracy    <       0.00007099 Ry

     iteration #  4     ecut=    72.00 Ry     beta= 0.70
     Davidson diagonalization with overlap
     ethr =  7.10E-07,  avg # of iterations =  2.5

     total cpu time spent up to now is        1.5 secs

     total energy              =     -45.63513335 Ry
     estimated scf accuracy    <       0.00000386 Ry

     iteration #  5     ecut=    72.00 Ry     beta= 0.70
     Davidson diagonalization with overlap
     ethr =  3.86E-08,  avg # of iterations =  1.8

     total cpu time spent up to now is        1.7 secs

     total energy              =     -45.63513394 Ry
     estimated scf accuracy    <       0.00000004 Ry

     iteration #  6     ecut=    72.00 Ry     beta= 0.70
     Davidson diagonalization with overlap
     ethr =  4.14E-10,  avg # of iterations =  2.0

     total cpu time spent up to now is        1.9 secs

     total energy              =     -45.63513395 Ry
     estimated scf accuracy    <          1.0E-09 Ry

     iteration #  7     ecut=    72.00 Ry     beta= 0.70
     Davidson diagonalization with overlap
     ethr =  1.01E-11,  avg # of iterations =  2.0

     total cpu time spent up to now is        2.1 secs

     End of self-consistent calculation

          k = 0.0000 0.0000 0.0000 (  2421 PWs)   bands (ev):

   -94.4729  -8.3377   5.3827   5.3827   5.3827   9.6313  10.3890  10.3890
    10.3890  17.3800

          k =-0.0833 0.0833-0.0833 (  2409 PWs)   bands (ev):

   -94.4729  -8.2704   4.7177   5.2845   5.2845   9.8490  10.5545  10.5545
    10.8499  17.3542

          k =-0.1667 0.1667-0.1667 (  2397 PWs)   bands (ev):

   -94.4729  -8.0761   3.3913   5.0452   5.0452   9.8804  10.9363  10.9363
    12.1761  16.7217

          k =-0.2500 0.2500-0.2500 (  2418 PWs)   bands (ev):

   -94.4729  -7.7815   2.0233   4.7685   4.7685   9.8128  11.2758  11.2758
    13.6278  16.6646

          k =-0.3333 0.3333-0.3333 (  2424 PWs)   bands (ev):

   -94.4729  -7.4413   0.8567   4.5320   4.5320   9.7366  11.3983  11.3983
    14.7630  17.3389

          k =-0.4167 0.4167-0.4167 (  2413 PWs)   bands (ev):

   -94.4729  -7.1513   0.0533   4.3776   4.3776   9.6818  11.3749  11.3749
    15.2661  18.1189

          k = 0.5000-0.5000 0.5000 (  2392 PWs)   bands (ev):

   -94.4729  -7.0333  -0.2382   4.3244   4.3244   9.6621  11.3487  11.3487
    15.3560  18.8179

          k = 0.0000 0.1667 0.0000 (  2389 PWs)   bands (ev):

   -94.4729  -8.2479   4.8147   5.0867   5.0867   9.9304  10.5498  10.8396
    10.8396  16.4145

          k =-0.0833 0.2500-0.0833 (  2403 PWs)   bands (ev):

   -94.4729  -8.0959   3.7721   4.7877   4.9582   9.9943  10.7143  11.3248
    11.8354  15.6947

          k =-0.1667 0.3333-0.1667 (  2412 PWs)   bands (ev):

   -94.4729  -7.8338   2.4539   4.4954   4.7231  10.0687  10.9445  11.7515
    12.9430  15.7342

          k =-0.2500 0.4167-0.2500 (  2408 PWs)   bands (ev):

   -94.4729  -7.5058   1.2453   4.2783   4.4266  10.0531  11.1585  11.9085
    13.8145  16.6288

          k =-0.3333 0.5000-0.3333 (  2412 PWs)   bands (ev):

   -94.4729  -7.1921   0.3306   4.1562   4.1696  10.0164  11.2116  11.8284
    14.7298  17.3710

          k = 0.5833-0.4167 0.5833 (  2406 PWs)   bands (ev):

   -94.4729  -7.0089  -0.1320   3.9641   4.1801  10.0048  11.2410  11.6792
    15.3846  17.8602

          k = 0.5000-0.3333 0.5000 (  2408 PWs)   bands (ev):

   -94.4729  -7.0485  -0.0354   3.8791   4.3051  10.0302  11.3453  11.5611
    15.3937  17.9800

          k = 0.4167-0.2500 0.4167 (  2407 PWs)   bands (ev):

   -94.4729  -7.2893   0.5948   3.9163   4.5268  10.0855  11.4621  11.5073
    14.7499  16.8348

          k = 0.3333-0.1667 0.3333 (  2414 PWs)   bands (ev):

   -94.4729  -7.6194   1.6213   4.0803   4.8104  10.1520  11.2746  11.5719
    13.7532  16.0014

          k = 0.2500-0.0833 0.2500 (  2413 PWs)   bands (ev):

   -94.4729  -7.9321   2.8669   4.3686   5.0948  10.1886  10.9341  11.3028
    12.7058  15.8946

          k = 0.1667-0.0000 0.1667 (  2401 PWs)   bands (ev):

   -94.4729  -8.1606   4.0541   4.7980   5.2848  10.0758  10.6107  10.8488
    11.6194  16.4280

          k = 0.0000 0.3333 0.0000 (  2405 PWs)   bands (ev):

   -94.4729  -7.9888   3.6704   4.4421   4.4421   9.6510  11.4040  11.9395
    11.9395  14.9607

          k =-0.0833 0.4167-0.0833 (  2411 PWs)   bands (ev):

   -94.4729  -7.7689   2.7309   4.1217   4.1951   9.6283  11.4808  12.4904
    12.5257  15.2623

          k =-0.1667 0.5000-0.1667 (  2398 PWs)   bands (ev):

   -94.4729  -7.4709   1.6415   3.8762   3.8947   9.8041  11.7531  12.5314
    12.8255  16.5769

          k =-0.2500 0.5833-0.2500 (  2401 PWs)   bands (ev):

   -94.4729  -7.1606   0.7253   3.5081   3.7940   9.9121  11.9527  12.7870
    13.0807  17.7971

          k = 0.6667-0.3333 0.6667 (  2390 PWs)   bands (ev):

   -94.4729  -6.9387   0.1638   3.1904   3.8297  10.0093  11.8826  12.5771
    14.3208  17.5057

          k = 0.5833-0.2500 0.5833 (  2400 PWs)   bands (ev):

   -94.4729  -6.9055   0.0871   2.9863   3.9953  10.1800  11.8434  12.3374
    15.4050  16.8243

          k = 0.5000-0.1667 0.5000 (  2407 PWs)   bands (ev):

   -94.4729  -7.0783   0.5088   2.9382   4.2676  10.4139  11.8858  12.0872
    14.6966  16.5933

          k = 0.4167-0.0833 0.4167 (  2402 PWs)   bands (ev):

   -94.4729  -7.3733   1.2926   3.0948   4.6005  10.6169  11.7428  11.9498
    13.5559  15.6848

          k = 0.3333 0.0000 0.3333 (  2411 PWs)   bands (ev):

   -94.4729  -7.6835   2.1733   3.5577   4.9146  10.6090  11.2846  11.6810
    12.9821  15.4864

          k = 0.0000 0.5000 0.0000 (  2413 PWs)   bands (ev):

   -94.4729  -7.5954   2.4713   3.7708   3.7708   9.1517  11.1453  13.3447
    13.3447  15.4134

          k =-0.0833 0.5833-0.0833 (  2407 PWs)   bands (ev):

   -94.4729  -7.3413   1.7603   3.4260   3.5172   9.1160  10.9361  13.6541
    13.9101  16.6121

          k =-0.1667 0.6667-0.1667 (  2395 PWs)   bands (ev):

   -94.4729  -7.0600   1.0424   2.9477   3.3975   9.2971  11.3686  13.5538
    14.0396  18.1447

          k = 0.7500-0.2500 0.7500 (  2405 PWs)   bands (ev):

   -94.4729  -6.8342   0.5447   2.4618   3.4248   9.4638  12.4789  13.4131
    13.8475  17.9467

          k = 0.6667-0.1667 0.6667 (  2397 PWs)   bands (ev):

   -94.4729  -6.7537   0.3994   2.1057   3.5947   9.6958  13.2233  13.5125
    14.0709  16.4830

          k = 0.5833-0.0833 0.5833 (  2393 PWs)   bands (ev):

   -94.4729  -6.8562   0.6139   1.9923   3.8853  10.0386  13.0687  13.1496
    14.7196  15.9865

          k = 0.5000 0.0000 0.5000 (  2395 PWs)   bands (ev):

   -94.4729  -7.0929   0.9809   2.2977   4.2492  10.4338  12.4459  12.8561
    13.6254  15.8583

          k = 0.0000 0.6667 0.0000 (  2397 PWs)   bands (ev):

   -94.4729  -7.1396   1.4161   3.2307   3.2307   8.6253  10.2994  14.8573
    14.8573  17.0406

          k =-0.0833 0.7500-0.0833 (  2405 PWs)   bands (ev):

   -94.4729  -6.9101   0.9638   2.8521   3.0783   8.6269  10.2356  15.1693
    15.3304  18.2572

          k = 0.8333-0.1667 0.8333 (  2398 PWs)   bands (ev):

   -94.4729  -6.7181   0.6891   2.2306   3.0776   8.8829  10.8992  15.0730
    15.2644  18.4142

          k = 0.7500-0.0833 0.7500 (  2389 PWs)   bands (ev):

   -94.4729  -6.6324   0.7058   1.6071   3.2281   9.1789  12.2201  14.8331
    14.8995  16.7700

          k = 0.6667-0.0000 0.6667 (  2381 PWs)   bands (ev):

   -94.4729  -6.6868   0.8283   1.3697   3.5115   9.5648  13.8475  14.0842
    14.5974  15.2557

          k = 0.0000 0.8333 0.0000 (  2394 PWs)   bands (ev):

   -94.4729  -6.7483   0.6593   2.8883   2.8883   8.1945   9.7612  16.2736
    16.2736  18.6930

          k = 0.9167-0.0833 0.9167 (  2407 PWs)   bands (ev):

   -94.4729  -6.6244   0.4913   2.5528   2.8502   8.3181   9.8979  16.4701
    16.4845  19.0737

          k = 0.8333 0.0000 0.8333 (  2402 PWs)   bands (ev):

   -94.4729  -6.5817   0.5767   1.9548   2.9679   8.7263  10.7480  15.9427
    16.0954  17.6431

          k = 0.0000-1.0000 0.0000 (  2402 PWs)   bands (ev):

   -94.4729  -6.5880   0.3762   2.7715   2.7715   8.0255   9.5933  16.9893
    16.9893  19.8497

          k =-0.1667 0.3333 0.0000 (  2403 PWs)   bands (ev):

   -94.4729  -7.9095   3.0397   4.1663   4.8381  10.0745  11.0263  11.8224
    12.4257  15.3556

          k =-0.2500 0.4167-0.0833 (  2409 PWs)   bands (ev):

   -94.4729  -7.6282   1.9905   3.7106   4.6071  10.3044  11.2246  12.2605
    12.8182  15.8278

          k =-0.3333 0.5000-0.1667 (  2408 PWs)   bands (ev):

   -94.4729  -7.3062   0.9747   3.4628   4.3096  10.4168  11.2720  12.3858
    13.5399  16.7413

          k = 0.5833-0.4167 0.7500 (  2403 PWs)   bands (ev):

   -94.4729  -7.0344   0.2486   3.3525   4.0644  10.4461  11.1481  12.4033
    14.6294  17.3148

          k = 0.5000-0.3333 0.6667 (  2398 PWs)   bands (ev):

   -94.4729  -6.9248  -0.0173   3.3265   3.9672  10.4552  11.0770  12.3931
    15.4120  16.9304

          k =-0.1667 0.5000 0.0000 (  2402 PWs)   bands (ev):

   -94.4729  -7.5305   2.0843   3.5063   4.0495   9.6329  11.4867  12.5556
    13.2662  16.0053

          k =-0.2500 0.5833-0.0833 (  2403 PWs)   bands (ev):

   -94.4729  -7.2380   1.3001   3.0668   3.7908   9.9000  11.8017  12.3291
    13.7618  17.1003

          k = 0.6667-0.3333 0.8333 (  2412 PWs)   bands (ev):

   -94.4729  -6.9660   0.6301   2.7724   3.5724  10.0928  12.0341  12.7593
    13.8909  17.6824

          k = 0.5833-0.2500 0.7500 (  2400 PWs)   bands (ev):

   -94.4729  -6.8129   0.2856   2.5499   3.5428  10.2740  11.7752  13.6276
    14.3433  16.4354

          k = 0.5000-0.1667 0.6667 (  2403 PWs)   bands (ev):

   -94.4729  -6.8504   0.3736   2.4328   3.7096  10.5395  11.5642  13.5090
    14.7670  16.0843

          k = 0.4167-0.0833 0.5833 (  2404 PWs)   bands (ev):

   -94.4729  -7.0594   0.8400   2.5111   4.0099  10.8559  11.3690  13.0418
    13.7819  16.6645

          k = 0.3333 0.0000 0.5000 (  2403 PWs)   bands (ev):

   -94.4729  -7.3494   1.4569   2.9182   4.3527  10.7969  11.2878  12.5927
    13.0780  16.0402

          k =-0.1667 0.6667-0.0000 (  2409 PWs)   bands (ev):

   -94.4729  -7.0961   1.2747   2.9755   3.2978   9.1369  10.7459  13.7657
    14.8358  17.5520

          k = 0.7500-0.2500 0.9167 (  2396 PWs)   bands (ev):

   -94.4729  -6.8551   0.8510   2.4853   3.0928   9.4448  11.1997  13.5350
    15.2571  18.2155

          k = 0.6667-0.1667 0.8333 (  2395 PWs)   bands (ev):

   -94.4729  -6.6972   0.6379   1.9773   3.0989   9.7175  12.3516  13.2660
    15.1263  16.8827

          k = 0.5833-0.0833 0.7500 (  2390 PWs)   bands (ev):

   -94.4729  -6.6867   0.6845   1.6535   3.2952  10.0362  12.8424  13.9939
    14.4830  15.6862

          k = 0.5000 0.0000 0.6667 (  2386 PWs)   bands (ev):

   -94.4729  -6.8271   0.7950   1.8056   3.6262  10.4517  12.2872  13.4833
    14.6997  15.9401

          k = 0.8333-0.1667 1.0000 (  2399 PWs)   bands (ev):

   -94.4729  -6.7284   0.6961   2.6430   2.7808   8.7339  10.2307  15.1546
    16.2145  18.9009

          k = 0.7500-0.0833 0.9167 (  2396 PWs)   bands (ev):

   -94.4729  -6.6090   0.6477   2.0621   2.7566   9.1614  10.8937  14.8565
    15.9935  17.9707

          k = 0.6667 0.0000 0.8333 (  2393 PWs)   bands (ev):

   -94.4729  -6.5943   0.8311   1.4756   2.9543   9.5755  12.2409  14.2618
    14.9829  16.9106

          k =-0.1667-1.0000-0.0000 (  2406 PWs)   bands (ev):

   -94.4729  -6.5797   0.4780   2.5377   2.5919   8.5774  10.0689  16.2022
    16.4787  19.1881

          k = 0.6667-0.3333 1.0000 (  2409 PWs)   bands (ev):

   -94.4729  -6.9794   0.9871   2.4053   3.4706  10.4682  11.8318  12.1053
    14.7718  17.3526

          k = 0.5833-0.2500 0.9167 (  2408 PWs)   bands (ev):

   -94.4729  -6.7690   0.7123   2.0427   3.1548  10.9211  11.6104  12.8182
    15.1675  16.4167

          k = 0.5000-0.1667 0.8333 (  2396 PWs)   bands (ev):

   -94.4729  -6.6866   0.5925   1.9434   3.0258  11.0778  11.4418  14.0448
    14.3869  15.8483

          k = 0.6667-0.1667 1.0000 (  2399 PWs)   bands (ev):

   -94.4729  -6.6799   0.7875   2.0953   2.6575  10.1190  11.4446  13.1978
    15.7569  17.4814

          k = 0.5833-0.0833 0.9167 (  2400 PWs)   bands (ev):

   -94.4729  -6.5933   0.8750   1.6728   2.5250  10.6731  12.3603  12.9274
    14.4516  17.4325

          k = 0.5000 0.0000 0.8333 (  2402 PWs)   bands (ev):

   -94.4729  -6.6280   0.9082   1.5516   2.7443  11.0745  12.0906  13.2182
    14.1841  16.8891

          k =-0.3333-1.0000 0.0000 (  2402 PWs)   bands (ev):

   -94.4729  -6.5630   0.7617   2.0187   2.2832   9.9828  11.3101  14.2392
    14.9544  18.7167

          k =-0.5000-1.0000 0.0000 (  2400 PWs)   bands (ev):

   -94.4729  -6.5545   1.0295   1.6446   2.1471  11.5131  12.4587  12.7581
    13.3382  18.6261

     the Fermi energy is     5.6062 ev

!    total energy              =     -45.63513395 Ry
     estimated scf accuracy    <          1.4E-11 Ry
     smearing contrib. (-TS)   =      -0.00000000 Ry
     internal energy E=F+TS    =     -45.63513395 Ry

     The total energy is F=E-TS. E is the sum of the following terms:
     one-electron contribution =     -14.88585021 Ry
     hartree contribution      =       5.94784654 Ry
     xc contribution           =      -8.34302847 Ry
     ewald contribution        =     -28.35410181 Ry

     convergence has been achieved in   7 iterations

     Writing all to output data dir out/mp-1541.save/
 
     init_run     :      0.09s CPU      0.11s WALL (       1 calls)
     electrons    :      1.74s CPU      2.00s WALL (       1 calls)

     Called by init_run:
     wfcinit      :      0.06s CPU      0.07s WALL (       1 calls)
     potinit      :      0.01s CPU      0.01s WALL (       1 calls)
     hinit0       :      0.01s CPU      0.01s WALL (       1 calls)

     Called by electrons:
     c_bands      :      1.47s CPU      1.67s WALL (       8 calls)
     sum_band     :      0.24s CPU      0.28s WALL (       8 calls)
     v_of_rho     :      0.02s CPU      0.02s WALL (       8 calls)
     mix_rho      :      0.00s CPU      0.01s WALL (       8 calls)

     Called by c_bands:
     init_us_2    :      0.04s CPU      0.04s WALL (     612 calls)
     init_us_2:cp :      0.03s CPU      0.04s WALL (     612 calls)
     cegterg      :      1.29s CPU      1.38s WALL (     288 calls)

     Called by *egterg:
     cdiaghg      :      0.14s CPU      0.14s WALL (    1100 calls)
     h_psi        :      1.10s CPU      1.18s WALL (    1172 calls)
     g_psi        :      0.01s CPU      0.01s WALL (     848 calls)

     Called by h_psi:
     h_psi:calbec :      0.04s CPU      0.04s WALL (    1172 calls)
     vloc_psi     :      1.03s CPU      1.10s WALL (    1172 calls)
     add_vuspsi   :      0.02s CPU      0.02s WALL (    1172 calls)

     General routines
     calbec       :      0.03s CPU      0.04s WALL (    1172 calls)
     fft          :      0.01s CPU      0.01s WALL (      80 calls)
     ffts         :      0.00s CPU      0.00s WALL (       8 calls)
     fftw         :      1.10s CPU      1.18s WALL (   19662 calls)
     davcio       :      0.03s CPU      0.13s WALL (     988 calls)
 
     Parallel routines
 
     PWSCF        :      1.88s CPU      2.31s WALL

 
   This run was terminated on:  15: 6:10   4Dec2023            

=------------------------------------------------------------------------------=
   JOB DONE.
=------------------------------------------------------------------------------=
