
     Program PWSCF v.7.1 starts on  4Dec2023 at 14: 0: 5 

     This program is part of the open-source Quantum ESPRESSO suite
     for quantum simulation of materials; please cite
         "P. Giannozzi et al., J. Phys.:Condens. Matter 21 395502 (2009);
         "P. Giannozzi et al., J. Phys.:Condens. Matter 29 465901 (2017);
         "P. Giannozzi et al., J. Chem. Phys. 152 154105 (2020);
          URL http://www.quantum-espresso.org", 
     in publications or presentations arising from this work. More details at
     http://www.quantum-espresso.org/quote

     Parallel version (MPI), running on     8 processors

     MPI processes distributed on     1 nodes
     121672 MiB available memory on the printing compute node when the environment starts
 
     Reading input from pw_mp-1541_nscf_k10_E72.in
Warning: card &IONS ignored
Warning: card / ignored
Warning: card &CELL ignored
Warning: card / ignored

     Current dimensions of program PWSCF are:
     Max number of different atomic species (ntypx) = 10
     Max number of k-points (npk) =  40000
     Max angular momentum in pseudopotentials (lmaxx) =  4

     Atomic positions and unit cell read from directory:
     out/mp-1541.save/
     Atomic positions from file used, from input discarded
 
 
     R & G space division:  proc/nbgrp/npool/nimage =       8
     Subspace diagonalization in iterative solution of the eigenvalue problem:
     one sub-group per band group will be used
     scalapack distributed-memory algorithm (size of sub-group:  2*  2 procs)

 
     Parallelization info
     --------------------
     sticks:   dense  smooth     PW     G-vecs:    dense   smooth      PW
     Min         119     119     33                 2398     2398     371
     Max         120     120     35                 2400     2400     372
     Sum         955     955    271                19195    19195    2975
 
     Using Slab Decomposition
 


     bravais-lattice index     =            2
     lattice parameter (alat)  =       9.7660  a.u.
     unit-cell volume          =     232.8564 (a.u.)^3
     number of atoms/cell      =            2
     number of atomic types    =            2
     number of electrons       =        10.00
     number of Kohn-Sham states=         1200
     kinetic-energy cutoff     =      72.0000  Ry
     charge density cutoff     =     288.0000  Ry
     Exchange-correlation= PBE
                           (   1   4   3   4   0   0   0)

     celldm(1)=   9.765986  celldm(2)=   0.000000  celldm(3)=   0.000000
     celldm(4)=   0.000000  celldm(5)=   0.000000  celldm(6)=   0.000000

     crystal axes: (cart. coord. in units of alat)
               a(1) = (  -0.500000   0.000000   0.500000 )  
               a(2) = (   0.000000   0.500000   0.500000 )  
               a(3) = (  -0.500000   0.500000   0.000000 )  

     reciprocal axes: (cart. coord. in units 2 pi/alat)
               b(1) = ( -1.000000 -1.000000  1.000000 )  
               b(2) = (  1.000000  1.000000  1.000000 )  
               b(3) = ( -1.000000  1.000000 -1.000000 )  


     PseudoPot. # 1 for Be read from file:
     /usr/scratch4/magr4985/MG/HTDF/pseudo/SG15/Be.upf
     MD5 check sum: dc1f98d164da9dc61a6fd2fad64b4ce2
     Pseudo is Norm-conserving, Zval =  4.0
     Generated using ONCVPSP code by D. R. Hamann
     Using radial grid of  602 points,  4 beta functions with: 
                l(1) =   0
                l(2) =   0
                l(3) =   1
                l(4) =   1

     PseudoPot. # 2 for Se read from file:
     /usr/scratch4/magr4985/MG/HTDF/pseudo/SG15/Se.upf
     MD5 check sum: e78e48a4f5d8ce1f8dc76ec1271f249c
     Pseudo is Norm-conserving, Zval =  6.0
     Generated using ONCVPSP code by D. R. Hamann
     Using radial grid of  602 points,  6 beta functions with: 
                l(1) =   0
                l(2) =   0
                l(3) =   1
                l(4) =   1
                l(5) =   2
                l(6) =   2

     atomic species   valence    mass     pseudopotential
        Be             4.00     9.01220     Be( 1.00)
        Se             6.00    78.96000     Se( 1.00)

     24 Sym. Ops. (no inversion) found



   Cartesian axes

     site n.     atom                  positions (alat units)
         1           Be  tau(   1) = (   0.0000000   0.0000000   0.0000000  )
         2           Se  tau(   2) = (  -0.2500000   0.2500000   0.2500001  )

     number of k points=     3  Gaussian smearing, width (Ry)=  0.0005
                       cart. coord. in units 2pi/alat
        k(    1) = (   0.0000000   0.0000000   0.0000000), wk =   0.2500000
        k(    2) = (   0.5000000  -0.5000000   0.5000000), wk =   1.0000000
        k(    3) = (   0.0000000  -1.0000000   0.0000000), wk =   0.7500000

     Dense  grid:    19195 G-vectors     FFT dimensions: (  40,  40,  40)

     Estimated max dynamical RAM per process >      69.71 MB

     Estimated total dynamical RAM >     557.67 MB

     The potential is recalculated from file :
     out/mp-1541.save/charge-density

     Starting wfcs are random

     Band Structure Calculation
     ParO style diagonalization

     ethr =  5.00E-06,  avg # of iterations =  6.0

     total cpu time spent up to now is      231.6 secs

     End of band structure calculation

          k = 0.0000 0.0000 0.0000 (  2421 PWs)   bands (ev):

   -94.4730  -8.3377   5.3827   5.3827   5.3827   9.6313  10.3890  10.3890
    10.3890  17.3799  17.9251  17.9251  19.9228  19.9228  19.9228  24.1256
    33.0887  33.0887  33.0887  37.6570  37.6570  37.6570  39.4043  39.4043
    39.5660  39.5660  39.5660  48.8296  49.6771  49.6771  49.6771  53.3554
    53.3554  53.3554  54.1843  54.1843  54.9882  54.9882  54.9882  56.1931
    57.4656  57.4656  57.4656  58.0338  58.0338  58.4501  58.4501  58.4501
    58.5133  58.5133  58.5133  63.2299  63.8944  63.8944  63.8944  65.2782
    65.2782  65.2782  68.4055  72.8431  83.7239  83.7239  83.7239  84.8136
    84.8136  87.7218  90.1184  90.1184  90.1184  91.3994  91.3994  91.3994
    95.4785  95.4785  95.8953  95.8954  95.8954  98.2629  98.2629  98.2629
   102.0712 102.0712 102.0712 102.0758 102.0758 102.0758 102.2829 102.2829
   102.4698 105.3783 105.3783 105.3783 105.5147 105.5147 107.0224 107.0224
   107.0224 108.3794 108.3794 108.3794 108.7273 108.7273 108.7273 109.9892
   110.0035 110.2829 110.2829 110.2829 111.1772 111.1772 111.1772 111.2978
   111.2978 120.5196 123.6188 123.6188 123.6188 125.3311 125.4927 125.4927
   125.4927 128.1817 128.1817 128.1817 128.3906 128.3906 128.3906 128.4251
   128.4251 128.9085 128.9085 128.9085 129.6957 129.6957 129.6957 130.1663
   130.1663 136.1404 140.0535 141.6305 141.6305 141.6305 141.7916 141.7916
   144.0111 144.0111 144.0111 145.6277 145.9462 145.9462 145.9462 147.1990
   147.1990 147.1990 147.2541 147.2541 147.2541 147.4175 147.4175 147.4175
   147.4296 147.6988 147.6988 148.1801 148.1801 148.1801 148.7854 148.7854
   148.7854 162.2770 165.0132 165.0132 165.0132 165.7398 166.6964 166.6964
   166.6964 166.7389 166.7389 168.5276 168.5276 168.5276 176.0500 176.0500
   176.0500 181.4232 181.4232 181.4232 181.5097 183.1804 183.1804 183.5309
   183.5309 183.5309 183.8217 183.8217 183.8217 186.3107 186.3107 186.3107
   186.5718 186.5718 186.5718 187.0067 187.0067 189.2792 189.6570 189.6570
   189.8070 189.8070 189.8070 189.9853 189.9853 189.9853 191.1521 191.1521
   191.1521 191.4251 192.3563 192.3563 192.3563 192.9446 192.9446 193.2358
   193.2358 193.2358 193.7455 193.7455 193.7455 194.0427 194.2948 194.2948
   194.2948 194.7041 195.1130 195.1130 195.1130 195.9021 195.9021 196.7204
   196.7204 196.7204 197.0714 199.5310 199.5310 199.5310 199.6083 199.6083
   199.8842 199.8842 199.8842 200.0425 200.0425 200.0425 200.3554 200.3554
   200.3554 200.3852 200.3852 211.1161 212.1663 212.1663 212.1663 213.7796
   213.7796 218.1213 218.1213 218.1213 218.4428 218.4428 218.4428 218.5016
   218.5016 218.5016 218.5057 218.5057 218.5057 221.8086 221.8086 221.8372
   221.8372 221.8372 221.9005 222.8669 224.6915 224.6915 224.6915 227.0427
   227.2080 227.2080 227.2080 232.3967 232.3967 232.3967 233.0783 233.0783
   233.2981 233.2981 233.2981 233.4990 233.4990 233.4990 233.7554 233.7554
   233.7554 234.1203 234.1203 237.6450 239.3450 239.3450 239.3450 242.2414
   242.2414 242.2414 242.2592 242.2592 242.6572 242.6572 242.6572 242.8196
   243.0745 243.0745 243.0745 243.0978 243.0978 243.0978 243.6770 243.6770
   243.6770 243.8998 243.8998 260.5071 260.5071 260.5071 260.5946 262.0881
   262.0881 262.0881 262.5424 265.3925 265.3925 265.4866 265.4866 265.4866
   265.7399 265.7399 265.7399 266.5002 266.5002 266.5002 266.5404 271.3680
   271.3680 271.5012 271.5012 271.5012 272.5139 275.1202 275.1202 275.1202
   275.5691 279.8164 279.8164 279.8164 280.0888 280.0888 280.0888 280.0912
   280.0912 280.9195 280.9195 280.9195 281.1548 281.2354 281.2354 281.2354
   281.4410 281.4410 281.4410 281.5395 281.5395 281.5395 281.9360 281.9360
   281.9360 282.8295 282.8295 286.3847 286.3847 286.4374 286.4412 286.4412
   286.4412 286.4851 286.4851 286.4851 286.5479 286.5479 286.5479 289.1354
   289.1697 289.1697 289.1697 289.9210 289.9210 289.9210 289.9488 289.9488
   289.9488 289.9544 289.9544 296.2376 296.2376 296.2376 296.6281 299.6656
   299.6656 299.6656 299.7515 302.9558 302.9558 302.9558 302.9834 302.9834
   302.9834 303.1850 303.1850 303.7328 303.7328 303.7328 303.8067 303.8067
   303.8067 304.4698 304.4698 308.1598 308.1598 308.5913 308.5913 308.5913
   308.8246 308.8246 308.8246 309.0221 309.0221 309.0221 309.6178 309.6178
   309.6178 309.9053 309.9053 310.3819 311.0359 311.0359 311.0359 311.4115
   311.4115 311.4115 311.6950 317.2723 317.2723 317.2723 318.6685 319.7004
   320.4116 320.4116 320.4116 320.9312 320.9312 322.1201 322.1201 322.1201
   322.8130 322.8130 322.8130 322.9693 322.9693 322.9693 323.2883 323.3235
   323.3235 323.3235 323.9614 323.9614 323.9614 325.4000 325.4000 325.4000
   325.8649 325.8649 325.9896 325.9896 325.9896 326.0414 326.1941 326.6025
   326.6025 327.4750 327.4750 327.4750 327.5158 327.5158 327.5158 327.8914
   327.8914 327.9126 327.9126 327.9126 328.2221 328.2221 328.2221 328.3239
   328.3239 328.4273 328.4273 328.4273 328.6422 328.6422 328.6422 328.7474
   328.7474 328.7474 329.0462 329.0462 329.0462 329.3056 329.4899 329.4899
   329.4899 329.5356 329.5356 351.0417 351.0417 351.0417 351.2001 351.2466
   351.2466 360.4060 360.4060 360.4060 362.2037 363.1352 363.2476 363.2476
   363.2476 365.3330 365.3330 365.3586 365.3586 365.3586 365.8808 365.8808
   365.8808 366.1174 366.1174 366.1174 366.2047 366.2047 366.2047 367.2205
   367.2205 370.1858 370.9696 370.9696 370.9696 372.0505 372.0505 372.7478
   372.7478 372.7478 374.1422 374.6263 374.6263 374.6263 375.1072 376.1111
   376.1111 376.1111 376.1294 376.1294 376.1294 376.1399 376.1399 376.1399
   376.6491 376.6491 376.6491 378.9892 378.9892 379.0457 379.0457 379.0457
   379.1986 379.2096 379.2096 379.2096 379.3168 379.3168 379.3306 379.3306
   379.3306 379.3424 379.3424 379.3424 379.3798 379.3798 379.3798 379.5146
   379.5146 388.0060 388.0060 388.0060 388.3196 388.3196 388.3196 388.4132
   388.4132 388.7399 388.7399 388.7399 389.0435 395.8883 395.8883 395.8883
   397.1823 397.6060 397.6060 398.0716 398.0716 398.0716 398.2493 398.2493
   398.2493 398.3690 398.3690 398.3690 398.6626 398.6626 398.6626 399.5047
   399.5399 399.5399 399.5399 399.5587 399.5587 405.6006 405.6006 405.6006
   407.7398 408.1964 408.1964 408.1964 408.4979 408.4979 408.7092 408.7092
   408.7092 411.0794 411.5158 411.5158 411.5158 411.9749 411.9749 411.9749
   412.6176 412.6176 412.6176 412.6466 412.6466 413.3089 413.3089 413.3089
   413.3172 413.3310 413.3310 413.3310 413.3359 413.3359 413.3359 413.3460
   413.3460 413.9973 413.9973 413.9973 414.7210 415.3753 415.7880 415.7880
   415.7880 418.1939 418.1939 418.1939 418.2192 418.2192 418.2192 418.2959
   418.2959 418.2959 418.3450 418.3450 418.3605 422.4769 422.4769 422.4769
   423.3218 423.3218 423.3218 423.3885 423.4551 423.4551 423.7089 423.7089
   423.7089 424.3934 424.3934 424.3984 424.3984 424.3984 424.3999 424.3999
   424.3999 424.4629 424.5142 424.5142 424.5142 441.0457 441.0457 441.0457
   441.4256 441.4292 441.4292 442.5619 442.5619 442.5619 442.6995 442.6995
   442.6995 442.7771 442.7771 442.7771 442.9337 442.9337 442.9337 443.4945
   443.4986 443.4986 443.5010 443.5010 443.5010 447.9129 447.9129 447.9129
   450.0600 450.8386 451.1778 451.1778 451.1778 451.7385 451.7385 451.7385
   451.8342 451.8342 452.2435 453.5665 453.5665 453.5665 453.6362 453.6362
   453.6362 453.6424 453.6424 453.6424 453.9238 453.9238 454.2550 454.2550
   454.2550 454.7748 454.7748 459.5868 459.5868 459.5868 459.6370 459.6370
   459.6370 459.6422 459.6422 459.6422 459.6609 459.6609 459.9045 459.9045
   459.9045 460.0210 460.0210 460.8784 460.8784 460.8784 461.6757 461.7035
   461.7035 461.7035 461.7214 461.7214 461.7214 461.8768 461.8768 461.8768
   462.0702 462.0702 462.0702 462.0743 462.0743 462.0743 462.1233 462.2030
   462.2030 462.2030 462.3326 463.2399 463.2399 464.6893 464.6893 464.6893
   466.0656 466.6201 466.7795 466.7795 466.7795 466.9366 466.9366 466.9366
   467.0265 467.0265 467.0265 467.0359 467.0359 467.1212 467.1212 467.1212
   467.3097 467.3097 467.3097 467.8323 467.8323 468.8489 468.8489 468.9621
   468.9621 468.9621 469.2233 469.3158 469.3158 469.3158 469.4231 469.4231
   469.4231 469.4649 469.4650 469.4650 469.6489 469.6489 469.6489 469.7407
   469.7407 469.9154 469.9154 469.9154 470.0429 483.3274 483.3274 483.3274
   484.4183 484.4686 484.8879 484.8879 484.8879 490.6865 490.6865 490.6865
   490.7097 490.7097 490.7203 490.7203 490.7203 490.7500 490.7500 490.7500
   490.7752 490.7752 490.7752 490.7962 490.7962 499.6060 499.6060 499.6060
   499.6254 499.6750 499.6750 501.6020 501.6020 501.6020 501.6474 501.6474
   501.6474 501.7335 501.7335 501.7335 501.8344 501.8344 501.8344 504.6357
   504.6357 504.6357 505.4705 505.4705 505.4856 505.4856 505.4856 505.5192
   506.3021 507.0449 507.0449 508.2085 508.2085 508.2085 508.2125 508.2125
   508.2125 508.3335 508.3335 508.3335 508.4784 508.4784 508.4784 509.2005
   509.2005 509.2006 509.2006 509.2006 509.2104 527.9859 527.9859 527.9859
   528.3886 529.0193 529.0193 529.0193 529.1486 530.0577 530.0577 530.0577
   530.1450 530.1450 530.1450 530.1703 530.1703 530.3439 530.3439 530.3439
   530.3768 530.3768 530.3768 530.4882 530.4882 535.4617 535.4617 535.4617
   535.5392 535.5392 535.6248 535.6248 535.6248 536.0621 536.0621 536.0621
   536.7717 544.8603 544.8603 544.8603 545.9724 546.2909 546.2909 546.2909
   546.5313 548.5258 548.5258 548.5258 549.0720 549.0720 549.2975 549.2975
   549.2975 549.8648 549.8648 549.8648 549.8796 550.0945 550.0945 550.0945
   550.1889 550.1889 550.4358 550.4358 550.4358 550.4926 550.4926 550.4926
   550.7590 550.7590 550.7590 551.1005 551.1005 551.1005 551.1679 551.1679
   551.2714 551.3718 551.3718 551.3718 551.5833 552.9567 552.9567 552.9567
   553.0000 553.0000 553.0745 553.0745 553.0745 553.1246 553.1246 553.1702
   553.1702 553.1702 553.1918 553.1918 553.1918 554.3434 554.3434 554.3434
   554.4003 554.4767 554.4767 556.0219 556.1520 556.1520 556.1520 556.2747
   556.2747 556.2747 556.3906 556.3906 556.3906 556.4208 556.4208 559.8913
   559.8913 559.8913 560.1378 560.1378 560.1378 560.1405 560.1405 560.2618
   560.2618 560.2618 560.2808 571.6354 571.6354 571.6354 573.2493 573.3055
   573.3055 573.6418 573.6418 573.6418 573.6929 573.6929 573.6929 574.0288
   574.0288 574.0288 574.0325 574.0325 574.4481 574.6198 574.6198 574.6287
   574.6287 574.6287 574.6849 574.6849 574.6849 574.8745 574.9585 574.9585
   574.9585 576.9523 576.9523 576.9523 577.2248 577.2248 577.2248 577.3736
   577.3736 577.3736 577.7086 578.0083 578.0083 578.3542 578.3542 578.3542
   578.8596 578.8596 578.8596 578.9045 578.9045 578.9045 579.1692 579.1692
   579.1692 579.7104 579.7104 579.7171 579.7171 579.7171 579.7904 579.7904
   579.7904 579.8456 579.8456 579.8456 579.9061 581.8270 581.8270 581.8648
   581.8648 581.8648 581.9333 592.4993 592.4993 592.4993 593.3848 593.5222
   593.5222 593.5222 593.5272 593.5272 593.5272 593.6100 593.6100 593.8086
   593.8086 593.8086 593.8530 593.8530 593.8530 593.9327 593.9327 594.0691
   594.0691 594.0691 594.2228 594.5525 594.5525 594.5525 595.8090 595.9366
   596.0050 596.0050 596.0050 596.0712 596.0712 596.0712 596.0752 596.0752
   596.2728 596.2728 596.2728 596.6753 596.6753 596.6753 596.8636 596.8636
   596.9297 596.9297 596.9297 597.8556 597.8556 597.8556 597.8666 597.8666
   597.8666 597.9958 597.9958 597.9958 598.0700 598.0700 598.0700 598.1022

          k = 0.5000-0.5000 0.5000 (  2392 PWs)   bands (ev):

   -94.4729  -7.0333  -0.2382   4.3244   4.3244   9.6621  11.3487  11.3487
    15.3560  18.8179  19.6399  19.6399  20.0465  21.5961  21.5961  28.4431
    32.4117  32.4117  32.5103  33.5048  33.5048  36.8502  36.8502  37.1919
    38.1746  40.5993  40.5993  41.3965  43.8838  43.8838  46.3075  46.3944
    46.3944  47.9409  48.7443  53.5608  53.6828  53.6828  55.6740  55.6740
    57.6620  60.9089  63.2341  63.2341  64.0554  64.0554  66.0736  66.2447
    66.2447  66.8604  67.2111  67.2111  71.7947  72.5937  72.5937  73.5504
    73.5504  74.8502  75.8417  75.8417  77.0404  77.0404  78.2437  78.9714
    79.4973  80.7120  81.7300  81.7300  82.1253  82.1253  84.7720  86.4041
    87.8231  87.8231  88.9873  88.9873  90.1730  91.6651  93.0031  93.0031
    94.8492  94.8492  99.2073 100.0245 100.4015 100.4015 101.7555 102.6333
   102.6333 103.2858 106.5596 106.5596 107.2478 108.1832 108.1832 108.2882
   109.9198 110.3485 110.3485 110.7377 110.7378 111.5838 111.7702 111.8545
   111.8545 111.9882 112.6682 112.6682 119.3228 120.4207 120.8988 120.8988
   121.7583 121.7583 123.2598 123.2598 123.8029 123.8861 123.8861 124.1666
   125.8531 126.3837 126.3837 127.0622 128.1081 128.1081 128.3567 129.4696
   129.4696 130.6724 130.8447 130.8447 131.7167 135.9529 135.9529 136.0525
   136.4608 136.5674 136.5674 137.2929 139.2269 139.2269 139.8244 139.8244
   143.5955 143.5955 143.9021 143.9021 145.0121 145.6347 146.1491 146.1764
   148.2830 149.7596 149.7596 149.7967 149.7967 150.6498 150.6498 150.9460
   152.6249 152.6249 154.7266 155.1820 155.1820 155.5711 155.6517 155.6517
   160.9958 162.4977 164.6760 164.8675 164.8675 165.3108 165.4515 165.4515
   165.7581 165.7581 166.2059 166.5527 167.0471 167.0471 168.2740 168.2740
   169.2358 169.2358 170.3379 171.2291 173.5983 173.5983 174.8966 175.0496
   175.0496 175.4762 177.6677 177.6677 177.8779 178.3260 178.3260 178.4665
   178.4665 178.6770 179.2154 179.2154 179.5581 179.5581 179.6762 180.2979
   180.2979 180.3440 183.1149 184.2022 184.2022 185.1674 185.7788 185.7788
   187.9888 188.5782 189.2100 189.4810 189.4810 189.9179 189.9179 190.1739
   190.1739 190.7489 190.7489 191.1460 196.2740 197.1717 197.1717 198.6950
   198.7870 198.7870 199.2893 200.0531 201.6658 201.6663 201.7921 201.7921
   202.2068 202.2068 202.5861 203.3490 203.3490 204.1042 204.8738 204.8738
   206.9599 206.9599 207.2736 207.7601 207.7601 207.9188 210.2422 211.6449
   211.6449 211.8412 213.0351 213.0351 214.0921 214.2488 214.2488 214.3368
   214.6094 214.6094 216.0878 216.0878 216.1354 216.1354 216.2121 216.3035
   223.2665 224.8751 227.1032 227.1032 228.2382 228.2382 228.9262 228.9262
   229.1263 229.1263 229.5059 229.9647 230.7144 230.7144 231.0673 231.0673
   231.6499 231.9208 234.0403 234.0531 234.6049 234.8268 234.8268 235.1513
   235.1513 235.4783 237.4459 237.8362 237.9503 237.9503 238.8500 238.8500
   240.2086 240.2086 241.4466 241.4466 242.3843 242.5252 242.6456 242.6456
   243.1092 243.1092 244.1900 244.1900 244.5490 245.2442 245.3714 245.3714
   246.0478 246.0478 246.0755 246.0755 246.4068 246.5717 246.7967 246.7967
   246.8715 246.8715 248.0789 248.0886 251.9352 253.0499 255.3092 255.3092
   256.0191 256.4427 256.7019 256.7019 259.2609 259.2609 259.3965 259.3965
   260.7703 260.7703 261.0404 261.0927 261.6909 261.6909 263.1747 263.7886
   263.7886 264.5610 264.5610 265.2170 265.3619 265.3619 265.4706 265.9055
   265.9390 265.9390 267.1080 268.0496 268.0496 268.0590 268.3549 268.3549
   269.9331 269.9331 269.9975 269.9975 270.1840 270.3256 276.9385 276.9385
   277.2345 277.5947 279.4420 279.4420 279.5249 279.5249 279.7187 279.7733
   279.7733 279.7866 279.8893 279.8893 280.0043 280.7982 280.9267 280.9267
   285.9347 285.9347 286.4501 286.8435 287.2155 287.2155 287.9661 288.2799
   288.2799 289.5540 289.5734 289.5734 290.1738 290.3754 291.0568 291.0568
   291.3425 291.5677 291.5677 291.6172 296.1444 296.1444 296.3905 296.3905
   298.7050 299.1040 299.1040 300.3090 300.3090 301.0866 301.7048 301.8371
   301.8371 301.9164 302.3895 302.3895 302.5191 302.8685 303.8839 303.8839
   304.2974 305.6779 305.6779 305.8797 306.0376 306.0376 306.1091 306.1091
   309.8243 309.9835 309.9835 310.3090 310.3196 310.3196 310.9839 311.0901
   311.0901 311.3764 311.3764 311.5214 313.7804 313.7804 314.5863 315.2645
   315.5417 315.5417 317.5452 317.6392 317.6392 317.7065 317.7065 317.8097
   319.6751 320.1530 320.3398 320.3398 321.0133 321.0133 322.6432 322.6432
   322.8832 322.8832 323.5924 324.4142 324.9260 324.9452 325.9065 325.9065
   326.2270 326.2270 330.4452 330.4866 330.4866 330.8504 331.9361 331.9361
   332.2825 332.2825 332.3645 332.3876 332.4961 332.4961 332.8323 334.0929
   334.8524 334.8524 335.1754 335.3220 335.3425 335.3425 338.7854 339.8998
   339.8998 340.6201 340.9335 340.9335 342.3537 342.3537 343.0566 343.5493
   343.5493 343.6876 343.9370 343.9792 343.9793 344.3813 344.9044 344.9044
   346.3594 346.3594 346.3890 346.3966 346.4069 346.4069 348.0293 348.0349
   348.0349 348.1020 348.1151 348.1151 349.0708 349.0708 349.1231 349.1611
   349.1611 349.1718 350.8462 351.3024 351.3137 351.3137 351.3560 351.3560
   352.7636 353.3687 353.3687 353.6196 354.1036 354.1036 356.4849 356.4849
   357.0216 357.0788 357.2845 357.2845 357.5420 357.6985 357.7108 357.7108
   358.3083 358.3083 359.2706 359.2706 359.3774 359.4305 359.4896 359.4896
   365.3270 365.3270 365.6524 365.7225 365.8112 365.8112 368.2010 369.9397
   370.0020 370.0020 370.5765 370.5838 370.5838 370.8524 373.7615 373.7615
   374.0020 374.0020 378.8832 378.8832 378.9092 378.9092 379.4859 379.4859
   379.6631 379.7146 379.7182 379.8855 380.5024 380.5024 380.5283 380.6261
   380.6261 380.6396 380.7730 380.7730 381.6464 381.6464 381.6673 381.6673
   382.9685 382.9740 387.4086 388.0799 388.0799 388.3072 388.3270 388.3270
   388.3794 389.6821 389.6821 389.9149 390.6868 390.8315 390.8315 390.9704
   390.9704 391.6130 391.6130 391.8774 394.1087 394.1087 394.1822 394.1822
   394.2771 394.2840 398.1950 399.1794 399.6096 399.6096 399.8395 399.8876
   399.8876 399.9755 402.1038 402.1038 403.8641 403.8879 404.1078 404.1078
   405.0998 405.0998 405.1154 405.1154 405.3824 405.3824 405.9154 406.2085
   406.7518 406.7518 408.1833 408.2810 408.2810 408.6212 408.7700 408.7700
   410.1271 410.1281 410.1281 410.9765 411.2460 411.2460 411.4056 411.8283
   411.8283 412.2913 412.4157 412.4157 413.6551 413.6551 413.7830 413.8605
   413.8787 413.8787 415.0253 415.0253 415.2445 415.2445 415.5197 415.6335
   416.4288 416.6450 416.6450 416.9048 417.6433 417.6433 418.8104 418.8104
   418.8636 418.9008 418.9276 418.9276 423.1398 423.1398 423.6361 424.1752
   424.1752 424.3230 425.2031 425.3847 425.3847 426.0412 426.0412 426.3503
   426.6182 426.9406 426.9406 427.2743 427.2743 427.3248 431.2317 431.2317
   431.6998 431.8448 431.9010 431.9010 432.3808 432.4294 432.4294 432.5772
   432.6790 432.7177 432.7177 433.0491 433.0491 433.2252 433.3451 433.3451
   437.8490 437.8490 437.8540 437.8540 437.9149 437.9191 438.7171 438.7171
   439.5475 440.0074 440.1910 440.1910 440.3957 440.4032 440.4032 440.4311
   440.5930 440.5930 442.1603 442.9544 444.7054 444.7054 444.8899 444.8899
   446.3475 446.3475 446.3772 446.9636 447.1550 447.1550 447.2585 447.4946
   447.4946 447.7239 447.7728 447.7825 447.8032 447.8032 447.9191 447.9191
   448.2337 448.2337 452.4848 452.4848 452.9561 453.0446 453.1814 453.1814
   454.5666 456.1339 458.8944 458.8944 458.9606 458.9606 459.3656 459.3656
   459.3787 459.4191 459.4191 459.4369 459.4486 459.8260 461.7203 461.7203
   461.7589 461.7589 468.0807 468.0807 468.5561 468.8181 468.8181 468.9893
   469.2316 469.2316 469.7123 469.8470 469.9243 469.9243 469.9928 469.9928
   470.0235 470.0657 470.1007 470.1007 470.1422 470.1422 470.1946 470.3962
   470.3962 470.4410 472.6654 472.6654 472.6991 472.7496 472.7496 472.7623
   474.0338 475.1967 475.1967 476.0478 476.0690 476.0690 479.4103 479.4103
   479.9860 480.3546 480.4217 480.4217 481.1714 481.1780 481.2838 481.2838
   481.3250 481.3250 483.8335 483.8335 483.8547 483.9169 483.9169 483.9266
   485.9765 486.1258 486.1258 486.2783 486.3249 486.3249 487.5206 488.2209
   488.2209 488.8441 488.8555 488.8555 489.1111 489.1111 489.3621 489.3974
   489.4456 489.4731 489.4731 489.5756 489.6585 489.6585 489.6979 489.6979
   493.4639 493.4639 493.5007 493.5007 493.5990 493.6007 500.2302 500.2673
   500.2673 500.3729 500.4767 500.4767 501.0531 502.7106 503.8265 503.8265
   504.2427 504.4054 504.4067 504.4067 504.5877 504.5962 504.5962 504.9486
   504.9896 504.9896 505.4757 505.4757 505.6933 505.6933 506.3528 506.7935
   508.8812 508.8812 509.0920 509.5631 509.9000 509.9000 511.4997 511.4997
   511.8582 511.9652 511.9652 512.0819 512.8033 512.8033 513.2291 513.2477
   513.3891 513.3891 513.4670 513.6855 514.3397 514.3397 514.3931 514.3931
   515.4579 515.4579 515.5962 515.7863 515.7863 516.3579 516.3660 516.4802
   516.5072 516.5072 516.7588 516.7588 517.4242 517.4524 517.4621 517.4621
   517.5190 517.5190 517.6722 517.6722 517.6824 517.7661 517.7661 517.7666
   525.7492 526.3588 526.3588 526.9248 527.0424 527.0424 527.6022 527.6023
   527.6023 527.8906 527.8977 527.9315 527.9321 527.9321 528.0302 528.0302
   528.1965 528.1965 529.6341 529.6341 529.7706 530.4305 530.4305 530.5736
   534.4501 534.9970 534.9970 535.2414 535.2516 535.2516 535.2887 535.3055
   535.3055 535.5810 535.5810 536.4305 537.0242 538.0518 538.3434 538.3434
   538.3956 538.5681 538.6208 538.6208 539.0784 539.1705 539.1705 539.4235
   539.4235 539.4971 539.8866 539.8866 540.0715 540.0715 541.5920 541.5920
   541.9085 541.9835 541.9835 542.0620 546.3977 546.3977 546.4200 546.4200
   548.0371 548.0407 548.2737 548.2737 548.4797 548.8171 548.9112 548.9112
   548.9435 548.9841 548.9841 549.0046 549.3257 549.3257 549.8324 550.3953
   550.3953 550.9939 551.2536 551.2536 551.3106 551.6691 552.1654 552.1654
   552.3169 552.3169 554.2190 554.2190 554.2210 554.2210 555.0380 555.0387
   557.4434 557.4434 557.8924 557.9789 557.9789 558.0582 559.9147 559.9147
   560.0586 560.1115 560.1115 560.1366 569.0841 569.0841 569.6599 569.8654
   570.0741 570.0741 570.3047 570.3047 570.3444 570.4861 570.4861 570.5232
   570.5968 570.5968 570.7096 570.7365 570.7365 570.8605 570.8736 570.9655
   570.9655 570.9927 570.9927 571.1362 571.3448 571.5962 571.5962 572.2579
   572.2579 572.6368 572.6585 572.7897 572.7897 572.9867 572.9867 573.0100
   577.6241 577.8117 577.8117 577.9897 578.1256 578.1256 578.5311 578.7929
   578.7929 578.8382 578.8476 579.0650 579.1245 579.1245 579.1726 579.1726
   579.1881 579.5598 579.5598 579.7541 579.8199 579.8199 579.9598 579.9739
   580.0909 580.0909 580.5201 581.1394 581.1394 581.5807 581.5807 581.8139
   584.8631 584.8631 584.8803 584.8803 585.0540 585.0590 585.1024 585.1024
   585.1356 585.1356 586.6015 586.6016 586.7823 586.7823 586.8155 586.8155
   586.8165 586.8785 586.9766 587.1691 587.1691 587.2538 592.7810 592.7810
   592.9807 593.3545 593.5549 593.5549 596.6076 596.6103 596.6103 596.6648
   596.6648 596.6716 602.3069 602.3069 602.4798 602.4807 602.5241 602.5241
   602.5948 602.5948 602.6337 602.6666 602.6922 602.6922 605.4017 605.4017
   605.4970 605.7258 605.8199 605.8199 605.9030 605.9200 605.9382 605.9382
   606.0115 606.0115 613.0230 613.0265 613.0265 613.1262 613.1476 613.1476

          k = 0.0000-1.0000 0.0000 (  2402 PWs)   bands (ev):

   -94.4729  -6.5880   0.3762   2.7715   2.7715   8.0256   9.5933  16.9893
    16.9893  19.8496  20.0624  21.7348  21.7348  22.1309  24.7080  28.8783
    28.8783  29.2202  29.2796  30.4319  30.7391  30.7391  33.2357  40.0139
    40.0139  40.7313  41.8251  43.7428  43.7428  46.3615  47.0248  49.5161
    50.0026  50.0787  50.6822  50.6822  52.3186  52.9901  53.3389  53.3389
    56.3184  61.3666  63.0122  63.0122  63.2639  63.9708  63.9708  66.0561
    68.8425  69.0344  69.0344  71.6130  71.8484  73.1852  73.1852  73.4385
    74.1411  74.1411  74.2359  74.8618  74.8618  75.3278  75.8899  79.1041
    80.2555  84.8577  85.7691  85.7691  87.3573  87.3573  88.5115  88.9184
    89.7583  90.3416  90.3416  91.5458  91.6036  91.6036  91.7209  92.3180
    92.5818  93.1996  93.7182  93.7182  94.2320  96.5244  96.6048  97.6294
    97.6294  98.0434  98.0434 101.4675 101.8775 105.4831 105.4831 108.0088
   109.8448 109.8448 110.5152 110.5522 111.3980 111.9799 111.9799 112.6695
   113.7504 113.7504 114.6615 114.9475 115.7520 118.0340 118.0340 118.6226
   120.4285 120.5273 120.7457 120.7457 125.4845 125.6962 127.6670 127.9910
   127.9910 128.3965 129.4808 129.4808 130.5708 133.4986 135.2210 135.4630
   135.4630 136.4048 136.4048 136.5369 137.4027 137.9435 139.4181 139.4181
   139.7181 140.1824 140.4229 140.5844 141.3227 141.4877 141.4877 141.6091
   141.8603 141.8603 142.2929 142.2929 143.1104 143.2168 146.0660 146.9487
   149.8066 149.8066 150.9877 153.1850 153.9264 154.2071 154.2071 154.2216
   154.8998 154.8998 155.1323 156.1885 156.1885 156.3820 156.8827 156.9714
   157.8533 157.8533 158.1829 158.1829 159.8003 160.3754 160.4169 161.0861
   161.4603 161.4603 163.1706 163.1706 163.2970 163.3286 163.7405 164.0398
   164.0398 164.9760 165.2023 165.7191 165.7191 165.9427 167.6039 169.0370
   169.3952 169.3952 172.6502 173.0672 175.6170 175.6170 176.2615 176.2615
   176.3520 177.2935 177.5254 177.5254 177.9672 178.8948 183.6746 184.4430
   184.4430 184.5172 184.7139 184.7370 184.7370 184.8675 185.4569 185.8906
   186.3261 186.3261 188.4119 188.5160 188.5160 188.6069 195.7117 196.7271
   196.7271 196.8616 197.1275 198.6234 198.6234 199.4582 199.7603 202.1323
   202.1975 202.4826 202.5457 202.5457 202.9276 203.8518 203.8518 204.3398
   205.9438 206.2374 206.2374 206.5133 206.6758 207.1830 207.3020 207.3020
   207.8736 208.1317 208.1456 208.1456 208.4417 208.4417 213.0950 213.3901
   213.5823 213.7415 213.7415 213.7541 213.7541 213.7879 218.1885 219.4719
   219.4719 219.9619 221.7824 221.7824 221.8803 222.1006 222.6044 223.0751
   223.0751 223.0956 223.5526 223.9379 224.0078 224.0078 225.3657 225.3657
   225.5948 225.6774 226.1147 226.5747 226.5747 226.6710 227.6686 227.7016
   227.7723 227.7723 228.4211 228.6577 228.7528 228.7528 230.9876 231.0512
   231.1439 231.1439 231.2158 231.2158 231.3420 231.3801 237.3670 237.7971
   239.4887 239.4887 240.1611 240.1611 241.5455 241.6002 245.6722 245.7943
   245.9068 245.9068 246.0873 246.0873 246.4018 246.4528 246.7772 246.7950
   247.7322 247.7322 247.8473 247.8473 248.3935 248.4741 248.5086 248.8940
   251.0984 251.0984 252.0984 252.0984 252.5739 253.2262 254.4003 254.4226
   255.8369 255.8369 255.9715 255.9715 256.6608 256.6622 259.6567 259.6567
   260.2757 260.3993 261.8912 261.8912 262.3443 263.4425 263.5529 264.5854
   264.5854 265.4973 265.7600 265.7600 266.1192 266.6523 266.9668 267.2176
   267.2176 267.3664 267.6934 267.7889 270.1832 270.6994 270.6994 271.1469
   272.7246 272.7440 272.7440 273.3894 274.0840 274.5929 274.5929 274.8030
   276.0015 276.0015 276.2714 276.5882 278.0042 278.0042 278.0052 278.0671
   278.0761 278.0761 278.1360 278.2464 283.8097 283.8097 283.8989 283.9674
   285.2795 285.3281 288.6573 288.6573 288.8841 289.0627 289.1963 289.1963
   289.2741 289.2811 290.1495 290.1495 290.2966 290.2966 293.1262 293.8408
   294.0774 294.0774 294.0923 294.0923 294.1118 294.2021 294.5456 294.8155
   294.8183 294.9694 295.0200 295.0200 295.0548 295.1851 295.3534 295.3534
   295.4179 295.5669 295.5669 295.7823 296.6632 296.6632 296.9840 299.1038
   299.2144 299.5179 299.5179 299.6988 299.7558 299.8179 299.8189 299.8189
   300.4666 300.5145 300.5145 300.5293 309.1595 311.4553 311.7889 311.7889
   312.5717 312.9609 313.0226 313.0226 314.1235 314.1430 314.6073 314.6073
   314.8214 314.8214 315.7871 315.8029 319.0884 319.0884 319.2924 319.3124
   319.3124 319.3462 319.4168 319.4989 323.5054 323.5924 324.1028 324.1028
   324.2611 324.2611 324.6099 325.0833 328.3869 328.3869 329.7481 330.3228
   330.7240 330.7342 330.9257 330.9258 333.6738 333.6738 334.0910 334.1648
   334.3938 334.5815 334.5815 334.9786 337.5124 339.0393 339.0393 339.4729
   340.7307 340.8710 341.0514 341.0514 341.7169 341.7169 342.1169 342.6863
   342.9192 342.9227 342.9998 342.9998 343.2356 343.2356 343.3317 343.3616
   343.8333 343.8333 343.9004 344.0131 344.0818 344.1055 344.1055 344.1684
   344.7575 344.7575 344.7859 344.7956 352.0717 353.2471 353.3302 353.3302
   353.3546 353.8501 353.8501 353.9940 354.6005 354.9589 355.2327 356.1335
   356.1335 356.2044 356.6134 356.6763 356.7263 356.7263 356.8535 356.8535
   357.2855 357.3028 359.4789 359.4789 359.5645 359.5645 360.3028 360.3034
   360.4419 360.4471 360.4471 360.6695 361.0708 361.3864 362.4991 362.4991
   362.7143 363.2891 363.9836 364.1881 364.3090 364.3090 365.3680 365.3680
   365.5362 365.5488 365.6959 365.7355 365.8591 365.8591 366.2183 366.3743
   366.3743 366.4012 366.4012 367.0290 367.8491 367.8491 367.9891 368.0436
   368.0758 368.1471 368.1471 368.3206 373.8834 374.8894 374.8894 375.0785
   375.2827 375.2827 375.3624 375.3667 378.3611 378.4187 378.4187 378.5254
   378.9988 379.1628 379.1628 379.3712 381.0175 381.0290 381.1374 381.1374
   381.7050 381.7050 381.7881 381.7881 382.2067 382.2067 382.7196 383.4812
   383.8936 383.9149 383.9149 384.1059 385.9824 386.9331 386.9331 387.2325
   387.3293 387.5189 387.8087 387.8087 389.2452 389.2452 389.2787 389.2845
   390.3127 390.3192 390.3276 390.3276 390.4066 390.4066 390.4613 390.5018
   401.4938 401.4938 402.0569 402.3228 402.3228 402.6094 402.7347 402.7499
   402.9196 402.9196 403.3442 403.7462 404.3808 404.4834 405.7177 405.7177
   406.4513 406.4513 406.4985 406.4985 406.5025 406.5355 406.7089 406.7754
   406.8386 406.8386 407.3110 407.5361 407.5423 407.5423 407.5858 407.6550
   407.6550 407.9112 408.6473 410.0372 410.0545 410.0749 410.0749 410.0979
   410.2938 410.8218 412.5577 412.5577 412.7360 412.7360 413.4473 413.4473
   413.5563 413.5568 413.7320 413.8342 421.3397 421.3397 421.9603 423.1410
   423.1775 423.5419 423.6419 423.6419 425.0516 425.0516 425.4400 425.6243
   425.7751 425.7751 426.3558 426.4720 426.4940 426.5318 426.5318 426.7614
   426.9842 427.0557 427.0557 427.3864 428.4653 428.4653 429.0440 429.0526
   429.1092 429.1434 429.1434 429.1490 429.2061 429.2061 429.2400 429.2635
   429.4681 429.5536 429.5536 429.6219 432.0006 432.0635 432.0635 432.2217
   433.6779 433.6904 433.6904 433.7107 443.6963 444.1029 444.5126 444.5343
   444.5343 444.7865 444.7865 445.0573 445.9769 446.0522 446.0522 446.2985
   446.7002 446.9279 447.1221 447.1221 447.1529 447.4385 448.6741 448.6741
   449.7013 449.7019 450.1565 450.1565 450.2882 450.4979 450.9549 451.1482
   451.1482 451.3275 451.6336 451.6336 451.7032 451.9269 452.0107 452.0107
   452.3373 452.4201 455.2588 455.8526 455.8526 455.9532 456.0652 456.2700
   456.2700 456.6620 456.6620 456.7199 457.0695 457.2205 458.6275 458.6950
   459.2133 459.2133 459.2950 459.2950 459.5796 459.7113 465.4961 466.8620
   471.4489 471.4489 471.4856 471.4856 473.2373 473.3967 473.3967 473.6310
   473.8510 473.8510 474.1557 474.2184 474.6176 474.8196 474.8313 475.0415
   475.0418 475.0418 475.1014 475.2391 475.2391 475.4232 475.4232 475.8906
   475.9479 476.1756 476.5108 477.2834 477.3723 477.3723 477.8588 477.8588
   478.3854 478.4123 478.5008 478.5243 478.5243 478.6913 478.7745 478.7745
   478.9976 479.4560 479.5764 479.5977 479.7052 479.7052 488.1000 488.1000
   488.4356 488.6715 488.9035 488.9035 489.2596 489.3171 489.4820 489.5374
   489.5628 489.5972 489.5972 489.7759 489.8305 489.8305 489.9242 490.1150
   490.1150 490.2804 490.3490 490.3490 490.5418 490.6789 491.4628 492.0187
   492.0421 492.1828 492.1828 492.2375 492.2375 492.4427 492.5160 493.9756
   493.9756 494.3541 494.3541 494.4349 494.9599 494.9968 495.2435 495.2435
   495.4232 495.4801 495.4801 495.5029 495.5584 495.5822 498.8509 498.8509
   498.9650 498.9677 499.5906 499.5906 499.6213 499.6803 499.7237 499.7237
   499.9605 500.2298 500.3649 500.3649 500.4427 500.4571 500.6509 500.6606
   500.6606 500.8235 500.9979 500.9979 501.1941 501.3090 502.8886 503.0173
   503.0173 503.0396 503.0605 503.1477 503.1741 503.1741 503.2014 503.3535
   503.3609 503.3609 503.4321 503.4321 503.4476 503.6848 512.8279 512.8279
   512.9380 513.2572 513.3259 513.3568 513.3568 513.4863 514.1287 514.1845
   514.1937 514.1937 514.2077 514.2230 514.2545 514.2545 520.3348 520.3348
   521.1921 521.4660 521.4660 521.6707 522.2639 522.3605 522.4007 522.5010
   522.5010 522.5690 522.7330 522.8901 522.9756 522.9756 523.6780 523.6780
   523.6897 523.7739 523.9147 524.0948 524.0948 524.1796 524.2269 524.3041
   524.3327 524.3327 524.5676 524.5867 524.6140 524.6140 534.3895 534.3895
   534.4529 534.4990 535.3732 535.6871 536.3165 536.3165 536.6700 536.6700
   537.4112 537.8282 538.1218 538.1218 538.3221 538.3688 538.5674 538.5674
   538.5746 538.5774 539.2842 540.2584 540.7064 540.7064 541.0833 541.0833
   541.2237 541.5108 542.3213 542.3309 542.3309 542.3370 542.4953 542.4953
   542.5030 542.5060 545.4433 545.4491 545.6164 545.6164 545.6355 545.6355
   545.7892 545.7921 546.8012 546.8012 546.9728 547.2831 547.3089 547.3089
   547.3544 547.7341 553.9226 553.9226 555.0672 555.2436 555.5345 556.5750
   556.5839 556.5839 556.6177 556.8764 558.5819 558.5819 558.7511 558.7899
   558.8361 558.8361 559.1049 559.3463 559.3843 559.3843 559.4287 559.5403
   559.6387 559.6387 559.8829 560.5678 561.1554 561.1554 561.3826 561.3826
   561.7024 561.7883 562.3032 562.8692 563.0674 563.0931 563.4426 563.4426
   563.4926 563.4926 563.5607 563.5768 563.5768 563.6394 563.9023 564.0874
   564.2896 564.2970 564.5648 564.5648 564.6101 564.6136 564.6136 564.6786
   564.6786 564.7487 564.9734 565.0095 569.2072 569.2072 569.2604 569.2604
   569.3786 569.3882 569.3882 569.9060 570.2148 570.5160 570.6945 570.7031
   570.7081 570.7081 578.7691 578.7691 578.8082 578.9855 579.0247 579.0369
   579.0370 579.0370 579.1396 579.1396 579.6715 579.7884 579.7884 579.9297
   579.9708 580.1177 581.4394 581.5506 581.5506 581.6118 582.0795 582.1201
   582.1201 582.1779 585.1835 585.1835 585.7734 586.0271 586.5194 586.5529
   586.5529 586.5897 589.9143 589.9401 589.9401 589.9617 589.9617 590.0068
   590.0798 590.1370 591.0883 591.0883 591.5756 591.5851 591.6022 591.6220
   591.6220 591.6474 591.7890 591.7890 591.8817 591.9709 591.9872 591.9872
   592.4753 592.4756 601.1991 601.1991 601.3103 601.4393 601.4733 601.4733
   601.6740 601.8234 605.3062 605.3258 605.3258 605.3759 605.7577 605.7577
   605.7605 605.7634 606.2171 606.2345 606.3019 606.3019 606.3802 606.3942
   606.3942 606.4096 606.4236 606.5491 608.1989 608.1989 608.2921 608.2921
   608.9223 608.9815 608.9815 609.8240 609.9440 609.9440 610.0257 610.1702

     the Fermi energy is     7.7559 ev
     (compare with:     5.6062 eV, computed in scf)

     Writing all to output data dir out/mp-1541.save/
 
     init_run     :      0.04s CPU      0.07s WALL (       1 calls)
     electrons    :    215.35s CPU    231.14s WALL (       1 calls)

     Called by init_run:
     wfcinit      :      0.00s CPU      0.00s WALL (       1 calls)
     potinit      :      0.01s CPU      0.03s WALL (       1 calls)
     hinit0       :      0.02s CPU      0.02s WALL (       1 calls)

     Called by electrons:
     c_bands      :    215.35s CPU    231.14s WALL (       1 calls)
     v_of_rho     :      0.01s CPU      0.01s WALL (       1 calls)

     Called by c_bands:
     init_us_2    :      0.00s CPU      0.00s WALL (       3 calls)
     init_us_2:cp :      0.00s CPU      0.00s WALL (       3 calls)
     paro_k       :    208.48s CPU    223.72s WALL (       3 calls)

     Called by paro_*:
     h_psi        :      3.85s CPU      4.03s WALL (     315 calls)
     g_psi        :      0.08s CPU      0.09s WALL (   30183 calls)

     Called by h_psi:
     h_psi:calbec :      0.08s CPU      0.08s WALL (     315 calls)
     vloc_psi     :      3.69s CPU      3.86s WALL (     315 calls)
     add_vuspsi   :      0.05s CPU      0.06s WALL (     315 calls)

     General routines
     calbec       :      0.08s CPU      0.08s WALL (     315 calls)
     fft          :      0.00s CPU      0.01s WALL (      10 calls)
     fftw         :      3.29s CPU      3.45s WALL (   49668 calls)
 
     Parallel routines
 
     PWSCF        :   3m35.75s CPU   3m52.91s WALL

 
   This run was terminated on:  14: 3:57   4Dec2023            

=------------------------------------------------------------------------------=
   JOB DONE.
=------------------------------------------------------------------------------=
