
     Program PWSCF v.7.1 starts on  5Dec2023 at  8:17:19 

     This program is part of the open-source Quantum ESPRESSO suite
     for quantum simulation of materials; please cite
         "P. Giannozzi et al., J. Phys.:Condens. Matter 21 395502 (2009);
         "P. Giannozzi et al., J. Phys.:Condens. Matter 29 465901 (2017);
         "P. Giannozzi et al., J. Chem. Phys. 152 154105 (2020);
          URL http://www.quantum-espresso.org", 
     in publications or presentations arising from this work. More details at
     http://www.quantum-espresso.org/quote

     Parallel version (MPI), running on    24 processors

     MPI processes distributed on     1 nodes
     121728 MiB available memory on the printing compute node when the environment starts
 
     Reading input from pw_mp-2624_scf_k3000_E55.in
Warning: card &CELL ignored
Warning: card / ignored

     Current dimensions of program PWSCF are:
     Max number of different atomic species (ntypx) = 10
     Max number of k-points (npk) =  40000
     Max angular momentum in pseudopotentials (lmaxx) =  4
 
     K-points division:     npool     =       2
     R & G space division:  proc/nbgrp/npool/nimage =      12
     Subspace diagonalization in iterative solution of the eigenvalue problem:
     a serial algorithm will be used

 
     Parallelization info
     --------------------
     sticks:   dense  smooth     PW     G-vecs:    dense   smooth      PW
     Min          86      86     26                 1842     1842     307
     Max          87      87     27                 1845     1845     310
     Sum        1039    1039    313                22123    22123    3695
 
     Using Slab Decomposition
 


     bravais-lattice index     =            2
     lattice parameter (alat)  =      11.6880  a.u.
     unit-cell volume          =     399.1761 (a.u.)^3
     number of atoms/cell      =            2
     number of atomic types    =            2
     number of electrons       =        26.00
     number of Kohn-Sham states=           26
     kinetic-energy cutoff     =      55.0000  Ry
     charge density cutoff     =     220.0000  Ry
     scf convergence threshold =      1.0E-10
     mixing beta               =       0.7000
     number of iterations used =            8  plain     mixing
     Exchange-correlation= PBE
                           (   1   4   3   4   0   0   0)

     celldm(1)=  11.688035  celldm(2)=   0.000000  celldm(3)=   0.000000
     celldm(4)=   0.000000  celldm(5)=   0.000000  celldm(6)=   0.000000

     crystal axes: (cart. coord. in units of alat)
               a(1) = (  -0.500000   0.000000   0.500000 )  
               a(2) = (   0.000000   0.500000   0.500000 )  
               a(3) = (  -0.500000   0.500000   0.000000 )  

     reciprocal axes: (cart. coord. in units 2 pi/alat)
               b(1) = ( -1.000000 -1.000000  1.000000 )  
               b(2) = (  1.000000  1.000000  1.000000 )  
               b(3) = ( -1.000000  1.000000 -1.000000 )  


     PseudoPot. # 1 for Al read from file:
     /usr/scratch4/magr4985/MG/HTDF/pseudo/SG15/Al.upf
     MD5 check sum: 2d9e7bc02555220d62fad08c3c4858e7
     Pseudo is Norm-conserving, Zval = 11.0
     Generated using ONCVPSP code by D. R. Hamann
     Using radial grid of  602 points,  4 beta functions with: 
                l(1) =   0
                l(2) =   0
                l(3) =   1
                l(4) =   1

     PseudoPot. # 2 for Sb read from file:
     /usr/scratch4/magr4985/MG/HTDF/pseudo/SG15/Sb.upf
     MD5 check sum: 0417cd6c0fe8ce4611e2b23135f1abd9
     Pseudo is Norm-conserving, Zval = 15.0
     Generated using ONCVPSP code by D. R. Hamann
     Using radial grid of  602 points,  6 beta functions with: 
                l(1) =   0
                l(2) =   0
                l(3) =   1
                l(4) =   1
                l(5) =   2
                l(6) =   2

     atomic species   valence    mass     pseudopotential
        Al            11.00    26.98150     Al( 1.00)
        Sb            15.00   121.76000     Sb( 1.00)

     24 Sym. Ops. (no inversion) found



   Cartesian axes

     site n.     atom                  positions (alat units)
         1           Al  tau(   1) = (   0.0000000   0.0000000   0.0000000  )
         2           Sb  tau(   2) = (  -0.7500000   0.7500000   0.7500000  )

     number of k points=    72  Gaussian smearing, width (Ry)=  0.0005
                       cart. coord. in units 2pi/alat
        k(    1) = (   0.0000000   0.0000000   0.0000000), wk =   0.0011574
        k(    2) = (  -0.0833333   0.0833333  -0.0833333), wk =   0.0092593
        k(    3) = (  -0.1666667   0.1666667  -0.1666667), wk =   0.0092593
        k(    4) = (  -0.2500000   0.2500000  -0.2500000), wk =   0.0092593
        k(    5) = (  -0.3333333   0.3333333  -0.3333333), wk =   0.0092593
        k(    6) = (  -0.4166667   0.4166667  -0.4166667), wk =   0.0092593
        k(    7) = (   0.5000000  -0.5000000   0.5000000), wk =   0.0046296
        k(    8) = (   0.0000000   0.1666667   0.0000000), wk =   0.0069444
        k(    9) = (  -0.0833333   0.2500000  -0.0833333), wk =   0.0277778
        k(   10) = (  -0.1666667   0.3333333  -0.1666667), wk =   0.0277778
        k(   11) = (  -0.2500000   0.4166667  -0.2500000), wk =   0.0277778
        k(   12) = (  -0.3333333   0.5000000  -0.3333333), wk =   0.0277778
        k(   13) = (   0.5833333  -0.4166667   0.5833333), wk =   0.0277778
        k(   14) = (   0.5000000  -0.3333333   0.5000000), wk =   0.0277778
        k(   15) = (   0.4166667  -0.2500000   0.4166667), wk =   0.0277778
        k(   16) = (   0.3333333  -0.1666667   0.3333333), wk =   0.0277778
        k(   17) = (   0.2500000  -0.0833333   0.2500000), wk =   0.0277778
        k(   18) = (   0.1666667  -0.0000000   0.1666667), wk =   0.0138889
        k(   19) = (   0.0000000   0.3333333   0.0000000), wk =   0.0069444
        k(   20) = (  -0.0833333   0.4166667  -0.0833333), wk =   0.0277778
        k(   21) = (  -0.1666667   0.5000000  -0.1666667), wk =   0.0277778
        k(   22) = (  -0.2500000   0.5833333  -0.2500000), wk =   0.0277778
        k(   23) = (   0.6666667  -0.3333333   0.6666667), wk =   0.0277778
        k(   24) = (   0.5833333  -0.2500000   0.5833333), wk =   0.0277778
        k(   25) = (   0.5000000  -0.1666667   0.5000000), wk =   0.0277778
        k(   26) = (   0.4166667  -0.0833333   0.4166667), wk =   0.0277778
        k(   27) = (   0.3333333   0.0000000   0.3333333), wk =   0.0138889
        k(   28) = (   0.0000000   0.5000000   0.0000000), wk =   0.0069444
        k(   29) = (  -0.0833333   0.5833333  -0.0833333), wk =   0.0277778
        k(   30) = (  -0.1666667   0.6666667  -0.1666667), wk =   0.0277778
        k(   31) = (   0.7500000  -0.2500000   0.7500000), wk =   0.0277778
        k(   32) = (   0.6666667  -0.1666667   0.6666667), wk =   0.0277778
        k(   33) = (   0.5833333  -0.0833333   0.5833333), wk =   0.0277778
        k(   34) = (   0.5000000   0.0000000   0.5000000), wk =   0.0138889
        k(   35) = (   0.0000000   0.6666667   0.0000000), wk =   0.0069444
        k(   36) = (  -0.0833333   0.7500000  -0.0833333), wk =   0.0277778
        k(   37) = (   0.8333333  -0.1666667   0.8333333), wk =   0.0277778
        k(   38) = (   0.7500000  -0.0833333   0.7500000), wk =   0.0277778
        k(   39) = (   0.6666667  -0.0000000   0.6666667), wk =   0.0138889
        k(   40) = (   0.0000000   0.8333333   0.0000000), wk =   0.0069444
        k(   41) = (   0.9166667  -0.0833333   0.9166667), wk =   0.0277778
        k(   42) = (   0.8333333   0.0000000   0.8333333), wk =   0.0138889
        k(   43) = (   0.0000000  -1.0000000   0.0000000), wk =   0.0034722
        k(   44) = (  -0.1666667   0.3333333   0.0000000), wk =   0.0277778
        k(   45) = (  -0.2500000   0.4166667  -0.0833333), wk =   0.0555556
        k(   46) = (  -0.3333333   0.5000000  -0.1666667), wk =   0.0555556
        k(   47) = (   0.5833333  -0.4166667   0.7500000), wk =   0.0555556
        k(   48) = (   0.5000000  -0.3333333   0.6666667), wk =   0.0277778
        k(   49) = (  -0.1666667   0.5000000   0.0000000), wk =   0.0277778
        k(   50) = (  -0.2500000   0.5833333  -0.0833333), wk =   0.0555556
        k(   51) = (   0.6666667  -0.3333333   0.8333333), wk =   0.0555556
        k(   52) = (   0.5833333  -0.2500000   0.7500000), wk =   0.0555556
        k(   53) = (   0.5000000  -0.1666667   0.6666667), wk =   0.0555556
        k(   54) = (   0.4166667  -0.0833333   0.5833333), wk =   0.0555556
        k(   55) = (   0.3333333   0.0000000   0.5000000), wk =   0.0277778
        k(   56) = (  -0.1666667   0.6666667  -0.0000000), wk =   0.0277778
        k(   57) = (   0.7500000  -0.2500000   0.9166667), wk =   0.0555556
        k(   58) = (   0.6666667  -0.1666667   0.8333333), wk =   0.0555556
        k(   59) = (   0.5833333  -0.0833333   0.7500000), wk =   0.0555556
        k(   60) = (   0.5000000   0.0000000   0.6666667), wk =   0.0277778
        k(   61) = (   0.8333333  -0.1666667   1.0000000), wk =   0.0277778
        k(   62) = (   0.7500000  -0.0833333   0.9166667), wk =   0.0555556
        k(   63) = (   0.6666667   0.0000000   0.8333333), wk =   0.0277778
        k(   64) = (  -0.1666667  -1.0000000  -0.0000000), wk =   0.0138889
        k(   65) = (   0.6666667  -0.3333333   1.0000000), wk =   0.0277778
        k(   66) = (   0.5833333  -0.2500000   0.9166667), wk =   0.0555556
        k(   67) = (   0.5000000  -0.1666667   0.8333333), wk =   0.0277778
        k(   68) = (   0.6666667  -0.1666667   1.0000000), wk =   0.0277778
        k(   69) = (   0.5833333  -0.0833333   0.9166667), wk =   0.0555556
        k(   70) = (   0.5000000   0.0000000   0.8333333), wk =   0.0277778
        k(   71) = (  -0.3333333  -1.0000000   0.0000000), wk =   0.0138889
        k(   72) = (  -0.5000000  -1.0000000   0.0000000), wk =   0.0069444

     Dense  grid:    22123 G-vectors     FFT dimensions: (  40,  40,  40)

     Estimated max dynamical RAM per process >       4.32 MB

     Estimated total dynamical RAM >      98.37 MB

     Initial potential from superposition of free atoms

     starting charge      25.8586, renormalised to      26.0000
     Starting wfcs are random

     total cpu time spent up to now is        0.3 secs

     Self-consistent Calculation

     iteration #  1     ecut=    55.00 Ry     beta= 0.70
     Davidson diagonalization with overlap
     ethr =  1.00E-02,  avg # of iterations =  8.6

     Threshold (ethr) on eigenvalues was too large:
     Diagonalizing with lowered threshold

     Davidson diagonalization with overlap
     ethr =  1.54E-04,  avg # of iterations =  3.5

     total cpu time spent up to now is        4.0 secs

     total energy              =    -279.50131038 Ry
     estimated scf accuracy    <       0.03523362 Ry

     iteration #  2     ecut=    55.00 Ry     beta= 0.70
     Davidson diagonalization with overlap
     ethr =  1.36E-04,  avg # of iterations =  1.2

     total cpu time spent up to now is        4.9 secs

     total energy              =    -279.50428889 Ry
     estimated scf accuracy    <       0.00255632 Ry

     iteration #  3     ecut=    55.00 Ry     beta= 0.70
     Davidson diagonalization with overlap
     ethr =  9.83E-06,  avg # of iterations =  4.0

     total cpu time spent up to now is        6.0 secs

     total energy              =    -279.50458309 Ry
     estimated scf accuracy    <       0.00033391 Ry

     iteration #  4     ecut=    55.00 Ry     beta= 0.70
     Davidson diagonalization with overlap
     ethr =  1.28E-06,  avg # of iterations =  3.0

     total cpu time spent up to now is        7.0 secs

     total energy              =    -279.50465633 Ry
     estimated scf accuracy    <       0.00001206 Ry

     iteration #  5     ecut=    55.00 Ry     beta= 0.70
     Davidson diagonalization with overlap
     ethr =  4.64E-08,  avg # of iterations =  1.6

     total cpu time spent up to now is        7.8 secs

     total energy              =    -279.50465812 Ry
     estimated scf accuracy    <       0.00000019 Ry

     iteration #  6     ecut=    55.00 Ry     beta= 0.70
     Davidson diagonalization with overlap
     ethr =  7.20E-10,  avg # of iterations =  2.2

     total cpu time spent up to now is        9.0 secs

     total energy              =    -279.50465817 Ry
     estimated scf accuracy    <          7.0E-09 Ry

     iteration #  7     ecut=    55.00 Ry     beta= 0.70
     Davidson diagonalization with overlap
     ethr =  2.71E-11,  avg # of iterations =  2.6

     total cpu time spent up to now is       10.3 secs

     total energy              =    -279.50465817 Ry
     estimated scf accuracy    <          1.8E-10 Ry

     iteration #  8     ecut=    55.00 Ry     beta= 0.70
     Davidson diagonalization with overlap
     ethr =  7.07E-13,  avg # of iterations =  2.4

     total cpu time spent up to now is       11.5 secs

     End of self-consistent calculation

          k = 0.0000 0.0000 0.0000 (  2733 PWs)   bands (ev):

   -95.3109 -56.8015 -56.8015 -56.8015 -20.2543 -20.2543 -20.2543 -20.2262
   -20.2262  -2.5997   8.0054   8.0054   8.0054   9.4321  11.1132  11.1132
    11.1132  14.5372  15.7934  15.7934  17.5261  17.5261  17.5261  20.5179
    28.4610  28.4610

          k =-0.0833 0.0833-0.0833 (  2731 PWs)   bands (ev):

   -95.3107 -56.8015 -56.8015 -56.8015 -20.2542 -20.2541 -20.2541 -20.2262
   -20.2262  -2.5372   7.1888   7.9172   7.9172   9.9010  11.2506  11.2506
    11.3324  14.8811  15.4584  15.4584  17.2500  18.1108  18.1108  21.0441
    27.1870  27.1872

          k =-0.1667 0.1667-0.1667 (  2740 PWs)   bands (ev):

   -95.3109 -56.8015 -56.8015 -56.8015 -20.2541 -20.2536 -20.2536 -20.2261
   -20.2261  -2.3544   5.9311   7.7092   7.7092   9.9523  11.5555  11.5555
    12.2822  15.0633  15.0633  15.5494  17.0137  19.2989  19.2989  22.2488
    25.1850  25.1850

          k =-0.2500 0.2500-0.2500 (  2746 PWs)   bands (ev):

   -95.3110 -56.8015 -56.8015 -56.8015 -20.2539 -20.2529 -20.2529 -20.2260
   -20.2260  -2.0688   4.7263   7.4770   7.4770   9.7180  11.7947  11.7947
    13.5282  15.0854  15.0854  15.5445  17.9295  20.7021  20.7021  23.2851
    23.2851  23.5234

          k =-0.3333 0.3333-0.3333 (  2761 PWs)   bands (ev):

   -95.3117 -56.8015 -56.8015 -56.8015 -20.2537 -20.2523 -20.2523 -20.2259
   -20.2259  -1.7210   3.6952   7.2831   7.2831   9.4938  11.8380  11.8380
    14.5843  15.5030  15.6546  15.6546  19.3307  21.0993  21.0993  22.5221
    22.7099  22.7099

          k =-0.4167 0.4167-0.4167 (  2749 PWs)   bands (ev):

   -95.3109 -56.8015 -56.8015 -56.8015 -20.2536 -20.2518 -20.2518 -20.2257
   -20.2257  -1.4005   2.9564   7.1583   7.1583   9.3478  11.7824  11.7824
    14.6821  16.5496  16.6377  16.6377  19.4678  19.5843  19.5843  22.7355
    24.3580  24.3580

          k = 0.5000-0.5000 0.5000 (  2764 PWs)   bands (ev):

   -95.3118 -56.8015 -56.8015 -56.8015 -20.2536 -20.2516 -20.2516 -20.2257
   -20.2257  -1.2607   2.6757   7.1155   7.1155   9.2978  11.7504  11.7504
    14.6275  17.5538  17.5634  17.5634  18.4611  18.4611  18.6018  24.0806
    25.3354  25.7924

          k = 0.0000 0.1667 0.0000 (  2733 PWs)   bands (ev):

   -95.3107 -56.8015 -56.8015 -56.8015 -20.2545 -20.2539 -20.2539 -20.2263
   -20.2261  -2.5162   7.1927   7.7370   7.7370  10.2017  10.8862  11.5036
    11.5036  14.8688  15.0561  15.8880  17.7115  17.7115  18.1491  21.2791
    26.9414  26.9415

          k =-0.0833 0.2500-0.0833 (  2744 PWs)   bands (ev):

   -95.3112 -56.8015 -56.8015 -56.8015 -20.2545 -20.2535 -20.2534 -20.2264
   -20.2259  -2.3732   6.2249   7.4804   7.5717  10.4171  10.9605  11.9008
    12.1504  14.4541  15.6445  15.7294  17.4242  18.4267  19.1876  22.3169
    25.1492  25.4345

          k =-0.1667 0.3333-0.1667 (  2754 PWs)   bands (ev):

   -95.3115 -56.8015 -56.8015 -56.8015 -20.2543 -20.2529 -20.2527 -20.2264
   -20.2257  -2.1205   5.0705   7.2395   7.3272  10.2498  11.2993  12.2141
    12.9233  14.6022  15.6651  16.0590  17.6908  19.6833  20.6236  23.1914
    23.4748  23.8520

          k =-0.2500 0.4167-0.2500 (  2745 PWs)   bands (ev):

   -95.3108 -56.8015 -56.8015 -56.8015 -20.2540 -20.2524 -20.2521 -20.2262
   -20.2256  -1.7892   4.0118   7.0501   7.0655  10.0296  11.5366  12.2744
    13.5690  15.4268  15.9435  16.1083  18.9184  20.7172  21.7127  21.8385
    22.4535  23.8121

          k =-0.3333 0.5000-0.3333 (  2750 PWs)   bands (ev):

   -95.3110 -56.8015 -56.8015 -56.8015 -20.2537 -20.2519 -20.2516 -20.2261
   -20.2255  -1.4490   3.1822   6.8135   6.9813   9.8617  11.5863  12.1559
    14.3762  15.6267  16.8736  16.9937  19.2418  19.4293  21.1611  22.5676
    23.1705  24.2867

          k = 0.5833-0.4167 0.5833 (  2756 PWs)   bands (ev):

   -95.3113 -56.8015 -56.8015 -56.8015 -20.2535 -20.2517 -20.2514 -20.2259
   -20.2256  -1.2337   2.7409   6.6537   6.9935   9.7785  11.6169  12.0137
    14.8630  16.2057  17.5387  17.6538  18.5923  18.6083  20.0932  23.7198
    24.9846  25.3509

          k = 0.5000-0.3333 0.5000 (  2761 PWs)   bands (ev):

   -95.3116 -56.8015 -56.8015 -56.8015 -20.2535 -20.2517 -20.2516 -20.2257
   -20.2257  -1.2818   2.8354   6.5894   7.0984   9.7897  11.7154  11.9214
    14.9103  16.3813  16.4096  17.5372  18.7648  19.8164  19.8507  23.0653
    24.4108  25.6069

          k = 0.4167-0.2500 0.4167 (  2761 PWs)   bands (ev):

   -95.3117 -56.8015 -56.8015 -56.8015 -20.2536 -20.2520 -20.2519 -20.2260
   -20.2257  -1.5578   3.4277   6.6305   7.2826   9.8940  11.8684  11.8686
    14.5008  15.3183  15.7820  17.2452  19.0269  20.3731  21.4092  22.1314
    22.8408  23.9663

          k = 0.3333-0.1667 0.3333 (  2757 PWs)   bands (ev):

   -95.3115 -56.8015 -56.8015 -56.8015 -20.2539 -20.2527 -20.2524 -20.2262
   -20.2258  -1.9063   4.3467   6.7823   7.5199  10.0769  11.7640  11.9424
    13.6050  14.6478  15.7077  16.3913  18.4310  20.4279  21.5655  21.9199
    23.5338  23.7441

          k = 0.2500-0.0833 0.2500 (  2751 PWs)   bands (ev):

   -95.3114 -56.8015 -56.8015 -56.8015 -20.2541 -20.2534 -20.2530 -20.2263
   -20.2259  -2.2163   5.4366   7.0493   7.7618  10.2814  11.5232  11.6677
    12.8123  14.5164  15.3645  16.1229  17.4976  19.0194  20.5059  23.0469
    23.3385  25.2902

          k = 0.1667-0.0000 0.1667 (  2737 PWs)   bands (ev):

   -95.3108 -56.8015 -56.8015 -56.8015 -20.2542 -20.2539 -20.2536 -20.2263
   -20.2260  -2.4344   6.5057   7.4554   7.9248  10.2562  11.2713  11.2767
    12.0322  14.8590  15.2837  15.5198  17.5489  17.9248  19.1698  21.8066
    25.2772  26.9296

          k = 0.0000 0.3333 0.0000 (  2738 PWs)   bands (ev):

   -95.3107 -56.8015 -56.8015 -56.8015 -20.2549 -20.2529 -20.2529 -20.2266
   -20.2256  -2.2709   5.9848   7.1895   7.1895  10.2389  11.2495  12.4104
    12.4104  14.0184  16.1092  16.1711  18.2702  18.2702  18.9123  23.2213
    24.9149  24.9149

          k =-0.0833 0.4167-0.0833 (  2747 PWs)   bands (ev):

   -95.3111 -56.8015 -56.8015 -56.8015 -20.2550 -20.2523 -20.2522 -20.2267
   -20.2254  -2.0562   5.1783   6.8986   6.9293  10.2000  11.2984  12.7235
    12.8640  14.4397  16.2564  16.7873  18.1826  19.0728  20.0975  23.2017
    23.4902  24.5163

          k =-0.1667 0.5000-0.1667 (  2758 PWs)   bands (ev):

   -95.3116 -56.8015 -56.8015 -56.8015 -20.2548 -20.2518 -20.2515 -20.2267
   -20.2252  -1.7533   4.2491   6.5326   6.7493  10.2807  11.5286  12.6358
    13.0355  15.6483  16.6049  16.9234  18.7952  20.2131  21.5182  21.6018
    22.0581  25.2675

          k =-0.2500 0.5833-0.2500 (  2755 PWs)   bands (ev):

   -95.3113 -56.8015 -56.8015 -56.8015 -20.2543 -20.2515 -20.2511 -20.2265
   -20.2251  -1.4161   3.4313   6.1746   6.6720  10.2327  11.8547  12.9282
    12.9568  16.4507  17.2574  17.3883  19.1259  19.4057  21.3802  22.2279
    23.4426  24.2736

          k = 0.6667-0.3333 0.6667 (  2742 PWs)   bands (ev):

   -95.3105 -56.8015 -56.8015 -56.8015 -20.2538 -20.2514 -20.2509 -20.2263
   -20.2252  -1.1539   2.9002   5.8978   6.7040  10.2019  11.8863  12.7238
    13.9516  16.2511  17.5213  17.8959  18.7728  18.9057  21.9725  23.2684
    23.9680  25.0645

          k = 0.5833-0.2500 0.5833 (  2747 PWs)   bands (ev):

   -95.3107 -56.8015 -56.8015 -56.8015 -20.2534 -20.2516 -20.2510 -20.2260
   -20.2255  -1.1129   2.8267   5.7382   6.8407  10.2563  11.9153  12.5332
    15.0370  15.7326  16.2514  17.3073  20.0650  20.1951  20.7426  22.9025
    24.8865  25.5420

          k = 0.5000-0.1667 0.5000 (  2750 PWs)   bands (ev):

   -95.3110 -56.8015 -56.8015 -56.8015 -20.2534 -20.2518 -20.2515 -20.2258
   -20.2258  -1.3224   3.2377   5.7220   7.0652  10.3942  12.0276  12.3643
    14.3613  15.1369  16.2712  17.6959  19.2702  20.5917  21.7425  21.9884
    23.3184  25.2958

          k = 0.4167-0.0833 0.4167 (  2748 PWs)   bands (ev):

   -95.3109 -56.8015 -56.8015 -56.8015 -20.2536 -20.2522 -20.2520 -20.2261
   -20.2257  -1.6509   3.9643   5.8871   7.3431  10.5729  12.1339  12.1415
    13.3390  14.4238  16.6511  17.7892  18.5452  19.9699  20.8993  23.0199
    23.7751  24.1359

          k = 0.3333 0.0000 0.3333 (  2754 PWs)   bands (ev):

   -95.3114 -56.8015 -56.8015 -56.8015 -20.2540 -20.2528 -20.2524 -20.2263
   -20.2257  -1.9715   4.7704   6.3129   7.6096  10.6442  11.7899  11.8677
    12.9660  14.2480  16.1378  16.9487  18.0435  19.4175  21.3887  21.9023
    24.2137  25.2129

          k = 0.0000 0.5000 0.0000 (  2786 PWs)   bands (ev):

   -95.3132 -56.8015 -56.8015 -56.8015 -20.2555 -20.2515 -20.2515 -20.2270
   -20.2250  -1.8816   4.8096   6.6467   6.6467   9.7552  11.0616  13.5336
    13.5336  14.5157  16.6388  17.5089  19.1989  19.1989  19.7707  23.0012
    23.0012  23.9016

          k =-0.0833 0.5833-0.0833 (  2751 PWs)   bands (ev):

   -95.3111 -56.8015 -56.8015 -56.8015 -20.2557 -20.2509 -20.2508 -20.2271
   -20.2247  -1.6154   4.1629   6.2973   6.4465   9.7793  10.8779  13.5953
    13.9432  15.6771  16.9978  18.0516  19.3218  20.0049  21.1045  21.5115
    21.8436  23.8219

          k =-0.1667 0.6667-0.1667 (  2753 PWs)   bands (ev):

   -95.3112 -56.8015 -56.8015 -56.8015 -20.2553 -20.2506 -20.2503 -20.2271
   -20.2247  -1.3015   3.5069   5.8140   6.3538   9.9107  11.2856  13.3684
    13.9489  17.0896  17.7023  17.9760  19.4252  19.5241  21.1936  21.6685
    22.9899  24.1143

          k = 0.7500-0.2500 0.7500 (  2745 PWs)   bands (ev):

   -95.3106 -56.8015 -56.8015 -56.8015 -20.2547 -20.2506 -20.2501 -20.2268
   -20.2248  -1.0275   3.0182   5.3768   6.3777   9.9543  12.2542  13.1991
    13.7365  16.9375  17.5749  18.6774  18.9427  19.2513  22.3857  23.2117
    23.8523  24.4346

          k = 0.6667-0.1667 0.6667 (  2755 PWs)   bands (ev):

   -95.3112 -56.8015 -56.8015 -56.8015 -20.2539 -20.2510 -20.2503 -20.2265
   -20.2251  -0.9242   2.8599   5.0892   6.5151  10.0665  12.9272  13.4734
    13.6985  15.6974  16.2655  18.4612  20.2996  20.5426  22.4947  22.7172
    24.3408  24.3817

          k = 0.5833-0.0833 0.5833 (  2743 PWs)   bands (ev):

   -95.3105 -56.8015 -56.8015 -56.8015 -20.2533 -20.2515 -20.2508 -20.2261
   -20.2255  -1.0579   3.0861   5.0179   6.7505  10.2784  12.9565  13.1677
    14.2749  15.1566  15.1578  18.5428  20.3361  21.1959  22.0576  22.1620
    24.0416  24.3191

          k = 0.5000 0.0000 0.5000 (  2742 PWs)   bands (ev):

   -95.3105 -56.8015 -56.8015 -56.8015 -20.2533 -20.2518 -20.2514 -20.2259
   -20.2258  -1.3418   3.5299   5.2565   7.0492  10.5303  12.7027  12.8992
    13.2207  14.5310  16.5137  18.5006  19.1784  19.8386  22.0499  23.2906
    23.3928  24.4321

          k = 0.0000 0.6667 0.0000 (  2754 PWs)   bands (ev):

   -95.3112 -56.8015 -56.8015 -56.8015 -20.2562 -20.2501 -20.2501 -20.2274
   -20.2244  -1.3916   3.7474   6.2206   6.2206   9.4077  10.3376  14.7428
    14.7428  15.8707  17.2792  18.9007  20.3295  20.3295  20.8950  21.4277
    21.4277  22.2849

          k =-0.0833 0.7500-0.0833 (  2752 PWs)   bands (ev):

   -95.3111 -56.8015 -56.8015 -56.8015 -20.2562 -20.2497 -20.2496 -20.2275
   -20.2242  -1.1201   3.2689   5.8734   6.1020   9.5024  10.2496  14.8180
    15.0625  17.1132  17.8421  18.8364  19.7056  20.4050  20.8894  21.6440
    22.2858  22.5178

          k = 0.8333-0.1667 0.8333 (  2752 PWs)   bands (ev):

   -95.3110 -56.8015 -56.8015 -56.8015 -20.2557 -20.2497 -20.2494 -20.2274
   -20.2243  -0.8747   2.9141   5.3425   6.1028   9.6255  10.9176  14.6001
    14.9245  17.3276  17.7207  18.9054  19.4379  20.1685  21.7570  22.3731
    23.1694  23.7134

          k = 0.7500-0.0833 0.7500 (  2758 PWs)   bands (ev):

   -95.3113 -56.8015 -56.8015 -56.8015 -20.2549 -20.2501 -20.2496 -20.2270
   -20.2246  -0.7602   2.7958   4.8996   6.2225   9.7504  12.0925  14.4030
    14.5862  15.8738  16.4600  19.9375  20.4093  20.7245  22.1528  22.6562
    23.0238  24.4216

          k = 0.6667-0.0000 0.6667 (  2742 PWs)   bands (ev):

   -95.3104 -56.8015 -56.8015 -56.8015 -20.2540 -20.2509 -20.2501 -20.2265
   -20.2251  -0.8381   2.9091   4.7385   6.4487   9.9814  13.4700  14.0152
    14.1737  14.5533  15.5256  19.9061  20.3644  21.6778  21.9756  22.7582
    22.9573  24.7074

          k = 0.0000 0.8333 0.0000 (  2762 PWs)   bands (ev):

   -95.3116 -56.8015 -56.8015 -56.8015 -20.2566 -20.2491 -20.2491 -20.2277
   -20.2239  -0.9101   2.9170   5.9535   5.9535   9.2566   9.7470  15.9444
    15.9444  17.3416  18.0384  19.4849  19.5324  19.5324  20.9374  22.3342
    22.3669  22.3669

          k = 0.9167-0.0833 0.9167 (  2755 PWs)   bands (ev):

   -95.3112 -56.8015 -56.8015 -56.8015 -20.2565 -20.2490 -20.2489 -20.2277
   -20.2239  -0.7390   2.6822   5.6571   5.9243   9.3931   9.8670  16.0149
    16.0971  17.7196  17.9971  18.8104  19.2929  20.1503  20.8882  22.2386
    23.4535  23.8732

          k = 0.8333 0.0000 0.8333 (  2750 PWs)   bands (ev):

   -95.3108 -56.8015 -56.8015 -56.8015 -20.2559 -20.2494 -20.2491 -20.2275
   -20.2242  -0.6823   2.6657   5.1811   6.0171   9.5228  10.7868  15.5980
    15.6040  16.4155  16.9935  19.7940  20.3457  21.0187  21.3601  21.9030
    22.7890  24.6438

          k = 0.0000-1.0000 0.0000 (  2778 PWs)   bands (ev):

   -95.3126 -56.8015 -56.8015 -56.8015 -20.2568 -20.2487 -20.2487 -20.2279
   -20.2238  -0.6825   2.5719   5.8629   5.8629   9.2734   9.4740  16.6785
    16.6785  18.5459  18.5585  18.7131  18.7131  18.8213  20.2335  23.7472
    24.1035  24.1035

          k =-0.1667 0.3333 0.0000 (  2758 PWs)   bands (ev):

   -95.3118 -56.8015 -56.8015 -56.8015 -20.2546 -20.2530 -20.2528 -20.2265
   -20.2257  -2.1944   5.5275   6.8921   7.4983  10.6102  11.0298  12.2292
    12.6319  14.3279  15.7791  16.3442  17.8803  18.5709  20.2306  23.2497
    23.5031  25.0092

          k =-0.2500 0.4167-0.0833 (  2753 PWs)   bands (ev):

   -95.3113 -56.8015 -56.8015 -56.8015 -20.2544 -20.2524 -20.2521 -20.2265
   -20.2255  -1.9156   4.6042   6.4542   7.3018  10.6193  11.3135  12.5556
    12.7830  14.7565  16.1855  16.8985  18.2305  19.7792  21.4467  21.6781
    23.5558  24.7582

          k =-0.3333 0.5000-0.1667 (  2745 PWs)   bands (ev):

   -95.3107 -56.8015 -56.8015 -56.8015 -20.2540 -20.2519 -20.2516 -20.2263
   -20.2254  -1.5778   3.7036   6.1963   7.0613  10.4737  11.5383  12.5925
    13.2962  15.5018  16.3702  17.5925  18.8300  20.2066  21.3196  21.9959
    23.3945  24.0636

          k = 0.5833-0.4167 0.7500 (  2753 PWs)   bands (ev):

   -95.3111 -56.8015 -56.8015 -56.8015 -20.2536 -20.2518 -20.2512 -20.2261
   -20.2254  -1.2688   3.0288   6.0630   6.8784  10.3574  11.5195  12.5565
    14.2269  15.9853  16.7230  17.6052  19.0218  19.6766  21.5160  22.5520
    23.6761  25.3166

          k = 0.5000-0.3333 0.6667 (  2758 PWs)   bands (ev):

   -95.3114 -56.8015 -56.8015 -56.8015 -20.2534 -20.2517 -20.2510 -20.2260
   -20.2255  -1.1348   2.7692   6.0226   6.8107  10.3159  11.4886  12.5297
    15.0256  15.7160  16.8199  17.7712  18.5964  20.2975  20.5079  23.6617
    24.5405  25.4298

          k =-0.1667 0.5000 0.0000 (  2756 PWs)   bands (ev):

   -95.3115 -56.8015 -56.8015 -56.8015 -20.2551 -20.2516 -20.2515 -20.2269
   -20.2251  -1.8153   4.5541   6.3463   6.8300  10.2275  11.2509  12.7280
    13.4212  15.0966  16.6476  17.4888  18.5677  19.6358  21.1360  21.5190
    23.1167  24.4685

          k =-0.2500 0.5833-0.0833 (  2751 PWs)   bands (ev):

   -95.3111 -56.8015 -56.8015 -56.8015 -20.2549 -20.2513 -20.2509 -20.2268
   -20.2250  -1.5037   3.8368   5.9100   6.6233  10.4273  11.5057  12.4977
    13.7386  15.9201  17.2531  17.9406  18.9015  20.1612  20.8749  21.7970
    22.9485  24.3169

          k = 0.6667-0.3333 0.8333 (  2746 PWs)   bands (ev):

   -95.3107 -56.8015 -56.8015 -56.8015 -20.2543 -20.2513 -20.2504 -20.2266
   -20.2250  -1.1906   3.2089   5.5935   6.4702  10.4650  11.9667  12.6548
    13.7347  16.6405  17.0880  18.1256  19.1670  19.7558  21.4019  22.8676
    23.7385  24.8354

          k = 0.5833-0.2500 0.7500 (  2748 PWs)   bands (ev):

   -95.3108 -56.8015 -56.8015 -56.8015 -20.2537 -20.2515 -20.2503 -20.2264
   -20.2252  -0.9997   2.8679   5.3849   6.4563  10.5218  11.8743  13.4588
    13.9295  15.5192  17.4218  18.1364  18.7646  20.6863  22.2992  23.1002
    23.9897  24.7259

          k = 0.5000-0.1667 0.6667 (  2750 PWs)   bands (ev):

   -95.3109 -56.8015 -56.8015 -56.8015 -20.2534 -20.2518 -20.2505 -20.2262
   -20.2253  -1.0484   2.9576   5.3063   6.5844  10.6610  11.7873  13.3903
    14.2452  15.2404  16.4687  17.9670  19.9268  20.9766  21.6639  22.4150
    24.3133  25.0840

          k = 0.4167-0.0833 0.5833 (  2746 PWs)   bands (ev):

   -95.3108 -56.8015 -56.8015 -56.8015 -20.2537 -20.2518 -20.2510 -20.2263
   -20.2254  -1.3024   3.4219   5.4076   6.8203  10.8550  11.7403  12.8772
    13.5766  15.3853  16.5515  18.2239  19.3886  20.1121  21.6189  22.5325
    23.6693  24.8639

          k = 0.3333 0.0000 0.5000 (  2743 PWs)   bands (ev):

   -95.3107 -56.8015 -56.8015 -56.8015 -20.2541 -20.2519 -20.2516 -20.2264
   -20.2254  -1.6254   4.0399   5.7714   7.0987  10.9738  11.4579  12.5315
    13.1424  14.8306  17.0599  17.8587  18.5601  19.8869  20.7278  22.7496
    23.6701  24.5570

          k =-0.1667 0.6667-0.0000 (  2755 PWs)   bands (ev):

   -95.3113 -56.8015 -56.8015 -56.8015 -20.2557 -20.2504 -20.2501 -20.2273
   -20.2245  -1.3429   3.6478   5.9319   6.2497   9.8869  10.6917  13.6094
    14.6961  16.3515  17.6588  18.4649  19.5272  20.3522  20.8558  21.2871
    22.5198  23.0259

          k = 0.7500-0.2500 0.9167 (  2750 PWs)   bands (ev):

   -95.3110 -56.8015 -56.8015 -56.8015 -20.2553 -20.2504 -20.2497 -20.2272
   -20.2245  -1.0545   3.1766   5.4861   6.0932  10.1191  11.1314  13.3379
    14.9480  17.0640  17.3771  19.0388  19.3238  20.1148  20.9438  22.3225
    23.0522  24.2330

          k = 0.6667-0.1667 0.8333 (  2744 PWs)   bands (ev):

   -95.3105 -56.8015 -56.8015 -56.8015 -20.2546 -20.2508 -20.2495 -20.2269
   -20.2247  -0.8501   2.8888   5.0792   6.0972  10.2236  12.1923  13.0878
    14.7773  15.7681  17.7350  18.9028  19.3758  20.8556  22.1316  23.0860
    23.6396  24.0513

          k = 0.5833-0.0833 0.7500 (  2743 PWs)   bands (ev):

   -95.3105 -56.8015 -56.8015 -56.8015 -20.2538 -20.2514 -20.2497 -20.2265
   -20.2250  -0.8378   2.8902   4.8570   6.2477  10.4033  12.8113  13.5647
    14.0846  14.9298  16.5161  19.3621  20.1330  21.4897  22.0274  22.6759
    23.6985  24.4620

          k = 0.5000 0.0000 0.6667 (  2748 PWs)   bands (ev):

   -95.3108 -56.8015 -56.8015 -56.8015 -20.2534 -20.2518 -20.2502 -20.2263
   -20.2253  -1.0225   3.1283   4.9371   6.5091  10.6664  12.5171  13.0415
    14.3760  15.1639  15.6197  19.2848  19.8258  21.0713  21.8107  22.6280
    23.9990  24.2306

          k = 0.8333-0.1667 1.0000 (  2749 PWs)   bands (ev):

   -95.3109 -56.8015 -56.8015 -56.8015 -20.2561 -20.2496 -20.2491 -20.2275
   -20.2241  -0.8867   2.9230   5.6925   5.8596   9.7189  10.1686  14.7292
    15.9020  17.5143  17.6729  18.9331  19.7891  20.1180  21.2620  21.9281
    22.3135  23.9062

          k = 0.7500-0.0833 0.9167 (  2752 PWs)   bands (ev):

   -95.3110 -56.8015 -56.8015 -56.8015 -20.2556 -20.2499 -20.2489 -20.2274
   -20.2243  -0.7242   2.7457   5.2450   5.8257   9.9448  10.8683  14.4350
    15.5649  16.5651  17.9186  18.9114  20.1664  20.9594  21.5075  22.4237
    23.1962  23.5150

          k = 0.6667 0.0000 0.8333 (  2745 PWs)   bands (ev):

   -95.3106 -56.8015 -56.8015 -56.8015 -20.2547 -20.2506 -20.2492 -20.2270
   -20.2246  -0.7077   2.7745   4.8705   5.9773  10.1261  12.1059  14.0188
    14.4141  15.9848  16.8806  19.8886  20.6333  21.1670  21.5977  22.7862
    23.1167  24.2294

          k =-0.1667-1.0000-0.0000 (  2750 PWs)   bands (ev):

   -95.3109 -56.8015 -56.8015 -56.8015 -20.2563 -20.2492 -20.2487 -20.2277
   -20.2240  -0.6756   2.6201   5.6298   5.7084   9.7026   9.9441  15.6978
    16.0466  17.3527  18.2795  18.5928  19.4585  20.5618  21.1099  22.7352
    23.5330  23.6360

          k = 0.6667-0.3333 1.0000 (  2750 PWs)   bands (ev):

   -95.3110 -56.8015 -56.8015 -56.8015 -20.2545 -20.2513 -20.2502 -20.2268
   -20.2249  -1.2083   3.4033   5.3884   6.3616  10.9846  11.5513  12.2109
    14.5617  16.0829  16.8220  18.9789  19.3890  19.9700  21.3340  22.0479
    23.3454  24.6521

          k = 0.5833-0.2500 0.9167 (  2742 PWs)   bands (ev):

   -95.3105 -56.8015 -56.8015 -56.8015 -20.2539 -20.2516 -20.2497 -20.2266
   -20.2250  -0.9472   3.0284   5.0956   6.1197  11.2023  11.7777  12.5408
    14.8156  15.4425  16.9384  19.0713  19.7752  21.0830  21.1899  22.6054
    24.1478  24.8948

          k = 0.5000-0.1667 0.8333 (  2750 PWs)   bands (ev):

   -95.3109 -56.8015 -56.8015 -56.8015 -20.2536 -20.2518 -20.2495 -20.2266
   -20.2250  -0.8376   2.8722   5.0066   6.0258  11.2406  11.6871  13.6164
    13.9573  15.0671  17.8783  18.6849  19.1633  22.0287  22.2604  22.7010
    23.3653  24.1319

          k = 0.6667-0.1667 1.0000 (  2745 PWs)   bands (ev):

   -95.3106 -56.8015 -56.8015 -56.8015 -20.2548 -20.2508 -20.2491 -20.2271
   -20.2246  -0.8274   2.9222   5.2153   5.7432  10.8215  11.2411  13.0237
    15.3349  16.2618  17.5023  19.4344  20.1034  20.5358  21.2956  22.0364
    23.8990  24.5323

          k = 0.5833-0.0833 0.9167 (  2747 PWs)   bands (ev):

   -95.3107 -56.8015 -56.8015 -56.8015 -20.2541 -20.2514 -20.2489 -20.2269
   -20.2247  -0.7091   2.8159   4.9744   5.6314  11.1082  12.2213  12.7700
    13.9620  16.3939  18.0597  18.8224  20.1794  21.0129  22.3377  22.8353
    23.2755  24.3719

          k = 0.5000 0.0000 0.8333 (  2748 PWs)   bands (ev):

   -95.3108 -56.8015 -56.8015 -56.8015 -20.2536 -20.2518 -20.2491 -20.2267
   -20.2249  -0.7590   2.8767   4.8842   5.7940  11.3288  12.3569  12.7148
    13.7564  16.0429  17.1914  19.6979  20.2286  20.7576  21.6731  23.0631
    24.0330  24.5861

          k =-0.3333-1.0000 0.0000 (  2742 PWs)   bands (ev):

   -95.3104 -56.8015 -56.8015 -56.8015 -20.2550 -20.2506 -20.2487 -20.2272
   -20.2244  -0.6617   2.7290   5.2254   5.4518  10.7752  11.0845  13.9831
    14.3466  17.2035  18.2268  18.6888  19.6380  21.6762  22.5708  22.6900
    22.9767  23.2900

          k =-0.5000-1.0000 0.0000 (  2740 PWs)   bands (ev):

   -95.3104 -56.8015 -56.8015 -56.8015 -20.2537 -20.2518 -20.2487 -20.2268
   -20.2248  -0.6547   2.7916   5.0388   5.3411  11.9843  12.3883  12.5489
    12.8336  17.2033  18.2288  18.7445  19.6916  21.4773  22.5676  22.9123
    22.9592  24.1500

     the Fermi energy is     9.1642 ev

!    total energy              =    -279.50465817 Ry
     estimated scf accuracy    <          2.5E-12 Ry
     smearing contrib. (-TS)   =      -0.00000000 Ry
     internal energy E=F+TS    =    -279.50465817 Ry

     The total energy is F=E-TS. E is the sum of the following terms:
     one-electron contribution =    -168.43491573 Ry
     hartree contribution      =      78.83015754 Ry
     xc contribution           =     -31.53272154 Ry
     ewald contribution        =    -158.36717844 Ry

     convergence has been achieved in   8 iterations

     Writing all to output data dir out/mp-2624.save/
 
     init_run     :      0.19s CPU      0.22s WALL (       1 calls)
     electrons    :      7.46s CPU     11.25s WALL (       1 calls)

     Called by init_run:
     wfcinit      :      0.17s CPU      0.19s WALL (       1 calls)
     potinit      :      0.01s CPU      0.01s WALL (       1 calls)
     hinit0       :      0.01s CPU      0.01s WALL (       1 calls)

     Called by electrons:
     c_bands      :      6.09s CPU      8.49s WALL (       9 calls)
     sum_band     :      1.32s CPU      2.61s WALL (       9 calls)
     v_of_rho     :      0.03s CPU      0.03s WALL (       9 calls)
     mix_rho      :      0.02s CPU      0.05s WALL (       9 calls)

     Called by c_bands:
     init_us_2    :      0.05s CPU      0.05s WALL (     684 calls)
     init_us_2:cp :      0.04s CPU      0.05s WALL (     684 calls)
     cegterg      :      4.70s CPU      4.93s WALL (     324 calls)

     Called by *egterg:
     cdiaghg      :      0.97s CPU      0.99s WALL (    1306 calls)
     h_psi        :      3.38s CPU      3.57s WALL (    1378 calls)
     g_psi        :      0.02s CPU      0.02s WALL (    1018 calls)

     Called by h_psi:
     h_psi:calbec :      0.09s CPU      0.09s WALL (    1378 calls)
     vloc_psi     :      3.22s CPU      3.40s WALL (    1378 calls)
     add_vuspsi   :      0.05s CPU      0.06s WALL (    1378 calls)

     General routines
     calbec       :      0.09s CPU      0.09s WALL (    1378 calls)
     fft          :      0.01s CPU      0.02s WALL (      90 calls)
     ffts         :      0.00s CPU      0.00s WALL (       9 calls)
     fftw         :      4.05s CPU      4.31s WALL (   56044 calls)
     davcio       :      0.09s CPU      3.24s WALL (    1112 calls)
 
     Parallel routines
 
     PWSCF        :      7.80s CPU     12.27s WALL

 
   This run was terminated on:   8:17:31   5Dec2023            

=------------------------------------------------------------------------------=
   JOB DONE.
=------------------------------------------------------------------------------=
