
     Program PWSCF v.7.1 starts on  5Dec2023 at  6:13:17 

     This program is part of the open-source Quantum ESPRESSO suite
     for quantum simulation of materials; please cite
         "P. Giannozzi et al., J. Phys.:Condens. Matter 21 395502 (2009);
         "P. Giannozzi et al., J. Phys.:Condens. Matter 29 465901 (2017);
         "P. Giannozzi et al., J. Chem. Phys. 152 154105 (2020);
          URL http://www.quantum-espresso.org", 
     in publications or presentations arising from this work. More details at
     http://www.quantum-espresso.org/quote

     Parallel version (MPI), running on     8 processors

     MPI processes distributed on     1 nodes
     121960 MiB available memory on the printing compute node when the environment starts
 
     Reading input from pw_mp-2624_nscf_k60_E55.in
Warning: card &IONS ignored
Warning: card / ignored
Warning: card &CELL ignored
Warning: card / ignored

     Current dimensions of program PWSCF are:
     Max number of different atomic species (ntypx) = 10
     Max number of k-points (npk) =  40000
     Max angular momentum in pseudopotentials (lmaxx) =  4

     Atomic positions and unit cell read from directory:
     out/mp-2624.save/
     Atomic positions from file used, from input discarded
 
 
     R & G space division:  proc/nbgrp/npool/nimage =       8
     Subspace diagonalization in iterative solution of the eigenvalue problem:
     one sub-group per band group will be used
     scalapack distributed-memory algorithm (size of sub-group:  2*  2 procs)

 
     Parallelization info
     --------------------
     sticks:   dense  smooth     PW     G-vecs:    dense   smooth      PW
     Min         129     129     37                 2764     2764     433
     Max         130     130     38                 2767     2767     436
     Sum        1039    1039    301                22123    22123    3479
 
     Using Slab Decomposition
 


     bravais-lattice index     =            2
     lattice parameter (alat)  =      11.6880  a.u.
     unit-cell volume          =     399.1761 (a.u.)^3
     number of atoms/cell      =            2
     number of atomic types    =            2
     number of electrons       =        26.00
     number of Kohn-Sham states=         1200
     kinetic-energy cutoff     =      55.0000  Ry
     charge density cutoff     =     220.0000  Ry
     Exchange-correlation= PBE
                           (   1   4   3   4   0   0   0)

     celldm(1)=  11.688035  celldm(2)=   0.000000  celldm(3)=   0.000000
     celldm(4)=   0.000000  celldm(5)=   0.000000  celldm(6)=   0.000000

     crystal axes: (cart. coord. in units of alat)
               a(1) = (  -0.500000   0.000000   0.500000 )  
               a(2) = (   0.000000   0.500000   0.500000 )  
               a(3) = (  -0.500000   0.500000   0.000000 )  

     reciprocal axes: (cart. coord. in units 2 pi/alat)
               b(1) = ( -1.000000 -1.000000  1.000000 )  
               b(2) = (  1.000000  1.000000  1.000000 )  
               b(3) = ( -1.000000  1.000000 -1.000000 )  


     PseudoPot. # 1 for Al read from file:
     /usr/scratch4/magr4985/MG/HTDF/pseudo/SG15/Al.upf
     MD5 check sum: 2d9e7bc02555220d62fad08c3c4858e7
     Pseudo is Norm-conserving, Zval = 11.0
     Generated using ONCVPSP code by D. R. Hamann
     Using radial grid of  602 points,  4 beta functions with: 
                l(1) =   0
                l(2) =   0
                l(3) =   1
                l(4) =   1

     PseudoPot. # 2 for Sb read from file:
     /usr/scratch4/magr4985/MG/HTDF/pseudo/SG15/Sb.upf
     MD5 check sum: 0417cd6c0fe8ce4611e2b23135f1abd9
     Pseudo is Norm-conserving, Zval = 15.0
     Generated using ONCVPSP code by D. R. Hamann
     Using radial grid of  602 points,  6 beta functions with: 
                l(1) =   0
                l(2) =   0
                l(3) =   1
                l(4) =   1
                l(5) =   2
                l(6) =   2

     atomic species   valence    mass     pseudopotential
        Al            11.00    26.98150     Al( 1.00)
        Sb            15.00   121.76000     Sb( 1.00)

     24 Sym. Ops. (no inversion) found



   Cartesian axes

     site n.     atom                  positions (alat units)
         1           Al  tau(   1) = (   0.0000000   0.0000000   0.0000000  )
         2           Sb  tau(   2) = (  -0.7500000   0.7500000   0.7500000  )

     number of k points=     8  Gaussian smearing, width (Ry)=  0.0005
                       cart. coord. in units 2pi/alat
        k(    1) = (   0.0000000   0.0000000   0.0000000), wk =   0.0312500
        k(    2) = (  -0.2500000   0.2500000  -0.2500000), wk =   0.2500000
        k(    3) = (   0.5000000  -0.5000000   0.5000000), wk =   0.1250000
        k(    4) = (   0.0000000   0.5000000   0.0000000), wk =   0.1875000
        k(    5) = (   0.7500000  -0.2500000   0.7500000), wk =   0.7500000
        k(    6) = (   0.5000000   0.0000000   0.5000000), wk =   0.3750000
        k(    7) = (   0.0000000  -1.0000000   0.0000000), wk =   0.0937500
        k(    8) = (  -0.5000000  -1.0000000   0.0000000), wk =   0.1875000

     Dense  grid:    22123 G-vectors     FFT dimensions: (  40,  40,  40)

     Estimated max dynamical RAM per process >     151.56 MB

     Estimated total dynamical RAM >       1.18 GB

     The potential is recalculated from file :
     out/mp-2624.save/charge-density

     Starting wfcs are random

     Band Structure Calculation
     Davidson diagonalization with overlap

     ethr =  5.00E-06,  avg # of iterations =  7.6

     total cpu time spent up to now is      893.2 secs

     End of band structure calculation

          k = 0.0000 0.0000 0.0000 (  2733 PWs)   bands (ev):

   -95.3109 -56.8015 -56.8015 -56.8015 -20.2543 -20.2543 -20.2543 -20.2262
   -20.2262  -2.5997   8.0054   8.0054   8.0054   9.4321  11.1132  11.1132
    11.1132  14.5372  15.7934  15.7934  17.5261  17.5261  17.5261  20.5179
    28.4610  28.4610  28.4610  29.6796  29.6796  29.6796  30.1543  30.1543
    30.5376  30.5376  30.5376  37.9978  39.1863  39.1863  39.1863  40.1242
    40.1242  40.1500  41.0878  41.0878  41.0878  42.2232  42.2232  42.2232
    43.1526  43.1526  43.1526  43.3377  43.3377  43.3377  43.7298  43.7298
    43.7298  44.1823  44.1823  47.1261  48.8247  48.8247  48.8247  49.2332
    49.2332  49.2332  52.6922  52.9493  60.9016  60.9016  60.9906  60.9906
    60.9906  63.6339  63.6339  63.6339  63.6500  65.1256  65.1256  65.1256
    69.6214  69.6214  71.7078  71.8310  71.8310  71.8310  71.8647  71.8647
    72.8051  72.8051  72.8051  73.4695  73.4695  73.4695  76.1626  76.1626
    76.1626  76.5741  76.5741  76.5741  76.9256  76.9256  76.9256  77.7888
    77.7888  78.2936  78.2936  78.2936  79.6992  80.2579  80.2579  80.2579
    80.3835  80.8442  80.8442  80.8442  80.9230  80.9230  81.8257  81.8257
    81.8257  85.8402  87.7013  87.7013  87.7013  90.8029  90.8029  90.8029
    91.3349  91.3349  91.3349  91.6042  91.6042  91.6042  92.7745  92.7745
    92.8794  92.8794  92.8794  93.4920  93.4920  95.6052  96.5421  96.5421
    96.5421  98.6399 101.1071 101.1071 101.1071 102.1165 102.1165 103.3413
   103.5401 103.5401 103.5401 104.7095 104.7095 104.7095 105.0643 105.1349
   105.1349 105.1349 105.3668 105.3668 105.3668 106.1586 106.1586 106.1586
   107.6070 107.6070 107.6392 107.6392 107.6392 108.3094 108.3094 108.3094
   110.6269 114.4773 114.4773 114.4773 114.8411 116.2288 116.2288 116.2288
   116.8499 118.4090 118.4090 118.4090 119.6234 119.6234 125.3456 125.6253
   125.6253 125.6253 126.9222 126.9222 127.8668 127.8668 127.8668 129.9683
   129.9683 129.9683 130.5644 130.5644 130.5644 131.2435 131.2435 131.2435
   133.7267 133.7267 133.9673 133.9673 133.9673 134.0430 134.0430 134.0430
   134.0646 134.5431 134.5431 134.5431 135.9253 135.9253 135.9253 135.9321
   135.9321 135.9321 136.0238 136.0238 136.3635 136.3806 137.3945 137.3945
   137.3945 137.8720 137.8720 137.8720 138.2782 138.3456 138.3456 138.4882
   138.4882 138.4882 139.0998 140.5239 140.5239 141.5725 141.5725 141.5725
   141.8472 141.8472 141.8472 142.1745 142.1745 142.1745 142.6545 142.6545
   142.7809 142.7809 142.7809 145.1042 145.1042 145.2149 145.2149 145.2149
   147.3336 147.3336 147.3336 149.1818 151.8792 151.8792 151.8792 154.3736
   154.3736 154.3736 154.4567 154.4567 154.4567 154.4786 154.4786 154.4786
   154.7166 155.9334 155.9334 156.8312 156.8312 156.8312 157.4060 157.4060
   157.4060 157.6371 157.6371 157.6521 157.6521 157.6521 157.7328 158.3660
   162.9652 162.9652 162.9652 163.1155 163.1155 163.1155 163.5979 163.5979
   163.5979 164.2827 164.2827 164.8504 164.8504 164.8504 166.3193 168.6933
   168.6933 168.6933 169.8114 169.8114 170.7490 170.7490 170.7490 171.2719
   171.8538 171.8538 171.8538 171.9697 171.9697 171.9697 172.5203 172.5203
   172.5203 172.5642 172.5642 175.7073 175.7073 175.7073 177.5383 177.5383
   177.5383 178.2706 178.2706 182.8352 183.1707 183.1707 183.1707 183.8013
   184.3486 184.3486 184.3486 184.4857 184.4857 184.4857 187.3142 187.3288
   187.3288 187.6423 187.6423 187.6423 190.7407 190.9208 190.9208 191.0742
   191.0742 191.0742 191.2540 191.2540 191.2540 192.4328 192.4328 192.4328
   192.5655 195.6357 195.6357 195.6357 195.6768 195.6768 196.6747 197.6845
   197.6845 197.6845 198.1947 198.1947 198.1947 198.2789 198.2789 198.2789
   198.3649 198.3649 198.3649 201.5616 201.5616 201.5616 201.6707 201.6707
   201.9166 201.9299 201.9299 201.9299 202.0088 202.0088 202.0088 202.0426
   202.0426 202.0426 202.8675 203.7785 203.7785 203.7785 204.7187 204.7187
   204.7821 204.7821 204.7821 206.2176 206.2176 206.2176 206.6121 206.6121
   206.6121 207.3773 208.2852 208.2852 208.7898 210.3903 210.3903 210.3903
   210.6153 210.6153 210.6153 211.7873 211.7873 211.7873 211.9609 211.9609
   211.9609 212.9279 212.9279 215.9069 215.9069 215.9069 216.1994 216.1994
   217.0137 217.0137 217.0137 217.1073 217.1073 217.1073 217.4116 217.4116
   217.4116 218.1766 218.1766 218.1766 218.3250 218.3250 218.6697 219.3302
   219.3302 219.3302 219.5477 219.5477 219.5477 219.9732 219.9732 219.9732
   220.2336 220.2663 222.3198 222.4774 222.4774 224.9976 224.9976 224.9976
   226.0825 226.0825 226.0825 226.3569 226.3569 226.3569 226.4089 226.4089
   226.6325 226.6325 226.6325 227.6484 228.2431 228.2431 228.2431 228.5575
   228.5575 228.5575 229.2034 229.8893 229.8893 230.0701 230.0701 230.0701
   230.2237 230.2237 230.2237 230.4192 230.4192 230.4192 230.5166 230.7907
   230.7907 230.7907 230.9680 230.9680 231.3231 231.3231 231.3231 231.7726
   231.7726 231.7726 231.8669 231.8669 231.9361 231.9361 231.9361 232.0271
   232.0271 232.0271 232.1951 232.2588 232.2588 232.2588 232.6034 232.6034
   232.6034 232.6180 232.6180 243.6055 243.6055 243.6055 245.0473 245.0473
   246.4671 247.1311 247.1311 247.1311 248.4598 248.4598 248.4598 250.6793
   250.6793 251.0470 251.8921 252.9430 252.9430 252.9430 254.8211 254.8211
   254.8211 255.0820 255.0820 255.0820 255.2527 255.2527 255.4512 255.4512
   255.4512 257.1134 257.9280 257.9280 257.9280 258.2981 258.2981 258.2981
   259.6030 259.6030 260.6149 260.6149 260.6149 260.8826 262.1914 264.2117
   264.2117 264.2117 264.3905 264.3905 264.3905 264.5199 264.5199 264.5199
   264.5567 264.5567 264.5567 266.0365 266.0365 266.4056 266.4056 266.4056
   266.6741 266.6741 266.7308 266.7308 266.7308 266.8063 266.8063 266.8063
   266.9882 266.9882 266.9882 267.3077 267.3077 267.3077 267.3609 267.3609
   267.3753 269.0785 269.0785 269.0785 269.4273 269.4273 269.5172 269.5172
   269.5172 269.9177 269.9177 269.9177 271.6081 274.6675 274.6675 274.6675
   275.2795 275.2795 277.1381 278.0906 278.0906 278.0906 278.4485 278.4485
   278.4485 278.7917 278.7917 278.7917 278.9050 278.9050 278.9050 280.1145
   280.1145 280.1327 280.1327 280.1327 280.3070 280.3070 280.3070 280.5914
   280.5914 280.5914 280.9302 281.0552 281.0552 281.0552 281.1353 281.1353
   281.7644 287.0761 287.0761 287.0761 287.3197 287.8010 287.8010 287.8010
   288.5758 289.5070 289.5070 289.5070 289.5214 289.5214 289.7697 289.7697
   289.7697 289.9848 289.9848 289.9848 290.2183 290.2980 290.2980 290.3293
   290.3293 290.3293 290.4431 290.4431 290.4431 290.4903 290.4903 290.4903
   290.6506 292.9629 292.9629 292.9629 292.9749 292.9749 293.2757 293.2757
   293.2757 293.5042 293.5042 293.5042 293.7255 296.3529 296.3529 296.3529
   296.3858 296.3858 296.4579 296.4579 296.4579 296.5534 296.5534 296.5534
   297.1175 298.6625 298.6625 298.6625 298.6972 298.6972 298.6972 298.6991
   298.6991 298.7094 298.7094 298.7094 298.7272 307.0069 307.0069 307.0069
   308.3437 308.3437 309.2043 309.2043 309.2043 309.5714 309.7503 309.7503
   309.7503 310.4012 310.4012 310.4012 310.4809 310.4809 310.4809 310.5418
   310.5418 310.5418 310.6780 310.7121 310.7121 311.5016 311.5016 311.5016
   311.5087 311.5087 311.5436 312.5990 312.5990 312.5990 313.4462 313.5932
   313.5932 313.5932 314.8672 314.8672 314.8672 315.5698 315.5698 315.5698
   315.9648 315.9648 315.9648 316.3248 316.5335 316.5335 317.2916 317.2916
   317.2916 317.5975 317.5975 319.8341 319.8341 319.8341 320.4441 320.4857
   320.4857 321.1082 321.1082 321.1082 321.6096 321.6096 321.6096 322.0362
   322.0362 322.0362 322.1510 322.1510 322.1510 322.4664 322.4664 322.6034
   322.6034 322.6034 322.6730 322.6730 323.6967 323.6967 323.6967 324.0089
   324.1834 324.1834 324.1834 324.5119 324.5119 324.5119 324.6553 324.6970
   324.6970 324.6970 324.8307 324.9687 324.9687 324.9687 325.1959 325.2587
   325.2587 325.2587 325.5827 325.5827 325.5827 326.8499 326.8499 326.9919
   326.9919 326.9919 327.2672 327.2672 327.2672 327.5430 327.5430 327.5430
   327.5581 327.5581 327.5581 327.9019 327.9019 329.5693 329.5693 329.7683
   329.7683 329.7683 330.1336 330.1336 330.1336 330.2159 330.3091 330.3091
   330.3091 330.3627 330.3627 330.3627 330.6834 330.6834 330.6843 330.6843
   330.6843 330.9598 330.9598 330.9598 331.1054 336.4139 336.4139 336.4139
   336.7708 336.7708 336.7708 336.8595 337.3261 344.5991 344.5991 344.6541
   344.6541 344.6541 344.6874 344.6874 344.6874 344.6994 344.6994 344.6994
   344.8095 344.8095 344.8095 344.8135 344.8135 349.0084 349.0084 349.0084
   349.4324 349.4324 350.1071 350.4117 350.4117 350.4117 350.7323 350.7323
   350.8356 350.8356 350.8356 350.8977 350.8977 350.8977 350.9468 350.9468
   350.9468 350.9822 350.9822 350.9822 351.6892 355.3920 355.3920 355.4097
   355.4097 355.4097 355.4436 356.1539 356.1539 356.1539 356.1919 356.1919
   356.1919 356.2884 356.2884 356.2884 356.3868 356.3868 356.3868 357.3451
   357.3451 357.4071 357.4071 357.4071 357.5110 365.9024 365.9024 365.9024
   367.1254 367.1254 367.1254 367.6635 368.1462 369.1200 369.1200 369.4245
   369.4245 369.4245 369.5067 369.5067 369.5067 369.9155 369.9155 369.9155
   369.9432 369.9432 369.9610 369.9610 369.9610 370.5278 370.5278 370.5278
   371.3734 371.3734 371.3734 372.1281 372.1281 372.1718 372.1718 372.1718
   372.4740 376.6291 376.6291 376.6291 377.5222 377.5600 377.5600 377.5600
   379.2746 379.7754 379.7754 379.9499 379.9499 379.9499 381.0497 381.0497
   381.0497 381.5113 381.5113 381.5113 382.4806 383.3410 383.3410 383.5298
   383.5298 383.5298 384.2789 384.2789 384.3251 384.3251 384.3251 384.5022
   384.5022 384.5022 384.6841 384.6841 384.6841 385.2396 385.9973 385.9973
   385.9973 386.1790 386.2798 386.2798 386.2798 387.8838 387.8838 388.1658
   388.1658 388.1658 388.4655 388.4655 388.4655 388.4730 388.4730 388.4730
   388.5255 388.5255 388.6157 388.6157 388.6157 388.7364 388.9085 388.9085
   388.9085 388.9366 388.9366 389.7389 389.9335 389.9335 389.9335 390.1128
   390.1128 390.1128 390.2542 390.2542 390.2597 390.2597 390.2597 392.8681
   392.8681 392.8681 392.9444 392.9444 392.9445 392.9445 392.9445 392.9453
   392.9453 392.9453 393.1178 396.8148 396.8148 396.8148 397.1045 397.1045
   398.0614 398.9923 398.9923 398.9923 399.1201 399.1201 399.1201 399.4719
   399.4719 399.5359 399.5359 399.5359 400.4407 401.7259 401.7259 401.7259
   401.7506 401.7506 401.7506 401.7512 401.7865 401.7865 401.7865 401.7880
   401.7880 403.1121 403.1121 403.1121 403.4565 403.4565 403.4565 403.7098
   403.7098 403.7098 403.9358 404.2864 404.2864 405.5340 405.5340 405.5340
   405.9637 405.9637 405.9637 406.0143 406.0143 406.0143 406.3013 406.3013
   406.3013 406.6628 406.6628 406.6707 406.6707 406.6707 406.7664 406.7664
   406.7664 406.8412 406.8412 406.8412 406.9151 408.8071 408.8071 408.8609
   408.8609 408.8609 408.9536 411.0696 411.0696 411.0696 412.3162 412.3162
   412.3162 412.8759 412.8759 412.9624 413.3943 414.1339 414.1339 414.1339
   414.5265 414.5265 414.5265 415.1391 415.1391 415.1391 415.5889 415.5889
   415.5889 415.8264 415.8264 416.0910 416.0910 416.0910 416.0958 416.2398
   416.2398 416.4681 416.4681 416.4681 416.6943 416.6943 416.6943 417.0625
   417.3026 417.3026 417.3026 418.0324 418.0324 418.0324 418.2234 418.2234
   418.3417 418.3417 418.3417 418.6268 418.6268 418.6268 418.6399 418.8397
   418.8397 418.8397 419.1166 419.1166 419.1441 419.1441 419.1441 419.2038

          k =-0.2500 0.2500-0.2500 (  2746 PWs)   bands (ev):

   -95.3110 -56.8015 -56.8015 -56.8015 -20.2539 -20.2529 -20.2529 -20.2260
   -20.2260  -2.0688   4.7263   7.4770   7.4770   9.7180  11.7947  11.7947
    13.5282  15.0854  15.0854  15.5445  17.9296  20.7021  20.7021  23.2851
    23.2851  23.5230  24.3680  29.6081  29.6081  30.1299  30.7979  30.7979
    31.3660  33.2745  33.2745  34.6123  36.5877  36.5877  37.2479  37.2479
    37.5988  38.2510  38.5692  38.5692  38.7949  40.6991  41.6562  41.6562
    42.5978  42.9443  42.9443  43.9042  46.5448  46.5448  46.9689  46.9689
    47.8311  48.9458  48.9458  49.3108  49.3813  52.0122  52.0122  53.5745
    53.8034  53.8034  55.3535  55.3535  55.4804  56.7009  57.4873  57.4873
    59.9320  61.3755  61.3755  62.1271  62.9759  64.3037  64.3037  66.0095
    66.5876  66.5876  67.9453  68.0131  68.9287  68.9287  70.6431  70.8137
    70.8137  72.0800  72.0800  72.6762  72.9377  72.9377  72.9701  74.5772
    75.2512  75.2512  76.0715  76.0715  76.5587  76.5587  77.1932  77.3843
    78.5394  78.5394  79.6410  79.8466  79.8466  81.3374  81.6219  81.6219
    83.3899  83.3927  83.3927  84.5282  85.1500  85.1500  85.2981  85.8982
    85.8982  87.0729  87.0729  87.2215  88.2266  88.2266  88.5832  90.3377
    90.9093  90.9095  90.9095  91.2887  92.4134  92.4134  93.0178  93.2215
    93.2215  94.2210  94.2210  95.4139  95.4139  95.7599  96.4754  96.9494
    97.0259  97.0259  97.9977  98.0201  98.0201  99.5627  99.5954 100.4725
   100.4725 102.2464 102.2464 102.4315 102.6024 102.6024 104.4658 104.4658
   105.8672 106.8914 107.0493 107.0493 108.5687 109.9988 109.9988 110.6538
   111.3639 111.3639 111.9084 112.8875 112.8875 113.4613 113.7342 114.6506
   114.6506 115.2854 115.6306 115.6306 116.2687 116.6046 116.6046 117.6610
   117.6610 117.8345 118.0613 118.0613 119.2903 119.3891 119.3891 119.5922
   121.2100 121.7314 122.1100 122.1100 123.0154 123.0154 123.5208 124.1093
   124.1093 124.8196 126.5874 127.1897 127.1897 127.7344 128.1000 128.1000
   128.3326 129.0854 129.0854 130.0631 130.2380 130.2380 131.2542 131.2542
   131.3389 133.1697 133.2293 133.4103 133.4103 134.3675 134.3675 135.0527
   135.3074 135.3074 135.9982 135.9982 136.3855 137.2464 137.2993 137.2993
   137.9207 138.4383 138.7230 138.7230 140.5569 140.5569 140.6953 141.0335
   141.0335 141.4905 141.6545 141.6545 141.8672 142.4387 142.4387 142.8437
   144.5765 144.5765 145.0935 145.0935 146.0839 146.0839 146.1806 146.7132
   146.8697 146.9376 146.9376 148.0230 148.0230 148.4360 149.3858 149.4751
   149.4751 149.6993 150.1501 150.1501 150.1710 150.8629 151.1082 151.1082
   152.1410 152.1410 153.0603 153.0603 153.7159 153.8667 153.8667 154.2921
   154.2921 154.8572 155.5711 155.7257 156.8353 156.8353 156.9377 157.9247
   157.9247 159.3925 160.0569 160.0569 160.2663 161.4794 161.4794 161.8304
   162.0190 162.0190 162.8297 163.3165 163.3165 163.7188 163.7188 164.1109
   164.1242 165.0459 165.0459 166.0957 167.5488 167.5488 167.8822 168.5654
   168.5654 168.8926 170.7535 170.7535 171.9706 172.0650 172.0650 172.3245
   173.0594 173.0594 173.5624 173.9542 173.9542 174.6612 174.9525 175.1333
   175.1333 176.0690 176.0690 176.4648 177.7395 177.9727 177.9727 179.3632
   179.3632 179.7111 181.0150 181.0878 181.0878 182.1057 182.5881 182.7541
   182.7541 183.1255 183.3706 183.3706 183.7905 183.7905 184.5446 184.6417
   185.2080 185.2080 185.3014 185.3014 186.4033 186.4033 186.4078 186.8046
   186.9414 186.9414 187.3410 188.6003 188.6003 188.7538 189.0602 189.0602
   190.4937 190.4937 190.5669 192.6305 192.6741 192.6741 193.0050 193.4313
   193.4313 194.3288 194.3288 194.4390 195.2845 195.2845 196.5388 197.0337
   198.3837 198.3837 200.0568 200.0568 200.1010 200.1533 200.7557 200.9611
   200.9611 201.3815 201.4057 201.4057 202.1444 202.1444 202.9519 202.9519
   203.0974 203.8925 204.4903 204.4903 205.3126 205.9139 205.9139 206.6284
   206.8435 206.8441 206.8441 207.2364 207.2364 207.4984 207.4984 207.6355
   208.1646 208.1646 208.5392 208.7271 208.9905 208.9905 209.3686 210.0004
   210.1005 210.1005 210.3697 210.3697 210.7352 211.2769 211.2769 211.4819
   211.4819 212.4000 212.4107 213.0179 213.0411 213.0411 213.3565 213.9912
   213.9912 214.8742 214.8742 215.2059 215.3161 215.3161 216.0149 216.8155
   216.8155 217.1704 217.3111 217.3111 218.0899 218.1910 218.1910 218.2761
   219.9750 219.9750 220.1273 220.4120 220.4120 220.7514 221.6019 221.6030
   221.6030 222.1032 222.1032 222.1244 222.6981 222.8455 222.8455 222.9678
   223.3921 223.3921 223.5363 224.9420 225.0243 225.0243 226.3562 226.3755
   226.3755 226.6220 226.6220 226.7838 228.2628 228.2628 228.4787 228.9292
   228.9292 230.1737 230.4570 230.4570 231.2085 231.2085 231.2623 231.8495
   232.4453 232.4453 232.9240 232.9240 232.9309 233.5201 233.7388 235.3515
   235.3515 236.1242 236.1242 236.6059 236.8067 236.8067 237.2036 237.2036
   237.4709 237.6715 238.7960 238.7960 238.9628 239.1496 239.1496 239.8006
   239.8006 240.1041 240.6258 240.6258 241.3949 241.3949 242.1461 242.1598
   242.8302 243.3021 243.3021 243.5999 243.9205 243.9205 244.0593 244.3802
   244.3802 246.3475 246.8940 246.8940 246.9914 246.9914 247.2762 247.8649
   248.0079 248.2177 248.2177 248.6957 248.6957 248.9884 249.2106 249.2106
   249.4107 249.4107 250.0533 252.3338 253.2666 253.2666 253.3438 253.7867
   253.8088 253.8088 254.8083 254.8083 255.0677 255.0677 255.0687 255.2827
   255.5647 255.6139 255.6139 256.0024 256.0024 256.2072 257.1512 257.1513
   257.2581 257.6626 257.6626 259.5629 259.5629 260.3900 261.8970 261.8970
   261.9152 263.1382 263.3913 263.3913 263.6178 264.0133 264.0133 264.0743
   264.4130 264.4130 264.6621 266.3710 266.3710 266.7778 266.7778 266.9928
   267.2305 267.2305 267.2712 267.8361 267.9407 267.9407 268.0455 270.0753
   270.0753 270.6293 270.6364 270.9685 270.9685 271.2978 271.2978 271.4424
   271.6280 271.6700 271.6700 272.3488 272.7134 272.7134 272.9770 272.9770
   273.0697 275.1256 275.1256 275.2253 276.3932 276.3932 276.8276 277.2866
   277.8679 277.8679 277.9687 278.5991 278.5991 279.2296 279.3665 279.3665
   279.7065 279.7080 279.7080 280.2756 280.2756 280.5815 281.3775 281.4334
   281.4334 282.1410 282.9275 284.2258 284.2258 285.3825 285.3825 285.8478
   286.2200 286.2200 286.3262 286.3262 286.4876 286.6452 287.9364 287.9364
   288.2071 288.2427 288.2633 288.2633 288.4431 288.4431 288.4827 288.5976
   288.6951 288.6951 290.4041 290.4041 290.4689 290.7157 290.7157 290.8286
   291.7652 291.7652 292.4826 293.4222 293.4222 293.9165 293.9165 293.9896
   294.2601 294.2601 294.5753 294.7919 294.7919 294.8300 295.1554 295.1554
   295.4430 295.4430 295.4438 295.7137 295.9833 295.9833 296.2303 296.6365
   296.6684 296.6684 297.0938 297.1594 297.1594 298.0991 298.1516 298.1516
   298.4325 298.4325 298.6226 299.0487 299.4945 299.4945 300.3939 300.6654
   300.6654 301.6406 302.2241 302.2241 302.3267 302.5001 302.5001 302.5915
   302.8673 302.8673 303.1053 303.1053 303.4829 303.5013 303.5760 303.5760
   304.1239 304.1239 304.6201 304.6201 304.6615 304.7913 304.8759 304.8759
   304.9291 306.6012 306.6012 306.8839 308.0617 308.0952 308.4370 308.4370
   308.9981 309.0745 309.0745 309.8965 309.8965 310.3799 310.7071 310.7371
   310.7371 311.1909 311.3832 311.3832 313.5156 313.5912 313.6098 313.6098
   313.9026 313.9026 314.0883 314.1600 314.1600 314.1872 314.1872 315.1951
   315.1951 315.5686 317.2351 317.6548 317.6771 317.6771 317.8418 317.8418
   318.1520 318.1520 318.2062 318.2726 318.2726 318.6401 318.8138 319.2093
   319.2093 319.4180 319.4630 319.4630 319.6657 322.5060 322.5463 322.5463
   322.7532 322.7532 323.1640 323.2348 323.2348 323.4832 323.8206 323.8206
   324.3381 325.1640 325.1640 325.3949 325.7459 325.7459 325.8661 326.6552
   326.6552 327.3265 327.4670 328.0690 328.0690 328.9360 328.9360 329.3981
   330.3750 330.5266 330.5266 330.7488 330.7488 330.8266 331.1611 331.1724
   331.1724 332.6042 332.6042 332.8351 332.8351 332.9814 332.9955 333.7139
   333.7139 333.8740 334.3408 334.5402 334.5402 335.1621 335.1621 335.3171
   335.3874 335.4786 335.4786 336.4722 337.0696 337.0696 337.3041 337.4891
   337.5228 337.5228 337.7525 337.7525 337.7631 338.3711 338.3711 338.9724
   339.3624 339.3624 339.9809 340.4411 340.4411 340.6116 340.6533 340.6533
   341.3761 341.4612 341.4612 341.5126 341.5715 341.5715 341.7362 342.1639
   342.1639 342.5820 343.3158 343.3158 343.4533 343.5133 343.5133 343.5788
   344.9613 344.9613 345.1960 345.9933 345.9933 346.2718 346.6537 346.6537
   347.3181 347.3181 347.3817 347.5963 348.7774 348.7774 348.8425 349.0760
   349.2129 349.2129 350.6838 350.6838 351.6062 351.7923 351.7923 352.6490
   353.3890 353.3890 353.3996 353.8903 354.2978 354.2978 354.8353 354.8353
   354.9225 355.2988 355.3377 355.3377 356.0552 356.0552 357.3217 357.3217
   357.3573 358.9384 358.9384 359.6639 359.7227 359.7227 359.7937 360.1751
   360.1751 360.7609 362.8247 362.8960 362.8960 363.5970 363.5970 364.2718
   365.8624 365.8624 365.8949 365.9738 365.9738 366.2097 366.5032 366.5032
   366.6975 366.7110 366.7110 367.7897 367.8594 367.8594 367.9825 368.1873
   368.2313 368.5529 368.5529 369.0724 369.0724 369.0868 369.7576 369.8036
   369.8036 369.9902 369.9902 370.1046 371.1879 371.1879 371.3546 372.0257
   372.0257 372.1640 372.6220 372.6220 372.8444 374.2051 374.2051 374.7807
   375.2074 375.2074 375.2598 375.7214 375.7214 375.7780 376.4817 376.4817
   376.6642 376.7479 376.7544 376.7544 377.0153 377.0153 377.6275 377.6275
   377.6878 377.9399 377.9399 378.2526 378.9492 378.9492 379.5647 379.7696
   379.7696 379.9674 380.4223 381.2951 381.2951 381.3190 382.0935 382.0935
   382.1243 382.3864 382.5423 382.5423 382.5953 382.5953 382.7367 383.8868
   383.8868 384.3648 384.4952 384.4952 384.5905 384.6306 384.6306 386.5410
   386.5410 386.5995 386.6494 387.3730 387.3730 388.0124 388.4675 388.4675
   388.7506 389.0617 389.2189 389.2189 389.3451 389.3563 389.3563 389.4125
   389.4125 389.4799 389.9629 389.9629 390.0947 391.5121 391.5121 391.5344
   391.7053 391.7053 391.7825 392.2737 392.2738 392.2738 392.7004 392.7004
   393.3811 394.1418 394.3166 394.3464 394.3464 394.3964 394.3964 394.5703
   394.5703 394.6127 396.6057 396.6057 396.6143 396.6611 396.6611 396.7034
   397.1691 397.1691 397.1870 397.6734 397.6734 397.7889 398.8617 400.1366
   400.1366 400.2517 400.2815 400.2815 400.7498 400.9881 400.9881 401.2161
   401.2211 401.2211 401.4189 401.6403 401.6403 402.7219 402.7219 402.7880
   402.8514 402.8514 402.9754 403.2677 403.3071 403.3071 403.6649 403.6649
   403.7701 403.9670 404.2460 404.2460 404.6219 404.6219 404.7877 404.7969
   406.2029 406.2029 406.4223 407.1091 407.1091 407.3204 407.7061 407.7061
   407.8412 407.8412 408.0069 408.5225 408.5627 408.5627 408.8362 409.1102
   409.1102 409.7616 409.7616 409.9067 411.3937 411.3937 411.4085 411.5606
   411.5606 411.6164 412.5023 413.2775 413.3227 413.3227 413.6304 413.6304
   413.7607 414.1309 414.1368 414.1368 414.1661 414.2464 414.2464 414.3873
   414.3873 414.4037 414.6179 414.6179 415.9607 416.3020 416.7250 416.7250
   417.6167 417.9772 418.4406 418.4406 418.4962 418.4962 420.6928 420.6928
   420.8105 420.8871 420.8871 421.3321 421.8643 421.8643 421.9684 421.9684
   422.0591 422.0842 422.0842 422.3924 422.3924 422.4087 422.5324 422.5324
   422.6010 422.9684 422.9684 423.0680 423.3773 423.8330 424.1113 424.1113

          k = 0.5000-0.5000 0.5000 (  2764 PWs)   bands (ev):

   -95.3118 -56.8015 -56.8015 -56.8015 -20.2535 -20.2516 -20.2516 -20.2257
   -20.2257  -1.2607   2.6757   7.1155   7.1155   9.2978  11.7504  11.7504
    14.6275  17.5538  17.5634  17.5634  18.4611  18.4611  18.6018  24.0806
    25.3354  25.7924  25.7924  27.0573  27.0573  29.7203  30.1284  30.1284
    30.4981  30.7412  31.8695  31.8695  35.2685  35.2685  35.4903  35.4903
    36.2365  36.2665  36.6233  39.8759  41.2766  41.2766  41.7412  41.7412
    43.4630  45.0260  45.0260  48.0150  48.5620  48.5620  48.6568  49.2530
    49.2530  50.6289  50.6289  51.4083  51.8938  51.8938  53.5381  55.0354
    55.0354  55.8046  56.2407  56.2407  56.4591  57.3847  57.3847  57.6737
    58.5927  60.3674  60.3674  60.4143  60.8219  60.8219  62.6134  62.9383
    62.9383  63.4057  64.5772  64.9814  64.9814  67.2956  67.2956  67.9884
    70.5498  71.8571  71.8571  72.9542  72.9542  73.2865  73.9604  74.4360
    75.1087  75.1087  76.2887  76.2887  77.5224  78.3097  78.3429  78.3429
    78.8948  78.8948  79.0537  80.1858  80.2740  80.4503  80.4503  81.5436
    82.3352  82.3352  83.6055  83.6055  86.5202  86.5202  86.5855  86.9210
    86.9210  88.0613  88.1323  88.1323  88.2142  88.9426  89.4842  89.5355
    89.5355  90.3372  90.3372  91.1054  92.8485  92.8485  93.4637  93.8454
    93.8454  96.3713  96.3876  96.3876  97.2368  97.2368  97.6284  98.0719
    98.1276  98.1276  99.0262  99.0262 100.8251 100.8251 101.4666 102.4682
   102.4682 103.5501 103.5501 104.4909 104.5909 104.6474 105.5292 105.8520
   106.1887 106.1887 107.4544 107.4544 108.0257 108.0257 108.3437 109.0466
   109.0466 109.8502 110.4826 110.7293 110.7538 110.7538 113.0966 113.6060
   113.6060 114.9119 115.5773 115.5773 116.0885 116.2344 116.2600 116.2600
   116.8870 116.8870 117.3460 118.4002 119.6904 119.6904 120.8342 120.8809
   120.8809 122.6062 122.7660 122.7660 123.8152 123.8152 124.3745 124.7012
   124.7012 124.9839 125.2453 125.2453 126.1975 126.3372 126.3372 127.2691
   127.2691 127.3531 127.8833 128.0865 128.8289 128.8289 129.5730 129.7560
   129.7560 130.6247 130.9429 130.9429 131.5981 131.5981 133.5096 134.2032
   134.2032 134.4918 134.4918 135.3420 135.3420 135.4718 135.9788 136.2757
   136.2757 136.4175 136.7666 136.7666 138.4932 139.9361 140.7242 140.7242
   140.9040 141.6599 141.6599 142.3234 142.5305 142.9204 142.9204 143.9853
   144.1589 144.1589 144.2666 144.6615 144.6615 145.1447 145.2411 145.2411
   145.8572 146.0326 146.0326 146.2743 147.2385 149.1769 149.1769 150.0337
   150.2135 150.2135 151.2988 152.1804 152.1804 152.9730 152.9730 153.0690
   153.1042 153.1042 153.3953 153.5810 156.2297 156.2297 156.4830 156.4830
   158.9214 158.9214 159.6866 160.4910 160.4910 160.6335 161.4017 161.4017
   161.6080 161.6080 161.8814 162.4731 163.7446 164.0263 164.6774 164.6774
   165.1902 165.2818 165.2908 165.4673 165.4673 166.4146 166.4146 167.5510
   168.1716 168.1716 168.2000 168.2000 168.9897 168.9897 169.9238 170.1798
   170.1798 170.5259 170.5259 170.6765 170.7237 171.2794 171.2794 171.5849
   172.8713 173.4108 173.4108 173.4806 173.4806 173.7964 174.1575 174.2259
   174.2259 174.6399 174.6399 175.5569 175.6145 175.6334 176.1163 176.1163
   177.2436 177.2436 179.0915 179.8765 180.0170 180.0170 180.8078 180.8078
   181.9517 182.4430 182.4430 182.6362 182.8748 182.8748 183.1136 183.3247
   183.3247 184.1967 184.2655 184.2655 185.0104 185.0104 185.5393 186.2194
   186.2194 186.5978 187.1266 187.1266 187.1361 187.3057 187.3057 187.8856
   188.8236 188.8236 189.8246 190.6601 190.6601 190.9176 190.9176 190.9408
   191.1332 191.9939 192.5103 192.5103 193.5460 193.5460 194.4428 195.2343
   195.2343 195.3386 196.3634 196.3634 196.5071 196.5071 197.0480 197.4312
   198.0834 199.1446 199.1446 199.4395 200.3627 200.6259 200.6259 201.2195
   202.1295 202.1295 202.2202 202.8746 202.8746 203.7015 204.2373 204.7489
   204.7489 205.2730 205.2730 205.4357 205.4357 205.4957 206.3795 206.3795
   206.8600 207.7486 207.7486 208.4940 209.1762 209.1762 210.5145 210.5145
   210.7779 211.8953 212.1779 212.3565 212.3565 212.4501 213.1166 213.1166
   213.4405 213.4943 213.4943 213.8465 214.8623 214.8623 215.5570 215.5570
   216.3865 216.3865 216.6582 217.3294 217.3294 217.8610 218.1598 218.1598
   218.3079 218.8310 218.8310 219.2787 219.3987 219.5926 219.5926 219.7217
   219.7217 220.3112 220.6898 220.9129 220.9129 222.7351 222.7351 223.4200
   223.4200 223.6273 223.6969 223.8785 223.8785 224.4465 224.4557 224.4557
   224.5858 224.6383 224.6383 225.3430 226.5544 226.5544 227.6227 227.6227
   228.3941 228.4174 228.5740 230.2765 230.2765 230.3269 230.7620 230.9481
   230.9481 231.6750 231.7170 231.7170 232.0270 232.0270 232.5565 232.8172
   233.8775 233.8775 234.3721 234.3721 235.1013 235.1013 235.2299 235.2670
   235.3517 235.3517 235.7867 236.2877 237.0712 237.0712 238.4908 238.4908
   238.8496 239.3931 240.6515 240.6515 240.8296 240.8546 240.8546 241.0830
   243.2350 243.2350 243.3710 243.4215 243.4395 243.4395 245.0762 245.0762
   245.2053 245.3701 245.3701 245.4326 245.6339 245.6339 245.7625 245.7625
   245.7800 246.0352 246.2395 246.7179 246.8960 246.8960 247.0260 247.0260
   247.2557 247.4151 247.4151 247.6297 247.6297 247.7942 248.9509 248.9509
   249.3895 249.3895 250.1076 250.3567 250.4580 250.6531 250.8220 250.8220
   251.1543 251.1543 252.2984 252.2984 252.3848 252.3848 252.6863 252.7941
   254.7873 254.8622 254.8887 254.8887 255.3717 255.3717 255.4728 255.9143
   258.3622 258.3622 259.2373 259.2373 259.7651 259.9360 259.9561 259.9561
   260.4053 260.4053 263.2000 263.2000 265.1290 265.1290 265.2221 265.7714
   266.0196 266.0196 266.0573 266.0573 266.4217 266.8432 266.8432 267.0183
   267.0211 267.0724 267.0724 267.1234 267.8121 268.0726 268.0726 268.1512
   268.1512 268.9080 269.1310 269.1310 269.6020 269.6105 269.7490 270.4653
   270.4653 270.9116 270.9116 271.2700 272.0362 272.0362 272.2161 272.6799
   272.6799 272.8020 272.8020 272.8661 276.5921 276.5921 276.8417 276.8417
   277.1033 277.2209 277.2209 277.6463 277.6463 277.6474 277.7591 278.0802
   278.3464 279.2703 280.0426 280.0426 280.4832 280.4832 280.4927 280.8156
   281.6816 281.8736 281.8736 282.7692 282.7692 283.3561 283.8597 283.8597
   284.0210 284.5724 284.5724 285.1554 285.1554 285.1744 285.1744 285.6869
   286.0239 286.4602 286.7990 286.7990 287.1018 287.1018 287.8729 287.9286
   287.9286 288.1149 288.2480 288.2480 290.0209 290.0209 290.1286 290.1286
   290.1460 290.3455 290.8395 290.8395 291.0877 291.0877 291.3500 292.0168
   292.2953 292.4080 292.4080 292.4576 292.6013 292.6013 294.2123 294.2123
   294.3829 294.3829 294.5224 294.7246 295.5245 295.5245 295.5334 295.8354
   295.8354 296.0005 298.1846 298.2407 298.2407 298.5682 298.5682 298.7561
   299.7815 300.0396 300.0396 300.3613 300.4658 300.4658 300.8053 301.6020
   301.6940 301.6940 301.9961 301.9961 302.1651 302.2120 302.2120 302.5333
   302.5333 302.5539 303.1802 303.1805 303.1805 303.1941 303.1941 303.2251
   305.8288 305.8288 306.2493 306.5582 306.5582 306.7107 307.4577 307.6681
   307.9204 307.9204 307.9444 307.9444 308.0590 308.0677 308.6609 308.6609
   308.7746 308.9465 308.9465 309.1955 310.1464 310.1464 310.2095 310.2095
   311.1896 312.3427 312.3427 312.4600 312.4770 312.4770 312.6875 312.9160
   312.9270 312.9270 313.2063 313.2063 313.5482 313.5482 313.5922 313.5922
   313.8034 313.8119 315.1804 315.4158 315.5508 315.5508 315.6894 315.6894
   315.8071 316.1921 318.9402 318.9402 319.1774 319.1774 320.3223 320.3885
   322.2202 322.2972 322.2972 322.4211 322.4211 322.5267 323.8750 323.8750
   324.0172 324.0172 325.1844 325.1844 325.6643 326.5295 326.5295 326.8606
   327.1551 327.4355 327.4355 327.4843 327.4843 328.0137 329.0075 329.0075
   329.1362 329.1362 329.3009 329.4674 329.5013 329.5013 329.5617 329.5617
   329.6938 329.7324 329.8373 329.8373 329.8807 329.8807 330.1560 330.2311
   331.9045 331.9545 331.9545 332.1186 332.1186 332.2309 334.7610 334.7610
   334.9384 334.9866 334.9866 335.3857 337.4350 337.4441 337.5744 337.5744
   337.5932 337.5932 338.9426 338.9426 339.0302 339.0802 339.0802 339.4966
   339.5779 339.7995 339.8750 339.8750 340.0441 340.0441 340.9527 341.1419
   341.1419 341.2182 341.2182 341.3307 341.3871 341.3871 341.4826 341.4826
   341.6060 341.7004 342.7412 342.8012 342.8217 342.8217 342.8302 342.8302
   345.6890 345.6890 345.7086 345.7086 346.0673 346.0743 347.7529 348.5182
   349.2672 349.2672 349.5327 349.8861 349.8861 350.2506 350.8482 350.8482
   351.2979 351.2979 351.8464 352.1618 352.7676 352.7676 352.8836 352.8836
   352.8839 353.0537 353.8781 353.8781 353.8848 353.8848 354.4830 354.8874
   355.2065 355.2065 355.2477 355.2477 355.7241 355.7805 356.8303 356.8303
   356.8394 356.8394 357.3041 357.5760 358.1571 358.1571 358.1945 358.2858
   358.2858 358.5547 359.6195 359.6393 360.2734 360.2734 360.3060 360.3060
   361.1419 361.2344 361.2344 361.2973 361.2973 361.5010 361.9141 361.9141
   361.9259 361.9259 362.3304 362.3446 363.3658 363.4067 363.4168 363.4168
   363.4387 363.4387 363.5574 363.5574 363.6100 363.6100 363.6594 363.7216
   366.9411 367.1230 367.1230 367.5003 367.5003 367.6330 368.4513 368.4513
   368.6344 368.7706 368.7706 369.1327 369.4007 369.4007 369.4684 369.4684
   369.9475 370.0550 370.4068 370.4191 370.7492 370.7492 370.7582 370.7582
   371.3534 371.3534 371.6073 371.6073 371.6999 371.9715 372.7029 373.1545
   374.7565 374.7623 374.7623 374.7784 374.7784 374.8258 375.6470 375.6470
   375.6540 375.6540 377.1634 377.1634 377.3407 377.3407 377.3863 377.5570
   378.1318 378.1318 378.1761 378.2112 378.2112 378.6271 378.9215 378.9215
   379.1101 379.2700 379.2700 379.4817 380.5800 380.9628 380.9628 381.3678
   381.3678 381.7645 382.0773 382.3561 382.3561 382.3727 382.3727 382.8929
   383.2599 383.2599 383.3486 383.4756 383.4756 383.8163 383.8552 384.0575
   384.0575 384.1379 384.2254 384.2254 384.3964 384.4701 386.5186 386.5186
   386.5398 386.5398 389.5422 389.5422 389.5444 389.5444 389.8934 389.8934
   390.0071 390.0071 390.0474 390.0652 390.4814 390.4819 391.9234 391.9234
   391.9488 391.9524 391.9524 392.0351 395.4856 395.4856 395.7856 395.8054
   395.8054 396.5326 398.6964 398.6964 398.7760 398.9305 398.9305 399.1075
   399.3308 399.3990 399.3990 399.4047 399.4760 399.4760 399.5873 399.7723
   399.7723 399.8969 399.8969 399.9113 399.9680 399.9680 400.0436 400.2672
   400.2672 400.3690 401.3288 401.5434 401.6791 401.7343 401.7343 402.1030
   402.1030 402.2892 403.3545 403.3545 403.3703 403.3703 403.4562 403.4804
   403.7991 403.7991 404.0877 404.0877 404.1372 404.3406 404.3583 404.4097
   404.4097 404.6622 404.6622 404.9795 405.1530 405.1530 405.1570 405.1963
   405.1963 405.3980 405.4126 405.4496 405.4496 405.5376 405.5376 405.5603
   410.1538 410.1538 410.1693 410.1693 410.4732 410.4947 410.5626 410.5626
   410.5670 410.5670 410.9867 410.9867 411.0861 411.0861 411.1117 411.1535
   411.5446 411.5687 411.5687 411.6236 411.6236 411.6562 413.4999 413.5786
   413.5786 413.6672 413.6672 414.0849 418.2007 418.2007 418.2419 418.2419
   418.2775 418.2950 420.7983 420.7983 420.9299 420.9598 420.9598 421.1031
   421.1571 421.1571 421.2448 421.2792 421.2792 421.3679 423.2467 423.4344
   423.4344 423.5601 423.5601 423.7568 423.9087 423.9087 423.9839 423.9839
   424.1378 424.1734 428.3470 428.5312 428.5312 428.5900 428.6226 428.6226

          k = 0.0000 0.5000 0.0000 (  2786 PWs)   bands (ev):

   -95.3132 -56.8015 -56.8015 -56.8015 -20.2555 -20.2515 -20.2515 -20.2270
   -20.2250  -1.8816   4.8096   6.6467   6.6467   9.7552  11.0616  13.5336
    13.5336  14.5157  16.6388  17.5089  19.1989  19.1989  19.7707  23.0012
    23.0012  23.9016  25.0652  25.7792  29.4932  30.6959  30.6959  31.1540
    31.7214  31.7214  33.1505  34.4647  36.2208  36.7409  37.3318  37.3318
    37.9490  37.9490  39.4449  39.4449  39.5518  40.2085  41.0746  41.1038
    42.4730  43.2850  43.2850  45.2406  46.4539  46.5894  46.5894  47.1979
    47.9882  47.9882  47.9999  48.6608  50.0283  51.1597  52.6100  52.6100
    55.9823  56.0824  56.0824  56.6118  58.1189  58.9332  58.9332  59.3466
    61.1048  61.5464  61.5837  61.5837  62.7465  63.0704  63.0704  63.5552
    64.9529  65.1718  65.1718  65.9259  66.4240  67.4284  68.2874  68.2875
    70.0487  71.3627  71.5779  71.5779  74.2471  74.3918  74.4507  74.4507
    75.8498  76.5727  76.7707  76.7707  76.8680  77.4950  77.9296  77.9296
    78.3475  79.0821  79.7751  79.7751  79.8389  81.8441  82.4213  82.5525
    82.5525  83.4372  84.1602  84.1602  84.4594  84.7567  85.7241  85.9338
    85.9338  86.6824  86.9911  86.9911  87.1552  88.2066  88.2067  88.2985
    89.2841  89.2841  89.3032  89.6709  89.7590  93.3301  93.4425  93.4425
    93.9255  95.1725  95.1725  95.9252  96.3236  97.3303  98.4017  98.4017
    98.9583  99.4080 100.0562 100.7895 100.7895 100.9093 101.0311 101.1253
   101.1253 102.1250 103.0194 103.0194 104.3548 104.4402 104.4402 105.8343
   106.2827 106.7927 106.7927 107.2102 108.7138 108.9567 109.2877 109.2877
   109.3416 110.6285 110.8672 111.2238 111.2238 111.9080 113.1776 113.8158
   113.9295 113.9295 115.3928 115.3928 115.5551 115.6644 116.4118 116.8352
   116.8352 117.3798 118.2967 118.6891 119.3045 119.5560 119.5560 120.3364
   120.3364 121.5937 122.5121 122.6695 122.8160 122.8160 122.9577 123.7633
   124.9552 124.9552 125.4941 126.6287 126.7666 126.7666 127.2968 128.0107
   128.0107 128.5393 128.6110 128.9576 128.9576 130.5069 131.1815 131.5168
   131.6216 131.6216 131.9508 132.2879 132.2879 132.4520 133.6627 134.1143
   134.6995 134.6995 134.7261 135.2545 135.9378 135.9378 136.8433 137.1790
   137.4848 137.4848 138.7769 139.4329 139.4329 140.4405 140.4405 140.5483
   140.8311 141.3392 141.6375 141.6375 142.7236 142.9313 143.2884 144.3029
   144.9841 144.9841 145.8885 146.7950 146.8874 146.8874 147.1220 147.1220
   147.8633 147.9023 148.6302 149.3060 149.3060 149.7584 150.3974 150.4434
   150.4434 151.0391 151.7154 152.6375 152.8499 152.8499 153.0097 153.5559
   153.5654 153.5654 154.3376 154.5104 154.6063 154.6538 154.6538 155.6676
   155.6677 155.9616 155.9736 155.9736 156.1452 156.6649 157.2445 157.2658
   157.2658 159.1895 159.7498 159.7498 159.9445 160.0646 160.6507 160.6507
   160.6747 160.9619 161.9474 162.6307 163.6012 163.8015 163.8015 164.1465
   164.3311 164.3311 164.4608 165.6399 165.9114 166.1856 166.1856 167.4988
   168.0226 168.0226 168.4363 169.7523 170.3989 170.4458 170.8532 172.1019
   172.1019 172.3529 172.3529 173.6369 173.7201 173.9543 173.9543 174.7722
   174.9200 175.5504 175.5504 176.2499 178.5673 178.5673 180.0455 180.7659
   180.8319 181.4094 181.4094 181.5968 181.7205 181.7205 181.9904 182.2743
   182.6561 182.7008 182.7008 183.2503 183.7707 183.7707 184.0609 184.6528
   184.7903 184.7903 185.4740 186.5864 186.5864 186.7749 187.3519 187.7287
   187.7991 187.7991 189.4762 190.0304 190.6145 190.9742 190.9742 192.4328
   192.6054 192.7045 192.7045 193.8405 194.1691 194.1691 194.3203 194.9717
   194.9717 195.2754 195.2962 195.2962 195.6547 195.9251 196.4456 198.1294
   198.1294 198.3052 198.5873 198.6842 198.6842 198.9120 199.5531 199.6225
   200.0229 200.3586 200.3586 201.2094 201.2482 201.2482 201.2974 201.4972
   201.9027 201.9027 202.5134 202.8786 203.0313 203.0313 203.5516 204.0506
   204.0506 204.3059 204.3856 204.4455 204.5944 204.5944 204.7105 205.4814
   205.4814 205.7196 206.2776 206.8040 207.0163 207.0163 207.0552 207.3493
   207.5796 207.5796 207.9972 209.2461 210.1072 210.1072 210.3196 210.6848
   210.8597 210.8597 212.0237 212.3629 212.4088 212.4088 212.6090 214.5589
   215.9381 215.9381 216.0063 216.1999 216.5758 216.7496 216.9904 216.9904
   217.1786 218.1313 218.2082 218.2082 219.0343 219.3782 219.7313 219.7313
   219.9670 220.3223 220.3991 220.3991 220.5379 221.3452 222.0792 222.4775
   222.4775 222.8799 222.9156 224.4980 224.4980 225.9552 225.9552 226.0992
   226.2928 226.3166 226.4935 226.5323 226.5323 226.9200 226.9200 227.4156
   227.4311 227.9792 227.9792 228.2856 228.7836 228.8160 228.8160 229.9187
   229.9579 229.9579 230.7629 231.1102 231.3784 232.0117 232.3713 232.3713
   232.8958 233.1585 233.7098 233.7098 233.8209 233.9178 234.3917 234.3917
   234.9615 234.9616 235.4227 236.2546 236.2546 236.7638 236.8485 237.4910
   238.5985 238.5985 239.3524 240.1022 240.2405 241.0012 241.3134 241.3134
   241.7344 241.7344 241.8036 241.8539 242.3546 242.5306 242.5407 242.5407
   242.7693 242.7693 243.1608 243.3414 243.5022 243.5060 243.5060 243.6449
   245.0882 246.1156 246.1156 247.0641 247.3303 247.3303 247.3733 247.4715
   247.4899 247.9558 247.9558 248.2078 248.7316 249.4738 249.4738 250.0692
   250.6105 250.6105 250.9091 251.1558 251.7908 251.8721 251.8721 251.9901
   252.8898 252.8898 253.0531 253.2066 253.2138 253.8754 253.8754 254.2546
   254.3879 254.8776 255.1401 255.1401 256.0528 256.9103 256.9103 257.7886
   258.6967 259.3996 259.3996 260.4115 260.9044 260.9044 261.8828 262.4357
   262.7658 263.9081 263.9081 264.3133 264.4737 264.7425 264.7425 264.9396
   265.7017 265.7017 265.9570 266.5658 267.1650 267.2084 267.2084 267.7807
   268.2535 268.2535 268.4262 268.4522 268.9572 269.1508 269.1616 269.1616
   269.2032 269.8200 269.8200 270.1723 270.2061 270.5998 270.5998 271.0205
   271.1454 271.9178 271.9178 272.7248 273.0448 273.3542 273.3951 273.3951
   273.8827 273.9103 273.9103 273.9666 274.4091 274.6902 274.6902 275.3346
   275.5619 275.6374 275.6374 275.8807 276.8471 277.0818 277.0818 277.1356
   277.8416 278.3002 278.8649 278.8649 279.0650 279.5058 279.8046 280.7375
   280.7375 281.4807 281.6309 281.8456 281.8456 282.2817 282.8852 282.8852
   282.9661 283.3268 285.4195 285.7284 285.7284 286.1755 286.4102 286.4102
   286.8848 287.9019 287.9420 288.2590 288.2590 288.7498 288.8353 288.8864
   289.1266 289.6201 289.6201 289.8393 290.2808 290.3924 290.3924 290.5439
   290.5439 291.3508 291.3508 291.4888 291.5433 292.2701 292.6462 292.6462
   292.7616 292.8912 293.6415 293.7881 293.7881 293.7990 294.2888 294.2888
   294.2970 294.3646 295.0629 295.0629 295.2582 295.5717 295.8448 296.0616
   296.0616 296.5141 296.5541 296.5669 296.5669 296.8444 296.8444 296.8635
   298.5853 298.8123 298.8123 299.6238 299.8130 300.0455 300.2607 300.2607
   300.7196 301.4990 301.7407 301.7407 302.0630 302.0630 302.1403 302.3826
   303.2864 304.0056 304.4328 304.4497 304.4497 307.3658 307.3658 307.5090
   307.7827 308.2077 308.5780 308.5780 308.8029 309.0493 309.5534 309.5534
   309.6382 310.0133 310.4432 310.4432 310.5407 310.7125 310.9448 311.0273
   311.0273 311.6795 311.6795 311.8128 311.9464 312.1224 312.1224 312.1794
   312.2911 312.4480 312.4480 312.5578 313.3772 313.4221 313.6069 313.6069
   313.9986 314.7576 315.5321 315.6139 315.6938 315.6938 315.8716 315.8716
   315.8969 316.3581 316.4865 316.5337 316.5337 316.8244 317.1382 317.1606
   317.1606 317.7494 317.7518 317.7518 317.9323 318.6348 318.6348 319.0011
   319.1059 320.4882 320.6496 320.6496 321.0597 321.1542 321.4762 321.6334
   321.6334 321.6976 321.7659 321.7659 321.7989 321.9008 322.0259 322.0259
   322.3342 322.5076 322.5076 322.5587 323.1195 323.5541 323.6383 323.6383
   323.8075 325.3518 325.3518 325.4511 325.6911 325.7500 326.0043 326.0043
   326.4285 327.8340 328.2974 328.2975 328.7371 328.8234 328.8234 328.8443
   328.9042 329.4185 329.5171 329.5171 329.6333 330.3232 330.6759 330.6759
   330.9394 335.3240 335.3359 335.3359 335.7998 337.4006 338.1432 338.1432
   338.2662 338.3651 338.3651 338.8409 338.9014 339.0388 339.3133 339.3133
   339.3376 339.6590 340.0115 340.0115 340.5377 340.6182 340.7432 340.7432
   340.9178 341.1359 341.4387 341.4387 341.7468 341.9304 341.9304 342.0615
   342.4243 343.5230 344.2408 344.2961 344.2961 344.7587 344.7587 344.8178
   345.1158 346.0182 346.2999 346.2999 346.4801 346.8694 347.4690 347.4690
   347.9693 348.1451 349.0005 349.0147 349.0147 350.4893 350.6330 350.7657
   350.7657 350.9430 351.1904 351.1904 351.1985 351.2238 351.4963 352.0501
   352.1478 352.2744 352.2744 352.3524 352.3524 352.6243 352.8609 353.4134
   353.8991 353.8991 354.2657 354.2657 354.6230 355.0196 355.3644 355.4482
   356.1946 356.1946 356.4881 356.5247 356.6994 356.6994 357.0712 357.7283
   357.7479 357.9179 357.9179 358.0495 358.0495 358.1803 358.2423 358.6346
   358.6346 358.6702 359.1956 359.9136 359.9764 361.1793 361.5465 361.5465
   362.0143 362.0440 362.0440 362.0971 362.1295 362.1295 362.6282 365.4130
   365.4130 365.5167 365.7316 366.0289 366.0289 366.0819 366.1812 366.2843
   366.3932 366.3932 366.4583 366.7167 366.7167 366.8966 367.4822 367.4822
   367.8422 367.8894 367.9459 367.9459 368.1968 368.9891 369.3172 369.3537
   369.3537 369.3996 369.4700 369.4700 369.7544 370.0316 371.1096 371.3221
   371.3221 371.6213 371.6683 371.6684 371.8044 371.8098 373.3529 373.4175
   373.4175 373.4966 374.0725 374.1151 374.1151 374.4553 374.6954 374.7532
   374.7532 374.8429 376.4040 378.7427 378.7427 379.3195 379.3195 379.3434
   379.3482 379.8406 380.1932 380.1932 380.6233 381.5665 381.8557 382.1281
   382.1281 383.2384 383.4757 384.2807 384.2807 384.4833 384.9072 384.9079
   385.0233 385.0233 385.3228 385.3228 385.5211 385.5363 385.6951 385.9382
   385.9383 385.9383 386.0643 386.7482 386.9215 386.9215 388.1742 388.1742
   388.2018 388.3026 389.4452 389.4452 389.4996 389.8268 390.5878 390.6026
   390.6026 390.6359 391.3567 391.3852 391.3852 391.4612 391.6083 392.3529
   392.3529 393.1160 393.1160 393.3369 393.4832 393.6779 394.1296 394.1296
   394.3111 394.5531 395.0394 395.1063 395.1063 395.2290 395.7964 396.0338
   396.0338 396.4724 396.6592 396.6592 396.8129 397.0137 397.4092 397.5568
   397.5568 397.6795 398.1116 398.3583 398.3583 398.5110 398.8645 398.9311
   398.9311 399.0412 399.5421 399.7423 399.7423 400.0892 400.1543 400.1543
   400.1823 400.5413 400.5482 400.8290 400.8290 400.9145 402.6281 403.2126
   403.2126 403.8237 405.0874 405.0874 405.1295 405.1687 405.5959 406.0056
   406.0408 406.0408 406.2008 406.2008 406.2961 406.5130 406.9980 407.0233
   407.0233 407.2833 407.7988 408.1687 408.1687 408.7123 408.9576 408.9576
   408.9821 409.0824 409.5326 409.5326 409.5430 409.6068 410.7886 410.9143
   410.9143 411.4987 412.7152 412.7860 412.8918 412.8918 413.1288 413.1644
   413.1644 413.3944 413.5421 413.5421 413.6250 413.7689 414.4632 414.6150
   414.6773 414.6773 414.6915 414.7511 414.8777 414.8777 414.9472 415.4698
   415.4857 415.4857 415.6103 415.6103 415.8389 416.0141 416.0565 416.1769
   416.1769 416.2714 416.9775 417.0189 417.0189 417.0331 417.0411 417.5247
   417.5247 418.0951 420.7194 421.3619 421.3619 421.4083 421.5018 421.5255
   421.5255 421.6673 421.6673 421.6890 421.6930 421.9515 422.4926 422.7512
   422.8740 422.8740 423.0126 423.0126 423.0529 423.0722 423.1884 423.1884

          k = 0.7500-0.2500 0.7500 (  2745 PWs)   bands (ev):

   -95.3106 -56.8015 -56.8015 -56.8015 -20.2547 -20.2506 -20.2501 -20.2268
   -20.2248  -1.0275   3.0182   5.3768   6.3777   9.9543  12.2542  13.1991
    13.7365  16.9375  17.5749  18.6774  18.9427  19.2513  22.3857  23.2117
    23.8523  24.4346  24.7252  25.2778  26.6774  28.5088  28.7181  29.5548
    30.8902  31.3336  31.9333  32.1202  33.6433  34.7480  35.9931  36.6064
    37.4171  37.8716  39.0813  39.3906  40.7681  42.1250  42.8787  43.6155
    43.7638  43.8524  45.2430  45.3308  46.9944  47.3687  47.8678  48.1738
    49.3382  50.0757  51.4707  51.5201  52.0815  53.1806  53.9746  54.5584
    54.7667  55.6723  56.2243  56.3697  57.3962  58.2225  58.7950  58.8015
    59.4678  59.5409  60.3731  61.2132  61.7737  62.3043  63.0038  63.8792
    64.6321  64.7412  64.8808  65.6762  65.7731  66.7070  67.3941  68.7466
    68.8901  69.3389  70.0759  70.0891  71.8969  71.9260  72.4102  73.0867
    73.1268  73.6718  75.4696  75.8456  75.8977  76.6571  76.9598  78.0237
    78.1202  78.4272  78.7257  79.2959  80.3905  80.4129  81.2269  81.3544
    82.7317  83.8199  84.1498  84.6375  85.6479  85.8441  86.1190  86.4813
    86.9330  87.6553  87.7732  88.6033  88.9920  89.7958  90.1602  90.4781
    91.2553  92.0895  92.6014  93.0108  93.0532  93.2927  94.2624  94.7616
    95.1498  96.0277  96.4315  96.7545  96.9594  98.0042  98.8459  99.1776
    99.7485 100.4697 100.6753 101.0648 101.1343 101.9009 101.9745 102.8097
   102.8247 103.3962 103.6301 103.9356 104.4026 105.5543 105.8467 105.9789
   106.6870 107.2474 107.2811 107.8317 108.3584 108.4677 108.9804 109.3537
   109.8715 109.9723 110.5562 110.6183 110.8084 111.2536 111.5048 112.2823
   113.0647 113.1109 113.6374 114.2482 114.9679 115.0802 115.2972 116.0556
   116.5572 116.7657 117.2226 117.4702 117.8718 118.8013 118.9764 119.2345
   119.8995 120.0826 120.6891 121.1885 121.6550 121.7024 122.5955 122.9175
   123.4330 124.1648 125.0217 125.2552 125.2726 125.5994 126.2459 126.7860
   127.1114 127.4619 127.7478 127.9682 128.5064 128.9574 129.2596 129.9687
   130.3855 131.3722 131.8494 131.8580 132.3899 132.6757 132.9441 133.4766
   133.7271 134.0582 134.5476 134.5509 135.4069 135.8530 136.0195 136.1899
   137.1698 137.4689 138.0100 138.7696 138.9722 139.4532 139.8570 140.2758
   140.3936 141.2306 141.5183 141.8096 142.4627 143.5175 143.8939 144.3247
   144.4154 145.1196 145.2669 146.0634 146.3581 146.5732 146.9800 147.4159
   147.9421 148.1659 148.4181 148.4715 148.9824 149.9950 150.1805 151.1150
   151.2097 151.5093 151.8818 152.6740 152.7157 153.4108 153.4702 154.0095
   154.1920 154.5973 155.0834 155.4251 156.0142 156.5552 156.7327 157.3377
   157.5764 157.9086 158.6045 158.8407 159.0444 159.6814 159.9529 160.4733
   160.9582 161.0604 161.7468 161.8264 162.0669 162.7008 163.3329 163.5112
   163.7087 164.0153 164.2171 164.5949 164.6174 165.6783 165.9399 165.9638
   166.2272 166.8598 167.7123 167.8606 168.2688 168.2976 168.6811 168.7624
   169.3394 169.7975 169.9191 170.2128 170.5102 171.2185 171.4745 172.3253
   172.3637 172.7636 173.0657 173.6867 173.7175 174.1332 174.3393 174.8008
   175.4776 175.7126 176.0533 176.6254 176.6552 177.1663 177.2107 177.8451
   178.1497 178.4205 179.5716 179.6569 179.8786 180.0550 180.3588 181.2283
   181.3585 181.7135 181.9242 182.1178 182.3544 182.9400 182.9698 183.8527
   184.1434 184.2081 184.7321 185.0274 185.5290 185.5663 186.0799 186.0848
   186.8181 186.9917 187.5066 187.8890 188.3305 188.7552 189.0170 189.1480
   189.4063 189.8776 190.4291 190.6668 191.0377 191.3458 192.0949 192.3261
   192.6385 193.2052 193.2965 193.7674 194.0679 194.2242 194.4991 194.8661
   195.4645 195.5748 195.7028 195.9593 196.4541 196.5517 197.0768 197.3597
   197.8766 198.1102 198.5558 198.5824 199.1732 200.2427 200.5909 201.1537
   201.3061 201.6113 201.7466 202.6251 202.7206 202.8522 203.0222 203.2348
   203.7237 203.9228 203.9470 204.7925 204.8152 205.1606 205.4911 205.6941
   205.9991 206.3377 206.6748 206.8042 207.4070 207.4932 208.2213 208.3143
   208.9153 209.0305 209.3551 209.5804 210.3110 210.3970 210.4323 211.0504
   211.3260 212.0888 213.3947 213.4931 214.0375 214.1868 214.9918 214.9958
   215.5075 215.8121 216.0182 217.0842 217.1525 217.3574 217.8337 218.1285
   218.4419 218.6474 218.7883 219.4003 219.5900 220.2426 220.3346 220.5126
   220.8773 221.3259 221.3802 222.2505 222.3520 222.6698 223.5409 223.5523
   224.1618 224.1652 224.6248 224.8921 224.8938 225.2935 225.5990 225.6924
   225.8469 225.9850 227.1872 227.2934 227.6856 227.8169 228.1521 228.3692
   228.5309 229.2354 229.3950 229.5079 229.7620 229.9620 230.2699 230.7275
   230.9614 232.0214 232.2046 232.5514 232.6773 233.1593 233.2491 233.6698
   233.7915 234.1247 234.3232 234.5335 234.7290 234.8660 234.9513 235.1508
   235.3174 235.5678 236.1386 237.4333 237.4335 238.4915 238.5634 239.1314
   239.7117 239.9548 240.2217 240.8343 240.9330 241.2936 241.6852 241.8706
   242.4464 242.7044 242.9507 243.1289 243.3930 243.4367 243.8915 243.9436
   244.2853 244.5063 244.6311 245.3159 245.4422 245.5512 245.6705 245.8151
   245.8289 246.1036 246.5022 246.8933 247.1864 247.8317 247.9225 248.2890
   248.3759 248.7771 248.8911 249.0860 249.3787 249.9720 250.1461 250.1647
   250.3681 251.5468 251.6716 252.2887 252.3182 252.8072 253.4627 253.4898
   253.8025 254.2666 254.3128 255.0931 255.4440 255.8899 256.4446 256.5039
   256.7112 256.8934 257.0054 257.1345 257.2562 257.3331 257.4869 257.5870
   258.4001 258.7191 259.5463 259.7269 259.7957 260.7191 260.7478 261.0750
   261.4560 261.9893 262.3491 262.7442 262.9751 263.1050 263.4704 263.6768
   264.2140 264.3045 264.6714 264.7258 264.7546 265.4177 265.5930 265.9059
   265.9552 266.4255 266.7067 266.8457 267.2088 267.3931 267.7089 267.7435
   267.8713 268.0157 268.1201 268.2829 268.3845 268.8126 269.2654 269.3517
   269.7491 269.9426 270.0915 270.8764 271.5427 271.7598 272.1303 272.4601
   272.8426 273.2924 273.6062 273.9465 274.0408 274.3426 274.4751 274.7028
   274.9012 275.2148 275.2869 275.6140 276.0046 276.4963 276.6780 276.7706
   277.0500 277.2447 277.3750 277.7239 278.0952 278.3242 278.8182 278.8201
   279.3035 280.0213 280.0298 280.3268 280.4397 280.6677 281.4821 281.6498
   281.7783 282.1526 282.7916 282.9330 283.2368 283.3706 283.5359 283.6214
   283.8215 284.1114 284.6680 284.7730 284.8548 285.1303 285.7040 285.8033
   285.9454 286.3195 287.3022 287.3649 287.5494 288.1193 288.6560 289.3906
   289.5953 289.8552 290.3756 290.4254 290.9755 291.9633 292.2815 292.4808
   292.7754 292.9769 293.2274 293.4463 293.5955 293.6417 293.7415 294.0260
   294.0934 294.2204 294.4016 294.5860 294.6561 294.9291 295.0609 295.2503
   295.6010 296.5249 296.7702 297.0489 297.5451 297.5706 297.7632 297.9220
   297.9647 298.2897 298.3748 299.3759 299.6330 299.6491 300.2640 300.6000
   301.2554 301.3313 302.0007 302.0598 302.4867 302.4901 302.8490 303.0483
   303.6482 303.7675 304.0497 304.5387 304.6604 305.2807 305.5187 305.8154
   305.8201 306.2917 306.3460 306.4781 307.4100 308.2620 309.0768 309.1991
   309.4676 309.5558 309.8068 309.9313 309.9442 310.5122 310.7790 310.8256
   310.9613 311.0140 311.1950 311.3137 311.7133 311.8078 311.8299 312.4326
   312.6767 312.8291 313.0521 313.5777 313.5796 314.1473 314.2553 314.4005
   314.5692 315.3422 315.6531 315.8318 316.1523 316.4635 317.1679 317.3755
   317.3922 317.7141 318.2335 318.4580 318.7412 318.7944 319.1800 319.2038
   319.5311 319.7725 320.1567 320.5870 320.7114 321.2837 321.4516 321.6695
   321.7202 321.9283 322.0292 322.1838 322.4764 322.7962 323.0667 323.2317
   323.5127 323.8654 323.9809 324.0339 324.5908 324.7072 324.9393 325.2389
   325.3072 325.7702 326.2688 326.3837 326.6667 327.0038 327.3743 327.7709
   327.7800 327.9142 328.0270 328.3957 328.7719 328.8248 328.9744 329.0470
   330.1737 330.3255 330.6220 330.8692 330.9411 331.1598 332.3355 332.3657
   332.7783 333.0479 333.8467 334.5690 334.6944 334.9182 335.9809 336.1262
   336.3394 336.4252 336.5597 336.6502 337.2181 337.4371 337.4897 337.7088
   337.7201 338.1177 338.1653 338.2709 338.3217 338.5179 338.6302 339.1302
   339.2040 339.4412 339.5413 339.6827 340.0695 340.4401 340.6755 340.7744
   341.1697 341.5919 341.8983 341.9622 341.9996 342.5640 342.7910 343.2798
   343.6396 344.0213 344.0266 344.5565 344.5863 344.6929 344.8988 344.9866
   345.1343 345.5523 345.6381 346.3086 346.3632 346.7831 346.8076 346.8318
   347.0270 347.4046 347.4758 348.2926 348.7578 349.0010 350.0309 350.0491
   350.1787 350.1858 350.4553 350.7785 350.9454 350.9717 351.0726 351.1133
   351.1274 351.4309 351.5706 351.7720 352.3442 353.0232 353.2998 353.6054
   353.6069 354.1068 354.1917 354.2962 354.3597 354.6181 354.6782 354.7958
   355.3423 355.6161 356.5003 356.6946 356.7471 357.1585 357.1824 357.3251
   357.5621 357.6233 357.7146 358.1281 358.1390 358.6206 359.2520 359.3111
   359.4422 359.4615 359.6546 359.7484 359.9303 360.2695 360.9932 361.0991
   361.7861 362.1605 362.7396 362.8816 363.0438 363.1210 363.2384 363.5875
   363.9235 363.9267 364.4585 364.4952 364.5330 364.7082 364.7577 365.1263
   365.5618 366.5859 366.6204 366.7507 366.9119 367.3362 367.3690 368.2934
   368.5906 368.7350 368.9964 369.2044 369.2574 369.3111 369.6695 370.1794
   370.4328 370.5244 370.5597 370.8295 370.8841 370.9218 371.0202 371.0597
   371.3212 371.4240 371.5282 371.9508 372.0013 372.1314 372.2718 372.3119
   372.6584 373.4421 373.7938 373.9123 374.0256 374.0549 374.5732 374.8491
   374.8526 375.0301 375.1736 375.7759 375.8315 375.9475 376.0624 376.3028
   376.3673 376.6209 376.9618 377.0607 377.8953 379.4127 379.9277 380.0658
   380.2501 380.4978 380.7647 380.9076 380.9952 381.1211 381.1574 381.5963
   381.9598 382.1140 382.1200 382.4004 382.8406 383.3434 383.5207 383.8967
   384.0657 384.4397 384.5213 384.6146 384.9429 385.2681 385.3053 385.4222
   385.5540 385.8513 386.2258 386.2526 386.4330 386.7900 387.1783 387.6370
   387.9242 388.5060 388.7998 388.8387 389.5026 389.7755 389.8296 389.8710
   389.9675 390.0456 390.0797 390.1259 390.2156 390.5881 390.7808 390.9846
   391.4412 391.4806 391.5181 392.0067 392.4192 392.4882 392.5635 393.4179
   393.7848 394.5260 394.5811 394.7945 394.9719 395.7434 395.8111 396.4473
   396.8348 397.1519 397.4046 397.4105 397.5256 398.0890 398.4104 398.5350
   398.8122 399.0022 399.3404 399.4667 399.4677 399.5990 399.9599 400.0505
   400.1373 400.2153 400.2415 400.5648 400.5801 401.0155 401.4086 402.2965
   402.4769 402.5812 402.7656 402.8674 402.9589 403.1720 403.3460 403.7552
   403.7999 404.2860 404.3445 404.9344 405.1004 405.1541 405.3944 405.4249
   406.8135 406.9198 407.0158 407.1956 407.6045 407.9240 408.1745 408.2103
   408.7249 408.8285 409.0690 409.5167 409.7280 409.8281 409.9021 410.0838
   410.3545 410.4127 410.8592 410.8738 411.0192 411.8448 411.9015 412.0112
   412.0454 412.0915 412.1774 412.3265 412.8877 413.0277 413.7106 413.7708
   413.7856 413.8739 414.1031 414.3383 414.6360 414.6907 416.7236 416.8382
   416.8873 417.1366 417.1442 417.1714 417.7932 417.8608 417.9422 418.3604
   419.0641 419.3891 419.5305 419.5813 419.7942 419.8887 419.9282 420.0641
   420.2034 420.2354 420.4563 420.5010 421.0739 421.1663 421.4408 421.4941
   421.9247 421.9438 422.3381 422.3508 422.7237 422.7408 422.7595 423.5930
   423.5989 424.2445 424.2618 424.3900 424.7774 426.2035 426.2278 426.2816

          k = 0.5000 0.0000 0.5000 (  2742 PWs)   bands (ev):

   -95.3105 -56.8015 -56.8015 -56.8015 -20.2533 -20.2518 -20.2514 -20.2259
   -20.2258  -1.3418   3.5299   5.2565   7.0492  10.5303  12.7027  12.8992
    13.2207  14.5310  16.5137  18.5006  19.1785  19.8386  22.0499  23.2906
    23.3928  24.4320  25.5230  26.5156  27.8681  28.6242  29.1723  30.0145
    30.0233  31.2795  31.5797  33.3136  34.2260  36.3655  36.5777  37.2495
    37.7372  38.0827  38.2446  38.4603  39.3219  39.3383  42.1523  43.4039
    44.0521  44.5560  45.3868  45.6933  47.3227  47.7690  48.4040  48.5644
    49.6489  49.6858  50.3039  51.1626  52.0090  52.3212  53.4304  53.7972
    53.8399  54.7355  55.4696  55.9923  56.1542  57.6492  58.8498  58.9162
    59.5217  59.8491  60.6019  61.5887  62.0995  63.0331  63.4781  63.7739
    64.7287  65.6205  65.7788  65.9015  66.8649  67.4620  68.0272  68.2998
    68.9204  69.0557  70.3197  70.7810  71.0631  73.0795  73.6646  73.8144
    73.9566  74.5506  74.7950  75.2541  75.9835  76.1939  77.3497  77.3968
    77.9688  79.1659  79.6171  80.3017  80.5262  82.0363  82.2355  83.0338
    83.6012  83.6933  84.3684  85.0562  85.1804  85.5523  86.1575  86.6939
    87.0086  87.1830  88.0225  88.8899  88.9145  88.9759  89.9598  90.2617
    90.5356  90.5668  91.5006  91.9011  92.7276  92.8791  93.6680  93.9169
    94.1963  94.6598  95.5957  95.7314  95.9232  96.4270  96.5654  97.4935
    98.1083  99.7476 100.1518 100.3491 101.1230 101.3437 101.6259 102.6240
   102.7336 102.9412 103.9396 104.1062 104.4622 104.9402 104.9879 106.3094
   106.7441 107.2925 107.4171 107.7259 107.9823 108.0445 108.5221 109.5746
   109.7696 110.4246 110.6950 111.1871 111.4680 111.5481 112.9432 113.0817
   114.1131 114.6632 114.7468 114.9475 115.4970 115.5686 115.8971 116.9292
   117.1844 117.3860 117.4718 118.1139 119.0948 119.1249 119.5386 120.2068
   120.8836 120.9073 121.2481 121.4065 122.3033 122.6597 123.2691 123.3447
   123.4846 124.0303 124.3919 124.6197 125.0918 126.1374 126.2335 127.2153
   127.5615 127.7515 128.2420 129.0580 129.1881 129.6640 129.6909 130.1194
   130.5721 130.9213 131.1762 131.8565 132.0147 132.1951 132.2978 133.2233
   133.9716 134.0684 134.1670 135.3358 135.6181 135.7305 135.8951 136.7857
   137.4496 137.7197 138.4935 138.6018 139.9945 140.0627 140.2673 140.5880
   140.8089 141.7144 142.0022 142.4594 142.6866 142.7644 143.0116 143.9543
   144.1589 144.3476 145.0352 145.0554 145.8168 145.9591 147.0591 147.1604
   147.5669 147.8248 148.1382 148.7132 148.9146 149.0432 149.6456 149.8337
   150.2615 150.3102 151.2050 151.3932 152.1649 152.3433 152.3891 153.1108
   153.4977 153.9571 153.9599 154.3807 155.3771 155.7506 156.4521 156.8984
   157.1235 157.3803 157.7154 158.3463 158.6042 159.7886 160.4443 160.5611
   161.1273 161.8874 162.3347 162.4408 162.7184 162.8161 163.2373 163.8564
   164.0675 164.0758 164.2892 164.7954 165.4914 165.6144 165.6968 166.2672
   166.4940 166.7219 166.7893 166.8275 167.4986 167.7692 168.1700 168.1736
   168.8647 169.6778 170.0680 170.6140 170.6619 171.0662 171.1604 171.7614
   172.2370 173.1641 173.6289 173.6381 173.9953 174.0247 174.4402 174.4483
   174.7287 174.8599 175.0542 175.3975 175.9193 177.2166 177.4056 177.9041
   178.4569 178.8142 178.9072 179.8415 180.1169 180.4806 180.8035 181.0143
   182.1061 182.2701 182.4335 182.9144 183.1769 183.5907 183.7736 184.2898
   184.8730 185.0642 185.7172 186.3204 186.5971 186.6197 186.6202 187.1492
   187.4515 187.6256 187.9520 188.0001 188.2032 188.6043 188.8933 189.1465
   189.2520 189.6365 189.7665 190.0194 190.7896 191.5169 191.7408 192.0834
   192.1120 192.5969 193.2407 193.6839 194.0060 194.5478 194.9895 195.1344
   195.5393 195.6364 195.8473 196.5285 197.0366 197.2159 197.4005 197.7821
   198.5203 199.1277 199.4386 199.6078 200.0102 200.2796 200.4636 200.5857
   200.6772 200.8151 201.0213 201.6659 202.4375 202.5158 202.7780 202.9546
   203.4379 203.6357 204.7806 204.7824 205.0750 205.6907 205.9817 206.1683
   206.9622 207.1633 207.4327 207.9873 208.1796 208.2373 208.7572 208.8196
   209.0596 209.3544 210.1652 210.1769 211.5428 212.0339 212.2376 212.5758
   212.9263 213.3281 214.1600 214.5919 214.7239 215.1046 215.3268 215.6394
   216.1018 216.2395 216.9308 216.9893 217.1205 217.2077 217.6808 217.9130
   218.2589 218.4115 218.9223 218.9848 219.3152 219.7752 220.0453 220.9570
   221.4967 221.6696 221.9174 222.0888 222.1555 222.7560 222.8939 222.9236
   223.1997 224.0075 224.1473 224.3093 224.4984 224.6035 224.7478 224.9280
   225.4648 225.7313 225.7393 225.7773 226.4138 226.5946 227.2119 227.7652
   227.8879 229.0460 229.2944 229.7407 230.0796 230.2036 230.4600 230.5846
   230.6920 230.9816 231.1542 231.2376 231.3024 232.5231 232.5343 232.6939
   232.9674 233.0155 233.2434 233.3939 233.5555 234.1592 234.1918 234.4916
   235.0072 235.6890 236.9056 237.8955 237.9219 238.4092 238.5499 238.7713
   239.5144 240.0425 240.1104 240.3012 240.4171 240.8733 241.0061 241.1027
   241.6076 241.8280 241.8508 242.0230 242.0831 242.3766 242.4445 242.5800
   243.9385 244.0425 244.2890 244.3479 244.5404 244.8571 244.9626 245.7213
   245.8797 246.1168 246.1329 246.5696 246.8261 246.8891 247.0661 247.0767
   247.7466 247.9843 248.2172 248.4597 248.8012 249.2519 249.3313 249.5685
   250.4019 251.2506 251.3994 251.5667 253.1017 253.4069 253.6323 253.8586
   254.3305 254.3429 254.3971 254.5599 254.7452 254.7954 255.2040 255.5349
   255.5914 256.3069 256.4507 256.9169 256.9485 257.5328 257.6942 257.9707
   258.3880 258.8742 259.0442 259.2652 259.4515 259.6233 260.5052 260.6182
   260.7004 261.1081 262.1398 262.5636 263.4053 263.7859 264.8447 264.8919
   264.9456 265.0276 265.1662 265.2332 265.5301 265.6508 265.7924 266.1926
   266.2148 266.2780 267.3507 267.4471 267.6782 267.8002 267.8359 268.1337
   268.3489 268.5638 269.2003 269.3881 269.5142 269.7379 270.0539 270.5231
   270.5977 270.5990 270.9835 271.1211 271.3594 271.5344 271.7958 272.2058
   272.4828 272.6528 272.7515 274.5030 274.9380 275.0779 275.4194 275.4358
   275.6886 275.7636 275.9496 276.6961 277.2831 277.5965 277.7900 278.5710
   278.6548 279.1052 279.4338 279.4552 279.8567 280.2077 280.3104 280.5291
   280.5559 280.5776 280.9523 281.3585 281.5468 281.5666 281.7217 282.1749
   282.4797 282.8984 283.0001 283.1344 283.5269 283.7760 284.0271 284.1762
   284.2892 284.6481 285.3624 285.6567 285.8770 286.1137 286.6843 286.6972
   286.9848 287.2637 288.6088 289.0817 289.3718 290.0901 290.2074 290.3159
   290.7552 290.9702 290.9914 291.2439 292.1238 292.2423 292.4390 292.4880
   292.9801 293.0981 293.3388 293.6476 293.8739 294.3498 294.3748 294.4297
   294.5614 294.8696 294.9823 295.2734 295.4738 295.6100 295.7222 296.3718
   296.7124 296.9249 297.6132 297.7396 297.7709 297.8114 298.4621 298.5583
   298.8152 298.9371 299.0089 299.0307 299.4077 299.7768 299.8256 299.9558
   300.4379 300.6089 300.7003 301.2083 301.9743 302.4179 302.4712 302.6435
   303.7019 303.7108 304.4842 304.6700 304.8600 305.2748 305.4874 305.5499
   305.7162 305.7784 305.9964 306.1218 306.3470 306.5978 306.6903 306.9729
   307.7876 307.8596 308.0185 308.0982 308.1273 308.2287 308.3448 308.4422
   308.5029 308.7397 310.0580 310.0937 311.4628 311.5445 311.9015 312.0238
   312.0278 312.0630 312.4064 312.6356 312.8339 312.9917 314.2794 314.4420
   314.8292 314.8508 315.0660 315.0952 316.1731 316.7839 316.8992 316.9314
   317.0709 317.3760 317.6656 317.7040 317.9757 318.1732 318.5472 318.7298
   318.7521 319.0280 319.2952 319.4278 319.7464 320.5440 320.8080 321.0395
   321.2036 321.2507 321.3747 321.9790 322.5262 322.6048 322.8005 322.8486
   322.9362 322.9510 323.0355 323.6234 323.7600 324.5022 325.3034 325.4739
   325.5578 325.9137 325.9254 326.1271 326.2513 326.4594 326.8721 326.9421
   327.8474 328.1586 328.5549 328.6296 329.0505 329.2232 329.3574 329.4744
   330.0037 330.0341 330.6968 330.7055 331.3790 331.4716 331.9861 332.0120
   332.1910 332.6029 332.6747 332.7118 332.8285 332.9048 333.2077 333.6136
   333.7127 333.8842 334.0890 334.2497 336.0661 336.1550 336.3363 337.6624
   337.6726 337.6829 337.7150 338.4407 338.8942 339.2165 339.4677 339.5452
   339.6567 339.6738 339.7124 339.7774 340.1504 340.4058 340.5707 340.9439
   341.2700 341.4403 342.1002 342.1273 342.2432 342.7900 342.8425 343.2991
   343.3549 343.7916 344.0464 344.0956 344.2599 344.4192 344.4638 344.5878
   344.9410 345.0036 345.0110 345.2272 345.5821 345.6128 346.4415 346.4618
   346.4766 347.2492 347.4020 347.5649 347.8113 347.8781 348.9439 349.6420
   349.7781 350.0487 350.1429 350.5393 350.7744 350.7897 351.3485 351.4355
   351.7193 352.0274 352.0552 352.3424 352.4473 352.4519 352.6246 352.6742
   353.0268 353.5105 353.8009 353.8584 354.1527 354.2150 354.2725 355.6186
   355.6268 355.7241 355.9629 356.0550 356.1872 356.9992 357.2116 357.3773
   357.4560 358.1213 358.4430 359.4968 360.2643 360.5311 361.1137 361.1441
   362.2950 362.3660 362.6253 362.6798 362.8385 363.0724 363.2537 363.3624
   363.4761 363.6769 363.7676 363.7829 363.8741 363.9058 364.1002 364.3530
   364.4549 364.4676 364.5651 364.7357 365.6075 365.6571 365.6835 365.7430
   365.8471 365.9155 366.8794 366.9714 367.3577 367.4029 367.6885 368.1211
   368.1688 368.3275 368.6300 368.7057 368.7352 368.9162 369.2122 369.4825
   369.6021 369.7015 369.8191 371.0082 371.1188 371.1443 371.1947 371.3969
   371.7259 371.7879 371.8966 372.1184 372.2396 372.9671 373.5600 373.5694
   373.8743 373.9210 374.0379 374.0680 374.2017 374.7795 375.4307 375.5762
   375.6337 375.7924 376.3069 376.3126 376.5576 376.6986 376.9620 377.2249
   377.2729 377.9810 378.1818 378.2693 379.0280 379.3805 379.5040 379.6000
   379.6394 379.6964 379.8161 380.7645 380.8297 380.9859 381.0686 381.0802
   381.3459 382.3635 382.3759 382.3873 382.4033 384.5452 384.9489 385.0595
   385.2237 385.8023 385.8355 385.9014 386.1196 386.3906 386.5729 387.1093
   387.2089 387.3240 387.4843 387.8164 388.0899 388.1024 388.1524 388.2093
   388.3165 388.4132 388.6518 389.0186 389.0544 389.3401 389.6009 389.6249
   389.6936 390.0183 390.1183 390.4613 390.4678 390.9243 391.0026 391.3506
   391.3897 392.0580 392.2981 392.5076 392.5091 393.2538 393.5106 393.8051
   393.9166 394.0347 394.1724 394.9252 395.0619 395.6773 395.6803 395.7791
   396.1041 396.3911 396.4167 396.9720 397.0068 397.1731 397.5377 397.5458
   397.6240 399.3108 399.4546 399.6674 399.8134 399.9314 399.9663 400.4887
   400.6128 400.6322 400.7376 400.8244 400.9921 401.0037 401.0825 401.0961
   401.3339 402.0225 402.1689 402.2620 402.4558 402.5148 402.5888 402.5896
   402.6090 403.9014 403.9218 404.1585 404.2112 404.3427 404.3825 405.2477
   405.2875 405.5491 405.5747 405.7693 405.7758 407.0884 407.1727 407.7056
   407.7858 408.0124 408.4291 408.4557 408.5920 409.5687 409.6997 410.2652
   410.3369 410.3790 410.4901 411.1836 411.2643 411.9393 412.0343 412.5361
   412.6382 413.1994 413.2039 413.5290 413.5798 414.2140 414.3448 414.5166
   414.5254 415.3874 415.5168 415.5282 415.6936 416.6015 416.6360 416.6447
   416.9757 417.4201 417.5032 417.6480 417.7272 417.7985 417.8252 417.9287
   418.0485 418.2900 418.3908 419.1739 419.2917 420.4888 420.5895 420.7572
   420.8249 421.4950 421.6148 421.7507 421.9395 421.9650 422.0950 422.1107
   422.2059 422.2914 422.3462 422.4412 422.4586 422.5873 422.5957 423.1040
   423.3326 423.6099 423.6132 423.7034 423.8018 423.9527 424.1441 424.7097

          k = 0.0000-1.0000 0.0000 (  2778 PWs)   bands (ev):

   -95.3126 -56.8016 -56.8015 -56.8015 -20.2568 -20.2487 -20.2487 -20.2278
   -20.2238  -0.6825   2.5719   5.8629   5.8629   9.2734   9.4740  16.6785
    16.6785  18.5459  18.5585  18.7131  18.7131  18.8213  20.2335  23.7472
    24.1035  24.1035  24.5804  24.6106  24.6106  25.1577  25.3816  30.2228
    32.1427  32.1427  33.2566  35.2092  35.2092  36.0069  36.5797  36.7220
    36.8935  37.9752  38.2822  38.2822  40.1405  40.8836  40.8836  41.1315
    41.8496  44.7927  44.7927  44.9047  49.1111  49.2605  49.2605  50.1379
    51.3000  51.6976  52.1281  52.1282  52.5084  53.5566  53.6362  53.6362
    54.7161  55.0099  55.0099  55.2137  56.7079  56.7079  56.8385  58.4872
    59.1483  61.5262  61.6634  61.6634  62.5567  64.5725  64.7616  64.7616
    64.8230  65.9931  65.9931  66.1605  66.3347  67.0342  67.0342  67.1467
    68.0096  69.3490  69.3490  69.7224  70.1674  71.1432  71.3353  71.4512
    71.4512  71.8934  71.8934  74.1635  75.5823  76.7793  77.1129  77.1129
    77.8059  79.3751  79.3751  79.5111  80.6527  80.7085  80.7085  81.7237
    82.3425  82.3425  83.0458  83.1986  83.3302  85.8764  85.9742  85.9742
    87.4569  87.4569  87.8142  88.0181  88.7271  89.6536  90.5693  90.5693
    92.2828  93.9720  93.9720  94.6950  95.0859  96.4041  96.4041  96.6580
    96.7932  97.5489  98.6746  99.0912  99.3040  99.3893  99.3893 100.2266
   100.3488 100.6917 100.6917 101.0009 101.0009 101.8842 101.8842 102.3932
   102.3932 102.6618 102.8297 103.4506 103.7224 104.5040 105.3699 107.1831
   107.1831 107.8668 107.9531 108.0026 108.1553 108.1553 110.0368 110.0368
   110.1900 110.6703 111.0749 111.3517 112.5048 112.5048 112.8609 112.8609
   113.0467 113.4824 114.5984 114.6159 114.7035 114.7035 115.2356 115.9400
   116.0201 116.4337 116.4907 116.4907 117.0386 117.3668 117.3668 117.6605
   117.8588 117.8588 118.2603 118.2603 118.2634 119.2267 119.2267 120.0794
   120.7607 121.4245 122.4459 122.6868 123.1718 123.1718 124.7045 125.6823
   125.6823 126.0546 127.7596 128.6912 129.7448 129.7448 130.2475 130.4455
   130.4455 130.7116 131.3571 131.8553 131.8553 133.0298 133.8967 134.3583
   134.3583 134.8357 135.0220 135.0220 135.5411 135.6193 137.4571 137.4571
   138.2489 139.2469 139.5895 140.5076 141.6493 142.2735 142.2735 142.5409
   142.7729 142.8504 142.8504 142.9283 143.3515 143.8568 144.8627 144.8627
   145.9504 145.9946 145.9946 146.4065 146.7755 146.7755 147.5726 147.5726
   147.6967 148.2988 148.4874 148.8208 148.8208 148.8525 149.3774 149.5906
   149.5906 149.6813 151.6561 151.6561 153.5696 153.5698 154.8801 156.1597
   156.3452 156.3457 156.3457 156.6126 156.6126 156.8702 157.2279 157.2567
   157.7843 157.7843 158.1710 158.4731 158.5667 158.8041 158.8041 159.5834
   159.5834 160.1316 160.2561 160.6649 160.6649 160.9555 162.5774 163.5881
   163.6047 163.6047 163.6924 163.6924 163.7050 163.8672 164.3210 165.6649
   166.0272 166.0272 166.4940 166.4940 167.3976 167.7612 168.3295 169.0832
   169.0832 170.9336 171.0326 172.4866 172.7523 172.9541 172.9541 173.4442
   173.4442 173.6472 173.9605 174.4469 174.4469 174.6684 175.3517 175.5844
   175.5844 175.6910 175.9109 175.9703 175.9703 176.0993 176.2550 177.7723
   177.7723 178.8171 179.9926 180.4674 180.5788 180.5788 180.6665 180.6665
   180.8958 181.0315 181.2291 181.2291 181.4909 181.7725 182.4531 182.7955
   182.7955 182.9238 182.9637 184.5791 184.5791 185.5324 185.5324 185.6131
   186.6562 186.9413 187.6564 188.0196 188.1699 189.5945 189.5945 190.2808
   190.3400 190.3717 190.3717 190.6535 191.2782 191.3784 191.3784 191.8512
   192.9351 193.1242 193.2683 193.2683 194.5773 195.8544 195.8544 196.1911
   196.2248 196.2485 196.3871 196.4546 196.4546 196.5629 196.5890 196.5974
   196.5974 197.4503 201.2282 201.2974 201.2974 202.1573 202.2061 202.2061
   202.7629 203.0130 203.2136 203.2136 203.3794 203.3794 203.5660 204.6463
   204.7492 204.7492 205.9768 206.3812 206.4717 206.5671 206.5671 206.6764
   207.0741 207.0741 207.0804 207.2667 207.3271 207.4579 207.4579 207.5952
   207.5952 207.9960 208.3424 208.3913 208.4557 208.4557 208.5002 208.5127
   209.2225 209.8100 209.8100 210.3342 210.4915 210.7937 210.7937 211.0471
   211.5196 211.7334 211.9563 211.9563 212.9128 214.8725 214.8725 215.1749
   215.3317 215.3317 218.0744 218.1499 219.5017 219.8752 220.3154 220.3154
   221.0560 221.0560 221.1310 222.9209 222.9313 222.9768 222.9768 224.1036
   224.2658 224.2658 224.2718 224.4351 224.7553 224.7804 224.8207 224.8207
   225.6872 225.6872 225.7445 226.0763 226.0763 226.4736 228.1798 228.8176
   229.0253 229.1486 230.0270 230.0270 230.3662 230.5372 231.0291 231.0291
   231.4831 232.4516 232.4516 232.8360 234.2120 234.4401 234.9708 234.9708
   235.7828 235.7828 236.6115 236.6466 237.1920 237.1920 237.9235 238.3034
   240.2532 240.4802 240.5806 240.5806 240.6677 240.8631 241.3131 241.3131
   241.6300 241.6300 241.7723 241.9935 242.0646 242.1570 242.1570 242.1830
   243.0949 243.1095 243.1095 243.2007 244.1214 246.0310 246.1504 246.1504
   246.2517 246.3236 246.3236 246.7604 247.9985 248.2349 248.4902 248.5243
   248.6202 248.6202 249.1993 249.1993 249.5587 249.6583 250.1310 250.1310
   250.2331 250.5000 250.8127 250.8127 251.1467 251.3151 252.2327 252.4443
   252.8500 252.8500 252.9349 253.0771 253.0771 253.3629 253.4028 253.4028
   253.8705 253.8705 253.8935 253.9536 253.9836 254.2907 255.5824 255.6643
   256.1479 256.4585 256.4585 256.5412 256.8556 256.8556 257.1989 257.4825
   257.4825 257.5536 257.6726 257.6726 258.7542 258.7866 258.8721 258.8846
   258.8846 258.9417 258.9483 258.9483 261.0795 261.5541 261.5541 261.6309
   261.8189 261.8189 262.3263 262.3269 264.1486 264.1486 264.6492 265.2062
   265.5516 265.7902 265.7902 265.9848 266.2831 266.5257 266.5257 266.9692
   267.1768 267.2375 267.9069 267.9069 267.9438 267.9438 267.9464 268.4763
   268.4763 268.7880 268.8075 268.8779 269.1818 269.8755 270.0646 270.0646
   270.3071 270.3071 270.3753 270.4083 271.0491 271.0827 271.0827 271.1751
   274.6966 274.6966 274.7389 274.7637 274.7637 274.7909 274.7919 274.8216
   275.3627 275.3627 276.5809 277.1527 280.9280 280.9280 281.0317 281.5713
   281.6523 282.0035 282.2119 282.2119 282.3190 282.8271 282.8271 282.8335
   283.1398 283.3171 283.4556 283.4556 283.5239 283.7658 284.3024 284.6910
   284.6910 284.8557 284.8557 284.9741 285.0260 285.3824 285.3824 285.7065
   285.7065 285.7142 285.7297 285.7459 287.6698 287.6698 287.6969 287.7549
   288.9030 288.9086 289.4422 289.4422 289.6606 289.6606 290.2320 290.2320
   290.5961 290.6411 290.7358 290.7364 291.6504 292.3112 292.3112 292.5889
   292.5889 292.8976 293.8417 293.8785 296.0539 296.6327 296.8445 296.8445
   297.2320 297.2968 297.2968 297.3550 298.1784 298.1784 298.4547 299.0630
   299.0924 299.1044 299.3054 299.3054 300.1611 300.6369 300.6369 300.6818
   301.1057 301.1434 301.1434 301.4485 301.4894 301.5630 301.5630 301.5928
   302.1216 302.1379 302.1425 302.1425 303.1017 303.1854 303.1854 303.2650
   304.9319 304.9624 304.9624 304.9944 306.8701 309.1465 309.3890 309.3890
   309.6770 309.6770 309.8235 310.0646 311.8356 311.8356 312.2582 312.7645
   312.7738 312.9164 312.9164 312.9645 313.0604 313.3921 313.6667 313.9980
   313.9980 314.4861 314.8372 315.2288 315.5341 315.5341 315.8024 315.8024
   316.1573 316.4944 316.5414 317.0700 317.0700 317.1463 317.2595 317.4301
   317.4301 317.6213 317.6284 317.6284 317.9232 317.9232 317.9533 318.0216
   318.5929 318.7311 319.2061 319.2102 319.3578 319.3578 319.4106 319.5877
   320.4064 320.4064 320.5442 320.5442 321.2475 321.3354 323.5306 324.2909
   325.2775 325.2775 326.4012 326.5336 326.5336 326.6546 326.8205 328.4521
   330.8559 330.8559 330.9115 330.9115 331.0678 331.0678 331.1654 331.4194
   331.4194 331.4199 331.5379 331.6061 331.9777 332.2776 332.2776 332.3461
   332.3481 332.6147 332.6147 332.7285 332.9834 333.1450 333.1450 333.1588
   334.0856 334.1631 335.4578 335.4721 335.5502 335.5502 335.8035 335.8639
   335.8639 335.9495 335.9677 335.9749 335.9883 335.9883 340.2282 340.2329
   340.2329 340.6810 340.8268 340.8456 340.8938 340.8938 341.0077 341.1653
   341.2612 341.4075 341.4075 341.6191 341.6191 341.8670 341.9202 341.9491
   342.4179 342.7541 342.8244 342.8244 342.8625 342.8625 343.1074 343.1550
   344.2115 344.2208 344.2719 344.2719 344.2837 344.2837 344.5099 344.5114
   344.8923 344.8923 345.0079 345.0079 347.5007 347.5031 347.7596 347.7596
   347.9825 348.0715 348.0715 348.0820 348.0837 348.1352 348.7493 348.7493
   348.8617 349.2047 349.3267 349.3293 349.3293 349.3868 350.4625 350.5711
   350.5711 350.5891 350.6702 350.6702 350.6801 350.7874 351.0029 351.0520
   351.4485 351.4485 351.4664 351.4664 351.5958 351.6800 352.7156 352.7159
   352.7360 352.7360 352.7897 352.7902 352.7902 352.7956 353.3932 353.3932
   353.4101 353.4249 353.6400 353.6400 353.6576 353.6914 358.0042 358.0042
   358.2001 358.2452 358.3144 358.3144 358.3216 358.4925 360.1036 360.1576
   360.1711 360.1711 360.2271 360.2271 360.2350 360.2915 362.1922 362.1922
   363.1318 363.1728 363.2572 363.7759 363.7759 363.9500 364.5472 364.7976
   364.7976 365.0050 365.8877 365.9608 365.9608 366.0895 366.1292 366.1921
   366.1921 366.4272 367.3290 367.3464 367.3577 367.3577 367.8691 367.9262
   367.9262 367.9743 368.2459 368.2459 368.2601 368.2775 371.7896 371.8305
   371.8305 371.9156 372.8656 373.7077 373.7690 373.7690 373.9074 373.9074
   374.0259 374.0802 375.4030 375.5431 375.5431 375.6225 375.9871 376.0138
   376.0138 376.3313 377.5361 377.5400 378.0769 378.0769 378.0993 378.0993
   378.5231 378.6125 380.3345 380.3345 380.4875 380.5839 380.5839 380.6211
   380.7564 380.7909 380.9096 380.9096 381.2663 381.8640 382.0981 382.2976
   382.3680 382.3680 382.4151 382.5856 382.5856 382.6242 382.6323 382.6870
   382.7595 382.7595 382.8298 382.8298 383.0745 383.0896 384.8780 385.8445
   388.1473 388.1473 388.1701 388.1701 389.4594 389.5417 389.8079 389.9315
   389.9315 390.0244 391.0213 391.2527 391.2961 391.2961 391.3666 391.4055
   392.0635 392.1132 392.1132 392.1519 392.5002 392.5002 392.5373 393.2498
   393.2498 393.2624 393.2720 393.3039 393.3039 393.3877 394.2460 394.2688
   394.4226 394.4411 395.0688 395.0688 395.0826 395.0826 395.1771 395.2250
   395.2685 395.4097 395.4097 395.5330 396.3399 396.3415 396.7633 396.7633
   396.7737 396.7737 396.8324 396.8985 397.1894 397.1903 397.4758 397.4758
   397.6004 397.9818 399.6830 399.6830 399.6877 399.6877 400.2318 400.2439
   400.2439 400.2486 402.4757 402.4757 402.5838 403.2671 403.2915 403.4066
   403.4377 403.4377 403.7653 403.7721 403.7721 403.8942 404.0070 404.0389
   404.0389 404.1510 407.2900 407.3750 407.3750 407.4516 407.7769 407.7769
   407.8596 407.9039 408.0498 408.1306 408.1306 408.2742 410.3157 410.3978
   410.3978 410.5036 412.2595 412.2595 412.3313 413.0267 413.2058 413.2058
   413.3667 413.3721 413.5453 413.6597 413.6597 413.7504 414.2025 414.2025
   414.2609 414.3017 414.3026 414.4632 414.4772 414.4772 414.6119 414.7196
   414.7196 414.8561 418.7067 418.7109 418.7109 418.8425 419.9353 419.9353
   420.0281 420.0445 421.6346 422.8242 422.8242 423.0415 423.0951 423.1233
   423.1233 423.1765 423.2141 423.2141 423.5406 424.1060 424.1749 424.3202
   424.3328 424.3397 424.3397 424.3528 424.8251 424.8349 424.8349 424.8725
   424.9341 424.9713 424.9920 424.9920 425.1310 425.1310 425.1923 425.2011

          k =-0.5000-1.0000 0.0000 (  2740 PWs)   bands (ev):

   -95.3104 -56.8015 -56.8015 -56.8015 -20.2537 -20.2518 -20.2487 -20.2268
   -20.2248  -0.6547   2.7916   5.0388   5.3411  11.9843  12.3883  12.5489
    12.8336  17.2033  18.2288  18.7445  19.6916  21.4773  22.5676  22.9123
    22.9592  24.1499  24.7115  25.4458  26.6905  27.6359  28.3975  29.8234
    30.0517  30.1427  30.1629  31.0018  31.4476  35.6985  37.0507  37.1931
    37.2940  39.2841  39.5244  39.8132  40.2608  42.8757  43.9062  44.0012
    44.1541  44.2052  45.6387  45.8476  45.8997  46.3603  47.7566  49.1786
    49.8943  51.5197  51.7070  51.8066  52.0309  52.9580  53.8227  53.8483
    54.4528  54.9552  55.7965  56.6915  56.7539  57.9589  58.4921  59.2187
    59.4317  59.9743  60.1885  60.3902  60.8568  64.1480  64.3698  65.5270
    65.7166  65.9874  66.0298  66.4778  67.0130  67.2920  67.6558  68.4591
    68.5558  68.9032  69.0060  70.4554  70.6762  70.7964  70.9066  71.4915
    71.5897  72.2492  73.8973  74.5055  74.8012  75.2988  76.3390  76.5084
    77.6618  77.7332  78.1149  78.2921  78.7426  80.0621  81.0781  81.3747
    81.5474  82.6130  83.2299  83.5240  84.0137  86.2552  88.4548  88.6791
    88.7681  88.8406  89.3107  90.1365  90.1633  90.4947  91.6127  92.3448
    92.6380  93.8609  93.9641  94.1258  94.4307  95.0702  95.4322  95.6617
    96.3994  96.5242  97.2264  97.5177  97.6612  98.7648  99.4357  99.8501
   100.1449 100.5350 100.6784 100.7934 101.1233 101.2884 101.3767 101.4618
   101.7105 102.6384 103.5517 104.4152 104.4946 104.8813 104.9059 105.0223
   105.4292 105.5994 106.5029 107.3066 107.6437 107.8076 108.8175 110.4681
   110.5969 110.6440 110.8226 110.9934 111.5138 112.0565 112.5958 112.7195
   113.0811 113.8380 114.1180 114.3487 114.6073 115.1386 115.4730 115.6416
   115.7942 116.5232 116.5934 117.7132 117.9304 117.9751 118.0451 118.9417
   119.6922 119.8992 119.9333 120.3666 121.1482 121.5631 121.8877 122.1517
   122.2085 123.0733 123.5287 124.0127 124.3079 124.5674 124.8641 125.2311
   125.3691 125.9352 126.0321 126.4724 127.8654 128.0187 128.3554 128.9565
   130.3081 130.3412 132.2136 132.8003 132.8384 133.3097 133.5400 134.4525
   134.7338 134.7376 135.3803 136.0855 136.3284 136.7766 136.9908 137.0286
   137.3683 137.8474 138.3727 138.5824 139.1161 139.4830 139.9377 140.3226
   141.2988 141.8115 141.8638 143.0409 143.4419 143.4970 143.6550 143.6979
   144.3130 144.9793 146.4153 146.6107 146.7371 146.7945 146.8014 147.0543
   148.1313 148.2586 148.7724 149.1195 149.2560 149.4541 150.9798 151.2417
   151.5912 151.6918 151.7389 152.1220 152.2164 152.8884 153.0104 153.0546
   153.1820 153.8059 154.1372 154.6940 154.9262 156.9695 157.1583 157.6217
   157.6314 157.7270 157.7361 158.3443 159.1010 159.2400 159.9661 162.0555
   162.0708 162.1300 162.6753 163.7651 164.2376 164.4859 164.6102 164.8206
   165.2789 165.5653 165.9396 165.9650 166.0333 166.3521 166.5181 166.6441
   166.8084 166.9038 166.9106 167.5986 167.6886 167.7463 167.9352 168.0331
   168.9924 169.2601 169.4271 170.4269 171.1464 171.3505 171.7488 172.0072
   173.2153 173.7931 174.5572 174.7381 175.0348 175.0414 175.1737 175.7508
   175.8230 176.0566 176.1623 176.2007 177.1629 177.6978 177.7417 178.2098
   178.6938 178.7653 178.8363 178.8583 179.5198 179.5317 180.0384 180.2950
   181.2775 181.6588 181.8069 182.2297 183.2186 183.3884 183.4289 183.5754
   183.5999 183.6638 184.1578 184.3846 184.4329 184.6050 184.6433 184.7124
   185.2478 186.5208 186.6498 186.6726 188.0039 188.3760 188.4731 188.5269
   188.8025 188.8469 189.0536 189.1832 189.2609 189.6965 189.9159 191.1118
   191.3288 191.6633 192.0216 192.3226 192.7999 192.9281 193.5968 193.7261
   194.0427 194.3334 194.3385 194.4106 196.4001 196.8242 197.1622 197.3538
   197.6181 197.6643 197.9605 198.3196 198.8104 198.8850 199.5097 199.7461
   199.9185 201.2464 202.3215 202.3860 202.6431 203.0227 203.1717 203.8136
   204.4317 204.8860 204.9478 205.4040 205.9018 205.9176 206.0654 206.0988
   206.6453 207.0872 207.2194 207.6197 208.7589 208.8964 209.7535 209.9066
   210.5467 210.7167 211.6006 211.9303 212.4963 212.6852 213.2477 213.3224
   213.6322 213.6915 213.7596 214.0697 214.1828 214.4546 214.4864 214.6918
   215.1043 215.3338 215.3473 215.6572 215.8577 215.9716 216.0176 216.1025
   217.7170 218.0320 218.2146 218.3068 218.3514 218.7862 219.2407 219.4559
   219.4707 219.5104 221.0494 221.4035 221.6350 221.9076 221.9948 222.0316
   222.0471 223.3704 225.0495 225.1197 225.3133 225.4283 225.6045 225.7318
   225.7850 225.9390 226.7469 227.3611 227.5079 227.7192 227.7212 228.1904
   228.4556 228.6555 228.8584 229.4460 229.9658 230.5431 230.6450 230.7654
   231.8089 232.1441 232.1726 232.4229 232.5288 233.5213 233.6136 233.8154
   234.9962 235.0583 235.1757 235.3984 235.8349 235.9631 236.1756 236.2616
   236.5405 236.5928 236.6460 236.7271 236.8454 236.9475 237.1654 237.7872
   237.7921 237.8453 238.8416 238.8541 241.2638 241.8826 242.1380 242.4866
   242.7036 243.1473 243.6258 244.6330 244.7255 244.8277 245.0112 245.2137
   245.4441 246.1831 246.3089 246.4477 246.8650 247.2185 247.4353 248.1091
   248.1944 248.2794 248.4791 249.2002 249.2984 249.3152 250.1088 251.2864
   251.3018 251.9442 252.2277 252.2990 252.3829 252.4455 252.4550 252.8616
   253.0597 253.6044 253.6272 253.8551 253.9343 254.0673 254.2646 254.3283
   254.7417 254.8534 254.9750 255.0433 255.0822 255.4598 255.6059 255.6575
   256.9004 257.0601 257.3417 257.3459 257.7335 257.9963 258.1313 258.2232
   258.3359 258.4104 258.4536 258.5954 258.8252 258.9156 258.9739 259.1325
   260.2341 260.3097 260.3528 260.4633 260.7487 260.9676 261.0573 261.2509
   262.6465 263.0201 263.0872 263.3109 263.3294 263.5557 263.7235 263.7801
   263.9338 264.0538 264.0745 264.1581 265.7769 266.7053 266.7561 266.7989
   268.2634 268.5077 268.5463 269.1170 269.4292 269.4367 269.5481 269.6396
   270.4058 270.5568 270.7787 271.0545 271.6054 271.7226 271.9083 272.0059
   272.8603 273.4879 273.6444 273.6618 273.8261 274.0526 274.0730 274.6491
   274.7611 274.9278 275.0075 275.0632 275.1758 275.2785 275.5793 275.7591
   276.0341 276.2095 276.2137 276.5694 276.6438 276.7075 276.7417 276.9104
   280.0263 280.3771 281.6502 281.6846 281.8949 281.9619 282.0670 283.0748
   283.1071 283.1290 283.5428 283.6533 283.7166 283.8189 284.0086 284.2367
   284.2774 284.3616 284.4448 284.5459 284.6512 284.8504 284.8552 284.8589
   284.9495 284.9635 285.0233 285.0390 285.2057 285.2417 285.4848 285.4858
   286.6345 286.6462 287.2258 287.2484 289.7885 290.5191 291.0378 291.3197
   291.4268 291.5634 291.5948 291.6371 292.5032 292.8873 292.9374 293.0573
   293.4443 293.5603 293.5919 293.6038 293.6487 293.7333 293.7809 294.0141
   294.6569 294.7262 294.9352 295.8470 296.0933 296.2615 296.4661 296.5795
   297.2145 297.6905 297.7381 297.9852 299.3959 299.3962 299.9262 299.9650
   300.0077 300.0262 300.2959 300.4342 301.4873 301.4987 301.5977 301.7547
   302.3096 302.7644 302.8097 303.0884 305.7953 306.2209 306.5217 306.7357
   306.9175 306.9749 307.0078 307.0134 309.5912 309.7223 309.7757 310.0326
   310.5631 310.5890 310.7096 310.7895 311.1900 311.2060 311.2560 311.3667
   313.2166 313.4151 313.4218 313.6131 313.7646 313.7673 313.8437 313.8521
   314.0357 314.3043 314.3859 314.5338 316.7155 316.7224 316.7374 316.7636
   316.8162 316.8494 316.9307 316.9344 318.0490 318.3547 318.4995 318.5532
   318.9396 319.5085 319.6171 319.7941 320.4727 320.9119 320.9753 321.0655
   322.4762 322.5109 322.5561 322.6460 322.6718 322.7326 322.7592 322.9246
   322.9432 323.1321 323.2206 323.3118 323.9011 324.0985 324.3068 325.0100
   325.3206 325.4370 325.5823 325.6064 327.3982 327.7930 327.8165 327.8346
   328.5375 328.7676 328.7896 328.8146 329.3842 329.6592 329.9445 329.9531
   330.2495 330.4030 330.4270 330.6858 330.7694 330.8345 330.8881 331.0102
   331.6204 331.7279 331.7463 331.8267 331.8317 331.8814 331.9224 332.0518
   332.7687 332.7839 332.7966 332.7980 333.4740 333.5575 333.5868 333.6305
   333.6488 333.8359 333.8368 334.3438 334.4303 334.4991 334.6792 334.7427
   336.8047 336.9042 336.9936 337.0506 337.6799 337.8910 337.9175 338.0717
   338.7798 338.9612 338.9723 339.2580 339.4939 339.6084 339.6932 339.7197
   339.8905 339.9906 339.9972 340.1563 340.1750 340.1761 340.1924 340.1932
   340.2283 340.2336 340.3160 340.3428 344.4082 344.4208 344.6115 344.7773
   346.2698 346.3409 346.3842 346.4331 346.4815 346.6574 346.6772 346.7548
   347.3781 348.1210 348.2562 348.4673 348.4794 348.5339 348.5621 348.5622
   349.9679 349.9752 350.1438 350.2565 350.4586 350.6794 350.7167 351.5658
   351.5860 351.7650 351.8495 352.0075 352.0113 352.0482 352.1473 352.2656
   352.2730 352.4072 353.5687 353.6613 353.6749 353.7351 353.8042 354.2624
   354.5796 354.6241 355.5948 355.6221 355.7219 355.7527 355.7720 355.7722
   357.0433 357.1711 357.3364 357.3868 357.5629 357.9044 358.1297 358.2209
   359.0304 359.0612 359.1221 359.1273 359.2278 359.2666 359.3505 359.4409
   362.7993 362.8094 362.8216 362.8288 363.5240 363.5431 363.5590 363.5748
   365.7991 365.9587 366.0979 366.3058 366.5420 366.9834 367.5312 367.7269
   368.3092 368.3273 368.3372 368.4442 368.6259 368.8067 368.8394 368.8487
   369.0388 369.0487 369.0613 369.2066 369.2674 369.3012 369.3032 369.3702
   369.4202 369.4227 369.7497 369.7899 369.8416 369.9028 370.9159 370.9537
   372.4914 372.6172 372.9572 372.9767 373.0832 373.2054 373.2262 373.3590
   373.9604 374.1664 374.2034 374.2038 375.3010 375.3043 375.3572 375.3587
   376.2946 376.5686 376.5716 376.7578 377.5883 377.9521 377.9758 377.9862
   378.1934 378.2293 378.2349 378.2421 378.6000 378.7539 378.7817 379.1195
   379.4440 379.4681 379.5269 379.5282 379.5569 379.6400 379.6530 379.7303
   380.0953 380.1478 380.2027 380.2641 381.0458 381.2321 381.2398 381.3407
   381.5849 381.5960 381.6355 381.6420 385.8709 386.1005 386.2644 386.4203
   386.6561 386.7663 386.7974 386.8020 386.9398 386.9513 387.1412 387.1816
   387.9405 387.9945 388.1295 388.3189 388.7235 388.7359 388.7779 388.8196
   389.7911 389.8242 389.8270 389.8714 390.4509 390.5600 390.5902 390.5958
   391.0805 391.0959 391.1017 391.1109 393.1629 393.3554 393.4161 393.7684
   394.5495 394.6082 394.6562 394.7082 394.8248 395.3971 395.4112 395.6690
   395.9704 396.2166 396.2265 396.4604 398.2438 398.3554 398.4613 398.6587
   398.7751 398.8387 398.8841 398.8964 399.2839 399.4278 399.5890 399.7492
   400.3455 400.3543 400.4043 400.4405 401.1407 401.1412 401.1633 401.2021
   401.3834 401.5833 401.6433 401.6631 401.9893 401.9923 402.0660 402.1132
   402.2518 402.2524 402.2936 402.3007 403.0029 403.0040 403.0434 403.0486
   403.3730 403.4141 403.4551 403.4682 403.9752 404.0033 404.0171 404.0297
   407.9983 408.0404 408.1655 409.1735 409.6547 409.7407 409.7414 409.9080
   410.0990 410.1202 410.1475 410.2095 411.0198 411.0340 411.0447 411.0565
   412.2632 412.2722 412.2763 412.2936 414.9205 414.9281 414.9647 414.9675
   415.5628 415.8244 415.8304 415.9808 416.7629 416.7858 416.8552 416.9166
   417.5301 417.5816 417.5949 417.6401 417.9220 418.2400 418.2438 418.3765
   418.6975 418.6996 418.7018 418.7069 419.0576 419.0769 419.2855 419.2880
   419.8391 419.8459 419.9038 419.9696 420.6228 420.6423 420.6649 420.6661
   421.7800 421.7938 421.7994 421.8239 423.8134 423.8179 423.8394 423.8489
   425.8183 425.8732 425.8933 425.9245 425.9932 426.0289 426.0405 426.0461

     the Fermi energy is     9.0271 ev
     (compare with:     9.1643 eV, computed in scf)

     Writing all to output data dir out/mp-2624.save/
 
     init_run     :      0.04s CPU      0.05s WALL (       1 calls)
     electrons    :    826.46s CPU    892.88s WALL (       1 calls)

     Called by init_run:
     wfcinit      :      0.00s CPU      0.00s WALL (       1 calls)
     potinit      :      0.01s CPU      0.01s WALL (       1 calls)
     hinit0       :      0.01s CPU      0.02s WALL (       1 calls)

     Called by electrons:
     c_bands      :    826.46s CPU    892.88s WALL (       1 calls)
     v_of_rho     :      0.01s CPU      0.01s WALL (       1 calls)

     Called by c_bands:
     init_us_2    :      0.00s CPU      0.00s WALL (       8 calls)
     init_us_2:cp :      0.00s CPU      0.00s WALL (       8 calls)
     cegterg      :    807.98s CPU    873.23s WALL (       8 calls)

     Called by *egterg:
     cdiaghg      :    777.80s CPU    842.49s WALL (      69 calls)
     h_psi        :      8.40s CPU      8.79s WALL (      77 calls)
     g_psi        :      0.07s CPU      0.07s WALL (      61 calls)

     Called by h_psi:
     h_psi:calbec :      0.18s CPU      0.19s WALL (      77 calls)
     vloc_psi     :      8.03s CPU      8.41s WALL (      77 calls)
     add_vuspsi   :      0.12s CPU      0.13s WALL (      77 calls)

     General routines
     calbec       :      0.17s CPU      0.19s WALL (      77 calls)
     fft          :      0.00s CPU      0.01s WALL (      10 calls)
     fftw         :      7.15s CPU      7.48s WALL (  105668 calls)
 
     Parallel routines
 
     PWSCF        :  13m47.27s CPU  14m54.03s WALL

 
   This run was terminated on:   6:28:11   5Dec2023            

=------------------------------------------------------------------------------=
   JOB DONE.
=------------------------------------------------------------------------------=
