
     Program PWSCF v.7.1 starts on 28Dec2023 at 21: 0:59 

     This program is part of the open-source Quantum ESPRESSO suite
     for quantum simulation of materials; please cite
         "P. Giannozzi et al., J. Phys.:Condens. Matter 21 395502 (2009);
         "P. Giannozzi et al., J. Phys.:Condens. Matter 29 465901 (2017);
         "P. Giannozzi et al., J. Chem. Phys. 152 154105 (2020);
          URL http://www.quantum-espresso.org", 
     in publications or presentations arising from this work. More details at
     http://www.quantum-espresso.org/quote

     Parallel version (MPI), running on    24 processors

     MPI processes distributed on     1 nodes
     123217 MiB available memory on the printing compute node when the environment starts
 
     Reading input from pw_mp-1415_scf_k3000_E48.in
Warning: card &CELL ignored
Warning: card / ignored

     Current dimensions of program PWSCF are:
     Max number of different atomic species (ntypx) = 10
     Max number of k-points (npk) =  40000
     Max angular momentum in pseudopotentials (lmaxx) =  4
 
     K-points division:     npool     =       2
     R & G space division:  proc/nbgrp/npool/nimage =      12
     Subspace diagonalization in iterative solution of the eigenvalue problem:
     a serial algorithm will be used

 
     Parallelization info
     --------------------
     sticks:   dense  smooth     PW     G-vecs:    dense   smooth      PW
     Min          70      70     21                 1336     1336     227
     Max          71      71     22                 1338     1338     231
     Sum         847     847    253                16049    16049    2733
 
     Using Slab Decomposition
 


     bravais-lattice index     =            2
     lattice parameter (alat)  =      11.2259  a.u.
     unit-cell volume          =     353.6717 (a.u.)^3
     number of atoms/cell      =            2
     number of atomic types    =            2
     number of electrons       =        16.00
     number of Kohn-Sham states=           16
     kinetic-energy cutoff     =      48.0000  Ry
     charge density cutoff     =     192.0000  Ry
     scf convergence threshold =      1.0E-10
     mixing beta               =       0.7000
     number of iterations used =            8  plain     mixing
     Exchange-correlation= PBE
                           (   1   4   3   4   0   0   0)

     celldm(1)=  11.225872  celldm(2)=   0.000000  celldm(3)=   0.000000
     celldm(4)=   0.000000  celldm(5)=   0.000000  celldm(6)=   0.000000

     crystal axes: (cart. coord. in units of alat)
               a(1) = (  -0.500000   0.000000   0.500000 )  
               a(2) = (   0.000000   0.500000   0.500000 )  
               a(3) = (  -0.500000   0.500000   0.000000 )  

     reciprocal axes: (cart. coord. in units 2 pi/alat)
               b(1) = ( -1.000000 -1.000000  1.000000 )  
               b(2) = (  1.000000  1.000000  1.000000 )  
               b(3) = ( -1.000000  1.000000 -1.000000 )  


     PseudoPot. # 1 for Ca read from file:
     /usr/scratch4/magr4985/MG/HTDF/pseudo/SG15/Ca.upf
     MD5 check sum: b43c970dc090f2312d256360aabdb6f1
     Pseudo is Norm-conserving, Zval = 10.0
     Generated using ONCVPSP code by D. R. Hamann
     Using radial grid of  602 points,  6 beta functions with: 
                l(1) =   0
                l(2) =   0
                l(3) =   1
                l(4) =   1
                l(5) =   2
                l(6) =   2

     PseudoPot. # 2 for Se read from file:
     /usr/scratch4/magr4985/MG/HTDF/pseudo/SG15/Se.upf
     MD5 check sum: e78e48a4f5d8ce1f8dc76ec1271f249c
     Pseudo is Norm-conserving, Zval =  6.0
     Generated using ONCVPSP code by D. R. Hamann
     Using radial grid of  602 points,  6 beta functions with: 
                l(1) =   0
                l(2) =   0
                l(3) =   1
                l(4) =   1
                l(5) =   2
                l(6) =   2

     atomic species   valence    mass     pseudopotential
        Ca            10.00    40.07800     Ca( 1.00)
        Se             6.00    78.96000     Se( 1.00)

     48 Sym. Ops., with inversion, found



   Cartesian axes

     site n.     atom                  positions (alat units)
         1           Ca  tau(   1) = (   0.0000000   0.0000000   0.0000000  )
         2           Se  tau(   2) = (  -0.5000000   0.5000000   0.5000000  )

     number of k points=    72  Gaussian smearing, width (Ry)=  0.0005
                       cart. coord. in units 2pi/alat
        k(    1) = (   0.0000000   0.0000000   0.0000000), wk =   0.0011574
        k(    2) = (  -0.0833333   0.0833333  -0.0833333), wk =   0.0092593
        k(    3) = (  -0.1666667   0.1666667  -0.1666667), wk =   0.0092593
        k(    4) = (  -0.2500000   0.2500000  -0.2500000), wk =   0.0092593
        k(    5) = (  -0.3333333   0.3333333  -0.3333333), wk =   0.0092593
        k(    6) = (  -0.4166667   0.4166667  -0.4166667), wk =   0.0092593
        k(    7) = (   0.5000000  -0.5000000   0.5000000), wk =   0.0046296
        k(    8) = (   0.0000000   0.1666667   0.0000000), wk =   0.0069444
        k(    9) = (  -0.0833333   0.2500000  -0.0833333), wk =   0.0277778
        k(   10) = (  -0.1666667   0.3333333  -0.1666667), wk =   0.0277778
        k(   11) = (  -0.2500000   0.4166667  -0.2500000), wk =   0.0277778
        k(   12) = (  -0.3333333   0.5000000  -0.3333333), wk =   0.0277778
        k(   13) = (   0.5833333  -0.4166667   0.5833333), wk =   0.0277778
        k(   14) = (   0.5000000  -0.3333333   0.5000000), wk =   0.0277778
        k(   15) = (   0.4166667  -0.2500000   0.4166667), wk =   0.0277778
        k(   16) = (   0.3333333  -0.1666667   0.3333333), wk =   0.0277778
        k(   17) = (   0.2500000  -0.0833333   0.2500000), wk =   0.0277778
        k(   18) = (   0.1666667  -0.0000000   0.1666667), wk =   0.0138889
        k(   19) = (   0.0000000   0.3333333   0.0000000), wk =   0.0069444
        k(   20) = (  -0.0833333   0.4166667  -0.0833333), wk =   0.0277778
        k(   21) = (  -0.1666667   0.5000000  -0.1666667), wk =   0.0277778
        k(   22) = (  -0.2500000   0.5833333  -0.2500000), wk =   0.0277778
        k(   23) = (   0.6666667  -0.3333333   0.6666667), wk =   0.0277778
        k(   24) = (   0.5833333  -0.2500000   0.5833333), wk =   0.0277778
        k(   25) = (   0.5000000  -0.1666667   0.5000000), wk =   0.0277778
        k(   26) = (   0.4166667  -0.0833333   0.4166667), wk =   0.0277778
        k(   27) = (   0.3333333   0.0000000   0.3333333), wk =   0.0138889
        k(   28) = (   0.0000000   0.5000000   0.0000000), wk =   0.0069444
        k(   29) = (  -0.0833333   0.5833333  -0.0833333), wk =   0.0277778
        k(   30) = (  -0.1666667   0.6666667  -0.1666667), wk =   0.0277778
        k(   31) = (   0.7500000  -0.2500000   0.7500000), wk =   0.0277778
        k(   32) = (   0.6666667  -0.1666667   0.6666667), wk =   0.0277778
        k(   33) = (   0.5833333  -0.0833333   0.5833333), wk =   0.0277778
        k(   34) = (   0.5000000   0.0000000   0.5000000), wk =   0.0138889
        k(   35) = (   0.0000000   0.6666667   0.0000000), wk =   0.0069444
        k(   36) = (  -0.0833333   0.7500000  -0.0833333), wk =   0.0277778
        k(   37) = (   0.8333333  -0.1666667   0.8333333), wk =   0.0277778
        k(   38) = (   0.7500000  -0.0833333   0.7500000), wk =   0.0277778
        k(   39) = (   0.6666667  -0.0000000   0.6666667), wk =   0.0138889
        k(   40) = (   0.0000000   0.8333333   0.0000000), wk =   0.0069444
        k(   41) = (   0.9166667  -0.0833333   0.9166667), wk =   0.0277778
        k(   42) = (   0.8333333   0.0000000   0.8333333), wk =   0.0138889
        k(   43) = (   0.0000000  -1.0000000   0.0000000), wk =   0.0034722
        k(   44) = (  -0.1666667   0.3333333   0.0000000), wk =   0.0277778
        k(   45) = (  -0.2500000   0.4166667  -0.0833333), wk =   0.0555556
        k(   46) = (  -0.3333333   0.5000000  -0.1666667), wk =   0.0555556
        k(   47) = (   0.5833333  -0.4166667   0.7500000), wk =   0.0555556
        k(   48) = (   0.5000000  -0.3333333   0.6666667), wk =   0.0277778
        k(   49) = (  -0.1666667   0.5000000   0.0000000), wk =   0.0277778
        k(   50) = (  -0.2500000   0.5833333  -0.0833333), wk =   0.0555556
        k(   51) = (   0.6666667  -0.3333333   0.8333333), wk =   0.0555556
        k(   52) = (   0.5833333  -0.2500000   0.7500000), wk =   0.0555556
        k(   53) = (   0.5000000  -0.1666667   0.6666667), wk =   0.0555556
        k(   54) = (   0.4166667  -0.0833333   0.5833333), wk =   0.0555556
        k(   55) = (   0.3333333   0.0000000   0.5000000), wk =   0.0277778
        k(   56) = (  -0.1666667   0.6666667  -0.0000000), wk =   0.0277778
        k(   57) = (   0.7500000  -0.2500000   0.9166667), wk =   0.0555556
        k(   58) = (   0.6666667  -0.1666667   0.8333333), wk =   0.0555556
        k(   59) = (   0.5833333  -0.0833333   0.7500000), wk =   0.0555556
        k(   60) = (   0.5000000   0.0000000   0.6666667), wk =   0.0277778
        k(   61) = (   0.8333333  -0.1666667   1.0000000), wk =   0.0277778
        k(   62) = (   0.7500000  -0.0833333   0.9166667), wk =   0.0555556
        k(   63) = (   0.6666667   0.0000000   0.8333333), wk =   0.0277778
        k(   64) = (  -0.1666667  -1.0000000  -0.0000000), wk =   0.0138889
        k(   65) = (   0.6666667  -0.3333333   1.0000000), wk =   0.0277778
        k(   66) = (   0.5833333  -0.2500000   0.9166667), wk =   0.0555556
        k(   67) = (   0.5000000  -0.1666667   0.8333333), wk =   0.0277778
        k(   68) = (   0.6666667  -0.1666667   1.0000000), wk =   0.0277778
        k(   69) = (   0.5833333  -0.0833333   0.9166667), wk =   0.0555556
        k(   70) = (   0.5000000   0.0000000   0.8333333), wk =   0.0277778
        k(   71) = (  -0.3333333  -1.0000000   0.0000000), wk =   0.0138889
        k(   72) = (  -0.5000000  -1.0000000   0.0000000), wk =   0.0069444

     Dense  grid:    16049 G-vectors     FFT dimensions: (  36,  36,  36)

     Estimated max dynamical RAM per process >       4.89 MB

     Estimated total dynamical RAM >     113.38 MB

     Initial potential from superposition of free atoms

     starting charge      15.7781, renormalised to      16.0000
     Starting wfcs are random

     total cpu time spent up to now is        0.4 secs

     Self-consistent Calculation

     iteration #  1     ecut=    48.00 Ry     beta= 0.70
     Davidson diagonalization with overlap
     ethr =  1.00E-02,  avg # of iterations =  8.8

     Threshold (ethr) on eigenvalues was too large:
     Diagonalizing with lowered threshold

     Davidson diagonalization with overlap
     ethr =  3.42E-04,  avg # of iterations =  2.7

     total cpu time spent up to now is        1.3 secs

     total energy              =     -92.93773769 Ry
     estimated scf accuracy    <       0.05390731 Ry

     iteration #  2     ecut=    48.00 Ry     beta= 0.70
     Davidson diagonalization with overlap
     ethr =  3.37E-04,  avg # of iterations =  2.9

     total cpu time spent up to now is        1.6 secs

     total energy              =     -92.95095917 Ry
     estimated scf accuracy    <       0.01732390 Ry

     iteration #  3     ecut=    48.00 Ry     beta= 0.70
     Davidson diagonalization with overlap
     ethr =  1.08E-04,  avg # of iterations =  2.3

     total cpu time spent up to now is        1.8 secs

     total energy              =     -92.95513449 Ry
     estimated scf accuracy    <       0.00044403 Ry

     iteration #  4     ecut=    48.00 Ry     beta= 0.70
     Davidson diagonalization with overlap
     ethr =  2.78E-06,  avg # of iterations =  5.7

     total cpu time spent up to now is        2.2 secs

     total energy              =     -92.95518822 Ry
     estimated scf accuracy    <       0.00000214 Ry

     iteration #  5     ecut=    48.00 Ry     beta= 0.70
     Davidson diagonalization with overlap
     ethr =  1.34E-08,  avg # of iterations =  2.1

     total cpu time spent up to now is        2.5 secs

     total energy              =     -92.95518896 Ry
     estimated scf accuracy    <       0.00000020 Ry

     iteration #  6     ecut=    48.00 Ry     beta= 0.70
     Davidson diagonalization with overlap
     ethr =  1.27E-09,  avg # of iterations =  2.0

     total cpu time spent up to now is        2.7 secs

     total energy              =     -92.95518903 Ry
     estimated scf accuracy    <       0.00000001 Ry

     iteration #  7     ecut=    48.00 Ry     beta= 0.70
     Davidson diagonalization with overlap
     ethr =  6.89E-11,  avg # of iterations =  2.0

     total cpu time spent up to now is        2.9 secs

     total energy              =     -92.95518903 Ry
     estimated scf accuracy    <          1.1E-09 Ry

     iteration #  8     ecut=    48.00 Ry     beta= 0.70
     Davidson diagonalization with overlap
     ethr =  6.94E-12,  avg # of iterations =  2.0

     total cpu time spent up to now is        3.2 secs

     total energy              =     -92.95518903 Ry
     estimated scf accuracy    <          1.2E-10 Ry

     iteration #  9     ecut=    48.00 Ry     beta= 0.70
     Davidson diagonalization with overlap
     ethr =  7.51E-13,  avg # of iterations =  2.0

     total cpu time spent up to now is        3.4 secs

     End of self-consistent calculation

          k = 0.0000 0.0000 0.0000 (  1989 PWs)   bands (ev):

   -33.9455 -14.9305 -14.9305 -14.9305  -5.8635   5.9002   5.9002   5.9002
     9.1591   9.5942   9.5942   9.5942  10.1460  10.1460  15.5979  18.1137

          k =-0.0833 0.0833-0.0833 (  1983 PWs)   bands (ev):

   -33.9451 -14.9378 -14.9310 -14.9310  -5.8230   5.5155   5.7885   5.7885
     9.4190   9.6917   9.6917   9.7696  10.3264  10.3264  15.6998  17.8258

          k =-0.1667 0.1667-0.1667 (  1994 PWs)   bands (ev):

   -33.9440 -14.9576 -14.9323 -14.9323  -5.7098   4.7289   5.5212   5.5212
     9.5027   9.9431   9.9431  10.6343  10.8254  10.8254  15.6463  17.2682

          k =-0.2500 0.2500-0.2500 (  1982 PWs)   bands (ev):

   -33.9424 -14.9843 -14.9342 -14.9342  -5.5481   3.9219   5.2164   5.2164
     9.6005  10.3077  10.3077  11.5143  11.5143  11.5496  15.2297  16.3028

          k =-0.3333 0.3333-0.3333 (  1994 PWs)   bands (ev):

   -33.9409 -15.0106 -14.9360 -14.9360  -5.3772   3.2552   4.9573   4.9573
     9.8166  10.7462  10.7462  11.9169  12.2472  12.2472  15.2728  15.3111

          k =-0.4167 0.4167-0.4167 (  1988 PWs)   bands (ev):

   -33.9397 -15.0297 -14.9374 -14.9374  -5.2451   2.8169   4.7881   4.7881
    10.1461  11.1610  11.1610  11.6140  12.9053  12.9053  14.4381  14.4381

          k = 0.5000-0.5000 0.5000 (  2006 PWs)   bands (ev):

   -33.9393 -15.0367 -14.9379 -14.9379  -5.1951   2.6637   4.7297   4.7297
    10.3833  11.3212  11.3488  11.3488  13.3110  13.3110  13.9327  13.9327

          k = 0.0000 0.1667 0.0000 (  1985 PWs)   bands (ev):

   -33.9450 -14.9373 -14.9326 -14.9326  -5.8106   5.3715   5.7883   5.7883
     9.4373   9.5191   9.8475   9.8475  10.1908  10.6543  15.7562  17.6623

          k =-0.0833 0.2500-0.0833 (  1987 PWs)   bands (ev):

   -33.9441 -14.9518 -14.9348 -14.9332  -5.7248   4.7985   5.5642   5.6051
     9.3775   9.8045  10.1036  10.2738  10.4521  11.3405  15.8180  17.0543

          k =-0.1667 0.3333-0.1667 (  1980 PWs)   bands (ev):

   -33.9427 -14.9755 -14.9372 -14.9345  -5.5838   4.1024   5.2334   5.3312
     9.4393  10.1697  10.4155  10.9729  11.0160  12.1382  15.3898  16.2495

          k =-0.2500 0.4167-0.2500 (  1983 PWs)   bands (ev):

   -33.9411 -15.0012 -14.9391 -14.9367  -5.4207   3.4592   4.9375   5.0611
     9.6245  10.6010  10.8223  11.6460  11.6545  12.6825  14.9714  15.5396

          k =-0.3333 0.5000-0.3333 (  1984 PWs)   bands (ev):

   -33.9399 -15.0221 -14.9399 -14.9393  -5.2790   2.9836   4.7349   4.8549
     9.9434  11.0588  11.2221  11.6854  12.2573  13.1039  14.3452  14.9962

          k = 0.5833-0.4167 0.5833 (  1983 PWs)   bands (ev):

   -33.9392 -15.0327 -14.9415 -14.9395  -5.2025   2.7502   4.6468   4.7446
    10.3168  11.2765  11.3776  11.4345  12.8506  13.2108  14.0137  14.4588

          k = 0.5000-0.3333 0.5000 (  1985 PWs)   bands (ev):

   -33.9393 -15.0305 -14.9427 -14.9379  -5.2176   2.7961   4.6791   4.7438
    10.2955  11.1641  11.3057  11.5615  12.5880  13.2918  14.2714  14.4481

          k = 0.4167-0.2500 0.4167 (  1986 PWs)   bands (ev):

   -33.9402 -15.0160 -14.9426 -14.9356  -5.3190   3.1148   4.8272   4.8530
     9.9700  10.7511  11.1874  11.6860  12.0994  12.9219  14.9399  15.0232

          k = 0.3333-0.1667 0.3333 (  1976 PWs)   bands (ev):

   -33.9416 -14.9931 -14.9411 -14.9332  -5.4726   3.6580   5.0588   5.0747
     9.7381  10.3190  10.7395  11.1025  12.0564  12.1973  15.1785  15.6722

          k = 0.2500-0.0833 0.2500 (  1983 PWs)   bands (ev):

   -33.9432 -14.9678 -14.9383 -14.9314  -5.6330   4.3425   5.3298   5.3829
     9.6509   9.9641  10.2415  10.4534  11.4302  11.4695  15.5589  16.2942

          k = 0.1667-0.0000 0.1667 (  1991 PWs)   bands (ev):

   -33.9445 -14.9474 -14.9347 -14.9306  -5.7594   5.0389   5.6050   5.6658
     9.6665   9.7036   9.7402  10.0839  10.6765  10.7677  15.7787  17.0706

          k = 0.0000 0.3333 0.0000 (  1993 PWs)   bands (ev):

   -33.9435 -14.9547 -14.9382 -14.9382  -5.6750   4.4889   5.5427   5.5427
     9.0600   9.9120  10.3164  10.4711  10.4711  12.1146  16.0665  16.4813

          k =-0.0833 0.4167-0.0833 (  1989 PWs)   bands (ev):

   -33.9423 -14.9708 -14.9415 -14.9403  -5.5714   4.0442   5.2953   5.3627
     8.9906  10.2132  10.4807  10.8928  10.9098  12.9360  15.3311  15.9799

          k =-0.1667 0.5000-0.1667 (  1989 PWs)   bands (ev):

   -33.9409 -14.9919 -14.9439 -14.9429  -5.4383   3.5972   4.9373   5.1359
     9.1475  10.6956  10.8333  11.3720  11.3753  13.4213  14.3883  15.7666

          k =-0.2500 0.5833-0.2500 (  1978 PWs)   bands (ev):

   -33.9396 -15.0107 -14.9468 -14.9447  -5.3097   3.2226   4.6346   4.9290
     9.4653  11.2170  11.2736  11.6404  11.7593  13.4501  13.7807  15.6423

          k = 0.6667-0.3333 0.6667 (  1988 PWs)   bands (ev):

   -33.9388 -15.0222 -14.9511 -14.9438  -5.2226   2.9880   4.4595   4.7863
     9.9226  11.3275  11.4562  11.6615  12.2445  13.1402  13.8805  15.2800

          k = 0.5833-0.2500 0.5833 (  1986 PWs)   bands (ev):

   -33.9387 -15.0237 -14.9544 -14.9413  -5.2046   2.9440   4.4270   4.7316
    10.4075  10.9507  11.2440  11.8482  12.4839  12.8900  14.4475  14.9965

          k = 0.5000-0.1667 0.5000 (  1987 PWs)   bands (ev):

   -33.9393 -15.0153 -14.9554 -14.9380  -5.2620   3.1031   4.5336   4.7727
    10.3228  10.8627  11.2489  11.5186  12.0519  13.2752  14.8458  14.9310

          k = 0.4167-0.0833 0.4167 (  1985 PWs)   bands (ev):

   -33.9405 -14.9998 -14.9530 -14.9346  -5.3759   3.4342   4.7664   4.9036
    10.1319  10.4682  10.8565  11.2609  12.0931  12.9049  15.1435  15.2610

          k = 0.3333 0.0000 0.3333 (  1977 PWs)   bands (ev):

   -33.9419 -14.9824 -14.9468 -14.9322  -5.5119   3.8736   5.0849   5.1029
    10.0017  10.1508  10.3308  10.7709  12.0624  12.1731  15.4037  15.4765

          k = 0.0000 0.5000 0.0000 (  1996 PWs)   bands (ev):

   -33.9414 -14.9755 -14.9459 -14.9459  -5.5141   3.8163   5.2966   5.2966
     8.6296  10.3107  10.4967  11.1769  11.1769  13.7805  14.5732  16.3156

          k =-0.0833 0.5833-0.0833 (  1997 PWs)   bands (ev):

   -33.9402 -14.9884 -14.9497 -14.9493  -5.4259   3.5744   5.0601   5.1569
     8.6020  10.6556  10.6984  11.4769  11.4809  13.6646  14.3627  16.0908

          k =-0.1667 0.6667-0.1667 (  1988 PWs)   bands (ev):

   -33.9391 -15.0014 -14.9552 -14.9506  -5.3290   3.3916   4.6748   4.9910
     8.8573  11.0901  11.2294  11.6456  11.6682  12.9649  14.3160  16.0565

          k = 0.7500-0.2500 0.7500 (  1988 PWs)   bands (ev):

   -33.9383 -15.0096 -14.9625 -14.9497  -5.2493   3.2866   4.3235   4.8459
     9.2929  11.4879  11.5341  11.7478  11.7976  12.6474  14.1725  15.9260

          k = 0.6667-0.1667 0.6667 (  1984 PWs)   bands (ev):

   -33.9381 -15.0112 -14.9692 -14.9467  -5.2097   3.2443   4.1360   4.7546
     9.8698  11.1314  11.3884  11.8034  12.3153  12.7341  14.3870  15.5444

          k = 0.5833-0.0833 0.5833 (  1983 PWs)   bands (ev):

   -33.9384 -15.0082 -14.9712 -14.9424  -5.2223   3.2418   4.1777   4.7342
    10.5419  10.8613  11.0664  11.3452  12.6574  12.9430  14.7647  15.2535

          k = 0.5000 0.0000 0.5000 (  1971 PWs)   bands (ev):

   -33.9393 -15.0043 -14.9651 -14.9380  -5.2838   3.2953   4.4209   4.7873
    10.6212  10.7337  10.8459  11.2588  12.2047  13.2703  14.9165  15.3021

          k = 0.0000 0.6667 0.0000 (  1980 PWs)   bands (ev):

   -33.9393 -14.9931 -14.9537 -14.9537  -5.3874   3.4768   5.1143   5.1143
     8.2641  10.6888  10.7189  11.6647  11.6647  12.9664  15.1587  16.4686

          k =-0.0833 0.7500-0.0833 (  1992 PWs)   bands (ev):

   -33.9385 -15.0001 -14.9586 -14.9560  -5.3325   3.4158   4.8896   5.0215
     8.3087  10.8793  11.0414  11.7616  11.7695  12.3878  15.2792  16.3219

          k = 0.8333-0.1667 0.8333 (  1991 PWs)   bands (ev):

   -33.9378 -15.0029 -14.9677 -14.9556  -5.2753   3.4421   4.4547   4.9088
     8.6582  11.2506  11.6125  11.6791  11.7378  12.0128  15.0351  16.1039

          k = 0.7500-0.0833 0.7500 (  1985 PWs)   bands (ev):

   -33.9376 -14.9991 -14.9802 -14.9526  -5.2307   3.5625   3.9910   4.8091
     9.1845  11.4431  11.5646  11.7120  11.7677  12.3821  14.8870  15.5805

          k = 0.6667-0.0000 0.6667 (  1973 PWs)   bands (ev):

   -33.9378 -14.9973 -14.9853 -14.9477  -5.2110   3.5114   3.8713   4.7466
     9.8369  11.3010  11.3220  11.3368  12.3574  12.9038  14.9072  15.0067

          k = 0.0000 0.8333 0.0000 (  1992 PWs)   bands (ev):

   -33.9378 -15.0040 -14.9594 -14.9594  -5.3197   3.3984   5.0091   5.0091
     8.0259  10.8377  10.9396  11.8423  11.8423  12.0306  15.8029  16.5511

          k = 0.9167-0.0833 0.9167 (  2001 PWs)   bands (ev):

   -33.9374 -15.0053 -14.9641 -14.9599  -5.2940   3.4276   4.7947   4.9572
     8.1535  10.9867  11.1051  11.8074  11.8314  11.8771  15.7397  16.3996

          k = 0.8333 0.0000 0.8333 (  1996 PWs)   bands (ev):

   -33.9373 -15.0014 -14.9739 -14.9574  -5.2616   3.5236   4.3464   4.8830
     8.5872  11.3079  11.4964  11.7299  11.7393  11.8539  15.4706  15.9484

          k = 0.0000-1.0000 0.0000 (  2012 PWs)   bands (ev):

   -33.9373 -15.0075 -14.9615 -14.9615  -5.3007   3.4059   4.9755   4.9755
     7.9437  10.8867  10.8941  11.8428  11.8686  11.8686  15.9368  16.5772

          k =-0.1667 0.3333 0.0000 (  1985 PWs)   bands (ev):

   -33.9431 -14.9652 -14.9405 -14.9338  -5.6285   4.3120   5.3634   5.3977
     9.3523  10.0666  10.3602  10.4054  10.9877  12.1280  15.7660  16.0067

          k =-0.2500 0.4167-0.0833 (  1983 PWs)   bands (ev):

   -33.9416 -14.9854 -14.9454 -14.9352  -5.4923   3.7808   5.0513   5.1378
     9.4846  10.3906  10.7850  10.7956  11.6122  12.7916  15.0763  15.5469

          k =-0.3333 0.5000-0.1667 (  1988 PWs)   bands (ev):

   -33.9402 -15.0063 -14.9483 -14.9377  -5.3499   3.3099   4.7565   4.9205
     9.7196  10.7748  11.2431  11.3700  11.9032  13.1450  14.5070  15.3034

          k = 0.5833-0.4167 0.7500 (  1980 PWs)   bands (ev):

   -33.9392 -15.0217 -14.9494 -14.9403  -5.2412   2.9856   4.5661   4.7752
    10.0726  11.1522  11.3340  11.6947  12.0928  13.3394  14.1334  15.0161

          k = 0.5000-0.3333 0.6667 (  1986 PWs)   bands (ev):

   -33.9388 -15.0273 -14.9496 -14.9416  -5.2003   2.8698   4.5014   4.7244
    10.3760  10.9416  11.4515  11.7131  12.6455  12.8875  14.3160  14.7962

          k =-0.1667 0.5000 0.0000 (  1988 PWs)   bands (ev):

   -33.9411 -14.9833 -14.9485 -14.9416  -5.4752   3.7245   5.1274   5.1410
     8.9546  10.4446  10.7609  11.1048  11.3978  13.6098  14.4433  15.7365

          k =-0.2500 0.5833-0.0833 (  1988 PWs)   bands (ev):

   -33.9399 -14.9980 -14.9541 -14.9439  -5.3636   3.4440   4.7757   4.9574
     9.1705  10.7741  11.2784  11.4002  11.6737  13.6420  13.8936  15.5362

          k = 0.6667-0.3333 0.8333 (  1980 PWs)   bands (ev):

   -33.9388 -15.0101 -14.9580 -14.9464  -5.2664   3.2397   4.4621   4.8068
     9.5372  11.2191  11.4217  11.6472  11.8759  13.2943  13.8572  15.4799

          k = 0.5833-0.2500 0.7500 (  1990 PWs)   bands (ev):

   -33.9383 -15.0159 -14.9614 -14.9467  -5.2116   3.1347   4.2901   4.7169
    10.0270  10.9248  11.5591  11.8217  12.1331  13.0216  14.2380  15.5132

          k = 0.5000-0.1667 0.6667 (  1985 PWs)   bands (ev):

   -33.9384 -15.0143 -14.9635 -14.9443  -5.2162   3.1444   4.2943   4.7039
    10.3778  10.7142  11.3307  11.6882  12.3050  13.1267  14.5011  15.1743

          k = 0.4167-0.0833 0.5833 (  1985 PWs)   bands (ev):

   -33.9392 -15.0067 -14.9620 -14.9405  -5.2791   3.2678   4.4704   4.7710
    10.0509  10.9236  11.2663  11.3162  12.0809  13.4487  14.3053  15.0531

          k = 0.3333 0.0000 0.5000 (  1991 PWs)   bands (ev):

   -33.9404 -14.9962 -14.9555 -14.9371  -5.3809   3.4882   4.7715   4.9108
     9.7415  10.6190  10.9178  11.2900  11.9071  13.2261  14.5658  15.2113

          k =-0.1667 0.6667-0.0000 (  1990 PWs)   bands (ev):

   -33.9392 -14.9964 -14.9565 -14.9513  -5.3571   3.4501   4.9238   4.9590
     8.6164  10.7513  11.1340  11.6333  11.6693  12.9652  14.6891  15.9105

          k = 0.7500-0.2500 0.9167 (  1987 PWs)   bands (ev):

   -33.9383 -15.0024 -14.9632 -14.9538  -5.2864   3.4050   4.5493   4.8224
     8.9212  11.0273  11.5429  11.7406  11.7531  12.5098  14.6219  15.8105

          k = 0.6667-0.1667 0.8333 (  1990 PWs)   bands (ev):

   -33.9378 -15.0036 -14.9719 -14.9535  -5.2327   3.4393   4.1667   4.7249
     9.3899  11.1996  11.4717  11.7191  11.8854  12.7690  14.5446  15.6876

          k = 0.5833-0.0833 0.7500 (  1979 PWs)   bands (ev):

   -33.9378 -15.0016 -14.9787 -14.9501  -5.2110   3.4526   3.9896   4.6776
     9.9764  10.8375  11.4099  11.6576  12.0452  13.2886  14.6511  15.2421

          k = 0.5000 0.0000 0.6667 (  1980 PWs)   bands (ev):

   -33.9383 -15.0033 -14.9747 -14.9451  -5.2280   3.3402   4.1553   4.6916
    10.4640  10.6472  11.1149  11.4286  12.4143  13.3324  14.6349  14.9411

          k = 0.8333-0.1667 1.0000 (  1992 PWs)   bands (ev):

   -33.9378 -15.0028 -14.9624 -14.9596  -5.2963   3.4292   4.8035   4.8264
     8.3970  10.9140  11.4264  11.7010  11.8363  12.0181  15.4068  16.1832

          k = 0.7500-0.0833 0.9167 (  1989 PWs)   bands (ev):

   -33.9374 -15.0006 -14.9715 -14.9597  -5.2577   3.5253   4.3829   4.7434
     8.7867  11.0991  11.4950  11.7530  11.8430  12.0904  15.2860  15.9282

          k = 0.6667 0.0000 0.8333 (  1986 PWs)   bands (ev):

   -33.9374 -14.9931 -14.9849 -14.9558  -5.2264   3.7006   3.9066   4.6930
     9.3328  11.2293  11.3885  11.6484  11.7594  12.8414  15.1628  15.3426

          k =-0.1667-1.0000-0.0000 (  2002 PWs)   bands (ev):

   -33.9373 -15.0044 -14.9645 -14.9630  -5.2799   3.4651   4.7644   4.7714
     8.3215  10.9304  11.4028  11.7252  11.8186  11.8701  15.6806  16.2805

          k = 0.6667-0.3333 1.0000 (  1982 PWs)   bands (ev):

   -33.9388 -15.0019 -14.9642 -14.9471  -5.2879   3.3729   4.5331   4.7373
     9.4600  10.8962  11.3954  11.5470  11.9432  13.3167  14.0473  15.3142

          k = 0.5833-0.2500 0.9167 (  1986 PWs)   bands (ev):

   -33.9381 -15.0038 -14.9708 -14.9512  -5.2317   3.3832   4.2449   4.6237
     9.8699  10.8876  11.2047  11.6983  12.0894  13.4092  14.2558  15.2929

          k = 0.5000-0.1667 0.8333 (  1984 PWs)   bands (ev):

   -33.9378 -15.0043 -14.9728 -14.9532  -5.2110   3.4103   4.1125   4.5876
    10.3090  10.3882  11.5722  11.7246  11.8092  13.6381  14.4251  15.4751

          k = 0.6667-0.1667 1.0000 (  1985 PWs)   bands (ev):

   -33.9377 -14.9995 -14.9706 -14.9591  -5.2469   3.5085   4.3899   4.5413
     9.2759  11.0369  11.2017  11.8186  11.9034  12.7718  14.8163  15.6081

          k = 0.5833-0.0833 0.9167 (  1977 PWs)   bands (ev):

   -33.9374 -14.9936 -14.9794 -14.9612  -5.2208   3.6867   4.0479   4.4608
     9.7651  10.7693  11.2271  11.6340  11.8410  13.6049  14.8634  15.4595

          k = 0.5000 0.0000 0.8333 (  1976 PWs)   bands (ev):

   -33.9376 -14.9938 -14.9818 -14.9574  -5.2152   3.6361   3.9954   4.4971
    10.3091  10.3236  11.2383  11.7706  11.7908  14.0824  14.4487  15.2062

          k =-0.3333-1.0000 0.0000 (  1980 PWs)   bands (ev):

   -33.9373 -14.9960 -14.9729 -14.9659  -5.2378   3.6441   4.3427   4.4134
     9.2126  11.0264  11.2002  11.6328  11.8731  12.8267  15.3220  15.7458

          k =-0.5000-1.0000 0.0000 (  1964 PWs)   bands (ev):

   -33.9373 -14.9844 -14.9844 -14.9674  -5.2165   3.9425   3.9425   4.2529
    10.2750  10.2750  11.0918  11.5609  11.8746  14.4090  14.8127  15.3514

     the Fermi energy is     6.7609 ev

!    total energy              =     -92.95518903 Ry
     estimated scf accuracy    <          2.1E-12 Ry
     smearing contrib. (-TS)   =      -0.00000000 Ry
     internal energy E=F+TS    =     -92.95518903 Ry

     The total energy is F=E-TS. E is the sum of the following terms:
     one-electron contribution =     -30.89619095 Ry
     hartree contribution      =      19.62283880 Ry
     xc contribution           =     -14.48802158 Ry
     ewald contribution        =     -67.19381530 Ry

     convergence has been achieved in   9 iterations

     Writing all to output data dir out/mp-1415.save/
 
     init_run     :      0.10s CPU      0.13s WALL (       1 calls)
     electrons    :      2.81s CPU      3.05s WALL (       1 calls)

     Called by init_run:
     wfcinit      :      0.08s CPU      0.09s WALL (       1 calls)
     potinit      :      0.01s CPU      0.01s WALL (       1 calls)
     hinit0       :      0.01s CPU      0.02s WALL (       1 calls)

     Called by electrons:
     c_bands      :      2.49s CPU      2.68s WALL (      10 calls)
     sum_band     :      0.30s CPU      0.33s WALL (      10 calls)
     v_of_rho     :      0.02s CPU      0.02s WALL (      10 calls)
     mix_rho      :      0.00s CPU      0.00s WALL (      10 calls)

     Called by c_bands:
     init_us_2    :      0.04s CPU      0.05s WALL (     756 calls)
     init_us_2:cp :      0.04s CPU      0.04s WALL (     756 calls)
     cegterg      :      2.22s CPU      2.38s WALL (     360 calls)

     Called by *egterg:
     cdiaghg      :      0.43s CPU      0.45s WALL (    1544 calls)
     h_psi        :      1.64s CPU      1.77s WALL (    1616 calls)
     g_psi        :      0.01s CPU      0.01s WALL (    1220 calls)

     Called by h_psi:
     h_psi:calbec :      0.07s CPU      0.07s WALL (    1616 calls)
     vloc_psi     :      1.51s CPU      1.63s WALL (    1616 calls)
     add_vuspsi   :      0.04s CPU      0.05s WALL (    1616 calls)

     General routines
     calbec       :      0.06s CPU      0.07s WALL (    1616 calls)
     fft          :      0.01s CPU      0.01s WALL (     100 calls)
     ffts         :      0.00s CPU      0.00s WALL (      10 calls)
     fftw         :      1.59s CPU      1.72s WALL (   40262 calls)
 
     Parallel routines
 
     PWSCF        :      2.99s CPU      3.52s WALL

 
   This run was terminated on:  21: 1: 3  28Dec2023            

=------------------------------------------------------------------------------=
   JOB DONE.
=------------------------------------------------------------------------------=
