
     Program PWSCF v.7.1 starts on 19Nov2023 at 14:50:53 

     This program is part of the open-source Quantum ESPRESSO suite
     for quantum simulation of materials; please cite
         "P. Giannozzi et al., J. Phys.:Condens. Matter 21 395502 (2009);
         "P. Giannozzi et al., J. Phys.:Condens. Matter 29 465901 (2017);
         "P. Giannozzi et al., J. Chem. Phys. 152 154105 (2020);
          URL http://www.quantum-espresso.org", 
     in publications or presentations arising from this work. More details at
     http://www.quantum-espresso.org/quote

     Parallel version (MPI), running on    24 processors

     MPI processes distributed on     1 nodes
     123353 MiB available memory on the printing compute node when the environment starts
 
     Reading input from pw_mp-2490_scf_k4500_E80.in
Warning: card &CELL ignored
Warning: card / ignored

     Current dimensions of program PWSCF are:
     Max number of different atomic species (ntypx) = 10
     Max number of k-points (npk) =  40000
     Max angular momentum in pseudopotentials (lmaxx) =  4
 
     K-points division:     npool     =       2
     R & G space division:  proc/nbgrp/npool/nimage =      12
     Subspace diagonalization in iterative solution of the eigenvalue problem:
     a serial algorithm will be used

 
     Parallelization info
     --------------------
     sticks:   dense  smooth     PW     G-vecs:    dense   smooth      PW
     Min          96      96     29                 2203     2203     356
     Max          97      97     30                 2208     2208     359
     Sum        1159    1159    349                26469    26469    4279
 
     Using Slab Decomposition
 


     bravais-lattice index     =            2
     lattice parameter (alat)  =      10.3021  a.u.
     unit-cell volume          =     273.3471 (a.u.)^3
     number of atoms/cell      =            2
     number of atomic types    =            2
     number of electrons       =        18.00
     number of Kohn-Sham states=           18
     kinetic-energy cutoff     =      80.0000  Ry
     charge density cutoff     =     320.0000  Ry
     scf convergence threshold =      1.0E-10
     mixing beta               =       0.7000
     number of iterations used =            8  plain     mixing
     Exchange-correlation= PBE
                           (   1   4   3   4   0   0   0)

     celldm(1)=  10.302077  celldm(2)=   0.000000  celldm(3)=   0.000000
     celldm(4)=   0.000000  celldm(5)=   0.000000  celldm(6)=   0.000000

     crystal axes: (cart. coord. in units of alat)
               a(1) = (  -0.500000   0.000000   0.500000 )  
               a(2) = (   0.000000   0.500000   0.500000 )  
               a(3) = (  -0.500000   0.500000   0.000000 )  

     reciprocal axes: (cart. coord. in units 2 pi/alat)
               b(1) = ( -1.000000 -1.000000  1.000000 )  
               b(2) = (  1.000000  1.000000  1.000000 )  
               b(3) = ( -1.000000  1.000000 -1.000000 )  


     PseudoPot. # 1 for Ga read from file:
     /usr/scratch4/magr4985/MG/HTDF/pseudo/SG15/Ga.upf
     MD5 check sum: 9961a622ff199abf6dfec9a0a10b8555
     Pseudo is Norm-conserving, Zval = 13.0
     Generated using ONCVPSP code by D. R. Hamann
     Using radial grid of  602 points,  6 beta functions with: 
                l(1) =   0
                l(2) =   0
                l(3) =   1
                l(4) =   1
                l(5) =   2
                l(6) =   2

     PseudoPot. # 2 for P  read from file:
     /usr/scratch4/magr4985/MG/HTDF/pseudo/SG15/P.upf
     MD5 check sum: 0688a67b2b263c6b42d3d97c42745426
     Pseudo is Norm-conserving, Zval =  5.0
     Generated using ONCVPSP code by D. R. Hamann
     Using radial grid of  602 points,  4 beta functions with: 
                l(1) =   0
                l(2) =   0
                l(3) =   1
                l(4) =   1

     atomic species   valence    mass     pseudopotential
        Ga            13.00    69.72300     Ga( 1.00)
        P              5.00    30.97380     P ( 1.00)

     24 Sym. Ops. (no inversion) found



   Cartesian axes

     site n.     atom                  positions (alat units)
         1           Ga  tau(   1) = (   0.0000000   0.0000000   0.0000000  )
         2           P   tau(   2) = (  -0.2500000   0.2500000   0.2500001  )

     number of k points=   104  Gaussian smearing, width (Ry)=  0.0005

     Number of k-points >= 100: set verbosity='high' to print them.

     Dense  grid:    26469 G-vectors     FFT dimensions: (  45,  45,  45)

     Estimated max dynamical RAM per process >       4.97 MB

     Estimated total dynamical RAM >     112.71 MB

     Initial potential from superposition of free atoms

     starting charge      17.9017, renormalised to      18.0000
     Starting wfcs are random

     total cpu time spent up to now is        0.4 secs

     Self-consistent Calculation

     iteration #  1     ecut=    80.00 Ry     beta= 0.70
     Davidson diagonalization with overlap
     ethr =  1.00E-02,  avg # of iterations = 10.7

     Threshold (ethr) on eigenvalues was too large:
     Diagonalizing with lowered threshold

     Davidson diagonalization with overlap
     ethr =  5.71E-04,  avg # of iterations =  2.4

     total cpu time spent up to now is        3.7 secs

     total energy              =    -144.52052041 Ry
     estimated scf accuracy    <       0.09529954 Ry

     iteration #  2     ecut=    80.00 Ry     beta= 0.70
     Davidson diagonalization with overlap
     ethr =  5.29E-04,  avg # of iterations =  2.1

     total cpu time spent up to now is        4.5 secs

     total energy              =    -144.54627197 Ry
     estimated scf accuracy    <       0.02553963 Ry

     iteration #  3     ecut=    80.00 Ry     beta= 0.70
     Davidson diagonalization with overlap
     ethr =  1.42E-04,  avg # of iterations =  2.1

     total cpu time spent up to now is        5.3 secs

     total energy              =    -144.55116994 Ry
     estimated scf accuracy    <       0.00060019 Ry

     iteration #  4     ecut=    80.00 Ry     beta= 0.70
     Davidson diagonalization with overlap
     ethr =  3.33E-06,  avg # of iterations =  6.3

     total cpu time spent up to now is        6.4 secs

     total energy              =    -144.55125232 Ry
     estimated scf accuracy    <       0.00003819 Ry

     iteration #  5     ecut=    80.00 Ry     beta= 0.70
     Davidson diagonalization with overlap
     ethr =  2.12E-07,  avg # of iterations =  1.9

     total cpu time spent up to now is        7.1 secs

     total energy              =    -144.55125703 Ry
     estimated scf accuracy    <       0.00000201 Ry

     iteration #  6     ecut=    80.00 Ry     beta= 0.70
     Davidson diagonalization with overlap
     ethr =  1.11E-08,  avg # of iterations =  2.0

     total cpu time spent up to now is        7.9 secs

     total energy              =    -144.55125774 Ry
     estimated scf accuracy    <       0.00000004 Ry

     iteration #  7     ecut=    80.00 Ry     beta= 0.70
     Davidson diagonalization with overlap
     ethr =  2.22E-10,  avg # of iterations =  2.4

     total cpu time spent up to now is        8.7 secs

     total energy              =    -144.55125776 Ry
     estimated scf accuracy    <          1.4E-09 Ry

     iteration #  8     ecut=    80.00 Ry     beta= 0.70
     Davidson diagonalization with overlap
     ethr =  8.00E-12,  avg # of iterations =  3.0

     total cpu time spent up to now is        9.6 secs

     End of self-consistent calculation

     Number of k-points >= 100: set verbosity='high' to print the bands.

     the Fermi energy is     8.9348 ev

!    total energy              =    -144.55125776 Ry
     estimated scf accuracy    <          8.7E-11 Ry
     smearing contrib. (-TS)   =      -0.00000000 Ry
     internal energy E=F+TS    =    -144.55125776 Ry

     The total energy is F=E-TS. E is the sum of the following terms:
     one-electron contribution =     -77.58070136 Ry
     hartree contribution      =      50.95286015 Ry
     xc contribution           =     -21.46569468 Ry
     ewald contribution        =     -96.45772186 Ry

     convergence has been achieved in   8 iterations

     Writing all to output data dir out/mp-2490.save/
 
     init_run     :      0.28s CPU      0.35s WALL (       1 calls)
     electrons    :      8.36s CPU      9.21s WALL (       1 calls)

     Called by init_run:
     wfcinit      :      0.24s CPU      0.28s WALL (       1 calls)
     potinit      :      0.01s CPU      0.01s WALL (       1 calls)
     hinit0       :      0.01s CPU      0.04s WALL (       1 calls)

     Called by electrons:
     c_bands      :      7.32s CPU      7.94s WALL (       9 calls)
     sum_band     :      1.00s CPU      1.15s WALL (       9 calls)
     v_of_rho     :      0.04s CPU      0.04s WALL (       9 calls)
     mix_rho      :      0.01s CPU      0.01s WALL (       9 calls)

     Called by c_bands:
     init_us_2    :      0.08s CPU      0.08s WALL (     988 calls)
     init_us_2:cp :      0.07s CPU      0.08s WALL (     988 calls)
     cegterg      :      6.67s CPU      6.91s WALL (     468 calls)

     Called by *egterg:
     cdiaghg      :      0.80s CPU      0.84s WALL (    2138 calls)
     h_psi        :      5.57s CPU      5.79s WALL (    2242 calls)
     g_psi        :      0.03s CPU      0.03s WALL (    1722 calls)

     Called by h_psi:
     h_psi:calbec :      0.11s CPU      0.12s WALL (    2242 calls)
     vloc_psi     :      5.35s CPU      5.56s WALL (    2242 calls)
     add_vuspsi   :      0.07s CPU      0.08s WALL (    2242 calls)

     General routines
     calbec       :      0.11s CPU      0.12s WALL (    2242 calls)
     fft          :      0.02s CPU      0.04s WALL (      90 calls)
     ffts         :      0.00s CPU      0.00s WALL (       9 calls)
     fftw         :      5.72s CPU      5.96s WALL (   62956 calls)
     davcio       :      0.08s CPU      0.44s WALL (    1576 calls)
 
     Parallel routines
 
     PWSCF        :      8.89s CPU     10.48s WALL

 
   This run was terminated on:  14:51: 3  19Nov2023            

=------------------------------------------------------------------------------=
   JOB DONE.
=------------------------------------------------------------------------------=
