
     Program PWSCF v.7.1 starts on 18Nov2023 at 21: 5:43 

     This program is part of the open-source Quantum ESPRESSO suite
     for quantum simulation of materials; please cite
         "P. Giannozzi et al., J. Phys.:Condens. Matter 21 395502 (2009);
         "P. Giannozzi et al., J. Phys.:Condens. Matter 29 465901 (2017);
         "P. Giannozzi et al., J. Chem. Phys. 152 154105 (2020);
          URL http://www.quantum-espresso.org", 
     in publications or presentations arising from this work. More details at
     http://www.quantum-espresso.org/quote

     Parallel version (MPI), running on     8 processors

     MPI processes distributed on     1 nodes
     123630 MiB available memory on the printing compute node when the environment starts
 
     Reading input from pw_mp-2490_nscf_k60_E80.in
Warning: card &IONS ignored
Warning: card / ignored
Warning: card &CELL ignored
Warning: card / ignored

     Current dimensions of program PWSCF are:
     Max number of different atomic species (ntypx) = 10
     Max number of k-points (npk) =  40000
     Max angular momentum in pseudopotentials (lmaxx) =  4

     Atomic positions and unit cell read from directory:
     out/mp-2490.save/
     Atomic positions from file used, from input discarded
 
 
     R & G space division:  proc/nbgrp/npool/nimage =       8
     Subspace diagonalization in iterative solution of the eigenvalue problem:
     one sub-group per band group will be used
     scalapack distributed-memory algorithm (size of sub-group:  2*  2 procs)

 
     Parallelization info
     --------------------
     sticks:   dense  smooth     PW     G-vecs:    dense   smooth      PW
     Min         144     144     43                 3305     3305     513
     Max         145     145     44                 3310     3310     514
     Sum        1159    1159    349                26469    26469    4111
 
     Using Slab Decomposition
 


     bravais-lattice index     =            2
     lattice parameter (alat)  =      10.3021  a.u.
     unit-cell volume          =     273.3471 (a.u.)^3
     number of atoms/cell      =            2
     number of atomic types    =            2
     number of electrons       =        18.00
     number of Kohn-Sham states=         1200
     kinetic-energy cutoff     =      80.0000  Ry
     charge density cutoff     =     320.0000  Ry
     Exchange-correlation= PBE
                           (   1   4   3   4   0   0   0)

     celldm(1)=  10.302077  celldm(2)=   0.000000  celldm(3)=   0.000000
     celldm(4)=   0.000000  celldm(5)=   0.000000  celldm(6)=   0.000000

     crystal axes: (cart. coord. in units of alat)
               a(1) = (  -0.500000   0.000000   0.500000 )  
               a(2) = (   0.000000   0.500000   0.500000 )  
               a(3) = (  -0.500000   0.500000   0.000000 )  

     reciprocal axes: (cart. coord. in units 2 pi/alat)
               b(1) = ( -1.000000 -1.000000  1.000000 )  
               b(2) = (  1.000000  1.000000  1.000000 )  
               b(3) = ( -1.000000  1.000000 -1.000000 )  


     PseudoPot. # 1 for Ga read from file:
     /usr/scratch4/magr4985/MG/HTDF/pseudo/SG15/Ga.upf
     MD5 check sum: 9961a622ff199abf6dfec9a0a10b8555
     Pseudo is Norm-conserving, Zval = 13.0
     Generated using ONCVPSP code by D. R. Hamann
     Using radial grid of  602 points,  6 beta functions with: 
                l(1) =   0
                l(2) =   0
                l(3) =   1
                l(4) =   1
                l(5) =   2
                l(6) =   2

     PseudoPot. # 2 for P  read from file:
     /usr/scratch4/magr4985/MG/HTDF/pseudo/SG15/P.upf
     MD5 check sum: 0688a67b2b263c6b42d3d97c42745426
     Pseudo is Norm-conserving, Zval =  5.0
     Generated using ONCVPSP code by D. R. Hamann
     Using radial grid of  602 points,  4 beta functions with: 
                l(1) =   0
                l(2) =   0
                l(3) =   1
                l(4) =   1

     atomic species   valence    mass     pseudopotential
        Ga            13.00    69.72300     Ga( 1.00)
        P              5.00    30.97380     P ( 1.00)

     24 Sym. Ops. (no inversion) found



   Cartesian axes

     site n.     atom                  positions (alat units)
         1           Ga  tau(   1) = (   0.0000000   0.0000000   0.0000000  )
         2           P   tau(   2) = (  -0.2500000   0.2500000   0.2500001  )

     number of k points=     8  Gaussian smearing, width (Ry)=  0.0005
                       cart. coord. in units 2pi/alat
        k(    1) = (   0.0000000   0.0000000   0.0000000), wk =   0.0312500
        k(    2) = (  -0.2500000   0.2500000  -0.2500000), wk =   0.2500000
        k(    3) = (   0.5000000  -0.5000000   0.5000000), wk =   0.1250000
        k(    4) = (   0.0000000   0.5000000   0.0000000), wk =   0.1875000
        k(    5) = (   0.7500000  -0.2500000   0.7500000), wk =   0.7500000
        k(    6) = (   0.5000000   0.0000000   0.5000000), wk =   0.3750000
        k(    7) = (   0.0000000  -1.0000000   0.0000000), wk =   0.0937500
        k(    8) = (  -0.5000000  -1.0000000   0.0000000), wk =   0.1875000

     Dense  grid:    26469 G-vectors     FFT dimensions: (  45,  45,  45)

     Estimated max dynamical RAM per process >     168.86 MB

     Estimated total dynamical RAM >       1.32 GB

     The potential is recalculated from file :
     out/mp-2490.save/charge-density

     Starting wfcs are random

     Band Structure Calculation
     Davidson diagonalization with overlap

     ethr =  5.00E-06,  avg # of iterations = 10.6

     total cpu time spent up to now is      981.5 secs

     End of band structure calculation

          k = 0.0000 0.0000 0.0000 (  3287 PWs)   bands (ev):

    -6.8899  -6.8899  -6.8899  -6.7901  -6.7901  -4.8306   7.6554   7.6554
     7.6554   9.4741  11.5553  11.5553  11.5553  16.4686  17.4042  17.4042
    20.1195  20.1195  20.1195  23.4983  31.9884  31.9884  31.9884  34.8826
    34.8826  34.8826  34.8886  34.8886  37.3931  37.3931  37.3931  45.7922
    46.7648  46.7648  47.6908  47.6908  47.6908  50.4845  50.4845  50.4845
    52.1040  52.3984  52.3984  52.3984  53.0653  53.0653  53.0653  53.8494
    53.8494  53.8494  54.4971  54.4971  54.4971  54.8289  54.8289  58.1642
    60.5615  60.5615  60.5615  60.6539  60.6539  60.6539  62.9804  67.5991
    73.5643  73.5643  76.3185  76.3185  76.3185  78.7254  78.7254  78.7254
    80.4419  84.8665  84.8665  84.8960  84.8960  84.8960  89.9782  89.9782
    89.9782  90.9018  90.9018  90.9018  92.5178  92.5178  92.5345  92.5345
    92.5345  93.4027  94.9063  94.9063  94.9063  95.9665  95.9665  96.2318
    96.2318  96.2318  97.2584  97.8768  97.8768  97.8768  99.1686  99.1686
    99.1686 100.6439 100.7458 100.7458 100.7458 101.6605 101.6605 101.6605
   101.7593 101.7593 101.8549 102.1067 102.1067 102.1067 109.9442 111.4033
   111.4033 111.4033 114.2555 114.2555 114.2555 114.2844 114.2844 116.3015
   116.3015 116.3015 116.9507 116.9507 116.9507 117.8027 117.8027 117.8027
   118.5741 118.5741 119.4676 121.3513 121.3513 121.3513 127.0061 127.0061
   127.2529 130.2061 130.2061 130.2061 130.9719 130.9719 130.9719 131.3520
   132.6494 132.6494 132.6494 132.9110 133.8498 133.8498 133.8498 134.0405
   134.0405 134.0405 134.8914 134.8914 134.8914 135.6280 135.6280 135.6562
   135.6562 135.6562 136.5584 136.5584 136.5584 143.3850 144.0279 146.4739
   146.4739 146.4739 149.5925 149.5925 150.1160 150.1160 150.1160 157.1102
   157.1102 157.1102 159.6393 161.8911 161.8911 162.6821 162.6821 162.6821
   163.5632 165.0491 165.0491 165.0491 166.2757 166.2757 166.2757 168.4371
   168.4371 168.4371 169.3112 169.3112 169.3112 169.6592 169.6592 169.6593
   170.5751 170.5751 172.0336 172.0336 172.0336 172.0949 172.0949 172.0949
   173.1883 173.1883 173.3663 173.7683 173.7683 173.7683 173.8849 173.8849
   173.8849 174.6702 174.9041 174.9041 174.9041 175.2282 175.2282 175.2282
   175.3032 175.3032 175.4727 175.5943 176.8216 176.8216 176.8216 177.6883
   177.7979 177.7979 177.7979 177.8507 177.8507 180.4798 180.4798 180.4798
   180.6715 180.6715 180.6715 181.1379 181.1379 181.1379 181.2891 181.2891
   181.5373 181.5373 181.5373 182.1583 182.1583 182.1583 182.2458 182.2458
   190.1907 192.3929 192.3929 192.3929 193.6080 193.6080 197.1933 197.1933
   197.1933 197.6972 197.6972 197.6972 197.9278 197.9278 197.9278 198.4037
   198.4037 198.4037 200.3914 200.9855 200.9855 201.0198 201.0198 201.0198
   201.0794 201.9707 201.9707 201.9707 203.0244 207.0956 207.0956 207.0957
   209.3983 209.3983 209.3983 209.8079 209.8079 209.8079 210.4222 210.4222
   210.5402 210.5402 210.5402 211.8673 211.8673 211.8673 214.5723 214.5723
   214.5774 216.6746 216.6746 216.6746 218.3168 218.3168 218.3168 219.0641
   219.4056 219.4056 219.4056 219.4177 219.4177 219.5862 219.5862 219.5862
   220.3725 220.3725 220.3725 221.2199 221.2199 221.2199 222.0072 222.0072
   232.4985 233.0475 233.0475 233.0475 234.3633 234.3633 234.3633 235.9769
   237.4077 237.4077 239.5516 239.5516 239.5516 239.9389 240.0525 240.0525
   240.0525 241.8831 241.8831 241.8831 246.0219 246.0219 246.0219 246.2549
   246.2549 247.4393 248.4561 248.4561 248.4561 248.8018 248.8018 248.8018
   250.0292 250.0292 250.0361 250.8543 250.8543 250.8543 251.0758 253.4759
   253.4759 253.4759 254.1643 254.1643 254.1643 254.4008 254.4008 254.4008
   254.6130 254.6130 254.6130 257.0388 257.0388 257.0388 258.3272 258.3272
   258.9445 258.9445 258.9445 258.9684 258.9684 258.9684 258.9781 258.9781
   258.9781 258.9954 260.6766 261.0348 261.0348 261.0381 261.0381 261.0381
   261.7333 261.7333 261.7333 262.5775 262.5775 262.5775 262.7669 262.7669
   265.8604 265.8604 265.8604 266.1082 268.0952 271.4218 271.4218 271.4218
   271.4868 271.4868 271.4868 272.1454 272.1454 272.1454 273.0865 273.0865
   273.0865 274.2968 274.2968 274.2968 274.3594 274.3594 276.8232 276.8232
   277.7701 277.7701 278.4223 278.4223 278.4223 278.5511 278.5511 278.5511
   278.8274 278.8274 278.8274 279.6116 279.6116 279.6116 280.1734 280.3905
   280.3905 281.0395 281.0395 281.0395 281.4847 281.4847 281.4847 281.7957
   284.6647 285.1818 285.1818 285.1818 286.7681 288.6493 288.6493 288.6493
   288.7275 288.7275 290.7310 290.7310 290.7310 291.2326 291.2326 291.2326
   291.4702 291.4702 291.4702 291.8945 292.2224 292.2224 292.2224 293.2477
   293.2477 293.2477 293.6553 294.5826 294.5826 294.5826 294.8479 294.8479
   295.0085 295.0085 295.0085 295.1757 295.1757 295.1757 295.2793 295.2793
   295.2793 295.3464 295.3464 295.7770 295.8348 295.8348 295.8348 296.0019
   296.0019 296.0019 296.2212 296.5050 296.5050 296.5050 296.5888 296.5888
   296.8300 296.8300 296.8300 296.8564 296.8564 296.8564 296.9750 296.9750
   296.9899 296.9899 296.9899 305.1578 305.1578 305.2307 305.2307 305.2307
   315.7197 315.7197 315.7197 316.1492 316.4986 316.4986 321.6658 321.6658
   321.6658 322.2490 324.3024 325.2469 325.2469 325.2469 327.1585 327.1585
   327.6914 327.6914 327.6914 328.1827 328.1827 328.1827 329.3258 329.3258
   329.3258 329.7180 329.7180 329.7180 331.7858 333.2967 333.2967 333.6767
   333.6767 333.6767 336.1263 336.1310 336.1310 336.1310 336.9492 338.2543
   338.2543 338.7241 338.7241 338.7241 339.2887 339.2887 339.2887 339.3390
   339.3390 339.3390 339.4401 339.4401 339.4401 341.4053 341.4053 341.4053
   341.6658 341.6658 341.6658 341.7441 341.7441 341.8730 341.8730 341.8730
   342.0537 342.0537 342.0537 342.3559 342.3559 342.3730 342.3730 342.3730
   342.4110 343.2097 343.2097 343.2097 344.2104 344.2104 349.1928 349.1928
   349.1928 349.2259 349.2352 349.2352 349.2352 352.3437 352.3437 352.8253
   352.8253 352.8253 355.6408 355.6408 355.6408 356.8909 358.1599 358.1599
   358.2193 358.2193 358.2193 358.5478 358.5478 358.5478 358.5816 358.5816
   358.5816 358.7524 358.7524 358.7524 360.1817 360.3854 360.3854 360.3854
   360.4695 360.4695 362.6540 362.6540 362.6540 362.8916 363.0214 363.0214
   363.0214 368.3242 368.3242 368.3242 368.9945 370.3911 370.3911 370.3911
   371.4342 371.4342 371.4342 371.5592 371.5592 372.1754 372.1754 372.1754
   372.4482 373.4344 373.4344 373.4344 373.4650 373.4650 373.5365 373.8854
   373.8854 373.8854 373.8897 373.8897 374.0843 374.0843 374.0843 374.2287
   374.2287 374.2287 374.3102 375.5563 375.5563 375.5563 375.6195 375.6195
   375.6195 375.6810 375.6810 375.6810 375.7730 379.1747 379.1747 379.4649
   379.4649 379.4649 380.7031 380.7031 380.7031 380.9236 380.9292 380.9292
   380.9292 382.2077 382.2077 382.2077 382.2449 382.2449 382.4670 382.4670
   382.4670 382.5138 382.5153 382.5153 382.5153 386.7779 386.7779 390.7051
   390.7051 390.7051 395.0002 395.0002 395.1784 396.0739 396.0739 396.0739
   398.0404 398.0404 398.0404 398.5193 398.5193 398.5193 398.9912 398.9912
   398.9912 399.7753 399.7753 399.8669 399.8669 399.8669 399.9522 400.0255
   400.0255 400.0255 401.1727 402.3141 402.3141 402.3141 403.3429 404.8255
   404.8255 404.8255 406.2809 406.2809 406.2809 406.8232 406.8232 406.8232
   407.0411 407.0411 407.0411 407.3007 407.3007 408.1506 409.7912 409.7912
   409.8004 409.8004 409.8004 410.7353 410.7353 411.0513 411.0513 411.0513
   412.6191 412.6979 412.6979 412.6979 413.6781 413.6781 413.6781 413.9833
   413.9833 413.9833 414.0243 414.0243 414.2344 414.2344 414.2344 414.5148
   414.5148 414.5653 414.5653 414.5653 416.0256 416.1264 416.1264 416.1264
   416.1829 416.1829 416.1829 416.4757 416.4757 416.4757 416.6412 416.6412
   416.6412 416.8093 416.8446 416.8446 416.8446 416.9607 416.9607 416.9607
   417.6998 418.4908 418.4908 418.4908 418.6633 418.7394 418.7394 419.7677
   419.7677 419.7677 419.9006 419.9006 419.9006 420.2221 420.2221 420.2367
   420.2367 420.2367 420.3298 420.3298 420.3298 422.3967 422.3967 422.5947
   422.5947 422.5947 422.9851 422.9851 422.9851 423.0103 423.1888 423.1888
   423.1888 423.2761 423.2761 423.2761 423.5484 423.5484 423.5484 423.6386
   423.6386 423.8746 423.8746 423.8746 424.0246 429.7251 429.7251 429.7251
   433.5589 433.8541 434.0372 434.0372 434.0372 439.1432 439.1432 441.9348
   441.9348 441.9348 442.0394 442.0394 442.0394 442.2242 442.2242 442.2242
   442.2412 442.2412 442.2658 442.2658 442.2658 443.7704 443.7704 448.1064
   448.1064 448.1694 448.6128 448.6128 448.6128 449.1501 449.1501 449.1501
   451.2845 451.2845 451.2845 451.4013 451.4013 451.4013 451.6651 451.6651
   451.6651 453.3331 453.4398 453.4398 453.4398 455.7590 455.7590 455.7590
   456.8224 456.8224 456.8592 456.8592 456.8592 457.0347 457.0347 457.0347
   457.1067 457.1630 457.1630 457.1630 457.1799 457.1799 457.1799 457.5819
   457.5819 457.6075 457.6132 457.6132 457.6132 464.2739 464.2739 464.2739
   470.7118 470.8998 470.8998 472.4458 472.4458 472.4458 473.2904 474.8228
   474.8228 474.8228 474.9335 474.9335 474.9335 476.2430 476.2430 476.2430
   476.2824 476.2824 476.6439 476.6439 476.6439 476.8010 476.8010 476.8010
   478.4830 478.4830 481.7176 481.7176 481.7176 482.4622 483.7703 483.7703
   483.7703 485.7444 485.7444 485.7444 485.8647 485.8647 487.5668 489.0619
   489.0619 489.0619 489.3482 489.3482 489.3482 489.7155 490.8904 490.8904
   490.8904 491.4155 491.4155 491.8251 491.8531 491.8531 491.8531 492.9603
   492.9603 492.9603 493.8086 493.8086 494.1470 494.1470 494.1470 494.3372
   494.6055 494.6055 494.6055 494.8987 494.8987 494.8987 495.6525 495.6525
   495.6525 496.1209 496.1209 496.1209 496.2362 497.9739 497.9739 498.2802
   498.2802 498.2802 498.2853 498.2853 498.4396 498.4396 498.4396 498.4507
   498.4507 498.4507 498.4775 498.4775 498.4775 499.2792 499.2792 499.5409
   499.7265 499.7265 499.7265 501.3935 501.4197 501.4197 501.4197 501.4412
   501.4412 501.4412 501.4499 501.4499 501.5075 501.5075 501.5075 503.8874
   503.8874 503.8874 504.0076 504.0076 504.2416 504.2625 504.2625 504.2625
   504.3309 504.3309 504.3309 506.7258 506.7258 510.4036 510.4036 510.4036
   511.6387 512.8896 512.8896 512.8896 513.8241 513.8241 513.8241 514.3489
   514.3489 514.8913 515.1459 515.1459 515.1459 516.2001 516.5137 516.5137
   516.5137 516.8045 516.8045 516.8045 516.9866 516.9866 516.9887 516.9887
   516.9887 518.7261 518.7261 518.7261 519.2647 519.2647 519.2647 519.3628
   519.3628 519.3628 519.8532 519.8577 519.8577 521.1737 521.1737 521.1737
   521.5611 521.5611 521.5611 521.6007 521.6007 521.6007 521.8251 521.8251
   521.8251 522.3316 522.3316 522.3723 522.3723 522.3723 522.4372 522.4372
   522.4372 522.4836 522.4836 522.4836 522.5362 524.4832 524.4832 524.5225
   524.5225 524.5225 524.5877 525.3449 525.3449 525.3449 525.8069 525.8069
   530.9303 532.3974 533.0093 533.0093 533.0093 533.2007 533.2007 533.2007
   533.6248 533.6248 533.6248 534.1956 534.1956 534.1956 534.4151 534.4151
   534.4151 534.6103 534.6103 535.0090 535.0090 535.0090 535.0132 535.0132
   535.4523 535.4523 535.4523 535.5442 535.7013 535.7013 535.7013 536.2701
   536.5415 536.5415 536.5415 536.6393 536.6393 537.0700 537.0700 537.0700
   537.2710 537.2710 537.2710 537.2784 537.2784 537.2784 537.3425 537.3425
   537.3425 537.3885 537.6572 538.0697 538.0697 538.0697 538.0852 538.0852

          k =-0.2500 0.2500-0.2500 (  3317 PWs)   bands (ev):

    -6.9338  -6.8752  -6.8752  -6.7890  -6.7890  -4.0560   3.7831   6.9952
     6.9952   9.8143  12.4087  12.4087  14.0057  16.6186  16.6186  17.5921
    20.7499  23.8755  23.8755  26.5336  26.9142  26.9142  28.2632  33.7829
    33.7829  36.0997  36.0997  36.6865  38.0886  39.6713  39.6713  40.9523
    44.2628  44.2628  45.6130  45.6130  45.9815  47.0669  47.0669  47.5039
    47.5382  50.8660  50.8660  51.5616  52.3942  52.9230  52.9230  54.1444
    56.4284  56.4284  58.4425  58.4425  58.9472  60.8104  60.8104  61.3877
    62.1678  65.3536  65.6618  65.6618  67.0308  67.0308  67.9809  67.9809
    69.4090  70.5539  70.8463  70.8463  73.0779  76.8572  77.2772  77.2772
    79.5719  79.5719  83.0586  83.0702  83.4271  83.4271  84.9438  86.2368
    86.2368  86.5462  88.3341  88.3341  89.2404  89.3347  89.3347  91.7186
    92.0863  92.7429  92.7429  93.3010  93.3010  94.2973  95.1496  95.1496
    96.8306  97.4402  97.4402  97.9098  98.7639  98.7639  98.9274 100.0157
   100.2673 100.2674 101.8526 103.3199 103.3199 105.4873 105.5048 105.5048
   106.7114 106.7114 107.7547 108.2169 108.2169 108.3787 109.3897 109.3897
   110.6692 112.1972 112.4313 112.4313 113.5154 114.2699 114.2699 115.4792
   115.6442 116.2574 116.2574 117.5317 117.5317 117.5760 119.0846 119.0846
   119.8207 121.2257 121.2257 122.4183 122.4183 122.4933 123.7799 124.1945
   124.7329 124.7329 126.0730 127.3414 127.3414 127.5415 128.2151 128.2151
   129.0097 129.1669 129.1669 132.7115 132.7115 132.8932 136.7348 136.7349
   137.6348 139.1822 139.1822 139.6512 140.6706 142.2040 142.2040 144.8343
   144.8343 144.9631 145.7076 145.7825 145.7825 146.9156 146.9156 147.0475
   148.1549 148.1549 148.6931 150.2279 150.5544 150.5544 151.5435 151.5435
   151.7467 153.1913 153.2690 154.0358 154.0358 155.5331 155.8627 155.8627
   156.1349 156.3678 156.3678 157.1668 157.8928 157.8928 160.7911 162.2491
   162.2491 162.4391 162.6695 163.3122 163.3122 164.4865 164.4865 165.2741
   166.1679 166.1679 166.5227 167.8595 167.8595 168.9970 169.5497 169.5497
   169.8657 170.5316 170.8295 170.8295 171.8581 171.8581 174.0528 174.0528
   174.3665 174.4738 175.3102 175.3102 176.2739 176.3974 176.3974 177.1975
   177.6363 178.1822 178.1822 179.1518 179.3655 179.3655 179.3970 180.0221
   180.0221 180.2672 180.8534 180.8534 182.5498 183.6048 183.6048 184.8310
   184.8310 185.7935 185.9010 185.9010 186.9534 187.0009 187.0009 187.5878
   187.9685 187.9685 189.1020 189.6622 189.6622 190.7130 190.8809 190.8809
   191.4456 191.7804 192.5478 192.5478 193.0396 193.8459 193.8459 194.4726
   194.4726 194.5061 195.1630 195.1630 196.5726 196.8964 196.8964 197.6444
   197.8802 197.8802 198.6733 198.8649 198.8649 201.4550 202.9709 203.3515
   203.3515 204.2709 205.8181 205.8181 206.4037 206.4511 206.6591 206.6591
   207.2460 207.2460 208.6664 208.7200 208.7200 209.9134 209.9134 210.0423
   210.0660 211.2601 211.2601 214.7950 215.0751 215.0751 215.2206 216.1698
   216.1698 217.3018 217.3018 217.6856 220.3311 220.3311 220.7119 221.2256
   222.1580 222.1580 223.0255 223.2675 223.2675 224.3540 224.7484 224.7484
   224.7518 226.1776 226.1776 226.8958 226.8958 227.7427 228.9969 229.3760
   229.3760 230.4483 232.2799 232.8357 232.8357 233.6066 234.0484 234.5547
   234.5547 234.6288 234.9566 234.9566 235.8717 235.8717 236.7319 237.0135
   237.0135 237.6268 238.2444 238.2826 238.2826 238.3941 238.3941 239.9384
   240.0321 240.0321 240.5554 240.5554 240.6799 242.1491 242.4929 242.4929
   244.4487 245.1536 245.1536 246.5437 246.5437 247.4399 247.7436 247.7436
   249.2135 249.3910 249.3910 249.8130 249.8130 251.5421 251.7865 252.5365
   252.9914 252.9914 255.8195 255.8195 256.8043 257.0570 257.0570 257.4865
   257.8342 257.8342 258.1229 258.4610 258.5936 258.5936 260.1217 260.2262
   260.2262 262.7802 263.0824 263.0824 263.5353 263.5353 264.6611 265.0491
   265.0491 265.1077 265.4899 265.4899 265.8834 265.8872 265.8872 266.7443
   266.7443 266.7950 267.4840 268.0682 268.0682 268.7045 268.9724 268.9946
   268.9946 269.2336 270.0797 270.0797 270.6336 270.6336 271.0360 271.7059
   271.7811 271.7811 271.8925 273.1235 273.4301 273.4301 273.7667 274.0203
   274.0203 274.5829 274.5829 275.9693 275.9693 275.9903 276.7457 277.7463
   277.7463 278.7363 279.1404 279.2501 279.2501 279.5763 279.5763 279.7017
   281.3139 281.3139 282.1788 282.1788 282.3332 282.7378 283.6290 283.6290
   283.8661 284.6841 284.6841 284.8369 285.6945 285.6945 285.9922 286.3552
   286.3813 286.3813 286.9062 286.9062 287.3372 288.1681 289.1658 289.1658
   289.4357 289.4357 289.6489 289.8088 289.8088 289.8563 291.7008 292.0985
   292.0985 295.0534 295.0534 295.5419 295.6490 295.6490 297.0998 298.0503
   298.3846 298.3846 298.8197 299.0928 299.0928 299.8585 300.5614 301.0483
   301.0483 302.1844 302.1844 303.5246 303.7194 303.7194 304.0916 304.0916
   304.3392 304.9007 304.9007 305.4301 306.5600 306.5600 306.7635 307.2727
   307.4358 307.4358 307.9149 307.9149 308.3437 309.6956 309.6956 310.2457
   310.2457 312.1491 312.2110 312.5279 312.6601 312.6601 312.7853 313.6523
   313.6523 315.6745 315.6745 316.6800 316.6800 316.9024 317.1982 317.3050
   317.3050 317.8641 318.0671 318.0671 318.9023 320.1716 320.3553 320.3553
   320.8554 321.5262 321.5262 322.9597 323.2491 323.2491 324.2726 324.2726
   324.7484 325.6553 326.2282 326.2282 326.7720 326.8830 326.8830 327.3813
   327.6378 327.6378 328.1691 328.6784 328.6784 328.8834 328.8834 328.9912
   329.8868 329.8868 330.2975 331.4373 331.4373 333.6241 335.8355 335.8355
   336.6487 337.1996 337.1996 338.3681 338.5996 338.8397 338.9338 338.9338
   339.2960 339.2960 339.8772 340.9025 340.9025 342.1018 342.1018 342.1369
   343.1349 343.1349 343.2199 344.1061 344.2397 344.2397 345.4954 346.7596
   346.8170 346.8170 347.8048 347.8048 348.1385 348.1385 348.1913 348.4506
   349.1162 349.1162 349.8410 349.8410 350.0500 350.4464 350.7527 350.9397
   350.9397 352.0714 352.6581 352.6581 354.7320 354.7320 355.7933 355.8500
   355.8500 355.8965 356.7530 356.9548 356.9548 358.2246 358.6180 358.6180
   358.6631 359.0186 359.0186 360.2388 360.2388 360.7986 361.5892 362.2207
   362.2207 363.3850 363.3850 363.4863 363.7826 365.8791 365.8792 366.9541
   366.9541 367.2269 367.3045 367.3604 367.3604 368.3547 368.4253 368.4253
   369.5857 369.5857 370.2361 370.2795 370.3080 370.3081 370.6848 370.6972
   370.6972 370.7596 372.7920 372.7920 373.3000 373.5087 373.5087 373.9004
   373.9004 373.9215 375.3645 375.3645 375.8680 377.0294 377.0294 377.7311
   377.7311 377.7709 378.0805 378.0805 378.2065 378.7338 378.7338 379.3382
   379.9010 380.0666 380.0787 380.0787 380.2863 380.4700 380.4700 380.9002
   380.9002 381.0205 381.7329 381.8687 381.8687 382.2575 382.2575 382.9829
   383.6332 383.6332 383.8819 384.3529 384.3529 385.7802 385.8905 385.8905
   386.7073 387.3400 387.3400 387.7693 388.0004 388.0004 388.3121 388.5779
   388.5779 388.8899 388.9098 389.3121 389.3121 389.5837 389.5837 389.8734
   389.8929 389.8929 390.3649 390.7218 390.7218 391.1156 391.4347 391.4347
   391.7573 394.1370 394.1370 394.4298 395.0265 395.3824 395.3824 396.1665
   396.2313 396.2313 396.8164 397.8878 397.8878 398.3520 398.3653 398.3661
   398.3661 399.6267 399.6267 399.7708 402.1714 402.3955 402.3955 402.6888
   402.6888 403.3221 403.3221 403.4236 403.4856 403.6320 403.6320 404.5561
   404.5561 405.3148 406.5866 406.5866 407.2002 407.5751 407.7504 407.7504
   408.1738 408.1738 408.4013 408.4705 408.4705 408.7806 408.9916 409.2974
   409.2974 410.0938 410.2238 410.2238 410.6934 413.1036 413.1036 413.9238
   413.9238 414.2846 414.5023 414.5023 414.8999 415.0770 415.2286 415.2286
   417.1184 417.2609 417.2609 417.8735 417.8735 417.9062 418.9497 419.2022
   419.2022 420.8179 420.9438 421.1431 421.1431 421.8418 421.8418 423.4411
   423.8512 423.8512 424.3109 424.7169 424.7169 424.9421 424.9421 425.1287
   426.2782 426.2794 426.2794 427.2519 427.5837 427.5837 427.6890 428.0101
   428.0101 428.1886 428.5444 429.0202 429.0202 430.0803 430.0803 430.6429
   430.6429 430.7461 430.8561 432.2166 432.3873 432.3873 433.0397 433.0397
   433.1275 433.5623 433.6002 433.6002 434.0918 434.0919 434.5990 435.4359
   435.8629 436.5077 436.5077 437.0099 437.0099 437.1290 437.4580 437.4580
   437.9553 438.2789 438.2789 438.4597 438.6127 438.6127 438.7900 439.1397
   439.1397 440.3254 440.3856 440.3856 440.7011 440.8531 440.8531 442.5147
   442.9729 442.9729 443.8564 445.3919 445.3919 445.5030 445.6781 445.6781
   445.7577 445.9482 445.9482 447.5481 447.5481 447.6159 447.7432 447.7432
   447.8145 448.8046 450.8433 450.8433 451.8030 452.2999 452.2999 452.9766
   452.9766 453.2803 454.4522 454.8485 454.8624 454.8624 455.3619 455.3619
   456.9137 456.9137 457.0536 457.1886 457.2628 457.2628 458.3577 458.3577
   458.7534 460.0173 460.0173 460.7580 461.2433 461.2433 461.7776 461.7838
   461.7838 463.1075 465.4602 465.4602 466.6416 466.6416 466.7329 467.7731
   467.7731 468.2288 469.5495 470.1053 470.2271 470.2271 470.2542 470.2542
   470.7542 471.7532 471.7532 472.1648 472.1648 472.1715 472.3401 472.9729
   472.9997 473.5359 473.5359 474.3839 474.3839 474.9899 475.3270 475.3270
   475.6679 475.9515 475.9515 476.1032 477.2188 477.2188 477.6988 478.9372
   478.9372 479.9492 480.2107 480.6450 480.6450 481.3890 481.3890 481.7269
   481.9588 481.9719 481.9719 482.8550 482.8550 482.9421 483.3322 483.3322
   483.6096 483.6096 483.9285 483.9285 483.9821 485.0080 485.0107 485.0107
   485.7224 485.9677 485.9677 486.8280 487.2208 487.2208 487.7134 489.2499
   489.3142 489.3142 490.1555 490.1605 490.1605 490.8654 490.8654 490.9579
   491.1557 491.3531 491.3750 491.6542 491.6542 492.0569 492.0569 492.8625
   492.8625 493.2517 493.2517 493.4226 494.7193 494.7193 495.1860 496.8953
   496.8953 497.0076 497.8879 497.8910 497.8910 498.4330 498.6083 498.6083
   499.3441 499.4487 499.4487 499.6425 500.1563 500.1563 500.4805 500.4805
   500.5121 500.6677 500.9845 500.9845 501.7863 502.4314 502.4314 502.8271
   503.4410 503.4410 503.4883 503.5610 503.5780 503.5780 504.0951 504.0951
   504.8414 506.1954 506.2463 506.2463 506.7918 506.7918 507.0638 507.2948
   507.4353 507.4353 508.5913 508.5913 508.7977 509.0102 509.0102 509.3236
   509.7458 509.7550 509.7550 510.9991 510.9991 511.9176 512.6170 513.2186
   513.2186 514.7307 514.8894 514.8894 515.5319 515.5319 515.6728 515.7177
   515.7438 515.7438 515.8278 516.9048 516.9048 517.3808 517.3808 517.9932
   518.3207 518.3207 518.4356 518.5344 518.7278 518.7278 519.0974 519.1388
   519.1388 519.1576 519.4146 519.4146 519.8350 520.1903 520.1903 521.3398
   521.9119 521.9119 523.1450 523.1450 523.5287 524.3944 524.3944 524.5437
   525.0482 525.1640 525.2388 525.2388 525.4170 525.4170 526.0215 526.1948
   526.1948 526.3068 526.3068 526.7496 528.8423 528.8423 529.0528 529.1270
   529.1270 529.3137 530.2191 530.5462 530.5462 530.6733 530.8870 530.8870
   531.1017 531.1017 531.1236 531.4285 531.6392 531.7426 531.7426 532.8222
   532.8222 533.0561 533.0561 533.6583 534.5084 535.2596 535.2596 535.5190
   536.6445 537.6268 537.6268 537.6450 537.8333 537.8333 539.5397 539.5397
   540.7713 540.9084 540.9084 541.1157 541.1157 541.6817 541.6817 542.1006
   542.1006 542.3389 542.3725 542.8009 542.8337 542.8451 542.8451 543.3516
   543.3516 543.7386 544.1541 544.2668 544.2668 544.7060 544.8615 544.8615

          k = 0.5000-0.5000 0.5000 (  3316 PWs)   bands (ev):

    -6.9714  -6.8652  -6.8652  -6.7830  -6.7830  -2.7692   1.0305   6.5407
     6.5407   9.3301  12.3824  12.3824  15.9469  18.5399  19.3126  19.3126
    21.2394  21.2394  21.3180  27.6923  29.8152  29.8152  30.0800  32.1345
    32.1345  34.8713  34.8713  35.7705  36.6037  37.4822  37.4822  39.1421
    41.9999  42.0506  42.0506  43.7105  43.7105  44.6036  45.2859  50.5238
    50.5238  50.8629  51.3140  51.3140  53.9425  54.4866  54.4866  58.2152
    59.6297  59.6297  60.4270  61.0440  61.0440  62.0772  62.7980  62.7980
    65.5313  65.5313  66.9902  68.0791  68.0791  69.8937  70.0558  70.0558
    71.3169  71.3169  72.0659  72.3083  72.7004  75.4356  75.4356  75.6141
    75.8326  75.8326  76.7063  78.8666  79.5320  79.5320  81.5338  81.5338
    82.2339  82.2339  83.7699  84.7368  88.4616  88.4616  90.4356  92.1809
    92.5442  92.5442  92.8048  94.1317  94.1317  94.1900  94.9885  94.9885
    96.8706  98.7065  98.7065  98.8070  99.4843  99.4843  99.7544 100.5864
   101.4026 101.6618 101.6618 101.9181 102.9488 102.9488 103.2565 104.5380
   104.5380 109.1121 109.1121 109.1736 110.6683 110.9273 110.9273 111.7072
   111.7072 111.7876 112.7976 113.2406 113.8643 113.8643 114.5470 114.5470
   115.8929 116.0631 116.0631 117.8306 117.8306 118.6791 121.3566 121.3566
   122.2874 123.1451 123.7368 123.7368 124.8251 124.8251 124.9734 126.1280
   126.1280 127.7014 127.7014 128.4181 130.5673 130.5673 130.9481 130.9481
   131.4242 132.1662 133.3291 133.3622 134.9806 134.9807 136.1215 136.3527
   136.3527 136.7033 136.7033 137.6408 139.2009 139.2009 139.7106 139.7352
   139.7352 140.6203 142.5910 142.5910 142.8769 145.0235 146.7915 146.7915
   149.4411 149.4411 149.5435 150.3123 151.4944 151.4944 151.5578 152.1902
   152.5741 153.8151 153.8151 154.3620 154.3620 155.1711 155.6861 155.6861
   157.1698 157.8949 157.8949 159.5202 159.9613 159.9613 160.3115 160.4621
   160.4621 161.2334 161.2334 161.5399 162.6295 162.6295 162.6600 162.6717
   162.9801 163.6384 163.6384 163.8814 163.8814 164.5693 164.5693 166.6263
   167.3554 167.3554 167.5754 169.3618 169.3618 170.6022 171.2280 171.7182
   171.7182 172.1298 172.1298 172.3684 172.7748 172.7748 173.0523 173.0523
   173.4400 177.3156 179.1285 179.1285 179.4770 179.6566 180.0027 180.0027
   181.9642 181.9642 182.5973 182.8255 183.2765 183.5512 183.5512 184.0185
   184.1522 184.1522 184.8843 185.3984 185.3984 186.5417 187.2082 187.2358
   187.2358 189.5949 189.5949 189.9637 192.0992 192.0992 192.1677 192.9319
   193.8259 193.8259 194.4925 194.4925 195.0552 195.0552 195.5387 195.6533
   195.7267 195.7267 196.2003 196.7001 196.7001 201.8570 201.8864 201.8864
   204.8839 205.4235 205.4235 206.0171 206.5146 206.5146 207.7672 207.7672
   208.1024 209.0263 209.0263 209.7527 209.7527 209.7908 210.2662 211.8215
   212.0260 212.0474 212.1222 212.1222 213.7427 213.7427 214.4378 214.6011
   215.1208 215.2713 215.2713 216.1712 216.1712 216.6717 216.6717 218.0976
   218.0976 218.3822 218.6109 218.8046 218.8046 219.7148 219.7148 220.1970
   221.2205 221.9445 221.9445 222.1113 222.1113 222.5916 222.6943 222.6943
   222.9821 223.1354 223.1354 223.3514 223.3514 224.3620 224.3803 224.6809
   224.6809 226.7610 229.3442 230.0100 230.0100 230.5538 232.3229 232.3229
   233.0547 233.4644 233.4644 234.1179 234.1179 234.4450 234.4450 234.5754
   234.7751 235.5210 235.5210 236.7470 237.7950 237.7950 239.0250 239.0250
   239.3684 239.8469 239.8469 239.8945 239.9598 240.6066 240.6066 241.8146
   242.4054 243.5863 243.5863 243.8578 243.8578 244.1686 244.1815 244.1815
   244.2815 244.3560 244.3560 249.0806 249.0806 249.7882 250.2937 250.7720
   251.0675 251.0675 251.2656 251.2656 251.6670 251.6670 252.2220 252.4279
   252.5541 254.4823 254.4823 256.0916 256.0916 257.5829 257.6659 257.6659
   258.0237 258.7502 259.4243 259.9911 259.9911 261.0537 261.0537 261.4004
   261.9474 261.9780 261.9780 262.7533 262.9965 262.9965 264.3825 265.3871
   265.3871 266.0125 266.0125 267.6066 267.6066 268.0066 269.1535 269.1535
   270.6377 270.6377 271.3668 272.0749 272.1025 272.7427 272.8032 272.8032
   273.2351 273.3020 273.3020 274.2963 274.2963 274.4142 276.0532 276.0532
   276.3985 276.3985 277.2685 277.2685 278.4043 279.9904 280.0384 280.0384
   280.2186 280.4745 280.4745 280.6161 280.6161 280.6439 280.9624 281.0523
   281.0523 283.2053 283.2191 283.2191 285.0435 285.7159 285.7159 285.9838
   286.3786 286.3786 286.4167 286.4377 286.7696 286.7696 286.9846 287.0847
   287.0847 288.9582 288.9582 289.8070 289.8070 291.4158 292.3750 293.2866
   293.4205 293.6835 293.6835 294.2855 294.2855 295.2709 295.2709 296.9135
   297.6396 297.9040 297.9040 298.6873 298.6873 298.7960 299.3675 299.5939
   300.0824 300.0824 300.6594 300.6594 301.1089 301.6376 301.6376 302.0003
   302.1140 302.8212 302.8212 303.7237 303.7237 304.5100 306.9885 307.0355
   307.0355 307.9103 308.3479 308.3479 309.2345 309.4447 309.4447 309.9886
   311.4338 311.4338 312.7694 312.7694 312.8377 312.9185 313.5797 313.6951
   313.6951 314.1376 314.1376 314.1668 314.4740 314.4740 314.5552 314.8657
   314.8657 314.8957 314.9053 314.9053 314.9441 316.1965 316.1965 316.5917
   316.7686 316.7686 316.8668 316.8668 317.2671 318.1097 318.1097 318.1378
   319.7834 320.5347 320.5347 320.9391 320.9391 321.1482 321.3433 321.7763
   322.2224 322.2224 322.9182 322.9182 322.9245 323.6395 323.6395 323.8784
   323.9655 325.6612 325.6612 328.0374 328.0374 328.0741 328.8164 329.2325
   329.2325 329.7129 331.1096 331.1096 333.0496 333.0497 333.1556 333.3857
   334.7633 334.7633 335.4618 335.4618 335.7178 338.7383 338.7383 341.3006
   341.3006 341.3976 341.7787 341.7787 342.0589 342.0589 342.3587 342.3592
   342.3592 342.6565 342.6986 342.7530 343.0992 343.2947 343.2947 343.8233
   343.8233 344.6487 344.6487 345.4303 345.4473 345.6385 345.6385 347.8321
   348.0229 348.0229 348.7082 348.7082 348.8673 348.9029 350.1405 350.5620
   350.5620 352.1867 352.2458 352.2458 353.4571 353.4571 354.8594 354.8594
   354.9939 355.1927 355.1927 355.5286 355.5571 357.0643 357.0643 357.8394
   358.9902 359.4965 359.4965 359.7789 360.1535 360.1774 360.1774 361.3077
   361.6819 361.6819 363.5479 363.5479 364.0034 364.7543 364.7543 364.8828
   365.3284 365.3284 365.4390 365.4390 366.3914 366.3914 366.6977 367.5409
   367.7594 368.6898 368.8110 368.8110 369.2335 369.2335 369.6090 369.6090
   369.7896 370.4253 370.4789 370.4789 371.0362 371.0362 372.6402 372.7402
   372.7402 372.8846 372.8846 372.9753 373.9866 374.1464 374.1464 374.4978
   374.4978 374.9316 374.9565 375.0194 375.1574 375.1574 375.6524 375.6524
   376.5845 377.4323 377.4626 377.4626 377.5388 378.3482 378.3482 380.2452
   380.7743 380.7743 381.9089 381.9089 382.9479 383.0482 383.1871 383.1871
   384.3213 384.3213 384.4959 384.5673 385.0648 385.0648 385.3116 385.3116
   385.3869 386.2543 386.2543 388.0844 388.1261 388.1261 388.4151 388.4552
   388.6847 388.6847 388.9910 388.9910 389.0325 389.1707 389.2811 389.2811
   390.3600 390.3600 391.8100 393.6217 393.6217 394.8102 394.8102 395.0423
   395.0423 395.1769 395.2486 395.2554 395.3092 395.4387 395.4387 395.5670
   396.2611 396.4302 396.4302 396.5394 397.4533 397.4533 399.1302 399.5028
   399.5028 399.7012 399.7012 401.1249 401.1249 401.1927 401.6052 401.6052
   401.8205 402.3265 402.3265 402.3616 402.4589 402.4589 402.6880 402.6880
   402.7584 402.7749 403.0871 404.9263 404.9263 406.4165 406.5980 406.5980
   406.9523 407.9357 409.3746 409.3746 412.5239 412.5239 412.6287 413.1181
   413.1181 413.6983 413.8527 413.8527 414.1780 414.3034 414.7306 414.7306
   415.6881 415.6881 416.2640 416.2640 416.8953 416.8953 417.4556 420.3796
   420.7920 420.7920 421.6971 421.6971 422.1616 422.5433 422.5433 422.7851
   423.0083 423.0083 423.0875 423.0875 423.1653 423.1753 423.3217 423.3683
   423.3683 423.4605 423.5789 423.5789 423.7341 424.2419 424.2419 424.7619
   425.6923 425.6923 425.8290 425.9596 425.9596 426.0172 427.4697 427.4697
   429.7558 430.8613 430.8886 430.8886 433.4313 433.4313 433.9854 433.9854
   434.0598 434.0598 434.0869 434.1064 435.5503 435.5503 435.6137 435.7272
   435.8737 435.8737 435.9105 437.0607 437.3242 437.3242 437.5366 437.5366
   437.7003 438.2522 438.3525 438.3525 438.9276 438.9276 439.3349 439.6544
   439.6544 439.6629 439.9130 439.9130 439.9164 439.9799 440.0276 440.0276
   443.7743 443.7743 444.0210 444.0210 444.2088 444.4115 444.4153 446.6049
   446.6049 447.4605 447.4605 449.4890 450.0424 450.6488 450.6488 450.8053
   451.5228 451.5228 452.7509 452.7509 453.2984 453.3919 453.5182 453.6521
   454.0025 454.0025 454.1932 454.1932 454.6396 454.6396 455.1591 455.1591
   455.7203 456.1228 456.4171 456.4171 456.8631 457.0776 457.4262 457.4262
   459.0335 459.0335 459.0445 459.7197 459.9319 459.9319 460.3028 461.0062
   461.0062 461.2124 462.5476 462.5655 462.6390 462.6390 463.2298 463.2298
   463.4267 463.4267 463.4827 464.1501 464.1501 464.4238 464.6254 464.6254
   464.8518 464.8518 465.0816 465.1000 466.1161 466.1161 466.2178 466.2656
   466.2656 466.2872 466.2872 466.3361 466.3771 466.3771 466.4088 466.5080
   469.4466 469.8639 469.8639 471.4407 471.4407 472.7661 472.7661 473.0171
   473.1602 473.9902 473.9902 474.3484 474.3484 474.7217 474.9299 475.1404
   475.1426 475.1695 475.3956 475.3956 475.5533 475.5533 475.8132 475.8132
   475.8513 477.2184 477.2184 479.6577 480.6063 481.0364 481.0364 481.1403
   481.8089 481.8089 481.8595 482.3250 482.8146 482.8146 483.0325 483.0325
   483.8841 483.8841 484.4940 484.4940 484.6359 484.6596 484.7487 484.7487
   485.1245 485.1245 486.1545 486.2309 486.2309 486.4108 486.9322 486.9322
   487.2263 487.6081 487.7531 487.7531 488.3188 488.8231 488.8231 490.8337
   490.8337 491.6250 491.7507 491.7507 491.7681 491.7681 492.3503 492.6707
   492.6707 492.8950 492.8950 492.9777 493.0888 493.1649 493.1649 493.4615
   493.5548 493.5548 493.6001 493.8343 493.9726 494.0364 495.8852 495.8852
   496.5063 496.5063 499.3687 499.3687 499.3957 499.3957 500.3980 500.3984
   500.6295 500.6295 501.1084 501.5133 501.6787 501.6787 503.5151 503.5151
   503.8567 504.0461 504.0461 504.1133 505.5994 505.5994 507.8538 509.8953
   509.8953 510.3797 510.9898 510.9898 512.0585 512.3343 512.3343 512.7293
   512.7293 512.8374 513.1424 513.4377 513.4377 513.5426 513.6115 513.8298
   513.8298 514.0058 514.0197 514.0197 514.1649 514.1649 514.4075 514.7363
   514.7363 514.8367 515.3342 515.7689 515.8850 515.8850 516.0536 516.0536
   516.2436 516.7058 516.7058 517.4428 517.4428 518.1699 519.2576 519.3046
   519.9763 519.9763 519.9839 520.0853 520.0853 520.3015 520.3015 520.3904
   520.4217 520.5217 520.5217 520.6183 520.7344 520.7344 520.9290 520.9812
   520.9812 521.5656 521.6137 521.6137 521.6375 521.7812 521.8109 521.8109
   526.2144 526.2144 526.5299 526.5299 526.8203 526.8266 526.8353 526.8353
   526.9597 526.9597 527.3428 527.3428 527.4819 527.8728 527.9601 527.9601
   528.1162 528.1162 528.1444 528.2075 528.2075 528.2283 530.3751 530.3751
   532.2931 532.5386 532.5386 532.5454 536.6181 536.6181 536.9923 537.0224
   537.0224 537.0418 539.4696 539.4696 540.2662 540.2662 540.7924 541.3887
   541.4690 541.5350 541.5350 541.7352 542.1705 542.1705 543.3582 543.3582
   543.7855 543.7855 544.0088 544.4658 544.4658 544.6177 544.8118 544.8118
   544.9835 545.0656 548.9516 548.9516 549.1727 551.2349 551.3255 551.3255

          k = 0.0000 0.5000 0.0000 (  3327 PWs)   bands (ev):

    -6.9572  -6.8582  -6.8582  -6.8064  -6.7795  -3.7950   3.9833   5.9775
     5.9775   9.8471  11.3811  14.4107  14.4107  15.4500  18.3558  20.3635
    22.2846  22.2846  22.5127  26.0108  26.0108  28.4392  28.6048  30.2378
    33.1107  35.9457  36.8468  36.8468  38.3709  38.3709  40.9095  41.2561
    42.2123  44.3175  44.3175  45.2889  46.5211  46.5211  48.5514  49.0966
    49.0966  49.1255  50.7423  51.1145  52.3098  53.1427  53.1427  55.1666
    57.1170  57.1170  57.3201  57.4814  59.8440  59.8440  60.4630  60.8096
    61.2779  64.8045  65.8836  65.8836  68.3529  69.4927  69.4927  70.1085
    71.8104  72.9397  72.9397  73.9000  74.7497  77.3456  77.5616  78.5556
    78.5556  78.9038  79.5425  79.5425  80.6026  81.8681  81.9621  81.9621
    83.3447  84.4628  86.0992  86.0992  88.4564  89.0611  89.7410  89.7410
    90.7443  93.4957  93.4957  93.8986  94.6169  96.5579  96.7575  96.7575
    97.9905  98.3430  98.3430  98.3961  98.8970  99.3842  99.6851  99.6851
   101.0839 101.7977 102.5243 103.5302 103.8043 103.8043 106.0318 106.4030
   106.7722 106.7722 107.1917 108.3028 108.3028 108.8134 108.9057 109.0118
   110.2865 110.2865 110.4198 111.0872 111.3623 111.3623 112.2066 112.2066
   113.1239 113.6057 118.0340 118.6658 119.2456 119.2456 120.4178 120.4178
   120.4258 121.4209 122.0462 123.5310 125.1396 125.5176 125.5176 127.3869
   127.3869 128.2157 128.8107 128.8186 128.9511 128.9511 130.2691 130.2691
   130.9162 130.9511 133.3333 133.3431 133.6432 133.6432 136.1859 136.1859
   137.7994 138.3261 138.4497 139.2590 139.2590 140.4066 140.7728 140.7853
   141.2685 141.2685 143.5030 144.6257 145.1281 145.1281 145.6304 146.2607
   148.4547 149.0395 149.3402 149.3402 149.9291 149.9291 150.6790 150.7048
   151.5963 153.5520 153.5520 153.6069 154.1222 154.7006 154.7006 155.7841
   155.7841 155.9467 157.0947 157.1066 159.7035 160.2382 160.2382 160.3400
   160.5298 162.0184 162.0184 162.2640 162.9981 163.0023 163.0023 163.4491
   163.6760 163.6760 165.5495 165.6291 166.3033 169.0260 169.0260 169.2647
   169.2647 169.5928 170.0599 170.2919 170.7212 170.7212 171.4717 172.1232
   173.4814 173.6139 173.6139 173.6902 175.5610 175.5610 176.1950 176.2626
   176.7394 176.7394 178.1854 179.5268 179.5268 179.7584 180.4518 181.6808
   181.6808 181.7303 182.9692 184.0567 184.7271 184.8285 184.8285 185.1113
   186.4650 187.5095 187.5095 188.2808 188.2808 188.5986 188.8102 189.8990
   189.9553 190.1017 190.1017 190.6245 191.2131 192.1429 192.1429 192.1992
   193.3863 193.3863 193.9422 195.4231 195.4378 195.4378 195.8447 195.9549
   197.2746 197.2746 197.4188 197.7856 197.7856 198.1252 198.5441 198.8450
   199.0917 199.0917 199.3461 199.7363 199.7363 200.3037 200.5471 201.7776
   202.0775 202.1393 202.1393 203.1434 203.7248 203.7248 204.2470 207.4916
   207.8293 207.8293 208.5528 208.6762 209.3415 209.6478 209.6478 209.7949
   209.8766 209.8766 210.0714 210.2443 211.9985 213.5912 213.5912 216.2957
   216.8124 217.3470 217.9347 218.4867 218.4867 218.8513 219.6403 220.1336
   220.1336 220.9823 221.6559 221.6559 222.3360 222.8353 224.1341 224.1341
   225.1487 225.5680 227.1494 227.1494 228.7828 229.6041 229.6041 230.2145
   231.3158 231.7716 231.7716 232.4869 232.5021 232.6754 232.6754 232.7997
   233.0300 233.4728 233.4728 234.2934 235.3292 236.7341 236.8985 236.8985
   237.2292 237.6369 237.6369 237.9224 238.9824 240.1189 240.1189 240.3805
   240.8627 243.4809 243.4809 244.2556 244.5801 244.9565 244.9565 246.3666
   247.5067 247.9696 247.9696 248.4628 249.2324 249.2324 249.6646 249.6646
   250.1230 250.3161 250.5447 250.5447 250.5947 251.7824 252.4192 252.6481
   253.8561 253.8561 254.5101 255.7604 255.7804 255.7909 255.7909 256.6251
   256.8494 257.5477 257.5477 257.5650 257.6726 258.1748 258.1748 258.7375
   259.0814 259.1438 259.1438 259.8855 259.8855 260.0693 260.8030 260.8944
   260.9344 260.9344 261.7431 262.1515 262.1515 262.3327 263.1185 264.1571
   264.1571 264.1773 264.3190 264.3673 265.0323 265.1410 265.1793 265.1793
   266.2303 266.2303 266.5316 266.5859 268.7422 268.9275 268.9275 269.9815
   270.0100 270.0100 270.3419 271.9350 271.9350 271.9805 272.3636 273.1024
   274.8862 276.6030 277.2115 277.2115 277.4200 277.9281 278.1479 278.6516
   278.6516 279.4134 279.5376 279.9903 279.9903 280.8716 281.1137 281.2637
   281.2637 282.6736 282.9453 282.9896 282.9896 283.6647 284.1489 284.7846
   284.7846 286.3740 286.8874 286.8874 287.1983 287.6481 288.3272 289.7410
   289.7410 289.8320 290.2699 290.2699 290.4095 290.5183 290.5183 290.9732
   291.0116 291.5006 292.4068 292.4068 292.7389 293.3261 293.9608 293.9608
   294.9021 295.5608 295.5608 296.5300 296.9307 297.1194 297.7268 298.1917
   298.1917 299.1024 299.7197 299.7197 299.7273 300.4751 300.4751 300.9900
   300.9900 301.1341 301.9829 303.1304 303.6823 303.6823 304.0435 304.1676
   304.8330 305.2998 305.9252 305.9252 308.7229 309.2635 309.3923 309.6226
   309.6832 309.6832 310.2952 310.4580 310.4580 310.8676 310.8788 310.8788
   311.3964 311.8026 311.8303 311.8303 311.8839 312.4326 312.9914 312.9914
   313.0180 315.0133 315.0133 315.7533 316.8359 317.2189 318.2319 318.2319
   318.4740 318.5915 318.5915 319.0999 319.9829 320.3853 320.4719 320.4719
   321.4393 321.7908 321.8567 322.4205 322.4205 322.5262 322.6041 322.6041
   323.0662 323.2441 324.2547 324.3557 324.3557 324.6301 324.7284 324.7284
   325.0634 326.2055 327.7127 327.7127 328.4154 328.4154 328.4809 331.1742
   331.7246 332.1296 332.2639 332.2639 332.7055 335.1225 336.0904 336.1672
   336.1672 337.5526 338.5444 338.8143 338.8143 338.8450 339.3860 339.3860
   340.3249 340.4175 340.4245 340.4245 340.5502 343.4376 343.4552 343.4552
   343.9564 344.9122 345.3124 345.3124 345.6501 345.7847 345.8424 346.1237
   346.1237 347.0187 347.0187 347.1835 348.1709 348.5138 348.9321 348.9988
   348.9988 349.5548 349.5548 350.2378 350.3881 350.8070 351.0523 351.0915
   351.0915 351.1517 351.4956 351.4956 352.4560 352.8587 352.8587 353.1324
   353.2521 353.9789 353.9789 354.2619 354.7027 354.7387 354.7387 354.8997
   355.1001 356.6079 357.1747 357.7636 359.1626 359.1626 359.8707 360.8048
   360.8048 361.1817 361.6108 361.6108 362.2941 362.4549 362.9188 362.9188
   363.4336 364.2874 364.9628 365.4068 365.4068 366.8320 368.2294 368.2294
   368.3350 368.8911 369.7667 370.2882 370.2882 370.7672 371.0029 371.0674
   371.1648 371.1648 371.5302 371.6446 371.6446 371.7227 372.4934 372.9780
   373.1128 373.1128 374.1686 374.3074 374.3074 374.4225 374.6734 374.9755
   375.3908 375.3908 375.9058 376.3926 376.3926 377.1225 378.3822 378.6688
   378.6688 379.2774 379.4658 379.7377 379.7377 379.9029 380.1884 380.1884
   380.3143 380.5132 381.1112 381.1112 381.1259 381.4849 381.4849 381.7450
   382.4730 383.9467 383.9467 384.1442 384.1902 384.8817 384.8817 384.9121
   385.1667 385.5257 387.3230 387.3230 387.6372 387.9537 388.3359 388.3359
   388.8070 389.4623 391.0582 391.0582 391.8191 392.9862 393.8827 395.2832
   395.2832 395.4880 395.5078 396.2517 396.2746 396.2746 397.2082 397.6587
   397.6587 397.7224 398.5495 399.3649 399.5066 399.5066 399.6685 399.8397
   399.8397 400.3264 400.6384 400.6384 400.6390 400.9173 401.0277 401.0305
   401.0305 401.1027 401.1868 401.1868 402.0896 402.2144 402.3876 402.3876
   402.6960 403.4139 404.3318 404.6592 404.6592 405.4020 405.5031 406.6609
   406.6609 406.7733 406.8620 407.1054 407.2624 407.2624 407.3693 407.4229
   407.9685 407.9685 408.0719 408.0719 408.0986 408.1825 409.6839 410.2670
   410.2670 410.6586 411.5492 411.6426 411.6426 411.9155 411.9155 412.0838
   412.4632 412.4632 412.5295 412.6877 413.0300 413.0300 413.1649 413.2493
   413.3209 413.3894 413.4224 413.4224 413.4760 414.5516 414.9094 414.9094
   414.9357 416.9832 417.4421 417.9927 417.9927 418.0417 418.3965 418.7795
   418.7795 419.9945 421.5572 421.6794 421.6794 421.6858 422.1148 422.1148
   422.2432 422.5434 422.5434 422.6821 422.8831 424.9090 425.2806 425.2806
   425.4702 427.9311 428.1998 428.1998 430.0927 432.9117 433.2085 433.3939
   433.3939 434.7090 435.0498 435.0498 435.1111 435.3167 435.5061 435.5061
   435.7681 436.5124 436.6255 436.6365 436.6365 436.7504 437.2044 437.9577
   438.0366 438.0366 438.2797 438.4885 438.9012 438.9012 440.3472 440.3472
   440.4603 441.2699 442.1702 442.1702 442.5410 443.1724 443.1724 443.7528
   443.8529 444.5369 444.6708 444.6708 445.9068 446.0794 446.4930 446.4930
   446.5274 447.2255 448.1871 448.9252 448.9828 449.4355 449.4355 450.6989
   450.6989 450.8180 450.8965 451.0702 451.0702 451.6352 451.7320 451.7320
   451.9534 452.1997 452.3699 452.4634 452.4634 452.7136 452.8188 454.0845
   454.7837 455.2114 455.2114 455.5706 457.1287 457.1287 457.7644 458.0471
   458.2665 458.3907 458.5924 458.5924 458.7771 459.3938 459.5273 459.5273
   459.7104 459.9833 459.9833 460.0669 460.3158 460.3158 460.4812 460.8704
   460.8704 460.9816 461.2550 461.5415 463.0777 463.3244 463.8549 463.8549
   464.3232 464.3232 464.8671 464.8748 465.1477 465.1477 465.1802 467.6871
   468.7461 468.7461 469.5141 469.5678 469.9015 469.9015 470.0502 470.0985
   470.5788 470.8300 470.8300 470.8357 471.3683 471.3683 471.9592 471.9592
   472.0812 472.1943 472.3629 472.3629 472.6051 473.7404 473.7936 473.7970
   473.7970 473.8725 474.0813 474.0813 474.2620 474.8388 475.5719 476.4706
   476.4706 476.5208 477.1209 478.0953 479.4983 479.7666 479.7666 479.7963
   480.0683 480.0683 480.1702 480.5871 480.8446 480.8446 481.1217 482.3075
   482.5308 482.7140 482.7140 483.6792 486.0913 486.0913 487.2434 487.8634
   488.5340 488.5340 489.3783 490.0641 490.7467 490.9916 490.9916 491.9952
   491.9952 492.1858 492.4131 492.8780 492.8780 493.0149 493.4738 493.4738
   493.5572 493.9191 494.2529 495.0375 495.5198 495.5198 496.0270 496.1163
   496.5854 497.1881 497.1881 497.6059 497.8089 497.8089 498.4389 499.1014
   499.1014 499.5936 500.1744 500.1744 500.4021 501.6029 502.1745 502.3995
   502.4431 502.4431 502.5737 502.5737 502.6213 502.6925 503.5268 503.6674
   503.6674 504.1511 504.5552 504.9901 505.6376 506.0125 506.0991 506.0991
   506.3788 506.9922 506.9922 507.7034 507.7034 507.7714 508.1593 508.1593
   508.9088 509.8038 510.0295 510.3519 510.8431 510.8979 510.9571 510.9571
   511.3634 511.3634 511.7375 511.7601 512.0396 512.0396 512.4256 512.5706
   512.5706 512.6965 513.0922 513.0922 513.3679 513.4484 514.2626 514.2626
   514.4786 515.0570 516.1316 516.1316 516.9928 517.1104 518.2799 519.4097
   519.5459 519.5459 519.8022 520.5858 520.6617 520.6617 521.5770 522.0274
   522.0274 522.0806 522.1350 522.3648 522.6394 522.6394 523.1394 523.1394
   523.4869 523.6717 523.6855 524.4244 524.4244 524.5186 524.9088 525.7231
   525.7231 525.9625 526.5508 527.1161 527.1161 527.3821 527.8987 528.5503
   529.3794 529.3794 529.8070 530.2947 530.7273 530.7658 530.7658 531.1806
   531.1806 531.4077 531.5526 531.9835 531.9835 532.1136 532.3525 532.3525
   532.4221 532.4357 532.7611 532.8012 532.8327 532.8381 532.8381 533.3115
   533.6123 533.6123 533.6429 533.6429 533.8055 533.8395 534.1044 534.1463
   534.1463 534.1598 535.4486 535.8689 535.8689 535.9400 536.6379 537.0642
   537.0642 538.5107 540.1328 540.2714 541.1443 541.2334 541.2334 541.3107
   542.2150 542.2629 542.2629 542.7157 542.9045 542.9045 543.1160 543.1824
   543.1824 543.3538 543.5007 543.5849 543.5849 543.7399 544.4595 544.4595

          k = 0.7500-0.2500 0.7500 (  3295 PWs)   bands (ev):

    -6.9829  -6.8511  -6.8434  -6.8049  -6.7777  -2.4480   1.5331   4.4280
     5.6288  10.1237  12.5896  14.2481  14.7268  18.4910  19.4037  20.8306
    21.3843  21.9518  26.0076  26.6280  26.7057  28.7301  29.2150  29.8598
    31.1791  34.0084  34.7928  35.5182  36.8743  37.1864  38.5985  38.7105
    40.4522  41.8536  43.3884  44.8774  45.1237  45.9171  47.5120  47.7547
    48.4079  52.0637  52.1250  53.6209  54.5505  54.8124  55.6267  56.2588
    58.3033  58.7498  59.4525  59.6168  60.2271  61.7586  62.8739  64.3188
    65.3143  65.6659  67.6757  68.0015  68.0468  69.0529  69.8656  70.7764
    71.9879  72.5526  72.6367  73.6653  73.6905  74.3380  75.4181  76.2384
    77.4195  77.5406  79.2600  79.8499  80.7143  81.0680  81.1761  81.7210
    82.9879  83.4660  84.9098  85.8638  86.6683  86.7631  87.9284  88.3478
    89.6887  89.8176  90.9698  91.1154  92.2875  93.0367  94.1275  94.9184
    95.9694  96.9654  97.2492  97.5265  97.8958  98.1338  99.2016  99.3323
   100.0380 100.9045 101.1461 102.0818 102.6567 104.4778 105.5105 105.9272
   107.2791 107.6649 108.1070 108.6961 109.3134 109.7584 110.7008 111.5302
   112.6207 113.0569 113.8968 113.9442 114.8378 115.7363 116.1547 117.0864
   117.2970 117.4826 118.6472 119.3113 119.5933 120.4166 121.0096 121.1149
   122.6263 124.0294 124.6833 125.3326 126.0557 126.8340 127.8877 127.9947
   128.2695 128.3130 129.3580 130.0499 130.6151 130.8070 131.1587 131.6629
   131.6675 133.1614 133.8851 134.4985 135.0135 136.0506 136.4259 136.4548
   137.2777 137.2948 137.6901 138.2218 138.8167 139.9180 140.1104 140.5549
   141.1932 141.4701 141.9188 143.1735 143.2428 144.2360 144.3584 144.9403
   145.9337 146.1072 147.5692 147.6490 148.2072 148.6306 149.0855 149.4391
   149.6515 149.9527 150.3419 151.1995 152.3195 152.6161 153.9658 154.2626
   154.4594 154.7774 155.6546 156.1260 157.6739 158.4108 158.4329 159.6115
   159.8307 160.2573 160.9335 161.0854 161.6758 161.9707 162.6942 162.8178
   163.7559 164.3594 164.7915 164.9503 166.1516 166.3950 166.8109 167.5874
   167.6764 168.8562 169.0751 169.7546 170.7364 171.0676 171.1382 171.2630
   171.5104 173.2349 173.2624 173.5628 173.7525 174.0447 174.8666 175.3200
   175.3595 176.3951 177.0727 177.2304 178.6196 179.3196 179.9454 180.4844
   180.7852 181.9881 182.5277 183.2560 183.4524 183.9072 184.3090 185.0833
   186.2667 186.6296 186.7994 187.8754 188.0804 188.4048 188.7739 190.1521
   190.9651 191.2732 191.7742 191.9657 192.2804 193.1652 193.4373 194.0838
   194.2890 194.8725 195.6004 196.2196 196.3429 196.5103 197.0529 197.3309
   197.9223 198.1425 198.8516 200.1817 200.2824 200.5080 201.2040 201.2750
   202.0344 202.0505 203.0627 203.2232 204.3296 204.3735 205.2475 206.0611
   206.2509 206.6845 207.0891 208.2476 208.9614 209.4314 209.5522 209.9220
   209.9988 210.3721 210.4447 211.1937 211.6501 211.9756 212.4391 212.9535
   213.5918 213.9392 214.2191 215.0720 215.1947 215.8738 216.4668 216.5334
   216.9930 217.0436 217.4282 217.5579 218.3060 219.3481 220.5913 220.7405
   221.0112 221.4028 221.5671 221.8784 222.3097 222.6729 223.8381 223.9349
   224.6697 225.4362 225.5386 226.3446 227.0327 227.3790 227.5668 227.5847
   228.7997 229.3289 229.7390 230.1005 230.1305 230.4415 231.4301 231.6397
   231.7620 232.7558 232.7569 233.3125 233.5346 234.0429 234.4405 234.8938
   236.2084 236.3712 236.8759 237.2073 237.6112 237.9199 238.3644 238.8328
   239.1018 239.2784 240.1266 240.7587 240.8993 241.5617 241.7757 241.9291
   242.4473 242.9137 243.4048 243.7556 243.8085 244.2800 246.1377 246.2178
   247.0834 247.5584 247.8925 248.0934 248.7869 249.3980 249.4618 249.7945
   250.2750 250.4252 250.9946 251.1018 251.8350 251.8416 252.1199 252.8968
   253.4043 253.6690 253.9212 254.4000 255.0998 255.1490 256.1106 256.6353
   257.4206 257.8900 258.8765 259.4397 259.6898 260.4612 260.5611 260.7021
   261.4702 261.5811 261.9303 262.1501 262.5084 262.9047 263.2812 263.6922
   263.8339 264.5779 264.5928 265.2081 266.1665 266.4080 267.0327 267.0659
   267.7798 268.0039 268.6741 269.0463 269.2221 269.4474 269.9923 270.0454
   271.0426 271.5968 271.8934 272.7044 273.0302 274.5537 275.8001 276.0626
   276.6009 276.6546 277.2430 277.9764 278.1701 278.3526 278.5129 279.0346
   279.7093 279.7570 280.2703 280.6860 280.9230 281.6735 282.1511 282.3423
   282.8085 283.3705 283.9020 284.3156 284.3335 285.6303 286.4278 286.9307
   287.2565 287.6982 288.0006 288.6409 288.7954 289.1276 289.3554 289.7928
   290.2789 290.6397 291.1478 291.2165 292.2501 292.2641 292.8743 292.9854
   293.5299 293.6851 294.3345 294.4691 294.7276 295.4649 295.8036 296.1840
   296.3402 297.3365 298.0365 298.1259 298.2440 298.8186 298.9582 299.6229
   299.6388 300.3290 300.6484 300.8386 301.1684 301.3190 301.4692 301.8617
   302.4505 302.9801 303.0024 303.5859 303.6874 305.0388 305.8043 306.1764
   306.7858 307.1263 307.2955 308.2951 308.6354 309.3335 309.9011 310.4202
   310.9591 311.1908 311.4547 311.7061 312.0080 312.7252 312.7330 312.9579
   313.1655 313.3049 313.8451 314.2238 314.5689 314.5691 315.2431 315.5187
   315.5290 316.0785 316.3283 316.9519 317.1849 317.8559 318.2074 318.5397
   318.5708 319.2710 319.4825 319.6902 320.3681 320.8642 320.8782 321.0772
   321.5261 321.7020 322.2674 322.3290 323.1908 323.5291 323.8551 324.8713
   325.2337 325.4727 326.4458 326.4545 327.6346 328.2867 328.8160 329.0576
   329.3986 329.5897 329.9681 330.0793 330.6236 330.6990 330.9538 331.1034
   331.4787 331.9228 332.6573 332.7415 333.6179 333.9790 334.0393 334.7801
   335.1970 335.4955 336.2275 336.6730 336.8301 337.6053 337.8609 337.9551
   338.5561 339.1313 339.1316 339.6810 339.9452 340.2755 340.7078 340.8991
   341.5203 341.6149 341.8748 341.8824 342.5783 342.6081 343.2820 343.5086
   343.5861 344.1828 344.2088 344.5735 344.6020 344.8159 345.3746 345.5379
   345.9552 346.6531 347.4966 347.8008 348.2736 349.0738 349.2115 349.7145
   350.1681 350.3465 351.0638 351.1289 351.2636 351.6945 352.1188 352.4250
   352.4659 352.9107 353.1065 353.8272 353.8504 354.4484 354.8103 355.1711
   355.2143 355.5756 355.5782 355.9092 356.7592 357.0913 357.2001 357.6567
   357.7867 358.7792 359.1279 359.7477 360.5096 360.7551 361.2838 361.3644
   361.9025 362.1583 362.5221 362.7689 362.9219 363.3537 363.7067 364.1584
   364.5573 364.6907 365.0959 365.1652 365.8229 366.0618 366.5936 366.8652
   367.2543 367.5259 368.5202 368.6555 369.0248 369.3406 369.7877 370.1882
   370.7884 371.8452 372.3188 372.4799 372.8926 373.4865 373.8961 374.7071
   374.8831 375.2970 375.6561 376.2376 376.2942 376.7339 377.1864 377.2673
   377.6104 377.6165 378.0464 378.2629 378.2643 378.4963 378.5520 379.0699
   379.5663 380.1167 380.8042 380.8546 381.3711 382.1223 382.9943 383.1924
   383.3898 383.4878 383.9307 384.0196 384.0583 384.4855 385.1445 386.4685
   386.9368 387.0430 387.4834 387.7652 388.2668 388.4522 388.4809 388.8888
   389.7393 389.9905 391.1753 391.3649 391.8173 391.9319 392.0533 392.5423
   392.5760 392.8583 393.2526 393.5399 394.5508 395.5451 395.8430 396.6297
   396.7454 397.0468 397.6672 398.0356 398.1280 398.5384 398.8876 399.0348
   399.2989 399.3903 399.5410 399.6736 399.9831 400.0355 400.3491 400.9147
   401.3699 401.4162 401.6071 402.2695 402.5307 402.7417 403.4767 403.5112
   404.0330 404.3218 404.6716 404.7853 405.7617 406.1996 406.3083 406.6580
   406.8275 407.1311 407.4811 408.1963 408.5655 409.5985 410.3900 410.5587
   410.8781 411.3360 411.7922 412.0956 412.1959 412.8245 413.0905 413.2361
   413.4485 413.6070 413.7551 414.1201 414.5468 414.6032 414.9851 415.0436
   415.5752 415.6786 416.2174 416.3608 416.5318 416.9196 417.2245 417.3244
   417.8283 418.1638 418.6584 418.7520 419.4405 420.0142 420.4848 420.7748
   420.8884 421.7233 421.7985 421.9758 422.4634 422.5882 423.8420 423.8762
   424.0495 424.1005 424.2580 424.5000 424.9873 425.0627 426.2601 426.3639
   427.2610 427.7381 428.3430 429.1163 429.3148 430.0571 430.0823 431.2532
   431.8634 431.9579 432.3527 432.4318 432.5208 432.8468 433.3671 433.4290
   433.8123 433.8473 434.0559 434.6465 434.8542 435.0561 435.2645 435.3012
   435.7594 435.9680 436.3444 436.5769 436.8315 437.3491 437.4516 437.8324
   438.3490 438.7738 439.0267 439.2329 439.6623 439.8801 440.3025 440.7363
   440.9100 441.5064 442.0982 442.3626 442.7092 442.7864 443.2803 443.3395
   443.7336 443.7820 444.1393 444.7339 445.2143 445.2561 445.3670 445.4569
   445.9461 446.2419 446.8784 447.2326 448.0313 448.2924 448.6617 449.0797
   449.5576 450.0552 450.1549 450.5003 450.5488 450.7188 450.7433 451.0063
   451.0616 451.2582 451.5430 451.7614 452.2480 452.7504 453.6176 454.0035
   454.1349 454.4707 454.5000 455.0650 455.1747 455.5723 455.7985 456.0908
   456.2050 456.6121 457.7818 458.4772 458.6657 459.0073 459.1736 459.5654
   459.7083 459.8513 459.9293 459.9396 460.1850 460.8477 461.0157 461.1853
   461.3500 461.6921 462.2212 462.4772 462.5044 463.1026 463.1764 463.3882
   464.4193 465.3087 465.6475 465.7030 465.8641 466.1920 466.2170 466.6651
   466.8935 467.2136 467.9178 468.0998 468.3018 468.5745 468.9449 469.4611
   470.0718 470.6200 470.7053 471.2524 471.3745 471.8781 471.8816 472.6444
   472.7169 473.1985 473.6653 473.7217 474.4024 474.4736 474.9393 475.0248
   475.4886 475.5025 475.8896 476.0566 476.1665 476.5713 476.9637 477.2296
   477.2564 477.6639 477.7314 478.0750 478.1182 478.8005 479.2263 479.6051
   479.6675 480.0220 480.5479 480.7082 481.0007 481.1288 481.1565 481.6411
   481.8262 482.0571 482.1890 482.3584 482.4029 482.6493 482.8601 482.8781
   483.1978 483.3702 483.6725 483.9571 485.2231 485.6583 487.6973 488.0976
   488.1416 488.6516 488.7635 489.0499 489.4158 489.6290 489.8051 490.3561
   490.7660 491.1254 491.2058 491.4617 492.2256 492.3812 492.4440 492.8170
   492.9535 493.3107 493.9784 494.4288 494.4322 494.8573 494.9008 495.1042
   495.5376 495.7187 496.8071 496.9639 497.1060 497.4118 498.0482 498.0741
   498.4650 498.8742 499.2707 499.3165 500.3819 500.4084 500.6879 500.9698
   501.1029 501.1775 501.4281 501.5849 501.6819 501.9699 502.2318 502.5038
   502.7363 502.9587 503.3438 503.6841 504.2064 504.6221 504.9337 505.4428
   505.5230 506.2441 506.3042 506.8607 507.5427 507.8296 508.3771 508.8061
   509.2507 509.8782 510.5359 510.6439 510.7223 510.9942 511.6265 511.6851
   512.2408 512.2686 512.7549 512.7655 513.0971 513.6041 513.7095 513.9724
   514.1045 514.3354 514.4819 515.4156 515.9555 516.1617 516.3108 516.6388
   516.9228 517.6373 517.7517 517.9869 518.2029 518.6313 518.7888 519.1621
   519.1840 519.3823 519.8521 520.0589 520.7192 520.9097 521.1659 521.2161
   522.0257 522.4345 522.4437 523.1574 523.5844 523.9403 524.4365 524.8551
   525.1728 525.7379 526.0852 526.1561 526.6520 527.0880 527.4331 527.5857
   527.7536 527.9318 528.1150 528.4818 528.8152 529.0076 529.0860 529.2385
   529.4526 529.5069 529.7607 530.3417 530.7127 530.7793 531.3096 531.4214
   531.6806 531.7511 532.0430 532.6532 532.8364 533.6499 534.8164 535.3272
   535.4536 535.7312 536.0538 536.0864 536.6710 537.2446 537.8254 537.9825
   538.7089 538.8808 539.0062 539.0951 539.2120 539.5476 539.6359 539.9236
   540.1780 540.2194 540.3033 540.5721 541.1128 541.5621 541.8844 541.9144
   542.2917 542.5256 542.7863 542.8891 543.1908 543.6411 543.7287 544.0838
   544.2773 544.8784 544.9348 545.0968 545.2276 546.8059 546.9896 547.2779

          k = 0.5000 0.0000 0.5000 (  3310 PWs)   bands (ev):

    -6.9662  -6.8610  -6.8563  -6.7916  -6.7885  -2.9552   2.2523   4.2680
     6.4567  10.8294  13.3622  13.5137  13.9425  15.9627  18.7285  20.9470
    21.2816  22.5365  25.5956  26.4288  26.4793  28.2119  30.2347  30.9198
    33.3920  33.9857  34.6873  35.8147  36.1072  36.9487  37.9091  40.6883
    41.6523  43.3511  44.3953  44.7360  45.6049  46.0319  46.6351  46.9682
    47.8464  48.3869  50.7625  53.9530  54.5700  55.6007  55.8247  57.2528
    57.9378  59.1898  60.0773  60.2475  61.2208  61.2685  62.4681  62.7069
    64.6515  65.8508  65.9924  66.5654  67.7063  68.4536  68.6844  68.8777
    69.4742  72.6627  73.1327  73.6142  73.7715  74.6481  75.4069  75.9234
    78.4445  78.9227  79.8709  80.2029  80.7519  81.8757  82.7725  82.9786
    83.5875  85.1877  85.2152  85.4339  86.0446  86.6010  88.2224  88.2409
    90.1684  91.2922  91.9101  92.5980  92.7489  93.1781  94.3209  95.0645
    95.1736  95.9042  96.8861  98.0617  98.2588  98.3812  99.4900 100.0603
   101.1767 101.3268 103.6319 103.8199 104.9419 105.4592 106.3735 106.3884
   107.6716 107.6745 108.5925 108.7321 109.1746 109.6758 109.9404 110.5207
   111.3557 112.2588 112.4929 114.1955 114.7228 114.9438 115.2463 115.5210
   116.5708 117.0267 117.4293 118.0886 118.0967 119.2303 119.4935 120.8943
   121.0733 122.1375 122.2889 122.9555 123.3462 124.5927 125.8833 127.0569
   127.2357 128.0250 128.2029 129.2463 130.0050 130.5877 130.8710 131.3839
   132.8688 133.2153 134.5109 135.1169 135.1547 135.8082 136.0677 136.3361
   136.9063 137.1584 137.6816 137.8332 137.9942 138.4844 140.9195 141.5114
   141.8464 142.9179 143.4333 143.7879 144.1678 145.5699 146.0550 146.1143
   146.7747 147.8298 148.0467 148.9691 149.1795 149.7699 149.8468 150.6346
   151.7710 151.9071 152.7809 152.7987 153.1946 153.3395 154.7106 154.7586
   155.2148 155.2329 155.9553 156.5618 156.6157 157.7695 158.1633 159.2336
   159.5862 160.1045 160.7677 161.4578 161.9399 163.1970 163.6012 163.9183
   164.8534 164.9698 165.3333 166.1087 166.4896 166.7520 166.8516 167.9306
   168.1216 168.4135 169.5624 169.7363 170.3454 170.4583 171.1253 171.9596
   172.0330 172.7075 172.7915 173.1901 174.0082 174.3095 175.1221 175.8647
   177.1418 177.5674 177.8206 178.5629 179.0770 179.4632 180.4339 181.1144
   181.6945 181.7239 182.0512 182.1985 182.7518 182.9966 183.3876 183.8878
   185.1288 185.4683 185.8866 186.0314 187.1000 187.8458 188.3286 188.6940
   189.2455 189.7480 190.1674 190.4359 190.8148 191.6983 191.8955 192.1418
   193.2901 194.4930 194.9295 195.2258 195.4789 196.0879 196.3231 196.7406
   196.9247 197.3824 198.1675 198.4424 199.0876 199.7949 200.1052 200.8704
   201.4589 202.0869 203.4563 203.8966 204.2577 204.3563 205.6032 206.0049
   206.4392 207.5089 207.5251 208.9631 209.2211 209.6109 209.9983 210.1408
   210.7069 210.8556 211.3799 211.4421 212.0792 212.4626 212.6255 212.9137
   213.5108 213.5576 213.7726 214.6532 214.6858 215.1332 215.2851 215.8328
   216.0914 216.2830 216.8599 216.8755 218.5703 219.5666 220.5057 220.7531
   221.3036 221.4188 221.9506 222.3558 223.0735 223.2396 223.4109 223.5142
   223.8495 224.0678 224.0742 224.9236 225.9696 226.6382 227.8199 227.9889
   228.3802 228.7157 228.9842 229.8547 230.6129 230.9006 230.9418 232.2288
   233.5482 234.1968 234.2660 234.6340 234.8502 234.9681 235.1465 236.2597
   237.1282 237.3436 238.1847 238.6081 239.1256 239.2287 239.4467 239.9170
   240.4975 240.5899 241.0468 241.3015 241.3652 241.6461 242.2059 242.4754
   242.7123 242.9015 243.1441 243.4391 244.4242 244.6570 244.9183 245.2315
   246.0604 246.6603 247.0067 247.2560 248.0775 248.8112 249.3317 250.1039
   250.7265 250.8137 250.9291 251.1399 252.0329 253.0649 253.5074 253.9838
   254.2941 254.9553 254.9567 255.3040 256.3500 256.4990 256.7225 256.7902
   256.9412 257.3169 257.4107 257.9063 258.1373 258.9165 259.0978 259.2458
   260.8714 261.0118 261.9554 262.7485 263.2663 263.3214 263.7425 264.2516
   265.1444 265.2954 265.7990 266.6344 267.0185 267.3602 267.6494 267.8652
   268.3802 268.4482 268.6597 269.4501 270.0216 271.3728 271.8228 272.0853
   272.9791 273.8136 274.1819 275.1273 275.4694 276.3414 276.8562 277.0670
   277.1776 277.3636 277.8966 278.0563 278.4457 278.7698 279.1063 279.2111
   279.7732 280.3398 280.7718 282.1051 282.3431 282.5961 282.9925 283.1472
   284.0791 284.1000 284.3017 284.8053 285.0179 285.9611 286.1456 286.1524
   286.3437 287.0830 287.4029 287.4898 287.6075 288.1049 288.2517 289.2753
   289.5198 289.5761 289.6181 289.6532 290.4741 290.6475 291.0588 291.1805
   292.1094 292.7522 293.4944 293.6379 293.8213 294.3477 294.5722 294.7700
   295.2480 296.4595 296.5905 296.6739 296.7092 297.5914 297.6245 298.2058
   298.2885 298.3361 298.8184 299.0763 299.2669 299.8340 300.1174 300.8113
   301.5445 301.5600 302.0532 302.6584 303.2526 305.7485 305.7969 306.2832
   306.7697 307.0567 307.3634 308.0690 308.0807 308.4645 308.6088 308.8109
   309.6575 309.9936 310.2635 310.4615 310.6789 310.9163 311.4107 311.7349
   312.3015 312.7123 313.3682 313.3856 313.6461 313.7052 314.1481 314.3479
   314.3602 315.0224 316.2571 316.4714 316.7084 317.0360 317.4303 317.6200
   317.7708 317.9735 318.4673 318.9807 319.3335 319.3958 319.8948 320.6944
   321.1300 321.8943 322.4676 323.0154 323.8342 325.4822 325.5834 325.8488
   326.1911 326.2309 326.5032 326.7997 326.9175 327.1222 327.3163 327.7339
   328.7679 329.6264 330.0010 330.2079 330.4813 331.3333 331.5246 331.6120
   331.8780 332.2098 332.6333 332.7202 332.7648 333.2566 333.9279 334.1101
   334.3839 334.8500 335.0892 336.2985 336.7417 337.6524 338.4907 338.8288
   339.0036 339.4496 339.5846 339.7259 340.3614 340.7159 340.8293 341.0957
   341.6348 341.6642 342.1517 342.3604 343.0631 343.7464 343.8500 344.4186
   344.4960 344.8391 344.9909 345.3873 345.8889 346.2884 346.4998 347.0984
   347.3497 347.6905 347.7099 348.0420 348.0851 348.4327 348.5234 348.7412
   348.9838 349.2670 350.9649 351.6904 351.7100 352.3969 352.4705 353.4451
   353.4851 353.9999 354.0151 354.3265 354.4729 354.8371 356.2487 356.5640
   357.3977 357.7378 358.3829 358.7052 359.0633 359.8489 360.2392 360.4159
   360.4928 360.5094 360.9751 361.1135 361.2330 361.7870 362.3299 362.4959
   362.6425 362.9361 363.3330 363.3451 363.5723 363.8259 364.1887 364.5225
   365.0140 365.0796 365.3279 365.6431 367.0580 367.0764 367.7095 367.9234
   368.1021 368.4189 368.5975 369.6183 370.0948 371.8614 372.3460 372.9111
   373.4543 373.6017 373.7920 374.0196 374.6059 374.6876 375.2460 375.2983
   375.5491 376.7386 377.0900 377.5309 377.6389 377.8934 378.0137 378.1790
   378.8248 379.0111 379.4274 379.4368 379.6304 379.9559 380.0179 380.5942
   381.1232 381.6096 381.9381 382.1660 382.2096 382.5653 382.9938 383.2350
   383.4203 383.6528 383.8780 384.0007 384.1255 384.7803 385.2085 385.3033
   385.7798 386.1128 386.4900 387.1396 387.6591 388.2336 389.1439 389.1994
   389.3001 389.7027 390.9783 391.0625 391.1179 391.5004 391.7890 391.8835
   392.1589 392.3447 392.3569 392.5850 393.2017 393.3023 393.6312 394.0106
   394.3505 394.5461 394.8632 395.0524 395.1271 395.2123 395.9121 396.0398
   396.7037 396.7735 397.3270 398.5123 399.4323 400.2909 400.3400 400.4581
   400.5475 400.9011 400.9885 402.0225 402.1827 402.6262 403.1802 403.3419
   403.4855 404.5484 404.5760 405.0134 405.2069 405.5302 405.9681 406.1407
   406.7956 406.8686 407.4383 407.5646 407.8915 408.0505 408.4479 408.6773
   408.6773 409.6449 409.6665 410.7084 410.9268 410.9883 411.3975 412.0501
   412.1515 412.5382 412.6813 413.0208 413.1384 414.2100 414.2914 414.3693
   415.0604 415.1300 415.1563 415.3772 415.5630 416.6058 417.3300 417.8672
   418.2539 418.4972 418.7503 419.0032 419.3571 419.3993 419.9535 420.7341
   421.2159 421.8256 421.8510 422.2214 422.6956 422.8003 423.1672 423.5012
   424.2426 424.2593 424.5027 424.6169 425.0190 425.2909 425.8153 425.9735
   426.3053 426.5430 426.6623 426.8001 427.1105 427.5495 427.6700 428.1042
   429.2972 429.7183 430.0079 430.2829 431.0125 431.1580 432.7755 433.1710
   433.2493 433.5533 433.6777 433.8503 434.6366 435.2035 435.5753 435.8658
   435.9112 436.0080 436.0811 436.1398 436.7632 436.8804 437.1564 437.6431
   438.0119 438.1185 438.9400 439.0673 439.2346 439.5677 439.9784 440.1953
   440.4089 440.8852 441.1704 441.4663 441.9059 442.2732 442.6553 442.8182
   443.2156 443.6404 444.0985 444.1009 444.3736 444.3811 444.8803 444.9576
   445.2052 445.7190 446.1080 446.9409 447.3814 447.5680 447.9514 448.4430
   448.9543 449.0980 449.2838 449.8244 450.3219 450.9208 451.4139 451.4415
   452.0573 452.2873 452.3401 452.3980 452.5144 452.5429 453.3920 453.5316
   454.0402 454.1998 454.4058 455.1064 455.3953 455.4028 455.6260 456.7904
   457.0338 457.2368 457.7550 458.3889 458.7965 459.1348 459.2465 459.2729
   459.6167 460.0354 460.4130 461.5183 462.5292 462.6121 463.6488 463.9066
   464.0391 465.5910 465.7833 465.8827 466.0303 466.3175 466.6340 466.7914
   467.0057 467.0232 467.1581 467.2755 467.3615 467.5822 467.6741 467.8189
   467.9925 468.0709 468.2282 468.4423 469.0615 469.3063 469.5203 469.8837
   469.9962 470.3037 470.4116 471.1488 471.4694 471.8607 472.2528 472.4016
   472.4524 472.8060 473.2381 473.3005 473.4186 473.5638 474.0562 474.2221
   474.4428 474.7260 474.7838 475.9951 476.5720 476.9081 476.9152 477.6723
   477.9763 478.0176 478.3935 478.9349 479.0552 479.4530 479.5875 479.9303
   480.1844 480.2823 480.4035 480.6400 480.7646 482.0501 482.1186 482.7571
   482.8026 483.0083 483.1835 483.4728 484.3279 484.6433 484.8211 484.9685
   485.1565 485.2902 485.7088 486.0042 486.4741 486.9785 487.5200 487.7617
   487.8761 488.0557 488.1906 489.0691 489.4080 489.5023 489.5735 489.9900
   490.5258 490.5526 490.6135 490.6529 492.3997 493.1988 493.8513 494.8177
   494.9542 495.0267 495.3517 495.8633 495.8796 496.1060 496.3855 497.1780
   497.1835 497.5926 497.7807 498.4008 498.4889 498.7325 498.8999 499.1632
   499.1996 499.3898 499.6118 499.7484 500.0482 500.2281 500.5244 500.5709
   501.0914 501.3286 501.5706 501.9152 502.1705 502.1826 502.2984 502.3976
   502.7700 502.8904 503.5217 503.7513 503.8482 504.9981 505.1359 505.1564
   505.8616 506.5976 506.8297 507.4673 507.9252 508.2955 508.3011 508.7465
   508.8736 509.2285 509.6416 509.7905 509.8640 510.5592 510.7528 510.7830
   511.0663 512.7086 513.0161 513.8969 513.9247 514.2573 514.5940 514.8144
   514.8793 514.9583 514.9940 515.0516 515.4652 515.5134 515.7521 516.3198
   516.5538 516.7382 516.8288 517.1457 517.3743 517.4300 517.5624 518.0195
   518.0483 518.4768 518.6124 519.3148 519.4153 519.5105 519.6067 519.8666
   519.9700 520.4154 520.5621 521.1813 521.5824 522.8062 523.1161 523.2799
   523.9566 524.9645 525.0710 525.4919 525.7760 526.2353 526.7581 527.1896
   527.5443 527.6045 527.6896 528.4625 528.9974 529.4029 529.5761 529.8748
   530.3597 530.7221 531.0056 531.3195 531.3896 532.0612 532.4091 532.5319
   532.6491 533.6148 533.6333 533.8465 533.9220 535.0523 535.2918 535.3857
   535.5342 535.8453 536.7965 537.1328 537.1452 537.3058 537.3609 537.8182
   538.0054 538.6812 538.7479 539.4805 540.0377 540.0691 540.5694 540.8708
   540.9478 541.1533 541.4511 541.8473 541.9085 542.0441 542.2000 542.3416
   542.4618 542.5463 542.6743 542.7145 542.9214 543.0732 543.0806 543.7476
   544.2162 544.2558 544.6557 544.8457 545.1027 545.2490 545.5053 545.6748

          k = 0.0000-1.0000 0.0000 (  3306 PWs)   bands (ev):

    -7.0074  -6.8260  -6.8249  -6.8249  -6.7688  -1.8728   0.9093   4.9783
     4.9783   9.3161   9.4865  18.2451  18.2451  18.8398  20.0272  20.5817
    20.5817  22.6482  24.6946  26.0537  28.6137  28.6137  29.2875  29.5450
    29.5450  29.6299  30.0580  34.8865  38.7289  38.7289  39.0213  42.3289
    42.5562  42.5562  43.8993  44.1169  45.2916  47.3081  47.4501  47.4501
    49.6076  50.2308  50.2308  50.3909  51.3950  53.1144  53.1144  57.7628
    59.9153  59.9153  60.5091  61.4992  62.2976  64.8321  64.8495  66.3357
    66.3357  66.7818  67.7589  67.7589  68.0900  68.7032  68.7032  69.2172
    70.1566  70.1566  70.4032  71.7466  72.7306  76.1632  78.0277  78.4037
    78.4037  79.3960  81.0806  81.7817  81.7817  82.4069  83.2252  83.2252
    83.5929  83.5929  84.0582  84.6705  84.7876  85.6815  86.3770  86.3770
    87.3905  88.7255  89.8285  89.8285  90.0319  90.0319  90.6232  92.2341
    92.4912  96.5835  98.2118  98.4363  98.4363  99.3054  99.8397  99.8397
   101.1714 102.3610 102.4445 102.4445 102.6882 102.6882 102.9697 104.4240
   104.4770 105.7842 108.2122 108.8012 108.8012 109.7557 110.1492 110.1492
   110.9812 113.0264 113.0264 113.5943 114.2286 116.0395 119.1574 119.1574
   119.1651 121.6849 122.6202 123.3169 123.9038 123.9038 124.1122 125.5352
   125.9124 125.9124 126.0125 126.5924 126.6386 127.7362 127.8320 127.8321
   128.4237 128.5929 128.5929 129.5799 129.5799 130.1246 130.1246 130.1396
   130.4032 130.7712 132.5142 133.4836 135.6512 137.7431 138.1668 138.1668
   138.8832 138.9317 138.9317 140.4051 140.7416 140.7416 141.1034 141.7398
   142.6181 143.1704 143.1704 143.4976 143.9695 143.9695 144.6958 144.7979
   144.7979 145.7132 146.0601 146.5943 147.2235 147.2320 148.5579 148.5579
   148.8179 149.2127 149.2127 149.5482 149.7079 149.7079 149.8648 150.1494
   150.1494 150.7523 151.6921 151.8781 152.4328 155.4206 155.4206 155.7406
   157.9610 157.9610 159.8746 159.8746 160.0680 160.7207 160.9931 162.0151
   162.0151 162.6694 163.8281 166.3307 166.4720 167.2162 167.2162 167.9671
   167.9671 168.0892 168.5614 169.0828 169.4482 170.0927 170.0927 170.8888
   171.1328 171.1328 171.3341 174.4450 176.4699 178.7255 179.9890 180.1330
   180.1330 180.4291 180.4291 181.7979 182.7545 182.7545 183.1658 183.2486
   183.7877 183.8407 183.8407 184.9347 185.5410 185.7793 186.2860 186.4679
   186.4679 187.1902 187.9081 187.9081 187.9601 188.7712 188.7712 188.9056
   188.9056 189.2751 190.4649 191.9210 191.9210 192.9375 193.3237 195.0309
   195.0309 195.0741 195.4806 198.4052 198.9621 199.5087 199.5087 200.0455
   200.8010 200.8095 200.8743 200.8743 201.4477 201.4477 201.7146 202.0499
   202.5522 202.9813 202.9813 203.1027 203.1027 203.1385 203.1742 203.7730
   204.5938 204.5938 204.6292 204.7613 204.7613 205.3528 206.8005 207.7332
   209.0274 209.0274 209.1045 209.3323 209.4055 209.4055 209.4562 209.4600
   210.3706 210.3706 212.0843 213.6597 215.3736 215.5285 215.5285 217.3233
   217.8467 218.1799 218.1799 221.1437 221.7025 221.8501 221.8501 222.0780
   222.0780 222.2549 223.0075 223.6003 223.7640 224.2430 224.3409 224.3409
   224.6725 224.6725 224.8263 224.8403 225.7726 226.3914 226.3914 227.3769
   229.4447 229.4447 230.6099 230.6287 230.6578 230.7224 230.7224 230.9149
   230.9764 230.9764 231.1179 231.1900 231.4527 232.3996 232.3996 234.0052
   236.1847 236.6758 236.6758 237.6714 238.1895 238.1895 240.0901 240.4132
   240.4132 240.6515 241.3347 241.6924 242.3883 242.3883 242.7884 243.1337
   243.8829 245.0127 245.0127 245.0327 245.5897 245.8280 246.5309 246.6486
   246.6486 246.7428 247.6854 247.6854 249.2190 249.8366 250.2006 250.3162
   250.3162 251.0601 251.0787 251.1083 251.1083 251.1552 252.2553 252.2553
   253.1182 253.4551 253.4551 253.6051 254.4469 257.4811 258.4854 260.5983
   260.5983 260.7749 261.2684 261.2966 261.2966 261.5921 261.5921 262.2852
   262.4064 262.4064 263.3196 264.0143 264.4471 264.4573 264.4573 265.1066
   265.1066 265.1631 265.2576 265.8085 265.8085 265.8853 266.0918 266.0918
   266.1964 266.2805 266.5875 266.6138 267.5231 267.6350 267.6350 267.7101
   267.8411 268.1502 268.1502 269.0401 269.1196 269.8391 269.8391 269.8637
   270.5041 270.5041 270.5437 270.8535 271.7399 271.7399 272.7491 274.1367
   276.0665 279.1011 279.1011 279.2875 279.3191 280.5241 281.2815 281.2815
   281.3817 283.7778 283.7778 285.0796 285.1879 285.3623 285.6691 285.7535
   285.7535 287.0942 287.2937 287.2937 288.1615 288.1615 288.5093 288.9135
   289.4124 290.8480 290.8480 290.9893 291.0116 291.3643 291.3945 291.3945
   292.7442 295.7884 296.4961 296.9050 296.9050 297.8420 297.8420 298.2453
   298.7021 299.9707 299.9707 301.0525 301.2584 301.6303 301.6777 301.6777
   303.1921 303.6829 303.6829 304.1831 304.4201 305.1817 306.0904 306.0904
   306.8388 307.8416 308.3255 308.5376 308.9942 308.9942 309.3241 309.3241
   309.9346 310.0819 310.0819 310.1564 310.1564 310.1732 310.1796 310.3908
   310.9690 311.0388 311.0388 311.1442 311.9838 313.1091 313.1091 313.7384
   313.7829 316.6134 316.7677 317.8695 318.1118 318.1118 318.7408 319.6319
   319.6319 319.6812 319.8567 319.8567 320.7170 321.0886 321.1748 321.1894
   321.1894 321.3594 321.4609 322.0291 322.0512 323.0723 323.0723 323.6167
   323.6167 323.8903 324.7952 324.7952 325.1558 325.1558 325.2144 325.4220
   325.4460 326.1958 326.5656 326.5656 326.7935 326.8282 327.0634 327.5698
   327.7362 329.2501 329.2501 329.3120 329.7436 329.7436 330.0473 330.0473
   330.1141 330.1237 330.2677 330.2677 331.0430 331.1121 331.2321 331.3324
   331.3435 331.3435 331.4066 331.4066 332.7519 333.5299 334.3383 334.3383
   336.1148 336.1862 336.5234 336.5234 337.7250 337.9163 339.4183 339.4183
   339.5781 339.8902 340.1758 341.3696 341.7978 341.7978 342.5543 342.5543
   342.9931 343.1325 343.3440 343.3440 343.4517 344.1431 344.1431 344.6707
   344.6707 344.6829 344.7479 344.7479 344.8892 344.9068 345.8547 346.0092
   347.2837 347.6824 347.6824 348.2021 348.2526 350.0375 350.0438 350.0438
   351.2650 351.5938 351.8272 351.8272 351.9048 351.9276 351.9950 351.9950
   352.0892 352.4302 355.7021 356.5691 356.5691 359.1612 359.1612 360.8019
   361.5362 361.8883 361.8883 362.5312 362.7082 362.7082 362.7868 362.7930
   362.8359 363.0409 363.9869 365.2798 365.2798 365.4558 365.6112 365.6140
   365.6140 366.3523 366.3523 366.3990 366.4591 366.6558 366.6558 366.9174
   367.0080 367.0080 367.2388 367.9790 368.8820 369.8122 369.8363 369.8363
   370.1082 370.1082 370.5249 371.1686 371.1702 371.3053 371.3053 371.6862
   371.7595 372.3794 372.3794 372.5093 372.8633 372.8633 374.5711 375.1371
   377.2869 378.5177 378.6182 378.6182 378.6640 379.3429 379.8005 380.3514
   380.8096 380.8096 382.8460 382.8460 382.9943 382.9943 383.2667 383.6735
   383.9320 384.4377 384.4841 384.4841 385.7255 385.7313 385.9016 385.9016
   385.9641 386.3800 386.6560 386.6560 386.8440 386.9113 386.9144 386.9144
   387.1335 387.1335 387.1413 387.1843 388.8653 389.1129 389.1129 389.1130
   391.1640 391.1891 391.1892 391.1937 391.1962 393.0700 393.0700 395.6433
   395.7619 396.9893 397.6243 398.5290 398.5290 400.0953 400.7254 400.7254
   401.0239 401.5575 401.6795 401.6795 401.9271 402.0818 403.0791 403.0791
   403.1144 403.5659 404.1756 404.3097 404.3097 404.8683 405.0023 405.4690
   405.4690 405.5157 406.3286 406.3286 406.6616 406.7381 406.8910 406.8910
   407.4942 407.8532 408.0284 408.0792 408.0792 408.2796 409.0524 409.2880
   409.2880 409.5297 409.8381 409.8381 410.0821 410.3276 411.5633 412.0847
   412.0847 412.4625 413.1767 413.1767 414.0721 414.3280 415.0446 415.1249
   415.4716 415.4716 417.6861 419.3610 422.5921 422.8660 422.9648 422.9648
   423.8619 425.0092 425.0092 425.1787 425.1787 425.7494 425.7494 425.8813
   426.0945 426.1955 426.2412 426.3611 426.3611 426.3925 426.5598 427.4953
   427.4953 428.0897 428.3229 428.4058 428.8896 428.8896 429.0639 429.0639
   429.0708 429.1648 430.2457 430.2457 430.3849 430.4306 430.9935 431.2393
   431.4239 431.4239 431.4382 431.5221 431.5773 431.5773 434.1776 434.6816
   436.9445 436.9445 437.5473 437.9765 438.2668 438.6601 438.6644 438.6644
   438.9765 439.5416 439.5416 439.6580 439.7542 440.1495 440.1495 440.4466
   440.4466 440.4561 440.6134 440.8167 440.8167 441.5727 441.6872 442.0337
   442.2105 442.2736 442.2736 442.3780 442.5414 442.5414 442.7023 442.7023
   442.8288 442.8893 444.1557 444.1557 444.1975 445.7070 446.0950 446.1378
   446.1853 446.1853 446.6708 446.6785 446.7131 446.7131 446.8396 448.3454
   448.3454 448.7319 449.0650 449.0650 449.2150 449.2441 449.6355 449.8071
   449.9529 449.9757 450.1513 450.1513 450.4849 450.4849 450.8358 450.9160
   450.9160 451.0295 451.2936 451.2936 451.3317 451.4556 452.0024 452.2431
   452.2896 452.2896 452.3116 452.3473 452.3473 452.3967 452.7409 453.1920
   453.2667 453.2667 453.3347 453.3939 453.3939 453.4533 457.7469 459.0073
   459.0073 460.2058 460.5115 460.6705 460.6705 460.8057 460.8466 462.1483
   462.8312 462.8312 463.0878 463.0878 463.1756 463.2253 463.2628 464.4040
   464.8204 466.4425 466.4425 467.2425 467.7064 467.7064 468.2571 468.2571
   469.1834 469.5229 469.9482 470.0986 470.0986 470.3605 470.3605 470.4627
   470.7632 471.0367 471.3680 471.5357 471.6177 471.6177 472.0081 472.0081
   472.0143 472.0808 472.3378 472.3384 472.3547 472.3547 475.9011 476.0117
   478.8314 478.8314 479.0412 479.6339 480.7701 480.8507 480.8507 480.9179
   480.9179 481.6676 482.8146 482.8146 483.1692 483.6875 483.8163 484.3869
   484.3869 484.4799 484.7408 485.1592 485.5153 485.5153 486.3809 486.4702
   486.4702 486.5131 486.7775 487.2693 488.3577 488.7071 489.1876 489.1876
   489.3193 489.3193 489.3325 489.5195 489.6163 490.2814 490.2814 491.1555
   491.2033 491.2033 491.2064 491.2264 491.2669 491.3355 491.4486 491.4486
   491.5310 491.5310 491.7486 491.7786 494.1715 494.1715 496.3485 497.2486
   497.2486 497.2877 500.0482 500.4962 500.4962 501.0439 501.1735 501.8716
   501.9207 502.3795 502.3795 502.6144 502.9190 503.0065 503.0065 503.2099
   503.5851 504.0795 504.5155 504.5155 505.0210 505.0530 505.0530 505.3760
   505.3760 505.4768 505.4768 505.6267 506.0148 506.0338 506.1486 506.5478
   506.5625 506.7613 507.0095 507.0095 507.0184 507.0835 507.1905 507.2214
   507.2214 507.3143 507.3143 507.4167 508.4942 508.5040 508.6936 508.8574
   508.8574 508.9111 508.9111 509.2213 509.2863 509.3450 509.7238 511.2708
   511.6244 511.6244 512.9198 512.9198 512.9886 512.9886 513.2630 513.5139
   513.5628 513.5628 514.7317 517.5529 518.0203 518.0203 518.2012 518.8123
   518.8229 519.3434 519.3434 519.5816 519.5856 519.5856 519.8237 520.6384
   520.6384 521.1534 523.2340 523.3339 523.3339 523.6346 523.7776 524.1554
   525.1861 525.1861 525.4140 525.4378 525.4378 525.4961 525.5005 526.5303
   526.5303 526.5995 528.7178 529.7336 529.7336 530.0236 530.0917 531.0056
   531.0056 531.2235 531.2921 531.4891 531.4891 531.5466 531.6821 531.7819
   531.7819 532.1148 532.1650 532.2294 532.2316 532.2316 532.4254 532.4481
   532.4721 532.4721 537.7114 537.7275 537.7275 538.3246 539.2764 539.6975
   540.5095 540.5095 541.9675 541.9695 541.9695 543.3997 543.4829 543.4957
   544.2550 544.2713 544.2713 544.9135 545.2546 545.3201 545.3201 545.5458
   545.5465 545.5465 545.5578 545.6418 545.7180 545.9720 545.9720 546.1243
   546.2724 546.2724 546.4751 546.5561 546.9493 546.9493 547.2879 547.4559

          k =-0.5000-1.0000 0.0000 (  3268 PWs)   bands (ev):

    -6.9881  -6.8514  -6.8303  -6.8055  -6.7815  -1.7814   1.1162   4.0865
     4.2433  12.3637  12.5255  13.7660  13.8155  19.2366  19.5073  21.3616
    21.5079  24.3253  26.4121  26.8260  27.0783  27.1404  28.5310  29.1063
    32.0048  33.7018  34.1475  35.5314  35.8051  36.4879  37.1369  37.4241
    38.6906  42.2530  44.6702  44.6876  45.1549  45.9514  47.0084  48.0043
    50.5927  50.7617  53.7117  55.0820  55.3179  56.0339  56.1913  56.8504
    56.9797  57.2999  59.8963  60.1967  60.7856  64.1167  64.2815  64.7646
    64.9790  65.2465  65.6469  67.6570  67.7716  68.6747  68.8422  69.5719
    71.5780  72.7202  73.3519  73.4152  73.6550  73.9265  74.9429  75.9323
    76.7049  80.5109  80.6022  82.2600  82.4515  82.7749  83.1820  83.5028
    83.8469  84.2675  84.6249  85.2000  85.2603  86.2390  86.4183  87.6310
    88.5252  89.3208  89.7776  90.0480  90.4012  90.9506  92.8121  92.9359
    94.7183  96.0793  96.1221  96.6863  97.2170  97.2881  97.7810  97.7923
    98.2187  98.9609  99.7567 101.2630 101.6833 102.4971 103.8191 105.2876
   105.4630 105.4969 107.2648 110.1375 111.8351 113.4237 114.0087 114.6530
   114.6777 115.1094 115.3470 116.2491 117.5596 117.7138 119.0085 119.4390
   119.8063 119.8812 120.1038 121.1691 121.6239 121.9752 122.4579 123.9803
   124.2553 124.6657 124.7403 126.0192 126.3175 126.4083 127.1742 127.3104
   127.3779 127.6768 127.8110 128.6961 129.2233 129.2559 131.4754 131.8619
   132.3524 132.6923 132.8547 133.5137 133.7745 133.9058 133.9968 135.0273
   135.4791 135.6186 137.5351 137.5941 137.9646 140.6985 141.7858 142.2002
   143.0601 143.4940 143.8166 144.5198 144.5314 144.9916 145.4244 145.7484
   145.9768 146.0897 146.9714 147.4604 147.5912 147.7047 148.4415 148.7613
   149.1991 149.7640 150.0496 150.2735 152.8237 152.9957 153.4107 154.0850
   154.3895 154.5973 154.7530 154.9911 155.3348 155.5455 155.7768 156.6438
   156.9396 157.0252 157.3529 157.6612 158.3943 159.6478 160.5492 160.7264
   162.2153 162.3524 162.3665 162.5331 163.8719 166.9886 167.8181 169.6211
   170.2661 170.2977 170.9691 171.0173 172.0958 172.2575 172.9700 173.0333
   173.3199 173.7836 174.5574 174.6239 174.6845 175.1883 175.7355 176.1546
   176.8351 178.5454 179.3777 179.9490 180.8570 180.8611 181.3478 181.3865
   181.8370 183.0980 183.1187 183.4387 183.5460 183.6390 183.6862 184.1907
   185.2800 185.6063 186.9657 187.2207 187.3655 187.5516 187.6510 187.7407
   187.8502 190.0017 190.4065 192.5051 193.0378 193.7386 193.8387 193.9585
   194.6637 194.7294 194.8271 194.8384 194.9440 195.4387 195.4694 195.5210
   196.0882 198.6017 199.0891 199.3420 199.9278 201.0337 201.1628 201.6041
   202.2785 203.5318 203.6210 203.7238 204.0641 206.6218 207.0329 207.5829
   208.7683 209.9074 210.1161 210.8864 211.1298 211.1674 211.7992 212.3747
   212.6773 212.7104 212.8941 212.9474 213.3714 213.6060 213.6840 213.8814
   213.9784 213.9827 214.4150 214.7097 214.8249 215.2081 215.3420 215.4786
   216.3119 216.3791 216.6077 216.8317 218.1470 221.2305 221.5200 221.6577
   221.8114 221.9220 223.2084 223.8564 224.0860 224.2988 224.6169 224.8670
   225.2628 225.2965 225.4788 226.0033 226.1442 226.5820 227.8994 228.5928
   229.0180 229.2293 229.3235 229.6085 230.0180 230.0512 230.0710 230.8278
   232.0710 232.5455 232.6194 232.7278 233.8065 234.1282 234.8937 234.9636
   235.1366 235.2338 235.3548 235.6863 235.7118 235.8505 236.4729 236.7297
   236.8472 238.3054 238.4857 239.0775 240.2610 240.5033 240.6374 240.6653
   240.6752 241.7437 242.0448 242.0523 242.3316 242.6912 242.7696 242.8253
   243.5813 246.3679 246.3685 246.3783 246.8435 247.7483 247.9765 248.2564
   248.3956 248.4134 248.5424 248.9892 250.1935 250.8583 250.9779 251.4062
   252.3217 253.4823 253.7385 253.9800 254.3396 254.3545 254.5910 255.3404
   257.6831 258.9828 259.1702 259.7283 260.1668 260.8074 262.1065 262.2408
   262.5454 262.5988 262.8171 263.8602 264.1898 264.2592 264.6757 264.7157
   265.1046 265.5726 266.4003 266.7336 266.9683 268.0596 268.6389 268.6812
   269.4649 270.2556 270.3109 270.9619 271.9637 272.3502 272.5667 273.3909
   274.0265 274.1787 274.5601 274.7876 274.8737 274.9046 275.0552 275.1207
   275.2190 275.5241 275.7450 276.9853 277.1243 277.1794 277.4442 277.4727
   277.9271 279.5996 279.9020 280.0428 280.1527 280.8448 281.4442 281.4894
   281.6232 281.7850 282.0853 282.6353 283.7288 284.2165 284.4340 284.5841
   284.7363 285.3048 286.5842 287.0957 287.7261 290.3589 290.4822 290.5821
   290.7510 290.7528 290.7979 290.9557 290.9872 291.7749 292.1689 292.2405
   292.8682 294.1615 294.3115 294.5055 295.6210 295.7685 295.7808 295.8713
   296.2790 297.1272 297.5312 298.2725 298.3605 298.6220 298.6358 299.7316
   299.8932 301.4325 301.5729 302.0648 302.1822 302.2927 302.4927 302.5275
   302.9474 303.0834 303.9437 303.9637 304.4669 304.6239 304.7038 304.7184
   304.7719 304.9337 305.2198 305.4326 305.4795 309.0129 309.3574 309.9844
   310.5197 311.4842 311.8044 313.5420 314.2013 314.4609 314.4858 314.9207
   315.1049 315.2299 315.7310 315.7858 316.9595 317.9025 318.1286 318.5093
   318.7047 319.0855 319.4993 319.6290 319.8976 320.7350 321.2164 322.1125
   322.8418 323.9168 323.9843 324.1917 324.2688 324.3045 324.6558 324.7783
   324.8198 325.6009 325.6183 326.1353 326.2117 326.6052 326.6274 326.8078
   327.0575 327.1322 327.1892 327.4217 327.5841 327.9594 328.3183 328.5907
   328.9879 330.3252 330.4411 330.6835 331.2271 331.2848 331.2887 331.3384
   331.3431 331.4651 331.6136 331.9226 332.3302 332.4450 332.6949 332.8863
   333.6898 333.7576 333.9464 334.0745 334.2476 334.4536 334.7985 335.2168
   335.8775 336.2700 337.2732 337.6032 337.8713 337.9270 337.9943 338.2631
   338.3172 338.6641 338.6833 338.7057 340.0399 340.6848 341.0899 342.3007
   342.7642 343.7263 344.2826 345.0057 345.2812 345.3962 345.8117 345.9427
   346.0028 346.0203 346.9963 347.2267 347.8824 349.0276 349.2637 349.2783
   349.4729 349.5672 349.9881 351.2013 351.6952 351.9856 352.0789 352.7354
   352.7842 352.8344 353.0157 353.3322 353.4785 353.8054 353.8687 354.2416
   354.2871 354.8427 354.8962 355.2450 355.2815 355.3162 355.3718 355.4526
   358.0816 359.8912 359.9900 360.0592 361.0316 361.5156 361.9059 362.3218
   362.4031 362.4962 362.9203 363.8895 364.1687 364.1879 364.5954 364.7131
   364.8332 365.1423 365.1898 365.2151 365.3433 365.3667 365.4500 365.4995
   365.5455 365.6360 365.7707 365.7977 365.9247 366.0812 366.1152 366.2788
   367.1764 367.3612 367.5117 367.5968 369.2902 371.1251 371.2638 371.4634
   372.0197 373.8665 374.0101 374.1358 375.1208 375.1387 375.8607 375.9344
   376.2705 376.3611 376.3833 376.5586 377.2705 377.4774 377.4794 377.6084
   378.1375 378.4179 378.5119 378.6440 380.0385 381.3957 381.4326 381.4891
   381.7389 381.8496 382.9940 384.1751 384.8666 385.0048 385.1053 385.1654
   385.2315 385.5111 385.8011 385.9593 386.1232 386.5550 386.5771 386.6595
   387.0146 387.9378 388.5914 389.4462 389.7018 393.1741 393.3087 393.4065
   393.7407 394.3581 394.8048 395.3100 396.6982 396.8616 397.1254 397.9943
   398.2690 398.4502 398.9234 399.0836 399.7478 399.8869 400.0797 400.2178
   400.6102 401.8662 402.2237 402.3838 402.4082 403.4574 403.4681 403.9040
   403.9611 404.0795 404.4808 404.6338 405.4756 405.9013 406.1104 406.5213
   406.5899 406.7696 406.7921 406.8495 407.0340 408.1692 409.4899 409.5167
   409.8723 411.0592 411.2072 411.4776 412.1953 412.3744 412.5254 413.0980
   413.4599 414.2146 414.3470 414.4250 414.4278 414.4599 414.4974 414.5771
   415.2115 415.2470 415.2817 415.4353 416.1965 417.2354 417.6063 418.2062
   418.2385 418.9468 419.1598 419.2155 420.6565 420.9533 421.3588 422.0807
   422.1826 422.3763 422.7275 422.8421 423.3063 423.8968 424.0251 424.0650
   424.1472 424.3398 424.5726 424.6007 424.6652 424.7814 424.9288 425.1337
   425.4655 425.8672 425.9478 426.1111 426.1688 426.4407 426.4606 426.6172
   426.8045 426.8050 426.8629 427.0957 427.3371 427.5357 427.6798 427.8623
   428.0658 428.3665 428.7561 428.9114 429.1211 429.2930 429.3166 429.4788
   431.9053 432.9148 432.9707 433.0227 433.1311 433.1799 433.6130 433.8290
   434.4368 434.7994 434.8113 435.4732 435.5485 435.9237 436.0378 436.1909
   436.2526 436.3279 436.4414 436.4770 436.6033 436.6216 436.6318 436.7147
   436.7235 436.7339 436.7454 436.7536 441.7777 441.9261 442.4249 442.9119
   443.9162 444.0559 444.8138 445.1003 445.4225 445.4586 445.4605 445.6924
   446.0653 446.2841 446.7101 446.9883 447.2051 447.4694 447.4785 447.5090
   448.3101 448.7539 449.3530 449.8022 449.9007 450.7491 450.7887 451.0775
   451.5637 451.6407 451.6478 451.9731 452.5376 453.3172 453.4920 453.6905
   453.7474 453.7625 454.0837 454.7700 454.7889 454.7945 455.2104 455.6442
   456.0110 456.2958 456.3721 456.7093 456.7544 456.8462 456.8559 458.1980
   459.2502 459.2600 459.2858 459.3133 460.1027 460.1126 460.2086 460.2918
   460.6247 460.7009 461.0372 461.1949 461.5536 461.8684 461.8826 461.9888
   465.9654 466.0129 466.2248 466.3489 466.5620 466.8224 466.9057 466.9722
   468.4996 469.9755 470.3415 470.9655 471.2776 471.6442 472.1359 472.8136
   472.8597 472.9060 473.1607 473.2793 473.2923 473.5878 473.8476 473.9047
   473.9785 474.0080 474.3578 474.4047 474.4942 474.5951 474.6465 474.9356
   474.9462 475.3777 475.4548 475.5938 475.7593 476.2247 476.4898 477.1018
   477.7735 478.2102 478.7020 479.0145 479.8567 479.8575 479.9577 480.2897
   480.4519 480.5156 480.7033 481.0669 481.3002 481.5282 481.5597 481.6316
   482.3147 483.2393 483.3785 483.4326 483.6530 485.1041 485.1739 485.3762
   485.6671 485.7158 485.7773 486.1736 486.1953 486.5383 486.6339 486.7351
   487.0199 487.0747 487.1961 487.3032 487.3262 487.4136 487.4601 487.5320
   487.9031 487.9092 487.9640 488.0089 489.0008 489.0709 489.1129 489.6870
   489.7901 489.8351 489.9348 490.0883 494.2333 495.1500 495.2925 495.9381
   496.2431 496.3232 496.3410 496.6353 496.8352 496.8872 497.0080 497.0959
   497.5900 498.3184 498.5053 499.2810 499.4309 499.4590 499.7234 500.4589
   501.1729 501.2890 501.4110 501.5627 502.5315 502.8028 502.8219 503.2028
   503.2572 503.4061 503.4184 503.5950 503.6465 505.2186 505.3824 505.3929
   506.5315 506.6668 506.6769 506.8070 507.1779 507.3031 507.7710 508.4416
   508.8215 509.4001 509.7627 509.9159 510.8490 511.2403 511.6951 512.1850
   512.9372 513.4750 513.8724 513.9482 514.0078 514.0859 514.1427 514.2984
   514.3781 514.5650 514.6804 514.8385 515.5001 515.5011 515.5198 515.5214
   516.3920 516.4379 516.5195 516.5322 516.7442 516.7451 516.7828 516.8450
   517.2907 517.3636 517.5224 517.5440 517.6212 517.7747 517.7869 518.0156
   518.0635 518.1511 518.2321 518.4062 518.5963 518.6024 518.6643 518.8415
   523.5403 524.3978 524.7826 525.8974 526.1916 526.4413 526.7271 526.7959
   526.8308 527.0351 527.1024 527.5789 527.5993 527.9408 528.0923 528.5820
   528.9888 529.0806 529.0807 529.1069 532.8238 533.3456 533.4053 533.4065
   533.7221 534.4656 534.7750 535.5142 535.6301 535.8018 535.8818 536.0598
   536.1382 536.6461 536.7146 536.8275 537.1747 537.3098 537.4088 537.4109
   537.6181 537.7741 537.7989 537.8187 537.8652 537.9726 538.0040 538.0103
   539.4709 540.1517 540.2528 540.5588 540.7123 540.7324 541.0040 541.1467
   542.7085 542.9443 542.9845 543.2428 544.1490 544.2296 544.3222 544.4131
   546.5632 546.8591 546.9266 546.9725 547.0995 547.1294 547.2236 547.3277

     the Fermi energy is     8.2004 ev
     (compare with:     8.9347 eV, computed in scf)

     Writing all to output data dir out/mp-2490.save/
 
     init_run     :      0.06s CPU      0.08s WALL (       1 calls)
     electrons    :    909.94s CPU    981.09s WALL (       1 calls)

     Called by init_run:
     wfcinit      :      0.00s CPU      0.00s WALL (       1 calls)
     potinit      :      0.01s CPU      0.02s WALL (       1 calls)
     hinit0       :      0.02s CPU      0.03s WALL (       1 calls)

     Called by electrons:
     c_bands      :    909.94s CPU    981.09s WALL (       1 calls)
     v_of_rho     :      0.01s CPU      0.01s WALL (       1 calls)

     Called by c_bands:
     init_us_2    :      0.00s CPU      0.00s WALL (       8 calls)
     init_us_2:cp :      0.00s CPU      0.00s WALL (       8 calls)
     cegterg      :    889.54s CPU    959.57s WALL (       8 calls)

     Called by *egterg:
     cdiaghg      :    837.18s CPU    906.25s WALL (      93 calls)
     h_psi        :     16.92s CPU     17.45s WALL (     101 calls)
     g_psi        :      0.10s CPU      0.10s WALL (      85 calls)

     Called by h_psi:
     h_psi:calbec :      0.23s CPU      0.25s WALL (     101 calls)
     vloc_psi     :     16.43s CPU     16.93s WALL (     101 calls)
     add_vuspsi   :      0.17s CPU      0.17s WALL (     101 calls)

     General routines
     calbec       :      0.23s CPU      0.25s WALL (     101 calls)
     fft          :      0.01s CPU      0.02s WALL (      10 calls)
     fftw         :     14.91s CPU     15.36s WALL (  118068 calls)
 
     Parallel routines
 
     PWSCF        :  15m10.84s CPU  16m22.52s WALL

 
   This run was terminated on:  21:22: 6  18Nov2023            

=------------------------------------------------------------------------------=
   JOB DONE.
=------------------------------------------------------------------------------=
