
     Program PWSCF v.7.1 starts on 18Nov2023 at 20:18:47 

     This program is part of the open-source Quantum ESPRESSO suite
     for quantum simulation of materials; please cite
         "P. Giannozzi et al., J. Phys.:Condens. Matter 21 395502 (2009);
         "P. Giannozzi et al., J. Phys.:Condens. Matter 29 465901 (2017);
         "P. Giannozzi et al., J. Chem. Phys. 152 154105 (2020);
          URL http://www.quantum-espresso.org", 
     in publications or presentations arising from this work. More details at
     http://www.quantum-espresso.org/quote

     Parallel version (MPI), running on     8 processors

     MPI processes distributed on     1 nodes
     123646 MiB available memory on the printing compute node when the environment starts
 
     Reading input from pw_mp-2490_nscf_k10_E80.in
Warning: card &IONS ignored
Warning: card / ignored
Warning: card &CELL ignored
Warning: card / ignored

     Current dimensions of program PWSCF are:
     Max number of different atomic species (ntypx) = 10
     Max number of k-points (npk) =  40000
     Max angular momentum in pseudopotentials (lmaxx) =  4

     Atomic positions and unit cell read from directory:
     out/mp-2490.save/
     Atomic positions from file used, from input discarded
 
 
     R & G space division:  proc/nbgrp/npool/nimage =       8
     Subspace diagonalization in iterative solution of the eigenvalue problem:
     one sub-group per band group will be used
     scalapack distributed-memory algorithm (size of sub-group:  2*  2 procs)

 
     Parallelization info
     --------------------
     sticks:   dense  smooth     PW     G-vecs:    dense   smooth      PW
     Min         144     144     42                 3305     3305     501
     Max         145     145     43                 3310     3310     503
     Sum        1159    1159    337                26469    26469    4015
 
     Using Slab Decomposition
 


     bravais-lattice index     =            2
     lattice parameter (alat)  =      10.3021  a.u.
     unit-cell volume          =     273.3471 (a.u.)^3
     number of atoms/cell      =            2
     number of atomic types    =            2
     number of electrons       =        18.00
     number of Kohn-Sham states=         1200
     kinetic-energy cutoff     =      80.0000  Ry
     charge density cutoff     =     320.0000  Ry
     Exchange-correlation= PBE
                           (   1   4   3   4   0   0   0)

     celldm(1)=  10.302077  celldm(2)=   0.000000  celldm(3)=   0.000000
     celldm(4)=   0.000000  celldm(5)=   0.000000  celldm(6)=   0.000000

     crystal axes: (cart. coord. in units of alat)
               a(1) = (  -0.500000   0.000000   0.500000 )  
               a(2) = (   0.000000   0.500000   0.500000 )  
               a(3) = (  -0.500000   0.500000   0.000000 )  

     reciprocal axes: (cart. coord. in units 2 pi/alat)
               b(1) = ( -1.000000 -1.000000  1.000000 )  
               b(2) = (  1.000000  1.000000  1.000000 )  
               b(3) = ( -1.000000  1.000000 -1.000000 )  


     PseudoPot. # 1 for Ga read from file:
     /usr/scratch4/magr4985/MG/HTDF/pseudo/SG15/Ga.upf
     MD5 check sum: 9961a622ff199abf6dfec9a0a10b8555
     Pseudo is Norm-conserving, Zval = 13.0
     Generated using ONCVPSP code by D. R. Hamann
     Using radial grid of  602 points,  6 beta functions with: 
                l(1) =   0
                l(2) =   0
                l(3) =   1
                l(4) =   1
                l(5) =   2
                l(6) =   2

     PseudoPot. # 2 for P  read from file:
     /usr/scratch4/magr4985/MG/HTDF/pseudo/SG15/P.upf
     MD5 check sum: 0688a67b2b263c6b42d3d97c42745426
     Pseudo is Norm-conserving, Zval =  5.0
     Generated using ONCVPSP code by D. R. Hamann
     Using radial grid of  602 points,  4 beta functions with: 
                l(1) =   0
                l(2) =   0
                l(3) =   1
                l(4) =   1

     atomic species   valence    mass     pseudopotential
        Ga            13.00    69.72300     Ga( 1.00)
        P              5.00    30.97380     P ( 1.00)

     24 Sym. Ops. (no inversion) found



   Cartesian axes

     site n.     atom                  positions (alat units)
         1           Ga  tau(   1) = (   0.0000000   0.0000000   0.0000000  )
         2           P   tau(   2) = (  -0.2500000   0.2500000   0.2500001  )

     number of k points=     3  Gaussian smearing, width (Ry)=  0.0005
                       cart. coord. in units 2pi/alat
        k(    1) = (   0.0000000   0.0000000   0.0000000), wk =   0.2500000
        k(    2) = (   0.5000000  -0.5000000   0.5000000), wk =   1.0000000
        k(    3) = (   0.0000000  -1.0000000   0.0000000), wk =   0.7500000

     Dense  grid:    26469 G-vectors     FFT dimensions: (  45,  45,  45)

     Estimated max dynamical RAM per process >     131.14 MB

     Estimated total dynamical RAM >       1.02 GB

     The potential is recalculated from file :
     out/mp-2490.save/charge-density

     Starting wfcs are random

     Band Structure Calculation
     Davidson diagonalization with overlap

     ethr =  5.00E-06,  avg # of iterations = 12.3

     total cpu time spent up to now is      388.5 secs

     End of band structure calculation

          k = 0.0000 0.0000 0.0000 (  3287 PWs)   bands (ev):

    -6.8899  -6.8899  -6.8899  -6.7901  -6.7901  -4.8306   7.6554   7.6554
     7.6554   9.4741  11.5553  11.5553  11.5553  16.4686  17.4042  17.4042
    20.1195  20.1195  20.1195  23.4983  31.9884  31.9884  31.9884  34.8826
    34.8826  34.8826  34.8886  34.8886  37.3931  37.3931  37.3931  45.7922
    46.7648  46.7648  47.6908  47.6908  47.6908  50.4845  50.4845  50.4845
    52.1040  52.3984  52.3984  52.3984  53.0653  53.0653  53.0653  53.8494
    53.8494  53.8494  54.4971  54.4971  54.4971  54.8289  54.8289  58.1642
    60.5615  60.5615  60.5615  60.6539  60.6539  60.6539  62.9804  67.5991
    73.5643  73.5643  76.3185  76.3185  76.3185  78.7254  78.7254  78.7254
    80.4419  84.8665  84.8665  84.8960  84.8960  84.8960  89.9782  89.9782
    89.9782  90.9018  90.9018  90.9018  92.5178  92.5178  92.5345  92.5345
    92.5345  93.4027  94.9063  94.9063  94.9063  95.9665  95.9665  96.2318
    96.2318  96.2318  97.2584  97.8768  97.8768  97.8768  99.1686  99.1686
    99.1686 100.6439 100.7458 100.7458 100.7458 101.6605 101.6605 101.6605
   101.7593 101.7593 101.8549 102.1067 102.1067 102.1067 109.9442 111.4033
   111.4033 111.4033 114.2555 114.2555 114.2555 114.2844 114.2844 116.3015
   116.3015 116.3015 116.9507 116.9507 116.9507 117.8027 117.8027 117.8027
   118.5741 118.5741 119.4676 121.3513 121.3513 121.3513 127.0061 127.0061
   127.2529 130.2061 130.2061 130.2061 130.9719 130.9719 130.9719 131.3520
   132.6494 132.6494 132.6494 132.9110 133.8498 133.8498 133.8498 134.0405
   134.0405 134.0405 134.8914 134.8914 134.8914 135.6280 135.6280 135.6562
   135.6562 135.6562 136.5584 136.5584 136.5584 143.3850 144.0279 146.4739
   146.4739 146.4739 149.5925 149.5925 150.1160 150.1160 150.1160 157.1102
   157.1102 157.1102 159.6393 161.8911 161.8911 162.6821 162.6821 162.6821
   163.5632 165.0491 165.0491 165.0491 166.2757 166.2757 166.2757 168.4371
   168.4371 168.4371 169.3112 169.3112 169.3112 169.6592 169.6592 169.6593
   170.5751 170.5751 172.0336 172.0336 172.0336 172.0949 172.0949 172.0949
   173.1883 173.1883 173.3663 173.7683 173.7683 173.7683 173.8849 173.8849
   173.8849 174.6702 174.9041 174.9041 174.9041 175.2282 175.2282 175.2282
   175.3032 175.3032 175.4727 175.5943 176.8216 176.8216 176.8216 177.6883
   177.7979 177.7979 177.7979 177.8507 177.8507 180.4798 180.4798 180.4798
   180.6715 180.6715 180.6715 181.1379 181.1379 181.1379 181.2891 181.2891
   181.5373 181.5373 181.5373 182.1583 182.1583 182.1583 182.2458 182.2458
   190.1907 192.3929 192.3929 192.3929 193.6080 193.6080 197.1933 197.1933
   197.1933 197.6972 197.6972 197.6972 197.9278 197.9278 197.9278 198.4037
   198.4037 198.4037 200.3914 200.9855 200.9855 201.0198 201.0198 201.0198
   201.0794 201.9707 201.9707 201.9707 203.0244 207.0956 207.0956 207.0957
   209.3983 209.3983 209.3983 209.8079 209.8079 209.8079 210.4222 210.4222
   210.5402 210.5402 210.5402 211.8673 211.8673 211.8673 214.5723 214.5723
   214.5774 216.6746 216.6746 216.6746 218.3168 218.3168 218.3168 219.0641
   219.4056 219.4056 219.4056 219.4177 219.4177 219.5862 219.5862 219.5862
   220.3725 220.3725 220.3725 221.2199 221.2199 221.2199 222.0072 222.0072
   232.4985 233.0475 233.0475 233.0475 234.3633 234.3633 234.3633 235.9769
   237.4077 237.4077 239.5516 239.5516 239.5516 239.9389 240.0525 240.0525
   240.0525 241.8831 241.8831 241.8831 246.0219 246.0219 246.0219 246.2549
   246.2549 247.4393 248.4561 248.4561 248.4561 248.8018 248.8018 248.8018
   250.0292 250.0292 250.0361 250.8543 250.8543 250.8543 251.0758 253.4759
   253.4759 253.4759 254.1643 254.1643 254.1643 254.4008 254.4008 254.4008
   254.6130 254.6130 254.6130 257.0388 257.0388 257.0388 258.3272 258.3272
   258.9445 258.9445 258.9445 258.9684 258.9684 258.9684 258.9781 258.9781
   258.9781 258.9954 260.6766 261.0348 261.0348 261.0381 261.0381 261.0381
   261.7333 261.7333 261.7333 262.5775 262.5775 262.5775 262.7669 262.7669
   265.8604 265.8604 265.8604 266.1082 268.0952 271.4218 271.4218 271.4218
   271.4868 271.4868 271.4868 272.1454 272.1454 272.1454 273.0865 273.0865
   273.0865 274.2968 274.2968 274.2968 274.3594 274.3594 276.8232 276.8232
   277.7701 277.7701 278.4223 278.4223 278.4223 278.5511 278.5511 278.5511
   278.8274 278.8274 278.8274 279.6116 279.6116 279.6116 280.1734 280.3905
   280.3905 281.0395 281.0395 281.0395 281.4847 281.4847 281.4847 281.7957
   284.6647 285.1818 285.1818 285.1818 286.7681 288.6493 288.6493 288.6493
   288.7275 288.7275 290.7310 290.7310 290.7310 291.2326 291.2326 291.2326
   291.4702 291.4702 291.4702 291.8945 292.2224 292.2224 292.2224 293.2477
   293.2477 293.2477 293.6553 294.5826 294.5826 294.5826 294.8479 294.8479
   295.0085 295.0085 295.0085 295.1757 295.1757 295.1757 295.2793 295.2793
   295.2793 295.3464 295.3464 295.7770 295.8348 295.8348 295.8348 296.0019
   296.0019 296.0019 296.2212 296.5050 296.5050 296.5050 296.5888 296.5888
   296.8300 296.8300 296.8300 296.8564 296.8564 296.8564 296.9750 296.9750
   296.9899 296.9899 296.9899 305.1578 305.1578 305.2307 305.2307 305.2307
   315.7197 315.7197 315.7197 316.1492 316.4986 316.4986 321.6658 321.6658
   321.6658 322.2490 324.3024 325.2469 325.2469 325.2469 327.1585 327.1585
   327.6914 327.6914 327.6914 328.1827 328.1827 328.1827 329.3258 329.3258
   329.3258 329.7180 329.7180 329.7180 331.7858 333.2967 333.2967 333.6767
   333.6767 333.6767 336.1263 336.1310 336.1310 336.1310 336.9492 338.2543
   338.2543 338.7241 338.7241 338.7241 339.2887 339.2887 339.2887 339.3390
   339.3390 339.3390 339.4401 339.4401 339.4401 341.4053 341.4053 341.4053
   341.6658 341.6658 341.6658 341.7441 341.7441 341.8730 341.8730 341.8730
   342.0537 342.0537 342.0537 342.3559 342.3559 342.3730 342.3730 342.3730
   342.4110 343.2097 343.2097 343.2097 344.2104 344.2104 349.1928 349.1928
   349.1928 349.2259 349.2352 349.2352 349.2352 352.3437 352.3437 352.8253
   352.8253 352.8253 355.6408 355.6408 355.6408 356.8909 358.1599 358.1599
   358.2193 358.2193 358.2193 358.5478 358.5478 358.5478 358.5816 358.5816
   358.5816 358.7524 358.7524 358.7524 360.1817 360.3854 360.3854 360.3854
   360.4695 360.4695 362.6540 362.6540 362.6540 362.8916 363.0214 363.0214
   363.0214 368.3242 368.3242 368.3242 368.9945 370.3911 370.3911 370.3911
   371.4342 371.4342 371.4342 371.5592 371.5592 372.1754 372.1754 372.1754
   372.4482 373.4344 373.4344 373.4344 373.4650 373.4650 373.5365 373.8854
   373.8854 373.8854 373.8897 373.8897 374.0843 374.0843 374.0843 374.2287
   374.2287 374.2287 374.3102 375.5563 375.5563 375.5563 375.6195 375.6195
   375.6195 375.6810 375.6810 375.6810 375.7730 379.1747 379.1747 379.4649
   379.4649 379.4649 380.7031 380.7031 380.7031 380.9236 380.9292 380.9292
   380.9292 382.2077 382.2077 382.2077 382.2449 382.2449 382.4670 382.4670
   382.4670 382.5138 382.5153 382.5153 382.5153 386.7779 386.7779 390.7051
   390.7051 390.7051 395.0002 395.0002 395.1784 396.0739 396.0739 396.0739
   398.0404 398.0404 398.0404 398.5193 398.5193 398.5193 398.9912 398.9912
   398.9912 399.7753 399.7753 399.8669 399.8669 399.8669 399.9522 400.0255
   400.0255 400.0255 401.1727 402.3141 402.3141 402.3141 403.3429 404.8255
   404.8255 404.8255 406.2809 406.2809 406.2809 406.8232 406.8232 406.8232
   407.0411 407.0411 407.0411 407.3007 407.3007 408.1506 409.7912 409.7912
   409.8004 409.8004 409.8004 410.7353 410.7353 411.0513 411.0513 411.0513
   412.6191 412.6979 412.6979 412.6979 413.6781 413.6781 413.6781 413.9833
   413.9833 413.9833 414.0243 414.0243 414.2344 414.2344 414.2344 414.5148
   414.5148 414.5653 414.5653 414.5653 416.0256 416.1264 416.1264 416.1264
   416.1829 416.1829 416.1829 416.4757 416.4757 416.4757 416.6412 416.6412
   416.6412 416.8093 416.8446 416.8446 416.8446 416.9607 416.9607 416.9607
   417.6998 418.4908 418.4908 418.4908 418.6633 418.7394 418.7394 419.7677
   419.7677 419.7677 419.9006 419.9006 419.9006 420.2221 420.2221 420.2367
   420.2367 420.2367 420.3298 420.3298 420.3298 422.3967 422.3967 422.5947
   422.5947 422.5947 422.9851 422.9851 422.9851 423.0103 423.1888 423.1888
   423.1888 423.2761 423.2761 423.2761 423.5484 423.5484 423.5484 423.6386
   423.6386 423.8746 423.8746 423.8746 424.0246 429.7251 429.7251 429.7251
   433.5589 433.8541 434.0372 434.0372 434.0372 439.1432 439.1432 441.9348
   441.9348 441.9348 442.0394 442.0394 442.0394 442.2242 442.2242 442.2242
   442.2412 442.2412 442.2658 442.2658 442.2658 443.7704 443.7704 448.1064
   448.1064 448.1694 448.6128 448.6128 448.6128 449.1501 449.1501 449.1501
   451.2845 451.2845 451.2845 451.4013 451.4013 451.4013 451.6651 451.6651
   451.6651 453.3331 453.4398 453.4398 453.4398 455.7590 455.7590 455.7590
   456.8224 456.8224 456.8592 456.8592 456.8592 457.0347 457.0347 457.0347
   457.1067 457.1630 457.1630 457.1630 457.1799 457.1799 457.1799 457.5819
   457.5819 457.6075 457.6132 457.6132 457.6132 464.2739 464.2739 464.2739
   470.7118 470.8998 470.8998 472.4458 472.4458 472.4458 473.2904 474.8228
   474.8228 474.8228 474.9335 474.9335 474.9335 476.2430 476.2430 476.2430
   476.2824 476.2824 476.6439 476.6439 476.6439 476.8010 476.8010 476.8010
   478.4830 478.4830 481.7176 481.7176 481.7176 482.4622 483.7703 483.7703
   483.7703 485.7444 485.7444 485.7444 485.8647 485.8647 487.5668 489.0619
   489.0619 489.0619 489.3482 489.3482 489.3482 489.7155 490.8904 490.8904
   490.8904 491.4155 491.4155 491.8251 491.8531 491.8531 491.8531 492.9603
   492.9603 492.9603 493.8086 493.8086 494.1470 494.1470 494.1470 494.3372
   494.6055 494.6055 494.6055 494.8987 494.8987 494.8987 495.6525 495.6525
   495.6525 496.1209 496.1209 496.1209 496.2362 497.9739 497.9739 498.2802
   498.2802 498.2802 498.2853 498.2853 498.4396 498.4396 498.4396 498.4507
   498.4507 498.4507 498.4775 498.4775 498.4775 499.2792 499.2792 499.5409
   499.7265 499.7265 499.7265 501.3935 501.4197 501.4197 501.4197 501.4412
   501.4412 501.4412 501.4499 501.4499 501.5075 501.5075 501.5075 503.8874
   503.8874 503.8874 504.0076 504.0076 504.2416 504.2625 504.2625 504.2625
   504.3309 504.3309 504.3309 506.7258 506.7258 510.4036 510.4036 510.4036
   511.6387 512.8896 512.8896 512.8896 513.8241 513.8241 513.8241 514.3489
   514.3489 514.8913 515.1459 515.1459 515.1459 516.2001 516.5137 516.5137
   516.5137 516.8045 516.8045 516.8045 516.9866 516.9866 516.9887 516.9887
   516.9887 518.7261 518.7261 518.7261 519.2647 519.2647 519.2647 519.3628
   519.3628 519.3628 519.8532 519.8577 519.8577 521.1737 521.1737 521.1737
   521.5611 521.5611 521.5611 521.6007 521.6007 521.6007 521.8251 521.8251
   521.8251 522.3316 522.3316 522.3723 522.3723 522.3723 522.4372 522.4372
   522.4372 522.4836 522.4836 522.4836 522.5362 524.4832 524.4832 524.5225
   524.5225 524.5225 524.5877 525.3449 525.3449 525.3449 525.8069 525.8069
   530.9303 532.3974 533.0093 533.0093 533.0093 533.2007 533.2007 533.2007
   533.6248 533.6248 533.6248 534.1956 534.1956 534.1956 534.4151 534.4151
   534.4151 534.6103 534.6103 535.0090 535.0090 535.0090 535.0132 535.0132
   535.4523 535.4523 535.4523 535.5442 535.7013 535.7013 535.7013 536.2701
   536.5415 536.5415 536.5415 536.6393 536.6393 537.0700 537.0700 537.0700
   537.2710 537.2710 537.2710 537.2784 537.2784 537.2784 537.3425 537.3425
   537.3425 537.3885 537.6572 538.0697 538.0697 538.0697 538.0852 538.0852

          k = 0.5000-0.5000 0.5000 (  3316 PWs)   bands (ev):

    -6.9714  -6.8652  -6.8652  -6.7830  -6.7830  -2.7692   1.0305   6.5407
     6.5407   9.3301  12.3824  12.3824  15.9469  18.5399  19.3126  19.3126
    21.2394  21.2394  21.3180  27.6923  29.8152  29.8152  30.0800  32.1345
    32.1345  34.8713  34.8713  35.7705  36.6037  37.4822  37.4822  39.1421
    41.9999  42.0506  42.0506  43.7105  43.7105  44.6036  45.2859  50.5238
    50.5238  50.8629  51.3140  51.3140  53.9425  54.4866  54.4866  58.2152
    59.6297  59.6297  60.4270  61.0440  61.0440  62.0772  62.7980  62.7980
    65.5313  65.5313  66.9902  68.0791  68.0791  69.8937  70.0558  70.0558
    71.3169  71.3169  72.0659  72.3083  72.7004  75.4356  75.4356  75.6141
    75.8326  75.8326  76.7063  78.8666  79.5320  79.5320  81.5338  81.5338
    82.2339  82.2339  83.7699  84.7368  88.4616  88.4616  90.4356  92.1809
    92.5442  92.5442  92.8048  94.1317  94.1317  94.1900  94.9885  94.9885
    96.8706  98.7065  98.7065  98.8070  99.4843  99.4843  99.7544 100.5864
   101.4026 101.6618 101.6618 101.9181 102.9488 102.9488 103.2565 104.5380
   104.5380 109.1121 109.1121 109.1736 110.6683 110.9273 110.9273 111.7072
   111.7072 111.7876 112.7976 113.2406 113.8643 113.8643 114.5470 114.5470
   115.8929 116.0631 116.0631 117.8306 117.8306 118.6791 121.3566 121.3566
   122.2874 123.1451 123.7368 123.7368 124.8251 124.8251 124.9734 126.1280
   126.1280 127.7014 127.7014 128.4181 130.5673 130.5673 130.9481 130.9481
   131.4242 132.1662 133.3291 133.3622 134.9806 134.9807 136.1215 136.3527
   136.3527 136.7033 136.7033 137.6408 139.2009 139.2009 139.7106 139.7352
   139.7352 140.6203 142.5910 142.5910 142.8769 145.0235 146.7915 146.7915
   149.4411 149.4411 149.5435 150.3123 151.4944 151.4944 151.5578 152.1902
   152.5741 153.8151 153.8151 154.3620 154.3620 155.1711 155.6861 155.6861
   157.1698 157.8949 157.8949 159.5202 159.9613 159.9613 160.3115 160.4621
   160.4621 161.2334 161.2334 161.5399 162.6295 162.6295 162.6600 162.6717
   162.9801 163.6384 163.6384 163.8814 163.8814 164.5693 164.5693 166.6263
   167.3554 167.3554 167.5754 169.3618 169.3618 170.6022 171.2280 171.7182
   171.7182 172.1298 172.1298 172.3684 172.7748 172.7748 173.0523 173.0523
   173.4400 177.3156 179.1285 179.1285 179.4770 179.6566 180.0027 180.0027
   181.9642 181.9642 182.5973 182.8255 183.2765 183.5512 183.5512 184.0185
   184.1522 184.1522 184.8843 185.3984 185.3984 186.5417 187.2082 187.2358
   187.2358 189.5949 189.5949 189.9637 192.0992 192.0992 192.1677 192.9319
   193.8259 193.8259 194.4925 194.4925 195.0552 195.0552 195.5387 195.6533
   195.7267 195.7267 196.2003 196.7001 196.7001 201.8570 201.8864 201.8864
   204.8839 205.4235 205.4235 206.0171 206.5146 206.5146 207.7672 207.7672
   208.1024 209.0263 209.0263 209.7527 209.7527 209.7908 210.2662 211.8215
   212.0260 212.0474 212.1222 212.1222 213.7427 213.7427 214.4378 214.6011
   215.1208 215.2713 215.2713 216.1712 216.1712 216.6717 216.6717 218.0976
   218.0976 218.3822 218.6109 218.8046 218.8046 219.7148 219.7148 220.1970
   221.2205 221.9445 221.9445 222.1113 222.1113 222.5916 222.6943 222.6943
   222.9821 223.1354 223.1354 223.3514 223.3514 224.3620 224.3803 224.6809
   224.6809 226.7610 229.3442 230.0100 230.0100 230.5538 232.3229 232.3229
   233.0547 233.4644 233.4644 234.1179 234.1179 234.4450 234.4450 234.5754
   234.7751 235.5210 235.5210 236.7470 237.7950 237.7950 239.0250 239.0250
   239.3684 239.8469 239.8469 239.8945 239.9598 240.6066 240.6066 241.8146
   242.4054 243.5863 243.5863 243.8578 243.8578 244.1686 244.1815 244.1815
   244.2815 244.3560 244.3560 249.0806 249.0806 249.7882 250.2937 250.7720
   251.0675 251.0675 251.2656 251.2656 251.6670 251.6670 252.2220 252.4279
   252.5541 254.4823 254.4823 256.0916 256.0916 257.5829 257.6659 257.6659
   258.0237 258.7502 259.4243 259.9911 259.9911 261.0537 261.0537 261.4004
   261.9474 261.9780 261.9780 262.7533 262.9965 262.9965 264.3825 265.3871
   265.3871 266.0125 266.0125 267.6066 267.6066 268.0066 269.1535 269.1535
   270.6377 270.6377 271.3668 272.0749 272.1025 272.7427 272.8032 272.8032
   273.2351 273.3020 273.3020 274.2963 274.2963 274.4142 276.0532 276.0532
   276.3985 276.3985 277.2685 277.2685 278.4043 279.9904 280.0384 280.0384
   280.2186 280.4745 280.4745 280.6161 280.6161 280.6439 280.9624 281.0523
   281.0523 283.2053 283.2191 283.2191 285.0435 285.7159 285.7159 285.9838
   286.3786 286.3786 286.4167 286.4377 286.7696 286.7696 286.9846 287.0847
   287.0847 288.9582 288.9582 289.8070 289.8070 291.4158 292.3750 293.2866
   293.4205 293.6835 293.6835 294.2855 294.2855 295.2709 295.2709 296.9135
   297.6396 297.9040 297.9040 298.6873 298.6873 298.7960 299.3675 299.5939
   300.0824 300.0824 300.6594 300.6594 301.1089 301.6376 301.6376 302.0003
   302.1140 302.8212 302.8212 303.7237 303.7237 304.5100 306.9885 307.0355
   307.0355 307.9103 308.3479 308.3479 309.2345 309.4447 309.4447 309.9886
   311.4338 311.4338 312.7694 312.7694 312.8377 312.9185 313.5797 313.6951
   313.6951 314.1376 314.1376 314.1668 314.4740 314.4740 314.5552 314.8657
   314.8657 314.8957 314.9053 314.9053 314.9441 316.1965 316.1965 316.5917
   316.7686 316.7686 316.8668 316.8668 317.2671 318.1097 318.1097 318.1378
   319.7834 320.5347 320.5347 320.9391 320.9391 321.1482 321.3433 321.7763
   322.2224 322.2224 322.9182 322.9182 322.9245 323.6395 323.6395 323.8784
   323.9655 325.6612 325.6612 328.0374 328.0374 328.0741 328.8164 329.2325
   329.2325 329.7129 331.1096 331.1096 333.0496 333.0497 333.1556 333.3857
   334.7633 334.7633 335.4618 335.4618 335.7178 338.7383 338.7383 341.3006
   341.3006 341.3976 341.7787 341.7787 342.0589 342.0589 342.3587 342.3592
   342.3592 342.6565 342.6986 342.7530 343.0992 343.2947 343.2947 343.8233
   343.8233 344.6487 344.6487 345.4303 345.4473 345.6385 345.6385 347.8321
   348.0229 348.0229 348.7082 348.7082 348.8673 348.9029 350.1405 350.5620
   350.5620 352.1867 352.2458 352.2458 353.4571 353.4571 354.8594 354.8594
   354.9939 355.1927 355.1927 355.5286 355.5571 357.0643 357.0643 357.8394
   358.9902 359.4965 359.4965 359.7789 360.1535 360.1774 360.1774 361.3077
   361.6819 361.6819 363.5479 363.5479 364.0034 364.7543 364.7543 364.8828
   365.3284 365.3284 365.4390 365.4390 366.3914 366.3914 366.6977 367.5409
   367.7594 368.6898 368.8110 368.8110 369.2335 369.2335 369.6090 369.6090
   369.7896 370.4253 370.4789 370.4789 371.0362 371.0362 372.6402 372.7402
   372.7402 372.8846 372.8846 372.9753 373.9866 374.1464 374.1464 374.4978
   374.4978 374.9316 374.9565 375.0194 375.1574 375.1574 375.6524 375.6524
   376.5845 377.4323 377.4626 377.4626 377.5388 378.3482 378.3482 380.2452
   380.7743 380.7743 381.9089 381.9089 382.9479 383.0482 383.1871 383.1871
   384.3213 384.3213 384.4959 384.5673 385.0648 385.0648 385.3116 385.3116
   385.3869 386.2543 386.2543 388.0844 388.1261 388.1261 388.4151 388.4552
   388.6847 388.6847 388.9910 388.9910 389.0325 389.1707 389.2811 389.2811
   390.3600 390.3600 391.8100 393.6217 393.6217 394.8102 394.8102 395.0423
   395.0423 395.1769 395.2486 395.2554 395.3092 395.4387 395.4387 395.5670
   396.2611 396.4302 396.4302 396.5394 397.4533 397.4533 399.1302 399.5028
   399.5028 399.7012 399.7012 401.1249 401.1249 401.1927 401.6052 401.6052
   401.8205 402.3265 402.3265 402.3616 402.4589 402.4589 402.6880 402.6880
   402.7584 402.7749 403.0871 404.9263 404.9263 406.4165 406.5980 406.5980
   406.9523 407.9357 409.3746 409.3746 412.5239 412.5239 412.6287 413.1181
   413.1181 413.6983 413.8527 413.8527 414.1780 414.3034 414.7306 414.7306
   415.6881 415.6881 416.2640 416.2640 416.8953 416.8953 417.4556 420.3796
   420.7920 420.7920 421.6971 421.6971 422.1616 422.5433 422.5433 422.7851
   423.0083 423.0083 423.0875 423.0875 423.1653 423.1753 423.3217 423.3683
   423.3683 423.4605 423.5789 423.5789 423.7341 424.2419 424.2419 424.7619
   425.6923 425.6923 425.8290 425.9596 425.9596 426.0172 427.4697 427.4697
   429.7558 430.8613 430.8886 430.8886 433.4313 433.4313 433.9854 433.9854
   434.0598 434.0598 434.0869 434.1064 435.5503 435.5503 435.6137 435.7272
   435.8737 435.8737 435.9105 437.0607 437.3242 437.3242 437.5366 437.5366
   437.7003 438.2522 438.3525 438.3525 438.9276 438.9276 439.3349 439.6544
   439.6544 439.6629 439.9130 439.9130 439.9164 439.9799 440.0276 440.0276
   443.7743 443.7743 444.0210 444.0210 444.2088 444.4115 444.4153 446.6049
   446.6049 447.4605 447.4605 449.4890 450.0424 450.6488 450.6488 450.8053
   451.5228 451.5228 452.7509 452.7509 453.2984 453.3919 453.5182 453.6521
   454.0025 454.0025 454.1932 454.1932 454.6396 454.6396 455.1591 455.1591
   455.7203 456.1228 456.4171 456.4171 456.8631 457.0776 457.4262 457.4262
   459.0335 459.0335 459.0445 459.7197 459.9319 459.9319 460.3028 461.0062
   461.0062 461.2124 462.5476 462.5655 462.6390 462.6390 463.2298 463.2298
   463.4267 463.4267 463.4827 464.1501 464.1501 464.4238 464.6254 464.6254
   464.8518 464.8518 465.0816 465.1000 466.1161 466.1161 466.2178 466.2656
   466.2656 466.2872 466.2872 466.3361 466.3771 466.3771 466.4088 466.5080
   469.4466 469.8639 469.8639 471.4407 471.4407 472.7661 472.7661 473.0171
   473.1602 473.9902 473.9902 474.3484 474.3484 474.7217 474.9299 475.1404
   475.1426 475.1695 475.3956 475.3956 475.5533 475.5533 475.8132 475.8132
   475.8513 477.2184 477.2184 479.6577 480.6063 481.0364 481.0364 481.1403
   481.8089 481.8089 481.8595 482.3250 482.8146 482.8146 483.0325 483.0325
   483.8841 483.8841 484.4940 484.4940 484.6359 484.6596 484.7487 484.7487
   485.1245 485.1245 486.1545 486.2309 486.2309 486.4108 486.9322 486.9322
   487.2263 487.6081 487.7531 487.7531 488.3188 488.8231 488.8231 490.8337
   490.8337 491.6250 491.7507 491.7507 491.7681 491.7681 492.3503 492.6707
   492.6707 492.8950 492.8950 492.9777 493.0888 493.1649 493.1649 493.4615
   493.5548 493.5548 493.6001 493.8343 493.9726 494.0364 495.8852 495.8852
   496.5063 496.5063 499.3687 499.3687 499.3957 499.3957 500.3980 500.3984
   500.6295 500.6295 501.1084 501.5133 501.6787 501.6787 503.5151 503.5151
   503.8567 504.0461 504.0461 504.1133 505.5994 505.5994 507.8538 509.8953
   509.8953 510.3797 510.9898 510.9898 512.0585 512.3343 512.3343 512.7293
   512.7293 512.8374 513.1424 513.4377 513.4377 513.5426 513.6115 513.8298
   513.8298 514.0058 514.0197 514.0197 514.1649 514.1649 514.4075 514.7363
   514.7363 514.8367 515.3342 515.7689 515.8850 515.8850 516.0536 516.0536
   516.2436 516.7058 516.7058 517.4428 517.4428 518.1699 519.2576 519.3046
   519.9763 519.9763 519.9839 520.0853 520.0853 520.3015 520.3015 520.3904
   520.4217 520.5217 520.5217 520.6183 520.7344 520.7344 520.9290 520.9812
   520.9812 521.5656 521.6137 521.6137 521.6375 521.7812 521.8109 521.8109
   526.2144 526.2144 526.5299 526.5299 526.8203 526.8266 526.8353 526.8353
   526.9597 526.9597 527.3428 527.3428 527.4819 527.8728 527.9601 527.9601
   528.1162 528.1162 528.1444 528.2075 528.2075 528.2283 530.3751 530.3751
   532.2931 532.5386 532.5386 532.5454 536.6181 536.6181 536.9923 537.0224
   537.0224 537.0418 539.4696 539.4696 540.2662 540.2662 540.7924 541.3887
   541.4690 541.5350 541.5350 541.7352 542.1705 542.1705 543.3582 543.3582
   543.7855 543.7855 544.0088 544.4658 544.4658 544.6177 544.8118 544.8118
   544.9835 545.0656 548.9516 548.9516 549.1727 551.2349 551.3255 551.3256

          k = 0.0000-1.0000 0.0000 (  3306 PWs)   bands (ev):

    -7.0074  -6.8260  -6.8249  -6.8249  -6.7688  -1.8728   0.9093   4.9783
     4.9783   9.3161   9.4865  18.2451  18.2451  18.8398  20.0272  20.5817
    20.5817  22.6482  24.6946  26.0537  28.6137  28.6137  29.2875  29.5450
    29.5450  29.6299  30.0580  34.8865  38.7289  38.7289  39.0213  42.3289
    42.5562  42.5562  43.8993  44.1169  45.2916  47.3081  47.4501  47.4501
    49.6076  50.2308  50.2308  50.3909  51.3950  53.1144  53.1144  57.7628
    59.9153  59.9153  60.5091  61.4992  62.2976  64.8321  64.8495  66.3357
    66.3357  66.7818  67.7589  67.7589  68.0900  68.7032  68.7032  69.2172
    70.1566  70.1566  70.4032  71.7466  72.7306  76.1632  78.0277  78.4037
    78.4037  79.3960  81.0806  81.7817  81.7817  82.4069  83.2252  83.2252
    83.5929  83.5929  84.0582  84.6705  84.7876  85.6815  86.3770  86.3770
    87.3905  88.7255  89.8285  89.8285  90.0319  90.0319  90.6232  92.2341
    92.4912  96.5835  98.2118  98.4363  98.4363  99.3054  99.8397  99.8397
   101.1714 102.3610 102.4445 102.4445 102.6882 102.6882 102.9697 104.4240
   104.4770 105.7842 108.2122 108.8012 108.8012 109.7557 110.1492 110.1492
   110.9812 113.0264 113.0264 113.5943 114.2286 116.0395 119.1574 119.1574
   119.1651 121.6849 122.6202 123.3169 123.9038 123.9038 124.1122 125.5352
   125.9124 125.9124 126.0125 126.5924 126.6386 127.7362 127.8320 127.8321
   128.4237 128.5929 128.5929 129.5799 129.5799 130.1246 130.1246 130.1396
   130.4032 130.7712 132.5142 133.4836 135.6512 137.7431 138.1668 138.1668
   138.8832 138.9317 138.9317 140.4051 140.7416 140.7416 141.1034 141.7398
   142.6181 143.1704 143.1704 143.4976 143.9695 143.9695 144.6958 144.7979
   144.7979 145.7132 146.0601 146.5943 147.2235 147.2320 148.5579 148.5579
   148.8179 149.2127 149.2127 149.5482 149.7079 149.7079 149.8648 150.1494
   150.1494 150.7523 151.6921 151.8781 152.4328 155.4206 155.4206 155.7406
   157.9610 157.9610 159.8746 159.8746 160.0680 160.7207 160.9931 162.0151
   162.0151 162.6694 163.8281 166.3307 166.4720 167.2162 167.2162 167.9671
   167.9671 168.0892 168.5614 169.0828 169.4482 170.0927 170.0927 170.8888
   171.1328 171.1328 171.3341 174.4450 176.4699 178.7255 179.9890 180.1330
   180.1330 180.4291 180.4291 181.7979 182.7545 182.7545 183.1658 183.2486
   183.7877 183.8407 183.8407 184.9347 185.5410 185.7793 186.2860 186.4679
   186.4679 187.1902 187.9081 187.9081 187.9601 188.7712 188.7712 188.9056
   188.9056 189.2751 190.4649 191.9210 191.9210 192.9375 193.3237 195.0309
   195.0309 195.0741 195.4806 198.4052 198.9621 199.5087 199.5087 200.0455
   200.8010 200.8095 200.8743 200.8743 201.4477 201.4477 201.7146 202.0499
   202.5522 202.9813 202.9813 203.1027 203.1027 203.1385 203.1742 203.7730
   204.5938 204.5938 204.6292 204.7613 204.7613 205.3528 206.8005 207.7332
   209.0274 209.0274 209.1045 209.3323 209.4055 209.4055 209.4562 209.4600
   210.3706 210.3706 212.0843 213.6597 215.3736 215.5285 215.5285 217.3233
   217.8467 218.1799 218.1799 221.1437 221.7025 221.8501 221.8501 222.0780
   222.0780 222.2549 223.0075 223.6003 223.7640 224.2430 224.3409 224.3409
   224.6725 224.6725 224.8263 224.8403 225.7726 226.3914 226.3914 227.3769
   229.4447 229.4447 230.6099 230.6287 230.6578 230.7224 230.7224 230.9149
   230.9764 230.9764 231.1179 231.1900 231.4527 232.3996 232.3996 234.0052
   236.1847 236.6758 236.6758 237.6714 238.1895 238.1895 240.0901 240.4132
   240.4132 240.6515 241.3347 241.6924 242.3883 242.3883 242.7884 243.1337
   243.8829 245.0127 245.0127 245.0327 245.5897 245.8280 246.5309 246.6486
   246.6486 246.7428 247.6854 247.6854 249.2190 249.8366 250.2006 250.3162
   250.3162 251.0601 251.0787 251.1083 251.1083 251.1552 252.2553 252.2553
   253.1182 253.4551 253.4551 253.6051 254.4469 257.4811 258.4854 260.5983
   260.5983 260.7749 261.2684 261.2966 261.2966 261.5921 261.5921 262.2852
   262.4064 262.4064 263.3196 264.0143 264.4471 264.4573 264.4573 265.1066
   265.1066 265.1631 265.2576 265.8085 265.8085 265.8853 266.0918 266.0918
   266.1964 266.2805 266.5875 266.6138 267.5231 267.6350 267.6350 267.7101
   267.8411 268.1502 268.1502 269.0401 269.1196 269.8391 269.8391 269.8637
   270.5041 270.5041 270.5437 270.8535 271.7399 271.7399 272.7491 274.1367
   276.0665 279.1011 279.1011 279.2875 279.3191 280.5241 281.2815 281.2815
   281.3817 283.7778 283.7778 285.0796 285.1879 285.3623 285.6691 285.7535
   285.7535 287.0942 287.2937 287.2937 288.1615 288.1615 288.5093 288.9135
   289.4124 290.8480 290.8480 290.9893 291.0116 291.3643 291.3945 291.3945
   292.7442 295.7884 296.4961 296.9050 296.9050 297.8420 297.8420 298.2453
   298.7021 299.9707 299.9707 301.0525 301.2584 301.6303 301.6777 301.6777
   303.1921 303.6829 303.6829 304.1831 304.4201 305.1817 306.0904 306.0904
   306.8388 307.8416 308.3255 308.5376 308.9942 308.9942 309.3241 309.3241
   309.9346 310.0819 310.0819 310.1564 310.1564 310.1732 310.1796 310.3908
   310.9690 311.0388 311.0388 311.1442 311.9838 313.1091 313.1091 313.7384
   313.7829 316.6134 316.7677 317.8695 318.1118 318.1118 318.7408 319.6319
   319.6319 319.6812 319.8567 319.8567 320.7170 321.0886 321.1748 321.1894
   321.1894 321.3594 321.4609 322.0291 322.0512 323.0723 323.0723 323.6167
   323.6167 323.8903 324.7952 324.7952 325.1558 325.1558 325.2144 325.4220
   325.4460 326.1958 326.5656 326.5656 326.7935 326.8282 327.0634 327.5698
   327.7362 329.2501 329.2501 329.3120 329.7436 329.7436 330.0473 330.0473
   330.1141 330.1237 330.2677 330.2677 331.0430 331.1121 331.2321 331.3324
   331.3435 331.3435 331.4066 331.4066 332.7519 333.5299 334.3383 334.3383
   336.1148 336.1862 336.5234 336.5234 337.7250 337.9163 339.4183 339.4183
   339.5781 339.8902 340.1758 341.3696 341.7978 341.7978 342.5543 342.5543
   342.9931 343.1325 343.3440 343.3440 343.4517 344.1431 344.1431 344.6707
   344.6707 344.6829 344.7479 344.7479 344.8892 344.9068 345.8547 346.0092
   347.2837 347.6824 347.6824 348.2021 348.2526 350.0375 350.0438 350.0438
   351.2650 351.5938 351.8272 351.8272 351.9048 351.9276 351.9950 351.9950
   352.0892 352.4302 355.7021 356.5691 356.5691 359.1612 359.1612 360.8019
   361.5362 361.8883 361.8883 362.5312 362.7082 362.7082 362.7868 362.7930
   362.8359 363.0409 363.9869 365.2798 365.2798 365.4558 365.6112 365.6140
   365.6140 366.3523 366.3523 366.3990 366.4591 366.6558 366.6558 366.9174
   367.0080 367.0080 367.2388 367.9790 368.8820 369.8122 369.8363 369.8363
   370.1082 370.1082 370.5249 371.1686 371.1702 371.3053 371.3053 371.6862
   371.7595 372.3794 372.3794 372.5093 372.8633 372.8633 374.5711 375.1371
   377.2869 378.5177 378.6182 378.6182 378.6640 379.3429 379.8005 380.3514
   380.8096 380.8096 382.8460 382.8460 382.9943 382.9943 383.2667 383.6735
   383.9320 384.4377 384.4841 384.4841 385.7255 385.7313 385.9016 385.9016
   385.9641 386.3800 386.6560 386.6560 386.8440 386.9113 386.9144 386.9144
   387.1335 387.1335 387.1413 387.1843 388.8653 389.1129 389.1129 389.1130
   391.1640 391.1891 391.1892 391.1937 391.1962 393.0700 393.0700 395.6433
   395.7619 396.9893 397.6243 398.5290 398.5290 400.0953 400.7254 400.7254
   401.0239 401.5575 401.6795 401.6795 401.9271 402.0818 403.0791 403.0791
   403.1144 403.5659 404.1756 404.3097 404.3097 404.8683 405.0023 405.4690
   405.4690 405.5157 406.3286 406.3286 406.6616 406.7381 406.8910 406.8910
   407.4942 407.8532 408.0284 408.0792 408.0792 408.2796 409.0524 409.2880
   409.2880 409.5297 409.8381 409.8381 410.0821 410.3276 411.5633 412.0847
   412.0847 412.4625 413.1767 413.1767 414.0721 414.3280 415.0446 415.1249
   415.4716 415.4716 417.6861 419.3610 422.5921 422.8660 422.9648 422.9648
   423.8619 425.0092 425.0092 425.1787 425.1787 425.7494 425.7494 425.8813
   426.0945 426.1955 426.2412 426.3611 426.3611 426.3925 426.5598 427.4953
   427.4953 428.0897 428.3229 428.4058 428.8896 428.8896 429.0639 429.0639
   429.0708 429.1648 430.2457 430.2457 430.3849 430.4306 430.9935 431.2393
   431.4239 431.4239 431.4382 431.5221 431.5773 431.5773 434.1776 434.6816
   436.9445 436.9445 437.5473 437.9765 438.2668 438.6601 438.6644 438.6644
   438.9765 439.5416 439.5416 439.6580 439.7542 440.1495 440.1495 440.4466
   440.4466 440.4561 440.6134 440.8167 440.8167 441.5727 441.6872 442.0337
   442.2105 442.2736 442.2736 442.3780 442.5414 442.5414 442.7023 442.7023
   442.8288 442.8893 444.1557 444.1557 444.1975 445.7070 446.0950 446.1378
   446.1853 446.1853 446.6708 446.6785 446.7131 446.7131 446.8396 448.3454
   448.3454 448.7319 449.0650 449.0650 449.2150 449.2441 449.6355 449.8071
   449.9529 449.9757 450.1513 450.1513 450.4849 450.4849 450.8358 450.9160
   450.9160 451.0295 451.2936 451.2936 451.3317 451.4556 452.0024 452.2431
   452.2896 452.2896 452.3116 452.3473 452.3473 452.3967 452.7409 453.1920
   453.2667 453.2667 453.3347 453.3939 453.3939 453.4533 457.7469 459.0073
   459.0073 460.2058 460.5115 460.6705 460.6705 460.8057 460.8466 462.1483
   462.8312 462.8312 463.0878 463.0878 463.1756 463.2253 463.2628 464.4040
   464.8204 466.4425 466.4425 467.2425 467.7064 467.7064 468.2571 468.2571
   469.1834 469.5229 469.9482 470.0986 470.0986 470.3605 470.3605 470.4627
   470.7632 471.0367 471.3680 471.5357 471.6177 471.6177 472.0081 472.0081
   472.0143 472.0808 472.3378 472.3384 472.3547 472.3547 475.9011 476.0117
   478.8314 478.8314 479.0412 479.6339 480.7701 480.8507 480.8507 480.9179
   480.9179 481.6676 482.8146 482.8146 483.1692 483.6875 483.8163 484.3869
   484.3869 484.4799 484.7408 485.1592 485.5153 485.5153 486.3809 486.4702
   486.4702 486.5131 486.7775 487.2693 488.3577 488.7071 489.1876 489.1876
   489.3193 489.3193 489.3325 489.5195 489.6163 490.2814 490.2814 491.1555
   491.2033 491.2033 491.2064 491.2264 491.2669 491.3355 491.4486 491.4486
   491.5310 491.5310 491.7486 491.7786 494.1715 494.1715 496.3485 497.2486
   497.2486 497.2877 500.0482 500.4962 500.4962 501.0439 501.1735 501.8716
   501.9207 502.3795 502.3795 502.6144 502.9190 503.0065 503.0065 503.2099
   503.5851 504.0795 504.5155 504.5155 505.0210 505.0530 505.0530 505.3760
   505.3760 505.4768 505.4768 505.6267 506.0148 506.0338 506.1486 506.5478
   506.5625 506.7613 507.0095 507.0095 507.0184 507.0835 507.1905 507.2214
   507.2214 507.3143 507.3143 507.4167 508.4942 508.5040 508.6936 508.8574
   508.8574 508.9111 508.9111 509.2213 509.2863 509.3450 509.7238 511.2708
   511.6244 511.6244 512.9198 512.9198 512.9886 512.9886 513.2630 513.5139
   513.5628 513.5628 514.7317 517.5529 518.0203 518.0203 518.2012 518.8123
   518.8229 519.3434 519.3434 519.5816 519.5856 519.5856 519.8237 520.6384
   520.6384 521.1534 523.2340 523.3339 523.3339 523.6346 523.7776 524.1554
   525.1861 525.1861 525.4140 525.4378 525.4378 525.4961 525.5005 526.5303
   526.5303 526.5995 528.7178 529.7336 529.7336 530.0236 530.0917 531.0056
   531.0056 531.2235 531.2921 531.4891 531.4891 531.5466 531.6821 531.7819
   531.7819 532.1148 532.1650 532.2294 532.2316 532.2316 532.4254 532.4481
   532.4721 532.4721 537.7114 537.7275 537.7275 538.3246 539.2764 539.6975
   540.5095 540.5095 541.9675 541.9695 541.9695 543.3997 543.4829 543.4957
   544.2550 544.2713 544.2713 544.9135 545.2546 545.3201 545.3201 545.5458
   545.5465 545.5465 545.5578 545.6418 545.7180 545.9720 545.9720 546.1243
   546.2724 546.2724 546.4751 546.5561 546.9493 546.9493 547.2879 547.4559

     the Fermi energy is     8.2004 ev
     (compare with:     8.9347 eV, computed in scf)

     Writing all to output data dir out/mp-2490.save/
 
     init_run     :      0.06s CPU      0.09s WALL (       1 calls)
     electrons    :    360.39s CPU    388.09s WALL (       1 calls)

     Called by init_run:
     wfcinit      :      0.00s CPU      0.00s WALL (       1 calls)
     potinit      :      0.01s CPU      0.02s WALL (       1 calls)
     hinit0       :      0.02s CPU      0.04s WALL (       1 calls)

     Called by electrons:
     c_bands      :    360.39s CPU    388.09s WALL (       1 calls)
     v_of_rho     :      0.01s CPU      0.01s WALL (       1 calls)

     Called by c_bands:
     init_us_2    :      0.00s CPU      0.00s WALL (       3 calls)
     init_us_2:cp :      0.00s CPU      0.00s WALL (       3 calls)
     cegterg      :    352.71s CPU    379.92s WALL (       3 calls)

     Called by *egterg:
     cdiaghg      :    332.95s CPU    359.92s WALL (      40 calls)
     h_psi        :      6.37s CPU      6.55s WALL (      43 calls)
     g_psi        :      0.04s CPU      0.04s WALL (      37 calls)

     Called by h_psi:
     h_psi:calbec :      0.09s CPU      0.10s WALL (      43 calls)
     vloc_psi     :      6.18s CPU      6.35s WALL (      43 calls)
     add_vuspsi   :      0.07s CPU      0.07s WALL (      43 calls)

     General routines
     calbec       :      0.09s CPU      0.10s WALL (      43 calls)
     fft          :      0.01s CPU      0.03s WALL (      10 calls)
     fftw         :      5.61s CPU      5.75s WALL (   44382 calls)
 
     Parallel routines
 
     PWSCF        :   6m 0.90s CPU   6m28.81s WALL

 
   This run was terminated on:  20:25:16  18Nov2023            

=------------------------------------------------------------------------------=
   JOB DONE.
=------------------------------------------------------------------------------=
