
     Program PWSCF v.7.1 starts on  5Apr2024 at 14:23:53 

     This program is part of the open-source Quantum ESPRESSO suite
     for quantum simulation of materials; please cite
         "P. Giannozzi et al., J. Phys.:Condens. Matter 21 395502 (2009);
         "P. Giannozzi et al., J. Phys.:Condens. Matter 29 465901 (2017);
         "P. Giannozzi et al., J. Chem. Phys. 152 154105 (2020);
          URL http://www.quantum-espresso.org", 
     in publications or presentations arising from this work. More details at
     http://www.quantum-espresso.org/quote

     Parallel version (MPI), running on    32 processors

     MPI processes distributed on     1 nodes
     239336 MiB available memory on the printing compute node when the environment starts
 
     Reading input from pw_ZrCl2_nscf_k150_E43.in
Warning: card &IONS ignored
Warning: card / ignored
Warning: card &CELL ignored
Warning: card / ignored

     Current dimensions of program PWSCF are:
     Max number of different atomic species (ntypx) = 10
     Max number of k-points (npk) =  40000
     Max angular momentum in pseudopotentials (lmaxx) =  4

     Atomic positions and unit cell read from directory:
     out/ZrCl2.save/
     Atomic positions from file used, from input discarded
 
 
     R & G space division:  proc/nbgrp/npool/nimage =      32
     Subspace diagonalization in iterative solution of the eigenvalue problem:
     one sub-group per band group will be used
     scalapack distributed-memory algorithm (size of sub-group:  5*  5 procs)

 
     Parallelization info
     --------------------
     sticks:   dense  smooth     PW     G-vecs:    dense   smooth      PW
     Min          15      15      4                 1891     1891     298
     Max          16      16      5                 1916     1916     327
     Sum         499     499    151                60875    60875    9995
 
     Using Slab Decomposition
 


     bravais-lattice index     =            4
     lattice parameter (alat)  =       6.4390  a.u.
     unit-cell volume          =    1592.7080 (a.u.)^3
     number of atoms/cell      =            3
     number of atomic types    =            2
     number of electrons       =        26.00
     number of Kohn-Sham states=         1216
     kinetic-energy cutoff     =      43.0000  Ry
     charge density cutoff     =     172.0000  Ry
     Exchange-correlation= PBE
                           (   1   4   3   4   0   0   0)

     celldm(1)=   6.438957  celldm(2)=   0.000000  celldm(3)=   6.889044
     celldm(4)=   0.000000  celldm(5)=   0.000000  celldm(6)=   0.000000

     crystal axes: (cart. coord. in units of alat)
               a(1) = (   1.000000   0.000000   0.000000 )  
               a(2) = (  -0.500000   0.866025   0.000000 )  
               a(3) = (   0.000000   0.000000   6.889044 )  

     reciprocal axes: (cart. coord. in units 2 pi/alat)
               b(1) = (  1.000000  0.577350  0.000000 )  
               b(2) = (  0.000000  1.154701  0.000000 )  
               b(3) = (  0.000000  0.000000  0.145158 )  


     PseudoPot. # 1 for Cl read from file:
     /usr/scratch4/magr4985/FGWC/FGWC/pseudo/SG15/Cl.upf
     MD5 check sum: 0f993535b366f580ecbcdacce103c843
     Pseudo is Norm-conserving, Zval =  7.0
     Generated using ONCVPSP code by D. R. Hamann
     Using radial grid of  602 points,  4 beta functions with: 
                l(1) =   0
                l(2) =   0
                l(3) =   1
                l(4) =   1

     PseudoPot. # 2 for Zr read from file:
     /usr/scratch4/magr4985/FGWC/FGWC/pseudo/SG15/Zr.upf
     MD5 check sum: ee74f20ae918ae65efd70112ea888f9c
     Pseudo is Norm-conserving, Zval = 12.0
     Generated using ONCVPSP code by D. R. Hamann
     Using radial grid of  602 points,  6 beta functions with: 
                l(1) =   0
                l(2) =   0
                l(3) =   1
                l(4) =   1
                l(5) =   2
                l(6) =   2

     atomic species   valence    mass     pseudopotential
        Cl             7.00    35.45300     Cl( 1.00)
        Zr            12.00    91.22400     Zr( 1.00)

     12 Sym. Ops. (no inversion) found



   Cartesian axes

     site n.     atom                  positions (alat units)
         1           Zr  tau(   1) = (   0.5000000   0.2886752   0.0000000  )
         2           Cl  tau(   2) = (   0.0000000   0.5773502   6.3856674  )
         3           Cl  tau(   3) = (   0.0000000   0.5773502   0.5033771  )

     number of k points=    10  Gaussian smearing, width (Ry)=  0.0005
                       cart. coord. in units 2pi/alat
        k(    1) = (   0.0000000   0.0000000   0.0000000), wk =   0.0312500
        k(    2) = (   0.0000000   0.1443376   0.0000000), wk =   0.1875000
        k(    3) = (   0.0000000   0.2886751   0.0000000), wk =   0.1875000
        k(    4) = (   0.0000000   0.4330127   0.0000000), wk =   0.1875000
        k(    5) = (   0.0000000  -0.5773503   0.0000000), wk =   0.0937500
        k(    6) = (   0.1250000   0.2165064   0.0000000), wk =   0.1875000
        k(    7) = (   0.1250000   0.3608439   0.0000000), wk =   0.3750000
        k(    8) = (   0.1250000   0.5051815   0.0000000), wk =   0.3750000
        k(    9) = (   0.2500000   0.4330127   0.0000000), wk =   0.1875000
        k(   10) = (   0.2500000   0.5773503   0.0000000), wk =   0.1875000

     Dense  grid:    60875 G-vectors     FFT dimensions: (  27,  27, 192)

     Estimated max dynamical RAM per process >      93.87 MB

     Estimated total dynamical RAM >       2.93 GB

     The potential is recalculated from file :
     out/ZrCl2.save/charge-density

     Starting wfcs are random

     Band Structure Calculation
     Davidson diagonalization with overlap

     ethr =  5.00E-06,  avg # of iterations = 11.2

     total cpu time spent up to now is      236.2 secs

     End of band structure calculation

          k = 0.0000 0.0000 0.0000 (  7629 PWs)   bands (ev):

   -50.0008 -28.2632 -27.7812 -27.7812 -18.1005 -17.5137  -7.4780  -5.4681
    -4.8934  -4.8934  -4.6537  -4.6537  -0.8825   0.8419   0.8419   1.6970
     1.6970   1.9824   3.2257   3.4327   3.9805   4.4331   5.2480   5.4595
     6.6627   7.6485   9.0773   9.0773   9.2798   9.5682  10.3589  10.7065
    10.7065  12.3919  12.6193  12.9585  13.6074  13.6074  13.9805  13.9805
    15.6211  15.8281  16.5361  17.1259  19.2782  19.2782  19.7721  20.0263
    20.0263  20.3062  20.3772  20.5229  20.5229  20.5834  20.5834  20.8150
    20.8304  20.9855  20.9855  21.0237  21.1429  21.1758  21.1758  21.3869
    21.5691  21.5691  21.6705  21.8075  21.8075  21.8277  21.8277  22.0544
    22.5294  22.5649  22.5649  22.8719  23.1592  23.1592  23.2864  23.2864
    23.3550  23.6886  23.6886  24.0489  24.0787  24.4463  24.4463  24.6779
    25.2423  25.2423  25.2546  25.3274  25.3274  25.6477  25.9069  26.2074
    26.2074  26.4829  26.4829  26.8890  26.9575  27.6241  27.6241  27.6911
    27.9184  27.9184  28.5800  29.0594  29.0817  29.0817  29.2790  29.2790
    29.9271  29.9441  29.9441  30.1641  30.9299  30.9299  31.1539  31.2017
    31.6571  31.6571  32.1762  32.2205  32.5724  32.5724  32.8408  32.8408
    33.1431  33.1444  33.9466  34.0068  34.0068  34.7048  34.7048  35.3976
    35.6017  35.6017  35.7437  35.8947  35.8947  36.2428  37.1025  37.1025
    37.4557  37.7101  37.9615  37.9615  37.9638  37.9638  38.7598  39.2985
    39.2985  40.0129  40.0491  40.0491  40.2274  40.7108  41.1976  41.5132
    41.5132  42.8222  42.8222  43.1141  43.3423  43.3423  43.5252  43.5594
    44.0614  44.8419  44.8419  45.2462  45.4935  45.9109  45.9109  46.2971
    46.4707  46.4707  46.7845  47.4884  47.7349  47.7349  48.1690  48.1690
    48.4883  49.3087  49.3087  49.3931  49.8596  49.8596  50.0413  50.1779
    50.1779  51.2019  51.2409  51.4144  51.6846  51.6846  51.8462  52.5570
    52.5570  52.8105  53.1234  53.1234  53.4387  54.0720  54.1059  54.1059
    54.1076  54.1076  54.2482  54.8370  54.8370  54.9612  55.3374  55.3374
    55.4681  55.5207  55.5637  55.5637  55.5644  55.5944  55.6182  55.6182
    55.7995  55.7995  55.8304  55.8304  55.8934  55.8934  55.9634  56.2141
    56.2141  56.2443  56.6015  56.6785  56.7377  56.7707  56.7990  56.7990
    56.9711  57.0526  57.0526  57.2482  57.2482  57.2703  57.2703  57.7130
    57.8233  57.8233  58.5211  58.5211  58.5336  58.5336  58.6614  58.6967
    58.7190  58.7847  59.0489  59.0489  59.1726  59.3449  59.3449  59.4156
    59.4156  59.5106  59.8270  60.2637  60.2637  60.4088  60.4088  60.4122
    61.3381  61.3416  61.5141  61.5141  61.5979  61.5979  61.8182  61.8716
    61.9485  62.2673  62.2673  62.4370  62.4889  62.4889  62.5055  62.5055
    63.3315  63.3315  63.4829  63.4829  63.9635  64.1057  64.1057  64.1617
    64.2524  64.6295  64.6375  64.6595  64.6595  65.0695  65.0695  65.4919
    65.9781  65.9781  66.5599  66.5599  66.5692  66.9980  67.1471  67.1471
    67.4124  67.5437  67.8042  67.8042  68.4219  68.4219  68.4927  68.5147
    68.5594  68.6250  68.9383  68.9383  69.6088  69.6359  69.6359  69.7283
    69.7283  70.0946  70.0946  70.3213  70.3213  70.4666  70.5687  71.1964
    71.1964  71.2497  71.2497  71.4730  71.5130  71.6598  71.6598  71.9921
    71.9921  72.1692  72.5151  72.6059  72.6059  72.6120  72.6120  72.7023
    72.8039  72.8039  72.8564  72.8934  72.9028  72.9349  72.9350  72.9425
    72.9425  73.0813  73.0854  73.4853  73.4853  73.6190  73.6455  73.6455
    73.6865  73.6865  73.7845  73.7845  73.8874  73.8890  73.9713  74.2854
    74.6412  74.7735  74.7735  74.8652  74.8652  75.2188  75.2188  75.3594
    75.3782  75.3782  75.7402  75.7840  75.7899  75.9405  75.9405  75.9619
    75.9753  75.9753  76.0723  76.5193  76.5193  76.6592  76.6592  76.9191
    77.1975  77.1975  77.4764  77.6059  77.6059  77.7820  77.8444  77.8994
    78.0615  78.0615  78.0850  78.0850  78.1801  78.3919  78.3919  78.4163
    78.4163  78.6196  78.6196  78.6402  78.6402  78.6444  78.7314  78.9057
    79.0133  80.4038  80.4038  80.4229  80.4229  80.5206  80.5772  80.5773
    80.7626  80.9087  80.9088  81.5400  81.6286  81.6286  81.6442  81.7167
    81.8237  82.2013  82.2013  82.8218  82.8218  82.9437  82.9437  82.9870
    83.1698  83.4764  83.7656  83.7656  83.8252  83.9745  84.1077  84.3464
    84.3464  84.5534  84.5534  84.8986  84.8986  84.9249  84.9918  85.4320
    85.4320  85.5430  85.5510  85.5510  85.7686  85.8963  86.2348  86.2348
    86.5342  86.5342  86.6559  86.8487  86.8487  87.0292  87.0292  87.2523
    87.4778  87.7891  87.9648  87.9648  88.1444  88.1444  88.8529  88.8807
    88.8807  88.9186  89.4244  89.4244  89.6516  89.6516  89.7876  89.8989
    89.9797  89.9962  89.9962  90.1426  90.1427  90.2436  90.4864  90.8270
    91.1971  91.1971  91.2563  91.7130  91.8124  92.0632  92.0632  92.9590
    92.9590  93.2999  93.2999  93.3206  93.7357  93.7357  93.9527  93.9527
    94.2517  94.2517  94.3983  94.3983  94.4946  94.6219  94.9052  94.9052
    94.9496  95.2175  95.6246  95.6794  95.6794  95.8897  95.8897  96.0567
    96.1112  96.1112  96.1329  96.1329  96.5607  96.5794  96.5794  96.6264
    96.9610  97.2790  97.5416  97.7585  97.7585  98.5991  98.5991  99.3289
    99.6332  99.6912  99.6912  99.7650  99.9226  99.9226 100.1961 100.1961
   100.4971 100.5680 100.8390 101.2985 101.4236 101.4601 101.4601 101.5384
   101.8600 101.8600 101.9497 101.9497 102.4098 102.4098 102.7261 103.0827
   103.0827 103.0901 103.0901 103.5769 103.5769 104.0190 104.3144 104.3196
   104.3196 104.3869 104.4353 104.5348 104.5348 104.7634 104.9516 104.9516
   105.4605 105.4605 105.7290 106.0990 106.0990 106.1631 106.1631 106.2621
   106.5347 106.5347 106.6583 106.8656 106.9558 107.4968 107.4968 107.7266
   107.8414 108.2616 108.2616 108.2942 108.5259 108.5259 109.3234 109.3234
   109.3982 109.3982 109.7255 109.9233 109.9233 110.2535 110.5567 110.5567
   110.8744 111.0122 111.1442 111.1930 111.1930 111.8925 111.9717 112.1999
   112.2109 112.2109 112.4781 112.4781 112.8561 112.9642 112.9642 113.1218
   113.3347 113.3347 113.4860 113.5081 113.5081 113.8748 113.8748 114.2622
   114.3878 114.3879 114.6360 114.7838 114.8670 114.8670 115.0522 115.3025
   115.3025 115.4294 115.4294 115.7383 115.9786 115.9786 116.4492 116.4492
   116.7164 116.7557 116.7557 116.9571 117.2649 117.2649 117.9257 118.1137
   118.2033 118.2033 118.3232 118.3232 118.4252 119.0637 119.0752 119.3932
   119.3932 119.8762 119.8762 119.9080 119.9274 120.2415 120.4866 120.5722
   120.5722 120.6464 120.6464 121.1616 121.1616 121.4414 121.4414 121.4791
   121.6782 121.6990 121.8808 121.8808 122.1205 122.1800 122.1800 122.2935
   122.3889 123.1397 123.1649 123.4618 123.4618 123.6828 123.6829 123.6985
   123.6985 123.8181 123.8181 123.8790 124.1668 124.1668 124.1908 124.2284
   124.2284 124.2548 124.2666 124.4947 124.4947 124.5046 124.5619 124.5620
   124.5943 124.6228 124.6247 124.6247 124.6688 124.6688 124.7023 124.7023
   124.7335 124.7336 124.7377 124.7421 124.7548 124.8845 124.8846 124.8851
   124.8851 124.8922 125.1314 125.1315 125.1923 125.1923 125.2830 125.2830
   125.3017 125.3730 125.4222 125.4222 125.4678 125.5069 125.5448 125.5448
   125.5707 125.7121 125.7121 125.7697 125.7698 125.8124 125.8765 125.9473
   125.9584 125.9585 126.0066 126.1173 126.1173 126.1516 126.1516 126.3897
   126.3898 126.3993 126.3994 126.5673 127.0229 127.0473 127.2407 127.2411
   127.2894 127.2894 127.3710 127.3710 127.4048 127.4374 127.4374 127.4414
   127.4414 127.8235 127.8235 127.8367 127.8367 127.9490 127.9793 128.0880
   128.0881 128.0912 128.0912 128.3098 128.4218 128.5634 128.7509 128.7509
   128.8627 128.8627 128.9515 129.0766 129.0803 129.1865 129.1865 129.1907
   129.1907 129.4190 129.6355 129.6528 129.6528 129.7531 129.8000 129.8000
   129.9546 129.9546 129.9936 130.1014 130.1014 130.1937 130.2030 130.2441
   130.4033 130.4476 130.5598 130.5598 130.5717 130.5717 130.7317 130.7317
   130.8275 130.8321 130.8546 130.8546 131.4119 131.4119 131.7406 132.1651
   132.1651 132.2225 132.2225 132.3461 132.3461 132.5392 132.5947 133.0868
   133.0986 133.1627 133.2299 133.3346 133.3346 133.4880 133.6114 133.6114
   133.7339 133.7339 133.8690 133.8691 134.0644 134.0644 134.0874 134.0907
   134.1317 134.1317 134.5454 134.5454 134.6993 135.0226 135.0226 135.1271
   135.1271 135.1312 135.2167 135.2167 135.2792 135.2792 135.6535 135.6969
   135.6969 135.7148 135.9050 135.9050 136.0175 136.5058 136.5898 136.6373
   136.6466 136.7499 136.7499 136.7893 136.9147 136.9147 137.2220 137.2220
   137.2810 137.2810 137.3476 137.4425 137.4425 137.5326 137.6532 137.6532
   137.8903 137.8903 137.9020 137.9020 137.9661 137.9929 137.9938 138.3997
   138.3997 138.4159 138.4159 138.6161 138.6221 138.6221 138.6405 138.6405
   138.6567 138.7228 138.7229 139.0111 139.0240 139.0652 139.6301 139.6301
   139.6576 139.7476 139.7476 140.0166 140.0977 140.4774 140.4774 140.8359
   141.1192 141.2276 141.2276 141.3641 141.3641 141.5029 141.5171 141.5582
   141.9557 141.9557 141.9571 141.9571 142.2466 142.2466 142.4832 142.4833
   142.5628 142.5709 142.6452 143.1155 143.3953 143.3954 143.4361 143.4361
   143.8431 143.8936 143.8936 143.9819 144.0956 144.0956 144.3140 144.3354
   144.3354 144.3410 144.7125 144.7125 144.7303 145.3263 145.6304 145.6304
   145.6651 145.9266 145.9763 145.9763 146.0871 146.2704 146.2704 146.3527
   146.3527 146.3813 146.6609 146.6609 146.8484 146.8484 146.9281 146.9448
   146.9448 147.0801 147.0801 147.2504 147.6250 147.6479 147.6978 147.6978
   147.7943 147.9206 147.9206 147.9954 147.9955 148.2981 148.3224 148.3927
   148.3927 148.5714 148.5714 148.6105 148.6106 148.6798 148.8936 148.8936
   149.0223 149.0223 149.0460 149.0460 149.1267 149.1303 149.2323 149.3428
   149.9344 149.9344 150.4983 150.4983 150.7305 150.8940 151.0440 151.0440
   151.6068 151.7576 151.7577 151.9639 152.1453 152.2840 152.2840 152.4524
   152.6865 152.6865 152.7590 152.7590 152.8094 152.8094 153.1620 153.1973
   153.2699 153.3521 153.5985 153.5985 154.1465 154.1465 154.3307 154.3307
   154.4211 154.4539 154.6738 154.6738 154.6835 154.6835 154.9192 154.9192
   155.1157 155.4661 155.7357 155.7492 155.7492 156.1259 156.1259 156.2046
   156.4437 156.4523 156.8314 156.8314 156.9068 157.1236 157.1236 157.3565
   157.4489 157.5408 157.5408 157.6456 157.8090 157.8123 157.8123 158.0988
   158.1393 158.1393 158.3441 158.3441 158.6063 158.6069 158.6069 158.6639
   158.9474 159.0581 159.0582 159.0683 159.0683 159.2272 159.2328 159.2329
   159.2449 159.2449 159.2627 159.3483 159.3483 159.3531 159.3793 159.3793
   159.4379 159.4544 159.4544 159.4987 159.5726 159.6399 159.6399 159.6585
   159.6585 159.6972 159.7675 159.7675 159.8373 159.8374 160.1907 160.1908
   160.2036 160.2221 160.2552 160.2933 160.2933 160.3538 160.3670 160.4394
   160.4394 160.4464 160.4464 160.9835 160.9880 161.0526 161.0526 161.0579
   161.0579 161.3021 161.3266 161.3266 161.4020 161.4021 161.6658 161.7560
   161.7560 161.7954 161.7978 162.1056 162.1056 162.2521 162.6259 162.6260
   162.8281 162.8281 162.8584 163.2291 163.2291 163.2814 163.2814 163.5157
   163.8772 164.0157 164.0157 164.2187 164.4612 164.4795 164.4795 164.5630
   164.7571 164.7652 164.7652 164.8446 164.8446 164.8884 165.0475 165.0475
   165.0591 165.0591 165.2790 165.4526 165.4833 165.4834 165.4932 165.4932
   165.9738 166.1221 166.3524 166.3576 166.3618 166.6076 166.6668 166.6668
   166.7177 166.7177 166.7626 166.7626 166.8460 166.8460 166.9685 167.2553

          k = 0.0000 0.1443 0.0000 (  7607 PWs)   bands (ev):

   -49.9939 -28.2433 -27.8575 -27.7970 -17.9848 -17.4877  -7.3028  -5.6276
    -5.4095  -4.9000  -4.8835  -4.8214  -0.9111   0.7200   1.0249   1.6104
     1.9076   2.6528   3.5594   3.7839   4.2947   4.7837   5.7607   5.9159
     6.9247   7.9136   8.0740   9.2405   9.5594   9.7173  10.1022  10.6545
    10.7616  12.0336  12.8596  13.1942  13.3438  13.6005  13.9857  14.4378
    16.0034  16.5442  16.6444  16.8768  17.1083  17.5458  17.5799  17.7666
    18.6085  18.6330  18.6818  18.7591  18.9583  19.2569  19.2983  19.5515
    19.8689  19.9000  20.0670  20.3709  20.5573  20.6965  21.0603  21.2157
    21.4038  21.5117  21.5502  22.2702  22.5786  22.6139  22.6280  22.9037
    23.2650  23.2685  23.5310  23.8006  23.8111  23.8630  23.9189  24.1027
    24.1955  24.2515  24.8360  24.8804  24.8832  25.1803  25.2316  25.3725
    25.6574  25.7036  25.8753  25.9294  26.0545  26.3133  26.3837  26.6305
    26.9771  27.0597  27.1940  27.2213  27.4836  27.5374  27.9345  28.1458
    28.1684  28.5743  29.0536  29.0575  29.1423  29.2990  29.6161  29.7135
    29.7159  29.9904  30.3976  30.7550  30.9402  30.9778  31.0488  31.3277
    31.5860  32.0562  32.1337  32.2387  32.7140  32.8943  33.0626  33.2926
    33.6221  33.7984  33.8987  34.1514  34.5943  34.9481  34.9607  35.3239
    35.4544  35.8596  36.3364  36.3824  36.4282  36.9898  37.4509  37.6401
    37.8015  37.8150  37.9245  38.5728  38.6656  39.1989  39.2247  39.3704
    39.9893  40.0692  40.4691  40.6163  40.9241  41.4323  41.5237  41.9280
    41.9401  42.4909  42.6321  42.7181  42.9538  43.6478  43.8762  44.1410
    44.1622  44.3008  44.8603  44.9353  45.1525  45.5315  45.5884  45.7151
    46.0705  46.3748  46.5606  47.2644  47.6597  47.6946  47.7901  47.8292
    48.0049  48.4102  48.6415  48.7567  49.0018  49.1144  49.2528  49.4848
    49.5778  49.5862  49.6598  49.9217  50.2841  50.4445  50.6103  50.6761
    51.1281  51.1505  51.3142  51.4189  51.4640  51.6192  51.6818  51.9594
    52.3390  52.4371  52.4657  52.7593  53.0642  53.2099  53.3033  53.3081
    53.3299  53.7494  53.9362  54.0146  54.1745  54.2438  55.0725  55.2180
    55.2706  55.4726  55.5377  55.6007  55.7109  55.7656  55.8051  56.0213
    56.0234  56.2056  56.3571  56.4375  56.6959  56.7467  56.7857  57.1023
    57.2417  57.4705  57.6095  57.7005  57.8491  57.9517  57.9560  58.4215
    58.5039  58.5065  58.6601  58.9921  59.0337  59.1521  59.4484  59.6211
    59.7960  59.8575  60.0290  60.0392  60.1728  60.2512  60.2806  60.8078
    60.8414  61.0160  61.0243  61.4906  61.5719  61.8275  61.8576  61.9967
    62.2651  62.2717  62.2901  62.3078  62.4276  62.5562  62.5782  62.7226
    62.8587  62.8588  63.0966  63.3127  63.3160  63.3670  63.8664  63.9388
    64.0014  64.0238  64.0972  64.1245  64.3892  64.4820  64.6202  64.7305
    64.8829  65.0455  65.2995  65.3505  65.4198  65.5938  65.7187  65.8003
    65.9507  66.0527  66.0680  66.1414  66.3790  66.6247  66.7015  66.7188
    66.8177  66.9907  67.1820  67.2027  67.4557  67.5601  67.6496  67.6818
    67.7360  67.8816  68.0615  68.1676  68.3628  68.4077  68.4662  68.5471
    68.6694  68.7661  68.7790  68.8301  69.0830  69.1700  69.3889  69.4884
    69.4923  69.6435  69.7156  69.8146  69.8272  70.2408  70.3091  70.5616
    70.6621  70.7683  70.8325  70.9630  71.2751  71.3339  71.4114  71.6844
    71.7147  71.7285  71.7799  71.8127  72.1881  72.4419  72.4587  72.6369
    72.9160  72.9384  73.0295  73.1531  73.2056  73.4793  73.6797  73.8298
    73.9610  74.1026  74.1501  74.3760  74.4281  74.6801  74.7601  74.8403
    74.8776  74.9627  75.3014  75.5359  75.5988  75.6958  75.9255  75.9273
    75.9852  76.3174  76.4379  76.4459  76.5392  76.8505  76.8858  76.9610
    77.0152  77.3134  77.3172  77.3439  77.4149  77.4752  77.5232  77.6059
    77.6709  77.8181  78.0636  78.2803  78.3005  78.3762  78.4429  78.5885
    78.6344  78.9158  78.9567  79.1917  79.3298  79.4126  79.7829  79.8065
    79.8703  80.0658  80.0746  80.1022  80.2303  80.3887  80.5444  80.5840
    80.7507  80.7711  80.9486  80.9931  81.2188  81.5403  81.6558  81.6686
    81.7603  81.8022  82.0066  82.0829  82.1046  82.3019  82.3556  82.5463
    82.5998  82.6051  82.8807  83.0318  83.1085  83.2900  83.5609  83.5787
    83.7097  83.7905  83.9101  83.9790  84.0896  84.1523  84.2573  84.3793
    84.4575  84.5418  84.9548  85.0157  85.1856  85.1934  85.3147  85.4254
    85.6242  85.6470  85.9276  86.0140  86.0291  86.3354  86.4452  86.6667
    87.1257  87.1933  87.2287  87.3610  87.4634  87.5525  87.9758  88.0117
    88.1350  88.3997  88.6561  88.6995  88.7452  88.8446  88.9363  89.1207
    89.4459  89.5002  89.6017  89.7002  89.8501  89.8547  90.3397  90.4340
    90.4440  90.5904  90.6052  90.6091  90.7474  90.8100  90.8912  90.9404
    90.9929  91.4249  91.5378  91.7337  92.1536  92.2600  92.4261  92.5484
    92.8076  93.0030  93.0970  93.2790  93.5220  93.5284  93.5715  93.9558
    94.0852  94.2506  94.2693  94.2817  94.6692  94.8884  95.2312  95.4055
    95.4996  95.5666  95.7141  95.7819  96.2712  96.3063  96.6024  96.6155
    96.6642  97.1000  97.1766  97.2483  97.2531  97.5433  97.5891  97.6972
    97.7463  97.9319  97.9947  98.0203  98.5415  98.6754  98.7268  99.0092
    99.2121  99.3266  99.3926  99.6270  99.9446  99.9487 100.0179 100.1028
   100.6725 100.7677 100.8578 101.0510 101.2059 101.3430 101.4822 101.5457
   101.7545 101.7881 101.9029 102.2685 102.3454 102.5845 102.7585 102.9386
   103.0866 103.1892 103.3944 103.5441 103.5529 103.7563 104.0444 104.4151
   104.4334 104.4723 104.6720 104.9621 104.9703 104.9747 105.0405 105.2511
   105.3512 105.7972 105.8112 105.8804 106.0268 106.1777 106.2137 106.6996
   106.9402 106.9462 107.0683 107.1768 107.6050 107.6080 107.6988 107.8530
   108.0854 108.0930 108.0931 108.5429 108.7077 108.9161 109.0703 109.0962
   109.1520 109.4501 109.6395 109.6482 110.0249 110.1546 110.1823 110.4413
   110.4753 110.8543 110.8908 110.9672 111.1373 111.2734 111.3912 111.5340
   111.7714 111.7953 111.9106 111.9143 112.1782 112.5339 112.6243 112.6745
   112.7835 113.1628 113.2341 113.2885 113.3672 113.8975 113.9498 114.0777
   114.1158 114.1371 114.2296 114.2975 114.4677 114.5172 114.6676 114.9171
   114.9412 115.0635 115.1275 115.1649 115.2162 115.2960 115.4764 115.6192
   115.6413 115.7298 115.7774 116.0258 116.0493 116.0570 116.0861 116.3450
   116.3522 116.4023 116.4558 116.6366 116.6910 116.9363 116.9662 116.9834
   117.0220 117.0954 117.1503 117.2197 117.3168 117.5937 117.6056 117.6526
   117.6680 117.7845 118.0618 118.1460 118.4239 118.4397 118.4909 118.7593
   118.8661 118.8859 119.0305 119.1222 119.2434 119.2651 119.3362 119.5678
   119.6081 119.7473 119.8264 119.9105 119.9543 119.9992 120.2447 120.2707
   120.3580 120.5501 120.5934 120.7885 120.8223 121.1316 121.1710 121.1945
   121.4253 121.5659 121.5854 121.8226 121.8396 121.9871 122.1621 122.2704
   122.2849 122.4345 122.5375 122.6547 122.6735 122.7457 122.8195 122.8286
   122.9287 123.1045 123.1143 123.1989 123.2041 123.4511 123.5123 123.5382
   123.6734 123.7008 123.7799 123.8507 123.8524 124.1192 124.2709 124.3079
   124.4068 124.4884 124.7716 124.8253 125.0588 125.0858 125.0970 125.1843
   125.2885 125.3087 125.5823 125.6642 125.7637 125.8617 125.9004 126.0394
   126.0815 126.0874 126.2886 126.2935 126.5474 126.6929 126.8626 126.8687
   126.9581 126.9875 127.0493 127.1238 127.1323 127.1991 127.3518 127.3994
   127.4558 127.5769 127.6462 127.6551 127.7044 127.8769 127.9171 128.1488
   128.1505 128.2031 128.2281 128.3969 128.4306 128.5106 128.6408 128.6581
   128.6789 128.6816 128.8995 128.9504 129.0818 129.3829 129.4749 129.6913
   129.7126 129.7327 129.9381 129.9529 130.1739 130.3121 130.3410 130.4156
   130.5031 130.5753 130.6054 130.6497 130.7682 130.9115 130.9875 131.1308
   131.2813 131.3097 131.3745 131.5122 131.5452 131.8026 131.8304 131.8419
   131.9492 132.1168 132.1822 132.2149 132.5820 132.6122 132.6127 132.8493
   132.9015 132.9983 133.0222 133.0881 133.1648 133.1711 133.3294 133.3995
   133.4201 133.4281 133.5008 133.5559 133.5615 133.7526 133.9299 134.0166
   134.0621 134.1445 134.1698 134.3319 134.3464 134.3885 134.5694 134.7402
   134.7499 134.7795 134.7921 134.8510 135.0242 135.0450 135.1958 135.3687
   135.5187 135.5790 135.5935 135.6750 135.7119 135.8072 135.8105 135.8854
   135.9905 136.0331 136.1918 136.2077 136.2531 136.2550 136.3525 136.4777
   136.5111 136.5418 136.5471 136.8649 136.9148 136.9654 136.9923 137.1319
   137.2416 137.2507 137.3515 137.4273 137.5606 137.6675 137.7057 137.7388
   137.9904 138.0251 138.0850 138.1671 138.1907 138.2650 138.5753 138.6228
   138.6797 138.7651 138.8715 138.8949 139.0110 139.0248 139.2892 139.3672
   139.4548 139.6244 139.6259 139.7004 139.7819 139.8023 139.8824 140.0736
   140.0777 140.2667 140.3328 140.7156 140.7289 140.7772 140.7785 140.9478
   141.1080 141.1533 141.1937 141.2771 141.3083 141.3970 141.4200 141.4963
   141.5237 141.5889 141.8227 141.9774 142.2550 142.2747 142.3181 142.3488
   142.4626 142.4707 142.7992 142.8178 142.8908 143.0662 143.2138 143.2420
   143.2451 143.2492 143.4782 143.5142 143.5939 143.7397 144.0051 144.0798
   144.1644 144.1922 144.2913 144.3033 144.5144 144.6038 144.7418 144.8634
   145.0569 145.0615 145.0636 145.1221 145.3338 145.4204 145.5343 145.6379
   145.7452 145.9322 145.9623 145.9945 146.0282 146.0315 146.2629 146.3509
   146.3647 146.4380 146.5938 146.6405 146.6700 146.7986 146.8798 146.8908
   147.1504 147.4042 147.4685 147.4768 147.5904 147.6628 147.8450 148.1775
   148.2041 148.2184 148.4131 148.4674 148.5485 148.6794 148.7038 148.7233
   148.8489 148.8812 148.8950 149.0425 149.2223 149.4050 149.5387 149.5780
   149.7157 149.7363 150.0127 150.0156 150.1637 150.1910 150.3065 150.3991
   150.5801 150.6833 150.6861 150.8310 150.8794 150.8900 150.9472 151.1014
   151.1423 151.2432 151.3419 151.4768 151.5745 151.6489 151.6616 151.8310
   151.8910 151.9623 152.0064 152.0698 152.2098 152.3072 152.3146 152.5800
   152.6267 152.8269 152.8536 152.8564 152.9395 152.9634 152.9685 153.0998
   153.1484 153.1900 153.3213 153.5682 153.5779 153.6269 153.8082 153.8870
   153.8894 154.2414 154.3114 154.3600 154.5442 154.6767 154.6983 154.7152
   154.7776 154.9424 155.0136 155.0832 155.1084 155.2568 155.2614 155.3073
   155.3771 155.4949 155.6994 155.7941 155.8898 155.9584 156.2088 156.3456
   156.3482 156.3634 156.5313 156.5489 156.5855 156.6281 156.8658 156.9048
   156.9191 157.0141 157.1628 157.4017 157.4984 157.5327 157.5978 157.6888
   157.8694 157.9632 158.1695 158.1850 158.2321 158.3984 158.4450 158.4510
   158.4664 158.5496 158.5773 158.8202 158.9078 159.0580 159.1317 159.1613
   159.5633 159.5843 159.8533 159.9430 160.1079 160.2484 160.2504 160.6158
   160.6546 160.7148 160.8218 160.9115 161.1111 161.1423 161.1907 161.2719
   161.3096 161.4305 161.5240 161.6711 161.7191 161.8250 161.8293 162.1466
   162.1685 162.3048 162.3902 162.5582 162.7387 162.8538 162.8734 162.9873
   163.0068 163.1022 163.2170 163.4318 163.5457 163.5487 163.6776 163.6822
   163.7389 163.7445 163.9177 163.9573 164.0165 164.1936 164.2508 164.3226
   164.4042 164.4735 164.7011 164.9153 164.9561 164.9703 165.0424 165.1738
   165.4031 165.4924 165.5018 165.6186 165.6518 165.8113 165.8359 165.8573
   165.9319 166.0660 166.0773 166.1851 166.2451 166.3615 166.3982 166.5412
   166.7345 166.8352 167.0160 167.1621 167.1631 167.3337 167.3540 167.7044
   167.7473 167.7497 167.8292 167.9365 168.1675 168.2554 168.2867 168.3360

          k = 0.0000 0.2887 0.0000 (  7558 PWs)   bands (ev):

   -49.9772 -28.1950 -28.0365 -27.8349 -17.6995 -17.4224  -6.9429  -6.3659
    -6.1635  -5.2614  -5.1810  -4.8830  -1.1627   1.0141   1.6209   1.7294
     2.3238   3.7846   4.3426   4.6838   5.1353   5.5907   6.4604   7.0777
     7.4276   7.4330   8.6397   8.7149   9.7278  10.1862  10.6295  11.0328
    11.0605  11.2112  12.2099  12.2912  13.2314  13.3296  13.6796  13.9027
    14.4741  14.6494  14.7726  15.4068  16.0638  16.7125  16.8674  17.1784
    17.2128  17.3067  17.5531  17.7024  17.8761  17.9093  17.9993  18.4693
    18.6806  18.9409  18.9910  19.1538  19.5800  20.0266  20.2360  20.3679
    20.4729  20.6884  20.8020  21.6115  21.6867  22.0393  22.2276  22.5278
    22.6760  23.1971  23.5857  23.7000  24.2120  24.2245  24.8280  24.8624
    25.1501  25.2853  25.4052  25.6032  26.0421  26.0643  26.3317  26.4369
    26.5464  26.5981  26.8046  27.0157  27.1138  27.1983  27.2963  27.3988
    27.5469  28.1588  28.4570  28.4586  28.4835  29.2977  29.3792  29.6625
    29.6872  29.7021  29.9231  30.1276  30.2101  30.5364  30.7399  31.0263
    31.0582  31.1533  31.5331  31.5343  31.9608  31.9835  32.0864  32.6143
    32.7619  33.0539  33.1686  33.5940  33.6593  33.8637  34.1976  34.2267
    34.3698  34.7065  35.0700  35.2087  35.6869  36.0220  36.3205  36.4740
    36.7398  36.8539  37.0427  37.2963  37.4973  37.7557  37.8115  38.0555
    38.2022  38.6231  38.7900  39.2140  39.4807  39.5149  39.9384  40.1864
    40.2969  40.3698  40.4847  41.0651  41.0790  41.0885  41.1611  41.8661
    42.0620  42.4898  42.5404  42.9920  43.1212  43.1942  43.5157  43.7179
    43.7358  43.8245  43.9163  44.1444  44.1943  44.4710  44.5379  44.5536
    44.9509  44.9963  45.1023  45.1976  45.3947  45.4739  45.8136  45.8966
    46.0174  46.2636  46.5118  46.5629  46.9520  47.2231  47.4957  47.6006
    47.6438  47.9649  48.2346  48.2871  48.6633  48.8744  48.8768  49.0305
    49.1972  49.5699  49.7232  49.8537  49.8764  50.2720  50.7684  50.9258
    51.1885  51.3351  51.6977  51.7599  52.2818  52.3950  52.4571  52.8193
    52.9636  52.9869  53.0318  53.4461  53.6370  53.7071  53.9421  54.1774
    54.4153  54.4327  54.5217  55.0993  55.2231  55.2662  55.4865  55.5970
    55.9394  56.1099  56.1257  56.2532  56.3677  56.5355  56.6391  56.6658
    56.7837  56.9536  56.9985  57.1020  57.1185  57.2371  57.4154  57.5126
    57.6971  57.9534  58.2165  58.3391  58.3406  58.5118  58.6529  58.8428
    58.8798  59.1950  59.4764  59.5133  59.5634  59.7858  59.9229  60.1131
    60.2407  60.3073  60.4140  60.4619  60.7427  60.9488  60.9505  61.1470
    61.1997  61.5897  61.6775  61.7978  62.1195  62.1610  62.2409  62.4681
    62.6520  62.8096  62.9536  63.3833  63.4159  63.7167  63.7179  63.9453
    64.0468  64.2153  64.5553  64.5929  64.8737  64.9290  65.0527  65.2312
    65.2800  65.3537  65.3694  65.4829  65.6661  65.6735  65.7880  65.9998
    66.0874  66.1893  66.3449  66.4824  66.4883  66.5315  66.7428  66.7495
    66.8774  67.3012  67.3346  67.5369  67.5608  67.7975  67.9066  67.9565
    67.9811  68.0431  68.1594  68.4130  68.5908  68.6334  68.8708  68.9334
    68.9711  69.2343  69.2778  69.2898  69.6408  69.6780  69.6804  69.7592
    69.8064  69.9545  70.0904  70.1600  70.4192  70.4403  70.6476  70.7066
    70.7615  70.8052  70.8498  71.1551  71.2416  71.3053  71.4429  71.4525
    71.5221  71.5804  71.9831  72.2397  72.2571  72.5787  72.6520  72.8359
    72.9249  73.1042  73.2596  73.3375  73.4356  73.4540  73.5416  73.6812
    73.6987  74.0372  74.2039  74.6114  74.6189  74.6326  74.6588  74.8333
    75.3433  75.3532  75.3727  75.5065  75.5069  75.8334  75.8749  76.2009
    76.3191  76.3464  76.7626  76.8078  76.9577  76.9685  77.1930  77.4999
    77.5138  77.5434  77.7376  77.8212  78.2518  78.4443  78.4701  78.4829
    78.6241  78.7209  78.9601  79.0561  79.1502  79.3949  79.6980  79.8544
    79.8858  79.9759  80.2313  80.4036  80.6487  80.7017  80.8927  81.1466
    81.1558  81.3298  81.4936  81.5594  81.7115  81.7646  81.8339  82.1923
    82.2676  82.2697  82.3611  82.5272  82.5478  82.7187  82.7320  82.7824
    82.8691  82.9544  82.9810  83.3092  83.3718  83.6149  83.6586  83.6729
    83.8398  83.8898  84.2051  84.2570  84.4576  84.5219  84.5923  84.6113
    84.9658  85.0620  85.3019  85.4025  85.4326  85.5077  85.8633  86.0236
    86.0491  86.1040  86.3324  86.6440  86.6575  86.6590  86.8767  87.2142
    87.2740  87.3006  87.6269  87.6706  87.6894  87.9734  88.0909  88.2296
    88.3468  88.4426  88.6772  88.8194  88.8728  89.2446  89.3327  89.3640
    89.6916  89.9140  90.0396  90.2054  90.2499  90.3592  90.4261  90.6972
    90.8079  90.8307  91.0902  91.1010  91.1259  91.3181  91.3215  91.4503
    91.7157  91.8459  91.8909  92.0024  92.0134  92.0520  92.2418  92.2948
    92.3324  92.4102  92.5023  92.6418  92.6430  93.1480  93.1997  93.2908
    93.3311  93.6197  93.9035  94.2067  94.3532  94.3682  94.3686  94.5962
    94.7940  95.1282  95.3146  95.7398  95.8007  95.8038  95.8718  96.1390
    96.1992  96.3941  96.4550  96.5363  96.6789  97.0367  97.0791  97.3161
    97.3768  97.6206  97.7128  97.8292  98.0771  98.0949  98.3365  98.3624
    98.3912  98.5917  99.0283  99.0826  99.0850  99.2388  99.3656  99.4245
    99.5318  99.8909  99.9355  99.9685  99.9761 100.1767 100.2189 100.4086
   100.8975 101.1510 101.1520 101.2297 101.2373 101.5086 101.6168 101.6619
   102.0423 102.2394 102.3582 102.3718 102.4961 102.6290 102.7941 103.0724
   103.3569 103.5071 103.5866 103.6240 103.7887 103.9335 104.0112 104.0813
   104.0964 104.1541 104.2600 104.3598 104.4673 104.5779 104.7172 104.7768
   105.0116 105.0504 105.0597 105.2431 105.2510 105.5353 105.5739 105.7693
   105.8006 106.1540 106.2889 106.3647 106.5159 106.6966 106.7597 106.8157
   106.9217 107.0028 107.1057 107.3087 107.5083 107.5294 107.6001 107.6673
   107.8463 107.8892 107.9376 108.1679 108.2959 108.3211 108.3812 108.4980
   108.5553 108.5944 108.7842 108.9104 109.1219 109.1319 109.3124 109.3260
   109.3627 109.6048 109.6416 109.6949 109.7381 109.7993 109.8819 109.9162
   110.0908 110.2434 110.4034 110.4411 110.4668 110.5988 110.7813 110.8053
   110.8774 110.9760 111.2347 111.2457 111.2832 111.4458 111.6518 111.7434
   111.8051 111.8316 111.8763 112.2098 112.3356 112.4077 112.5599 112.6493
   112.7514 112.8927 112.9166 113.1055 113.2095 113.5206 113.6126 113.7489
   113.8564 113.9506 114.0454 114.1255 114.2530 114.3725 114.5562 114.6039
   114.7108 115.0633 115.1424 115.3497 115.5723 115.7239 115.8189 115.8509
   116.0102 116.1784 116.3098 116.3610 116.5513 116.8330 116.8482 117.0365
   117.0441 117.0534 117.2314 117.2909 117.4054 117.6236 117.7288 117.7995
   117.8275 118.1734 118.1923 118.2660 118.2865 118.5322 118.8869 118.9810
   119.0334 119.1536 119.3195 119.3423 119.4190 119.5099 119.6741 119.7709
   119.9944 120.0725 120.1707 120.2334 120.2682 120.5009 120.5127 120.6807
   120.9458 120.9927 121.0743 121.1669 121.2658 121.2834 121.4460 121.5711
   121.5857 121.7096 121.7417 122.0573 122.0920 122.1393 122.2823 122.3020
   122.3059 122.3517 122.3714 122.4350 122.4938 122.6665 122.8033 122.8468
   122.9835 123.0637 123.3160 123.4564 123.5331 123.8102 123.9405 123.9616
   124.1482 124.2237 124.4121 124.4674 124.6348 124.7538 124.7630 124.9767
   125.0615 125.0720 125.2050 125.2080 125.2926 125.6513 125.7079 125.9584
   126.1999 126.2235 126.3489 126.4362 126.5118 126.5435 126.7744 126.8045
   126.9595 127.0034 127.1889 127.5481 127.5705 127.7463 127.8303 127.9964
   128.2799 128.3308 128.3781 128.5135 128.6180 128.6318 128.6491 128.8283
   128.9345 129.1756 129.1757 129.2759 129.3374 129.4064 129.6016 129.8853
   129.9016 129.9779 129.9830 130.0046 130.1607 130.1875 130.2053 130.2846
   130.2849 130.4008 130.4779 130.5159 130.5985 130.6253 130.6277 130.8271
   130.9151 130.9608 130.9910 131.1878 131.3081 131.3719 131.4740 131.5062
   131.7671 132.0273 132.1387 132.1400 132.1867 132.3082 132.4368 132.5858
   132.6296 132.6966 132.8055 132.9448 132.9953 133.0365 133.1603 133.2145
   133.3126 133.3258 133.5477 133.6358 133.6502 133.7827 134.0111 134.0248
   134.1341 134.2116 134.3120 134.3289 134.4184 134.5677 134.6250 134.8372
   134.8633 135.0216 135.1627 135.2132 135.3401 135.4087 135.4288 135.4881
   135.8197 136.0975 136.1000 136.2277 136.6151 136.7496 136.7890 136.8480
   136.8608 136.8950 137.0534 137.1862 137.2075 137.2131 137.3177 137.4507
   137.4949 137.5543 137.7867 138.0251 138.0368 138.0986 138.5892 138.6017
   138.6035 138.8516 138.9068 138.9128 139.1139 139.2212 139.2418 139.3310
   139.4931 139.5179 139.5844 139.7146 139.7489 139.8656 140.0194 140.0614
   140.0814 140.1827 140.3044 140.6061 140.6206 140.6432 140.8200 140.9056
   141.0080 141.3290 141.4123 141.4563 141.5622 141.6164 141.7610 142.0753
   142.2069 142.2401 142.3479 142.4411 142.4624 142.5009 142.7137 142.7644
   142.8680 142.8929 142.9245 143.0043 143.0958 143.4153 143.4898 143.5069
   143.5726 143.6825 143.7241 143.7291 143.9005 143.9292 144.0642 144.0862
   144.2666 144.3471 144.3786 144.5114 144.6503 144.6747 144.6929 144.8866
   144.8987 144.9821 145.1478 145.2764 145.3686 145.3810 145.4139 145.4428
   145.4631 145.7541 145.7789 145.8032 145.8535 145.9037 146.0169 146.2743
   146.3063 146.4310 146.4764 146.5885 146.6649 146.7711 146.9807 147.0785
   147.1792 147.1972 147.2202 147.2617 147.3360 147.3577 147.3611 147.3939
   147.4338 147.6235 147.6850 147.7039 147.7339 147.8984 147.9775 147.9844
   148.0783 148.0927 148.1739 148.1917 148.3407 148.3702 148.5022 148.5413
   148.5758 148.5910 148.7062 148.7221 148.8130 148.8878 149.0463 149.2117
   149.3419 149.3694 149.4739 149.5237 149.6217 149.6532 149.7416 149.7498
   149.8129 149.9676 149.9896 150.1238 150.1984 150.2467 150.3772 150.4522
   150.4673 150.4680 150.5238 150.6554 150.7893 150.8539 150.8971 150.9553
   151.3294 151.4026 151.4450 151.4955 151.6979 151.7297 151.7388 151.9210
   151.9649 151.9991 152.1130 152.2236 152.2868 152.3596 152.4894 152.5224
   152.5467 152.5760 152.6165 152.6576 152.9056 152.9507 152.9614 153.2919
   153.3350 153.3901 153.4245 153.7026 153.8701 153.9134 154.0006 154.0037
   154.0996 154.2874 154.4920 154.6979 154.7233 154.7398 154.7681 155.0201
   155.0239 155.2824 155.3013 155.4218 155.4902 155.5400 155.6445 155.7544
   155.9529 156.0463 156.0783 156.1652 156.1711 156.2148 156.2492 156.3316
   156.4784 156.6356 156.6396 156.6423 156.9233 156.9442 157.0454 157.1065
   157.1961 157.4044 157.6450 157.7480 157.7749 157.8878 157.9140 157.9538
   158.0287 158.1298 158.2632 158.4000 158.4848 158.5667 158.6195 158.8580
   158.8826 159.2120 159.2692 159.2940 159.3455 159.4304 159.5156 159.6696
   159.6956 159.7798 159.8141 159.9828 160.1600 160.1801 160.3035 160.4994
   160.5307 160.5945 160.6881 160.8212 160.9197 160.9229 161.2612 161.3027
   161.5346 161.7629 161.7658 161.7846 161.8605 162.0289 162.0315 162.1102
   162.2350 162.5020 162.5481 162.7185 162.9329 162.9456 162.9471 163.0529
   163.1870 163.2257 163.4707 163.5668 163.9375 164.0498 164.0989 164.1980
   164.3827 164.4284 164.4320 164.6659 164.6955 164.7265 164.8000 165.0559
   165.1242 165.1764 165.1998 165.3115 165.3668 165.4285 165.6081 165.6244
   165.8081 165.9592 165.9821 166.1327 166.2640 166.6456 166.7258 166.8631
   166.8661 167.0219 167.2310 167.4489 167.4646 167.5420 167.6385 167.7440
   167.8707 167.9800 168.1741 168.2914 168.5014 168.7151 168.7360 169.0301
   169.0304 169.0899 169.1464 169.2097 169.2330 169.5115 169.6606 169.6991

          k = 0.0000 0.4330 0.0000 (  7568 PWs)   bands (ev):

   -49.9604 -28.2096 -28.1461 -27.8725 -17.4026 -17.3536  -7.2930  -6.7894
    -6.4975  -5.4934  -5.4291  -4.9105  -1.3729   1.9062   1.9547   2.5312
     2.6246   4.5558   5.3644   5.4759   6.1966   6.6047   6.8906   6.9923
     8.0840   8.2187   8.9088   9.1856   9.8086   9.9064  10.3535  10.5340
    10.6116  11.0696  11.3942  11.5305  12.1713  12.2391  12.6988  13.2178
    13.4692  13.7876  14.7953  14.9565  15.0825  15.6195  15.9805  15.9946
    16.5459  16.7522  16.9649  16.9940  17.0688  17.4037  17.7784  17.9818
    17.9880  18.0830  18.4695  18.7528  18.8112  19.5032  19.6040  19.9497
    19.9704  20.4535  20.5832  21.1880  21.2192  21.5392  21.6965  21.8289
    21.9215  22.1604  22.9936  23.0477  23.0667  23.3330  24.2415  24.3579
    24.9077  25.0175  25.6387  25.8554  25.8942  26.7694  26.8246  26.8592
    27.4564  27.7209  27.8253  28.1128  28.9659  28.9877  29.0200  29.2869
    29.3917  29.7087  29.7858  29.9879  30.2277  30.2344  30.3628  30.8620
    31.0327  31.0349  31.2430  31.2875  31.5856  31.8982  32.3763  32.3988
    32.4177  32.7639  33.2166  33.3285  33.7233  33.8876  33.9330  34.1483
    34.5109  34.5460  34.7843  34.8910  35.0331  35.3638  35.7706  35.8660
    35.8723  36.2019  36.4651  36.8769  37.0159  37.0697  37.1104  37.1395
    37.3390  37.4263  37.8537  37.9844  38.2027  38.3979  38.4406  38.5508
    38.6830  38.7232  38.7453  38.9155  39.2324  39.3080  39.3711  39.6168
    39.6693  39.8734  39.9888  40.1127  40.1755  40.4110  40.4855  40.6966
    40.7369  40.9263  41.1445  41.3562  41.4472  41.5412  41.6509  42.3458
    42.4501  42.6201  42.8228  42.8337  43.2880  43.3660  43.4252  43.9517
    44.0491  44.0876  44.7883  44.8393  44.8548  45.0805  45.0885  45.3088
    45.4783  45.7337  46.0323  46.3199  46.4182  46.4478  46.9346  47.0734
    47.2238  47.4112  47.5738  47.6924  47.8920  48.4048  48.4132  48.4996
    48.8456  48.8505  48.9371  48.9946  49.3745  49.5824  49.7657  50.0340
    50.1176  50.4640  50.6440  50.6791  50.7078  51.0970  51.5364  51.5543
    51.5986  51.6471  51.9360  52.2246  52.2338  52.3630  52.5392  52.5994
    52.7624  53.2542  53.2676  53.2953  53.5647  53.9431  54.1399  54.5436
    54.9994  55.0712  55.4414  55.4793  55.4799  55.8398  56.0914  56.2263
    56.4305  56.4490  56.7238  57.2484  57.3367  57.4908  57.6384  57.6587
    57.7585  57.9118  57.9912  58.1180  58.1374  58.2655  58.3435  58.5735
    58.6028  58.7160  58.7600  58.8794  59.0198  59.2868  59.3193  59.5828
    59.8138  59.8783  60.1453  60.3712  60.4116  60.4469  60.6483  60.7564
    61.0910  61.3736  61.5234  61.6304  61.7198  61.8292  61.8616  61.9112
    62.0039  62.0728  62.2642  62.3067  62.3513  62.3670  62.7424  62.9029
    62.9350  63.0508  63.0974  63.1805  63.2436  63.6785  63.7108  63.9949
    64.0305  64.1682  64.5400  64.5567  64.5657  64.5838  64.7212  64.8903
    65.3638  65.3939  65.4325  65.6011  65.6672  65.9308  66.1081  66.1327
    66.1882  66.4797  66.5636  66.6407  66.8784  67.1539  67.2533  67.3697
    67.3966  67.5490  67.8921  67.9688  68.3071  68.3306  68.3852  68.6233
    69.0506  69.1447  69.2003  69.4031  69.5262  69.8480  70.0451  70.0495
    70.2394  70.3805  70.4506  70.8895  70.9780  71.0025  71.0179  71.0325
    71.6142  71.8100  71.8603  71.9447  72.0824  72.6046  72.6362  72.6377
    72.6573  72.9606  73.0128  73.3852  73.4505  73.5449  73.5960  74.1896
    74.2682  74.4231  74.4751  74.6249  74.6530  75.0831  75.0962  75.2488
    75.4544  75.5175  75.5629  75.6890  75.9949  76.3013  76.3480  76.6848
    76.7207  76.7417  77.1825  77.2333  77.2811  77.2827  77.3730  77.5413
    77.6608  77.6846  77.7870  78.0579  78.0980  78.1507  78.3915  78.4669
    78.5349  78.7063  78.8889  78.9566  79.0562  79.1235  79.3241  79.3768
    79.5220  79.7823  79.9443  80.3608  80.4799  80.4947  80.5142  80.5224
    81.1126  81.1222  81.2623  81.2874  81.3542  81.5065  81.7668  81.9779
    82.1855  82.2243  82.3699  82.4599  82.8305  82.8815  82.9720  83.2762
    83.2975  83.3038  83.6371  83.6462  83.8617  84.0449  84.1806  84.2175
    84.3852  84.7120  84.9043  85.1897  85.1947  85.2558  85.2654  85.4687
    85.7031  85.7896  86.1043  86.2401  86.2490  86.4385  86.4663  86.8054
    86.8390  86.9438  87.0351  87.0885  87.1894  87.4477  87.6803  87.7985
    87.9295  88.1273  88.1374  88.1553  88.2265  88.3095  88.3164  88.6610
    88.6996  88.8145  88.8810  89.0363  89.2552  89.2836  89.5649  89.7041
    89.7538  89.7890  89.9753  90.0378  90.1018  90.1536  90.2539  90.5765
    90.6475  90.7317  90.9335  90.9522  91.2513  91.4262  91.5564  91.5672
    91.6322  91.7386  91.9109  91.9525  92.0397  92.2555  92.5693  92.6098
    92.7080  92.8972  93.1746  93.1916  93.2640  93.2974  93.6447  93.8629
    93.8745  94.1925  94.2222  94.3583  94.3923  94.4042  94.4752  94.4981
    94.7089  94.7667  94.9764  95.0033  95.0175  95.1964  95.2294  95.3250
    95.4081  95.6072  95.7149  95.7704  95.8847  96.0817  96.2135  96.2463
    96.2528  96.4851  96.7611  96.7789  96.8984  97.0811  97.0863  97.4125
    97.6335  97.6539  97.7039  97.8768  97.9044  97.9218  98.1935  98.2479
    98.5194  98.5209  98.5744  98.7858  98.8733  98.9061  99.0704  99.4059
    99.5309  99.6709  99.7630  99.8380  99.9714 100.0024 100.0980 100.3554
   100.4121 100.4611 100.5723 100.6120 100.8036 100.8446 100.8693 100.9094
   101.0563 101.0918 101.1322 101.2052 101.2608 101.3853 101.4270 101.5698
   101.6383 101.7768 101.8520 102.0499 102.1078 102.1622 102.2681 102.2834
   102.3897 102.4828 102.4882 102.7250 102.7443 102.8205 102.8825 102.9285
   102.9902 103.1885 103.3200 103.4923 103.8496 103.8655 103.9078 103.9264
   103.9602 104.2348 104.2936 104.3154 104.4509 104.5339 104.5532 104.6385
   104.6450 104.7990 105.0286 105.0523 105.1706 105.3248 105.3747 105.7341
   105.7773 105.9180 105.9436 106.0181 106.2642 106.3083 106.3319 106.3848
   106.6657 106.6860 107.1630 107.5023 107.5181 107.6401 107.7075 107.7799
   108.0388 108.0669 108.1809 108.3648 108.5192 108.6935 108.7877 108.9298
   108.9921 109.1663 109.4118 109.5760 109.5762 109.5989 109.7195 109.9131
   109.9764 110.1630 110.1803 110.4510 110.5446 110.6166 110.6423 110.7015
   110.7974 110.9458 111.1748 111.2392 111.2924 111.5209 111.5950 111.8231
   111.8866 112.2453 112.2719 112.2888 112.3244 112.6506 112.8895 112.9889
   113.0527 113.0855 113.1743 113.2664 113.2773 113.2871 113.5341 113.8002
   113.9494 113.9563 113.9978 114.1523 114.1603 114.1921 114.6198 114.6898
   114.8127 114.8564 115.4109 115.7263 115.7591 115.8189 115.8257 116.0596
   116.3068 116.3982 116.5627 116.7221 116.8919 117.0805 117.1148 117.1662
   117.5169 117.5495 117.7604 117.9272 117.9556 118.0805 118.1506 118.3768
   118.3824 118.5694 118.7463 118.7511 118.9355 119.0670 119.2110 119.2227
   119.3398 119.3783 119.4393 119.6604 119.7535 119.9074 119.9535 120.2740
   120.4345 120.4769 120.5972 120.6042 120.6979 120.7272 120.7581 120.8804
   120.9415 120.9509 121.0379 121.2697 121.3684 121.3943 121.6075 121.7107
   121.8012 121.9949 122.1047 122.1354 122.1659 122.2399 122.3780 122.4055
   122.4750 122.5808 122.6123 122.8766 123.0038 123.0117 123.0313 123.0633
   123.1464 123.2631 123.3980 123.4018 123.4784 123.5702 123.6971 123.7294
   123.7724 123.8139 123.9333 123.9967 124.0919 124.1735 124.5644 124.6119
   124.6787 124.8754 125.0629 125.0753 125.0974 125.2929 125.4582 125.5593
   125.6373 125.6943 126.0169 126.0205 126.1200 126.3116 126.4167 126.4445
   126.5075 126.9404 126.9491 127.0381 127.2950 127.3342 127.5259 127.6725
   127.7915 128.0125 128.2680 128.3258 128.3296 128.3386 128.4581 128.5111
   128.9155 129.0365 129.0469 129.2640 129.3226 129.3955 129.5329 129.5840
   129.6102 129.6336 129.8405 129.9121 130.1258 130.1327 130.4579 130.4632
   130.4907 130.6830 130.8596 131.0556 131.0829 131.2513 131.3400 131.5063
   131.6343 131.7124 131.7486 131.7491 131.9594 132.1349 132.1543 132.2305
   132.4861 132.5107 132.6308 132.6802 132.8249 132.9098 133.1164 133.2297
   133.3000 133.4567 133.5558 133.5774 133.5980 133.8298 133.9539 134.0094
   134.0438 134.0745 134.1311 134.1562 134.2929 134.3702 134.4068 134.4644
   134.5438 134.5501 134.7659 134.8294 134.9281 135.0846 135.1646 135.3084
   135.3811 135.4380 135.4971 135.6607 135.8342 136.1215 136.1511 136.2094
   136.5183 136.5348 136.5722 136.6215 136.7386 136.8253 136.9222 137.0021
   137.2497 137.4702 137.6361 137.7626 137.9574 138.2222 138.2454 138.4106
   138.4188 138.6384 138.6449 138.8490 138.9057 138.9768 139.2344 139.2703
   139.3366 139.3545 139.4781 139.5245 139.8264 139.8530 139.8953 140.0693
   140.3816 140.4940 140.5357 140.6650 140.7871 140.8441 140.9647 140.9748
   141.1762 141.5170 141.5522 141.6223 141.7253 141.7732 141.7871 141.8783
   141.8973 141.9527 142.1780 142.1960 142.2053 142.4966 142.5229 142.5383
   142.5869 142.6011 142.7824 142.8993 142.9907 143.0077 143.1662 143.2171
   143.2566 143.2851 143.3770 143.3774 143.5076 143.5126 143.5617 143.5866
   143.7048 143.7929 143.9031 143.9458 143.9693 144.1410 144.4160 144.5433
   144.5686 144.6541 144.6646 144.7613 144.9467 144.9726 145.1254 145.1264
   145.1751 145.4812 145.6072 145.6445 145.6635 145.9460 146.0006 146.0580
   146.0793 146.3893 146.5503 146.6444 146.8264 146.8306 147.0539 147.0991
   147.1264 147.5802 147.6059 147.6342 147.8025 147.8555 147.9887 148.2616
   148.3074 148.3830 148.4185 148.5054 148.7713 148.8614 148.9228 149.1454
   149.1597 149.2502 149.3117 149.5818 149.6375 149.9429 150.0005 150.0184
   150.2364 150.2852 150.3720 150.3820 150.6077 150.6226 150.7012 150.8954
   150.8983 150.9206 150.9319 151.1118 151.1369 151.2267 151.4180 151.4834
   151.6891 151.8516 151.9820 152.0948 152.2291 152.2379 152.2801 152.3376
   152.4695 152.7485 152.8288 152.8469 152.9307 152.9952 153.0103 153.2231
   153.2821 153.3592 153.5353 153.5380 153.6348 153.6869 153.7162 153.9009
   154.0866 154.1086 154.1092 154.1295 154.4188 154.5210 154.5703 154.5986
   154.9611 155.0169 155.0437 155.1320 155.1892 155.3380 155.4393 155.5081
   155.6632 155.7209 155.7419 155.7874 155.8195 156.0053 156.0232 156.0389
   156.0548 156.1538 156.2969 156.3832 156.6987 156.7176 156.7429 156.8850
   157.0580 157.1249 157.1798 157.3603 157.3777 157.6222 157.6968 157.7712
   157.8198 157.9006 158.0197 158.2777 158.2867 158.4479 158.4658 158.5540
   158.7003 158.8305 158.8338 158.9307 159.0191 159.1032 159.1282 159.1519
   159.3019 159.4200 159.4304 159.4538 159.5422 159.5441 159.7775 160.0004
   160.0016 160.1846 160.2971 160.4203 160.5033 160.5938 160.6204 160.6205
   160.7466 161.0460 161.0937 161.2212 161.2990 161.3775 161.5764 161.6110
   161.7113 161.7901 161.8182 161.8663 161.9485 161.9546 162.0400 162.2129
   162.2459 162.3353 162.4085 162.5142 162.5741 162.6088 162.6988 162.8330
   162.9160 162.9217 163.1055 163.1231 163.2809 163.4496 163.6152 163.7986
   163.8600 164.0436 164.0894 164.2220 164.2242 164.3248 164.3800 164.5798
   164.6589 164.9694 164.9940 165.0334 165.1688 165.3646 165.3697 165.5887
   165.6173 165.7203 165.7302 165.7847 165.8101 166.0064 166.0202 166.1081
   166.3482 166.3761 166.4682 166.4854 166.6569 166.6892 166.8703 167.0800
   167.0836 167.3773 167.4990 167.6411 167.7727 167.8124 167.8606 167.8896
   168.0572 168.1127 168.1910 168.2183 168.2466 168.3054 168.3156 168.6478
   168.7121 168.7210 168.8606 168.8818 168.8858 169.1290 169.1379 169.2443
   169.5398 169.5715 169.6769 169.7122 169.8858 170.0274 170.1705 170.2631

          k = 0.0000-0.5774 0.0000 (  7602 PWs)   bands (ev):

   -49.9535 -28.2796 -28.1257 -27.8883 -17.3240 -17.2752  -7.5859  -7.0471
    -6.4055  -5.6123  -5.4743  -4.9286  -1.3968   2.0350   2.5407   2.7195
     3.0741   4.8156   5.2973   6.1974   6.8761   7.2690   7.4623   7.7723
     8.0960   8.3265   8.4584   8.8014   9.0206   9.1408   9.8333   9.8583
    10.0339  10.6458  11.3701  11.7509  12.0916  12.4807  12.8085  13.2118
    13.6442  14.3794  14.6505  14.8953  15.0145  15.0743  15.5599  15.9857
    16.1314  16.5929  16.6256  16.7020  16.7178  16.8510  17.0074  17.6646
    17.8780  17.9299  18.0158  18.2048  19.1555  19.1623  19.3342  19.3618
    19.7890  19.8455  20.2084  20.4638  20.5040  20.8790  21.4922  21.7840
    22.0192  22.0254  22.5843  23.1880  23.5944  23.9022  23.9715  24.6654
    24.8494  24.9831  25.7377  25.9555  26.0298  26.6073  26.6776  27.5181
    27.6240  27.8263  28.3802  28.4736  28.5222  29.2644  29.3003  29.6814
    29.8681  29.9000  31.0662  31.1935  31.3496  31.8379  31.9942  32.1253
    32.2791  32.3956  32.6303  33.0372  33.0771  33.1865  33.4160  33.7833
    33.8740  33.8780  33.8823  33.9791  33.9898  34.2186  34.3739  34.3920
    34.3963  34.5475  34.8416  34.8714  34.8774  35.0308  35.2417  35.6414
    35.8748  35.8801  36.0754  36.1184  36.2054  36.3925  36.5475  36.6654
    37.0142  37.0886  37.2261  37.5543  37.6658  37.9556  38.0950  38.2547
    38.4517  38.5161  38.9316  39.0374  39.2678  39.2821  39.6659  39.9399
    40.0016  40.5164  40.6658  40.8098  40.8467  41.0256  41.1321  41.4218
    41.5157  41.5671  41.6195  41.7199  42.2705  42.3138  42.3804  42.5858
    42.7146  42.7529  42.8373  42.9046  43.0376  43.2419  43.3500  43.4664
    43.5094  43.8050  43.9287  44.3260  44.4102  44.5036  44.6895  44.7264
    44.8335  45.1513  45.3044  45.4709  45.6914  45.8970  46.1196  46.2256
    46.3567  46.5841  46.9349  47.2239  47.4446  47.5713  47.6726  47.6784
    47.9098  47.9533  48.3040  48.3692  48.3814  48.5112  49.0680  49.3364
    49.4734  49.5391  49.5909  49.9698  50.4777  51.1046  51.1157  51.1715
    51.2012  51.2851  51.3136  51.7480  51.8865  52.0029  52.2153  52.2351
    52.5469  52.7898  53.0208  53.0941  53.8008  53.8463  54.2831  54.4979
    54.7141  55.0810  55.1056  55.3381  55.5184  55.7225  55.7932  55.8666
    56.0343  56.2862  56.3835  56.6289  56.8742  57.0463  57.0469  57.4979
    57.6840  57.8015  58.1825  58.4068  58.4407  58.5173  58.6245  59.0255
    59.0258  59.1575  59.3723  59.3953  59.5846  59.6817  59.7285  59.7417
    59.8448  59.9333  59.9913  60.1836  60.2915  60.4902  60.4910  60.5355
    60.5532  60.6318  60.7006  60.8562  61.1618  61.1757  61.3679  61.5541
    61.5554  61.6495  61.6989  61.7486  61.8381  61.9947  62.2375  62.5306
    62.5885  62.8246  63.0944  63.1217  63.1918  63.3734  63.5694  63.7601
    63.7986  63.9919  63.9984  64.0366  64.2903  64.4367  64.4764  64.6855
    64.8344  65.0703  65.0757  65.1595  65.4483  65.4963  65.7023  65.9105
    66.1883  66.2065  66.3108  66.4224  66.8573  66.8714  66.9589  66.9888
    67.1368  67.2208  67.3346  67.4753  67.6142  67.9404  68.0730  68.3280
    68.3999  68.5259  69.0563  69.1693  69.2059  69.2202  69.3408  69.6396
    69.7429  69.8283  70.3585  70.8929  70.9263  70.9320  71.1703  71.1836
    71.5395  71.6258  71.8453  71.9795  72.0123  72.3548  72.4476  72.6653
    72.7805  73.0843  73.1455  73.4115  73.7745  73.7847  73.8045  73.9652
    73.9668  74.0073  74.5577  74.6336  74.6936  74.8348  75.1244  75.2685
    75.5759  75.6758  75.9649  76.0193  76.0441  76.4102  76.5684  76.9704
    77.0372  77.2836  77.3115  77.3346  77.3719  77.6440  77.6647  77.7781
    78.6034  79.2436  79.2575  79.2764  79.6743  79.7701  80.0146  80.0446
    80.0493  80.1131  80.1140  80.4115  80.4693  80.5595  80.5675  80.6159
    81.1716  81.4846  81.5940  81.8056  81.9116  81.9614  81.9887  82.0249
    82.5894  82.7208  82.7554  82.8237  82.8475  83.1581  83.3370  83.4432
    83.4447  83.4854  83.6999  84.1801  84.3738  84.3982  84.6112  84.6670
    84.7484  85.3256  85.3485  85.4038  85.4079  85.5835  85.6994  85.7531
    85.7879  85.7902  85.8717  85.9340  85.9390  85.9817  85.9851  86.5499
    86.5557  86.6628  86.6853  86.6979  86.8067  86.8220  87.0044  87.1837
    87.1918  87.5568  87.7866  87.8999  87.9466  87.9947  88.1602  88.2179
    88.4137  88.4492  88.5534  88.6110  88.8478  88.9954  89.2526  89.2919
    89.3212  89.3716  89.5290  89.5325  89.6826  89.7406  89.7649  89.8248
    90.0387  90.0735  90.1947  90.6081  90.6517  90.8083  90.8315  91.0492
    91.1320  91.2968  91.4128  91.5793  91.6191  91.6399  91.6600  91.6700
    91.7140  91.8182  92.1004  92.3002  92.3792  92.4885  92.5119  92.7806
    92.8170  92.9298  92.9515  93.0853  93.4327  93.4911  93.5273  93.6779
    93.6787  93.7615  94.0098  94.2666  94.3462  94.3715  94.4292  94.4498
    94.4778  94.5044  94.5194  94.5987  94.6326  94.6351  94.6986  94.9233
    95.0333  95.1677  95.3021  95.3210  95.3735  95.4494  95.5040  95.5494
    95.6150  95.6505  95.8294  95.9384  96.2655  96.2745  96.3225  96.3635
    96.3841  96.4689  96.5876  96.7937  96.8069  97.1499  97.3473  97.4272
    97.5320  97.6450  97.6755  97.7440  97.8456  97.8514  98.1251  98.2456
    98.2544  98.6400  98.7009  98.7849  98.8869  98.9640  99.1327  99.1998
    99.2261  99.2946  99.3836  99.4937  99.6366  99.6952  99.7001  99.7034
    99.8932  99.9778 100.0351 100.0741 100.1183 100.2478 100.4556 100.4683
   100.6612 100.7084 100.8660 100.9776 101.2247 101.2514 101.3667 101.3885
   101.3905 101.5101 101.9736 102.0563 102.3765 102.3819 102.4353 102.5448
   102.6635 102.6782 102.7156 103.2128 103.2437 103.3826 103.4118 103.5804
   103.6098 103.8243 103.9798 104.1741 104.5318 104.6152 104.7302 104.8009
   105.1495 105.1778 105.3811 105.3990 105.5291 105.7944 106.2568 106.2600
   106.3302 106.6224 106.6329 106.8715 106.9773 107.2124 107.3962 107.4373
   107.5253 107.5393 107.6313 107.7968 107.8063 108.1584 108.2306 108.2849
   108.3001 108.5068 108.6080 108.6487 108.7209 108.7521 108.9018 108.9172
   108.9485 109.0890 109.4662 109.6403 109.7090 109.8113 109.8836 110.2662
   110.3042 110.3577 110.3958 110.4977 110.5070 110.7187 111.0390 111.1302
   111.2316 111.3197 111.4971 111.5173 111.6787 111.6886 111.8587 111.9335
   112.1037 112.1155 112.4558 112.5109 112.6773 112.7006 112.7072 112.7715
   112.8662 112.9942 113.0006 113.1609 113.2612 113.2798 113.2870 113.4696
   113.5842 113.8200 113.9594 114.1740 114.3641 114.3867 114.4290 114.8105
   114.8692 114.9980 115.0361 115.1224 115.1467 115.2752 115.5239 115.6597
   115.7159 115.8800 115.9045 116.1180 116.2988 116.4079 116.4699 116.5886
   116.6729 116.9535 117.0988 117.0991 117.1112 117.3033 117.3455 117.3998
   117.4316 117.4927 117.5280 117.5386 117.8053 117.9579 118.0847 118.4419
   118.6053 118.6430 118.7448 118.9964 119.0368 119.2155 119.3952 119.4717
   119.5535 119.6068 119.7623 119.8432 120.0011 120.1694 120.1739 120.1779
   120.2423 120.3463 120.4748 120.4901 120.4993 120.5759 120.6132 120.7036
   120.9379 120.9519 120.9631 121.1585 121.2645 121.3085 121.3490 121.6588
   121.7006 121.7016 121.7427 122.2873 122.2904 122.3505 122.3798 122.5750
   122.7158 122.7308 123.1373 123.1574 123.3226 123.3781 123.5027 123.5451
   123.5866 123.6323 123.7894 123.9047 123.9110 123.9411 123.9629 124.1756
   124.2390 124.5800 124.6203 124.6441 124.7872 124.9816 125.2068 125.5833
   125.6270 125.7522 125.8186 125.8554 125.9733 126.0976 126.2752 126.2874
   126.3149 126.4949 126.5651 126.5896 126.6855 126.8219 126.9439 127.2022
   127.2562 127.3987 127.6266 127.6748 127.7188 127.9132 128.0785 128.1055
   128.1395 128.2539 128.3697 128.3935 128.5239 128.7202 128.7760 128.8136
   129.1271 129.1610 129.1852 129.3092 129.3404 129.4049 129.8195 130.2717
   130.3794 130.5899 130.6640 130.7320 130.7440 130.8274 131.2804 131.4096
   131.5440 131.6314 131.6511 131.7100 131.7859 132.0013 132.3608 132.5189
   132.5390 132.5749 132.6060 132.6266 133.0226 133.0782 133.2444 133.2927
   133.4734 133.5573 133.6767 133.6835 133.7386 133.8721 134.1106 134.1257
   134.2632 134.5344 134.7331 134.8457 134.8576 134.9572 134.9869 135.1749
   135.2160 135.3163 135.5309 135.6000 135.7387 135.8710 135.9161 135.9228
   135.9348 136.0094 136.1753 136.5208 136.6919 136.7887 136.9997 137.0819
   137.2340 137.2367 137.2459 137.3252 137.4037 137.4346 137.5620 137.5775
   137.5913 137.6088 137.6485 137.6806 137.8051 137.8090 137.8113 137.9096
   138.2072 138.2283 138.2472 138.2478 138.4042 138.4524 138.4787 138.5254
   138.6608 138.7449 138.7783 138.8285 138.9108 139.0550 139.2007 139.4248
   139.5525 139.6493 139.7645 139.7794 139.8277 139.8413 140.1562 140.2277
   140.2779 140.4932 140.5657 140.7422 140.7583 140.8512 140.9141 140.9284
   141.0666 141.1350 141.1612 141.3542 141.4866 141.7168 141.7851 141.8100
   142.1094 142.2767 142.3124 142.4764 142.4993 142.5292 142.7130 142.8898
   142.9741 143.1108 143.1428 143.1636 143.1639 143.2849 143.2967 143.3360
   143.4065 143.6319 143.6894 143.8099 143.8998 143.9370 143.9513 144.0089
   144.2126 144.2563 144.3849 144.5111 144.5726 144.8125 144.8452 145.3561
   145.6375 145.6836 145.7886 145.9434 145.9879 145.9915 146.0455 146.1185
   146.1803 146.1926 146.2462 146.2730 146.7811 146.9499 147.0021 147.2324
   147.3744 147.4504 147.5622 147.5837 147.7659 147.8165 147.8200 147.8412
   148.0547 148.3895 148.3949 148.5736 148.7354 148.8249 148.8287 149.0177
   149.0200 149.2216 149.3430 149.5013 149.5382 149.6680 149.6791 149.8670
   150.0023 150.0351 150.0797 150.4342 150.4617 150.5492 150.6078 150.7422
   150.7622 151.0260 151.0303 151.1199 151.1536 151.2767 151.4312 151.4890
   151.6919 151.8116 151.8988 151.9076 151.9546 152.1302 152.3631 152.6378
   152.7710 152.8926 153.0899 153.0976 153.1731 153.3654 153.4341 153.6648
   154.0751 154.1196 154.1235 154.1369 154.3104 154.3941 154.5059 154.5093
   154.7893 154.9210 154.9422 155.0469 155.2614 155.4964 155.5676 155.6013
   155.8333 155.8659 155.9878 156.0404 156.0659 156.4923 156.6260 156.7595
   156.7914 156.8620 156.9008 156.9031 157.3493 157.3634 157.5135 157.8689
   157.9069 158.1877 158.2974 158.3607 158.4776 158.7168 158.7436 158.8045
   158.8987 158.9463 159.0221 159.1369 159.1575 159.1871 159.4596 159.4866
   159.5978 159.6364 159.7115 159.7386 160.0671 160.0712 160.1686 160.2081
   160.2544 160.3315 160.4139 160.5656 160.5789 160.6101 160.8935 161.0299
   161.0682 161.1133 161.1156 161.2592 161.2664 161.3825 161.4501 161.5011
   161.5755 161.9312 162.2585 162.2762 162.4175 162.6541 162.7597 162.8074
   162.8279 162.8993 162.9916 163.0469 163.2341 163.3249 163.4188 163.4199
   163.4560 163.5013 163.5494 163.6077 163.7263 163.8620 163.8706 163.9085
   164.0062 164.1066 164.2331 164.2921 164.3147 164.3243 164.3459 164.4823
   164.7012 164.8615 164.9036 164.9425 165.1620 165.3205 165.3216 165.4330
   165.4588 165.5388 165.5698 165.7530 165.7695 165.8430 165.9770 165.9989
   165.9999 166.2374 166.3148 166.3852 166.5156 166.5556 166.6340 166.7373
   166.8145 166.8358 166.8582 166.8642 167.0103 167.1189 167.2529 167.2796
   167.4560 167.5144 167.7120 168.0319 168.0506 168.0926 168.2043 168.4873
   168.5236 168.5935 168.6381 168.6891 168.7010 168.7998 168.8028 168.9327
   168.9334 168.9761 169.0114 169.0174 169.0695 169.0944 169.1150 169.3116
   169.4442 169.4692 169.7304 169.9777 169.9937 170.1210 170.1949 170.3323
   170.3622 170.5843 170.7008 170.7769 170.7959 170.9390 170.9799 171.0313

          k = 0.1250 0.2165 0.0000 (  7575 PWs)   bands (ev):

   -49.9821 -28.2091 -27.9767 -27.8324 -17.7840 -17.4417  -7.0191  -6.0870
    -5.9193  -5.4095  -4.9490  -4.9325  -1.0237   0.6861   1.5470   1.7228
     2.1696   3.5401   4.1001   4.4235   4.8903   5.3363   6.2765   6.8894
     7.4721   7.4784   8.4459   8.5122   9.6933   9.7808  10.4536  10.6368
    11.1306  11.7462  12.0565  13.0904  13.3293  13.8972  14.4195  15.0889
    15.1126  15.1514  15.2090  15.6253  15.6537  16.1157  16.2436  16.4615
    16.8023  17.0550  17.2519  17.5815  17.9271  18.4644  18.5269  19.0036
    19.2342  19.4916  19.9186  20.0991  20.3620  20.7324  20.9025  21.2881
    21.5021  21.6355  21.6986  21.8604  21.8942  22.1751  22.2724  22.3921
    22.6098  22.8315  22.9855  23.2305  23.7511  23.7595  24.1874  24.2250
    24.6530  24.7034  24.9210  25.0872  25.2092  25.8700  26.0927  26.2154
    26.4097  26.6666  26.6698  27.1387  27.2797  27.4634  27.6697  27.7109
    27.9641  28.1089  28.1099  28.4082  28.5168  28.5557  28.9205  28.9619
    29.1438  29.3913  29.6123  29.7875  29.8254  30.0801  30.0826  30.3359
    30.5154  30.6373  31.1996  31.3367  31.3437  31.7075  31.8293  31.9000
    32.3096  32.3847  32.8937  33.1660  33.2261  33.2839  33.5535  33.6762
    34.2856  34.3311  34.6675  34.9190  34.9322  35.6336  36.0406  36.0650
    36.2142  36.2857  37.0133  37.1974  37.2511  37.8899  37.9939  38.0333
    38.0817  38.3932  38.5240  39.4125  39.5687  39.5984  39.8861  39.8980
    40.1502  40.2912  40.5707  40.7789  41.2706  41.3825  41.6547  41.7661
    41.8815  42.5299  42.7670  42.8037  42.9628  43.1626  43.4318  43.5928
    43.8582  43.9304  44.0457  44.2604  44.5576  44.8188  44.9316  44.9635
    45.1845  45.2522  45.5544  45.7743  46.1254  46.2096  46.5860  46.6092
    46.9250  46.9966  47.5177  47.6354  47.8449  47.9312  48.2201  48.3045
    48.9391  49.0847  49.3449  49.4994  49.5468  49.7287  49.8765  49.9766
    50.0361  50.1131  50.1779  50.3802  50.5796  50.6333  50.7863  50.9305
    50.9984  51.1639  51.5343  51.6343  51.8653  51.9940  52.0110  52.0973
    52.1926  52.2336  52.4433  52.7694  53.1344  53.1513  53.3001  53.6025
    53.8474  53.9709  54.1247  54.3001  54.6960  54.7928  55.2772  55.5205
    55.6781  55.9634  56.1191  56.2417  56.4350  56.5912  56.6677  56.8852
    56.9810  57.1326  57.2075  57.3963  57.6565  57.9453  58.0148  58.3340
    58.7322  58.7588  59.0758  59.1600  59.1667  59.6330  59.7510  59.8122
    59.9035  59.9857  60.2966  60.3356  60.6088  60.6165  60.6628  60.7910
    60.8506  61.0888  61.1581  61.3371  61.3451  61.4874  61.6317  61.7124
    61.8586  62.0599  62.1926  62.2024  62.3507  62.5345  62.6324  62.6551
    62.8473  62.8967  62.9598  63.1350  63.2424  63.3260  63.3809  63.4778
    63.6301  63.7893  63.8020  63.8628  63.9098  64.1308  64.2578  64.3694
    64.4223  64.5836  64.6718  64.8456  65.1670  65.3187  65.4711  65.4829
    65.6580  65.8049  65.9309  66.0064  66.2149  66.3334  66.4062  66.4574
    66.6703  66.8672  67.0262  67.2453  67.2919  67.7782  67.8170  67.9081
    68.2156  68.4670  68.4693  68.6096  68.6314  68.7469  68.8355  68.9018
    69.1039  69.1302  69.3596  69.5013  69.6856  69.8064  69.9097  70.0788
    70.1126  70.2150  70.2498  70.3778  70.5761  70.7787  70.9497  71.1165
    71.1273  71.2957  71.3829  71.3967  71.8889  71.8979  72.0178  72.1215
    72.1276  72.1749  72.4149  72.5020  72.6925  72.7174  72.9248  72.9577
    73.1014  73.1665  73.1724  73.4487  73.4915  73.5490  73.6166  73.6276
    73.6870  73.9969  74.0710  74.3261  74.3505  74.6525  74.7331  74.8429
    74.9721  75.1117  75.2720  75.4908  75.5841  75.7077  75.7633  75.9994
    76.0698  76.1184  76.1878  76.3459  76.5232  76.6122  76.6196  76.8750
    76.9557  77.1777  77.2822  77.3111  77.6354  77.7217  77.8522  77.8994
    77.9391  78.1567  78.2826  78.4273  78.5843  78.6380  78.7664  78.8672
    78.9152  79.0743  79.3006  79.3056  79.5877  79.6515  79.8727  79.9288
    80.4793  80.5713  80.7146  80.8037  81.0135  81.0204  81.0887  81.2867
    81.3843  81.5399  81.5754  81.7613  82.0129  82.0445  82.3086  82.3932
    82.7174  82.8518  83.1683  83.2310  83.4533  83.5301  83.6188  83.6684
    83.7554  84.0603  84.1615  84.5546  84.6551  84.7299  84.8852  84.8858
    85.0745  85.3314  85.5610  85.7152  85.8905  86.0704  86.0877  86.1466
    86.2416  86.2705  86.4833  86.5269  86.5930  86.6054  86.7376  86.7403
    86.8545  87.0366  87.1598  87.2133  87.3030  87.4346  87.4952  87.6546
    87.6764  87.8683  87.9589  88.2748  88.2766  88.4313  88.5853  88.8185
    88.9316  88.9521  89.1089  89.3516  89.4201  89.5111  89.7010  89.9373
    89.9835  90.0769  90.2526  90.2970  90.3370  90.4154  90.6326  90.8866
    90.9875  91.0999  91.4247  91.4805  91.5767  91.6442  91.8208  91.8864
    92.0146  92.3155  92.4486  92.5710  92.6294  93.0023  93.0932  93.1631
    93.5277  93.5452  94.0423  94.1334  94.2419  94.4907  94.5941  94.7438
    94.8482  95.0178  95.1312  95.2865  95.3331  95.5778  95.6765  95.6844
    96.1090  96.1478  96.1849  96.4458  96.5146  96.6299  96.6829  96.9819
    97.0061  97.1581  97.2375  97.3134  97.3187  97.9772  98.0564  98.1219
    98.3043  98.3173  98.6928  98.8564  98.8715  99.0756  99.3045  99.4152
    99.4649  99.5998  99.7656  99.8303  99.9032 100.1639 100.3690 100.4106
   100.6686 101.0561 101.1128 101.1644 101.4444 101.5226 101.8041 101.8458
   101.8689 102.0974 102.4282 102.4392 102.7820 102.9457 102.9809 103.1199
   103.3103 103.3890 103.4906 103.5939 103.6964 103.8559 104.0426 104.1230
   104.2394 104.3623 104.6594 104.7607 105.0020 105.0249 105.2234 105.3746
   105.4862 105.5323 105.7341 105.8089 105.9745 106.0873 106.0926 106.3545
   106.4167 106.4336 106.4714 106.7093 106.8512 106.9405 107.1956 107.1983
   107.2614 107.3868 107.5971 107.6084 107.6504 107.8860 107.9209 108.0782
   108.1363 108.2862 108.3886 108.5210 108.5651 108.7414 108.7819 108.8911
   109.0545 109.1921 109.3495 109.4154 109.5124 109.5662 109.7935 109.9029
   110.0309 110.1655 110.3469 110.3867 110.5477 110.6057 110.8283 110.8551
   111.0703 111.3428 111.3485 111.4864 111.8024 111.8294 111.8699 112.0104
   112.1243 112.1724 112.2679 112.3862 112.4690 112.5131 112.6103 112.6256
   112.8934 113.0493 113.1682 113.2496 113.4164 113.4402 113.6639 113.7120
   113.7286 113.7392 113.9914 114.0242 114.3276 114.3752 114.5475 114.6910
   114.7174 114.8440 114.9538 115.0259 115.1119 115.4018 115.4555 115.4776
   115.5569 115.6900 115.7773 115.8574 116.0085 116.0483 116.1594 116.3397
   116.6316 116.7746 116.8063 116.9030 117.1151 117.1841 117.2087 117.2322
   117.3185 117.5574 117.6551 117.6905 117.7891 117.8641 118.1863 118.4098
   118.4690 118.5180 118.6250 118.6400 118.6528 118.8124 118.9128 118.9282
   118.9851 118.9911 119.0706 119.3136 119.4214 119.4658 119.5007 119.6971
   119.7216 119.8025 119.8222 119.8882 119.9773 120.1153 120.3199 120.4387
   120.5014 120.6716 120.6754 120.7244 120.8594 120.9308 120.9399 121.0910
   121.1461 121.2667 121.3688 121.5976 121.7579 122.0666 122.1083 122.2165
   122.3135 122.3563 122.3947 122.5435 122.5519 122.6278 122.8092 122.9391
   123.0529 123.2670 123.5381 123.7588 124.0515 124.0963 124.1569 124.3905
   124.4069 124.4233 124.4470 124.6634 124.7464 124.8288 124.9509 125.0836
   125.0864 125.2641 125.3966 125.4675 125.5414 125.5548 125.6800 125.7485
   125.7528 125.8715 125.9994 126.0864 126.1617 126.3466 126.4586 126.6374
   126.6653 126.8653 127.1359 127.2082 127.2264 127.4992 127.5688 127.5933
   127.6064 127.7407 128.1638 128.1990 128.4476 128.7201 128.7329 128.9696
   129.0170 129.0784 129.2240 129.2537 129.4221 129.4826 129.5134 129.5799
   129.7587 129.9315 129.9771 130.1166 130.2836 130.3889 130.6252 130.7507
   130.9980 131.0039 131.0665 131.1023 131.2798 131.3097 131.5782 131.6201
   131.6561 131.6880 131.8646 131.8894 131.9384 132.0273 132.1027 132.2434
   132.2589 132.4351 132.5457 132.5521 132.6425 132.8062 132.8412 132.9852
   133.0951 133.1337 133.2634 133.4950 133.5600 133.6365 133.7461 133.8312
   134.1609 134.1921 134.2534 134.4874 134.4965 134.5965 134.7685 134.8072
   134.9569 135.0059 135.0610 135.1554 135.1788 135.2770 135.2844 135.4363
   135.6258 135.6470 135.7316 135.8457 136.0760 136.0809 136.1906 136.2249
   136.4428 136.4575 136.5474 136.6422 136.7369 136.7870 137.0037 137.0192
   137.0664 137.3013 137.3817 137.4102 137.5670 137.7210 137.8381 137.8522
   138.0751 138.0781 138.1542 138.3216 138.4084 138.4384 138.4755 138.6633
   138.8305 138.9290 138.9475 139.0811 139.2870 139.3021 139.4227 139.4660
   139.6599 139.7480 139.7591 139.8822 139.9421 139.9909 140.1635 140.1658
   140.2256 140.3090 140.4564 140.4939 140.5735 140.5850 140.6225 140.7012
   140.7373 140.7627 140.9251 140.9597 141.1875 141.2075 141.2326 141.3467
   141.3819 141.4574 141.4589 141.4763 141.4963 141.5797 141.7638 141.7908
   141.8328 141.8546 141.9806 142.0338 142.2477 142.5023 142.5459 142.6087
   142.6914 142.8406 142.9100 142.9461 143.0286 143.1259 143.1427 143.2751
   143.2796 143.3782 143.4743 143.5603 143.5824 143.8290 143.9057 143.9155
   144.0247 144.0588 144.1478 144.2091 144.3034 144.3254 144.4017 144.5331
   144.6026 144.7561 144.8157 144.8439 144.9459 144.9503 145.0643 145.1608
   145.1954 145.3928 145.4496 145.5444 145.5553 145.5688 145.6419 145.6728
   145.7528 145.8369 145.9148 146.0309 146.0442 146.2054 146.2961 146.4276
   146.4491 146.7435 146.7813 146.7867 146.8908 146.9013 147.0083 147.1021
   147.2371 147.3622 147.4313 147.4878 147.5111 147.5961 147.6616 147.6825
   147.8578 147.9249 147.9980 148.1195 148.2059 148.3465 148.3805 148.5640
   148.5947 148.8376 148.8493 148.9019 148.9410 149.1375 149.1948 149.2451
   149.3109 149.4218 149.5436 149.8933 149.9377 150.0865 150.3070 150.3701
   150.4218 150.5584 150.6273 150.7499 150.8147 150.8533 150.9165 151.0455
   151.1061 151.3604 151.4415 151.6667 151.6962 151.8467 152.0331 152.2081
   152.2089 152.4419 152.5095 152.5610 152.6148 152.6823 152.7167 152.9479
   153.0642 153.1258 153.3379 153.3743 153.4305 153.5895 153.7311 153.7839
   153.9119 153.9368 154.0041 154.0113 154.0980 154.1467 154.3447 154.3831
   154.4822 154.5605 154.7433 154.7628 154.8348 154.8616 154.8819 154.9890
   155.0017 155.0886 155.3425 155.4342 155.4774 155.5486 155.5884 155.5918
   155.7551 155.8882 156.1203 156.1401 156.4114 156.4602 156.6025 156.6182
   156.6829 156.7303 156.8332 156.9310 157.0510 157.1690 157.2379 157.2526
   157.4346 157.5414 157.7517 157.8530 157.8897 158.1504 158.3235 158.3491
   158.7083 158.7602 158.8936 159.1095 159.1528 159.2095 159.3506 159.5063
   159.6138 159.6230 159.6581 159.7718 159.9404 160.0258 160.0933 160.1388
   160.1558 160.1996 160.3200 160.3377 160.4734 160.5507 160.6613 160.6933
   160.8100 160.8105 160.8996 160.9670 161.0232 161.0884 161.1976 161.2244
   161.2628 161.3960 161.5086 161.7076 161.7298 161.8471 161.9592 161.9955
   162.1226 162.1754 162.3626 162.4073 162.4424 162.4582 162.6782 162.6793
   162.7904 162.9306 162.9921 163.1239 163.2915 163.3943 163.5748 163.6291
   163.6315 163.7758 163.8358 164.0676 164.2532 164.3364 164.5492 164.6867
   164.7760 164.8603 164.8848 164.9811 165.0788 165.2094 165.3791 165.4656
   165.7031 165.7627 165.7714 165.7739 166.1596 166.2484 166.3255 166.3617
   166.4319 166.5075 166.5937 166.6660 166.7688 166.8111 166.9554 166.9728
   167.1121 167.2230 167.2275 167.2727 167.3859 167.4352 167.4968 167.5236
   167.5758 167.5771 167.6671 167.8048 167.8730 168.0949 168.3240 168.4774

          k = 0.1250 0.3608 0.0000 (  7572 PWs)   bands (ev):

   -49.9653 -28.1606 -28.1341 -27.8885 -17.4912 -17.3731  -6.9190  -6.5863
    -6.5019  -5.7664  -5.1661  -5.1322  -1.1518   1.1009   2.0483   2.4342
     2.4923   4.5592   5.0685   5.2889   5.7600   6.3367   6.8737   7.2384
     7.8673   8.0421   8.9695   9.0000   9.3689   9.7856   9.8441  10.9479
    11.1113  11.9269  11.9327  12.3585  12.3691  12.6698  13.2637  13.2863
    13.9874  14.0530  14.2904  14.3037  14.5967  14.7529  15.4083  15.7726
    15.8033  15.9989  16.4438  17.1107  17.4477  17.4629  17.6973  18.2430
    18.6868  19.1955  19.2010  19.5859  19.8156  20.3980  20.4758  20.5772
    20.6778  21.0270  21.0368  21.5231  21.6209  21.8516  22.1432  22.6724
    22.8595  22.9101  23.3051  23.4329  23.7805  23.8833  24.4404  24.4827
    24.7169  24.9225  25.0930  25.2048  25.5789  25.7902  26.1221  26.3063
    26.5510  26.6657  26.9632  27.3268  27.3642  27.8807  28.0542  28.3855
    28.4754  28.8043  29.0630  29.6444  29.8012  29.9583  30.4528  30.5140
    30.7514  30.9126  31.1020  31.5554  31.7370  31.8150  31.9449  32.2067
    32.4670  32.5936  32.8038  33.1081  33.1835  33.2869  33.5279  33.5329
    33.7533  33.8438  34.2287  34.3114  34.5705  34.6721  34.9286  35.0974
    35.3562  35.6323  35.9686  36.0803  36.0952  36.3636  36.4879  36.9779
    37.1194  37.2287  37.4060  37.6669  37.6701  38.1111  38.2931  38.3365
    38.5053  38.5447  38.6667  39.0028  39.1106  39.3381  39.4352  39.7366
    39.7620  40.0689  40.1110  40.3975  40.6093  40.9086  41.0092  41.2964
    41.5443  41.7403  42.0003  42.1716  42.2622  42.5393  42.8103  43.0397
    43.1285  43.2108  43.5688  43.5972  43.8791  44.0144  44.3990  44.4631
    44.5688  44.6378  44.7172  45.0096  45.2075  45.3023  45.4936  45.5962
    45.9989  46.0001  46.3877  46.6036  46.7377  46.8705  47.3123  47.4873
    47.5327  47.7152  47.9537  48.1067  48.1432  48.7050  48.8395  48.9921
    49.1183  49.2487  49.2900  49.7432  49.9278  50.0886  50.5579  50.5705
    50.8130  51.0933  51.1275  51.3282  51.3631  51.6489  51.7749  51.8372
    52.2453  52.2804  52.3099  52.5651  52.6137  52.7936  52.9419  53.0605
    53.1906  53.2079  53.4812  53.6950  53.7523  53.9759  54.1909  54.2034
    54.5228  54.5245  54.7687  54.8066  55.1331  55.1491  55.3147  55.5974
    55.7331  55.7584  55.9915  56.1305  56.2744  56.3403  56.4202  56.8824
    56.9729  57.0142  57.4447  57.5365  57.7596  57.8439  58.0477  58.0657
    58.2531  58.3043  58.5291  58.7379  58.7732  59.0769  59.0940  59.3099
    59.4322  59.7616  59.7855  59.9862  60.0359  60.3555  60.3790  60.5233
    60.6915  61.0975  61.1363  61.3016  61.3583  61.7480  61.9375  61.9886
    62.1324  62.2480  62.3090  62.5371  62.8178  62.9285  63.2118  63.2774
    63.3716  63.8009  63.8406  63.9573  64.0905  64.1742  64.3774  64.4237
    64.6499  64.6798  65.0625  65.1542  65.3538  65.4405  65.6394  65.6991
    65.9289  66.1164  66.3564  66.4689  66.5253  66.6559  66.7505  66.9310
    67.4825  67.5133  67.7062  67.7528  67.8884  68.0849  68.1840  68.3886
    68.6999  68.7606  68.9849  69.0824  69.3460  69.3567  69.5231  69.5887
    69.8324  69.9961  70.0918  70.1893  70.2483  70.2715  70.3583  70.4614
    70.5215  70.6074  70.9835  70.9921  71.2006  71.2141  71.3428  71.3956
    71.6095  71.6856  71.7539  71.9552  71.9767  72.2204  72.4434  72.4834
    72.5849  72.7348  72.7683  73.1504  73.5302  73.5339  73.7262  73.7478
    73.9166  73.9708  74.1460  74.4073  74.4490  74.5297  74.6459  74.8325
    74.8431  75.1455  75.4320  75.5244  75.7053  75.8022  75.8595  76.2103
    76.3314  76.5097  76.5154  76.7544  76.8273  76.9145  77.0565  77.0614
    77.1698  77.2834  77.5768  77.6539  77.8091  77.8214  77.8707  78.1072
    78.2045  78.3528  78.3635  78.5238  78.6192  78.7891  78.8499  79.0095
    79.1840  79.1933  79.2888  79.4422  79.5211  79.5802  79.6931  79.7512
    79.9029  80.0296  80.2779  80.2839  80.4138  80.4681  80.7139  80.7396
    80.9288  80.9438  81.4005  81.4265  81.7777  81.8134  81.9500  82.0911
    82.1608  82.2977  82.4920  82.5370  82.6494  82.8461  82.9750  83.0523
    83.1444  83.4240  83.5618  83.5883  83.8223  83.9248  84.1484  84.3298
    84.5386  84.6931  84.7531  84.8556  85.1367  85.2135  85.3134  85.5204
    85.6776  85.9277  85.9816  86.1617  86.2018  86.4898  86.6086  86.8806
    86.8820  87.0543  87.1762  87.4195  87.4543  87.6659  87.8049  87.8682
    87.9674  88.3568  88.5274  88.7365  89.0043  89.0747  89.1182  89.3400
    89.3475  89.5862  89.6127  89.8348  89.8436  90.2378  90.2439  90.5409
    90.6371  90.7334  90.8601  90.9981  91.1202  91.3974  91.4969  91.6623
    91.7167  91.9340  91.9826  92.1134  92.4130  92.4256  92.5589  92.6470
    92.9265  92.9971  93.1209  93.1521  93.3843  93.6330  93.6640  93.7292
    93.8634  94.1267  94.1866  94.3227  94.4970  94.7097  94.8278  94.9886
    95.1328  95.1615  95.2714  95.5701  95.7379  95.8398  95.9031  96.0079
    96.1719  96.1917  96.3133  96.3213  96.4052  96.5261  96.6177  96.7542
    96.7733  96.9018  96.9625  97.0349  97.3035  97.3124  97.4565  97.5424
    97.6688  97.6947  97.7575  97.8439  97.9306  98.0775  98.3220  98.3472
    98.5185  98.6107  98.6604  98.7343  98.8764  98.9474  99.0128  99.1051
    99.2341  99.3546  99.3993  99.5250  99.5436  99.7253  99.7905  99.8705
[...]
    94.2835  94.4344  94.5389  94.5968  94.7604  95.1074  95.1197  95.1418
    95.4069  95.5586  95.8851  95.8880  96.1673  96.3065  96.3599  96.4059
    96.6853  96.7948  97.0490  97.2094  97.3131  97.4549  97.5078  97.5488
    97.7920  97.8848  97.9791  98.1400  98.4680  98.5869  98.5957  98.7661
    98.8567  98.9037  99.0513  99.1747  99.4100  99.5104  99.5343  99.7050
    99.9092  99.9250 100.1048 100.2910 100.3567 100.5216 100.6748 100.6858
   100.7632 100.8856 101.0359 101.2689 101.3732 101.5530 101.7126 101.7403
   101.8054 101.8713 101.8921 101.9634 101.9878 102.0165 102.0294 102.2064
   102.2124 102.4254 102.4281 102.4713 102.5246 102.6728 102.7108 102.8646
   102.9195 102.9272 102.9707 103.0164 103.1201 103.2141 103.2529 103.3933
   103.4631 103.6476 103.9240 103.9830 104.0030 104.1980 104.2103 104.4491
   104.5411 104.5756 104.6520 104.7923 104.8497 104.9315 105.0565 105.1151
   105.2844 105.3681 105.4530 105.6133 105.7421 105.9123 106.0383 106.1527
   106.1968 106.3865 106.5360 106.5651 106.5791 106.8271 106.8860 106.9276
   107.0385 107.1896 107.2665 107.4216 107.5466 107.5557 107.5934 107.7075
   107.7670 107.7914 108.0911 108.1465 108.2265 108.4445 108.5166 108.7043
   108.7367 108.8414 109.1193 109.2865 109.4889 109.5674 109.7082 109.7665
   109.9531 110.1537 110.1554 110.3279 110.5292 110.5951 110.6302 110.8403
   110.8837 110.9584 111.1469 111.1877 111.2502 111.3171 111.5394 111.5743
   112.0327 112.0666 112.1090 112.2192 112.2560 112.6799 112.7315 112.7432
   112.8041 112.8985 113.0026 113.1182 113.3361 113.4284 113.5986 113.6165
   113.7758 114.1464 114.1532 114.3150 114.3880 114.4069 114.5429 114.6841
   114.6858 114.8334 114.8597 114.9107 115.0342 115.0346 115.1416 115.3429
   115.3746 115.4171 115.5334 115.7955 115.8216 116.0755 116.1230 116.1498
   116.1721 116.3296 116.4310 116.5342 116.6773 116.8026 116.9842 117.0880
   117.2778 117.3185 117.5352 117.5800 117.7422 117.8011 117.8467 117.8831
   118.0119 118.0766 118.1640 118.2484 118.3099 118.4656 118.6325 118.7207
   118.7475 119.1041 119.3450 119.4433 119.5627 119.5716 119.7269 119.7309
   119.8848 120.0198 120.1498 120.1709 120.2380 120.3434 120.3781 120.4154
   120.5120 120.5483 120.6260 120.7680 120.8411 121.2679 121.3133 121.4637
   121.6536 121.8715 122.1884 122.2002 122.4089 122.4828 122.7045 122.7281
   122.8983 123.0276 123.2100 123.2519 123.2876 123.4027 123.4871 123.5486
   123.6605 123.7315 123.7745 123.8921 123.9371 124.1329 124.1427 124.2234
   124.2946 124.2963 124.3619 124.3694 124.4774 124.6740 124.6894 124.7069
   124.8520 124.9721 125.1018 125.4976 125.6114 125.7397 125.7555 125.9035
   125.9375 126.0759 126.3307 126.3553 126.4485 126.7720 126.8517 126.8993
   126.9777 127.1322 127.2407 127.2872 127.3397 127.4030 127.5051 127.8008
   127.8743 128.0996 128.1060 128.2430 128.3017 128.4060 128.4783 128.6380
   128.7351 128.7398 128.8535 128.9582 129.3632 129.3701 129.4620 129.4655
   129.6310 129.6439 129.7032 129.7399 129.9561 130.0888 130.2072 130.3905
   130.3908 130.5292 130.6132 130.6398 130.8228 130.9443 131.0973 131.1409
   131.2302 131.2919 131.7165 131.7834 131.9746 132.2778 132.3167 132.4205
   132.4621 132.6161 132.7585 132.8131 132.8533 132.9082 133.0160 133.0599
   133.2539 133.3784 133.3992 133.8520 134.0621 134.1584 134.1668 134.6947
   134.8714 134.8767 134.8942 135.0482 135.1526 135.3603 135.4567 135.5703
   135.5860 135.8303 135.9802 136.0741 136.2052 136.3873 136.4581 136.5085
   136.6016 136.6735 136.6827 137.0204 137.1032 137.3107 137.3590 137.3713
   137.5631 137.7442 137.8364 137.8809 138.0384 138.0391 138.2381 138.2949
   138.4869 138.5736 138.6323 139.0390 139.1784 139.2305 139.2906 139.3575
   139.5674 139.5964 139.7577 139.8156 140.0028 140.0453 140.1945 140.1969
   140.3163 140.4834 140.5459 140.5841 140.6397 140.6981 140.7963 140.8484
   140.9170 141.0634 141.1590 141.2198 141.4403 141.4486 141.5820 141.7379
   141.7772 141.8599 141.9433 142.0927 142.0948 142.2143 142.2428 142.3338
   142.4072 142.4908 142.5335 142.5783 142.7124 142.9157 143.0573 143.4479
   143.4596 143.4629 143.7123 143.8307 143.8474 143.8835 143.9782 144.1014
   144.1586 144.4238 144.4958 144.5303 144.7052 144.7402 144.9360 145.0784
   145.0922 145.2327 145.2635 145.4766 145.7311 145.8039 146.1227 146.1448
   146.2645 146.3405 146.5274 146.7150 146.7986 146.8505 146.8677 147.0587
   147.4056 147.4930 147.5615 147.7461 147.8251 148.0530 148.0976 148.2634
   148.3944 148.4581 148.6960 148.9075 148.9715 149.0230 149.1041 149.1280
   149.3248 149.3272 149.5291 149.5744 149.6569 149.7551 149.9779 150.0597
   150.0771 150.1583 150.2044 150.3069 150.4223 150.6116 150.6646 150.7535
   150.7661 150.7804 150.9944 151.0553 151.2807 151.4591 151.5290 151.5800
   151.6583 151.7096 151.9125 152.0793 152.1603 152.2512 152.4045 152.4243
   152.5049 152.5773 152.6532 152.7417 152.8339 153.0300 153.1449 153.1585
   153.3406 153.5080 153.5361 153.6794 153.8021 153.8071 153.8448 153.8586
   154.0235 154.0590 154.1802 154.2217 154.4923 154.5410 154.6356 154.6457
   154.7698 154.8183 154.9163 154.9284 155.3336 155.5206 155.6664 155.7010
   155.9580 156.1230 156.1680 156.2289 156.4494 156.5100 156.5480 156.6700
   156.6794 156.7660 156.9179 156.9405 157.0047 157.1610 157.2410 157.2412
   157.3566 157.5337 157.5579 157.6293 157.7392 157.9558 157.9726 158.1850
   158.2035 158.3617 158.3983 158.4624 158.8130 158.8683 158.9380 158.9827
   159.2936 159.3206 159.4697 159.5367 159.5578 159.6994 159.7977 159.8551
   160.0097 160.0526 160.1369 160.2732 160.5328 160.5653 160.6582 160.7635
   160.8209 161.0001 161.0050 161.3047 161.3466 161.4886 161.5617 161.7224
   161.8137 161.9755 162.0337 162.0830 162.2872 162.3286 162.3914 162.4236
   162.4601 162.4634 162.5131 162.5173 162.6129 162.6648 162.7290 162.8390
   162.8595 162.8746 162.9125 163.0679 163.0877 163.1518 163.2695 163.2738
   163.2880 163.4545 163.5354 163.6008 163.6564 163.7133 163.7291 163.8007
   163.8318 163.9257 163.9490 164.0308 164.2337 164.2399 164.2935 164.4970
   164.5928 164.7456 164.8189 164.9099 164.9912 165.1506 165.1840 165.3085
   165.3303 165.3801 165.3817 165.4079 165.5448 165.5495 165.6378 165.7494
   165.7882 165.9347 165.9406 166.0822 166.1031 166.1767 166.2804 166.3982
   166.5592 166.6415 166.7075 166.7962 166.8192 166.8403 166.8436 166.9858
   166.9859 167.1973 167.3405 167.3936 167.4863 167.5493 167.6011 167.6897
   167.9403 167.9562 167.9831 167.9998 168.0815 168.0855 168.3303 168.3360
   168.7078 168.7268 168.7324 168.8458 168.9339 168.9897 169.1315 169.1810
   169.3246 169.3499 169.6776 169.8221 169.8379 169.8701 170.0229 170.1509

          k = 0.2500 0.5774 0.0000 (  7578 PWs)   bands (ev):

   -49.9485 -28.1972 -28.1116 -28.0383 -17.2957 -17.1856  -7.0950  -7.0339
    -6.3313  -6.0570  -5.9487  -5.5366  -0.5387   1.8246   2.1054   2.6191
     3.1250   5.5696   6.4977   7.0858   7.4627   7.4776   8.1818   8.3017
     8.7955   8.9140   9.1660   9.1867   9.5680   9.6703   9.9565   9.9691
    10.0349  10.7169  10.8451  10.9921  11.2647  11.3994  11.5534  11.5593
    12.5446  12.8021  13.0574  13.1618  13.5585  13.5975  14.2867  14.7402
    14.8061  15.2431  15.5726  15.6623  16.0966  16.9660  17.1426  17.8098
    17.8829  18.4931  18.8752  19.4516  19.6300  19.9016  20.2298  20.3961
    20.9293  21.2362  21.5741  22.1260  22.5673  22.7505  22.9973  23.3615
    23.4391  23.8656  24.2107  24.2973  24.6010  24.6158  24.6517  25.0246
    25.5385  25.7474  25.9375  26.2662  26.8576  26.9177  27.2200  27.2224
    27.2714  27.5569  27.9939  28.0709  28.1311  28.4231  28.4349  28.6312
    28.8235  29.1168  29.2384  29.2995  29.4682  29.7239  30.0419  30.3235
    30.3905  30.6633  30.7230  31.3629  31.3634  31.6046  31.7983  31.8918
    31.9831  32.3835  32.9649  32.9759  33.0573  33.3125  33.5351  33.8201
    33.8630  33.9876  34.4202  34.9700  35.0266  35.3158  35.3317  35.8713
    36.2733  36.2751  36.6131  36.7410  37.0095  37.0724  37.6760  38.0037
    38.0363  38.1577  38.6092  38.8740  39.0712  39.6409  39.9524  40.0754
    40.3600  40.5020  40.7349  40.8745  41.0053  41.0324  41.2021  41.3835
    41.3889  41.5023  41.6442  41.8545  41.8751  42.1218  42.2633  42.3589
    42.4615  42.6526  42.9205  43.0576  43.0577  43.3794  43.3884  43.4622
    43.7244  43.7925  43.8889  43.9455  44.0442  44.2850  44.3684  44.5171
    44.6327  44.9774  45.0367  45.0547  45.2293  45.4929  45.5025  45.5976
    45.7564  45.8986  46.0578  46.1154  46.4412  46.5932  46.7174  46.8327
    47.0667  47.0851  47.2326  47.2585  47.5620  47.5761  47.7760  47.8503
    47.9509  48.1550  48.2995  48.3806  48.3830  48.6166  48.6176  48.8267
    48.9900  49.1245  49.2856  49.3426  49.4238  49.4785  49.8542  49.8803
    49.9318  50.1385  50.2464  50.3078  50.3741  50.7877  50.9299  50.9572
    51.1840  51.1952  51.5186  51.6002  51.8008  51.8272  52.2601  52.3519
    52.4070  52.7389  52.7423  52.8621  53.1935  53.2965  53.4061  53.5514
    53.6921  53.7226  54.3190  54.4399  54.5378  54.7734  54.9725  55.2018
    55.3664  55.5249  55.7820  56.1178  56.1179  56.2196  56.2597  56.4747
    56.5214  56.6743  56.8933  57.0024  57.1434  57.6241  57.8046  58.1431
    58.3041  58.5521  58.7110  58.7983  59.1048  59.2766  59.3879  59.6223
    59.8432  59.8503  59.9515  60.2043  60.2601  60.3653  60.5974  60.9777
    61.1823  61.4634  61.6810  61.9494  61.9651  62.1446  62.4532  62.8483
    63.0295  63.0353  63.4544  63.6980  63.7134  64.1240  64.1619  64.2734
    64.4297  64.8173  64.8614  64.9050  65.0860  65.2421  65.2980  65.7168
    65.9539  66.0540  66.2530  66.5784  66.6891  66.8524  67.1642  67.2976
    67.6924  67.7035  67.8385  68.0096  68.1901  68.5638  68.6774  68.9073
    68.9655  69.1207  69.4342  69.7802  69.9348  70.1978  70.5751  70.6933
    70.7082  70.7581  70.9958  71.0102  71.3456  71.6596  71.9043  72.1112
    72.1135  72.4673  72.6675  72.7054  72.7453  72.9428  73.3449  73.3602
    73.3709  73.5629  73.6691  73.7795  73.8422  73.9204  73.9660  74.2406
    74.4143  74.4478  74.5704  74.7569  74.8577  75.0047  75.0721  75.2229
    75.4268  75.4664  75.5050  75.5712  75.8873  75.9661  76.2409  76.3031
    76.5762  76.6043  76.7659  76.9634  77.0995  77.1913  77.3484  77.3662
    77.6233  78.0450  78.1895  78.4343  78.4678  78.7865  78.7993  78.8871
    79.1326  79.3782  79.5556  79.6293  79.6563  79.9059  79.9941  80.1442
    80.1717  80.2427  80.3646  80.4262  80.4342  80.7387  80.8238  80.9090
    80.9298  81.0546  81.0800  81.1236  81.2623  81.4281  81.5611  81.6641
    81.9146  82.0219  82.0823  82.1328  82.1517  82.2062  82.3251  82.3641
    82.4785  82.4790  82.7216  82.7809  83.1042  83.1046  83.1656  83.1818
    83.3085  83.4158  83.5587  83.5592  83.7662  83.8012  83.9561  83.9918
    84.2217  84.4245  84.4669  84.5483  84.6017  84.7092  84.7975  85.0412
    85.2419  85.3605  85.3926  85.4729  85.4886  85.6703  85.7961  85.8985
    86.0627  86.1821  86.2979  86.3940  86.6542  86.7773  86.8845  86.9123
    87.1792  87.4502  87.4739  87.6385  87.7658  87.9106  88.0440  88.1137
    88.2196  88.6396  88.6714  89.0539  89.0729  89.1921  89.2105  89.4781
    89.5233  89.5824  89.8354  90.0300  90.0395  90.1487  90.1534  90.3490
    90.5640  90.6278  90.8090  90.8385  91.0803  91.2009  91.4330  91.5146
    91.6579  91.8265  91.9777  92.0474  92.1332  92.2276  92.2538  92.4637
    92.5886  92.7307  92.7491  92.9565  92.9807  93.0618  93.0677  93.2159
    93.2277  93.3097  93.4308  93.5438  93.6225  93.8320  93.9704  94.0037
    94.1081  94.1266  94.2247  94.4185  94.6241  94.7165  94.8222  94.8335
    94.9073  94.9908  95.0990  95.1993  95.3855  95.7041  95.7579  95.7711
    95.9460  96.0614  96.2567  96.4476  96.4847  96.5344  96.5562  96.7244
    96.7802  97.2058  97.2643  97.2862  97.4629  97.6787  97.6987  97.8737
    97.9834  98.2900  98.3976  98.4422  98.6051  98.6969  98.8009  99.0940
    99.1952  99.2070  99.3157  99.4336  99.5665  99.6006  99.6143  99.8512
   100.1639 100.1872 100.4695 100.5307 100.6858 100.6997 101.0256 101.1442
   101.2911 101.3054 101.5446 101.7833 101.8157 101.8456 101.8778 101.9833
   102.0604 102.1271 102.3314 102.4703 102.5041 102.5830 102.6988 102.8952
   102.9490 103.0183 103.1117 103.2809 103.3702 103.4797 103.7383 103.8796
   103.9329 104.1762 104.2688 104.3281 104.4465 104.5790 104.6319 104.7665
   104.9117 104.9895 105.1234 105.1605 105.4530 105.5089 105.8861 105.9845
   106.0782 106.1950 106.2183 106.3629 106.4009 106.6334 106.8285 106.9421
   107.0278 107.2163 107.3889 107.4117 107.5655 107.6492 107.7288 107.7774
   107.9823 108.0621 108.1752 108.1938 108.3244 108.3337 108.3386 108.4750
   108.4980 108.6731 108.9726 109.1033 109.1358 109.2782 109.3313 109.3758
   109.3978 109.7081 109.8161 109.9522 110.0079 110.1474 110.1680 110.2913
   110.3964 110.4169 110.6178 110.7118 110.8798 110.9231 111.1336 111.2469
   111.2482 111.4209 111.5520 111.6652 111.7281 111.7627 111.9747 111.9912
   112.1989 112.2348 112.3409 112.3977 112.4881 112.5656 112.5996 112.6757
   112.6794 112.9097 113.0040 113.0146 113.2595 113.2724 113.3122 113.3232
   113.5580 113.6600 113.7281 113.8113 113.8949 114.0416 114.0711 114.1631
   114.2646 114.3311 114.4203 114.6418 114.9975 115.0047 115.0536 115.1503
   115.2333 115.2559 115.3928 115.5341 115.6010 115.6585 115.8061 115.8307
   115.8653 115.9941 116.0902 116.1268 116.2089 116.4334 116.7315 116.7455
   116.8885 117.0241 117.1412 117.1620 117.2238 117.3765 117.3896 117.5058
   117.5964 117.7288 117.8686 117.9054 118.0436 118.0885 118.3965 118.5073
   118.6213 118.7853 118.8627 118.9173 119.0130 119.0317 119.1530 119.2491
   119.2949 119.3860 119.4717 119.7222 119.7747 119.8920 119.9202 120.0837
   120.1326 120.1388 120.1725 120.2833 120.3436 120.4103 120.6036 120.7501
   120.8681 120.8780 121.0240 121.2193 121.3312 121.4452 121.4615 121.5799
   121.6072 121.6787 121.7891 121.8859 121.9195 122.0550 122.1398 122.1964
   122.2931 122.5097 122.8063 122.8436 123.0869 123.1171 123.2403 123.2825
   123.4517 123.4676 123.5154 123.5394 123.6889 123.7954 123.9676 124.0034
   124.1186 124.3212 124.4582 124.6483 124.7084 124.7322 124.8374 124.9267
   125.0208 125.2014 125.2630 125.4755 125.6104 125.7638 126.0076 126.0180
   126.2076 126.2100 126.4368 126.4677 126.6541 126.7747 126.8804 126.9281
   127.1690 127.2228 127.3744 127.5009 127.5312 127.6941 127.6970 127.7403
   127.9463 128.1971 128.2902 128.4431 128.4914 128.5881 128.7296 128.8894
   128.9653 129.1573 129.4198 129.5043 129.5871 129.8300 129.8506 130.0475
   130.1528 130.1598 130.3653 130.4547 130.6755 130.8054 130.8845 131.1263
   131.2510 131.3249 131.3337 131.5203 131.5548 131.7092 131.7463 132.1216
   132.1568 132.3352 132.4719 132.5578 132.6884 132.7679 132.8587 133.1243
   133.3061 133.5775 133.6846 133.8686 133.8854 133.9492 134.1928 134.1937
   134.5602 134.6647 134.7261 134.8801 134.9446 134.9521 135.1907 135.2452
   135.3304 135.4379 135.4615 135.5987 135.7324 135.7768 135.8552 136.2412
   136.2593 136.3904 136.4372 136.6634 136.7321 137.0360 137.1242 137.1455
   137.1861 137.5108 137.7631 137.7990 137.8912 137.9516 138.0709 138.1876
   138.6525 138.8625 138.8939 138.9509 139.0885 139.1376 139.1972 139.2603
   139.5006 139.6185 139.6592 139.8165 139.9301 139.9329 140.1819 140.1962
   140.3782 140.4453 140.4906 140.6305 140.7884 140.8316 140.9618 141.1163
   141.1465 141.2372 141.3368 141.4413 141.6063 141.7801 141.8001 142.0817
   142.1412 142.1731 142.2122 142.3160 142.5478 142.6363 142.8671 142.9909
   143.0960 143.1139 143.3784 143.4311 143.5051 143.6962 143.8591 144.0185
   144.0742 144.1261 144.3224 144.4730 144.6763 144.7608 144.8843 144.9428
   144.9658 145.2802 145.3281 145.4275 145.5342 145.7766 145.8582 145.8788
   145.9087 146.1160 146.2255 146.3517 146.3521 146.4374 146.6928 146.7712
   147.0075 147.0106 147.1091 147.1298 147.4139 147.5165 147.5330 147.6071
   147.7353 148.0022 148.1338 148.1480 148.1898 148.3269 148.3384 148.7371
   148.8016 148.9650 149.0317 149.2934 149.3376 149.4955 149.5727 149.6426
   149.6452 149.7496 149.7952 150.0960 150.1266 150.3687 150.4254 150.5014
   150.7642 150.8325 150.8582 150.8946 150.9044 151.1441 151.1956 151.3173
   151.3452 151.4501 151.5083 151.6280 151.6550 151.9347 151.9873 152.2416
   152.3018 152.3507 152.3989 152.4904 152.5717 152.7046 152.7434 152.8485
   152.9037 153.0182 153.0633 153.2584 153.3314 153.5025 153.5584 153.6895
   153.7082 153.8488 153.9930 154.1359 154.2620 154.3843 154.4706 154.5652
   154.6109 154.7038 154.8193 154.9456 154.9783 155.0071 155.0289 155.3760
   155.4356 155.4722 155.7475 155.8783 156.0658 156.1382 156.1979 156.2863
   156.4023 156.4614 156.6853 156.7268 156.8215 156.8723 156.8856 156.9115
   157.2148 157.2472 157.2732 157.3189 157.3443 157.4755 157.5551 157.5708
   157.6706 157.8117 157.8617 157.8844 157.9383 157.9903 158.1407 158.1658
   158.2733 158.3413 158.3944 158.4311 158.5773 158.7000 158.7217 158.7804
   158.9207 159.0256 159.0543 159.3094 159.4398 159.6321 159.8532 159.9732
   160.1079 160.1823 160.2633 160.3241 160.3355 160.3733 160.5698 160.6135
   160.6949 160.8002 160.9176 161.0375 161.1385 161.2322 161.2712 161.3468
   161.4171 161.5631 161.7585 161.8619 161.8808 161.9659 162.1648 162.2243
   162.4494 162.5856 162.5930 162.6961 162.7523 162.8140 162.8202 163.1137
   163.2646 163.3162 163.3807 163.5094 163.6561 163.8064 163.8098 163.9643
   164.0142 164.1109 164.1137 164.3320 164.3512 164.3645 164.5994 164.7093
   164.7987 164.8630 164.8792 165.0665 165.1379 165.1547 165.3535 165.4915
   165.5661 165.6511 165.8396 166.0382 166.0660 166.1731 166.3002 166.3051
   166.4116 166.4932 166.4952 166.5419 166.6803 166.6916 166.7698 166.8252
   166.9123 166.9674 167.1371 167.1908 167.2865 167.3368 167.3722 167.4184
   167.5623 167.7123 167.7520 167.7840 167.7884 167.9037 168.1495 168.1890
   168.2179 168.2804 168.3479 168.5392 168.5683 168.6103 168.7997 168.8044
   168.8677 168.8835 169.0098 169.1115 169.1222 169.3107 169.3109 169.4276
   169.5952 169.6688 169.7366 169.8210 169.9320 169.9672 170.1589 170.1671
   170.3197 170.3940 170.4143 170.5292 170.7359 170.7865 170.9552 171.0143

     the Fermi energy is     0.0426 ev
     (compare with:     0.1196 eV, computed in scf)

     Writing all to output data dir out/ZrCl2.save/
 
     init_run     :      0.07s CPU      0.09s WALL (       1 calls)
     electrons    :    218.93s CPU    235.65s WALL (       1 calls)

     Called by init_run:
     wfcinit      :      0.00s CPU      0.00s WALL (       1 calls)
     potinit      :      0.01s CPU      0.02s WALL (       1 calls)
     hinit0       :      0.02s CPU      0.03s WALL (       1 calls)

     Called by electrons:
     c_bands      :    218.93s CPU    235.65s WALL (       1 calls)
     v_of_rho     :      0.01s CPU      0.01s WALL (       1 calls)

     Called by c_bands:
     init_us_2    :      0.00s CPU      0.00s WALL (      10 calls)
     init_us_2:cp :      0.00s CPU      0.00s WALL (      10 calls)
     cegterg      :    212.49s CPU    228.77s WALL (      10 calls)

     Called by *egterg:
     cdiaghg      :    171.69s CPU    185.50s WALL (     122 calls)
     h_psi        :     16.48s CPU     16.90s WALL (     132 calls)
     g_psi        :      0.04s CPU      0.04s WALL (     112 calls)

     Called by h_psi:
     h_psi:calbec :      0.19s CPU      0.21s WALL (     132 calls)
     vloc_psi     :     16.14s CPU     16.51s WALL (     132 calls)
     add_vuspsi   :      0.09s CPU      0.09s WALL (     132 calls)

     General routines
     calbec       :      0.19s CPU      0.21s WALL (     132 calls)
     fft          :      0.01s CPU      0.02s WALL (      10 calls)
     fftw         :     15.68s CPU     16.04s WALL (  181938 calls)
 
     Parallel routines
 
     PWSCF        :   3m40.84s CPU   3m58.56s WALL

 
   This run was terminated on:  14:27:52   5Apr2024            

=------------------------------------------------------------------------------=
   JOB DONE.
=------------------------------------------------------------------------------=
