
     Program PWSCF v.7.1 starts on  5Apr2024 at 11:55: 2 

     This program is part of the open-source Quantum ESPRESSO suite
     for quantum simulation of materials; please cite
         "P. Giannozzi et al., J. Phys.:Condens. Matter 21 395502 (2009);
         "P. Giannozzi et al., J. Phys.:Condens. Matter 29 465901 (2017);
         "P. Giannozzi et al., J. Chem. Phys. 152 154105 (2020);
          URL http://www.quantum-espresso.org", 
     in publications or presentations arising from this work. More details at
     http://www.quantum-espresso.org/quote

     Parallel version (MPI), running on     8 processors

     MPI processes distributed on     1 nodes
     240120 MiB available memory on the printing compute node when the environment starts
 
     Reading input from pw_ZrCl2_nscf_k1_E43.in
Warning: card &IONS ignored
Warning: card / ignored
Warning: card &CELL ignored
Warning: card / ignored

     Current dimensions of program PWSCF are:
     Max number of different atomic species (ntypx) = 10
     Max number of k-points (npk) =  40000
     Max angular momentum in pseudopotentials (lmaxx) =  4

     Atomic positions and unit cell read from directory:
     out/ZrCl2.save/
     Atomic positions from file used, from input discarded
 
 
     R & G space division:  proc/nbgrp/npool/nimage =       8
     Subspace diagonalization in iterative solution of the eigenvalue problem:
     one sub-group per band group will be used
     scalapack distributed-memory algorithm (size of sub-group:  2*  2 procs)

 
     Parallelization info
     --------------------
     sticks:   dense  smooth     PW     G-vecs:    dense   smooth      PW
     Min          62      62     18                 7596     7596    1214
     Max          63      63     19                 7619     7619    1227
     Sum         499     499    151                60875    60875    9767
 
     Using Slab Decomposition
 


     bravais-lattice index     =            4
     lattice parameter (alat)  =       6.4390  a.u.
     unit-cell volume          =    1592.7080 (a.u.)^3
     number of atoms/cell      =            3
     number of atomic types    =            2
     number of electrons       =        26.00
     number of Kohn-Sham states=         1200
     kinetic-energy cutoff     =      43.0000  Ry
     charge density cutoff     =     172.0000  Ry
     Exchange-correlation= PBE
                           (   1   4   3   4   0   0   0)

     celldm(1)=   6.438957  celldm(2)=   0.000000  celldm(3)=   6.889044
     celldm(4)=   0.000000  celldm(5)=   0.000000  celldm(6)=   0.000000

     crystal axes: (cart. coord. in units of alat)
               a(1) = (   1.000000   0.000000   0.000000 )  
               a(2) = (  -0.500000   0.866025   0.000000 )  
               a(3) = (   0.000000   0.000000   6.889044 )  

     reciprocal axes: (cart. coord. in units 2 pi/alat)
               b(1) = (  1.000000  0.577350  0.000000 )  
               b(2) = (  0.000000  1.154701  0.000000 )  
               b(3) = (  0.000000  0.000000  0.145158 )  


     PseudoPot. # 1 for Cl read from file:
     /usr/scratch4/magr4985/FGWC/FGWC/pseudo/SG15/Cl.upf
     MD5 check sum: 0f993535b366f580ecbcdacce103c843
     Pseudo is Norm-conserving, Zval =  7.0
     Generated using ONCVPSP code by D. R. Hamann
     Using radial grid of  602 points,  4 beta functions with: 
                l(1) =   0
                l(2) =   0
                l(3) =   1
                l(4) =   1

     PseudoPot. # 2 for Zr read from file:
     /usr/scratch4/magr4985/FGWC/FGWC/pseudo/SG15/Zr.upf
     MD5 check sum: ee74f20ae918ae65efd70112ea888f9c
     Pseudo is Norm-conserving, Zval = 12.0
     Generated using ONCVPSP code by D. R. Hamann
     Using radial grid of  602 points,  6 beta functions with: 
                l(1) =   0
                l(2) =   0
                l(3) =   1
                l(4) =   1
                l(5) =   2
                l(6) =   2

     atomic species   valence    mass     pseudopotential
        Cl             7.00    35.45300     Cl( 1.00)
        Zr            12.00    91.22400     Zr( 1.00)

     12 Sym. Ops. (no inversion) found



   Cartesian axes

     site n.     atom                  positions (alat units)
         1           Zr  tau(   1) = (   0.5000000   0.2886752   0.0000000  )
         2           Cl  tau(   2) = (   0.0000000   0.5773502   6.3856674  )
         3           Cl  tau(   3) = (   0.0000000   0.5773502   0.5033771  )

     number of k points=     2  Gaussian smearing, width (Ry)=  0.0005
                       cart. coord. in units 2pi/alat
        k(    1) = (   0.0000000   0.0000000   0.0000000), wk =   0.5000000
        k(    2) = (   0.0000000  -0.5773503   0.0000000), wk =   1.5000000

     Dense  grid:    60875 G-vectors     FFT dimensions: (  27,  27, 192)

     Estimated max dynamical RAM per process >     193.14 MB

     Estimated total dynamical RAM >       1.51 GB

     The potential is recalculated from file :
     out/ZrCl2.save/charge-density

     Starting wfcs are random

     Band Structure Calculation
     Davidson diagonalization with overlap

     ethr =  5.00E-06,  avg # of iterations = 11.0

     total cpu time spent up to now is      160.5 secs

     End of band structure calculation

          k = 0.0000 0.0000 0.0000 (  7629 PWs)   bands (ev):

   -50.0008 -28.2632 -27.7812 -27.7812 -18.1005 -17.5137  -7.4780  -5.4681
    -4.8934  -4.8934  -4.6537  -4.6537  -0.8825   0.8419   0.8419   1.6970
     1.6970   1.9824   3.2257   3.4327   3.9805   4.4331   5.2480   5.4595
     6.6627   7.6485   9.0773   9.0773   9.2798   9.5682  10.3589  10.7065
    10.7065  12.3919  12.6193  12.9585  13.6074  13.6074  13.9805  13.9805
    15.6211  15.8281  16.5361  17.1259  19.2782  19.2782  19.7721  20.0263
    20.0263  20.3062  20.3772  20.5229  20.5229  20.5834  20.5834  20.8150
    20.8304  20.9855  20.9855  21.0237  21.1429  21.1758  21.1758  21.3869
    21.5691  21.5691  21.6705  21.8075  21.8075  21.8277  21.8277  22.0544
    22.5294  22.5649  22.5649  22.8719  23.1592  23.1592  23.2864  23.2864
    23.3550  23.6886  23.6886  24.0489  24.0787  24.4463  24.4463  24.6779
    25.2423  25.2423  25.2546  25.3274  25.3274  25.6477  25.9069  26.2074
    26.2074  26.4829  26.4829  26.8890  26.9575  27.6241  27.6241  27.6911
    27.9184  27.9184  28.5800  29.0594  29.0817  29.0817  29.2790  29.2790
    29.9271  29.9441  29.9441  30.1641  30.9299  30.9299  31.1539  31.2017
    31.6571  31.6571  32.1762  32.2205  32.5724  32.5724  32.8408  32.8408
    33.1431  33.1444  33.9466  34.0068  34.0068  34.7048  34.7048  35.3976
    35.6017  35.6017  35.7437  35.8947  35.8947  36.2428  37.1025  37.1025
    37.4557  37.7101  37.9615  37.9615  37.9638  37.9638  38.7598  39.2985
    39.2985  40.0129  40.0491  40.0491  40.2274  40.7108  41.1976  41.5132
    41.5132  42.8222  42.8222  43.1141  43.3423  43.3423  43.5252  43.5594
    44.0614  44.8419  44.8419  45.2462  45.4935  45.9109  45.9109  46.2971
    46.4707  46.4707  46.7845  47.4884  47.7349  47.7349  48.1690  48.1690
    48.4883  49.3087  49.3087  49.3931  49.8596  49.8596  50.0413  50.1779
    50.1779  51.2019  51.2409  51.4144  51.6846  51.6846  51.8462  52.5570
    52.5570  52.8105  53.1234  53.1234  53.4387  54.0720  54.1059  54.1059
    54.1076  54.1076  54.2482  54.8370  54.8370  54.9612  55.3374  55.3374
    55.4681  55.5207  55.5637  55.5637  55.5644  55.5944  55.6182  55.6182
    55.7995  55.7995  55.8304  55.8304  55.8934  55.8934  55.9634  56.2141
    56.2141  56.2443  56.6015  56.6785  56.7377  56.7707  56.7990  56.7990
    56.9711  57.0526  57.0526  57.2482  57.2482  57.2703  57.2703  57.7130
    57.8233  57.8233  58.5211  58.5211  58.5336  58.5336  58.6614  58.6967
    58.7190  58.7847  59.0489  59.0489  59.1726  59.3449  59.3449  59.4156
    59.4156  59.5106  59.8270  60.2637  60.2637  60.4088  60.4088  60.4122
    61.3381  61.3416  61.5141  61.5141  61.5979  61.5979  61.8182  61.8716
    61.9485  62.2673  62.2673  62.4370  62.4889  62.4889  62.5055  62.5055
    63.3315  63.3315  63.4829  63.4829  63.9635  64.1057  64.1057  64.1617
    64.2524  64.6295  64.6375  64.6595  64.6595  65.0695  65.0695  65.4919
    65.9781  65.9781  66.5599  66.5599  66.5692  66.9980  67.1471  67.1471
    67.4124  67.5437  67.8042  67.8042  68.4219  68.4219  68.4927  68.5147
    68.5594  68.6250  68.9383  68.9383  69.6088  69.6359  69.6359  69.7283
    69.7283  70.0946  70.0946  70.3213  70.3213  70.4666  70.5687  71.1964
    71.1964  71.2497  71.2497  71.4730  71.5130  71.6598  71.6598  71.9921
    71.9921  72.1692  72.5151  72.6059  72.6059  72.6120  72.6120  72.7023
    72.8039  72.8039  72.8564  72.8934  72.9028  72.9350  72.9350  72.9425
    72.9425  73.0813  73.0854  73.4853  73.4853  73.6190  73.6455  73.6455
    73.6865  73.6865  73.7845  73.7845  73.8874  73.8890  73.9713  74.2854
    74.6412  74.7735  74.7735  74.8652  74.8652  75.2188  75.2188  75.3594
    75.3782  75.3782  75.7402  75.7840  75.7899  75.9405  75.9405  75.9619
    75.9753  75.9753  76.0723  76.5193  76.5193  76.6592  76.6592  76.9191
    77.1975  77.1975  77.4764  77.6059  77.6059  77.7820  77.8444  77.8994
    78.0615  78.0615  78.0850  78.0850  78.1801  78.3919  78.3919  78.4163
    78.4163  78.6196  78.6196  78.6402  78.6402  78.6444  78.7314  78.9057
    79.0133  80.4038  80.4038  80.4229  80.4229  80.5206  80.5773  80.5773
    80.7626  80.9088  80.9088  81.5400  81.6286  81.6286  81.6442  81.7167
    81.8237  82.2013  82.2013  82.8218  82.8218  82.9437  82.9437  82.9870
    83.1698  83.4764  83.7656  83.7656  83.8252  83.9745  84.1077  84.3464
    84.3464  84.5534  84.5534  84.8986  84.8986  84.9249  84.9918  85.4320
    85.4320  85.5430  85.5510  85.5510  85.7686  85.8963  86.2348  86.2348
    86.5342  86.5342  86.6559  86.8487  86.8487  87.0292  87.0292  87.2523
    87.4778  87.7891  87.9648  87.9648  88.1444  88.1444  88.8529  88.8807
    88.8807  88.9186  89.4244  89.4244  89.6516  89.6516  89.7876  89.8989
    89.9797  89.9962  89.9962  90.1426  90.1426  90.2436  90.4864  90.8270
    91.1971  91.1971  91.2563  91.7130  91.8124  92.0632  92.0632  92.9590
    92.9590  93.2999  93.2999  93.3206  93.7357  93.7357  93.9527  93.9527
    94.2517  94.2517  94.3983  94.3983  94.4946  94.6219  94.9052  94.9052
    94.9496  95.2175  95.6246  95.6794  95.6794  95.8897  95.8897  96.0567
    96.1112  96.1112  96.1329  96.1329  96.5607  96.5794  96.5794  96.6264
    96.9610  97.2790  97.5416  97.7585  97.7585  98.5991  98.5991  99.3289
    99.6332  99.6912  99.6912  99.7650  99.9226  99.9226 100.1961 100.1961
   100.4971 100.5680 100.8390 101.2985 101.4236 101.4601 101.4601 101.5384
   101.8600 101.8600 101.9497 101.9497 102.4098 102.4098 102.7261 103.0827
   103.0827 103.0901 103.0901 103.5769 103.5769 104.0190 104.3144 104.3196
   104.3196 104.3869 104.4353 104.5348 104.5348 104.7634 104.9516 104.9516
   105.4605 105.4605 105.7290 106.0990 106.0990 106.1631 106.1631 106.2621
   106.5347 106.5347 106.6583 106.8656 106.9558 107.4968 107.4968 107.7266
   107.8414 108.2616 108.2616 108.2942 108.5259 108.5259 109.3234 109.3234
   109.3982 109.3982 109.7255 109.9233 109.9233 110.2535 110.5567 110.5567
   110.8744 111.0122 111.1442 111.1930 111.1930 111.8925 111.9717 112.1999
   112.2109 112.2109 112.4781 112.4781 112.8561 112.9642 112.9642 113.1218
   113.3347 113.3347 113.4860 113.5081 113.5081 113.8748 113.8748 114.2622
   114.3878 114.3878 114.6360 114.7838 114.8670 114.8670 115.0522 115.3025
   115.3025 115.4294 115.4294 115.7383 115.9786 115.9786 116.4492 116.4492
   116.7164 116.7557 116.7557 116.9571 117.2649 117.2649 117.9257 118.1137
   118.2033 118.2033 118.3232 118.3232 118.4252 119.0637 119.0752 119.3932
   119.3932 119.8762 119.8762 119.9080 119.9274 120.2415 120.4866 120.5722
   120.5722 120.6464 120.6464 121.1616 121.1616 121.4414 121.4414 121.4791
   121.6782 121.6990 121.8808 121.8808 122.1205 122.1800 122.1800 122.2935
   122.3889 123.1397 123.1649 123.4618 123.4618 123.6828 123.6828 123.6985
   123.6985 123.8181 123.8181 123.8790 124.1668 124.1668 124.1908 124.2284
   124.2284 124.2548 124.2666 124.4947 124.4947 124.5046 124.5620 124.5620
   124.5943 124.6228 124.6247 124.6247 124.6688 124.6688 124.7023 124.7023
   124.7335 124.7336 124.7377 124.7421 124.7548 124.8846 124.8846 124.8851
   124.8851 124.8922 125.1315 125.1315 125.1923 125.1923 125.2830 125.2830
   125.3017 125.3730 125.4222 125.4222 125.4678 125.5069 125.5448 125.5448
   125.5707 125.7121 125.7121 125.7698 125.7698 125.8124 125.8765 125.9473
   125.9584 125.9584 126.0066 126.1173 126.1173 126.1516 126.1516 126.3897
   126.3898 126.3994 126.3994 126.5673 127.0229 127.0473 127.2407 127.2412
   127.2894 127.2894 127.3710 127.3710 127.4048 127.4374 127.4374 127.4414
   127.4414 127.8235 127.8235 127.8366 127.8367 127.9490 127.9793 128.0880
   128.0880 128.0912 128.0912 128.3098 128.4218 128.5634 128.7509 128.7509
   128.8627 128.8627 128.9515 129.0766 129.0803 129.1865 129.1865 129.1907
   129.1907 129.4190 129.6355 129.6528 129.6528 129.7531 129.8000 129.8000
   129.9546 129.9546 129.9936 130.1014 130.1014 130.1937 130.2029 130.2441
   130.4033 130.4476 130.5598 130.5598 130.5717 130.5717 130.7317 130.7317
   130.8275 130.8321 130.8546 130.8546 131.4119 131.4119 131.7406 132.1651
   132.1651 132.2225 132.2225 132.3461 132.3461 132.5392 132.5947 133.0868
   133.0986 133.1627 133.2299 133.3346 133.3346 133.4880 133.6114 133.6114
   133.7339 133.7339 133.8691 133.8691 134.0644 134.0644 134.0874 134.0907
   134.1317 134.1317 134.5454 134.5454 134.6993 135.0226 135.0226 135.1271
   135.1271 135.1312 135.2167 135.2167 135.2792 135.2792 135.6535 135.6969
   135.6969 135.7148 135.9050 135.9050 136.0175 136.5058 136.5898 136.6373
   136.6465 136.7499 136.7499 136.7893 136.9147 136.9147 137.2220 137.2220
   137.2810 137.2810 137.3476 137.4425 137.4425 137.5326 137.6532 137.6532
   137.8903 137.8903 137.9020 137.9020 137.9660 137.9929 137.9938 138.3997
   138.3997 138.4159 138.4159 138.6161 138.6221 138.6221 138.6405 138.6405
   138.6567 138.7228 138.7228 139.0111 139.0239 139.0652 139.6301 139.6301
   139.6576 139.7476 139.7476 140.0166 140.0977 140.4774 140.4774 140.8359
   141.1192 141.2276 141.2276 141.3641 141.3641 141.5029 141.5171 141.5582
   141.9557 141.9557 141.9571 141.9571 142.2466 142.2466 142.4832 142.4832
   142.5628 142.5709 142.6452 143.1155 143.3953 143.3953 143.4361 143.4361
   143.8431 143.8936 143.8936 143.9819 144.0956 144.0956 144.3140 144.3354
   144.3354 144.3410 144.7125 144.7125 144.7303 145.3263 145.6304 145.6304
   145.6651 145.9266 145.9763 145.9763 146.0871 146.2704 146.2704 146.3527
   146.3527 146.3813 146.6609 146.6609 146.8484 146.8484 146.9281 146.9447
   146.9447 147.0801 147.0801 147.2504 147.6250 147.6479 147.6978 147.6978
   147.7943 147.9206 147.9206 147.9955 147.9955 148.2981 148.3224 148.3927
   148.3927 148.5714 148.5714 148.6106 148.6106 148.6798 148.8936 148.8936
   149.0223 149.0223 149.0460 149.0460 149.1267 149.1303 149.2323 149.3428
   149.9344 149.9344 150.4983 150.4983 150.7305 150.8940 151.0440 151.0440
   151.6068 151.7576 151.7576 151.9639 152.1453 152.2840 152.2840 152.4524
   152.6865 152.6865 152.7590 152.7590 152.8094 152.8094 153.1620 153.1973
   153.2699 153.3521 153.5985 153.5985 154.1465 154.1465 154.3307 154.3307
   154.4211 154.4539 154.6738 154.6738 154.6835 154.6835 154.9192 154.9192
   155.1157 155.4661 155.7357 155.7492 155.7492 156.1259 156.1259 156.2046
   156.4437 156.4523 156.8314 156.8314 156.9068 157.1236 157.1236 157.3565
   157.4489 157.5408 157.5408 157.6456 157.8090 157.8123 157.8123 158.0988
   158.1393 158.1393 158.3441 158.3441 158.6063 158.6069 158.6069 158.6639
   158.9474 159.0581 159.0581 159.0683 159.0683 159.2272 159.2329 159.2329
   159.2449 159.2449 159.2627 159.3483 159.3483 159.3531 159.3793 159.3793
   159.4379 159.4544 159.4544 159.4986 159.5726 159.6399 159.6399 159.6585
   159.6585 159.6971 159.7675 159.7675 159.8373 159.8373 160.1907 160.1907
   160.2036 160.2221 160.2552 160.2933 160.2933 160.3538 160.3670 160.4394
   160.4394 160.4464 160.4464 160.9835 160.9880 161.0526 161.0526 161.0579
   161.0579 161.3021 161.3266 161.3266 161.4020 161.4020 161.6658 161.7560
   161.7560 161.7954 161.7978 162.1056 162.1056 162.2521 162.6259 162.6259
   162.8281 162.8281 162.8584 163.2291 163.2291 163.2814 163.2814 163.5157
   163.8772 164.0157 164.0157 164.2187 164.4612 164.4795 164.4795 164.5630
   164.7571 164.7652 164.7652 164.8446 164.8446 164.8884 165.0475 165.0475
   165.0591 165.0591 165.2790 165.4526 165.4833 165.4833 165.4932 165.4932

          k = 0.0000-0.5774 0.0000 (  7602 PWs)   bands (ev):

   -49.9535 -28.2796 -28.1257 -27.8883 -17.3240 -17.2752  -7.5859  -7.0471
    -6.4055  -5.6123  -5.4743  -4.9286  -1.3968   2.0350   2.5407   2.7195
     3.0741   4.8156   5.2973   6.1974   6.8761   7.2690   7.4623   7.7723
     8.0960   8.3265   8.4584   8.8014   9.0206   9.1407   9.8333   9.8583
    10.0339  10.6458  11.3701  11.7509  12.0916  12.4807  12.8085  13.2118
    13.6442  14.3794  14.6505  14.8953  15.0145  15.0743  15.5599  15.9857
    16.1314  16.5929  16.6256  16.7020  16.7178  16.8510  17.0074  17.6646
    17.8780  17.9299  18.0158  18.2048  19.1555  19.1623  19.3342  19.3618
    19.7890  19.8455  20.2084  20.4638  20.5040  20.8790  21.4922  21.7840
    22.0192  22.0254  22.5843  23.1880  23.5944  23.9022  23.9715  24.6654
    24.8494  24.9831  25.7377  25.9555  26.0298  26.6073  26.6776  27.5181
    27.6240  27.8263  28.3802  28.4736  28.5222  29.2644  29.3003  29.6814
    29.8681  29.9000  31.0662  31.1935  31.3496  31.8379  31.9942  32.1253
    32.2791  32.3956  32.6303  33.0372  33.0771  33.1865  33.4160  33.7833
    33.8740  33.8780  33.8823  33.9791  33.9898  34.2186  34.3739  34.3920
    34.3963  34.5475  34.8416  34.8714  34.8774  35.0308  35.2417  35.6414
    35.8748  35.8801  36.0754  36.1184  36.2054  36.3925  36.5475  36.6654
    37.0142  37.0886  37.2261  37.5543  37.6658  37.9556  38.0950  38.2547
    38.4517  38.5161  38.9316  39.0374  39.2678  39.2821  39.6659  39.9399
    40.0016  40.5164  40.6658  40.8098  40.8467  41.0256  41.1321  41.4218
    41.5157  41.5671  41.6195  41.7199  42.2705  42.3138  42.3804  42.5858
    42.7146  42.7529  42.8373  42.9046  43.0376  43.2419  43.3500  43.4664
    43.5094  43.8050  43.9287  44.3260  44.4102  44.5036  44.6895  44.7264
    44.8335  45.1513  45.3044  45.4709  45.6914  45.8970  46.1196  46.2256
    46.3567  46.5841  46.9349  47.2239  47.4446  47.5713  47.6726  47.6784
    47.9098  47.9533  48.3040  48.3692  48.3814  48.5112  49.0680  49.3364
    49.4734  49.5391  49.5909  49.9698  50.4777  51.1046  51.1157  51.1715
    51.2012  51.2851  51.3136  51.7480  51.8865  52.0029  52.2153  52.2351
    52.5469  52.7898  53.0208  53.0941  53.8008  53.8463  54.2831  54.4979
    54.7141  55.0810  55.1056  55.3381  55.5184  55.7225  55.7932  55.8666
    56.0343  56.2862  56.3835  56.6289  56.8742  57.0463  57.0469  57.4979
    57.6840  57.8015  58.1825  58.4068  58.4407  58.5173  58.6245  59.0255
    59.0258  59.1575  59.3723  59.3953  59.5846  59.6817  59.7285  59.7417
    59.8448  59.9333  59.9913  60.1836  60.2915  60.4902  60.4910  60.5355
    60.5532  60.6318  60.7006  60.8562  61.1618  61.1757  61.3679  61.5541
    61.5554  61.6495  61.6989  61.7486  61.8381  61.9947  62.2375  62.5306
    62.5885  62.8246  63.0944  63.1217  63.1918  63.3734  63.5694  63.7601
    63.7986  63.9919  63.9984  64.0366  64.2903  64.4367  64.4764  64.6855
    64.8344  65.0703  65.0757  65.1595  65.4483  65.4963  65.7023  65.9105
    66.1883  66.2065  66.3108  66.4224  66.8573  66.8714  66.9589  66.9888
    67.1368  67.2208  67.3346  67.4753  67.6142  67.9404  68.0730  68.3280
    68.3999  68.5259  69.0563  69.1693  69.2059  69.2202  69.3408  69.6396
    69.7429  69.8283  70.3585  70.8929  70.9263  70.9320  71.1703  71.1836
    71.5395  71.6258  71.8453  71.9795  72.0123  72.3548  72.4476  72.6653
    72.7805  73.0843  73.1455  73.4115  73.7745  73.7847  73.8045  73.9652
    73.9668  74.0073  74.5577  74.6336  74.6936  74.8348  75.1244  75.2685
    75.5759  75.6758  75.9649  76.0193  76.0441  76.4102  76.5684  76.9704
    77.0372  77.2836  77.3115  77.3346  77.3719  77.6440  77.6647  77.7781
    78.6034  79.2436  79.2575  79.2764  79.6743  79.7701  80.0146  80.0446
    80.0493  80.1131  80.1140  80.4115  80.4693  80.5595  80.5675  80.6159
    81.1716  81.4846  81.5940  81.8056  81.9116  81.9614  81.9887  82.0249
    82.5894  82.7208  82.7554  82.8237  82.8475  83.1581  83.3370  83.4432
    83.4447  83.4854  83.6999  84.1801  84.3738  84.3982  84.6112  84.6670
    84.7484  85.3256  85.3485  85.4038  85.4079  85.5835  85.6994  85.7531
    85.7879  85.7902  85.8717  85.9340  85.9390  85.9817  85.9851  86.5499
    86.5557  86.6628  86.6853  86.6979  86.8067  86.8220  87.0044  87.1837
    87.1918  87.5568  87.7866  87.8999  87.9466  87.9947  88.1602  88.2179
    88.4137  88.4492  88.5534  88.6110  88.8478  88.9954  89.2526  89.2919
    89.3212  89.3716  89.5290  89.5325  89.6826  89.7406  89.7649  89.8248
    90.0387  90.0735  90.1947  90.6081  90.6517  90.8083  90.8315  91.0492
    91.1320  91.2968  91.4128  91.5793  91.6191  91.6399  91.6600  91.6700
    91.7140  91.8182  92.1004  92.3002  92.3792  92.4885  92.5119  92.7806
    92.8170  92.9298  92.9515  93.0853  93.4327  93.4911  93.5273  93.6779
    93.6787  93.7615  94.0098  94.2666  94.3462  94.3715  94.4292  94.4498
    94.4778  94.5044  94.5194  94.5987  94.6326  94.6351  94.6986  94.9233
    95.0333  95.1677  95.3021  95.3210  95.3735  95.4494  95.5040  95.5494
    95.6150  95.6505  95.8294  95.9384  96.2655  96.2745  96.3225  96.3635
    96.3841  96.4689  96.5876  96.7937  96.8069  97.1499  97.3473  97.4272
    97.5320  97.6450  97.6755  97.7440  97.8456  97.8514  98.1251  98.2456
    98.2544  98.6400  98.7009  98.7849  98.8869  98.9640  99.1327  99.1998
    99.2261  99.2946  99.3836  99.4937  99.6366  99.6952  99.7001  99.7034
    99.8932  99.9778 100.0351 100.0741 100.1183 100.2478 100.4556 100.4683
   100.6612 100.7084 100.8660 100.9776 101.2247 101.2514 101.3667 101.3885
   101.3905 101.5101 101.9736 102.0563 102.3765 102.3819 102.4353 102.5448
   102.6635 102.6782 102.7156 103.2128 103.2437 103.3826 103.4118 103.5804
   103.6098 103.8243 103.9798 104.1741 104.5318 104.6152 104.7302 104.8009
   105.1495 105.1778 105.3811 105.3990 105.5291 105.7944 106.2568 106.2600
   106.3302 106.6224 106.6329 106.8715 106.9773 107.2124 107.3962 107.4373
   107.5253 107.5393 107.6313 107.7968 107.8063 108.1584 108.2306 108.2849
   108.3001 108.5068 108.6080 108.6487 108.7209 108.7521 108.9018 108.9172
   108.9485 109.0890 109.4662 109.6403 109.7090 109.8113 109.8836 110.2662
   110.3042 110.3577 110.3958 110.4977 110.5070 110.7187 111.0390 111.1302
   111.2316 111.3197 111.4971 111.5173 111.6787 111.6886 111.8587 111.9335
   112.1037 112.1155 112.4558 112.5109 112.6773 112.7006 112.7072 112.7715
   112.8662 112.9942 113.0006 113.1609 113.2612 113.2798 113.2870 113.4696
   113.5842 113.8200 113.9594 114.1740 114.3641 114.3867 114.4290 114.8105
   114.8692 114.9980 115.0361 115.1224 115.1467 115.2752 115.5239 115.6597
   115.7159 115.8800 115.9045 116.1180 116.2988 116.4079 116.4699 116.5886
   116.6729 116.9535 117.0988 117.0991 117.1112 117.3033 117.3455 117.3998
   117.4316 117.4927 117.5280 117.5386 117.8053 117.9579 118.0847 118.4419
   118.6053 118.6430 118.7448 118.9964 119.0368 119.2155 119.3952 119.4717
   119.5535 119.6068 119.7623 119.8432 120.0011 120.1694 120.1739 120.1779
   120.2423 120.3463 120.4748 120.4901 120.4993 120.5759 120.6132 120.7036
   120.9379 120.9519 120.9631 121.1585 121.2645 121.3085 121.3490 121.6588
   121.7006 121.7016 121.7427 122.2873 122.2904 122.3505 122.3798 122.5750
   122.7158 122.7308 123.1373 123.1574 123.3226 123.3781 123.5027 123.5451
   123.5866 123.6323 123.7894 123.9047 123.9110 123.9411 123.9629 124.1756
   124.2390 124.5800 124.6203 124.6441 124.7872 124.9816 125.2068 125.5833
   125.6270 125.7522 125.8186 125.8554 125.9733 126.0976 126.2752 126.2874
   126.3149 126.4949 126.5651 126.5896 126.6855 126.8219 126.9439 127.2022
   127.2562 127.3987 127.6266 127.6748 127.7188 127.9132 128.0785 128.1055
   128.1395 128.2539 128.3697 128.3935 128.5239 128.7202 128.7760 128.8136
   129.1271 129.1610 129.1852 129.3092 129.3404 129.4049 129.8195 130.2717
   130.3794 130.5899 130.6640 130.7320 130.7440 130.8274 131.2804 131.4096
   131.5440 131.6314 131.6511 131.7100 131.7859 132.0013 132.3608 132.5189
   132.5390 132.5749 132.6060 132.6266 133.0226 133.0782 133.2444 133.2927
   133.4734 133.5573 133.6767 133.6835 133.7386 133.8721 134.1106 134.1257
   134.2632 134.5344 134.7331 134.8457 134.8576 134.9572 134.9869 135.1749
   135.2160 135.3163 135.5309 135.6000 135.7387 135.8710 135.9161 135.9228
   135.9348 136.0094 136.1753 136.5208 136.6919 136.7887 136.9997 137.0819
   137.2340 137.2367 137.2459 137.3252 137.4037 137.4346 137.5620 137.5775
   137.5913 137.6088 137.6485 137.6806 137.8051 137.8090 137.8113 137.9096
   138.2072 138.2283 138.2472 138.2478 138.4042 138.4524 138.4787 138.5254
   138.6608 138.7449 138.7783 138.8285 138.9108 139.0550 139.2007 139.4248
   139.5525 139.6493 139.7645 139.7794 139.8277 139.8413 140.1562 140.2277
   140.2779 140.4932 140.5657 140.7422 140.7583 140.8512 140.9141 140.9284
   141.0666 141.1350 141.1612 141.3542 141.4866 141.7168 141.7851 141.8100
   142.1094 142.2767 142.3124 142.4764 142.4993 142.5292 142.7130 142.8898
   142.9741 143.1108 143.1428 143.1636 143.1639 143.2849 143.2967 143.3360
   143.4065 143.6319 143.6894 143.8099 143.8998 143.9370 143.9513 144.0089
   144.2126 144.2563 144.3849 144.5111 144.5726 144.8125 144.8452 145.3561
   145.6375 145.6836 145.7886 145.9434 145.9879 145.9915 146.0455 146.1185
   146.1803 146.1926 146.2462 146.2730 146.7811 146.9499 147.0021 147.2324
   147.3744 147.4504 147.5622 147.5837 147.7659 147.8165 147.8200 147.8412
   148.0547 148.3895 148.3949 148.5736 148.7354 148.8249 148.8287 149.0177
   149.0200 149.2216 149.3430 149.5013 149.5382 149.6680 149.6791 149.8670
   150.0023 150.0351 150.0797 150.4342 150.4617 150.5492 150.6078 150.7422
   150.7622 151.0260 151.0303 151.1199 151.1536 151.2767 151.4312 151.4890
   151.6919 151.8116 151.8988 151.9076 151.9546 152.1302 152.3631 152.6378
   152.7710 152.8926 153.0899 153.0976 153.1731 153.3654 153.4341 153.6648
   154.0751 154.1196 154.1235 154.1369 154.3104 154.3941 154.5059 154.5093
   154.7893 154.9210 154.9422 155.0469 155.2614 155.4964 155.5676 155.6013
   155.8333 155.8659 155.9878 156.0404 156.0659 156.4923 156.6260 156.7595
   156.7914 156.8620 156.9008 156.9031 157.3493 157.3634 157.5135 157.8689
   157.9069 158.1877 158.2974 158.3607 158.4776 158.7168 158.7436 158.8045
   158.8987 158.9463 159.0221 159.1369 159.1575 159.1871 159.4596 159.4866
   159.5978 159.6364 159.7115 159.7386 160.0671 160.0712 160.1686 160.2081
   160.2544 160.3315 160.4139 160.5656 160.5789 160.6101 160.8935 161.0299
   161.0682 161.1133 161.1156 161.2592 161.2664 161.3825 161.4501 161.5011
   161.5755 161.9312 162.2585 162.2762 162.4175 162.6541 162.7596 162.8074
   162.8279 162.8993 162.9916 163.0469 163.2341 163.3249 163.4188 163.4199
   163.4560 163.5013 163.5494 163.6077 163.7263 163.8620 163.8706 163.9085
   164.0062 164.1066 164.2331 164.2921 164.3147 164.3243 164.3459 164.4823
   164.7012 164.8615 164.9036 164.9425 165.1620 165.3205 165.3216 165.4330
   165.4588 165.5388 165.5698 165.7530 165.7695 165.8430 165.9770 165.9989
   165.9999 166.2374 166.3148 166.3852 166.5156 166.5556 166.6340 166.7373
   166.8145 166.8358 166.8582 166.8642 167.0103 167.1189 167.2529 167.2796
   167.4560 167.5144 167.7120 168.0319 168.0506 168.0926 168.2043 168.4873
   168.5236 168.5935 168.6381 168.6891 168.7010 168.7998 168.8028 168.9327
   168.9334 168.9761 169.0114 169.0174 169.0695 169.0944 169.1150 169.3116

     the Fermi energy is    -0.3470 ev
     (compare with:     0.1195 eV, computed in scf)

     Writing all to output data dir out/ZrCl2.save/
 
     init_run     :      0.17s CPU      0.19s WALL (       1 calls)
     electrons    :    155.38s CPU    160.01s WALL (       1 calls)

     Called by init_run:
     wfcinit      :      0.00s CPU      0.00s WALL (       1 calls)
     potinit      :      0.02s CPU      0.02s WALL (       1 calls)
     hinit0       :      0.04s CPU      0.06s WALL (       1 calls)

     Called by electrons:
     c_bands      :    155.38s CPU    160.01s WALL (       1 calls)
     v_of_rho     :      0.02s CPU      0.02s WALL (       1 calls)

     Called by c_bands:
     init_us_2    :      0.00s CPU      0.00s WALL (       2 calls)
     init_us_2:cp :      0.00s CPU      0.00s WALL (       2 calls)
     cegterg      :    151.53s CPU    156.04s WALL (       2 calls)

     Called by *egterg:
     cdiaghg      :    133.93s CPU    138.20s WALL (      24 calls)
     h_psi        :      4.65s CPU      4.74s WALL (      26 calls)
     g_psi        :      0.03s CPU      0.03s WALL (      22 calls)

     Called by h_psi:
     h_psi:calbec :      0.08s CPU      0.09s WALL (      26 calls)
     vloc_psi     :      4.47s CPU      4.55s WALL (      26 calls)
     add_vuspsi   :      0.07s CPU      0.07s WALL (      26 calls)

     General routines
     calbec       :      0.08s CPU      0.09s WALL (      26 calls)
     fft          :      0.01s CPU      0.03s WALL (      10 calls)
     fftw         :      4.15s CPU      4.22s WALL (   38362 calls)
 
     Parallel routines
 
     PWSCF        :   2m36.04s CPU   2m40.96s WALL

 
   This run was terminated on:  11:57:43   5Apr2024            

=------------------------------------------------------------------------------=
   JOB DONE.
=------------------------------------------------------------------------------=
