
     Program PWSCF v.7.1 starts on  5Apr2024 at 12:45:37 

     This program is part of the open-source Quantum ESPRESSO suite
     for quantum simulation of materials; please cite
         "P. Giannozzi et al., J. Phys.:Condens. Matter 21 395502 (2009);
         "P. Giannozzi et al., J. Phys.:Condens. Matter 29 465901 (2017);
         "P. Giannozzi et al., J. Chem. Phys. 152 154105 (2020);
          URL http://www.quantum-espresso.org", 
     in publications or presentations arising from this work. More details at
     http://www.quantum-espresso.org/quote

     Parallel version (MPI), running on     8 processors

     MPI processes distributed on     1 nodes
     232515 MiB available memory on the printing compute node when the environment starts
 
     Reading input from pw_ZrCl2_nscf_k55_E43.in
Warning: card &IONS ignored
Warning: card / ignored
Warning: card &CELL ignored
Warning: card / ignored

     Current dimensions of program PWSCF are:
     Max number of different atomic species (ntypx) = 10
     Max number of k-points (npk) =  40000
     Max angular momentum in pseudopotentials (lmaxx) =  4

     Atomic positions and unit cell read from directory:
     out/ZrCl2.save/
     Atomic positions from file used, from input discarded
 
 
     R & G space division:  proc/nbgrp/npool/nimage =       8
     Subspace diagonalization in iterative solution of the eigenvalue problem:
     one sub-group per band group will be used
     scalapack distributed-memory algorithm (size of sub-group:  2*  2 procs)

 
     Parallelization info
     --------------------
     sticks:   dense  smooth     PW     G-vecs:    dense   smooth      PW
     Min          62      62     18                 7596     7596    1258
     Max          63      63     19                 7619     7619    1275
     Sum         499     499    151                60875    60875   10163
 
     Using Slab Decomposition
 


     bravais-lattice index     =            4
     lattice parameter (alat)  =       6.4390  a.u.
     unit-cell volume          =    1592.7080 (a.u.)^3
     number of atoms/cell      =            3
     number of atomic types    =            2
     number of electrons       =        26.00
     number of Kohn-Sham states=         1200
     kinetic-energy cutoff     =      43.0000  Ry
     charge density cutoff     =     172.0000  Ry
     Exchange-correlation= PBE
                           (   1   4   3   4   0   0   0)

     celldm(1)=   6.438957  celldm(2)=   0.000000  celldm(3)=   6.889044
     celldm(4)=   0.000000  celldm(5)=   0.000000  celldm(6)=   0.000000

     crystal axes: (cart. coord. in units of alat)
               a(1) = (   1.000000   0.000000   0.000000 )  
               a(2) = (  -0.500000   0.866025   0.000000 )  
               a(3) = (   0.000000   0.000000   6.889044 )  

     reciprocal axes: (cart. coord. in units 2 pi/alat)
               b(1) = (  1.000000  0.577350  0.000000 )  
               b(2) = (  0.000000  1.154701  0.000000 )  
               b(3) = (  0.000000  0.000000  0.145158 )  


     PseudoPot. # 1 for Cl read from file:
     /usr/scratch4/magr4985/FGWC/FGWC/pseudo/SG15/Cl.upf
     MD5 check sum: 0f993535b366f580ecbcdacce103c843
     Pseudo is Norm-conserving, Zval =  7.0
     Generated using ONCVPSP code by D. R. Hamann
     Using radial grid of  602 points,  4 beta functions with: 
                l(1) =   0
                l(2) =   0
                l(3) =   1
                l(4) =   1

     PseudoPot. # 2 for Zr read from file:
     /usr/scratch4/magr4985/FGWC/FGWC/pseudo/SG15/Zr.upf
     MD5 check sum: ee74f20ae918ae65efd70112ea888f9c
     Pseudo is Norm-conserving, Zval = 12.0
     Generated using ONCVPSP code by D. R. Hamann
     Using radial grid of  602 points,  6 beta functions with: 
                l(1) =   0
                l(2) =   0
                l(3) =   1
                l(4) =   1
                l(5) =   2
                l(6) =   2

     atomic species   valence    mass     pseudopotential
        Cl             7.00    35.45300     Cl( 1.00)
        Zr            12.00    91.22400     Zr( 1.00)

     12 Sym. Ops. (no inversion) found



   Cartesian axes

     site n.     atom                  positions (alat units)
         1           Zr  tau(   1) = (   0.5000000   0.2886752   0.0000000  )
         2           Cl  tau(   2) = (   0.0000000   0.5773502   6.3856674  )
         3           Cl  tau(   3) = (   0.0000000   0.5773502   0.5033771  )

     number of k points=     7  Gaussian smearing, width (Ry)=  0.0005
                       cart. coord. in units 2pi/alat
        k(    1) = (   0.0000000   0.0000000   0.0000000), wk =   0.0555556
        k(    2) = (   0.0000000   0.1924501   0.0000000), wk =   0.3333333
        k(    3) = (   0.0000000   0.3849002   0.0000000), wk =   0.3333333
        k(    4) = (   0.0000000  -0.5773503   0.0000000), wk =   0.1666667
        k(    5) = (   0.1666667   0.2886751   0.0000000), wk =   0.3333333
        k(    6) = (   0.1666667   0.4811252   0.0000000), wk =   0.6666667
        k(    7) = (   0.3333333   0.5773503   0.0000000), wk =   0.1111111

     Dense  grid:    60875 G-vectors     FFT dimensions: (  27,  27, 192)

     Estimated max dynamical RAM per process >     279.93 MB

     Estimated total dynamical RAM >       2.19 GB

     The potential is recalculated from file :
     out/ZrCl2.save/charge-density

     Starting wfcs are random

     Band Structure Calculation
     Davidson diagonalization with overlap

     ethr =  5.00E-06,  avg # of iterations = 11.0

     total cpu time spent up to now is      523.4 secs

     End of band structure calculation

          k = 0.0000 0.0000 0.0000 (  7629 PWs)   bands (ev):

   -50.0008 -28.2632 -27.7812 -27.7812 -18.1005 -17.5137  -7.4780  -5.4681
    -4.8934  -4.8934  -4.6537  -4.6537  -0.8825   0.8419   0.8419   1.6970
     1.6970   1.9824   3.2257   3.4327   3.9805   4.4331   5.2480   5.4595
     6.6627   7.6485   9.0773   9.0773   9.2798   9.5682  10.3589  10.7065
    10.7065  12.3919  12.6193  12.9585  13.6074  13.6074  13.9805  13.9805
    15.6211  15.8281  16.5361  17.1259  19.2782  19.2782  19.7721  20.0263
    20.0263  20.3062  20.3772  20.5229  20.5229  20.5834  20.5834  20.8150
    20.8304  20.9855  20.9855  21.0237  21.1429  21.1758  21.1758  21.3869
    21.5691  21.5691  21.6705  21.8075  21.8075  21.8277  21.8277  22.0544
    22.5294  22.5649  22.5649  22.8719  23.1592  23.1592  23.2864  23.2864
    23.3550  23.6886  23.6886  24.0489  24.0787  24.4463  24.4463  24.6779
    25.2423  25.2423  25.2546  25.3274  25.3274  25.6477  25.9069  26.2074
    26.2074  26.4829  26.4829  26.8890  26.9575  27.6241  27.6241  27.6911
    27.9184  27.9184  28.5800  29.0594  29.0817  29.0817  29.2790  29.2790
    29.9271  29.9441  29.9441  30.1641  30.9299  30.9299  31.1539  31.2017
    31.6571  31.6571  32.1762  32.2205  32.5724  32.5724  32.8408  32.8408
    33.1431  33.1444  33.9466  34.0068  34.0068  34.7048  34.7048  35.3976
    35.6017  35.6017  35.7437  35.8947  35.8947  36.2428  37.1025  37.1025
    37.4557  37.7101  37.9615  37.9615  37.9638  37.9638  38.7598  39.2985
    39.2985  40.0129  40.0491  40.0491  40.2274  40.7108  41.1976  41.5132
    41.5132  42.8222  42.8222  43.1141  43.3423  43.3423  43.5252  43.5594
    44.0614  44.8419  44.8419  45.2462  45.4935  45.9109  45.9109  46.2971
    46.4707  46.4707  46.7845  47.4884  47.7349  47.7349  48.1690  48.1690
    48.4883  49.3087  49.3087  49.3931  49.8596  49.8596  50.0413  50.1779
    50.1779  51.2019  51.2409  51.4144  51.6846  51.6846  51.8462  52.5570
    52.5570  52.8105  53.1234  53.1234  53.4387  54.0720  54.1059  54.1059
    54.1076  54.1076  54.2482  54.8370  54.8370  54.9612  55.3374  55.3374
    55.4681  55.5207  55.5637  55.5637  55.5644  55.5944  55.6182  55.6182
    55.7995  55.7995  55.8304  55.8304  55.8934  55.8934  55.9634  56.2141
    56.2141  56.2443  56.6015  56.6785  56.7377  56.7707  56.7990  56.7990
    56.9711  57.0526  57.0526  57.2482  57.2482  57.2703  57.2703  57.7130
    57.8233  57.8233  58.5211  58.5211  58.5336  58.5336  58.6614  58.6967
    58.7190  58.7847  59.0489  59.0489  59.1726  59.3449  59.3449  59.4156
    59.4156  59.5106  59.8270  60.2637  60.2637  60.4088  60.4088  60.4122
    61.3381  61.3416  61.5141  61.5141  61.5979  61.5979  61.8182  61.8716
    61.9485  62.2673  62.2673  62.4370  62.4889  62.4889  62.5055  62.5055
    63.3315  63.3315  63.4829  63.4829  63.9635  64.1057  64.1057  64.1617
    64.2524  64.6295  64.6375  64.6595  64.6595  65.0695  65.0695  65.4919
    65.9781  65.9781  66.5599  66.5599  66.5692  66.9980  67.1471  67.1471
    67.4124  67.5437  67.8042  67.8042  68.4219  68.4219  68.4927  68.5147
    68.5594  68.6250  68.9383  68.9383  69.6088  69.6359  69.6359  69.7283
    69.7283  70.0946  70.0946  70.3213  70.3213  70.4666  70.5687  71.1964
    71.1964  71.2497  71.2497  71.4730  71.5130  71.6598  71.6598  71.9921
    71.9921  72.1692  72.5151  72.6059  72.6059  72.6120  72.6120  72.7023
    72.8039  72.8039  72.8564  72.8934  72.9028  72.9350  72.9350  72.9425
    72.9425  73.0813  73.0854  73.4853  73.4853  73.6190  73.6455  73.6455
    73.6865  73.6865  73.7845  73.7845  73.8874  73.8890  73.9713  74.2854
    74.6412  74.7735  74.7735  74.8652  74.8652  75.2188  75.2188  75.3594
    75.3782  75.3782  75.7402  75.7840  75.7899  75.9405  75.9405  75.9619
    75.9753  75.9753  76.0723  76.5193  76.5193  76.6592  76.6592  76.9191
    77.1975  77.1975  77.4764  77.6059  77.6059  77.7820  77.8444  77.8994
    78.0615  78.0615  78.0850  78.0850  78.1801  78.3919  78.3919  78.4163
    78.4163  78.6196  78.6196  78.6402  78.6402  78.6444  78.7314  78.9057
    79.0133  80.4038  80.4038  80.4229  80.4229  80.5206  80.5773  80.5773
    80.7626  80.9088  80.9088  81.5400  81.6286  81.6286  81.6442  81.7167
    81.8237  82.2013  82.2013  82.8218  82.8218  82.9437  82.9437  82.9870
    83.1698  83.4764  83.7656  83.7656  83.8252  83.9745  84.1077  84.3464
    84.3464  84.5534  84.5534  84.8986  84.8986  84.9249  84.9918  85.4320
    85.4320  85.5430  85.5510  85.5510  85.7686  85.8963  86.2348  86.2348
    86.5342  86.5342  86.6559  86.8487  86.8487  87.0292  87.0292  87.2523
    87.4778  87.7891  87.9648  87.9648  88.1444  88.1444  88.8529  88.8807
    88.8807  88.9186  89.4244  89.4244  89.6516  89.6516  89.7876  89.8989
    89.9797  89.9962  89.9962  90.1426  90.1426  90.2436  90.4864  90.8270
    91.1971  91.1971  91.2563  91.7130  91.8124  92.0632  92.0632  92.9590
    92.9590  93.2999  93.2999  93.3206  93.7357  93.7357  93.9527  93.9527
    94.2517  94.2517  94.3983  94.3983  94.4946  94.6219  94.9052  94.9052
    94.9496  95.2175  95.6246  95.6794  95.6794  95.8897  95.8897  96.0567
    96.1112  96.1112  96.1329  96.1329  96.5607  96.5794  96.5794  96.6264
    96.9610  97.2790  97.5416  97.7585  97.7585  98.5991  98.5991  99.3289
    99.6332  99.6912  99.6912  99.7650  99.9226  99.9226 100.1961 100.1961
   100.4971 100.5680 100.8390 101.2985 101.4236 101.4601 101.4601 101.5384
   101.8600 101.8600 101.9497 101.9497 102.4098 102.4098 102.7261 103.0827
   103.0827 103.0901 103.0901 103.5769 103.5769 104.0190 104.3144 104.3196
   104.3196 104.3869 104.4353 104.5348 104.5348 104.7634 104.9516 104.9516
   105.4605 105.4605 105.7290 106.0990 106.0990 106.1631 106.1631 106.2621
   106.5347 106.5347 106.6583 106.8656 106.9558 107.4968 107.4968 107.7266
   107.8414 108.2616 108.2616 108.2942 108.5259 108.5259 109.3234 109.3234
   109.3982 109.3982 109.7255 109.9233 109.9233 110.2535 110.5567 110.5567
   110.8744 111.0122 111.1442 111.1930 111.1930 111.8925 111.9717 112.1999
   112.2109 112.2109 112.4781 112.4781 112.8561 112.9642 112.9642 113.1218
   113.3347 113.3347 113.4860 113.5081 113.5081 113.8748 113.8748 114.2622
   114.3878 114.3878 114.6360 114.7838 114.8670 114.8670 115.0522 115.3025
   115.3025 115.4294 115.4294 115.7383 115.9786 115.9786 116.4492 116.4492
   116.7164 116.7557 116.7557 116.9571 117.2649 117.2649 117.9257 118.1137
   118.2033 118.2033 118.3232 118.3232 118.4252 119.0637 119.0752 119.3932
   119.3932 119.8762 119.8762 119.9080 119.9274 120.2415 120.4866 120.5722
   120.5722 120.6464 120.6464 121.1616 121.1616 121.4414 121.4414 121.4791
   121.6782 121.6990 121.8808 121.8808 122.1205 122.1800 122.1800 122.2935
   122.3889 123.1397 123.1649 123.4618 123.4618 123.6828 123.6828 123.6985
   123.6985 123.8181 123.8181 123.8790 124.1668 124.1668 124.1908 124.2284
   124.2284 124.2548 124.2666 124.4947 124.4947 124.5046 124.5620 124.5620
   124.5943 124.6228 124.6247 124.6247 124.6688 124.6688 124.7023 124.7023
   124.7336 124.7336 124.7377 124.7421 124.7548 124.8846 124.8846 124.8851
   124.8851 124.8922 125.1315 125.1315 125.1923 125.1923 125.2830 125.2830
   125.3017 125.3730 125.4222 125.4222 125.4678 125.5069 125.5448 125.5448
   125.5707 125.7121 125.7121 125.7698 125.7698 125.8124 125.8765 125.9473
   125.9584 125.9584 126.0066 126.1173 126.1173 126.1516 126.1516 126.3898
   126.3898 126.3994 126.3994 126.5673 127.0229 127.0473 127.2407 127.2412
   127.2894 127.2894 127.3710 127.3710 127.4048 127.4374 127.4374 127.4414
   127.4414 127.8235 127.8235 127.8367 127.8367 127.9490 127.9793 128.0880
   128.0880 128.0912 128.0912 128.3098 128.4218 128.5634 128.7509 128.7509
   128.8627 128.8627 128.9515 129.0766 129.0803 129.1865 129.1865 129.1907
   129.1907 129.4190 129.6355 129.6528 129.6528 129.7531 129.8000 129.8000
   129.9546 129.9546 129.9936 130.1014 130.1014 130.1937 130.2029 130.2441
   130.4033 130.4476 130.5598 130.5598 130.5717 130.5717 130.7317 130.7317
   130.8275 130.8321 130.8546 130.8546 131.4119 131.4119 131.7406 132.1651
   132.1651 132.2225 132.2225 132.3461 132.3461 132.5392 132.5947 133.0868
   133.0986 133.1627 133.2299 133.3346 133.3346 133.4880 133.6114 133.6114
   133.7339 133.7339 133.8691 133.8691 134.0644 134.0644 134.0874 134.0907
   134.1317 134.1317 134.5454 134.5454 134.6993 135.0226 135.0226 135.1271
   135.1271 135.1312 135.2167 135.2167 135.2792 135.2792 135.6535 135.6969
   135.6969 135.7148 135.9050 135.9050 136.0175 136.5058 136.5898 136.6373
   136.6465 136.7499 136.7499 136.7893 136.9147 136.9147 137.2220 137.2220
   137.2810 137.2810 137.3476 137.4425 137.4425 137.5326 137.6532 137.6532
   137.8903 137.8903 137.9020 137.9020 137.9660 137.9929 137.9938 138.3997
   138.3997 138.4159 138.4159 138.6161 138.6221 138.6221 138.6405 138.6405
   138.6567 138.7228 138.7228 139.0111 139.0239 139.0652 139.6301 139.6301
   139.6576 139.7476 139.7476 140.0166 140.0977 140.4774 140.4774 140.8359
   141.1192 141.2276 141.2276 141.3641 141.3641 141.5029 141.5171 141.5582
   141.9557 141.9557 141.9571 141.9571 142.2466 142.2466 142.4832 142.4832
   142.5628 142.5709 142.6452 143.1155 143.3953 143.3953 143.4361 143.4361
   143.8431 143.8936 143.8936 143.9819 144.0956 144.0956 144.3140 144.3354
   144.3354 144.3410 144.7125 144.7125 144.7303 145.3263 145.6304 145.6304
   145.6651 145.9266 145.9763 145.9763 146.0871 146.2704 146.2704 146.3527
   146.3527 146.3813 146.6609 146.6609 146.8484 146.8484 146.9281 146.9447
   146.9447 147.0801 147.0801 147.2504 147.6250 147.6479 147.6978 147.6978
   147.7943 147.9206 147.9206 147.9955 147.9955 148.2981 148.3224 148.3927
   148.3927 148.5714 148.5714 148.6106 148.6106 148.6798 148.8936 148.8936
   149.0223 149.0223 149.0460 149.0460 149.1267 149.1303 149.2323 149.3428
   149.9344 149.9344 150.4983 150.4983 150.7305 150.8940 151.0440 151.0440
   151.6067 151.7576 151.7576 151.9639 152.1453 152.2840 152.2840 152.4524
   152.6865 152.6865 152.7590 152.7590 152.8094 152.8094 153.1620 153.1973
   153.2699 153.3521 153.5985 153.5985 154.1465 154.1465 154.3307 154.3307
   154.4211 154.4539 154.6738 154.6738 154.6835 154.6835 154.9192 154.9192
   155.1157 155.4661 155.7357 155.7492 155.7492 156.1259 156.1259 156.2046
   156.4437 156.4523 156.8314 156.8314 156.9068 157.1236 157.1236 157.3565
   157.4489 157.5408 157.5408 157.6456 157.8090 157.8123 157.8123 158.0988
   158.1393 158.1393 158.3441 158.3441 158.6063 158.6069 158.6069 158.6639
   158.9474 159.0581 159.0581 159.0683 159.0683 159.2272 159.2329 159.2329
   159.2449 159.2449 159.2628 159.3483 159.3483 159.3531 159.3793 159.3793
   159.4379 159.4544 159.4544 159.4986 159.5726 159.6399 159.6399 159.6585
   159.6585 159.6971 159.7675 159.7675 159.8373 159.8373 160.1907 160.1907
   160.2036 160.2221 160.2552 160.2933 160.2933 160.3538 160.3670 160.4394
   160.4394 160.4464 160.4464 160.9835 160.9880 161.0526 161.0526 161.0579
   161.0579 161.3021 161.3266 161.3266 161.4020 161.4020 161.6658 161.7560
   161.7560 161.7954 161.7978 162.1056 162.1056 162.2521 162.6259 162.6259
   162.8281 162.8281 162.8584 163.2291 163.2291 163.2814 163.2814 163.5157
   163.8772 164.0157 164.0157 164.2187 164.4612 164.4795 164.4795 164.5630
   164.7571 164.7652 164.7652 164.8446 164.8446 164.8884 165.0475 165.0475
   165.0591 165.0591 165.2790 165.4526 165.4833 165.4833 165.4932 165.4932

          k = 0.0000 0.1925 0.0000 (  7591 PWs)   bands (ev):

   -49.9890 -28.2292 -27.9107 -27.8081 -17.9022 -17.4689  -7.1843  -5.7641
    -5.7268  -5.0382  -4.9327  -4.8801  -0.9681   0.7332   1.1752   1.6169
     2.0425   3.0429   3.7778   4.0415   4.5339   5.0082   5.9774   6.3507
     7.1188   7.6900   8.1854   8.8789   9.7882   9.9051  10.0407  10.8482
    10.8828  11.6051  12.8886  12.9442  13.0529  13.8655  14.2161  15.0512
    15.4640  15.5921  15.9709  16.4638  16.5788  17.1375  17.2619  17.6916
    17.8127  18.1751  18.2082  18.4949  18.5739  18.7848  18.8186  18.9533
    19.4057  19.5097  19.5313  20.0170  20.0562  20.5438  20.6067  20.6863
    21.1488  21.3032  21.4223  21.5996  22.1660  22.4360  22.8621  23.1190
    23.1285  23.6792  23.7713  23.8306  23.9462  24.3459  24.3765  24.5090
    24.6217  24.8324  24.9784  25.0169  25.0312  25.5338  25.8034  25.9628
    26.0578  26.1295  26.3171  26.4857  26.5239  26.6966  26.7896  26.8935
    27.1106  27.3171  27.5452  27.7370  27.9116  28.2107  28.3381  28.3998
    28.5297  28.6018  28.8034  29.1477  29.1741  29.4155  30.0158  30.0293
    30.1183  30.3161  30.4786  30.7337  30.8339  31.1792  31.4561  31.8717
    32.0695  32.2574  32.3511  32.3790  32.8172  32.8660  33.4790  33.5108
    33.6954  33.8731  34.4975  34.7238  34.7979  35.2746  35.6514  35.7797
    35.9611  36.0193  36.0223  36.6456  37.1112  37.3820  37.5653  37.7195
    37.9141  38.3846  38.4249  38.4760  38.8804  39.2804  39.6772  39.8545
    39.9525  40.0249  40.4950  40.6347  41.2590  41.3161  41.3971  41.7069
    41.7855  42.4678  42.6828  43.0395  43.2791  43.5415  43.6433  44.2558
    44.4369  44.5211  44.8656  45.0435  45.0496  45.0682  45.4869  45.5466
    46.0724  46.4822  46.7648  46.8629  47.0214  47.1620  47.1865  47.3558
    47.4859  47.4870  47.6714  47.7779  48.0134  48.1909  48.2644  48.6557
    48.6735  48.7571  48.9330  49.1554  49.3273  49.4966  49.5386  50.2007
    50.3425  50.3590  50.5981  50.7403  50.9336  51.3313  51.5812  51.8064
    51.8535  51.9408  52.2423  52.3038  52.3108  52.7240  52.7391  52.7703
    53.1319  53.6290  53.6413  53.8745  53.9933  54.2043  54.2155  54.5314
    54.5593  55.0281  55.4843  55.5780  55.6577  55.6814  55.8593  55.8875
    56.2031  56.2291  56.2773  56.5701  56.6240  56.7126  56.7600  57.0425
    57.0829  57.3465  57.6153  57.6324  57.7639  57.9115  57.9980  58.0762
    58.1775  58.6699  58.7453  58.9752  58.9774  59.1674  59.2037  59.2751
    59.6862  59.8068  59.9627  60.2920  60.3102  60.4913  60.5823  60.7353
    60.7374  60.7459  60.9045  61.1448  61.5670  61.6804  61.7839  61.9225
    61.9263  62.2950  62.4126  62.4265  62.5369  62.6713  63.0211  63.2485
    63.2521  63.4320  63.4478  63.5887  63.7716  63.8150  63.9306  64.1331
    64.5276  64.5323  64.5554  64.6746  64.7089  64.8366  64.8847  64.8929
    64.9200  65.3079  65.3325  65.3739  65.6569  65.7327  65.9269  65.9966
    66.0458  66.0666  66.2020  66.2360  66.3876  66.5017  66.5515  66.8614
    66.8781  67.0713  67.0811  67.3942  67.4069  67.4252  67.5550  67.5623
    67.6996  67.7131  67.9434  67.9529  67.9705  68.2554  68.3469  68.3644
    68.4566  68.4944  68.5099  68.5792  68.6955  68.8695  69.0439  69.3154
    69.3507  69.5655  69.6225  69.7020  69.9379  70.2068  70.2854  70.4084
    70.4260  70.4400  70.5085  70.6993  70.7912  70.9563  71.0371  71.3414
    71.4220  71.6443  71.8961  71.8986  71.9626  72.1258  72.4144  72.6818
    72.7174  73.2182  73.2233  73.2517  73.3613  73.5030  73.6371  73.7274
    73.8881  74.0275  74.0566  74.1698  74.2362  74.2961  74.5411  74.6010
    74.8408  75.1169  75.3935  75.4126  75.4183  75.9072  75.9250  76.0330
    76.0434  76.0922  76.2752  76.3252  76.5646  76.7398  76.9021  76.9320
    77.1030  77.3781  77.4625  77.4814  77.7771  78.0167  78.0610  78.1120
    78.3525  78.4838  78.5228  78.8262  78.8777  78.9930  79.0446  79.1169
    79.1558  79.2524  79.4948  79.6653  79.8098  79.9461  79.9878  80.0470
    80.1208  80.2595  80.4644  80.5215  80.6975  80.7462  80.7485  81.0532
    81.0940  81.1028  81.5033  81.6672  81.6874  81.7443  81.9602  82.0095
    82.0651  82.0809  82.4919  82.7531  82.7539  82.7639  82.8670  83.0134
    83.2131  83.3258  83.4095  83.6876  83.7620  83.8196  83.9531  84.0982
    84.1618  84.2223  84.2580  84.4128  84.6289  84.6384  84.6830  84.8013
    84.8520  85.1552  85.3991  85.6050  85.6423  85.6693  85.6704  86.1543
    86.3501  86.4133  86.4724  86.5188  86.8452  87.0188  87.0719  87.1403
    87.2620  87.3751  87.5411  87.8552  87.8644  87.8693  88.0767  88.2793
    88.3763  88.5700  88.7296  88.7450  88.9912  89.1378  89.1554  89.2167
    89.4859  89.7985  89.8697  89.8750  89.9130  89.9724  90.2186  90.4662
    90.6889  90.7481  90.9817  91.1336  91.1684  91.2771  91.3176  91.5239
    91.7159  91.9690  92.3854  92.4390  92.4730  92.5559  92.6486  92.6725
    92.6880  93.0340  93.1233  93.2183  93.4049  93.4099  93.5984  93.9575
    94.0881  94.3787  94.5062  95.1389  95.1564  95.2286  95.4916  95.5564
    95.5788  95.9565  96.1943  96.2086  96.4330  96.4395  96.4679  96.5125
    96.7117  97.1174  97.2864  97.2909  97.4859  97.6748  97.7187  97.7584
    97.9662  98.0105  98.2811  98.4097  98.7777  98.8234  98.8568  99.1822
    99.2793  99.3868  99.4505  99.7975 100.2302 100.3925 100.5166 100.6495
   100.6757 100.9201 101.0892 101.1698 101.3411 101.3741 101.5947 101.6821
   101.9007 101.9880 102.0215 102.0511 102.2755 102.3776 102.4882 103.0393
   103.0939 103.2626 103.2988 103.4283 103.4622 103.5472 103.7285 103.8797
   104.1079 104.3044 104.4986 105.0189 105.0686 105.1782 105.2112 105.6549
   105.7026 105.7239 106.0732 106.2141 106.3118 106.3690 106.4020 106.6322
   106.8104 106.9405 107.1949 107.3667 107.6334 107.7407 107.7519 108.0967
   108.3209 108.3907 108.4927 108.5792 108.6015 108.8411 108.8720 108.9651
   109.0613 109.4893 109.7282 109.7471 109.9554 110.1187 110.3036 110.3965
   110.5058 110.5749 110.7323 110.7331 110.8075 110.8242 110.8424 111.0185
   111.2269 111.3278 111.5032 111.5294 111.6384 111.6763 111.7073 111.8255
   111.9247 112.0966 112.1292 112.1504 112.2803 112.4984 112.5961 112.6365
   112.7452 112.8370 112.8725 112.9780 113.0260 113.1101 113.2461 113.4383
   113.4982 113.5053 113.6056 113.6426 113.6691 113.8440 113.8907 114.1743
   114.2685 114.3854 114.4365 114.5555 114.8341 114.9872 115.0177 115.0786
   115.0886 115.4421 115.5477 115.8709 115.8828 116.0583 116.0886 116.4005
   116.4744 116.5516 116.6980 116.7300 116.7323 116.8266 116.9045 117.0415
   117.0894 117.1516 117.3878 117.4723 117.5081 117.5934 117.8877 118.0179
   118.0332 118.1576 118.2097 118.2634 118.5383 118.5826 118.6412 119.0671
   119.2263 119.3180 119.4190 119.4431 119.5629 119.5957 119.7594 119.7661
   119.7791 120.0709 120.1065 120.1752 120.2414 120.4660 120.6929 120.7061
   120.7632 120.8277 120.9631 121.0571 121.1892 121.2998 121.3829 121.5278
   121.7205 121.7907 121.9336 121.9381 122.2022 122.2429 122.2739 122.2764
   122.4253 122.4356 122.5013 122.5977 122.7166 122.8078 122.9058 122.9977
   123.0597 123.1270 123.1770 123.3126 123.4142 123.4942 123.5240 123.8031
   123.9170 123.9759 124.0564 124.0882 124.3219 124.4121 124.5000 124.6362
   124.8973 125.0487 125.1060 125.1562 125.2895 125.3131 125.5185 125.5906
   125.8066 125.8913 125.9289 126.1626 126.1736 126.4392 126.4814 126.6287
   126.8929 126.9232 127.0678 127.2680 127.3142 127.3571 127.4255 127.4649
   127.5754 127.7022 127.8347 127.8989 127.9508 127.9725 128.0146 128.0646
   128.1032 128.1293 128.2724 128.3679 128.4757 128.6258 128.7414 128.7475
   128.7915 128.9357 129.0199 129.1446 129.1868 129.2013 129.3080 129.3186
   129.4515 129.4906 129.5385 129.5717 129.8992 130.0302 130.1053 130.2530
   130.3056 130.3155 130.4557 130.5236 130.5420 130.6573 130.9543 130.9680
   131.0290 131.0711 131.1167 131.2547 131.2967 131.3248 131.3649 131.6060
   131.7525 131.8566 131.8882 131.8924 131.9208 132.0925 132.5146 132.5160
   132.7088 132.8496 132.8578 133.1283 133.2954 133.4195 133.4375 133.5902
   133.6235 133.8663 133.8826 133.9042 134.0176 134.0695 134.1083 134.3319
   134.3446 134.5974 134.6322 134.7252 134.7488 134.7841 134.9439 135.0494
   135.1656 135.2211 135.4725 135.4998 135.7367 135.8607 136.0530 136.2032
   136.2793 136.4727 136.4806 136.4900 136.6295 136.6787 136.6928 136.7457
   136.9127 136.9379 137.0908 137.1155 137.1460 137.3722 137.4195 137.5372
   137.6050 137.6253 137.7219 137.9370 138.0364 138.0403 138.2247 138.3309
   138.3322 138.5402 138.5737 138.6027 138.8499 138.9774 138.9914 139.0060
   139.0470 139.0632 139.2965 139.3096 139.4220 139.5629 139.5749 139.5917
   139.6022 139.6065 139.7756 139.8244 139.8492 139.9038 139.9159 139.9713
   140.1124 140.2679 140.2921 140.3058 140.5564 140.6159 140.6243 140.6812
   140.7208 140.7535 140.7866 141.0639 141.1228 141.1249 141.1706 141.3515
   141.6127 141.6246 141.7337 141.7821 141.8075 141.8580 141.9778 142.1311
   142.1516 142.2075 142.3034 142.4036 142.4230 142.4951 142.6265 142.6558
   142.7675 142.8739 142.8792 142.9182 143.0033 143.0756 143.0915 143.3476
   143.4482 143.6799 143.7172 143.7900 143.8801 143.9183 144.2713 144.3797
   144.3816 144.5157 144.5819 144.7326 144.8189 144.8676 144.9512 144.9657
   145.0044 145.2320 145.2484 145.2810 145.3942 145.3948 145.5461 145.5621
   145.6086 145.6479 145.7129 145.7923 145.9004 145.9097 145.9701 146.0740
   146.2242 146.3236 146.3612 146.7955 146.8585 146.8719 147.0068 147.2185
   147.3145 147.5097 147.5927 147.7536 147.7611 147.8040 148.1638 148.2433
   148.3643 148.3744 148.4573 148.5635 148.6400 148.7921 148.8086 149.0152
   149.0631 149.1240 149.2235 149.2858 149.4006 149.4508 149.8189 149.8408
   149.8936 149.9477 150.1013 150.1464 150.1561 150.3398 150.4081 150.4551
   150.5061 150.5287 150.7588 150.9174 150.9323 150.9814 151.0089 151.0910
   151.1270 151.1277 151.2441 151.2843 151.3295 151.4334 151.5026 151.6393
   151.7454 151.7979 151.8535 151.9046 151.9813 152.0133 152.2375 152.2515
   152.2782 152.3408 152.3413 152.3517 152.4580 152.6633 152.8721 153.0130
   153.0851 153.1669 153.1676 153.2755 153.3164 153.3700 153.4834 153.6104
   153.9232 154.1120 154.1650 154.1824 154.2877 154.3625 154.4521 154.4641
   154.5678 154.6169 154.6375 154.6492 154.8535 154.8593 154.9813 155.2915
   155.3567 155.5623 155.5800 155.7986 155.9658 156.0096 156.0126 156.2447
   156.2633 156.2870 156.3552 156.5941 156.6995 156.8478 156.9106 156.9479
   157.0213 157.0385 157.1235 157.3801 157.4324 157.4400 157.4753 157.7030
   157.7642 157.8326 158.0405 158.0850 158.2809 158.3086 158.5017 158.5618
   158.6383 158.6813 158.8197 158.8791 159.0435 159.1443 159.2167 159.2778
   159.3183 159.4822 159.6042 159.6836 159.7354 159.8131 159.9287 159.9417
   160.4454 160.6584 160.7147 160.7279 160.8771 161.0004 161.0904 161.2256
   161.5063 161.5320 161.6220 161.7846 161.7969 161.8527 162.0787 162.0945
   162.1690 162.3913 162.3959 162.4863 162.5741 162.7606 162.8412 162.8472
   162.9322 163.0191 163.0691 163.1331 163.3105 163.3663 163.4212 163.5436
   163.7004 163.7422 163.8372 163.8660 164.0390 164.1204 164.2240 164.2670
   164.5523 164.7792 164.8454 164.9207 165.0700 165.3180 165.3235 165.4150
   165.5027 165.7572 165.9355 165.9825 166.2067 166.3449 166.3843 166.4303
   166.7639 166.7760 166.7812 166.8840 166.9600 166.9791 167.2594 167.4872

          k = 0.0000 0.3849 0.0000 (  7572 PWs)   bands (ev):

   -49.9653 -28.1605 -28.1596 -27.8616 -17.4910 -17.3742  -7.0933  -6.6053
    -6.5586  -5.4060  -5.3904  -4.8999  -1.3304   1.5762   1.8897   2.2191
     2.5474   4.3624   5.0676   5.2426   5.7764   6.3437   6.8127   6.8587
     7.8330   7.9794   9.0797   9.1377   9.6540  10.3346  10.5271  10.5654
    11.0799  11.3452  11.7237  11.8215  11.9703  12.6528  12.7384  12.8539
    13.7045  14.1561  14.7266  14.8998  15.5562  15.9469  16.0839  16.3209
    16.6119  17.1226  17.1929  17.2205  17.2703  17.5075  18.0292  18.0692
    18.2280  18.2415  18.4657  18.9103  19.0596  19.7319  19.8132  20.0614
    20.0815  20.6806  20.8250  20.9848  21.6073  21.7039  21.9140  22.0629
    22.2070  22.6239  22.8184  23.1883  23.3580  23.5816  23.8660  24.7226
    24.8594  25.0567  25.8277  25.9139  25.9778  26.4716  26.5950  26.7404
    26.9446  27.2785  27.7716  28.2713  28.3168  28.6371  28.6475  28.8368
    28.8380  29.1744  29.2977  29.3009  29.3949  29.5058  29.7081  30.0418
    30.3502  30.5994  30.7551  31.4182  31.4508  31.6211  31.8810  32.0606
    32.0726  32.7252  32.8019  33.1057  33.2312  33.3159  33.5458  33.6812
    33.9928  34.1229  34.3841  34.4653  34.7162  34.9436  34.9678  35.3235
    35.6587  35.6977  36.0258  36.0371  36.1162  36.1696  36.6347  36.6831
    36.8738  37.5696  37.6718  37.8259  37.9533  38.4950  38.5200  38.8334
    38.9430  39.0206  39.3010  39.5478  39.5721  39.6271  39.9068  39.9202
    40.1284  40.2583  40.2947  40.3242  40.4285  40.6912  40.8200  41.0650
    41.0708  41.0960  41.2542  41.6743  41.8706  42.0242  42.1049  42.2305
    42.6423  42.6796  42.7627  42.9548  43.2425  43.3787  43.8608  44.1335
    44.3009  44.3284  44.5907  44.7205  45.0920  45.1254  45.2141  45.3680
    45.5179  45.8872  46.0394  46.4936  46.6898  46.9613  47.0163  47.0844
    47.1808  47.4669  47.5038  47.5185  47.5565  48.2697  48.5124  48.7686
    48.9985  49.3440  49.4593  49.7661  50.0207  50.2545  50.4007  50.6243
    50.6785  51.1311  51.2450  51.2841  51.4927  51.5914  51.6415  51.7868
    51.9341  52.1486  52.2568  52.5930  52.6472  52.8345  52.9599  53.0825
    53.3366  53.3777  53.5964  53.9539  54.0213  54.4468  54.5878  54.8442
    54.9995  55.2413  55.5193  55.6438  55.7821  55.9764  55.9991  56.2590
    56.6646  56.8083  56.9801  57.1447  57.2236  57.2664  57.3604  57.4843
    57.4869  57.6241  57.6920  57.8973  57.9360  58.0611  58.1326  58.4397
    58.6835  58.7915  58.8249  58.9583  59.2044  59.2776  59.4897  59.6179
    59.8724  59.9328  60.2437  60.3364  60.5027  60.5934  60.6115  61.1729
    61.2914  61.4709  61.4834  61.5652  61.7688  61.7773  62.0196  62.2910
    62.3503  62.3775  62.6410  62.7403  62.7792  62.9878  63.2837  63.2905
    63.2976  63.3439  63.4791  63.6409  63.9830  64.0328  64.0852  64.2259
    64.4732  64.4807  64.5003  64.6174  64.6646  65.1315  65.2818  65.3198
    65.3705  65.5588  65.6212  65.8374  65.9655  65.9926  66.2651  66.3918
    66.4848  66.7197  66.8609  67.0729  67.0972  67.4481  67.5419  67.6359
    67.8772  68.2049  68.2318  68.2502  68.4477  68.4956  68.6257  68.6683
    68.7859  68.8598  68.9269  69.4242  69.4279  69.5880  69.6549  69.8117
    69.9485  70.0578  70.5779  70.8948  70.9263  71.2167  71.4850  71.5441
    71.7214  71.8301  71.8303  71.8989  72.2233  72.2753  72.6316  72.7099
    72.7897  72.9966  73.0941  73.5496  73.5514  73.6557  73.7716  74.0587
    74.0674  74.2837  74.4996  74.5971  74.6140  74.7393  74.8536  74.8677
    74.9401  75.0325  75.1416  75.2530  75.4036  75.5296  75.5570  75.7508
    75.8674  75.9414  76.0818  76.2447  76.3575  76.4975  76.5590  76.5770
    76.6458  76.8649  76.9486  77.1037  77.4443  77.6409  77.6965  78.0239
    78.0314  78.0502  78.1156  78.3197  78.4901  78.6601  78.7255  78.7947
    78.8431  79.5775  79.6353  79.6490  80.1323  80.1611  80.2423  80.2449
    80.3832  80.5738  80.8128  81.2192  81.2946  81.3097  81.3777  81.4333
    81.7203  81.8651  81.9956  82.0466  82.1083  82.3739  82.6065  82.8326
    82.9245  83.0385  83.4750  83.5639  83.7643  83.7777  84.0831  84.1379
    84.1597  84.2099  84.5697  84.6565  84.7390  84.8170  84.9083  84.9466
    85.0779  85.4188  85.4234  85.6703  85.8338  85.9227  85.9248  85.9677
    86.2419  86.2481  86.2697  86.5302  86.5462  86.8099  87.0261  87.0374
    87.0860  87.1115  87.2317  87.4185  87.5004  87.5973  87.7086  87.7869
    87.8060  88.0117  88.2398  88.3906  88.6677  88.7042  88.7493  89.2268
    89.3673  89.3744  89.3992  89.5808  89.6988  89.8835  89.9112  89.9282
    89.9731  90.4093  90.6256  90.8603  90.8846  90.9223  91.0411  91.4957
    91.5036  91.5608  91.6979  91.8194  92.0084  92.2092  92.2323  92.2387
    92.4386  92.5497  92.5562  92.6665  92.7328  92.9575  93.5007  93.5075
    93.5607  93.5921  93.9189  94.0824  94.1411  94.3153  94.4560  94.5173
    94.8118  94.8611  95.0390  95.1094  95.4776  95.7321  95.9087  95.9553
    96.0051  96.2578  96.3003  96.5047  96.6841  96.7177  96.7534  97.1207
    97.1599  97.1758  97.2958  97.5441  97.5734  97.6569  97.6969  97.7346
    97.7647  97.8428  97.9554  98.0087  98.2163  98.2877  98.3195  98.5817
    98.6222  98.6335  98.7888  98.8141  98.8882  98.9103  99.2010  99.2431
    99.2468  99.4119  99.4955  99.5431  99.7883  99.9087 100.0730 100.1329
   100.1528 100.4059 100.5353 100.6454 100.7133 100.8134 100.8960 100.9740
   101.0901 101.1107 101.3219 101.4743 101.5341 101.8558 101.9306 102.1166
   102.1379 102.3252 102.5210 102.7438 102.7825 102.7887 102.8015 102.9268
   102.9830 103.2103 103.2538 103.2786 103.3652 103.4769 103.4921 103.5864
   103.5922 103.6467 103.7175 103.7288 103.7617 103.9704 104.2069 104.2857
   104.4965 104.5382 104.6544 104.6850 104.7310 104.7698 104.9652 105.1412
   105.2597 105.3067 105.3722 105.5617 105.7992 105.9475 106.1512 106.1936
   106.2498 106.2653 106.3880 106.5405 106.7612 106.8817 107.0039 107.0164
   107.0282 107.2411 107.4292 107.5252 107.8989 107.9646 108.0403 108.0833
   108.1695 108.2605 108.5839 108.6942 108.7001 108.7635 108.9540 109.1198
   109.2328 109.2891 109.3515 109.7287 109.7389 109.7564 109.9873 110.0418
   110.0516 110.2538 110.4697 110.5111 110.5612 110.5652 110.6388 110.6516
   110.9192 111.1934 111.2648 111.4619 111.6545 111.6555 111.8758 111.9731
   112.0430 112.2144 112.2943 112.6250 112.6999 112.7429 112.9297 113.0017
   113.0583 113.2438 113.3352 113.6670 113.7810 113.7829 113.9412 113.9886
   114.0603 114.2023 114.4517 114.4879 114.7623 114.9918 115.1164 115.1359
   115.1470 115.3707 115.4145 115.5773 115.5904 115.6850 115.9519 116.1635
   116.1900 116.2636 116.4387 116.5755 116.8868 116.8992 116.9531 117.2507
   117.3131 117.5449 117.6253 117.7691 117.8598 118.1998 118.2440 118.3295
   118.4240 118.4817 118.8458 118.9574 118.9717 118.9916 119.2575 119.5852
   119.7624 119.7972 119.8995 119.9819 120.0665 120.3776 120.4484 120.4507
   120.5558 120.6856 120.8375 120.8855 120.9510 120.9966 121.0125 121.0408
   121.1223 121.1666 121.3054 121.4446 121.4919 121.6123 121.7629 121.7847
   121.8064 122.0378 122.0622 122.0881 122.2078 122.2448 122.3876 122.4978
   122.5623 122.5690 122.8526 122.9050 122.9683 123.0507 123.2304 123.2593
   123.4742 123.6877 123.9606 123.9721 123.9788 124.0657 124.2645 124.3594
   124.4865 124.5135 124.7545 124.9024 125.2181 125.2744 125.3539 125.4213
   125.4409 125.6709 125.8052 125.8345 125.9070 126.1595 126.1844 126.2186
   126.2553 126.3456 126.5277 126.5532 126.7821 126.8100 126.9323 127.0023
   127.0809 127.1739 127.2780 127.2897 127.3494 127.3960 127.6218 127.6228
   128.0708 128.0957 128.3033 128.4661 128.6469 128.9490 128.9908 129.1720
   129.1832 129.3286 129.3769 129.4569 129.5064 129.6559 129.7987 129.8832
   129.9463 130.1144 130.2521 130.3628 130.4400 130.5801 130.6947 130.7236
   130.7707 130.8010 130.9460 131.2679 131.2799 131.4028 131.5544 131.5896
   131.7315 131.8205 131.8563 131.9812 132.1417 132.2265 132.2563 132.2790
   132.3812 132.3989 132.5889 132.6313 132.7026 132.7567 132.9176 133.0410
   133.0563 133.2776 133.2851 133.2888 133.3476 133.5907 133.6175 133.6397
   133.7389 133.7546 133.8835 133.9980 134.0201 134.0675 134.1014 134.1607
   134.4518 134.5800 134.6513 134.9318 134.9870 135.2313 135.3848 135.4085
   135.4269 135.5076 135.5963 135.6217 135.8734 135.9928 136.0563 136.5425
   136.6013 136.8192 136.8642 136.9022 137.1786 137.1887 137.2570 137.4395
   137.5485 137.6865 137.8545 137.8614 137.9608 138.1299 138.2085 138.2239
   138.2855 138.4371 138.4996 138.5610 138.6041 138.6231 138.8351 138.8704
   139.0544 139.0868 139.3898 139.4048 139.4460 139.4564 139.7859 139.8024
   140.3590 140.5030 140.5902 140.6044 140.7515 140.7582 140.9617 141.0049
   141.1548 141.3021 141.4371 141.6366 141.6717 141.8842 141.9000 142.1392
   142.2609 142.4429 142.4722 142.5059 142.6574 142.6791 142.7313 142.7800
   142.9334 142.9782 143.1934 143.2726 143.4712 143.6398 143.6490 143.6871
   143.7181 143.7992 143.7994 143.9104 143.9127 144.1707 144.1832 144.2133
   144.4338 144.4418 144.5391 144.5712 144.6721 144.8363 144.8491 144.9262
   144.9769 145.0539 145.0683 145.1942 145.3203 145.3542 145.4390 145.4476
   145.5570 145.5615 145.6684 145.7987 145.9701 146.1169 146.2454 146.3874
   146.4583 146.4825 146.5059 146.6852 146.7732 146.8612 146.8682 147.0551
   147.3328 147.3770 147.3920 147.5733 147.6964 147.7334 148.1023 148.1811
   148.2314 148.4042 148.4945 148.5121 148.6663 148.8374 148.8597 148.9936
   149.0072 149.1689 149.2593 149.3727 149.4088 149.5086 149.5723 149.6504
   149.6620 149.7324 149.7670 150.0411 150.0420 150.2321 150.2750 150.3099
   150.3143 150.4489 150.5128 150.5507 150.6922 150.7094 150.7460 150.8296
   150.9349 151.1261 151.2183 151.4016 151.6042 151.6230 151.6676 151.7473
   152.0107 152.2084 152.2744 152.3768 152.4734 152.5935 152.6599 152.7500
   152.7912 152.8461 153.0042 153.1554 153.4094 153.4267 153.5017 153.6086
   153.6919 153.8253 153.8610 153.9062 154.0271 154.1483 154.2189 154.2650
   154.3664 154.3982 154.4699 154.6067 154.6963 154.8290 154.9280 155.0068
   155.0909 155.1576 155.2087 155.2583 155.2750 155.2832 155.3598 155.4011
   155.4528 155.4936 155.6305 155.6471 155.7492 155.8012 155.9114 155.9602
   156.0670 156.1102 156.1511 156.2525 156.3392 156.3481 156.4077 156.4999
   156.5488 156.7292 156.7791 156.8315 156.9001 157.0633 157.1259 157.1966
   157.2075 157.5964 157.7327 157.7356 157.9180 157.9232 157.9695 157.9914
   158.2468 158.3439 158.4139 158.4921 158.5514 158.7393 158.8450 158.8471
   158.9322 159.0072 159.1367 159.2601 159.3809 159.7242 159.7261 159.9376
   160.0591 160.1315 160.1619 160.3084 160.4971 160.5015 160.5757 160.5777
   160.7273 160.9068 160.9363 161.0150 161.0687 161.1730 161.1947 161.2116
   161.3029 161.4014 161.7302 161.8476 161.9185 161.9653 161.9856 162.0083
   162.0982 162.2331 162.2591 162.2708 162.3909 162.5020 162.8188 163.1039
   163.1307 163.4318 163.4730 163.7609 163.7964 163.9732 163.9748 164.0847
   164.1982 164.2537 164.3403 164.5837 164.6247 164.8063 164.8225 165.0147
   165.1279 165.4186 165.4258 165.4323 165.6671 165.9217 165.9953 165.9975
   166.2535 166.3242 166.3723 166.3748 166.5183 166.6877 166.7751 166.8405
   166.9537 166.9928 167.0207 167.3257 167.3701 167.5200 167.5336 167.5891
   167.7366 167.7773 167.7983 167.8948 167.9015 167.9325 168.1410 168.2805

          k = 0.0000-0.5774 0.0000 (  7602 PWs)   bands (ev):

   -49.9535 -28.2796 -28.1257 -27.8883 -17.3240 -17.2752  -7.5859  -7.0471
    -6.4055  -5.6123  -5.4743  -4.9286  -1.3968   2.0350   2.5407   2.7195
     3.0741   4.8156   5.2973   6.1974   6.8761   7.2690   7.4623   7.7723
     8.0960   8.3265   8.4584   8.8014   9.0206   9.1407   9.8333   9.8583
    10.0339  10.6458  11.3701  11.7509  12.0916  12.4807  12.8085  13.2118
    13.6442  14.3794  14.6505  14.8953  15.0145  15.0743  15.5599  15.9857
    16.1314  16.5929  16.6256  16.7020  16.7178  16.8510  17.0074  17.6646
    17.8780  17.9299  18.0158  18.2048  19.1555  19.1623  19.3342  19.3618
    19.7890  19.8455  20.2084  20.4638  20.5040  20.8790  21.4922  21.7840
    22.0192  22.0254  22.5843  23.1880  23.5944  23.9022  23.9715  24.6654
    24.8494  24.9831  25.7377  25.9555  26.0298  26.6073  26.6776  27.5181
    27.6240  27.8263  28.3802  28.4736  28.5222  29.2644  29.3003  29.6814
    29.8681  29.9000  31.0662  31.1935  31.3496  31.8379  31.9942  32.1253
    32.2791  32.3956  32.6303  33.0372  33.0771  33.1865  33.4160  33.7833
    33.8740  33.8780  33.8823  33.9791  33.9898  34.2186  34.3739  34.3920
    34.3963  34.5475  34.8416  34.8714  34.8774  35.0308  35.2417  35.6414
    35.8748  35.8801  36.0754  36.1184  36.2054  36.3925  36.5475  36.6654
    37.0142  37.0886  37.2261  37.5543  37.6658  37.9556  38.0950  38.2547
    38.4517  38.5161  38.9316  39.0374  39.2678  39.2821  39.6659  39.9399
    40.0016  40.5164  40.6658  40.8098  40.8467  41.0256  41.1321  41.4218
    41.5157  41.5671  41.6195  41.7199  42.2705  42.3138  42.3804  42.5858
    42.7146  42.7529  42.8373  42.9046  43.0376  43.2419  43.3500  43.4664
    43.5094  43.8050  43.9287  44.3260  44.4102  44.5036  44.6895  44.7264
    44.8335  45.1513  45.3044  45.4709  45.6914  45.8970  46.1196  46.2256
    46.3567  46.5841  46.9349  47.2239  47.4446  47.5713  47.6726  47.6784
    47.9098  47.9533  48.3040  48.3692  48.3814  48.5112  49.0680  49.3364
    49.4734  49.5391  49.5909  49.9698  50.4777  51.1046  51.1157  51.1715
    51.2012  51.2851  51.3136  51.7480  51.8865  52.0029  52.2153  52.2351
    52.5469  52.7898  53.0208  53.0941  53.8008  53.8463  54.2831  54.4979
    54.7141  55.0810  55.1056  55.3381  55.5184  55.7225  55.7932  55.8666
    56.0343  56.2862  56.3835  56.6289  56.8742  57.0463  57.0469  57.4979
    57.6840  57.8015  58.1825  58.4068  58.4407  58.5173  58.6245  59.0255
    59.0258  59.1575  59.3723  59.3953  59.5846  59.6817  59.7285  59.7417
    59.8448  59.9333  59.9913  60.1836  60.2915  60.4902  60.4910  60.5355
    60.5532  60.6318  60.7006  60.8562  61.1618  61.1757  61.3679  61.5541
    61.5554  61.6495  61.6989  61.7486  61.8381  61.9947  62.2375  62.5306
    62.5885  62.8246  63.0944  63.1217  63.1918  63.3734  63.5694  63.7601
    63.7986  63.9919  63.9984  64.0366  64.2903  64.4367  64.4764  64.6855
    64.8344  65.0703  65.0757  65.1595  65.4483  65.4963  65.7023  65.9105
    66.1883  66.2065  66.3108  66.4224  66.8573  66.8714  66.9589  66.9888
    67.1368  67.2208  67.3346  67.4753  67.6142  67.9404  68.0730  68.3280
    68.3999  68.5259  69.0563  69.1693  69.2059  69.2202  69.3408  69.6396
    69.7429  69.8283  70.3585  70.8929  70.9263  70.9320  71.1703  71.1836
    71.5395  71.6258  71.8453  71.9795  72.0123  72.3548  72.4476  72.6653
    72.7805  73.0843  73.1455  73.4115  73.7745  73.7847  73.8045  73.9652
    73.9668  74.0073  74.5577  74.6336  74.6936  74.8348  75.1244  75.2685
    75.5759  75.6758  75.9649  76.0193  76.0441  76.4102  76.5684  76.9704
    77.0372  77.2836  77.3115  77.3346  77.3719  77.6440  77.6647  77.7781
    78.6034  79.2436  79.2575  79.2764  79.6743  79.7701  80.0146  80.0446
    80.0493  80.1131  80.1140  80.4115  80.4693  80.5595  80.5675  80.6159
    81.1716  81.4846  81.5940  81.8056  81.9116  81.9614  81.9887  82.0249
    82.5894  82.7208  82.7554  82.8237  82.8475  83.1581  83.3370  83.4432
    83.4447  83.4854  83.6999  84.1801  84.3738  84.3982  84.6112  84.6670
    84.7484  85.3256  85.3485  85.4038  85.4079  85.5835  85.6994  85.7531
    85.7879  85.7902  85.8717  85.9340  85.9390  85.9817  85.9851  86.5499
    86.5557  86.6628  86.6853  86.6979  86.8067  86.8220  87.0044  87.1837
    87.1918  87.5568  87.7866  87.8999  87.9466  87.9947  88.1602  88.2179
    88.4137  88.4492  88.5534  88.6110  88.8478  88.9954  89.2526  89.2919
    89.3212  89.3716  89.5290  89.5325  89.6826  89.7406  89.7649  89.8248
    90.0387  90.0735  90.1947  90.6081  90.6517  90.8083  90.8315  91.0492
    91.1320  91.2968  91.4128  91.5793  91.6191  91.6399  91.6600  91.6700
    91.7140  91.8182  92.1004  92.3002  92.3792  92.4885  92.5119  92.7806
    92.8170  92.9298  92.9515  93.0853  93.4327  93.4911  93.5273  93.6779
    93.6787  93.7615  94.0098  94.2666  94.3462  94.3715  94.4292  94.4498
    94.4778  94.5044  94.5194  94.5987  94.6326  94.6351  94.6986  94.9233
    95.0333  95.1677  95.3021  95.3210  95.3735  95.4494  95.5040  95.5494
    95.6150  95.6505  95.8294  95.9384  96.2655  96.2745  96.3225  96.3635
    96.3841  96.4689  96.5876  96.7937  96.8069  97.1499  97.3473  97.4272
    97.5320  97.6450  97.6755  97.7440  97.8456  97.8514  98.1251  98.2456
    98.2544  98.6400  98.7009  98.7849  98.8869  98.9640  99.1327  99.1998
    99.2261  99.2946  99.3836  99.4937  99.6366  99.6952  99.7001  99.7034
    99.8932  99.9778 100.0351 100.0741 100.1183 100.2478 100.4556 100.4683
   100.6612 100.7084 100.8660 100.9776 101.2247 101.2514 101.3667 101.3885
   101.3905 101.5101 101.9736 102.0563 102.3765 102.3819 102.4353 102.5448
   102.6635 102.6782 102.7156 103.2128 103.2437 103.3826 103.4118 103.5804
   103.6098 103.8243 103.9798 104.1741 104.5318 104.6152 104.7302 104.8009
   105.1495 105.1778 105.3811 105.3990 105.5291 105.7944 106.2568 106.2600
   106.3302 106.6224 106.6329 106.8715 106.9773 107.2124 107.3962 107.4373
   107.5253 107.5393 107.6313 107.7968 107.8063 108.1584 108.2306 108.2849
   108.3001 108.5068 108.6080 108.6487 108.7209 108.7521 108.9018 108.9172
   108.9485 109.0890 109.4662 109.6403 109.7090 109.8113 109.8836 110.2662
   110.3042 110.3577 110.3958 110.4977 110.5070 110.7187 111.0390 111.1302
   111.2316 111.3197 111.4971 111.5173 111.6787 111.6886 111.8587 111.9335
   112.1037 112.1155 112.4558 112.5109 112.6773 112.7006 112.7072 112.7715
   112.8662 112.9942 113.0006 113.1609 113.2612 113.2798 113.2870 113.4696
   113.5842 113.8200 113.9594 114.1740 114.3641 114.3867 114.4290 114.8105
   114.8692 114.9980 115.0361 115.1224 115.1467 115.2752 115.5239 115.6597
   115.7159 115.8800 115.9045 116.1180 116.2988 116.4079 116.4699 116.5886
   116.6729 116.9535 117.0988 117.0991 117.1112 117.3033 117.3455 117.3998
   117.4316 117.4927 117.5280 117.5386 117.8053 117.9579 118.0847 118.4419
   118.6053 118.6430 118.7448 118.9964 119.0368 119.2155 119.3952 119.4717
   119.5535 119.6068 119.7623 119.8432 120.0011 120.1694 120.1739 120.1779
   120.2423 120.3463 120.4748 120.4901 120.4993 120.5759 120.6132 120.7036
   120.9379 120.9519 120.9631 121.1585 121.2645 121.3085 121.3490 121.6588
   121.7006 121.7016 121.7427 122.2873 122.2904 122.3505 122.3798 122.5750
   122.7158 122.7308 123.1373 123.1574 123.3226 123.3781 123.5027 123.5451
   123.5866 123.6323 123.7894 123.9047 123.9110 123.9411 123.9629 124.1756
   124.2390 124.5800 124.6203 124.6441 124.7872 124.9816 125.2068 125.5833
   125.6270 125.7522 125.8186 125.8554 125.9733 126.0976 126.2752 126.2874
   126.3149 126.4949 126.5651 126.5896 126.6855 126.8219 126.9439 127.2022
   127.2562 127.3987 127.6266 127.6748 127.7188 127.9132 128.0785 128.1055
   128.1395 128.2539 128.3697 128.3935 128.5239 128.7202 128.7760 128.8136
   129.1271 129.1610 129.1852 129.3092 129.3404 129.4049 129.8195 130.2717
   130.3794 130.5899 130.6640 130.7320 130.7440 130.8274 131.2804 131.4096
   131.5440 131.6314 131.6511 131.7100 131.7859 132.0013 132.3608 132.5189
   132.5390 132.5749 132.6060 132.6266 133.0226 133.0782 133.2444 133.2927
   133.4734 133.5573 133.6767 133.6835 133.7386 133.8721 134.1106 134.1257
   134.2632 134.5344 134.7331 134.8457 134.8576 134.9572 134.9869 135.1749
   135.2160 135.3163 135.5309 135.6000 135.7387 135.8710 135.9161 135.9228
   135.9348 136.0094 136.1753 136.5208 136.6919 136.7887 136.9997 137.0819
   137.2340 137.2367 137.2459 137.3252 137.4037 137.4346 137.5620 137.5775
   137.5913 137.6088 137.6485 137.6806 137.8051 137.8090 137.8113 137.9096
   138.2072 138.2283 138.2472 138.2478 138.4042 138.4524 138.4787 138.5254
   138.6608 138.7449 138.7783 138.8285 138.9108 139.0550 139.2007 139.4248
   139.5525 139.6493 139.7645 139.7794 139.8277 139.8413 140.1562 140.2277
   140.2779 140.4932 140.5657 140.7422 140.7583 140.8512 140.9141 140.9284
   141.0666 141.1350 141.1612 141.3542 141.4866 141.7168 141.7851 141.8100
   142.1094 142.2767 142.3124 142.4764 142.4993 142.5292 142.7130 142.8898
   142.9741 143.1108 143.1428 143.1636 143.1639 143.2849 143.2967 143.3360
   143.4065 143.6319 143.6894 143.8099 143.8998 143.9370 143.9513 144.0089
   144.2126 144.2563 144.3849 144.5111 144.5726 144.8125 144.8452 145.3561
   145.6375 145.6836 145.7886 145.9434 145.9879 145.9915 146.0455 146.1185
   146.1803 146.1926 146.2462 146.2730 146.7811 146.9499 147.0021 147.2324
   147.3744 147.4504 147.5622 147.5837 147.7659 147.8165 147.8200 147.8412
   148.0547 148.3895 148.3949 148.5736 148.7354 148.8249 148.8287 149.0177
   149.0200 149.2216 149.3430 149.5013 149.5382 149.6680 149.6791 149.8670
   150.0023 150.0351 150.0797 150.4342 150.4617 150.5492 150.6078 150.7422
   150.7622 151.0260 151.0303 151.1199 151.1536 151.2767 151.4312 151.4890
   151.6919 151.8116 151.8988 151.9076 151.9546 152.1302 152.3631 152.6378
   152.7710 152.8926 153.0899 153.0976 153.1731 153.3654 153.4341 153.6648
   154.0751 154.1196 154.1235 154.1369 154.3104 154.3941 154.5059 154.5093
   154.7893 154.9210 154.9422 155.0469 155.2614 155.4964 155.5676 155.6013
   155.8333 155.8659 155.9878 156.0404 156.0659 156.4923 156.6260 156.7595
   156.7914 156.8620 156.9008 156.9031 157.3493 157.3634 157.5135 157.8689
   157.9069 158.1877 158.2974 158.3607 158.4776 158.7168 158.7436 158.8045
   158.8987 158.9463 159.0221 159.1369 159.1575 159.1871 159.4596 159.4866
   159.5978 159.6364 159.7115 159.7386 160.0671 160.0712 160.1686 160.2081
   160.2544 160.3315 160.4139 160.5656 160.5789 160.6101 160.8935 161.0299
   161.0682 161.1133 161.1156 161.2592 161.2664 161.3825 161.4501 161.5011
   161.5755 161.9312 162.2585 162.2762 162.4175 162.6541 162.7596 162.8074
   162.8279 162.8993 162.9916 163.0469 163.2341 163.3249 163.4188 163.4199
   163.4560 163.5013 163.5494 163.6077 163.7263 163.8620 163.8706 163.9085
   164.0062 164.1066 164.2331 164.2921 164.3147 164.3243 164.3459 164.4823
   164.7012 164.8615 164.9036 164.9425 165.1620 165.3205 165.3216 165.4330
   165.4588 165.5388 165.5698 165.7530 165.7695 165.8430 165.9770 165.9989
   165.9999 166.2374 166.3148 166.3852 166.5156 166.5556 166.6340 166.7373
   166.8145 166.8358 166.8582 166.8642 167.0103 167.1189 167.2529 167.2796
   167.4560 167.5144 167.7120 168.0319 168.0506 168.0926 168.2043 168.4873
   168.5236 168.5935 168.6381 168.6891 168.7010 168.7998 168.8028 168.9327
   168.9334 168.9761 169.0114 169.0174 169.0695 169.0944 169.1150 169.3116

          k = 0.1667 0.2887 0.0000 (  7573 PWs)   bands (ev):

   -49.9713 -28.1778 -28.0752 -27.8729 -17.5961 -17.3978  -6.7967  -6.5529
    -6.2399  -5.7454  -5.0955  -5.0528  -1.0909   0.8194   1.9595   2.1768
     2.3230   4.2289   4.6793   5.0394   5.4336   5.9302   6.6643   7.4098
     7.6055   7.9851   8.3102   8.8248   9.6228   9.6537  10.0950  10.9075
    10.9458  12.0309  12.1286  12.8887  13.4303  13.5936  13.6432  13.7355
    14.0250  14.2172  14.2786  14.3704  14.9527  15.3150  15.3215  15.7164
    15.7742  16.7130  16.8976  17.1227  17.2634  17.7772  17.9887  18.6785
    18.8260  18.8498  19.7773  19.9019  19.9903  20.3527  20.6957  21.0923
    21.2180  21.5969  21.7201  22.1002  22.2701  22.4181  22.6539  22.7232
    22.8015  22.8260  23.0264  23.1248  23.4552  23.5104  23.8372  23.9755
    24.4702  24.5208  24.9874  25.0038  25.2660  25.5555  25.5888  26.0754
    26.5230  26.7655  26.7687  27.1122  27.5328  27.6684  27.7487  28.1050
    28.4035  28.9392  29.1060  29.1721  29.6056  29.9241  30.0933  30.3805
    30.3828  30.5180  30.7648  30.9106  31.0273  31.1455  31.3149  31.3758
    31.6285  31.7687  32.0223  32.2930  32.3520  32.4377  32.8507  33.1421
    33.3227  33.3455  33.4422  33.5220  34.0004  34.0569  34.4105  34.5824
    34.7214  34.7467  35.5463  35.8174  35.8948  36.0360  36.5891  36.5932
    36.8359  37.0336  37.1031  37.5849  37.6245  38.1564  38.2298  38.4101
    38.5355  38.7409  38.8410  39.2946  39.3953  39.7546  39.8554  39.9784
    40.1527  40.1973  40.5223  40.5895  40.6836  40.9660  41.0218  41.2664
    41.4068  41.5741  42.0996  42.2680  42.4585  42.7241  42.7558  42.8759
    43.2023  43.3135  43.5884  43.8117  43.8545  44.3431  44.6306  44.6590
    44.9627  45.1924  45.3619  45.4331  45.7036  45.8129  46.1401  46.4169
    46.7197  46.7628  47.0255  47.1139  47.2921  47.6093  47.7358  47.9518
    48.0576  48.2264  48.3460  48.5758  48.7293  48.8851  48.9378  49.0931
    49.1058  49.1816  49.4520  49.7146  49.8067  50.1364  50.3464  50.3658
    50.4648  50.5829  50.8040  50.8216  51.2668  51.4452  51.6780  52.1918
    52.2597  52.3853  52.3925  52.6126  52.6646  53.0835  53.2959  53.5865
    53.6417  53.7600  53.8696  53.9574  54.5705  54.6106  54.7060  54.8090
    54.9638  55.1510  55.2867  55.5148  55.8273  55.9338  56.0727  56.0935
    56.3300  56.3889  56.6009  56.8444  56.8843  56.9303  57.0448  57.1521
    57.3659  57.3815  57.5340  57.9121  57.9848  58.0361  58.0794  58.2828
    58.3769  58.7610  58.8750  59.1997  59.2202  59.2556  59.3546  59.7315
    59.7573  59.8921  59.9622  60.0714  60.2820  60.5423  60.9349  61.1258
    61.1762  61.2773  61.3964  61.5826  61.7765  61.9561  62.1562  62.3526
    62.5656  62.7000  62.7893  63.0058  63.0506  63.1837  63.3362  63.4286
    63.6369  63.7218  63.7768  64.1257  64.3676  64.5054  64.7601  64.9632
    65.0094  65.1294  65.4933  65.5038  65.5091  65.5704  65.6643  65.7559
    65.8706  66.0114  66.1088  66.2542  66.3937  66.5701  66.7886  66.9184
    67.1376  67.1920  67.2694  67.5237  67.5279  67.6523  68.0955  68.1545
    68.2942  68.4860  68.5805  68.7092  68.9337  69.0897  69.1774  69.3221
    69.3321  69.4366  69.6977  69.7617  69.8895  70.2443  70.3216  70.3475
    70.4811  70.5909  71.1624  71.1693  71.2284  71.4146  71.6906  71.7165
    71.8055  71.9400  72.1113  72.3649  72.4631  72.4862  72.6765  72.7921
    72.8537  72.8775  73.0714  73.4398  73.4625  73.5036  73.8315  73.8531
    74.0037  74.1601  74.1708  74.2527  74.2984  74.3130  74.3979  74.4695
    74.7148  74.7997  74.8446  74.8739  74.9720  75.3099  75.4132  75.5060
    75.5070  75.6875  75.7873  75.8103  75.9987  76.0459  76.2157  76.3279
    76.4717  76.6124  76.9515  76.9724  77.0307  77.1340  77.2261  77.3651
    77.4014  77.6165  77.7681  77.8353  77.8566  77.9445  78.0686  78.1873
    78.4183  78.5536  78.7463  78.8341  78.9281  79.0544  79.2067  79.2605
    79.5560  79.5597  79.7747  79.9170  79.9608  80.0506  80.1786  80.2396
    80.3758  80.5357  80.5790  80.6266  80.7882  81.1680  81.1889  81.5472
    81.5944  81.7409  81.8734  81.9294  82.3315  82.3831  82.5944  82.9002
    82.9231  83.1904  83.3142  83.4084  83.5154  83.6114  83.6669  84.0161
    84.0834  84.3349  84.5773  84.6330  84.8838  85.0941  85.1209  85.4120
    85.4998  85.7733  85.7905  86.0341  86.1349  86.5895  86.7185  86.7632
    86.7915  86.9987  87.0222  87.2106  87.3022  87.4266  87.4386  87.6810
    87.8057  87.9649  88.0141  88.3274  88.4497  88.4671  88.5677  88.8439
    88.8936  88.9437  89.2642  89.3803  89.5281  89.7504  89.8095  89.9866
    90.2853  90.5279  90.5711  90.6094  90.6546  90.7437  90.9805  91.1183
    91.3347  91.4765  91.5149  91.5316  91.6917  91.8740  92.0151  92.1939
    92.2052  92.2930  92.4357  92.6768  92.8444  92.9915  93.0349  93.2524
    93.3428  93.6619  93.8955  93.9405  94.1602  94.2524  94.2802  94.3267
    94.4150  94.5742  94.8495  94.9950  95.1421  95.2327  95.4659  95.4709
    95.6038  95.6731  95.7707  95.8884  95.9754  96.2172  96.3176  96.4764
    96.4875  96.6880  96.7149  96.8944  97.1165  97.1221  97.1716  97.2708
    97.2884  97.5300  97.6063  97.7429  97.8832  98.0703  98.2227  98.3736
    98.5886  98.7375  98.8608  99.0325  99.1162  99.2183  99.3894  99.4793
    99.6060  99.7577  99.9630  99.9713 100.0363 100.1755 100.2526 100.3223
   100.3709 100.3873 100.4763 100.5387 100.9206 101.0889 101.1837 101.3299
   101.3599 101.4053 101.4558 101.6595 101.7476 102.0813 102.1270 102.2975
   102.4701 102.6656 102.6873 103.0825 103.2074 103.3117 103.3996 103.4744
   103.5067 103.7214 103.7758 103.9070 104.0023 104.1195 104.1442 104.3710
   104.4375 104.5395 104.6561 104.8244 105.0176 105.0651 105.2019 105.2608
   105.3576 105.4557 105.5344 105.6095 105.8775 105.9998 106.1301 106.1369
   106.2299 106.3686 106.3928 106.6072 106.6284 106.8405 106.9097 106.9836
   107.0054 107.4941 107.5538 107.6265 107.7731 107.8979 107.9078 108.0638
   108.2620 108.3674 108.4205 108.5185 108.6461 108.7176 108.8260 108.8323
   108.9621 109.0114 109.1116 109.1483 109.2183 109.4494 109.5961 109.7516
   109.7520 109.8383 109.9901 110.1760 110.5707 110.6672 110.8896 110.8987
   110.9816 111.0893 111.1602 111.2803 111.5194 111.5231 111.6582 111.7945
   112.0258 112.1135 112.2689 112.3408 112.3726 112.5654 112.7678 112.8068
   112.8691 113.1167 113.2464 113.2514 113.3954 113.4216 113.5960 113.6099
   113.7024 113.9137 114.0067 114.0225 114.1487 114.3285 114.3411 114.4678
   114.6070 114.7290 114.7652 114.8842 114.9238 115.0935 115.1064 115.2454
   115.2937 115.3830 115.5522 115.8502 116.0029 116.1195 116.3051 116.3900
   116.5206 116.7021 116.8059 117.0060 117.0897 117.1613 117.1908 117.3120
   117.4453 117.4465 117.5016 117.5089 117.6683 117.6709 117.7393 117.9519
   117.9559 118.0803 118.2067 118.2075 118.4583 118.5002 118.5039 118.7008
   118.7079 118.8600 119.1602 119.2897 119.3929 119.6395 119.6473 119.6648
   119.7221 120.0017 120.0095 120.1944 120.3944 120.4021 120.5225 120.6648
   120.6813 120.7316 120.8725 121.0113 121.2368 121.2455 121.4460 121.5860
   121.7167 121.9443 121.9515 121.9739 122.1482 122.2484 122.3506 122.4386
   122.5625 122.7150 122.7356 122.8315 123.0241 123.1417 123.2379 123.2957
   123.3205 123.3754 123.4143 123.4238 123.4818 123.9019 124.1173 124.2009
   124.3688 124.4432 124.4804 124.7443 124.8033 125.0489 125.1919 125.4582
   125.5630 125.5931 125.7790 125.8289 126.0844 126.1545 126.1999 126.3768
   126.4173 126.5503 126.7031 126.7421 126.9378 126.9838 127.3341 127.3898
   127.6313 127.6811 127.8906 128.0171 128.0266 128.3020 128.3615 128.5574
   128.8034 128.9179 128.9370 129.0912 129.2242 129.3362 129.4072 129.6796
   129.6880 129.7291 129.8531 129.8841 130.1258 130.2536 130.4083 130.4174
   130.4983 130.7520 130.9649 131.0272 131.1650 131.2186 131.2436 131.3993
   131.4128 131.5022 131.7148 131.7394 131.7832 131.8777 132.0390 132.1500
   132.1692 132.3096 132.3718 132.6253 132.7516 132.8820 133.0695 133.1740
   133.2817 133.5231 133.5901 133.8241 133.8701 134.2172 134.2275 134.2666
   134.4531 134.5199 134.5617 134.6557 134.6968 134.7106 134.7781 134.8284
   134.8667 135.0228 135.0839 135.2257 135.2393 135.3173 135.3841 135.4602
   135.5169 135.6142 135.6429 135.7068 135.7655 135.8936 135.8972 135.9423
   135.9702 136.2351 136.2664 136.3760 136.4302 136.5079 136.6508 136.6772
   136.9361 136.9650 137.1489 137.2769 137.2806 137.4095 137.4206 137.5177
   137.5277 137.6271 137.7279 137.7795 137.8618 138.0188 138.1496 138.2793
   138.3275 138.4112 138.4152 138.7135 138.8757 138.8954 139.0242 139.0743
   139.0759 139.0956 139.3800 139.4696 139.4924 139.6193 139.6204 139.7173
   139.9376 139.9500 140.0919 140.1261 140.1915 140.2453 140.3278 140.3439
   140.5155 140.5543 140.6697 140.7023 141.1548 141.1630 141.3393 141.4751
   141.4783 141.7222 141.7437 141.7898 142.0032 142.0697 142.1852 142.4048
   142.5389 142.6309 142.6652 142.7745 142.8403 142.9283 143.0449 143.0642
   143.1474 143.1732 143.1888 143.3361 143.3620 143.4198 143.4374 143.5300
   143.5487 143.6296 143.6799 143.6964 143.9180 144.0536 144.1027 144.1281
   144.2642 144.3196 144.3665 144.4717 144.6865 144.7003 144.7425 144.9088
   145.0495 145.0923 145.2336 145.3438 145.5965 145.6277 145.6965 145.9531
   146.0878 146.1106 146.1846 146.4140 146.4786 146.5021 146.5274 146.6542
   146.7525 147.0818 147.2231 147.2338 147.3812 147.4571 147.4820 147.6500
   147.7139 147.8115 147.8611 147.8951 147.9700 147.9710 148.1690 148.2431
   148.2847 148.3949 148.5138 148.6313 148.7653 148.8611 148.9218 148.9333
   149.1134 149.1481 149.2557 149.2596 149.3675 149.4499 149.5518 149.7808
   149.9833 150.0429 150.1511 150.2957 150.4307 150.5485 150.5730 150.6353
   150.8420 150.8849 150.9269 151.1082 151.3170 151.3563 151.4704 151.5097
   151.5789 151.6340 151.7483 151.7652 151.9136 151.9981 152.0063 152.0637
   152.1565 152.2720 152.2930 152.3116 152.3775 152.5115 152.6121 152.6857
   152.7383 152.9002 153.1042 153.1333 153.2592 153.2703 153.3314 153.3423
   153.6357 153.7072 153.7864 153.9414 154.1517 154.2518 154.4742 154.5288
   154.6390 154.6865 154.9714 154.9943 155.0120 155.0643 155.1639 155.1971
   155.2662 155.3233 155.4000 155.6403 155.8834 155.8868 156.0016 156.1288
   156.2683 156.2741 156.3886 156.5413 156.6500 156.7271 156.7294 156.7875
   156.9820 157.1544 157.2088 157.2738 157.3462 157.3770 157.4311 157.4954
   157.5234 157.6059 157.6101 157.7335 157.7637 157.9470 158.0427 158.1543
   158.2761 158.4513 158.4693 158.5691 158.6379 158.7266 158.7429 159.2317
   159.3168 159.4975 159.5256 159.6016 159.6195 159.8292 159.9660 160.0842
   160.0875 160.1452 160.2885 160.2912 160.3692 160.3826 160.6017 160.6297
   160.6377 160.8347 160.9229 160.9794 161.0697 161.0862 161.1890 161.4293
   161.4638 161.5372 161.5444 161.6541 161.6576 161.7055 161.9142 161.9207
   162.1112 162.2106 162.2257 162.2918 162.4671 162.5160 162.6065 162.6567
   162.8016 162.8136 162.8887 163.1147 163.2202 163.3240 163.3309 163.3955
   163.4189 163.6257 163.7783 163.8808 164.0003 164.1910 164.2669 164.2768
   164.2919 164.5171 164.7169 164.8312 164.9163 164.9944 165.0163 165.1082
   165.1998 165.3137 165.3353 165.3682 165.4885 165.5192 165.5520 165.6027
   165.8649 165.9079 165.9640 166.0261 166.3657 166.4210 166.4488 166.5193
   166.5710 166.7010 166.8155 166.8766 166.9516 167.0441 167.3426 167.3961

          k = 0.1667 0.4811 0.0000 (  7585 PWs)   bands (ev):

   -49.9535 -28.2185 -28.1260 -27.9534 -17.3205 -17.2762  -7.2300  -6.9414
    -6.4054  -5.8976  -5.4854  -5.3830  -0.9814   1.6883   2.2216   2.6939
     3.0052   5.3099   5.7737   6.2639   7.0099   7.0388   7.4073   7.6483
     8.1486   8.5188   8.5929   9.3135   9.5354   9.9779  10.0488  10.1784
    10.4377  10.7662  11.1837  11.6595  11.6822  12.2596  12.3608  12.5353
    13.0261  13.1383  13.6834  14.0380  14.2224  14.3585  14.5858  15.0338
    15.4790  15.7493  16.1539  16.3142  16.4663  16.7951  17.3455  17.5636
    17.9138  18.6461  18.6939  18.9861  19.5194  19.7498  20.2445  20.6380
    21.0664  21.2987  21.4914  21.5805  21.6448  21.9425  22.4567  22.5505
    22.8013  22.9267  23.2261  23.4582  23.7788  24.1821  24.2094  24.5437
    25.0221  25.3988  25.9575  26.0447  26.0886  26.3465  26.8651  26.9595
    27.0998  27.3406  27.6302  27.8126  28.2646  28.3259  28.5458  28.9388
    29.0296  29.2626  29.4240  29.7057  30.0622  30.4173  30.6385  30.6761
    30.8438  31.1538  31.7470  31.8878  32.0548  32.2263  32.6305  32.8059
    32.9368  33.1944  33.4425  33.4642  33.9185  34.0269  34.2501  34.2689
    34.5372  34.8485  34.9653  35.2813  35.4143  35.4721  35.6140  35.6872
    36.0347  36.0495  36.3718  36.3919  36.8603  37.0334  37.2944  37.2959
    37.5502  37.8912  38.0073  38.0915  38.1420  38.3477  38.4209  38.7320
    38.7990  39.0881  39.1264  39.5416  39.6526  39.6699  39.7769  40.1771
    40.3075  40.3656  40.6339  40.9618  41.0604  41.2174  41.3350  41.3676
    41.5147  41.7135  41.8220  42.0858  42.2511  42.4290  42.5615  42.7930
    42.9444  43.0696  43.1802  43.4510  43.6308  43.6318  44.0531  44.1553
    44.4432  44.4940  44.7052  44.8667  44.8867  45.2373  45.2849  45.5247
    46.0119  46.1025  46.3574  46.4934  46.7181  46.7261  47.0050  47.1385
    47.3089  47.4028  47.5085  47.8584  47.9436  47.9915  48.3120  48.3357
    48.4703  48.7592  48.9362  49.1129  49.2095  49.3078  49.4232  49.6664
    49.7105  50.0502  50.1349  50.3167  50.4071  50.5600  50.5798  50.8827
    51.0151  51.0694  51.2609  51.2834  51.6277  51.7576  52.0757  52.1750
    52.5278  52.5444  52.6887  52.7423  52.8687  52.9453  53.1513  53.1917
    53.4569  53.7162  53.7327  53.8186  54.0466  54.0612  54.2143  54.4749
    54.5660  54.7049  54.7977  54.9694  55.1856  55.3353  55.5042  55.6056
    55.7383  56.0228  56.1774  56.2788  56.3291  56.5840  56.7374  56.9155
    57.0849  57.2864  57.4228  57.6991  57.8870  58.2223  58.2594  58.4682
    58.5466  58.9554  59.1069  59.2890  59.3986  59.5191  59.5786  59.8355
    60.2825  60.4063  60.4222  60.6542  60.6915  61.1622  61.1912  61.5679
    61.6175  61.7619  61.8610  62.0487  62.6529  62.6561  62.8586  62.8731
    63.1620  63.3423  63.3936  63.6389  63.8065  64.2008  64.2432  64.5018
    64.6537  64.6653  64.9083  65.0413  65.3850  65.4386  65.8337  65.9388
    66.1698  66.3858  66.6962  66.7459  66.9878  67.0333  67.1798  67.1987
    67.5709  67.7714  67.8077  67.9631  68.0686  68.1912  68.3254  68.6737
    68.8339  69.0626  69.1374  69.2081  69.2333  69.5058  69.5982  69.6776
    69.7441  69.9601  70.0250  70.2117  70.2657  70.4930  70.4989  70.6814
    70.7367  71.0827  71.2571  71.2997  71.4296  71.4960  71.7121  71.8045
    72.0956  72.2264  72.4311  72.6825  72.9011  73.0301  73.1629  73.2220
    73.3812  73.4687  73.7269  74.0122  74.1497  74.2359  74.5729  74.6924
    74.8319  74.8590  75.0071  75.0682  75.3921  75.4882  75.6300  75.7188
    75.8701  76.0541  76.0809  76.3097  76.4184  76.6208  76.6888  76.9385
    77.0460  77.2064  77.2393  77.3734  77.4660  77.5378  77.7193  77.8543
    78.0025  78.1707  78.3719  78.6184  78.6999  78.8595  78.9757  79.1105
    79.2256  79.3757  79.5807  79.6752  79.7128  79.8694  80.1347  80.2559
    80.7034  80.7358  80.9667  81.0584  81.1795  81.2916  81.3697  81.5509
    81.6293  81.8472  82.0702  82.0792  82.1241  82.1492  82.2944  82.4218
    82.5684  82.6878  82.8556  82.8738  83.1343  83.3198  83.5201  83.6385
    83.7537  83.7673  84.0351  84.0423  84.3939  84.4530  84.6171  84.6941
    84.8550  84.9194  84.9225  85.0782  85.2378  85.4593  85.4783  85.5489
    85.5868  85.8802  85.9675  86.0026  86.1095  86.2238  86.3630  86.5377
    86.5999  86.6997  86.7739  87.1430  87.1431  87.2917  87.3387  87.6274
    87.7423  87.8107  87.9190  87.9917  88.0251  88.1727  88.2486  88.3955
    88.5378  88.6626  88.7178  88.8889  88.9705  89.2529  89.2709  89.3811
    89.4119  89.5127  89.7122  89.7292  89.9300  90.1258  90.1867  90.2411
    90.4755  90.5274  90.6572  90.8706  90.9243  90.9776  91.0880  91.2405
    91.3151  91.4325  91.4947  91.6312  91.7899  91.8987  92.0704  92.2009
    92.4588  92.5446  92.5802  92.7984  92.8872  93.1758  93.1758  93.4128
    93.4255  93.5033  93.6908  93.7761  94.0011  94.0774  94.1590  94.2234
    94.3490  94.7373  94.7678  94.8651  94.8668  95.0893  95.0917  95.2265
    95.3381  95.6357  95.6526  95.8595  96.0628  96.0826  96.3026  96.3357
    96.5078  96.5288  96.6835  96.7220  96.9396  97.0060  97.1291  97.1418
    97.3662  97.4056  97.6008  97.6908  97.8066  97.8519  97.9801  98.1316
    98.2330  98.4716  98.5004  98.6197  98.8382  98.8846  99.0246  99.1307
    99.2911  99.3551  99.4500  99.5333  99.6629  99.6737  99.7463  99.8573
   100.0724 100.0904 100.2844 100.4907 100.5515 100.7327 100.8402 100.9058
   101.1172 101.1182 101.4535 101.4695 101.6446 101.7169 101.8119 101.9038
   102.0734 102.0947 102.2471 102.2860 102.5591 102.6149 102.6690 102.7494
   102.9625 103.0179 103.1301 103.2275 103.4105 103.5764 103.7485 103.9244
   103.9836 104.1677 104.2275 104.3082 104.5926 104.5986 104.7286 104.8718
   104.9376 104.9888 105.0234 105.1282 105.2619 105.3682 105.3925 105.4200
   105.5838 105.7375 105.7556 105.9629 106.0539 106.2353 106.2933 106.3359
   106.4623 106.5833 106.6142 106.7049 106.9299 106.9476 107.1814 107.3745
   107.4367 107.4483 107.6182 107.6775 107.7558 107.8057 107.8772 108.0017
   108.1058 108.2437 108.3442 108.3764 108.5299 108.5816 108.7370 108.8098
   108.8703 108.9110 108.9540 109.2741 109.3300 109.3693 109.3917 109.4965
   109.7700 109.8285 109.9114 109.9846 110.1413 110.2196 110.3217 110.5339
   110.5521 110.7914 110.8850 111.0073 111.0747 111.2138 111.3170 111.3407
   111.3609 111.4285 111.4915 111.6141 111.6413 111.8021 112.0345 112.2284
   112.4622 112.6838 112.7575 112.9058 113.0008 113.0894 113.2099 113.2530
   113.2840 113.5716 113.7137 113.7227 113.8389 114.0381 114.0485 114.2094
   114.2915 114.3329 114.4412 114.6875 114.6918 114.9596 115.0172 115.1207
   115.4186 115.4932 115.6215 115.7324 115.9158 116.0699 116.0748 116.2666
   116.2964 116.3842 116.5441 116.5887 116.8186 117.0019 117.0064 117.2209
   117.3367 117.3682 117.4416 117.5524 117.5894 117.6710 117.7853 118.0097
   118.0243 118.2496 118.4260 118.5468 118.8004 118.8893 119.0837 119.3128
   119.3306 119.4585 119.6274 119.6576 119.7990 119.9816 119.9921 120.1324
   120.1997 120.3716 120.4161 120.4928 120.6685 120.7086 120.8639 120.9328
   121.0351 121.1382 121.1856 121.3584 121.5544 121.5755 121.6753 121.8116
   122.0598 122.0683 122.2454 122.2723 122.3107 122.3899 122.4892 122.7650
   122.7843 122.8707 123.0499 123.1952 123.3309 123.3705 123.4683 123.5085
   123.6903 123.8696 123.8724 123.9859 124.1955 124.2762 124.3564 124.4880
   124.5820 124.7587 124.8157 124.8663 124.9620 125.0703 125.0752 125.1645
   125.2125 125.4795 125.5605 125.5783 125.8852 125.9644 126.1219 126.1407
   126.2958 126.3162 126.5175 126.5733 126.6910 126.7000 126.9542 127.0430
   127.0662 127.2492 127.4159 127.4178 127.6126 127.6937 127.9402 128.0646
   128.1522 128.3590 128.3592 128.4618 128.5445 128.6724 128.7554 128.9152
   128.9226 129.0940 129.1020 129.2191 129.3836 129.4675 129.6981 129.8022
   129.9352 129.9516 130.1654 130.2456 130.3594 130.5114 130.6025 130.7796
   130.8981 131.0204 131.1419 131.2603 131.3363 131.4646 131.4781 131.4972
   131.5861 131.6520 131.8190 131.9436 132.0748 132.0871 132.3064 132.4581
   132.6773 132.7865 132.8226 133.0999 133.1018 133.2017 133.2315 133.3866
   133.4490 133.5362 133.5460 133.7938 133.9327 133.9621 134.0225 134.0838
   134.2931 134.3612 134.5126 134.6223 134.7589 134.8225 134.8842 134.9202
   135.0632 135.3564 135.3565 135.5046 135.6049 135.7190 135.8959 135.9207
   136.1768 136.2062 136.2828 136.4858 136.6814 136.7431 136.7687 136.8720
   136.9400 137.0785 137.1373 137.1775 137.3265 137.4193 137.4666 137.5012
   137.7518 137.8776 137.9684 138.1420 138.2589 138.4698 138.5985 138.6813
   138.9825 139.0816 139.1952 139.2087 139.5335 139.5524 139.6494 139.7382
   139.7701 139.9698 140.0724 140.2528 140.3224 140.3750 140.5192 140.5247
   140.6774 140.8020 141.0650 141.0987 141.2103 141.3446 141.4323 141.6106
   141.8637 141.9671 142.0170 142.1566 142.3573 142.4028 142.5857 142.7368
   142.8093 142.9373 142.9980 143.1130 143.2445 143.5024 143.5764 143.5873
   143.8376 143.8886 143.9772 144.0035 144.2346 144.2972 144.3697 144.5305
   144.6452 144.8082 145.0145 145.1828 145.2404 145.4422 145.4776 145.5913
   145.6552 145.7164 145.8507 146.1607 146.1827 146.3589 146.4453 146.6581
   146.7781 146.8001 146.8937 147.0165 147.0940 147.1036 147.3849 147.4599
   147.5422 147.5959 147.7694 147.8352 147.9926 148.0440 148.1602 148.1641
   148.2532 148.3303 148.5353 148.6785 148.8209 148.8619 148.9319 149.0227
   149.0778 149.1357 149.2089 149.3348 149.3757 149.5138 149.5369 149.7161
   149.8570 149.8621 150.0587 150.1386 150.3189 150.4817 150.5239 150.5585
   150.8243 150.9464 151.0416 151.0587 151.1027 151.2229 151.2513 151.3174
   151.3450 151.5062 151.6120 151.8198 151.8724 151.8784 151.9930 152.0695
   152.2544 152.2926 152.5119 152.5934 152.6881 152.7427 152.8524 153.0334
   153.1300 153.2845 153.2954 153.4457 153.5150 153.5964 153.7018 153.8036
   153.8236 153.9482 154.1587 154.3300 154.4039 154.5236 154.5906 154.6388
   154.7405 154.9208 154.9264 155.0888 155.1467 155.4440 155.4734 155.5516
   155.6632 155.7188 155.7923 155.9705 156.1210 156.1656 156.2660 156.3958
   156.4351 156.5765 156.7739 156.8260 156.8750 156.9602 157.0668 157.1989
   157.2730 157.2924 157.3726 157.4880 157.5434 157.6128 157.7604 157.8966
   158.0568 158.1975 158.2828 158.3861 158.5717 158.6752 158.6975 158.8195
   158.8884 159.0209 159.0666 159.2327 159.3513 159.3963 159.5879 159.6231
   159.6753 159.8468 159.8728 159.8951 159.9994 160.2985 160.3674 160.4321
   160.6074 160.7349 160.8109 160.8716 160.9978 161.0071 161.1203 161.1662
   161.2187 161.3120 161.3944 161.5713 161.6441 161.7656 161.7976 162.0419
   162.0551 162.1682 162.2873 162.2954 162.4074 162.4447 162.4707 162.5795
   162.6172 162.7976 162.8013 162.8955 162.9808 163.0925 163.1271 163.1768
   163.4016 163.4593 163.6098 163.6143 163.8555 163.8950 164.0536 164.1244
   164.1916 164.2481 164.3339 164.3982 164.4777 164.6080 164.7054 164.8014
   164.9425 164.9896 165.1000 165.1237 165.2580 165.3187 165.3355 165.4421
   165.5469 165.7378 165.7499 165.8296 165.9007 166.0106 166.0430 166.1515
   166.1645 166.2779 166.4007 166.4247 166.5829 166.6411 166.7930 166.8324
   166.8971 167.0275 167.0814 167.1637 167.3007 167.3867 167.5334 167.5816
   167.7763 167.8742 167.9228 168.0366 168.1306 168.1831 168.2981 168.4037
   168.4067 168.5269 168.5929 168.6876 168.8405 168.9839 169.0334 169.1522

          k = 0.3333 0.5774 0.0000 (  7581 PWs)   bands (ev):

   -49.9475 -28.1673 -28.1088 -28.0817 -17.2901 -17.1668  -7.1247  -6.8220
    -6.3804  -6.2954  -5.9512  -5.5846  -0.3462   1.7437   2.0538   2.4787
     3.2782   5.8191   6.2136   7.1875   7.7102   8.2099   8.4093   8.6533
     8.7518   9.1633   9.4517   9.4907   9.4992   9.5131   9.9906  10.0721
    10.1145  10.1881  10.3149  10.3579  11.1312  11.4854  11.6030  11.7190
    11.9180  11.9604  13.1219  13.5505  13.7233  13.7291  13.8563  13.9685
    13.9933  15.5159  15.5896  15.7390  16.2012  16.4717  16.8223  18.0107
    18.2779  18.6683  18.6964  19.6239  19.6338  20.3913  20.4107  20.4205
    20.9808  21.2110  21.5776  21.6648  22.2258  22.8081  23.3364  23.4775
    24.1691  24.1904  24.3334  24.4082  24.7472  25.6826  25.8612  25.9185
    26.3388  26.4274  26.4506  26.6252  26.7653  26.8228  26.9311  26.9636
    26.9998  27.2626  27.2927  27.6272  27.9351  28.0323  28.0951  28.3555
    28.3942  28.5553  28.6725  28.8433  29.4978  29.6081  29.6550  29.9169
    30.3797  30.7102  30.9104  30.9308  31.2529  31.5017  31.6758  31.6795
    31.8240  32.3830  32.5044  32.7226  32.7683  33.2904  33.3133  34.0257
    34.0396  34.3628  34.6145  35.0502  35.1438  35.2826  35.2896  35.3525
    35.9249  36.1580  36.4154  36.4424  36.5862  37.3925  37.4251  38.0222
    38.0418  38.3490  38.4222  38.4332  39.2397  39.2791  39.6430  39.7546
    39.7674  40.4773  40.9346  41.4027  41.7682  42.3409  42.3945  42.3950
    42.5010  42.6006  42.9678  42.9911  43.0558  43.1062  43.3608  43.4646
    43.5182  43.6900  43.7231  43.8643  43.8718  44.0011  44.0250  44.0847
    44.1092  44.1404  44.1820  44.2391  44.4065  44.4073  44.4218  44.4711
    44.7108  44.8031  44.8987  44.9914  44.9946  45.2033  45.2704  45.2908
    45.3143  45.3398  45.6779  45.8874  45.8956  46.2468  46.2611  46.4223
    46.4514  46.5767  46.6120  46.7378  46.9094  46.9254  47.3022  47.3973
    47.5437  47.7273  47.9625  48.0147  48.1365  48.2250  48.2287  48.3061
    48.4653  48.5339  48.7251  48.7509  49.1521  49.3537  49.5179  49.5984
    49.6127  50.0030  50.0078  50.0174  50.2474  50.3947  50.4561  51.2314
    51.4016  51.5834  51.6313  51.7044  51.7298  51.7938  52.0909  52.1363
    52.1381  52.2104  52.5927  52.7704  52.9640  53.0238  53.1767  53.3358
    53.3698  53.6322  53.8411  54.1234  54.4052  54.6204  54.9784  55.0189
    55.0720  55.1568  55.5882  55.5961  55.9384  56.2358  56.2689  56.7291
    56.7310  56.8799  56.9158  57.0430  57.1174  57.3131  57.5264  57.9552
    58.1663  58.3100  58.6161  58.8015  58.8231  58.8688  59.3630  59.3686
    59.4712  59.4822  59.6757  60.2374  60.4347  60.4807  60.6225  60.7776
    61.1380  61.5320  61.6463  61.6478  61.9916  62.3121  62.4362  62.9029
    62.9748  63.1383  63.6298  63.6342  64.1213  64.2235  64.2883  64.3200
    64.4683  64.7404  64.7858  64.9053  65.1729  65.1907  65.2056  65.3518
    65.8512  66.3123  66.4623  66.5034  66.5076  66.7114  66.8601  66.9476
    67.2170  67.4362  67.7085  67.7306  67.8591  68.0553  68.6098  68.9154
    69.4557  69.5082  69.6232  69.7126  69.7771  69.8260  70.1999  70.3153
    70.6441  70.7943  71.1207  71.1952  71.2784  71.4933  71.6368  71.9478
    71.9976  72.8253  72.9325  72.9517  72.9598  73.3273  73.4969  73.9856
    74.0402  74.0898  74.2181  74.7688  74.8170  74.9799  74.9893  75.1864
    75.4111  75.4436  75.6579  75.6792  75.9712  76.0262  76.0572  76.5352
    76.5353  76.7159  76.8843  76.9060  77.0059  77.5663  77.5894  77.6966
    77.7161  77.8320  77.9376  78.0922  78.2194  78.2433  78.2589  78.3299
    78.3478  78.4551  78.5576  78.6824  78.6919  78.6956  78.7109  78.7131
    78.7648  78.7766  78.8637  79.1373  79.2761  79.2804  79.2924  79.3794
    79.4123  79.5006  79.7077  79.8636  79.8638  79.8775  79.9580  80.0912
    80.1813  80.2413  80.5898  80.7401  80.8769  80.8888  81.0440  81.1402
    81.1562  81.2532  81.3814  81.4854  81.6041  81.6846  81.8400  81.9485
    81.9974  82.0747  82.1779  82.5806  82.6436  82.6564  82.6702  82.9735
    83.0346  83.0572  83.1980  83.4476  83.4501  83.5470  83.5707  83.6273
    83.8770  84.0975  84.1284  84.1902  84.3130  84.4302  84.6663  84.6982
    84.8033  85.0838  85.0973  85.1310  85.1931  85.4803  85.6177  85.8354
    85.9221  85.9415  86.1022  86.2128  86.4144  86.7120  86.7586  86.9915
    87.0289  87.1488  87.1528  87.8507  87.9294  88.0280  88.2311  88.3845
    88.4119  88.5015  88.6464  88.9306  89.0691  89.0905  89.2131  89.4948
    89.5865  89.5902  89.6202  89.6345  89.7595  89.9181  90.1962  90.4553
    90.7224  90.7551  90.8899  90.9785  91.0152  91.5121  91.7500  91.7829
    91.8399  92.0930  92.1239  92.1844  92.3259  92.3824  92.4355  92.4667
    92.5944  92.6230  92.7782  92.8302  92.9866  93.0384  93.1866  93.1894
    93.4593  93.6228  93.6328  93.9557  93.9637  94.0939  94.1615  94.3923
    94.5771  94.9229  95.0484  95.0595  95.1384  95.1816  95.2400  95.3833
    95.4565  95.6392  95.8457  95.8747  95.9062  95.9950  96.0427  96.2819
    96.3890  96.4609  96.5247  96.7063  96.7569  96.8831  97.0350  97.0585
    97.0681  97.2256  97.2482  97.3473  97.3702  97.5071  97.7047  97.7584
    97.8902  97.9804  98.1647  98.2355  98.3055  98.3256  98.5658  98.6244
    98.8300  98.9363  99.0428  99.1358  99.2766  99.4130  99.5037  99.5894
    99.7206 100.0083 100.1808 100.2229 100.3001 100.3034 100.6891 100.6936
   100.7263 100.8454 100.8737 101.0550 101.1146 101.4196 101.4768 101.4785
   101.5475 101.6337 101.7145 101.8454 102.0047 102.0185 102.1184 102.2105
   102.3729 102.4269 102.4737 102.4945 102.6765 102.6859 102.7829 103.3714
   103.8459 103.9518 103.9852 104.1294 104.1546 104.1874 104.4525 104.5800
   104.6174 104.6811 104.9446 105.1250 105.4235 105.4596 105.5422 105.6071
   106.0804 106.3130 106.3919 106.5985 106.8884 107.0299 107.0450 107.1506
   107.2994 107.6246 107.6487 107.8852 107.9125 107.9745 108.0813 108.2490
   108.5507 108.5952 108.7835 108.7849 108.8186 108.9932 109.0535 109.3144
   109.3197 109.4938 109.6370 109.6546 109.7994 109.8493 109.8503 109.8667
   109.9980 110.1878 110.6163 110.6362 110.7380 110.7733 110.9486 110.9726
   111.3673 111.4310 111.5285 112.0755 112.0882 112.1945 112.2437 112.3553
   112.4219 112.5510 112.6068 112.6079 112.6175 112.6367 112.7106 112.9029
   113.0023 113.0062 113.0116 113.0877 113.1441 113.1604 113.1631 113.1650
   113.1934 113.1942 113.2190 113.2467 113.3022 113.3425 113.4344 113.5111
   113.7164 113.7853 113.8474 114.0682 114.0793 114.2007 114.2490 114.2527
   114.2850 114.2956 114.3025 114.5464 114.5603 114.5803 114.6140 114.7214
   114.7874 115.1151 115.1159 115.2051 115.4034 115.4114 115.4931 115.6894
   115.7412 115.8242 115.8584 115.9127 115.9278 115.9416 115.9683 116.1547
   116.2627 116.3458 116.4666 116.8362 117.0337 117.0467 117.0931 117.1454
   117.2194 117.2540 117.4765 117.5073 117.6152 117.6389 117.7475 117.8571
   118.1917 118.3076 118.3278 118.4733 118.4801 118.4829 118.6289 118.7199
   118.7507 118.7626 118.8002 119.0240 119.0353 119.0612 119.1010 119.3030
   119.3626 119.3992 119.6203 119.8323 119.8675 119.9082 120.1614 120.1770
   120.3107 120.3171 120.3918 120.3982 120.4452 120.6385 120.7553 121.0479
   121.1597 121.3771 121.5520 121.5921 121.6146 121.6931 121.7346 121.8234
   121.8688 122.0551 122.1079 122.2529 122.3696 122.4145 122.5265 122.6264
   123.2465 123.2691 123.6018 123.6899 123.7215 123.7510 123.8205 123.9382
   124.0758 124.1641 124.3258 124.8158 124.8669 124.9989 125.0685 125.0897
   125.0972 125.1562 125.3360 125.3850 125.5638 125.7544 125.7567 125.8436
   126.0109 126.0322 126.2238 126.2418 126.2614 126.3552 126.3826 126.5158
   126.7992 126.8664 126.9127 127.1087 127.2346 127.3726 127.4122 127.4429
   127.4668 127.7166 127.9630 128.1522 128.1652 128.2267 129.0731 129.0953
   129.1419 129.1822 129.2459 129.3329 129.3449 129.6216 129.6228 129.6898
   129.9025 129.9831 130.0191 130.0785 130.2220 130.4566 130.4714 130.5377
   130.5487 130.6233 130.6972 130.7893 130.8362 130.8777 131.2579 132.1820
   132.2491 132.2590 132.4485 132.7117 132.8222 132.8855 133.1025 133.4728
   133.6245 133.6854 133.7516 133.8895 134.0560 134.2246 134.3244 134.5003
   134.7559 134.7704 134.8324 135.0420 135.1829 135.3605 135.4284 135.4850
   135.5353 135.6058 135.6897 135.7139 135.7764 135.7766 135.8612 135.9538
   136.4356 136.7208 136.9123 137.0334 137.0539 137.1561 137.1644 137.1728
   137.2963 137.3198 137.7067 137.7256 137.8357 137.9006 137.9498 138.0049
   138.3654 138.3717 138.3743 138.4085 138.9459 139.0052 139.2656 139.3886
   139.5316 139.6314 139.7991 139.8890 139.9278 140.1180 140.1213 140.2952
   140.3177 140.3828 140.6721 140.9044 141.0300 141.0614 141.1418 141.4431
   141.5411 141.8540 142.0979 142.1243 142.1476 142.4394 142.5126 142.6329
   142.7236 142.7349 142.7941 142.9406 143.2149 143.4049 143.4102 143.6018
   143.6677 143.7090 143.7417 143.8672 144.2926 144.6142 144.6607 144.7237
   144.7330 144.7987 145.0663 145.3806 145.5133 145.6852 145.6872 145.7418
   145.7647 145.7709 145.7777 145.9884 146.1321 146.2441 146.4120 146.4649
   146.4958 146.5519 146.7307 146.8129 146.9420 147.0346 147.2114 147.2495
   147.2665 147.3398 147.3513 147.5872 147.7013 147.7137 147.7251 147.7550
   147.8092 147.8353 148.0554 148.1139 148.2830 148.2956 148.4481 148.4733
   148.6456 148.7029 148.7054 148.7103 148.8074 148.9341 148.9463 149.0292
   149.2422 149.2623 149.3625 149.3845 149.4102 149.8841 150.0705 150.0752
   150.0757 150.1419 150.1949 150.3552 150.6107 150.6404 150.7899 150.8964
   150.9921 151.0264 151.0719 151.1684 151.1749 151.2520 151.4174 151.4260
   151.6541 151.7716 151.8677 152.0936 152.2364 152.2750 152.4176 152.5879
   152.6218 152.7524 152.8314 152.9680 152.9857 153.0096 153.1930 153.2276
   153.2326 153.2977 153.5230 153.5292 153.6461 153.7140 153.7221 153.7888
   153.8335 153.9536 154.1048 154.2901 154.4412 154.5154 154.5431 154.6334
   155.3057 155.6641 155.6941 156.0096 156.0806 156.1020 156.2158 156.2774
   156.3119 156.5373 156.5432 156.5672 156.6516 156.7615 157.0433 157.0848
   157.1045 157.3434 157.3522 157.4025 157.5999 157.6007 157.8484 158.0116
   158.0545 158.3235 158.4026 158.7109 158.9132 158.9624 159.1010 159.1346
   159.2760 159.5903 159.5978 159.7626 159.7886 159.8602 159.9648 160.0126
   160.0689 160.0698 160.1088 160.2173 160.5760 160.7479 160.7718 160.9186
   160.9473 160.9682 160.9842 160.9965 161.0448 161.1202 161.2160 161.3294
   161.3777 161.4261 161.4849 161.5476 161.6585 161.7681 161.9597 162.1683
   162.2193 162.2685 162.2841 162.4526 162.4962 162.5282 162.5470 162.8445
   163.0023 163.1566 163.4897 163.5309 163.7199 164.1295 164.3037 164.3714
   164.4140 164.4719 164.4727 164.6517 164.7213 164.7555 164.7603 164.8314
   164.8857 164.9094 164.9210 164.9435 164.9648 164.9673 164.9741 165.0065
   165.0109 165.0647 165.0976 165.1261 165.1598 165.4189 165.4875 165.5178
   165.6322 165.6326 165.6467 165.6864 165.7189 165.7845 165.8465 165.8864
   165.9759 166.0175 166.0908 166.0990 166.0991 166.1024 166.1058 166.2038
   166.2298 166.3885 166.4509 166.6208 166.6620 166.8993 166.9215 166.9273
   167.0949 167.3380 167.4387 167.5304 167.5489 167.6270 167.6701 167.7898
   167.9399 167.9879 168.0173 168.1669 168.2070 168.2541 168.2925 168.5920
   168.6412 168.6447 168.8020 168.9649 169.1421 169.1561 169.2692 169.3562

     the Fermi energy is     0.5204 ev
     (compare with:     0.1195 eV, computed in scf)

     Writing all to output data dir out/ZrCl2.save/
 
     init_run     :      0.21s CPU      0.30s WALL (       1 calls)
     electrons    :    507.17s CPU    522.59s WALL (       1 calls)

     Called by init_run:
     wfcinit      :      0.00s CPU      0.00s WALL (       1 calls)
     potinit      :      0.08s CPU      0.10s WALL (       1 calls)
     hinit0       :      0.04s CPU      0.10s WALL (       1 calls)

     Called by electrons:
     c_bands      :    507.17s CPU    522.59s WALL (       1 calls)
     v_of_rho     :      0.01s CPU      0.01s WALL (       1 calls)

     Called by c_bands:
     init_us_2    :      0.00s CPU      0.00s WALL (       7 calls)
     init_us_2:cp :      0.00s CPU      0.00s WALL (       7 calls)
     cegterg      :    493.94s CPU    508.98s WALL (       7 calls)

     Called by *egterg:
     cdiaghg      :    432.95s CPU    446.81s WALL (      84 calls)
     h_psi        :     16.45s CPU     16.76s WALL (      91 calls)
     g_psi        :      0.10s CPU      0.10s WALL (      77 calls)

     Called by h_psi:
     h_psi:calbec :      0.28s CPU      0.29s WALL (      91 calls)
     vloc_psi     :     15.83s CPU     16.11s WALL (      91 calls)
     add_vuspsi   :      0.23s CPU      0.23s WALL (      91 calls)

     General routines
     calbec       :      0.28s CPU      0.29s WALL (      91 calls)
     fft          :      0.00s CPU      0.07s WALL (      10 calls)
     fftw         :     14.80s CPU     15.06s WALL (  122688 calls)
 
     Parallel routines
 
     PWSCF        :   8m28.56s CPU   8m44.96s WALL

 
   This run was terminated on:  12:54:22   5Apr2024            

=------------------------------------------------------------------------------=
   JOB DONE.
=------------------------------------------------------------------------------=
