
     Program PWSCF v.7.1 starts on  7Apr2024 at  8:18: 9 

     This program is part of the open-source Quantum ESPRESSO suite
     for quantum simulation of materials; please cite
         "P. Giannozzi et al., J. Phys.:Condens. Matter 21 395502 (2009);
         "P. Giannozzi et al., J. Phys.:Condens. Matter 29 465901 (2017);
         "P. Giannozzi et al., J. Chem. Phys. 152 154105 (2020);
          URL http://www.quantum-espresso.org", 
     in publications or presentations arising from this work. More details at
     http://www.quantum-espresso.org/quote

     Parallel version (MPI), running on     8 processors

     MPI processes distributed on     1 nodes
     230567 MiB available memory on the printing compute node when the environment starts
 
     Reading input from pw_WS2_nscf_k52_E47.in
Warning: card &IONS ignored
Warning: card / ignored
Warning: card &CELL ignored
Warning: card / ignored

     Current dimensions of program PWSCF are:
     Max number of different atomic species (ntypx) = 10
     Max number of k-points (npk) =  40000
     Max angular momentum in pseudopotentials (lmaxx) =  4

     Atomic positions and unit cell read from directory:
     out/WS2.save/
     Atomic positions from file used, from input discarded
 
 
     R & G space division:  proc/nbgrp/npool/nimage =       8
     Subspace diagonalization in iterative solution of the eigenvalue problem:
     one sub-group per band group will be used
     scalapack distributed-memory algorithm (size of sub-group:  2*  2 procs)

 
     Parallelization info
     --------------------
     sticks:   dense  smooth     PW     G-vecs:    dense   smooth      PW
     Min          59      59     18                 7479     7479    1249
     Max          60      60     20                 7492     7492    1258
     Sum         475     475    151                59873    59873   10023
 
     Using Slab Decomposition
 


     bravais-lattice index     =            4
     lattice parameter (alat)  =       6.0229  a.u.
     unit-cell volume          =    1375.6981 (a.u.)^3
     number of atoms/cell      =            3
     number of atomic types    =            2
     number of electrons       =        40.00
     number of Kohn-Sham states=         1200
     kinetic-energy cutoff     =      47.0000  Ry
     charge density cutoff     =     188.0000  Ry
     Exchange-correlation= PBE
                           (   1   4   3   4   0   0   0)

     celldm(1)=   6.022906  celldm(2)=   0.000000  celldm(3)=   7.270665
     celldm(4)=   0.000000  celldm(5)=   0.000000  celldm(6)=   0.000000

     crystal axes: (cart. coord. in units of alat)
               a(1) = (   1.000000   0.000000   0.000000 )  
               a(2) = (  -0.500000   0.866025   0.000000 )  
               a(3) = (   0.000000   0.000000   7.270665 )  

     reciprocal axes: (cart. coord. in units 2 pi/alat)
               b(1) = (  1.000000  0.577350  0.000000 )  
               b(2) = (  0.000000  1.154701  0.000000 )  
               b(3) = (  0.000000  0.000000  0.137539 )  


     PseudoPot. # 1 for S  read from file:
     /usr/scratch4/magr4985/FGWC/FGWC/pseudo/SG15/S.upf
     MD5 check sum: f9d020296ee6110346977bfd66d424f6
     Pseudo is Norm-conserving, Zval =  6.0
     Generated using ONCVPSP code by D. R. Hamann
     Using radial grid of  602 points,  4 beta functions with: 
                l(1) =   0
                l(2) =   0
                l(3) =   1
                l(4) =   1

     PseudoPot. # 2 for W  read from file:
     /usr/scratch4/magr4985/FGWC/FGWC/pseudo/SG15/W.upf
     MD5 check sum: b6096f31a98cdd82a46cfdcd1f902baf
     Pseudo is Norm-conserving, Zval = 28.0
     Generated using ONCVPSP code by D. R. Hamann
     Using radial grid of  602 points,  8 beta functions with: 
                l(1) =   0
                l(2) =   0
                l(3) =   1
                l(4) =   1
                l(5) =   2
                l(6) =   2
                l(7) =   3
                l(8) =   3

     atomic species   valence    mass     pseudopotential
        S              6.00    32.06500     S ( 1.00)
        W             28.00   183.84000     W ( 1.00)

     12 Sym. Ops. (no inversion) found



   Cartesian axes

     site n.     atom                  positions (alat units)
         1           W   tau(   1) = (   0.0000000   0.5773502   3.6353328  )
         2           S   tau(   2) = (   0.5000000   0.2886752   4.1286326  )
         3           S   tau(   3) = (   0.5000000   0.2886752   3.1420330  )

     number of k points=     7  Gaussian smearing, width (Ry)=  0.0005
                       cart. coord. in units 2pi/alat
        k(    1) = (   0.0000000   0.0000000   0.0000000), wk =   0.0555556
        k(    2) = (   0.0000000   0.1924501   0.0000000), wk =   0.3333333
        k(    3) = (   0.0000000   0.3849002   0.0000000), wk =   0.3333333
        k(    4) = (   0.0000000  -0.5773503   0.0000000), wk =   0.1666667
        k(    5) = (   0.1666667   0.2886751   0.0000000), wk =   0.3333333
        k(    6) = (   0.1666667   0.4811252   0.0000000), wk =   0.6666667
        k(    7) = (   0.3333333   0.5773503   0.0000000), wk =   0.1111111

     Dense  grid:    59873 G-vectors     FFT dimensions: (  27,  27, 192)

     Estimated max dynamical RAM per process >     280.68 MB

     Estimated total dynamical RAM >       2.19 GB

     The potential is recalculated from file :
     out/WS2.save/charge-density

     Starting wfcs are random

     Band Structure Calculation
     Davidson diagonalization with overlap

     ethr =  5.00E-06,  avg # of iterations = 11.1

     total cpu time spent up to now is      643.3 secs

     End of band structure calculation

          k = 0.0000 0.0000 0.0000 (  7547 PWs)   bands (ev):

   -74.3778 -38.6238 -38.4725 -38.4724 -28.5535 -28.5524 -28.5524 -28.5332
   -28.4867 -28.4867 -28.4614 -15.0496 -13.4345  -6.6295  -3.1524  -3.1524
    -2.4270  -1.9296  -1.9296  -0.3506   2.5559   2.5559   2.6964   2.6964
     4.6469   5.0619   5.2710   5.7328   6.3679   7.2028   8.3354   8.3824
     9.3779  10.3125  10.3125  11.0696  11.6916  12.5816  12.5816  12.8397
    14.4229  15.2418  15.4834  15.9884  15.9884  16.3097  16.3097  17.8029
    18.3885  19.0513  19.8963  22.2951  22.2951  22.5339  22.9042  23.8719
    23.8719  24.2141  24.4405  24.4405  24.4478  24.5458  24.5458  24.7630
    24.9432  25.0742  25.0742  25.3239  25.3299  25.3299  25.3749  25.6818
    25.6818  25.7059  25.7059  25.7766  25.9718  25.9718  26.2195  26.2435
    26.6656  26.6656  26.7524  27.1835  27.1835  27.2815  27.2815  27.3273
    27.3869  27.8517  27.8517  27.9146  28.3361  28.5735  28.5735  28.8517
    29.0094  29.2291  29.2291  29.5794  29.5794  29.7284  30.4493  30.4542
    30.4542  30.6536  30.6536  31.1433  31.4890  31.7676  31.7676  32.4011
    32.4011  32.6706  32.7084  33.3037  33.3037  33.4690  33.6149  33.6149
    33.8988  34.5726  34.7268  34.7849  34.7849  35.4103  35.4103  36.3496
    36.6606  36.8572  36.8572  36.9487  36.9487  37.1114  37.1114  37.9426
    38.0488  38.3430  38.8180  38.8180  39.0202  39.2852  39.2852  39.7546
    40.7281  40.7416  40.7416  41.1866  41.3700  41.3700  41.4924  42.4963
    42.4963  42.9678  43.1648  43.1648  44.0691  44.2326  44.2326  45.0490
    45.0490  45.1616  45.6938  45.7963  45.7963  46.1070  46.5984  46.6370
    46.6370  46.7486  47.0565  47.0565  48.6385  48.6990  48.6990  49.7155
    49.7155  49.7254  49.8220  50.2713  51.2353  51.2353  51.5481  52.7383
    52.7383  52.8536  52.8536  52.9222  53.7608  54.6993  54.9082  54.9082
    55.2498  55.4804  55.4804  55.6765  55.6765  55.8257  56.2992  56.2992
    56.5789  57.5208  57.5887  57.5887  58.1636  58.7055  58.7875  58.9649
    58.9649  60.0069  60.0069  60.2215  60.2215  60.3497  60.4695  61.1726
    61.1726  61.3087  61.4046  61.8392  61.8392  62.1170  62.1929  62.1929
    62.8125  63.0705  63.0705  63.6454  63.7378  63.9303  63.9303  64.0425
    64.0425  64.3657  64.6285  64.6285  64.6430  64.6583  64.7027  64.7514
    64.7514  64.8322  64.8444  64.8444  64.8616  65.1526  65.1526  65.2853
    65.2853  65.5091  65.5511  65.6239  65.7260  65.9555  65.9807  65.9807
    66.1503  66.1503  66.1775  66.1775  66.2857  66.2857  66.7340  66.7340
    67.1314  67.2073  67.2073  67.4995  67.5739  67.6663  67.8746  67.8749
    67.8749  67.9877  67.9877  68.0258  68.0258  68.1045  68.3326  68.3326
    68.7390  68.7390  69.3441  69.9395  69.9395  69.9492  69.9492  70.2284
    70.3209  70.3682  70.4325  70.4325  70.5323  70.6945  70.6945  70.7599
    71.2039  71.2039  71.4478  71.7043  71.9604  71.9604  72.1724  72.8059
    72.8059  73.3880  73.3880  73.5448  73.6730  73.6730  73.7487  73.8397
    74.1167  74.2863  74.5549  74.5549  74.7085  74.7085  74.9575  74.9575
    74.9884  75.7607  75.7607  76.0287  76.0287  76.6217  76.6440  76.6440
    77.3676  77.3676  77.5130  77.5228  77.6015  77.7245  77.7314  77.9143
    77.9143  78.2446  78.2446  79.0381  79.7394  79.7394  79.7559  80.0807
    80.1340  80.3259  80.3259  80.6790  80.6790  80.8579  81.3458  81.3458
    81.3882  81.3882  82.0845  82.1198  82.3065  82.5203  82.5203  82.5463
    82.5463  82.7299  82.8017  82.8017  82.8681  83.1917  83.1917  83.2170
    83.4404  83.4404  83.9324  83.9324  84.0354  84.0354  84.0824  84.1825
    84.2862  84.3624  84.3624  84.3966  84.3966  84.4416  84.4810  84.6012
    84.9545  84.9545  84.9951  84.9951  85.1489  85.1489  85.2825  85.2825
    85.3139  85.4135  85.4346  85.6593  85.9405  85.9405  86.0653  86.0653
    86.4028  86.4028  86.5860  86.5938  86.5938  86.9542  86.9542  87.0066
    87.1732  87.1732  87.2936  87.3155  87.3271  87.4634  87.4735  87.4735
    87.6067  87.6067  87.8967  88.2594  88.4493  88.7963  89.0148  89.0148
    89.2136  89.2136  89.2634  89.5757  89.5757  89.7753  89.7753  89.8287
    90.0361  90.0959  90.2451  90.3584  90.3584  90.4874  90.4874  91.0487
    91.0487  91.1495  91.2131  91.2131  91.5881  91.5881  91.9178  92.2223
    92.2803  92.2803  92.5992  92.5992  92.6023  92.6023  92.9472  92.9472
    93.0881  93.1036  93.1036  93.1823  93.1979  93.3587  93.4227  93.4227
    93.5116  93.5477  93.5477  93.6705  94.1505  94.9070  95.7482  95.7482
    95.9744  95.9744  96.0966  96.4426  96.4428  96.4428  96.5656  96.5656
    96.9188  97.1534  97.1534  97.3096  97.7656  98.0467  98.0467  98.4116
    98.4637  98.4681  98.4681  98.6606  98.6606  98.8919  99.2157  99.2157
    99.4073  99.5135  99.8582  99.8582  99.9983 100.2501 100.2501 100.4668
   100.5331 100.5331 100.9048 100.9048 101.1977 101.3227 101.3227 101.4571
   101.6084 101.6084 101.6604 101.6604 101.9382 102.0047 102.4005 102.4016
   102.4016 102.8752 103.6586 103.6586 103.8428 103.9581 103.9581 104.3547
   104.3547 105.1924 105.1924 105.2199 105.4001 106.0997 106.0997 106.2568
   106.3626 106.4010 106.4010 106.5984 106.6515 106.6515 106.7767 106.8602
   106.8603 106.9715 107.4927 107.5313 108.0026 108.7968 108.7968 108.8730
   108.8730 109.4120 109.4120 109.4368 109.4368 109.6041 109.6788 109.8493
   109.8493 110.1731 110.1731 110.2558 110.7991 110.9266 110.9266 111.1927
   111.1927 111.4702 111.4702 111.4983 111.6446 111.7254 111.7254 112.3601
   112.9329 112.9329 112.9382 113.0646 113.1510 113.1817 113.3645 113.3645
   113.4551 113.4868 113.4868 113.8848 114.1863 114.1863 114.4146 114.5583
   114.5583 115.3727 115.4892 116.3436 116.5829 116.5829 117.2738 117.2738
   117.2820 117.6004 117.6004 117.8653 118.2584 118.2584 118.9950 118.9976
   118.9976 119.0507 119.1455 119.1455 119.5120 119.5120 119.8952 119.8952
   120.0690 120.1703 120.1703 120.3211 120.3653 120.6776 120.9668 120.9668
   121.2752 121.2752 121.3734 121.5215 121.7549 121.7549 121.7915 121.7915
   121.8064 122.2555 122.6636 122.6636 123.0282 123.1078 123.6522 123.6522
   124.1219 124.1219 124.4603 124.6495 124.9723 124.9723 125.1698 125.1698
   125.2090 125.2644 125.2644 125.5398 125.6724 125.7980 125.7980 126.2593
   126.2935 126.8096 127.0317 127.0803 127.0803 127.3772 127.3772 127.6433
   128.1933 128.1933 128.7840 128.7840 129.2013 129.3947 129.4074 129.4074
   129.6922 129.6922 130.5420 130.5420 130.6382 130.6382 130.8119 130.8435
   131.0610 131.0610 131.1670 131.2672 131.2672 131.2804 131.7312 131.7312
   131.9198 132.0385 132.2161 132.2161 132.4600 132.4600 132.5037 132.5037
   133.3176 133.5112 133.5112 133.5510 133.6777 133.6777 133.7743 133.8588
   133.8588 134.0967 134.5164 135.0484 135.0914 135.2804 135.2804 135.3003
   135.3003 135.5935 136.2829 136.6964 136.6964 137.6067 137.6067 137.7936
   137.8820 137.8820 138.1392 138.1477 138.2699 139.1451 139.1451 139.4011
   139.4011 139.6393 139.6393 139.7692 139.8665 140.1029 140.1029 140.1296
   140.2188 140.5642 140.5642 140.5973 141.2867 141.2867 141.3588 141.4281
   141.5323 141.5323 141.5348 141.5348 141.9393 141.9682 142.1689 142.1689
   142.2909 142.2909 142.6049 142.6049 142.6288 142.6885 142.7769 142.7769
   142.8835 142.8835 142.9275 142.9662 142.9894 142.9894 143.0781 143.3168
   143.3168 143.4764 143.4989 143.4989 143.5243 143.5243 143.5546 143.5690
   143.6057 143.6410 143.6410 143.6526 143.6526 143.7164 143.7164 143.7520
   143.7791 143.7791 143.7911 143.7911 143.7970 143.8697 144.0142 144.0142
   144.1755 144.2189 144.2189 144.2507 144.2507 144.2507 144.3532 144.4049
   144.4049 144.4162 144.5673 144.6170 144.6170 144.7689 144.7862 144.7863
   144.8305 144.8337 144.8337 144.8738 144.8738 144.9286 145.1742 145.3885
   145.3885 145.4126 145.4126 145.4334 145.7263 145.7263 145.8690 146.0785
   146.2355 146.2355 146.2478 146.4398 146.4398 146.5063 146.5079 146.5546
   146.5546 146.7002 146.7002 146.7828 146.8153 146.8153 146.8405 147.0968
   147.0968 147.1457 147.1457 147.3131 147.4645 147.4720 147.4720 148.0352
   148.0352 148.2561 148.3126 148.3764 148.6039 148.6039 148.6360 148.6360
   148.7600 148.7889 149.0818 149.0818 149.1520 149.1537 149.1537 149.2304
   149.2304 149.3246 149.3246 149.3694 149.4104 149.5203 149.5203 149.7107
   149.7385 149.8920 149.8920 149.9353 150.0400 150.0533 150.0533 150.1253
   150.3439 150.3439 150.4841 150.6711 150.8415 150.8415 150.8622 150.8622
   150.9293 151.3656 151.5603 151.5603 151.6147 151.6147 151.7506 151.7506
   152.0267 152.1525 152.1525 152.2854 152.2981 152.3986 152.5996 152.5996
   152.6965 152.6965 152.9326 152.9532 152.9532 153.0163 153.0352 153.0352
   153.0939 153.4963 153.4963 153.5788 154.0667 154.0667 154.1926 154.2263
   154.2263 154.5289 154.5289 154.7406 154.7662 154.7662 154.8015 154.9736
   154.9736 155.3591 155.3592 155.5553 155.6685 155.6702 155.6702 155.7731
   155.7731 155.8080 156.1227 156.1468 156.4451 156.4451 156.4889 156.4889
   156.6642 156.6642 156.7632 156.8945 156.8961 156.8961 156.9586 157.4053
   157.4054 157.4707 157.4707 157.5105 157.6265 157.9129 157.9129 158.1519
   158.1520 158.5400 158.5444 158.9244 158.9244 158.9913 159.0223 159.0223
   159.2300 159.3163 159.3163 159.5865 159.7099 159.7099 159.9075 159.9075
   159.9146 159.9150 160.0266 160.0266 160.0870 160.2202 160.4637 160.6449
   160.6449 160.8292 160.8520 160.8836 160.8836 160.9775 161.0401 161.0811
   161.0812 161.1916 161.1916 161.4748 161.4748 161.5983 161.9353 161.9417
   161.9417 162.1752 162.1752 162.2628 162.3247 162.5906 162.6402 162.6402
   162.7974 162.7975 163.4720 163.4720 163.5154 164.2302 164.2302 164.6102
   165.1869 165.3602 165.5385 165.5605 165.5605 165.6564 165.6564 165.7152
   165.7912 165.7912 165.8495 166.0300 166.0300 166.2144 166.2144 166.3772
   166.3772 166.3878 166.5212 166.7105 166.7105 166.7424 166.9390 167.0179
   167.0179 167.1049 167.1049 167.4320 167.4857 167.4857 167.5187 167.5187
   167.6456 167.6456 168.1272 168.3685 168.3685 168.5887 168.5887 168.6283
   169.0301 169.0474 169.0474 169.1554 169.7345 169.7345 169.7550 169.7973
   169.9539 170.2107 170.2107 170.2367 170.4656 170.4656 170.5179 170.9070
   170.9070 171.0133 171.0133 171.3906 171.3906 171.6029 171.6098 171.8197
   171.8197 171.8699 171.8700 171.9137 171.9213 171.9213 172.0298 172.0529
   172.0618 172.0618 172.3359 172.5842 172.5842 172.5857 172.5904 172.9662
   172.9662 173.1971 173.2211 173.2211 173.6395 173.8692 174.1992 174.9298
   174.9298 175.0274 175.0274 175.4409 175.6720 175.6720 175.9951 176.3029
   176.3029 177.0137 177.0137 177.0489 177.2029 177.2302 177.2302 177.4862
   177.5168 177.8007 177.8007 177.9664 177.9664 178.2356 178.4501 178.4501
   178.4598 178.7274 178.7274 178.7710 178.9364 179.0577 179.0577 179.1226
   179.3779 179.3779 179.4416 179.4719 179.5600 179.5600 179.9459 179.9459
   179.9732 180.0931 180.0931 180.1333 180.1333 180.5917 180.6872 180.6872
   180.7305 180.7305 180.8091 180.8412 180.9740 180.9740 181.1573 181.4353
   181.4353 181.4902 181.4902 181.6977 181.6977 181.9566 182.0238 182.0336
   182.0881 182.0881 182.1291 182.1329 182.4079 182.4079 182.4261 182.4261
   182.7737 182.8182 182.8182 183.0184 183.0184 183.0496 183.0496 183.0819
   183.1051 183.1991 183.3651 183.3651 183.3655 183.5111 183.5111 183.6690
   183.6690 183.7642 183.8870 183.9575 183.9575 184.2287 184.4278 184.4800

          k = 0.0000 0.1925 0.0000 (  7537 PWs)   bands (ev):

   -74.3737 -38.6089 -38.5550 -38.4917 -28.5527 -28.5512 -28.5510 -28.5362
   -28.4882 -28.4870 -28.4603 -14.6145 -13.2735  -6.1263  -4.1363  -3.4646
    -2.7370  -2.5245  -1.7255  -0.6743   2.0367   2.3792   2.4722   3.2510
     5.4631   5.5980   6.1502   6.7866   6.8950   7.8148   8.8064   8.9874
     9.6015  10.0444  10.8196  11.4851  11.6569  12.2070  12.6986  12.8283
    13.8717  14.9957  15.0316  15.1518  16.4397  16.7633  18.2682  18.6063
    18.6237  19.0009  19.3321  19.3661  19.9893  20.3146  20.9467  21.1392
    21.5784  21.7221  21.8189  21.8695  22.3709  22.5075  22.5822  22.9207
    23.1190  23.2008  23.2396  23.5379  23.6216  23.8461  24.0167  24.2080
    24.6059  24.9612  25.2822  25.8586  26.0079  26.6650  26.8181  27.0736
    27.4359  27.8475  28.0083  28.0914  28.1469  28.4061  28.5770  28.6948
    28.7588  29.1348  29.2593  29.5163  29.6403  29.6777  29.9715  30.1825
    30.3196  30.5955  30.6902  30.8158  30.8250  31.3772  31.5128  31.7639
    32.0697  32.1216  32.1613  32.5206  32.6503  32.7229  32.8130  33.1471
    33.3255  33.4124  33.4965  33.5413  33.6710  33.9853  34.1899  34.7198
    34.7886  34.8191  35.2655  35.3408  35.4595  35.5074  36.2864  36.3335
    36.6639  36.7051  36.8545  37.6564  37.6949  37.8245  38.1344  38.2269
    38.6080  38.6996  39.3457  39.5769  40.0684  40.3193  40.5548  40.6644
    40.7833  41.1198  41.1698  41.4497  42.2113  42.2303  42.2880  42.5878
    43.1223  43.5396  44.3534  44.4676  44.5297  44.7349  44.8968  44.9037
    45.0891  45.7721  45.9960  46.6802  46.8358  46.8645  47.1890  47.2410
    47.2847  47.5939  47.9261  48.5926  48.8036  49.0482  49.3079  49.4698
    49.6486  50.2542  50.4166  50.4386  50.8527  51.2424  51.6336  51.7633
    52.1194  52.1300  52.7369  53.4568  53.4641  53.5174  53.6532  53.7185
    54.5002  54.5828  54.6207  54.6896  55.0952  55.2259  55.2452  55.2463
    55.3691  55.5530  55.6092  55.8227  55.9597  56.3169  56.3341  56.8938
    57.0006  57.2053  57.2553  57.2994  57.7789  57.8310  58.0274  58.3899
    58.4079  58.6444  58.8978  59.1263  59.2434  59.3003  59.6208  59.8312
    60.0407  60.1773  60.7237  60.9496  61.0287  61.3003  61.6141  61.6181
    61.7263  62.2260  62.4301  62.4977  62.9033  63.0000  63.3297  63.4405
    63.5194  63.8981  64.2479  64.3899  64.5995  64.6707  64.6808  65.0234
    65.0537  65.0791  65.1093  65.4516  65.4735  65.5523  65.6151  65.6891
    66.1511  66.2976  66.3324  66.5846  66.7947  67.0576  67.2380  67.2763
    67.4232  67.7981  68.0450  68.0895  68.3048  68.3717  68.4188  68.6915
    68.7512  68.9201  69.1477  69.1546  69.4773  69.5144  69.9307  70.0168
    70.0865  70.5554  70.6692  70.8210  71.1168  71.3097  71.5056  71.5586
    71.6196  71.8301  71.9238  71.9732  72.1221  72.1507  72.1741  72.3356
    72.7583  72.8105  72.8293  72.8375  73.2475  73.2561  73.5262  73.5358
    73.7384  74.1501  74.1628  74.2753  74.5551  74.6331  74.9054  74.9522
    75.0522  75.0991  75.1180  75.3251  75.4000  75.4751  75.6653  75.7355
    75.8387  76.0257  76.1591  76.2454  76.3690  76.5440  76.6180  76.6855
    76.9917  77.0868  77.1847  77.3763  77.6133  77.6187  77.7972  77.8652
    78.1620  78.2283  78.2574  78.2897  78.4086  78.4147  78.4402  78.6259
    78.6742  78.7169  78.8112  79.1900  79.2026  79.2309  79.2740  79.3845
    79.6517  79.7070  79.9492  80.0139  80.1767  80.4163  80.5030  80.5393
    80.5672  80.8038  80.8636  80.9000  81.0066  81.2337  81.2627  81.5165
    81.6373  81.6705  81.7693  82.0617  82.2104  82.4424  82.7773  83.0461
    83.0678  83.2731  83.4239  83.5883  83.6482  83.8415  83.9544  84.0316
    84.1352  84.2257  84.3976  84.4460  84.7131  84.7341  85.0602  85.3282
    85.4638  85.7045  85.8576  85.9854  86.1150  86.3405  86.5819  86.5966
    87.3679  87.5265  87.5465  87.5532  87.7521  87.7604  87.7830  87.8931
    88.1857  88.2102  88.2986  88.4280  88.5682  88.7931  88.7951  89.2603
    89.3600  89.3715  89.6969  89.7228  89.7647  89.9960  90.0683  90.3941
    90.5131  90.5499  90.6389  90.9451  90.9943  91.0199  91.1525  91.4027
    91.4881  91.6142  91.7071  91.8029  92.0557  92.0672  92.1426  92.3803
    92.4365  92.5034  92.7710  92.8391  92.8510  93.1255  93.2731  93.4631
    93.5584  93.8175  93.8744  94.1215  94.1641  94.4182  94.4601  94.4686
    94.6037  94.9351  94.9432  95.0476  95.0579  95.3297  95.3683  95.7588
    95.8672  95.9590  96.1587  96.1959  96.3447  96.4390  96.8015  96.8457
    97.1228  97.1494  97.3125  97.4108  97.4649  97.4798  97.6223  97.8608
    97.9944  97.9966  98.2721  98.4763  98.5457  98.5503  98.8285  98.9032
    98.9567  99.0115  99.1221  99.2003  99.6552  99.8628  99.9117  99.9541
    99.9678 100.1897 100.2156 100.2727 100.6628 100.8997 100.9679 100.9795
   101.0513 101.2976 101.4542 101.9117 102.4453 102.5019 102.5371 102.6194
   102.6509 103.1580 103.2812 103.3586 103.4613 103.6169 103.7721 103.7876
   104.0813 104.3008 104.3532 104.3834 104.5072 104.5764 104.6020 104.6913
   104.8109 105.1760 105.2236 105.7295 105.7934 105.9559 106.2073 106.2336
   106.4899 106.9635 106.9876 107.1045 107.1518 107.3540 107.4706 107.4782
   107.5413 107.6566 107.8338 108.2478 108.3183 108.3823 108.4244 108.6537
   108.7884 109.1882 109.2207 109.4955 109.5329 110.0706 110.1093 110.2565
   110.3376 110.4727 110.4937 110.9001 110.9856 111.2311 111.3545 111.5285
   111.6629 112.0157 112.3073 112.3253 112.3654 112.7392 112.8669 112.9095
   113.1184 113.1342 113.4046 113.4877 113.6903 113.8385 113.9571 114.1941
   114.2589 114.3334 114.5086 114.5235 114.6258 114.8573 114.9028 115.1664
   115.8204 115.8363 116.0146 116.0281 116.5838 116.6340 116.7478 116.8369
   117.0654 117.3313 117.3882 117.7900 117.9008 118.0199 118.0589 118.3644
   118.3739 118.4136 118.5452 118.7928 118.8497 119.2463 119.7104 119.8575
   120.0959 120.1460 120.2333 120.4100 120.4905 120.7712 121.0336 121.0691
   121.3290 121.5078 121.5569 121.6480 121.8591 122.1563 122.4955 122.5967
   122.7054 123.0584 123.1512 123.4071 123.6291 123.7653 123.8721 123.9106
   124.0836 124.3310 124.3406 124.3418 124.5646 124.6061 124.9020 125.2494
   125.3047 125.5346 125.6155 125.9707 126.1017 126.3960 126.4082 126.4128
   126.6036 126.6886 126.7281 126.8938 127.2380 127.3802 127.4478 127.4753
   127.5250 127.6369 127.7697 127.7786 127.8424 127.8887 128.1002 128.2352
   128.3309 128.4836 128.6786 128.8747 128.9011 129.0560 129.1327 129.1591
   129.4179 129.4343 129.5607 129.9662 130.0087 130.2165 130.2323 130.3488
   130.4110 130.5512 130.5617 130.7423 130.7507 130.8898 130.9599 130.9915
   131.0470 131.1223 131.1277 131.1583 131.4384 131.7156 131.7637 131.8913
   131.8994 131.9949 132.0116 132.0816 132.4591 132.4975 132.5698 132.6662
   132.9925 133.0305 133.1298 133.1837 133.2035 133.3894 133.5421 133.6101
   133.8257 133.8736 134.0791 134.1481 134.2175 134.4825 134.8347 134.8596
   134.9798 134.9847 135.1167 135.1420 135.1779 135.4714 135.5779 135.8079
   136.0415 136.1156 136.2483 136.2946 136.3719 136.5958 136.7457 136.8991
   136.9372 136.9843 137.0599 137.3470 137.4299 137.4452 137.6516 137.7591
   138.3005 138.4490 138.7020 138.7024 138.9464 139.0144 139.1416 139.1611
   139.2950 139.3692 139.4708 139.6938 139.8213 139.9503 139.9912 140.0539
   140.1550 140.2003 140.2391 140.3106 140.3823 140.4018 140.4992 140.5310
   140.6299 140.6620 140.7344 140.8098 140.8692 140.9187 141.0389 141.0396
   141.1281 141.2244 141.3566 141.4600 141.4622 141.4800 141.7197 141.8541
   141.9003 142.1476 142.5060 142.5465 142.8596 143.0311 143.1133 143.4388
   143.5260 143.5277 143.5713 143.5981 143.7714 143.8818 144.0273 144.1678
   144.3388 144.4922 144.6475 144.7621 145.1093 145.1288 145.1933 145.3262
   145.3463 145.3701 145.7992 145.9337 146.0285 146.0651 146.0679 146.1302
   146.2848 146.4282 146.4331 146.6057 146.6769 146.7861 147.0266 147.0582
   147.4147 147.4256 147.4323 147.4825 147.6272 147.6313 147.8395 147.9683
   148.0168 148.0346 148.2747 148.2758 148.4286 148.4289 148.5176 148.5814
   148.6728 148.7407 148.7784 148.9084 149.0237 149.1387 149.2186 149.3033
   149.3288 149.4884 149.6105 149.6473 149.7267 149.8903 149.9075 149.9586
   150.0285 150.0880 150.0887 150.2869 150.3244 150.3714 150.4452 150.5047
   150.5269 150.7931 150.8215 150.9043 151.0077 151.0833 151.2400 151.5139
   151.5998 151.7206 151.9517 152.1020 152.1709 152.2329 152.4352 152.4703
   152.6413 152.8834 152.9677 153.1209 153.2795 153.4370 153.4382 153.5032
   153.5894 153.7671 153.9413 154.0368 154.1898 154.3721 154.4495 154.5395
   154.8427 154.8567 155.0985 155.1354 155.2419 155.2495 155.4069 155.4352
   155.4552 155.8686 156.0137 156.1807 156.2437 156.3152 156.4988 156.7170
   156.7176 156.8943 156.9367 156.9438 157.0427 157.2413 157.2620 157.3286
   157.4796 157.5906 157.5985 157.7547 157.8776 157.8973 158.0501 158.2198
   158.2223 158.4034 158.4169 158.4380 158.5573 158.6603 158.7414 158.7866
   158.9830 159.0656 159.2175 159.2463 159.2849 159.4330 159.5932 159.6190
   159.6548 159.7802 159.9902 159.9916 159.9954 160.1505 160.2239 160.2757
   160.3193 160.3624 160.4667 160.5716 160.5972 160.6362 160.6513 160.7759
   160.8115 160.8286 160.9946 161.0807 161.1099 161.1934 161.2411 161.5037
   161.6086 161.6186 161.7059 161.7120 161.7159 162.2369 162.2599 162.3324
   162.3756 162.6021 162.6521 162.6615 162.7428 162.8716 162.8756 162.9255
   163.1272 163.1357 163.1539 163.3900 163.4554 163.4810 163.6497 163.7229
   163.7522 163.7602 163.8059 163.8880 164.0447 164.1172 164.1980 164.3368
   164.4627 164.5077 164.5796 164.6542 164.8960 164.9023 164.9638 165.1094
   165.1346 165.3810 165.4599 165.5475 165.5523 165.5640 165.5992 165.8770
   166.0665 166.1541 166.1779 166.2488 166.4285 166.4439 166.4663 166.5247
   166.6566 166.7314 166.8501 166.9940 167.0689 167.3038 167.3220 167.7078
   167.7431 167.9617 168.3031 168.3476 168.4663 168.4859 168.5660 168.7027
   168.9209 169.0640 169.2372 169.2434 169.3408 169.3498 169.3774 169.5243
   169.5585 169.6529 169.7593 169.9164 169.9528 170.0861 170.1320 170.2855
   170.3378 170.3621 170.4503 170.5799 170.6960 170.8463 170.8841 171.0873
   171.1842 171.2750 171.3699 171.3828 171.4843 171.5645 171.7289 171.9715
   171.9731 172.1359 172.2176 172.2949 172.4478 172.5613 172.8314 172.9301
   172.9530 172.9976 173.0802 173.2565 173.3605 173.4127 173.4581 173.4704
   173.5625 173.5711 173.6945 173.8133 173.8699 173.8833 173.9627 174.0337
   174.2090 174.2889 174.3027 174.5670 174.6408 174.6660 174.6875 174.8667
   174.8954 174.9021 175.0193 175.1557 175.1566 175.3243 175.5322 175.5552
   175.6825 175.7522 175.8087 175.8707 175.8905 176.0929 176.2199 176.2915
   176.3987 176.5693 176.5986 176.7032 176.8277 176.8368 176.8728 176.9718
   177.0337 177.1572 177.3445 177.3786 177.4279 177.6593 177.6771 177.7169
   177.8351 177.9469 177.9887 178.2515 178.3211 178.5403 178.6135 178.6434
   178.6491 178.7201 178.9527 179.1236 179.2620 179.6142 179.6272 179.7500
   179.8425 180.0136 180.2437 180.2459 180.3632 180.4053 180.4684 180.5587
   180.8883 180.9456 181.0161 181.0191 181.2343 181.2831 181.4714 181.7677
   181.7869 182.1142 182.2087 182.2280 182.4044 182.5790 182.6283 182.9645
   182.9675 183.0464 183.0892 183.2204 183.2745 183.2752 183.3200 183.5825
   183.5852 183.5896 183.7720 183.8310 183.9160 184.0254 184.0945 184.2134

          k = 0.0000 0.3849 0.0000 (  7478 PWs)   bands (ev):

   -74.3656 -38.7168 -38.5789 -38.5301 -28.5533 -28.5488 -28.5458 -28.5422
   -28.4912 -28.4877 -28.4580 -13.5953 -12.9062  -6.0555  -4.7961  -4.7945
    -3.3736  -2.2357  -1.9292  -1.5006   2.2263   2.2701   3.3013   4.1205
     6.3481   6.9113   6.9691   7.7374   7.9531   8.6348   8.6778   9.8011
    10.1929  11.1522  11.2339  11.8285  12.0129  12.8689  12.9981  13.9168
    14.0957  14.1188  14.6644  14.7047  15.0150  15.2028  15.4152  16.2920
    16.6902  17.3628  17.6455  17.8732  18.6974  18.9981  19.6285  19.9295
    20.0303  20.5535  20.5655  20.8224  20.8522  21.2693  21.2828  21.4766
    21.7685  21.8116  22.1845  22.3418  22.9699  23.3247  23.3742  23.6752
    23.8772  24.2400  24.7110  24.7324  25.2017  25.4126  25.5391  26.0449
    26.1505  26.6069  26.8021  27.1707  27.3655  27.3859  28.5112  28.5356
    28.9666  29.2323  29.4966  29.7027  29.9681  30.3658  30.6963  31.3855
    31.5598  31.6610  31.9939  32.6052  32.8693  33.0578  33.4365  33.6258
    33.6382  33.7999  34.0858  34.2576  34.4790  34.5283  34.6891  34.9159
    35.2115  35.4549  35.6796  35.8475  36.1163  36.6204  36.6239  36.9293
    37.0389  37.1695  37.4866  37.8862  38.1424  38.3105  38.7614  38.8613
    39.2817  39.3134  39.4906  39.6676  39.7770  40.3708  40.3950  40.6230
    40.9597  41.3945  41.4309  41.5097  41.7158  41.8277  42.0458  42.2567
    42.3821  42.5609  42.9649  43.1703  43.4066  43.5730  43.6216  44.0438
    44.3182  44.3796  44.5765  45.2107  45.3560  45.4507  45.8998  45.9527
    46.0478  46.2333  46.6281  46.8085  46.8571  46.9430  47.1665  47.3594
    47.4449  47.6565  47.6924  47.8152  47.9539  47.9924  48.0880  48.3630
    48.7328  48.8149  48.8319  49.0529  49.1890  49.3523  49.5363  50.0059
    50.0844  50.1409  50.3235  50.6321  50.9320  51.0115  51.4180  51.5136
    51.5349  52.0063  52.4835  52.4888  52.5698  52.8816  53.4148  53.4873
    53.7972  53.8245  54.1554  54.1563  54.6798  54.7414  54.8455  54.9744
    55.4021  55.6633  55.6792  55.7163  56.3841  56.4387  56.6413  56.7713
    56.8561  57.1281  57.3673  57.4931  57.5361  57.9088  58.2236  58.4310
    58.6578  59.2187  59.2285  59.6155  59.8846  60.0650  60.1172  60.3210
    60.3432  60.4594  60.8556  60.9525  61.2510  61.3427  61.7405  61.9361
    62.2349  62.2766  62.4361  62.5140  63.0102  63.0971  63.1369  63.2138
    63.2382  63.7208  63.7688  64.3333  64.3949  64.4239  64.6474  65.0593
    65.2176  65.6211  65.7653  65.7936  66.0088  66.1073  66.2498  66.3844
    66.5288  66.8175  66.8224  67.0375  67.1716  67.3792  67.4389  67.8123
    67.9647  68.0739  68.2485  68.4695  68.5175  68.6517  68.9662  69.1345
    69.2372  69.2987  69.4199  69.4333  69.5363  69.6739  69.7490  70.2884
    70.3767  70.3838  70.7553  70.8169  71.1150  71.2219  71.4500  71.5809
    71.6291  71.7346  72.1871  72.4332  72.6203  72.7941  72.9868  73.2298
    73.2861  73.2894  73.4842  73.5616  73.6194  73.6964  73.7701  74.0436
    74.1941  74.3242  74.4339  74.5203  74.5246  74.7071  74.9872  75.0487
    75.1997  75.2058  75.4940  75.5413  75.5997  75.9876  76.0026  76.0736
    76.2808  76.4891  76.7621  76.9430  76.9806  77.3283  77.4211  77.5242
    77.5945  77.5989  78.0483  78.0986  78.2511  78.6207  78.7276  78.8220
    78.9643  79.1949  79.2751  79.3338  79.4303  79.5774  79.8697  79.9203
    80.4861  80.4939  80.8108  80.8301  81.1436  81.1686  81.2656  81.6211
    81.7795  81.9722  82.0185  82.2121  82.2591  82.4334  82.6132  82.7333
    82.8958  82.9215  83.1422  83.1797  83.2527  83.8120  83.9685  84.2258
    84.2460  84.9289  85.0512  85.2412  85.4610  85.5615  85.5786  85.6621
    85.8902  85.9235  85.9739  86.3585  86.4259  86.5332  86.6000  86.8143
    86.9515  87.1325  87.3091  87.3467  87.4620  87.5034  87.6051  87.6094
    87.6942  88.1661  88.1722  88.3988  88.5706  88.6338  88.6621  88.7989
    88.9754  89.0777  89.2597  89.4110  89.4802  89.7529  89.8647  89.8911
    90.1429  90.3269  90.3911  90.5970  90.6583  90.7312  91.1339  91.1488
    91.1995  91.2962  91.7330  91.9570  92.0488  92.3753  92.3883  92.4006
    92.6700  93.0749  93.0803  93.6947  93.7983  94.1242  94.2040  94.2309
    94.4510  94.5985  94.8089  94.9206  95.2640  95.2712  95.2901  95.5681
    95.6863  95.7466  95.8289  95.9564  96.3123  96.3246  96.4584  96.4677
    96.8118  96.8496  97.2227  97.2478  97.2567  97.7618  97.9953  98.2084
    98.5144  98.5586  98.8679  98.8771  98.8934  99.0391  99.0922  99.3084
    99.5444  99.6465  99.6499  99.7535  99.7762  99.8524  99.9481 100.0105
   100.1358 100.4083 100.4522 100.6446 100.7041 100.7606 100.7858 100.8005
   101.2539 101.3588 101.4577 101.6332 101.8005 101.9165 102.2750 102.2997
   102.3543 102.3913 102.6372 102.8194 103.0071 103.2535 103.3716 103.3851
   103.3870 103.5292 103.8382 103.9472 104.1442 104.4641 104.6809 104.7263
   104.9297 105.0285 105.2746 105.2855 105.3140 105.4516 105.6966 105.8499
   105.8769 105.9224 106.1646 106.2517 106.6354 106.7634 106.8430 107.0212
   107.0673 107.6114 107.7093 107.8305 108.2127 108.2295 108.3719 108.4889
   108.6311 108.7523 108.7634 108.9981 109.1093 109.1309 109.2670 109.3410
   109.5520 109.6644 109.7906 109.9027 109.9454 110.1043 110.1429 110.6649
   110.9661 111.0831 111.1614 111.3189 111.3958 111.4600 111.5389 111.9753
   112.0247 112.0855 112.1041 112.3967 112.6190 112.7550 112.8443 112.9244
   112.9409 112.9479 112.9978 113.0594 113.2286 113.3923 113.5015 113.5377
   113.6489 113.6870 113.8809 113.9605 114.0206 114.1486 114.3503 114.3605
   114.3954 114.4058 114.8313 114.8799 115.1449 115.2005 115.3733 115.3915
   115.5758 115.6027 115.6173 115.6216 116.0378 116.0394 116.0585 116.0618
   116.2257 116.3883 116.7418 116.7950 116.9098 116.9897 117.0782 117.2244
   117.2322 117.4505 117.5185 117.5888 117.6482 118.1998 118.2194 118.3635
   118.4612 118.4710 118.6750 118.6817 118.7923 118.9220 118.9476 118.9906
   119.1007 119.1773 119.4648 119.5803 119.7026 119.7772 119.9064 120.0012
   120.2730 120.3404 120.3986 120.4860 120.5408 120.7109 120.8357 120.8946
   120.9502 121.0276 121.3815 121.4331 121.4506 121.6853 121.7681 121.8113
   122.0788 122.1107 122.1368 122.3242 122.3271 122.3913 122.5139 122.6178
   122.6297 122.7283 122.9694 123.0774 123.2970 123.3128 123.5625 123.8119
   123.9620 124.1309 124.2052 124.4891 124.5280 124.5744 124.7616 124.8404
   125.1184 125.3612 125.4185 125.5527 125.7606 125.8200 125.8624 125.8776
   125.9618 125.9729 126.2935 126.3318 126.6789 126.7060 126.7692 126.8599
   127.2931 127.3963 127.4606 127.5527 127.6029 127.6771 127.7108 128.1169
   128.3806 128.5943 128.6243 128.8409 128.8602 128.9726 129.0386 129.0717
   129.1181 129.3827 129.6488 129.6667 129.6874 129.7984 129.9073 130.0603
   130.2347 130.2984 130.4394 131.0474 131.0577 131.1133 131.2086 131.3269
   131.7752 131.9349 131.9516 132.1537 132.2033 132.2449 132.4782 132.5383
   132.5584 132.6098 132.8582 133.0473 133.1982 133.2264 133.7751 133.8035
   134.0545 134.2629 134.6190 134.6434 134.7047 135.0161 135.0870 135.1766
   135.3373 135.4227 135.4855 135.5133 135.6403 135.8572 135.9121 136.0876
   136.2054 136.2669 136.3063 136.4494 136.5754 137.0059 137.0770 137.4557
   137.5350 137.6196 137.8368 137.8926 137.8935 137.9773 138.2454 138.3809
   138.3941 138.4395 138.8231 138.9653 139.1395 139.2476 139.3494 139.4298
   139.5471 139.5599 139.6446 139.8429 140.0026 140.0373 140.1302 140.1378
   140.2711 140.4172 140.4451 140.6410 140.6666 140.9268 140.9581 141.0637
   141.0779 141.3228 141.3627 141.4382 141.6224 141.6281 141.7282 141.8473
   141.9272 142.0166 142.2487 142.2563 142.2689 142.3068 142.5647 142.6178
   142.6463 142.6976 142.8460 142.8658 142.8925 143.0855 143.2378 143.4666
   143.5434 143.5925 143.7402 143.8014 144.2136 144.3022 144.5150 144.7297
   144.7396 144.9832 145.0441 145.0807 145.5735 145.6258 145.8192 145.9223
   145.9445 146.0852 146.2027 146.3818 146.4690 146.5602 146.8693 146.9092
   147.1021 147.1048 147.1940 147.3381 147.4454 147.5394 147.6449 147.6514
   147.9680 148.0909 148.1114 148.1971 148.2083 148.3185 148.3450 148.6025
   148.6505 148.7093 148.7790 149.0320 149.0389 149.0600 149.4030 149.4198
   149.7231 149.7980 149.9936 150.2253 150.2730 150.3303 150.5452 150.6292
   150.8511 150.9884 150.9909 151.2255 151.3516 151.4155 151.4184 151.4230
   151.5908 151.6640 151.7759 152.0522 152.0715 152.1830 152.3013 152.3270
   152.3999 152.4463 152.4647 152.5445 152.6039 152.6618 152.6796 152.7610
   152.8897 153.0331 153.3341 153.3557 153.4324 153.4806 153.6516 153.7614
   153.9043 154.1192 154.1895 154.4088 154.4999 154.5164 154.5882 154.6555
   154.8229 154.8591 155.0377 155.0967 155.1593 155.4168 155.6782 155.7803
   155.9053 155.9182 156.1095 156.1247 156.2917 156.3355 156.4066 156.5433
   156.6748 156.6897 156.8607 157.0583 157.3735 157.4895 157.5539 157.6409
   157.7181 157.7243 157.9121 158.0227 158.0818 158.1827 158.3790 158.3816
   158.4186 158.8730 158.9116 159.4216 159.5248 159.6214 159.8547 160.0545
   160.1159 160.3346 160.4324 160.4513 160.5757 160.6676 160.8522 160.9369
   161.0643 161.0852 161.3586 161.3826 161.4550 161.6395 161.6523 161.7811
   162.1102 162.1459 162.1738 162.2392 162.2768 162.3627 162.4309 162.5990
   162.6302 162.7450 162.7564 162.8460 163.2135 163.2302 163.4169 163.5449
   163.6538 163.8265 163.8476 163.9797 164.2875 164.3654 164.4045 164.5595
   164.5875 164.6005 164.7507 164.7542 164.9365 165.0026 165.1498 165.2324
   165.4125 165.4816 165.5767 165.5908 165.7107 165.8151 165.9411 166.1017
   166.1538 166.2036 166.3054 166.3838 166.5699 166.7629 166.8778 167.0444
   167.0741 167.2464 167.2891 167.3732 167.4095 167.4939 167.5066 167.9378
   167.9991 168.0866 168.3093 168.3893 168.4835 168.6872 168.6891 168.7085
   168.7798 168.9191 168.9257 169.0983 169.2232 169.3167 169.3534 169.3580
   169.6803 169.7553 170.0190 170.0654 170.2352 170.3520 170.3559 170.3934
   170.4094 170.5992 170.6046 170.6258 170.8733 171.0289 171.1529 171.3711
   171.4111 171.4931 171.6607 171.7564 171.7915 172.0934 172.1010 172.1978
   172.4908 172.5395 172.5455 172.7369 172.7413 172.7511 172.9550 173.0378
   173.1573 173.2278 173.3718 173.5151 173.5560 173.6473 173.6612 173.8739
   173.8813 173.8867 174.1444 174.1527 174.3606 174.4413 174.6027 174.6320
   174.6573 174.6916 174.6960 175.0220 175.0284 175.1195 175.1240 175.2161
   175.3465 175.4249 175.6213 175.6274 175.7000 175.7118 176.1061 176.1359
   176.1597 176.3233 176.4945 176.5171 176.6929 176.7428 176.7470 177.1014
   177.1323 177.1367 177.2646 177.3874 177.4344 177.6425 177.7230 177.8131
   177.8513 177.9267 178.0167 178.0201 178.0215 178.0628 178.2727 178.4007
   178.5517 178.5856 178.5955 178.6293 178.6733 178.7698 178.8652 178.9299
   178.9793 179.0323 179.0763 179.1401 179.4310 179.5211 179.5801 179.6415
   179.6506 179.8542 179.9448 180.0171 180.2362 180.3833 180.5149 180.5179
   180.6857 180.7055 180.8506 180.8629 180.9036 181.0267 181.2024 181.2733
   181.3058 181.3740 181.4554 181.5914 181.6770 181.7423 181.7692 181.7950
   182.0315 182.2254 182.4065 182.4305 182.6120 182.8104 182.8328 182.8672
   183.2021 183.3145 183.4307 183.6853 183.6870 183.7053 183.7523 183.8045
   184.0616 184.1635 184.2480 184.3390 184.3673 184.3970 184.6087 184.7398
   184.9009 185.2079 185.3317 185.3457 185.3497 185.6019 185.6581 185.9256

          k = 0.0000-0.5774 0.0000 (  7458 PWs)   bands (ev):

   -74.3615 -38.7961 -38.5638 -38.5492 -28.5536 -28.5476 -28.5451 -28.5433
   -28.4926 -28.4879 -28.4569 -12.9553 -12.6913  -6.7659  -5.4336  -4.7083
    -3.7098  -2.4446  -1.5931  -1.2324   2.5056   2.9567   3.7149   4.3774
     4.8299   7.3847   7.5413   8.7620   9.2092   9.7440  10.1946  10.3773
    10.5453  10.6924  10.7697  11.0621  11.1542  11.9960  12.2943  12.4653
    12.9933  14.0692  14.2723  14.6082  15.2934  15.4749  16.5229  16.6547
    16.8981  16.9084  17.5167  17.6854  18.3367  18.7144  19.0221  19.0266
    19.2256  19.6395  20.0887  20.2970  20.3664  20.4065  20.5046  21.2686
    21.3085  21.3393  21.3957  22.1414  22.3477  22.3995  22.9503  23.3099
    23.3246  23.7176  23.8432  24.3428  24.5445  24.9139  25.3371  25.3831
    25.3971  26.0271  26.3898  26.7643  27.1712  28.2964  28.3651  28.4999
    28.6439  29.3758  29.5463  29.6415  30.5223  30.7053  31.3854  31.4120
    31.8697  32.0425  32.4459  32.6487  32.8593  32.8961  33.2957  33.8591
    34.0328  34.5559  35.5663  35.7471  35.7943  35.9738  37.0016  37.3319
    37.5108  37.6134  37.8407  37.8942  38.1581  38.4718  38.6940  38.8643
    39.5064  39.5548  39.6650  39.7436  39.8473  39.8631  39.9935  40.0523
    40.2574  40.3537  40.4164  40.4271  40.7701  40.8210  40.8640  40.9414
    40.9560  41.5240  41.6645  41.6808  41.8914  41.9885  42.3194  42.4168
    42.4435  42.7383  42.7441  42.8718  42.9048  43.3248  43.7180  44.0762
    44.2500  44.4239  44.4704  44.8099  44.9305  45.1128  45.3312  45.5379
    45.8434  46.0794  46.1334  46.1351  46.3899  46.8554  47.0227  47.0453
    47.3023  47.5141  47.7810  48.0779  48.1120  48.2117  48.6431  48.6911
    48.9447  48.9716  49.0418  49.2656  49.8822  49.8922  49.9728  50.0164
    50.2738  50.4176  50.5550  50.5766  50.6921  50.8946  51.2098  51.2567
    51.2721  51.5668  51.7635  51.8563  51.8759  52.1441  52.3805  52.5773
    52.6988  52.9615  52.9957  53.2857  53.4477  53.5018  53.8134  54.0274
    54.2204  54.4044  54.4311  54.8957  54.9306  55.1490  55.2215  55.3730
    55.5002  56.4226  56.4531  56.7349  56.9636  57.0145  57.4570  57.4696
    57.5996  57.6482  57.9119  57.9176  58.5090  58.5930  58.8062  58.8374
    59.0550  59.1172  59.1221  59.5445  60.0165  60.0801  60.9874  61.0331
    61.7600  61.9043  61.9274  62.0755  62.3042  62.4050  62.7129  62.7818
    62.7946  63.0280  63.0861  63.6534  63.6732  63.7230  63.7642  64.2660
    64.8290  65.3302  65.6719  65.8166  66.0897  66.1066  66.5497  66.5598
    67.1736  67.3053  67.3397  67.3738  67.6778  67.9055  67.9543  68.0504
    68.2113  68.3525  68.4304  68.6782  68.6910  68.7737  68.8381  69.0939
    69.2140  69.4598  69.4641  69.6105  69.6483  69.6558  69.6911  69.6953
    69.9219  70.0778  70.0828  70.1974  70.3981  70.4826  70.5303  70.5730
    70.6933  70.8348  71.2712  71.4063  71.4112  71.6709  71.8813  72.0820
    72.1285  72.2698  72.3129  72.3574  72.6613  72.6718  72.8714  73.4042
    73.4220  73.5502  73.5719  73.7131  74.0388  74.0490  74.2770  74.2885
    74.3552  74.5449  74.8224  74.9677  75.2241  75.3938  75.5063  75.5640
    75.9668  75.9781  76.2520  76.5754  76.6894  76.6900  76.8145  76.9812
    77.0824  77.4588  77.5932  77.6715  78.0355  78.1036  78.1080  78.1994
    78.2390  78.5672  78.6229  78.6948  78.9637  79.0093  79.1584  79.4160
    80.0034  80.2708  80.2991  80.6513  80.8892  81.0214  81.1605  81.3172
    81.5592  81.6318  81.9030  82.0077  82.0123  82.0927  82.4714  82.5366
    82.5400  83.0023  83.0359  83.9546  84.0087  84.3568  84.5398  84.6790
    84.7663  84.9053  85.1812  85.2574  85.3275  85.3751  85.5581  85.9849
    85.9984  86.3691  86.3853  86.4435  86.9984  87.0967  87.1073  87.4774
    87.5324  87.5534  87.6211  87.9133  87.9831  88.1735  88.2663  88.5741
    88.7952  88.9150  89.1558  89.7334  89.8152  90.0300  90.2244  90.4476
    90.4771  90.8756  91.1109  91.2789  91.4153  91.5400  91.5921  91.9427
    92.0139  92.5216  92.6019  93.0301  93.0576  93.1038  93.2562  93.7376
    94.0516  94.3755  94.3870  94.6995  94.7099  94.7733  95.2074  95.3959
    95.5234  95.7211  95.8739  96.1089  96.2210  96.3019  96.3028  96.4086
    96.7701  96.9165  96.9208  96.9947  97.0493  97.4324  97.5585  97.7415
    97.9018  97.9435  97.9667  98.0208  98.5283  98.6776  98.9492  98.9517
    98.9544  98.9937  99.0912  99.2373  99.2450  99.2493  99.2538  99.2843
    99.4754  99.6333  99.8996 100.0609 100.0895 100.1552 100.1873 100.2078
   100.2251 100.5773 100.8710 100.9481 101.0343 101.2884 101.3254 101.4243
   101.8099 101.8220 101.8549 102.0125 102.1571 102.1703 102.2540 102.2664
   102.5929 102.8838 102.9895 103.2320 103.2998 103.5289 103.6242 103.7670
   103.8310 103.8641 104.1401 104.2443 104.2881 104.5557 104.6872 104.6878
   104.7831 104.8732 104.8977 105.0250 105.3059 105.3548 105.3660 105.5088
   105.5296 105.5345 105.8494 105.8523 106.1134 106.1522 106.3072 106.3079
   106.5138 106.8325 106.9093 106.9222 106.9722 107.1542 107.4037 107.7558
   107.7746 108.0386 108.0797 108.0905 108.1179 108.1182 108.1689 108.2297
   108.3905 108.4834 108.6012 108.6508 108.6755 108.7735 109.0641 109.1010
   109.1597 109.2546 109.3216 109.3259 109.4587 109.4915 109.6419 109.7248
   109.7925 109.9778 110.0413 110.1438 110.3242 110.3644 110.3738 110.4517
   110.5924 110.5950 110.6190 110.7349 110.8952 110.9463 110.9876 111.1921
   111.2408 111.3114 111.7842 111.7987 111.8043 111.8899 112.0645 112.1061
   112.1374 112.2088 112.3206 112.3899 112.4829 112.5049 113.0138 113.1293
   113.2679 113.3145 113.4453 113.5339 113.6463 113.7994 114.0711 114.4272
   114.4550 114.5303 114.5435 114.6809 114.7754 114.7870 114.7939 114.8383
   114.9947 115.0947 115.3870 115.4282 115.6005 115.7148 115.7252 115.9485
   116.1850 116.3298 116.3510 116.5053 116.5866 116.6826 116.7087 116.7945
   116.9450 116.9727 116.9844 117.2449 117.3923 117.5081 117.6270 117.6388
   117.8566 117.8757 118.0279 118.1844 118.2526 118.4161 118.4359 118.4682
   118.4861 118.8417 118.9616 119.1511 119.1972 119.7486 119.9151 120.1059
   120.3933 120.4870 120.4934 120.6566 121.1515 121.4205 121.5973 121.8510
   122.0092 122.0346 122.1505 122.1799 122.3027 122.3708 122.5778 122.9068
   123.0974 123.1532 123.2606 123.4403 123.5160 123.6125 123.8423 124.0411
   124.1683 124.6007 124.7881 124.8796 125.0585 125.0826 125.1479 125.3315
   125.3700 125.5419 125.6153 125.9396 126.0083 126.1534 126.2333 126.4997
   126.5063 126.5663 126.5854 126.5901 126.9188 126.9276 127.0750 127.1149
   127.2910 127.3471 127.4636 127.5632 127.5932 127.6283 127.8573 127.8896
   128.0184 128.0413 128.0640 128.2043 128.4322 128.6664 128.6933 128.8185
   128.8393 129.0755 129.1769 129.2801 129.4191 129.5062 129.5742 129.5973
   129.7091 129.9153 130.0038 130.1952 130.3132 130.7575 131.0052 131.0123
   131.1069 131.1773 131.5081 131.6726 131.9030 131.9291 132.1125 132.2649
   132.3885 132.6628 132.8645 132.9217 132.9256 133.0192 133.2228 133.2841
   133.3739 133.4094 133.7223 133.9474 134.0298 134.1824 134.2794 134.3259
   134.4435 134.4663 134.7057 134.8667 134.9978 135.0300 135.0511 135.1999
   135.2546 135.5560 135.6079 135.6380 135.7113 135.8299 135.8930 135.9963
   136.3208 136.3498 136.5265 136.5854 136.6269 136.7542 136.7824 136.9717
   137.0263 137.2567 137.5000 137.5219 137.6319 137.7062 137.8359 137.8553
   137.8826 138.1071 138.1987 138.3862 138.4216 138.6189 138.6528 138.7084
   138.7176 138.9121 139.0475 139.0869 139.3962 139.4165 139.5154 139.7664
   139.8120 139.9044 139.9377 140.0787 140.1297 140.1435 140.1670 140.5674
   140.6191 140.9248 141.0575 141.0869 141.1040 141.3910 141.4956 141.5245
   141.5596 141.8721 141.9406 141.9892 142.0375 142.1258 142.2649 142.7760
   143.2336 143.2530 143.4013 143.4092 143.5480 143.5545 143.6804 143.8617
   143.8916 144.2608 144.3624 144.4927 144.6186 144.7104 144.7758 144.8068
   144.8835 144.9779 145.0344 145.1812 145.2660 145.3564 145.7400 145.7839
   145.8034 145.9167 145.9564 146.1354 146.1380 146.3269 146.4310 146.5097
   146.7181 146.7700 147.0800 147.1115 147.2560 147.4029 147.4719 147.4849
   147.6508 147.6752 147.8823 147.9142 148.0066 148.2452 148.2467 148.5433
   148.6799 149.1145 149.2977 149.4950 149.6834 149.7317 149.8404 149.9994
   150.1271 150.4019 150.4813 150.6152 150.6292 150.7559 151.0796 151.1361
   151.2526 151.3168 151.5013 151.5393 151.6461 151.7797 152.0303 152.1423
   152.3793 152.5892 152.6644 152.6684 152.7635 152.8754 152.9036 153.0795
   153.3570 153.6611 153.9183 154.0082 154.1208 154.3862 154.4429 154.4450
   154.5077 155.1645 155.2863 155.3033 155.5028 155.5766 155.7524 155.8074
   155.8799 155.9742 155.9850 155.9872 156.2072 156.4046 156.4255 156.5209
   156.6766 156.6893 156.7020 156.8296 157.0426 157.3151 157.3179 157.5587
   157.5642 157.6997 157.7583 157.8404 157.8461 157.8705 157.9059 158.1317
   158.1517 158.1626 158.2692 158.2782 158.3038 158.4282 158.5073 158.5304
   158.5307 158.5633 158.6536 158.8483 158.9026 159.0286 159.0330 159.1300
   159.3872 159.3985 159.4247 159.4285 159.5113 159.5769 159.6332 159.7279
   160.2927 160.4111 160.5213 160.5561 160.8003 160.8767 161.0031 161.0964
   161.2813 161.3017 161.3810 161.4048 161.4718 161.5675 161.8455 161.8911
   161.9532 162.1884 162.2382 162.3997 162.4367 162.7809 162.9128 162.9309
   162.9675 163.0091 163.0697 163.2227 163.3149 163.6109 163.6839 163.7003
   163.7981 164.0746 164.0821 164.1866 164.3525 164.3559 164.3823 164.5489
   164.9245 165.0279 165.1124 165.1798 165.3693 165.4204 165.5994 165.6213
   165.7938 165.9672 166.0559 166.0593 166.1377 166.4281 166.4316 166.4671
   166.5556 166.6490 166.6740 166.7344 166.8939 166.9580 167.1638 167.1654
   167.1795 167.3052 167.3395 167.3446 167.4238 167.7053 167.7605 167.7918
   167.9360 167.9664 168.4101 168.4998 168.7045 168.9937 169.1056 169.2759
   169.4790 169.5416 169.6926 169.7655 169.9194 170.0273 170.2044 170.2839
   170.4233 170.4403 170.4988 170.6508 170.8165 171.0954 171.1982 171.2859
   171.3033 171.3164 171.3914 171.4950 171.7131 171.7744 172.4555 172.4917
   172.5612 172.7662 172.8017 172.9539 173.1237 173.1902 173.7677 173.7893
   173.9691 174.1450 174.3246 174.4429 174.5248 174.5689 174.7600 174.7949
   174.8151 174.8338 174.8540 175.2053 175.3615 175.4156 175.4200 175.4789
   175.5219 175.5688 175.6360 175.8370 175.8756 175.9159 175.9956 176.1274
   176.1330 176.3290 176.3739 176.5884 176.6049 176.6426 176.7429 176.9329
   176.9617 177.3528 177.5356 177.7920 177.8898 178.1976 178.2301 178.2716
   178.5864 178.9659 179.0957 179.2136 179.2240 179.5425 179.6122 179.7864
   179.9219 179.9318 179.9787 180.0969 180.3393 180.3757 180.5437 180.6154
   180.8402 180.8465 181.0273 181.2337 181.2583 181.3703 181.4697 181.4907
   181.6498 181.6836 181.7480 181.8894 182.2725 182.4251 182.4493 182.5932
   182.7137 182.8351 182.9214 183.0854 183.2139 183.3161 183.4444 183.7330
   183.7413 183.8652 183.9907 184.0134 184.2257 184.2448 184.5144 184.5756
   184.6079 184.8757 184.8882 185.1153 185.2340 185.4808 185.5700 185.6292
   185.6710 185.7638 185.9184 185.9415 186.0076 186.3618 186.4132 186.6574
   186.6883 186.7742 186.8409 186.9484 187.0701 187.1256 187.3777 187.4235
   187.4437 187.6662 187.6685 187.6908 187.7376 187.9249 187.9474 187.9800
   188.0044 188.0344 188.0485 188.1091 188.2767 188.3291 188.3920 188.4891

          k = 0.1667 0.2887 0.0000 (  7487 PWs)   bands (ev):

   -74.3676 -38.6616 -38.5864 -38.5361 -28.5528 -28.5497 -28.5471 -28.5407
   -28.4901 -28.4879 -28.4586 -13.8777 -13.0014  -5.5938  -4.9143  -4.2553
    -3.7390  -2.5837  -1.6890  -1.1693   1.7065   2.4629   2.6556   4.1972
     6.4776   6.5991   7.2417   7.6823   7.8927   8.5866   9.1045   9.6345
     9.7697  10.6057  10.9869  11.1060  11.8057  12.0609  12.8723  12.9524
    14.4104  14.5037  15.5103  15.8725  16.5149  16.6417  16.6766  16.7856
    17.2159  17.2710  17.4651  17.9941  18.0835  18.2878  18.6504  18.8770
    19.6947  19.8121  20.1117  20.4126  20.7476  21.1210  21.4971  21.9239
    21.9909  22.7401  22.9813  23.0983  23.7856  23.9572  24.3788  24.6051
    24.7845  25.1738  25.8428  26.1060  26.2183  26.3049  26.5432  26.7410
    26.8794  27.1018  27.3768  27.5328  27.6924  27.9037  28.1533  28.5436
    28.5665  28.7920  29.0189  29.2906  29.4529  29.8746  29.9249  30.1860
    30.4618  30.8646  30.9820  31.6032  31.7658  31.9852  32.5130  32.5564
    32.9807  33.1733  33.6204  34.0771  34.1582  34.4261  34.6225  34.7983
    35.0756  35.5197  35.6013  35.6197  36.1443  36.2189  36.4802  36.6220
    36.8366  37.0209  37.0457  37.1232  37.4132  37.4945  37.7138  38.0112
    38.0887  38.4299  38.6650  38.9697  39.1880  39.4012  39.5044  39.9493
    40.0794  40.1044  40.5336  40.7503  40.9084  41.2597  41.4833  41.6624
    41.7734  42.2807  42.5384  42.7819  42.8153  43.2085  43.6582  43.6965
    44.1896  44.3461  44.6463  44.7083  45.0246  45.2108  45.6695  45.7946
    45.9751  46.0070  46.1833  46.4236  46.5587  46.8800  47.1007  47.2016
    47.3540  47.7767  47.9221  47.9974  48.0541  48.5247  48.6308  48.8831
    49.1387  49.1388  49.3708  49.7701  49.9576  49.9914  50.2683  50.5224
    50.7346  51.0738  51.1938  51.8114  51.8747  52.0334  52.2830  52.6469
    52.6534  52.8362  53.1194  53.1843  53.5388  53.9230  54.2254  54.4500
    54.9196  54.9758  55.1721  55.1843  55.5343  55.5807  55.9686  56.0999
    56.1419  56.2263  56.3310  56.4542  56.7575  56.7654  57.1329  57.1646
    57.2345  57.3569  57.4565  57.9725  58.1845  58.2726  58.4207  58.6389
    58.8788  59.0064  59.1102  59.6223  59.9365  60.0179  60.0557  60.0860
    60.5567  60.6188  60.9815  61.0786  61.3291  61.3462  61.4220  61.8338
    62.1167  62.2278  62.5861  62.8543  63.0866  63.1838  63.5018  63.5430
    63.8417  64.0521  64.1665  64.3429  64.3859  64.7640  64.9806  65.1041
    65.3646  65.4817  65.6756  65.8110  65.8563  66.1766  66.2372  66.2760
    66.3646  66.4237  66.6446  66.6581  66.8503  66.9010  67.2166  67.2885
    67.4747  67.5091  67.8640  67.8879  68.1513  68.3181  68.4261  68.5888
    68.7957  69.2229  69.2246  69.3420  69.4589  69.5263  69.9877  70.0470
    70.1587  70.4239  70.6564  71.0812  71.1583  71.1592  71.3291  71.5224
    71.5360  72.0305  72.0327  72.1686  72.6373  72.8911  73.0007  73.1793
    73.3357  73.5379  73.7999  74.0034  74.1973  74.2430  74.4039  74.5548
    74.7347  75.0483  75.1392  75.4691  75.5504  75.6255  75.7063  75.7496
    76.0559  76.1519  76.2028  76.2713  76.3099  76.5690  76.5746  76.7158
    77.0255  77.0996  77.1978  77.2339  77.5712  77.7532  77.8355  77.9725
    78.0306  78.5846  78.7119  78.7603  78.8543  79.0029  79.0235  79.2529
    79.4561  79.5164  79.7107  79.8814  79.9811  80.2435  80.2588  80.4588
    80.5350  80.9559  80.9651  81.3073  81.5151  81.7778  81.9276  82.0047
    82.2946  82.3629  82.5620  82.8147  82.8431  82.9409  83.0318  83.3271
    83.4943  83.5774  83.7732  83.7738  83.8183  84.1890  84.2681  84.4168
    84.4247  84.6179  84.8817  85.0336  85.1625  85.3123  85.4249  85.5860
    85.7323  85.7886  85.9134  86.0622  86.0776  86.1168  86.3072  86.4842
    86.5196  86.5474  86.7020  86.8771  86.9014  86.9717  87.0763  87.1638
    87.2451  87.3754  87.5725  87.6955  87.9070  88.0056  88.3047  88.3260
    88.5127  88.6876  88.7410  88.8131  89.0404  89.1259  89.1261  89.3229
    89.5644  89.5717  89.8961  90.0185  90.2606  90.3603  90.4579  90.4829
    90.8187  90.8302  90.9705  91.1138  91.1768  91.5832  91.6056  91.8283
    91.9004  92.2165  92.2404  92.3629  92.4578  92.7236  92.7346  92.8611
    93.0700  93.1152  93.2358  93.3614  93.6154  93.8966  93.9009  93.9977
    94.1001  94.2295  94.6162  94.6821  94.7605  94.7717  94.9310  95.1108
    95.1453  95.2865  95.5376  95.8062  95.8238  95.9398  96.0897  96.5597
    96.8099  97.0214  97.2015  97.6117  97.6760  97.7151  97.9611  98.0207
    98.4135  98.4993  98.6901  98.9055  99.0847  99.2813  99.3060  99.4691
    99.5084  99.5798 100.0553 100.1060 100.1817 100.8619 100.9043 100.9778
   101.1481 101.2174 101.6160 101.7168 101.7499 101.9316 102.0156 102.2569
   102.3155 102.3805 102.6717 102.8562 103.0604 103.2671 103.3136 103.4531
   103.4635 103.7810 103.7962 103.8194 104.1304 104.1991 104.3275 104.5783
   104.6447 104.7160 104.8805 105.0369 105.0923 105.1193 105.5693 105.6058
   105.6794 105.6841 105.8265 105.9822 106.1023 106.3892 106.5418 106.6166
   106.7074 106.7740 106.8258 106.9111 107.6508 107.6654 107.9675 108.0555
   108.2249 108.2880 108.4083 108.4138 108.6949 108.7971 108.8208 109.1765
   109.3133 109.3882 109.4900 109.8742 109.9442 110.2350 110.4200 110.5923
   110.7219 110.7366 111.0224 111.0651 111.1074 111.1982 111.2038 111.3418
   111.4463 111.5818 111.7430 111.7950 111.9781 112.2600 112.3025 112.3433
   112.5682 112.7025 112.8042 112.9050 112.9720 113.1401 113.1476 113.3459
   113.7214 113.7528 113.9631 114.0215 114.2705 114.3156 114.3350 114.5148
   114.5830 114.5968 114.6913 114.7566 114.9681 115.0382 115.3073 115.3520
   115.6243 115.6441 115.7637 115.7710 116.0521 116.2178 116.2947 116.3496
   116.6597 116.8129 116.8219 116.9699 117.0495 117.3289 117.5284 117.6248
   117.7779 118.0081 118.1481 118.2657 118.2797 118.4288 118.6786 118.7558
   118.7953 118.8574 119.0570 119.2047 119.3034 119.5224 119.7414 119.8880
   120.0067 120.0319 120.3281 120.4005 120.9600 120.9759 121.0236 121.1553
   121.3892 121.4063 121.5039 121.5937 121.6739 122.0231 122.1454 122.1459
   122.3305 122.3363 122.5015 122.5709 122.6603 122.7011 122.9303 123.0104
   123.0458 123.1496 123.2300 123.3141 123.4418 123.4923 123.6336 123.7353
   123.9370 124.2142 124.3312 124.3583 124.4311 124.6410 124.9228 125.0016
   125.0850 125.1352 125.1620 125.3977 125.4193 125.4865 125.6100 125.6835
   125.9471 126.0033 126.1188 126.2680 126.3397 126.5021 126.7931 126.8376
   126.8895 126.9287 127.1505 127.2874 127.5054 127.6299 127.7346 127.9144
   128.1445 128.2044 128.2425 128.4005 128.6077 128.6520 128.7266 128.8445
   128.9150 129.1912 129.3136 129.4893 129.5889 129.9758 130.0191 130.1758
   130.1964 130.3380 130.4492 130.7148 130.7547 131.0703 131.1566 131.4009
   131.4939 131.5684 131.5918 131.7735 131.9755 131.9834 132.0717 132.1973
   132.3337 132.4075 132.5879 132.7675 132.8026 133.0187 133.1662 133.1810
   133.3609 133.5261 133.5380 133.6282 133.8081 133.8283 133.9007 133.9976
   134.0806 134.1899 134.2485 134.3219 134.4316 134.4727 134.6397 134.7067
   134.7999 134.9312 134.9711 135.2005 135.2327 135.3163 135.3774 135.5159
   135.5217 135.6531 135.7216 136.0880 136.1006 136.2908 136.4095 136.4634
   136.5722 136.5864 136.7922 136.8400 137.1756 137.3901 137.4929 137.5689
   137.7358 138.0212 138.1770 138.3367 138.4795 138.5490 138.5626 138.6968
   138.7420 138.9871 139.0885 139.2061 139.2911 139.5851 139.6869 139.9045
   139.9127 140.1226 140.1814 140.2813 140.3747 140.6601 140.8063 140.8149
   141.0068 141.1009 141.2580 141.3378 141.5336 141.5840 141.6526 141.8372
   142.0147 142.0519 142.3392 142.3458 142.4190 142.5026 142.7346 142.9269
   143.0075 143.0126 143.1538 143.2501 143.3247 143.3299 143.4611 143.4663
   143.6046 143.8141 143.9382 144.0710 144.1570 144.2447 144.3421 144.4130
   144.6964 144.7066 144.7207 144.9665 145.0746 145.0809 145.3687 145.3807
   145.6652 146.0230 146.1806 146.2452 146.6116 146.7677 146.9462 146.9470
   147.1606 147.3406 147.5157 147.5424 147.8355 147.8818 148.0802 148.3941
   148.4315 148.5091 148.8646 148.9324 149.0241 149.0612 149.2962 149.2989
   149.3453 149.3566 149.5676 149.9070 149.9873 150.3090 150.4087 150.5068
   150.5141 150.8644 150.9158 150.9911 151.0047 151.3202 151.3517 151.6158
   151.6830 151.8720 151.9260 152.1267 152.2953 152.3346 152.3993 152.4716
   152.5280 152.6493 152.7267 152.8997 152.9014 153.3254 153.3311 153.3830
   153.4267 153.6057 153.8113 154.0405 154.0705 154.1137 154.2658 154.3853
   154.5213 154.6280 154.6608 154.7845 154.8065 154.8992 155.0061 155.0237
   155.1129 155.1351 155.1723 155.2353 155.3398 155.5259 155.5461 155.6852
   155.7386 155.7843 155.8718 155.9111 156.0862 156.1264 156.2011 156.3325
   156.3895 156.4684 156.4868 156.7158 156.8923 156.9085 157.1676 157.1795
   157.3966 157.4165 157.4924 157.6316 157.7143 157.7900 157.8972 157.9293
   157.9722 158.0413 158.2747 158.2823 158.3459 158.3702 158.6070 158.8028
   158.8694 158.9748 159.0673 159.2625 159.4959 159.6175 159.6974 159.7445
   159.9485 159.9893 160.0952 160.2872 160.4903 160.5091 160.5424 160.5699
   160.7172 160.8143 160.8405 161.0335 161.0806 161.1190 161.2195 161.4063
   161.4990 161.5237 161.7166 161.8488 161.9376 161.9960 162.1397 162.1444
   162.2321 162.3682 162.5222 162.6792 162.7115 162.7232 162.9026 162.9059
   163.1353 163.1864 163.2798 163.3554 163.4687 163.7004 163.7444 163.8118
   163.9369 163.9546 164.1261 164.2632 164.2703 164.4569 164.4947 164.6079
   164.7054 164.7633 164.8943 165.0128 165.0395 165.0774 165.1007 165.3308
   165.5273 165.5935 165.7255 165.7869 165.8838 165.9591 166.0495 166.0652
   166.2040 166.3556 166.4440 166.6951 166.7162 166.8037 166.9352 166.9809
   167.2924 167.3170 167.4113 167.4270 167.6337 167.7728 167.8678 167.9407
   168.0143 168.0965 168.1969 168.3236 168.3948 168.5116 168.5862 168.8140
   168.8915 169.0115 169.1767 169.3065 169.5774 169.7039 169.7502 169.8963
   169.9542 170.1130 170.2396 170.2627 170.3334 170.4304 170.4434 170.5264
   170.6817 170.7082 170.9519 171.1705 171.3464 171.3785 171.5558 171.6209
   171.6869 171.7140 171.8499 171.8670 171.9527 172.1073 172.1515 172.3009
   172.3275 172.4077 172.5227 172.5644 172.7581 172.7907 172.8903 173.2639
   173.2667 173.4367 173.5141 173.7735 173.7816 173.8377 173.8436 173.8869
   173.9271 174.0952 174.1646 174.2612 174.2836 174.3196 174.4384 174.6813
   174.6922 174.8347 174.8644 174.9536 175.0912 175.1455 175.2329 175.2720
   175.3140 175.5352 175.7402 175.7512 175.8021 175.9101 175.9704 176.0419
   176.2432 176.4975 176.6829 176.8897 176.9268 176.9626 176.9902 176.9973
   177.2196 177.2978 177.5264 177.5593 177.6653 177.7840 177.7951 177.8748
   177.9637 178.0453 178.2081 178.4204 178.5179 178.6048 178.7044 178.9812
   179.1864 179.3082 179.3205 179.3430 179.4813 179.5182 179.7197 179.9129
   179.9333 180.0493 180.1236 180.3756 180.4052 180.6406 180.6960 180.9088
   180.9253 181.1282 181.1630 181.2746 181.5034 181.5630 181.7409 181.7662
   181.8881 181.9646 182.0152 182.0884 182.2293 182.3312 182.3999 182.5208
   182.6103 182.6206 182.8139 182.8410 182.9271 182.9386 183.0207 183.1053
   183.1927 183.2322 183.4009 183.5557 183.6291 183.7383 183.7470 183.8958
   183.9276 184.0211 184.2151 184.2169 184.2531 184.3713 184.4013 184.4041
   184.5704 184.7431 184.7804 184.8246 184.8502 185.0633 185.0937 185.3355

          k = 0.1667 0.4811 0.0000 (  7478 PWs)   bands (ev):

   -74.3615 -38.7557 -38.5910 -38.5638 -28.5527 -28.5484 -28.5453 -28.5432
   -28.4918 -28.4888 -28.4569 -12.9786 -12.6735  -6.2331  -5.5160  -4.5552
    -3.7994  -3.0985  -2.3014  -0.9247   2.2159   2.9348   3.3480   4.4889
     5.9931   7.8909   8.1470   8.8556   9.0597   9.3658   9.8136  10.0777
    10.5834  10.7412  11.6827  11.7437  12.2778  12.6865  12.6893  13.1299
    13.3968  13.7641  14.1544  14.2613  14.7992  14.8122  15.2938  15.8882
    16.0140  16.2331  16.5995  16.9636  17.1193  17.4344  17.4922  18.2031
    18.6712  19.1800  19.2487  19.6310  19.7777  20.4637  20.7697  21.2053
    21.7791  21.8367  22.0736  22.3694  22.9171  23.4663  23.9688  24.0289
    24.6806  24.9861  25.4275  25.5715  25.7373  25.9974  26.2053  26.5566
    26.7781  26.8013  27.2522  27.4561  27.6269  28.4045  28.4301  28.8370
    28.9951  29.3160  29.8181  30.2396  30.3460  30.7500  31.1652  31.5496
    31.5786  32.0982  32.1380  32.4609  32.7020  32.7257  32.8948  33.3093
    33.6653  33.7494  33.9864  34.5245  34.8284  35.0609  35.2926  35.3569
    35.6282  36.0376  36.6225  36.6426  37.1533  37.2240  37.8801  37.8977
    38.0250  38.2652  38.3438  38.6844  38.8859  38.8865  39.2731  39.3645
    39.7930  39.8437  40.3644  40.4062  40.7834  41.0886  41.2183  41.4411
    41.6017  41.7765  42.1198  42.2501  42.3116  42.5184  42.7319  42.8892
    43.0893  43.3219  43.3427  43.6261  43.6313  43.7106  44.2062  44.5811
    44.6613  44.7036  44.9669  45.1093  45.2644  45.4938  45.8521  45.9543
    46.1938  46.2506  46.5882  46.6311  47.1825  47.2349  47.2810  47.3683
    47.6299  47.7676  47.9945  48.2143  48.4577  48.5698  48.7491  48.8633
    49.0357  49.2004  49.2620  49.5559  49.5980  49.8043  49.9670  50.4451
    50.6000  50.6542  50.8429  51.1408  51.1459  51.3522  51.4567  51.8495
    51.9125  52.2090  52.6073  52.8442  52.9063  53.0108  53.3087  53.3496
    53.5681  53.9271  54.1364  54.3662  54.6062  54.6189  54.8284  55.1002
    55.1957  55.3396  55.5333  55.7041  55.8032  55.9086  56.3161  56.4793
    56.6857  56.7179  56.9480  57.2931  57.5075  57.5765  57.7907  57.8294
    58.1895  58.1941  58.3420  58.3801  58.6750  58.9710  59.0784  59.2447
    59.3112  59.4367  59.6853  59.7515  59.9762  60.0514  60.1825  60.4048
    60.6629  60.7091  60.9131  61.2087  61.2950  61.3775  61.7074  61.7076
    61.7795  61.9025  62.0907  62.3335  62.5308  62.6198  62.8802  62.8832
    63.3331  63.4313  63.4629  63.6211  63.8813  63.9974  64.0611  64.3551
    64.4769  64.7917  64.8935  65.0566  65.2715  65.5268  65.5644  65.8870
    66.0277  66.2550  66.3367  66.5675  66.6069  66.8851  67.1938  67.2678
    67.4932  67.5152  67.7885  68.1879  68.2021  68.3475  68.4510  68.6244
    69.0645  69.1390  69.6310  69.6832  69.9746  70.2064  70.3704  70.5689
    70.8886  70.9889  71.2715  71.3954  71.5113  71.8492  72.1838  72.4512
    72.6097  72.6873  72.8944  73.1552  73.3192  73.3404  73.6352  74.0839
    74.1207  74.4303  74.4995  74.7215  74.8502  75.1894  75.2050  75.5308
    76.0033  76.0075  76.0880  76.3279  76.5606  76.7022  76.8342  77.3590
    77.3668  77.6917  77.8472  77.9709  78.0491  78.3640  78.3883  78.5671
    78.7507  78.8237  79.0974  79.3354  79.3757  79.6041  79.6250  79.7919
    79.9522  80.0928  80.3787  80.4943  80.9439  81.0165  81.2662  81.3462
    81.5541  81.6743  81.8033  81.9266  82.0131  82.0984  82.1564  82.4307
    82.4467  82.7183  82.9271  82.9478  83.0659  83.1208  83.4423  83.6242
    83.7307  83.7742  84.0640  84.1396  84.3925  84.5319  84.6362  84.7269
    84.8052  85.1846  85.1976  85.6576  85.8496  86.3301  86.5155  86.7179
    86.7665  86.8179  87.0207  87.1751  87.3927  87.4536  87.6935  87.7062
    88.1421  88.1930  88.3319  88.4664  88.6290  88.7057  88.8403  89.1742
    89.1857  89.3403  89.3520  89.5890  89.6508  89.9291  89.9347  90.2115
    90.4141  90.4961  90.5929  90.9102  90.9863  91.0716  91.1571  91.4499
    91.6311  91.8014  91.9609  92.0773  92.1408  92.4388  92.5538  92.8862
    93.0237  93.1501  93.4406  93.5540  93.7207  93.7870  93.9739  94.1863
    94.3256  94.4288  94.6351  94.6787  94.7878  94.9318  95.0124  95.4132
    95.4665  95.6777  95.7068  96.0241  96.1044  96.2374  96.3494  96.5935
    96.6700  96.8522  96.9627  97.1691  97.1970  97.4048  97.4283  97.6539
    97.7763  97.9297  97.9337  98.0712  98.1551  98.2062  98.3276  98.5138
    98.6023  98.6932  99.0369  99.1406  99.2476  99.4812  99.5156  99.5164
    99.7631  99.8334 100.1243 100.2958 100.5186 100.5574 100.6746 100.8840
   100.8872 101.0142 101.0259 101.1688 101.2957 101.4409 101.6015 101.6748
   101.8205 101.9066 102.0090 102.0922 102.3055 102.3688 102.5426 102.7458
   102.7803 102.9613 103.1711 103.5217 103.5366 103.7287 103.7368 103.8090
   104.0784 104.1224 104.1504 104.3234 104.3624 104.6216 104.7188 104.7690
   104.8368 104.8639 104.9970 105.3937 105.4178 105.6112 105.6679 105.7634
   105.8575 106.0304 106.1260 106.4629 106.5806 106.6648 106.8556 107.0540
   107.1095 107.2864 107.3665 107.4722 107.4888 107.6663 107.8458 107.8672
   107.9724 108.0033 108.1644 108.1772 108.2970 108.6553 108.6605 109.0411
   109.1312 109.4954 109.6504 109.6943 109.7803 110.1343 110.2412 110.2790
   110.5029 110.6236 110.7201 110.7888 110.9423 111.0473 111.0580 111.2379
   111.2888 111.3415 111.4871 111.5349 111.7359 111.8895 111.9556 112.0220
   112.2108 112.2145 112.4879 112.5087 112.6612 112.6872 113.0698 113.1136
   113.4303 113.5130 113.6689 113.9001 113.9988 114.0463 114.2019 114.3108
   114.3910 114.4200 114.5130 114.6004 114.6862 114.8367 114.8851 115.1172
   115.2194 115.3323 115.5695 115.5783 115.6568 115.6732 115.9071 115.9840
   116.1175 116.2031 116.6024 116.6520 116.8170 116.9812 117.1347 117.1577
   117.2359 117.3817 117.3822 117.5860 117.6526 117.8349 118.0119 118.0622
   118.2860 118.3134 118.5090 118.7086 118.8631 119.0727 119.2723 119.3531
   119.4788 119.6688 119.8496 119.9194 120.0658 120.0711 120.1713 120.3278
   120.5089 120.6175 120.6454 120.8182 120.8235 121.0079 121.1385 121.1536
   121.1917 121.3950 121.4022 121.4582 121.6889 121.7695 121.9127 122.0029
   122.2451 122.3862 122.5424 122.7294 122.9517 123.0407 123.0648 123.1828
   123.3647 123.3858 123.4806 123.6035 123.6549 123.8752 123.9454 124.0013
   124.1144 124.2088 124.2804 124.2867 124.4445 124.4878 124.4943 124.6470
   124.6630 124.7346 124.9264 125.1060 125.2566 125.3964 125.4513 125.5908
   125.6614 125.7189 125.8405 126.0444 126.3393 126.4370 126.5618 126.6404
   126.6550 126.8217 127.0377 127.0412 127.1200 127.3196 127.3439 127.5301
   127.5851 127.7140 127.7411 127.8680 127.9820 128.1270 128.1439 128.4895
   128.5378 128.7673 128.8609 129.1019 129.2141 129.2811 129.4378 129.4698
   129.6474 129.8712 129.9008 130.0374 130.1718 130.2106 130.3728 130.4884
   130.5173 130.6055 130.6398 130.8575 130.8657 130.9586 131.1647 131.5757
   131.6510 131.8692 131.8770 132.0790 132.1088 132.4583 132.4874 132.7068
   132.7405 133.0256 133.2142 133.2798 133.3752 133.4328 133.5470 133.5738
   133.6052 133.8951 133.9968 134.1164 134.2497 134.3186 134.4218 134.5691
   134.7262 134.8021 135.0121 135.4473 135.5776 135.7767 135.9264 136.2407
   136.3449 136.6073 136.6558 136.6921 136.9054 136.9317 137.0735 137.1028
   137.2511 137.3553 137.4207 137.4969 137.6176 137.7170 137.8085 137.8521
   138.0358 138.1231 138.2916 138.3433 138.5011 138.5407 138.6463 138.7076
   138.7800 138.9679 139.1566 139.3169 139.3257 139.6941 139.8550 140.0040
   140.0363 140.1996 140.2872 140.5287 140.5966 140.6067 140.8568 140.9512
   140.9636 141.0944 141.2115 141.2991 141.5914 141.6367 141.7151 141.8932
   141.9771 142.0915 142.1007 142.2941 142.3240 142.5770 142.6884 142.8338
   142.8941 143.0326 143.1102 143.1763 143.2546 143.4842 143.4965 143.6390
   143.7237 143.8868 143.9047 144.0850 144.1620 144.3302 144.4584 144.6310
   144.8501 144.8833 144.9175 145.1238 145.2993 145.4747 145.5100 145.6651
   145.8044 145.9834 146.0692 146.2146 146.2369 146.3726 146.4485 146.5737
   146.7260 146.8426 146.8433 146.9370 147.0195 147.2715 147.4414 147.5298
   147.6323 147.7895 147.8703 147.9985 148.0351 148.1624 148.3889 148.4226
   148.5984 148.6704 148.8583 148.9412 149.1146 149.1249 149.4023 149.5257
   149.5401 149.6709 149.7800 149.7963 150.0474 150.1301 150.3548 150.4660
   150.6556 150.6977 150.8414 151.0006 151.0299 151.1303 151.3545 151.4835
   151.8117 151.8771 152.0855 152.3275 152.3649 152.4590 152.5444 152.6839
   152.7752 152.8815 152.8924 153.0977 153.2983 153.3726 153.3842 153.7307
   153.7931 153.8090 153.9091 153.9135 153.9934 154.0416 154.1243 154.2136
   154.2773 154.4434 154.6409 154.7069 154.8028 154.9395 155.0968 155.1941
   155.3011 155.4835 155.5159 155.6114 155.7579 155.8634 155.9084 156.1572
   156.1626 156.1994 156.4881 156.5886 156.7110 156.7824 156.9668 157.0468
   157.2512 157.2605 157.4963 157.5662 157.8040 157.8138 158.1039 158.1734
   158.3175 158.5127 158.7899 158.8093 158.9559 159.1986 159.2189 159.2507
   159.2767 159.3599 159.5941 159.7260 159.9026 159.9849 160.1530 160.2691
   160.3582 160.4272 160.7828 160.8410 161.1263 161.1810 161.4163 161.4632
   161.6710 161.6836 161.9702 162.0116 162.1943 162.2181 162.3892 162.5671
   162.7020 162.8091 162.9473 162.9696 163.1344 163.2882 163.3812 163.4163
   163.6141 163.7312 163.9354 164.0883 164.1441 164.2301 164.4899 164.4914
   164.7109 164.8581 164.9281 165.0506 165.2666 165.3885 165.4901 165.7274
   165.8475 165.9333 165.9645 166.1805 166.2287 166.3786 166.6074 166.6541
   166.7924 167.0126 167.0732 167.1558 167.3157 167.3603 167.5473 167.8480
   167.8750 167.9217 168.3050 168.4196 168.5836 168.5999 168.7125 168.7216
   168.8777 169.0631 169.0654 169.3704 169.3787 169.5838 169.6729 169.7470
   169.9144 170.0356 170.1659 170.2386 170.3735 170.5062 170.5712 170.5898
   170.7284 170.7492 170.8283 170.8916 171.0748 171.0811 171.2829 171.3365
   171.3665 171.5060 171.5779 171.6619 171.8147 171.9424 172.2373 172.2393
   172.4208 172.4839 172.6035 172.6601 172.7628 172.8688 172.9583 173.1130
   173.1567 173.3435 173.3939 173.5774 173.5843 173.6576 173.6657 173.8740
   173.9003 174.0898 174.2863 174.5211 174.7212 174.7243 174.8643 174.8797
   175.1707 175.2721 175.4836 175.5282 175.6432 175.6709 175.7515 175.7997
   175.9872 176.0867 176.1523 176.3941 176.4298 176.6439 176.7162 176.7348
   176.9783 176.9966 177.1352 177.1617 177.2406 177.3908 177.4143 177.6634
   177.7204 177.8777 177.9573 178.0552 178.1750 178.4490 178.5395 178.6689
   178.8005 178.9202 178.9219 178.9926 179.1611 179.2680 179.3165 179.5009
   179.6616 179.6659 179.7654 179.8570 179.9800 180.1071 180.1458 180.3330
   180.4216 180.4787 180.7216 180.8294 180.9442 180.9995 181.2261 181.2621
   181.3921 181.5246 181.6181 181.7827 181.8703 181.9418 181.9950 182.1233
   182.1966 182.2394 182.4143 182.5355 182.5828 182.6679 182.6801 182.8920
   182.9490 183.1360 183.2287 183.3368 183.4539 183.5192 183.5867 183.6643
   183.7719 183.8648 183.8858 183.9364 184.1803 184.4114 184.5483 184.6146
   184.8042 184.8261 184.9702 185.0360 185.1514 185.2347 185.3250 185.4373
   185.5184 185.7668 185.8340 185.9801 186.0300 186.1855 186.3142 186.3215
   186.4946 186.5616 186.6643 186.8192 186.8405 186.9630 187.0148 187.1408
   187.1652 187.3888 187.4683 187.5805 187.6254 187.8125 187.8269 187.9890

          k = 0.3333 0.5774 0.0000 (  7458 PWs)   bands (ev):

   -74.3594 -38.7146 -38.6826 -38.5563 -28.5516 -28.5490 -28.5467 -28.5419
   -28.4910 -28.4907 -28.4564 -12.6455 -12.5285  -6.0414  -5.6407  -4.7791
    -4.1956  -3.5523  -2.6903  -0.3245   1.5004   3.0351   3.6811   5.1436
     6.3609   6.7958   9.0384  10.0202  10.7963  11.1178  11.1322  11.1827
    11.2533  11.9531  12.0574  12.0609  12.1074  12.4617  12.5257  12.6024
    12.7085  12.8042  12.9372  13.4487  14.0039  14.0790  14.2122  14.2455
    14.3785  15.4994  15.8585  16.1592  16.3798  16.4051  16.6290  17.7802
    18.0985  18.2270  18.5851  18.9287  19.0146  19.7752  20.7095  21.4519
    21.5092  21.7779  22.2188  23.4717  23.5190  23.7258  24.1157  24.6925
    24.8112  24.8675  24.9564  25.7594  25.9087  26.6747  27.1482  27.2139
    27.6885  28.0005  28.0140  28.2210  28.8957  29.6710  30.1491  30.1887
    30.2049  31.0700  31.2873  31.3733  31.5303  31.5839  31.7212  31.8028
    31.9135  31.9737  32.1833  32.3092  32.5733  32.6242  32.9706  32.9822
    33.4365  33.6050  33.7409  34.1803  34.4560  34.5163  34.6804  34.8460
    34.9941  35.1458  35.7408  35.8608  35.8957  35.9562  36.1524  36.6426
    36.8170  37.0843  37.3818  37.5876  38.0014  38.1334  38.4254  38.4301
    38.7244  39.1024  39.6853  39.6912  40.1559  40.2689  40.4333  40.5149
    41.1245  41.1464  41.5056  42.0930  42.2162  42.2780  42.3641  42.3815
    43.3475  43.6063  43.9921  44.0801  44.4633  44.8748  44.9143  45.3462
    45.5908  45.7236  46.3579  46.4323  46.7615  47.0745  47.5528  48.0795
    48.1504  48.3322  48.6307  48.9009  49.1531  49.2618  49.6908  49.9890
    50.0092  50.0472  50.0746  50.7263  50.8155  50.8481  50.9313  51.0502
    51.1629  51.3090  51.4000  51.4754  51.5172  51.5525  51.6006  51.6064
    51.8755  51.9177  52.0173  52.0487  52.1414  52.1735  52.1996  52.2286
    52.2501  52.3159  52.6225  52.6314  52.6968  52.9821  53.2603  53.2845
    53.3692  53.4007  53.4964  53.5367  53.7398  53.7987  53.9649  54.0331
    54.2617  54.4596  54.5315  54.5784  54.5835  54.6181  54.9627  55.0926
    55.1047  55.3919  55.5071  55.5252  55.9570  56.1795  56.3148  56.3755
    56.5719  56.6103  56.6263  56.8768  57.1344  57.2720  57.3351  57.8424
    57.8568  58.2112  58.5176  58.5943  58.8138  58.8465  58.9268  58.9384
    59.0027  59.2635  59.4480  60.0322  60.0433  60.2292  60.4482  60.5052
    60.5866  60.6140  60.8399  61.1167  61.1728  61.3639  61.3932  61.7207
    61.9631  62.3775  62.3844  62.5554  62.7025  63.0008  63.0080  63.4063
    63.6375  63.6593  63.7950  64.3064  64.4715  64.4748  64.5272  65.1491
    65.3143  65.3757  65.5612  65.7666  65.9900  66.2788  66.3654  66.6159
    66.7289  67.4686  67.4938  67.8263  67.8300  68.0760  68.2953  68.3695
    68.5673  68.9059  69.0051  69.0811  69.2199  69.6158  69.7952  69.9248
    69.9886  70.7409  70.8595  71.1295  71.1456  71.7975  71.8703  71.8808
    72.1681  72.5302  72.7108  72.7251  72.8268  73.2419  73.5920  73.7043
    73.7921  73.9923  74.1535  74.3165  74.5129  74.6547  74.7327  75.2116
    75.6307  75.6800  75.8278  76.3493  76.6140  76.6466  76.7395  76.8873
    76.9852  77.3177  77.4228  77.7428  77.8983  78.1043  78.3523  78.6283
    79.0133  79.0670  79.2090  79.4849  79.5385  79.8310  80.1739  80.1799
    80.5569  80.6046  81.1276  81.2773  81.3505  81.3783  81.5585  81.9957
    82.0185  82.2654  82.5494  82.6522  82.8168  83.4753  83.5200  83.8904
    84.2139  84.7109  84.8580  85.3098  85.3344  85.4831  85.6636  85.9747
    85.9840  86.3812  86.3823  86.4785  86.5884  86.7495  86.8368  86.9513
    87.3703  87.6163  87.6710  87.7852  88.0265  88.3408  88.3631  88.5321
    88.6392  88.9018  89.0171  89.4203  89.4570  89.5343  89.7556  89.9536
    89.9965  90.5123  90.5756  90.5892  90.6106  90.6167  90.7193  90.7410
    90.9295  90.9337  90.9544  91.0706  91.0918  91.1731  91.2051  91.2102
    91.2173  91.5200  91.5525  91.6808  91.7334  91.7337  91.7955  91.8948
    92.0520  92.1117  92.2565  92.3190  92.4171  92.4655  92.7343  92.7983
    92.8998  92.9033  92.9275  93.1129  93.1262  93.4477  93.5546  93.5993
    93.6519  93.7739  93.9096  93.9989  94.0159  94.2227  94.3883  94.4248
    94.4476  94.8397  94.8683  95.1214  95.2469  95.5317  95.5366  95.7529
    95.9387  96.0701  96.3091  96.3859  96.4507  96.6128  96.6303  96.7926
    96.8244  96.9227  96.9313  96.9374  97.2502  97.2840  97.7021  97.7028
    97.8927  98.0778  98.1211  98.3203  98.3922  99.0159  99.0386  99.0913
    99.1467  99.1589  99.2236  99.5690  99.6043  99.6094  99.7764 100.0740
   100.1782 100.3839 100.4884 100.7039 100.7452 101.0122 101.1470 101.2586
   101.3170 101.3531 101.7844 101.7949 101.7953 102.1689 102.1744 102.3710
   102.7165 102.9434 103.1228 103.2807 103.3289 103.3638 103.6085 103.7191
   103.7508 103.8599 104.0741 104.4382 104.6956 104.7570 104.9351 105.0247
   105.2433 105.5786 105.5946 105.7590 105.9604 106.0048 106.1344 106.3134
   106.4315 106.6032 106.7491 106.8858 107.0571 107.0645 107.1008 107.1310
   107.5474 107.6765 107.7515 108.0612 108.1498 108.1548 108.2730 108.4081
   108.5402 108.7721 108.7879 108.8011 108.8026 108.8616 108.9817 109.1267
   109.1879 109.2101 109.3124 109.5222 109.7465 109.7617 109.7756 109.8671
   109.8914 110.6021 110.7073 110.7155 110.7260 110.7301 110.7625 110.8233
   110.8830 110.9246 110.9734 111.1195 111.4441 111.4465 111.5014 111.5441
   111.8289 111.9175 112.1984 112.2149 112.3269 112.4495 112.4699 112.5567
   112.5957 112.7319 112.9318 112.9797 113.3249 113.5800 113.6580 113.6634
   113.7408 113.9001 113.9431 114.0672 114.1139 114.3812 114.4875 114.7059
   114.9899 115.0996 115.3316 115.4013 115.6943 115.7456 115.7769 116.0586
   116.0969 116.1606 116.4285 116.4691 116.4945 116.5276 116.6823 116.7321
   116.7398 117.0872 117.1358 117.1776 117.3150 117.3525 117.6291 117.7163
   117.8057 118.0791 118.1755 118.2802 118.4102 118.5654 118.6362 118.6687
   118.8638 118.9569 119.3501 119.4075 119.4921 119.5733 119.6936 119.8036
   119.8119 119.8267 119.8447 119.9997 120.0014 120.0636 120.1820 120.5653
   120.6142 120.9757 121.5148 121.7205 122.0125 122.0784 122.1458 122.4054
   122.5965 123.2030 123.2841 123.4399 123.5963 123.7302 124.0792 124.3719
   124.4361 124.6252 124.7787 124.8603 124.8721 124.9021 125.1057 125.3119
   125.5051 125.7042 125.7643 125.9447 126.1827 126.2511 126.4851 126.5231
   126.8003 127.0394 127.1381 127.1555 127.1785 127.1862 127.2047 127.2447
   127.4719 127.5107 127.5486 127.7103 127.7266 127.7457 128.0282 128.0667
   128.2289 128.2893 128.3950 128.4739 128.5605 128.5776 128.8200 128.8692
   128.9356 129.0809 129.2979 129.3040 129.7021 129.7676 129.8722 130.0559
   130.1101 130.1548 130.4007 130.4263 130.4568 130.5116 130.5162 130.5191
   130.5993 130.6112 130.7371 130.8809 130.9391 130.9489 131.1565 131.1661
   131.1857 131.2028 131.3466 131.3805 131.4968 131.5515 131.6222 131.6585
   131.6754 131.7251 132.0372 132.0983 132.1093 132.3760 132.4854 132.4869
   132.5877 132.6713 132.7172 132.7630 132.9675 133.0712 133.1071 133.1502
   133.1867 133.2766 133.3710 133.3920 133.4194 133.4767 133.6342 133.7673
   133.7898 133.7968 134.3033 134.3679 134.6966 134.7946 134.7963 134.8157
   134.9201 135.1422 135.2624 135.2733 135.3453 135.3909 135.5511 135.6089
   135.6832 135.8486 135.9102 135.9341 136.0143 136.1436 136.2904 136.3914
   136.6144 136.6674 136.7238 136.7792 136.8612 137.0970 137.3203 137.3229
   137.5668 137.7078 137.8000 138.0377 138.0709 138.1580 138.2402 138.4591
   138.5406 138.5759 138.6266 138.7530 138.8313 138.9414 139.0077 139.0112
   139.1353 139.2424 139.3653 139.3896 139.4133 139.5097 139.6490 139.8087
   139.8304 139.9302 139.9478 140.0802 140.1568 140.5125 140.7033 140.7892
   140.7978 140.9254 140.9649 141.1670 141.2700 141.6585 142.0032 142.1153
   142.1297 142.3225 142.5373 142.5836 142.6315 142.6392 142.8235 142.8558
   143.0303 143.1488 143.2905 143.3578 143.4340 143.4603 143.7030 143.7758
   143.8476 143.8695 143.9854 144.8946 144.9624 145.0776 145.2186 145.6500
   145.8514 145.9962 146.0329 146.0903 146.1438 146.3278 146.3677 146.4631
   146.4797 146.6362 146.7521 146.7985 147.0902 147.2736 147.3539 147.4750
   147.6981 147.7649 147.7963 147.8043 147.8388 147.9951 148.0053 148.1050
   148.1219 148.3788 148.3995 148.4635 148.6136 149.0158 149.0738 149.1186
   149.1403 149.2670 149.3119 149.5370 149.5722 149.6923 149.8785 149.9880
   150.3268 150.5035 150.6554 150.6810 150.9316 151.8537 151.9003 152.0221
   152.1708 152.3542 152.3824 152.4641 152.6057 152.6248 152.6669 152.8739
   153.0459 153.0526 153.0861 153.1987 153.7010 154.1122 154.2462 154.3406
   154.5149 154.7685 154.8923 154.9493 155.2068 155.2466 155.2670 155.5449
   155.7094 156.2263 156.3361 156.3982 156.4209 156.5121 156.5784 157.0686
   157.0742 157.2563 157.4531 157.4773 157.5042 157.6505 157.7408 157.9308
   158.0126 158.0990 158.2439 158.2473 158.3102 158.3811 158.4564 158.6344
   158.7798 158.9416 158.9704 158.9994 159.0461 159.0807 159.1196 159.2352
   159.2388 159.4523 160.0291 160.0834 160.0939 160.1928 160.4933 160.7445
   160.8454 160.8492 160.8562 161.3330 161.6223 161.7389 162.0961 162.3911
   162.4220 162.7935 162.8042 163.1049 163.1485 163.1952 163.5145 163.7378
   163.8025 164.0176 164.0783 164.3164 164.3572 164.3575 164.4969 164.8102
   164.8760 165.1575 165.3170 165.5110 165.5150 165.5638 165.6839 165.7275
   166.0185 166.0550 166.3842 166.4345 166.4441 166.5694 166.6441 166.7572
   166.8390 166.8763 167.0169 167.1617 167.3977 167.5636 167.6439 167.7365
   167.8713 167.9667 167.9779 168.0498 168.2972 168.4288 168.7105 168.7197
   168.7486 168.9438 168.9722 169.0360 169.1854 169.2365 169.3549 169.3565
   169.4888 169.6041 169.6890 169.7638 169.8358 169.8407 169.8892 169.9906
   170.1492 170.3122 170.3397 170.4218 170.5536 170.6563 170.8123 171.0017
   171.0419 171.1005 171.1032 171.2239 171.3185 171.5221 171.6258 171.6900
   171.7874 171.9030 171.9280 172.0308 172.0410 172.3770 172.5056 172.5938
   172.7569 172.8816 172.8961 173.0721 173.1260 173.2120 173.3292 173.3467
   173.5710 173.6728 173.7543 173.7845 174.1037 174.2124 174.2446 174.3979
   174.4239 174.4404 174.7755 174.8730 174.9091 175.2227 175.2450 175.3333
   175.3558 175.5052 175.6764 175.6913 175.7999 175.9815 176.0019 176.0920
   176.2882 176.3484 176.4183 176.4435 176.4818 176.8777 177.2819 177.4533
   177.5847 177.6238 177.8888 178.0939 178.1961 178.2198 178.3088 178.3241
   178.5316 178.6336 178.6796 178.8697 179.0360 179.0561 179.0705 179.2921
   179.3413 179.5202 179.6021 179.6455 179.7734 179.8679 179.9380 180.2189
   180.3010 180.3549 180.5120 180.5608 180.8311 180.9269 180.9634 181.0015
   181.1378 181.1906 181.2281 181.5055 181.5763 182.0650 182.1422 182.1623
   182.2511 182.3875 182.4148 182.4415 182.6799 182.7649 182.8668 183.1221
   183.1491 183.1917 183.2750 183.4614 183.6737 183.8905 183.9069 184.0307
   184.1344 184.2105 184.4600 184.5578 184.7195 184.8634 184.9107 185.0014
   185.3740 185.5416 185.6685 185.7468 185.8975 186.3137 186.4496 186.5013
   186.5846 186.6936 186.7615 186.7979 186.9184 186.9386 187.0817 187.1897
   187.3317 187.3393 187.3801 187.5579 187.5588 187.6893 187.6970 187.7349
   187.8355 187.8843 187.9596 187.9811 188.0368 188.0676 188.1725 188.2882
   188.3870 188.3982 188.4554 188.5507 188.6083 189.2543 189.2605 189.3061

     the Fermi energy is    -0.2440 ev
     (compare with:     0.1412 eV, computed in scf)

     Writing all to output data dir out/WS2.save/
 
     init_run     :      0.19s CPU      0.21s WALL (       1 calls)
     electrons    :    623.32s CPU    642.81s WALL (       1 calls)

     Called by init_run:
     wfcinit      :      0.00s CPU      0.00s WALL (       1 calls)
     potinit      :      0.03s CPU      0.04s WALL (       1 calls)
     hinit0       :      0.05s CPU      0.06s WALL (       1 calls)

     Called by electrons:
     c_bands      :    623.32s CPU    642.81s WALL (       1 calls)
     v_of_rho     :      0.01s CPU      0.02s WALL (       1 calls)

     Called by c_bands:
     init_us_2    :      0.00s CPU      0.00s WALL (       7 calls)
     init_us_2:cp :      0.00s CPU      0.00s WALL (       7 calls)
     cegterg      :    610.66s CPU    629.76s WALL (       7 calls)

     Called by *egterg:
     cdiaghg      :    551.85s CPU    569.69s WALL (      85 calls)
     h_psi        :     15.47s CPU     15.74s WALL (      92 calls)
     g_psi        :      0.11s CPU      0.11s WALL (      78 calls)

     Called by h_psi:
     h_psi:calbec :      0.36s CPU      0.37s WALL (      92 calls)
     vloc_psi     :     14.42s CPU     14.66s WALL (      92 calls)
     add_vuspsi   :      0.54s CPU      0.54s WALL (      92 calls)

     General routines
     calbec       :      0.36s CPU      0.37s WALL (      92 calls)
     fft          :      0.01s CPU      0.02s WALL (      10 calls)
     fftw         :     13.33s CPU     13.55s WALL (  126744 calls)
 
     Parallel routines
 
     PWSCF        :  10m24.61s CPU  10m44.77s WALL

 
   This run was terminated on:   8:28:54   7Apr2024            

=------------------------------------------------------------------------------=
   JOB DONE.
=------------------------------------------------------------------------------=
