
     Program PWSCF v.7.1 starts on  6Dec2023 at  0:53:55 

     This program is part of the open-source Quantum ESPRESSO suite
     for quantum simulation of materials; please cite
         "P. Giannozzi et al., J. Phys.:Condens. Matter 21 395502 (2009);
         "P. Giannozzi et al., J. Phys.:Condens. Matter 29 465901 (2017);
         "P. Giannozzi et al., J. Chem. Phys. 152 154105 (2020);
          URL http://www.quantum-espresso.org", 
     in publications or presentations arising from this work. More details at
     http://www.quantum-espresso.org/quote

     Parallel version (MPI), running on    24 processors

     MPI processes distributed on     1 nodes
     122858 MiB available memory on the printing compute node when the environment starts
 
     Reading input from pw_mp-19717_scf_k3000_E50.in
Warning: card &CELL ignored
Warning: card / ignored

     Current dimensions of program PWSCF are:
     Max number of different atomic species (ntypx) = 10
     Max number of k-points (npk) =  40000
     Max angular momentum in pseudopotentials (lmaxx) =  4
 
     K-points division:     npool     =       2
     R & G space division:  proc/nbgrp/npool/nimage =      12
     Subspace diagonalization in iterative solution of the eigenvalue problem:
     a serial algorithm will be used

 
     Parallelization info
     --------------------
     sticks:   dense  smooth     PW     G-vecs:    dense   smooth      PW
     Min          87      87     26                 1867     1867     307
     Max          88      88     27                 1870     1870     310
     Sum        1045    1045    313                22419    22419    3695
 
     Using Slab Decomposition
 


     bravais-lattice index     =            2
     lattice parameter (alat)  =      12.3622  a.u.
     unit-cell volume          =     472.3099 (a.u.)^3
     number of atoms/cell      =            2
     number of atomic types    =            2
     number of electrons       =        30.00
     number of Kohn-Sham states=           30
     kinetic-energy cutoff     =      50.0000  Ry
     charge density cutoff     =     200.0000  Ry
     scf convergence threshold =      1.0E-10
     mixing beta               =       0.7000
     number of iterations used =            8  plain     mixing
     Exchange-correlation= PBE
                           (   1   4   3   4   0   0   0)

     celldm(1)=  12.362197  celldm(2)=   0.000000  celldm(3)=   0.000000
     celldm(4)=   0.000000  celldm(5)=   0.000000  celldm(6)=   0.000000

     crystal axes: (cart. coord. in units of alat)
               a(1) = (  -0.500000   0.000000   0.500000 )  
               a(2) = (   0.000000   0.500000   0.500000 )  
               a(3) = (  -0.500000   0.500000   0.000000 )  

     reciprocal axes: (cart. coord. in units 2 pi/alat)
               b(1) = ( -1.000000 -1.000000  1.000000 )  
               b(2) = (  1.000000  1.000000  1.000000 )  
               b(3) = ( -1.000000  1.000000 -1.000000 )  


     PseudoPot. # 1 for Pb read from file:
     /usr/scratch4/magr4985/MG/HTDF/pseudo/SG15/Pb.upf
     MD5 check sum: 7f27c247474026287e0dbe0f3167d60b
     Pseudo is Norm-conserving, Zval = 14.0
     Generated using ONCVPSP code by D. R. Hamann
     Using radial grid of  602 points,  8 beta functions with: 
                l(1) =   0
                l(2) =   0
                l(3) =   1
                l(4) =   1
                l(5) =   2
                l(6) =   2
                l(7) =   3
                l(8) =   3

     PseudoPot. # 2 for Te read from file:
     /usr/scratch4/magr4985/MG/HTDF/pseudo/SG15/Te.upf
     MD5 check sum: dd4de4dac1e38587f63aaf3700bb29d3
     Pseudo is Norm-conserving, Zval = 16.0
     Generated using ONCVPSP code by D. R. Hamann
     Using radial grid of  602 points,  6 beta functions with: 
                l(1) =   0
                l(2) =   0
                l(3) =   1
                l(4) =   1
                l(5) =   2
                l(6) =   2

     atomic species   valence    mass     pseudopotential
        Pb            14.00   207.20000     Pb( 1.00)
        Te            16.00   127.60000     Te( 1.00)

     48 Sym. Ops., with inversion, found



   Cartesian axes

     site n.     atom                  positions (alat units)
         1           Te  tau(   1) = (   0.0000000   0.0000000   0.0000000  )
         2           Pb  tau(   2) = (  -0.5000000   0.5000000   0.5000000  )

     number of k points=    72  Gaussian smearing, width (Ry)=  0.0005
                       cart. coord. in units 2pi/alat
        k(    1) = (   0.0000000   0.0000000   0.0000000), wk =   0.0011574
        k(    2) = (  -0.0833333   0.0833333  -0.0833333), wk =   0.0092593
        k(    3) = (  -0.1666667   0.1666667  -0.1666667), wk =   0.0092593
        k(    4) = (  -0.2500000   0.2500000  -0.2500000), wk =   0.0092593
        k(    5) = (  -0.3333333   0.3333333  -0.3333333), wk =   0.0092593
        k(    6) = (  -0.4166667   0.4166667  -0.4166667), wk =   0.0092593
        k(    7) = (   0.5000000  -0.5000000   0.5000000), wk =   0.0046296
        k(    8) = (   0.0000000   0.1666667   0.0000000), wk =   0.0069444
        k(    9) = (  -0.0833333   0.2500000  -0.0833333), wk =   0.0277778
        k(   10) = (  -0.1666667   0.3333333  -0.1666667), wk =   0.0277778
        k(   11) = (  -0.2500000   0.4166667  -0.2500000), wk =   0.0277778
        k(   12) = (  -0.3333333   0.5000000  -0.3333333), wk =   0.0277778
        k(   13) = (   0.5833333  -0.4166667   0.5833333), wk =   0.0277778
        k(   14) = (   0.5000000  -0.3333333   0.5000000), wk =   0.0277778
        k(   15) = (   0.4166667  -0.2500000   0.4166667), wk =   0.0277778
        k(   16) = (   0.3333333  -0.1666667   0.3333333), wk =   0.0277778
        k(   17) = (   0.2500000  -0.0833333   0.2500000), wk =   0.0277778
        k(   18) = (   0.1666667  -0.0000000   0.1666667), wk =   0.0138889
        k(   19) = (   0.0000000   0.3333333   0.0000000), wk =   0.0069444
        k(   20) = (  -0.0833333   0.4166667  -0.0833333), wk =   0.0277778
        k(   21) = (  -0.1666667   0.5000000  -0.1666667), wk =   0.0277778
        k(   22) = (  -0.2500000   0.5833333  -0.2500000), wk =   0.0277778
        k(   23) = (   0.6666667  -0.3333333   0.6666667), wk =   0.0277778
        k(   24) = (   0.5833333  -0.2500000   0.5833333), wk =   0.0277778
        k(   25) = (   0.5000000  -0.1666667   0.5000000), wk =   0.0277778
        k(   26) = (   0.4166667  -0.0833333   0.4166667), wk =   0.0277778
        k(   27) = (   0.3333333   0.0000000   0.3333333), wk =   0.0138889
        k(   28) = (   0.0000000   0.5000000   0.0000000), wk =   0.0069444
        k(   29) = (  -0.0833333   0.5833333  -0.0833333), wk =   0.0277778
        k(   30) = (  -0.1666667   0.6666667  -0.1666667), wk =   0.0277778
        k(   31) = (   0.7500000  -0.2500000   0.7500000), wk =   0.0277778
        k(   32) = (   0.6666667  -0.1666667   0.6666667), wk =   0.0277778
        k(   33) = (   0.5833333  -0.0833333   0.5833333), wk =   0.0277778
        k(   34) = (   0.5000000   0.0000000   0.5000000), wk =   0.0138889
        k(   35) = (   0.0000000   0.6666667   0.0000000), wk =   0.0069444
        k(   36) = (  -0.0833333   0.7500000  -0.0833333), wk =   0.0277778
        k(   37) = (   0.8333333  -0.1666667   0.8333333), wk =   0.0277778
        k(   38) = (   0.7500000  -0.0833333   0.7500000), wk =   0.0277778
        k(   39) = (   0.6666667  -0.0000000   0.6666667), wk =   0.0138889
        k(   40) = (   0.0000000   0.8333333   0.0000000), wk =   0.0069444
        k(   41) = (   0.9166667  -0.0833333   0.9166667), wk =   0.0277778
        k(   42) = (   0.8333333   0.0000000   0.8333333), wk =   0.0138889
        k(   43) = (   0.0000000  -1.0000000   0.0000000), wk =   0.0034722
        k(   44) = (  -0.1666667   0.3333333   0.0000000), wk =   0.0277778
        k(   45) = (  -0.2500000   0.4166667  -0.0833333), wk =   0.0555556
        k(   46) = (  -0.3333333   0.5000000  -0.1666667), wk =   0.0555556
        k(   47) = (   0.5833333  -0.4166667   0.7500000), wk =   0.0555556
        k(   48) = (   0.5000000  -0.3333333   0.6666667), wk =   0.0277778
        k(   49) = (  -0.1666667   0.5000000   0.0000000), wk =   0.0277778
        k(   50) = (  -0.2500000   0.5833333  -0.0833333), wk =   0.0555556
        k(   51) = (   0.6666667  -0.3333333   0.8333333), wk =   0.0555556
        k(   52) = (   0.5833333  -0.2500000   0.7500000), wk =   0.0555556
        k(   53) = (   0.5000000  -0.1666667   0.6666667), wk =   0.0555556
        k(   54) = (   0.4166667  -0.0833333   0.5833333), wk =   0.0555556
        k(   55) = (   0.3333333   0.0000000   0.5000000), wk =   0.0277778
        k(   56) = (  -0.1666667   0.6666667  -0.0000000), wk =   0.0277778
        k(   57) = (   0.7500000  -0.2500000   0.9166667), wk =   0.0555556
        k(   58) = (   0.6666667  -0.1666667   0.8333333), wk =   0.0555556
        k(   59) = (   0.5833333  -0.0833333   0.7500000), wk =   0.0555556
        k(   60) = (   0.5000000   0.0000000   0.6666667), wk =   0.0277778
        k(   61) = (   0.8333333  -0.1666667   1.0000000), wk =   0.0277778
        k(   62) = (   0.7500000  -0.0833333   0.9166667), wk =   0.0555556
        k(   63) = (   0.6666667   0.0000000   0.8333333), wk =   0.0277778
        k(   64) = (  -0.1666667  -1.0000000  -0.0000000), wk =   0.0138889
        k(   65) = (   0.6666667  -0.3333333   1.0000000), wk =   0.0277778
        k(   66) = (   0.5833333  -0.2500000   0.9166667), wk =   0.0555556
        k(   67) = (   0.5000000  -0.1666667   0.8333333), wk =   0.0277778
        k(   68) = (   0.6666667  -0.1666667   1.0000000), wk =   0.0277778
        k(   69) = (   0.5833333  -0.0833333   0.9166667), wk =   0.0555556
        k(   70) = (   0.5000000   0.0000000   0.8333333), wk =   0.0277778
        k(   71) = (  -0.3333333  -1.0000000   0.0000000), wk =   0.0138889
        k(   72) = (  -0.5000000  -1.0000000   0.0000000), wk =   0.0069444

     Dense  grid:    22419 G-vectors     FFT dimensions: (  40,  40,  40)

     Estimated max dynamical RAM per process >       7.63 MB

     Estimated total dynamical RAM >     177.67 MB

     Initial potential from superposition of free atoms

     starting charge      29.8591, renormalised to      30.0000
     Starting wfcs are random

     total cpu time spent up to now is        0.5 secs

     Self-consistent Calculation

     iteration #  1     ecut=    50.00 Ry     beta= 0.70
     Davidson diagonalization with overlap
     ethr =  1.00E-02,  avg # of iterations =  8.6

     Threshold (ethr) on eigenvalues was too large:
     Diagonalizing with lowered threshold

     Davidson diagonalization with overlap
     ethr =  1.26E-04,  avg # of iterations =  4.9

     total cpu time spent up to now is        3.7 secs

     total energy              =    -287.72423767 Ry
     estimated scf accuracy    <       0.03409343 Ry

     iteration #  2     ecut=    50.00 Ry     beta= 0.70
     Davidson diagonalization with overlap
     ethr =  1.14E-04,  avg # of iterations =  2.0

     total cpu time spent up to now is        4.7 secs

     total energy              =    -287.73182125 Ry
     estimated scf accuracy    <       0.01300067 Ry

     iteration #  3     ecut=    50.00 Ry     beta= 0.70
     Davidson diagonalization with overlap
     ethr =  4.33E-05,  avg # of iterations =  1.8

     total cpu time spent up to now is        6.0 secs

     total energy              =    -287.73529169 Ry
     estimated scf accuracy    <       0.00054292 Ry

     iteration #  4     ecut=    50.00 Ry     beta= 0.70
     Davidson diagonalization with overlap
     ethr =  1.81E-06,  avg # of iterations =  6.2

     total cpu time spent up to now is        7.3 secs

     total energy              =    -287.73538797 Ry
     estimated scf accuracy    <       0.00001320 Ry

     iteration #  5     ecut=    50.00 Ry     beta= 0.70
     Davidson diagonalization with overlap
     ethr =  4.40E-08,  avg # of iterations =  2.0

     total cpu time spent up to now is        8.5 secs

     total energy              =    -287.73538948 Ry
     estimated scf accuracy    <       0.00000040 Ry

     iteration #  6     ecut=    50.00 Ry     beta= 0.70
     Davidson diagonalization with overlap
     ethr =  1.33E-09,  avg # of iterations =  2.0

     total cpu time spent up to now is        9.6 secs

     total energy              =    -287.73538955 Ry
     estimated scf accuracy    <          8.6E-09 Ry

     iteration #  7     ecut=    50.00 Ry     beta= 0.70
     Davidson diagonalization with overlap
     ethr =  2.85E-11,  avg # of iterations =  2.5

     total cpu time spent up to now is       10.7 secs

     total energy              =    -287.73538955 Ry
     estimated scf accuracy    <          1.5E-10 Ry

     iteration #  8     ecut=    50.00 Ry     beta= 0.70
     Davidson diagonalization with overlap
     ethr =  5.06E-13,  avg # of iterations =  2.6

     total cpu time spent up to now is       12.0 secs

     End of self-consistent calculation

          k = 0.0000 0.0000 0.0000 (  2741 PWs)   bands (ev):

   -26.8834 -26.8834 -26.8785 -26.8785 -26.8785  -7.4947  -7.4947  -7.4897
    -7.4897  -7.4897  -2.5432   3.4840   7.9706   7.9706   7.9706  13.2292
    13.2292  13.2292  15.0872  15.0872  15.0872  16.6375  16.7322  17.2258
    17.2258  27.8491  27.8491  27.8491  28.4092  28.4092

          k =-0.0833 0.0833-0.0833 (  2782 PWs)   bands (ev):

   -26.8834 -26.8834 -26.8785 -26.8785 -26.8785  -7.4954  -7.4954  -7.4895
    -7.4888  -7.4888  -2.4867   3.3059   7.9873   7.9873   8.0680  12.8425
    12.9485  12.9485  14.9855  15.2193  15.2193  17.0988  17.2687  17.6160
    17.6160  26.9737  26.9737  27.3299  27.9174  28.3349

          k =-0.1667 0.1667-0.1667 (  2806 PWs)   bands (ev):

   -26.8833 -26.8833 -26.8785 -26.8784 -26.8784  -7.4977  -7.4977  -7.4890
    -7.4862  -7.4862  -2.3198   2.8395   8.0388   8.0388   8.3005  12.0849
    12.3365  12.3365  14.9575  15.5870  15.5870  18.1205  18.5271  18.5794
    18.5794  25.3226  25.3226  25.5915  28.1211  28.5550

          k =-0.2500 0.2500-0.2500 (  2809 PWs)   bands (ev):

   -26.8833 -26.8833 -26.8784 -26.8783 -26.8783  -7.5011  -7.5011  -7.4885
    -7.4825  -7.4825  -2.0533   2.2182   8.1261   8.1261   8.5684  11.3260
    11.6732  11.6732  15.2379  16.1660  16.1660  19.3281  19.8391  19.8391
    20.0991  23.6657  23.6657  24.0205  28.4573  28.8709

          k =-0.3333 0.3333-0.3333 (  2824 PWs)   bands (ev):

   -26.8833 -26.8833 -26.8784 -26.8783 -26.8783  -7.5045  -7.5045  -7.4880
    -7.4786  -7.4786  -1.7142   1.5674   8.2414   8.2414   8.8226  10.6787
    11.0952  11.0952  15.8577  16.9359  16.9359  20.0082  21.1442  21.1442
    21.7481  22.2413  22.2413  23.4739  28.3362  28.3363

          k =-0.4167 0.4167-0.4167 (  2827 PWs)   bands (ev):

   -26.8832 -26.8832 -26.8783 -26.8782 -26.8782  -7.5071  -7.5071  -7.4876
    -7.4758  -7.4758  -1.3734   1.0186   8.3538   8.3538   9.0513  10.1926
    10.6888  10.6888  16.7567  17.8482  17.8482  19.2690  20.5741  20.5741
    22.9299  22.9299  23.5061  24.7337  26.7890  26.7890

          k = 0.5000-0.5000 0.5000 (  2824 PWs)   bands (ev):

   -26.8832 -26.8832 -26.8783 -26.8782 -26.8782  -7.5080  -7.5080  -7.4875
    -7.4747  -7.4747  -1.2074   0.7800   8.4041   8.4041   9.1738   9.9803
    10.5381  10.5381  17.5676  18.3819  18.5285  18.5285  19.7628  19.7628
    23.9256  23.9256  25.3243  25.6755  25.7188  25.7188

          k = 0.0000 0.1667 0.0000 (  2786 PWs)   bands (ev):

   -26.8834 -26.8833 -26.8785 -26.8785 -26.8785  -7.4971  -7.4941  -7.4902
    -7.4883  -7.4883  -2.4679   3.2629   7.8555   7.8555   8.3521  12.2041
    13.2331  13.2331  14.6463  15.4551  15.4551  16.8818  17.2994  17.3582
    18.3343  26.9446  27.0825  27.0825  27.3820  28.1920

          k =-0.0833 0.2500-0.0833 (  2798 PWs)   bands (ev):

   -26.8834 -26.8833 -26.8785 -26.8784 -26.8784  -7.5001  -7.4946  -7.4903
    -7.4865  -7.4859  -2.3380   2.9287   7.7736   7.8091   8.6709  11.4481
    12.9302  12.9993  14.4881  15.7708  15.8863  17.4231  17.7676  18.2381
    19.4745  25.3271  25.4729  27.1310  27.1833  27.5213

          k =-0.1667 0.3333-0.1667 (  2816 PWs)   bands (ev):

   -26.8833 -26.8833 -26.8785 -26.8783 -26.8783  -7.5037  -7.4972  -7.4895
    -7.4839  -7.4820  -2.1050   2.3950   7.7589   7.8621   8.8602  10.8639
    12.3187  12.4607  14.6439  16.1984  16.4830  18.4892  18.8015  19.6348
    20.7453  23.6394  23.8323  25.5971  27.4800  27.7571

          k =-0.2500 0.4167-0.2500 (  2831 PWs)   bands (ev):

   -26.8833 -26.8833 -26.8784 -26.8783 -26.8782  -7.5072  -7.5006  -7.4884
    -7.4808  -7.4781  -1.7895   1.7793   7.8220   7.9647   8.8080  10.6032
    11.7116  11.8586  15.1089  16.8511  17.2511  19.5467  20.0609  21.2659
    21.5744  22.1333  23.1143  24.1511  27.8447  27.9000

          k =-0.3333 0.5000-0.3333 (  2828 PWs)   bands (ev):

   -26.8833 -26.8832 -26.8784 -26.8782 -26.8782  -7.5096  -7.5040  -7.4874
    -7.4779  -7.4753  -1.4429   1.2049   7.9618   8.0306   8.6383  10.5931
    11.2623  11.3123  15.8689  17.7102  18.1375  19.3066  20.3424  21.6914
    21.9520  22.7647  23.2925  24.6129  26.4728  27.9315

          k = 0.5833-0.4167 0.5833 (  2832 PWs)   bands (ev):

   -26.8833 -26.8832 -26.8783 -26.8782 -26.8781  -7.5101  -7.5063  -7.4869
    -7.4760  -7.4744  -1.1986   0.8477   7.9004   8.1580   8.6823  10.4763
    10.8883  11.2268  16.8218  18.1875  18.5694  18.7003  19.8463  20.7963
    23.3330  23.5756  24.7449  25.2271  26.2853  26.4036

          k = 0.5000-0.3333 0.5000 (  2827 PWs)   bands (ev):

   -26.8833 -26.8832 -26.8783 -26.8782 -26.8782  -7.5087  -7.5071  -7.4869
    -7.4756  -7.4755  -1.2546   0.9234   7.6867   8.3553   8.8911  10.2822
    10.6549  11.5479  16.7955  17.7151  18.2453  19.0858  20.2958  20.8421
    22.5885  23.8743  24.4094  25.4058  25.8768  26.3377

          k = 0.4167-0.2500 0.4167 (  2824 PWs)   bands (ev):

   -26.8833 -26.8833 -26.8783 -26.8782 -26.8782  -7.5061  -7.5057  -7.4873
    -7.4784  -7.4769  -1.5555   1.3729   7.5363   8.4638   9.0220  10.3175
    10.6973  12.0054  15.9043  16.7993  18.1491  19.3909  20.3116  22.1058
    22.1785  22.4854  22.7063  24.0310  27.2007  28.0115

          k = 0.3333-0.1667 0.3333 (  2816 PWs)   bands (ev):

   -26.8833 -26.8833 -26.8784 -26.8783 -26.8783  -7.5036  -7.5018  -7.4881
    -7.4822  -7.4797  -1.9014   1.9704   7.4897   8.4341   8.9215  10.7157
    11.0461  12.5173  15.2547  16.0573  17.2315  18.8144  20.3622  20.7509
    21.0706  22.4757  23.8004  24.1242  27.6324  28.0625

          k = 0.2500-0.0833 0.2500 (  2816 PWs)   bands (ev):

   -26.8833 -26.8833 -26.8785 -26.8784 -26.8784  -7.5005  -7.4981  -7.4890
    -7.4858  -7.4832  -2.1932   2.5669   7.5567   8.3088   8.6598  11.3689
    11.6258  12.9845  14.9317  15.5323  16.4251  17.7287  19.1364  19.5044
    19.7011  23.6373  25.4236  25.6292  27.3132  27.6602

          k = 0.1667-0.0000 0.1667 (  2794 PWs)   bands (ev):

   -26.8834 -26.8833 -26.8785 -26.8785 -26.8784  -7.4976  -7.4957  -7.4895
    -7.4881  -7.4866  -2.3934   3.0484   7.7352   8.1472   8.3373  12.1434
    12.3168  13.2124  14.8663  15.2469  15.7488  17.1454  17.9290  18.2945
    18.5039  25.3336  26.9781  27.1546  27.1662  27.5151

          k = 0.0000 0.3333 0.0000 (  2814 PWs)   bands (ev):

   -26.8834 -26.8833 -26.8786 -26.8784 -26.8784  -7.5044  -7.4923  -7.4917
    -7.4845  -7.4845  -2.2470   2.7981   7.5628   7.5628   8.8909  10.9723
    13.3449  13.3449  13.9703  16.3928  16.3928  17.1540  17.5203  18.5884
    20.6634  25.4098  25.5080  25.5080  25.6710  28.3871

          k =-0.0833 0.4167-0.0833 (  2819 PWs)   bands (ev):

   -26.8834 -26.8833 -26.8786 -26.8783 -26.8783  -7.5094  -7.4928  -7.4920
    -7.4820  -7.4811  -2.0531   2.4555   7.4361   7.4635   8.5966  11.0530
    13.1031  13.2019  13.9121  16.8610  16.9955  17.7810  18.0735  19.5907
    21.8993  23.7343  23.9160  25.7171  25.7785  27.6015

          k =-0.1667 0.5000-0.1667 (  2805 PWs)   bands (ev):

   -26.8834 -26.8832 -26.8785 -26.8782 -26.8782  -7.5137  -7.4953  -7.4910
    -7.4797  -7.4772  -1.7733   1.9687   7.4109   7.4705   8.0949  11.3914
    12.6133  12.7427  14.1720  17.4220  17.7247  18.8131  19.1472  21.0473
    21.8988  22.1762  23.8388  25.6040  26.0968  26.6696

          k =-0.2500 0.5833-0.2500 (  2817 PWs)   bands (ev):

   -26.8833 -26.8832 -26.8784 -26.8781 -26.8781  -7.5162  -7.4987  -7.4889
    -7.4782  -7.4743  -1.4475   1.4462   7.3614   7.4947   7.8395  11.6232
    12.1932  12.2516  14.7294  18.1906  18.5677  19.1623  19.9971  21.3201
    21.4563  22.8927  24.1391  25.1377  26.2784  26.5829

          k = 0.6667-0.3333 0.6667 (  2819 PWs)   bands (ev):

   -26.8833 -26.8832 -26.8784 -26.8781 -26.8781  -7.5165  -7.5019  -7.4866
    -7.4776  -7.4734  -1.1703   1.0371   7.0333   7.6843   8.0059  11.3796
    11.6650  12.4040  15.5700  18.1645  18.7039  19.1331  20.0680  22.1381
    22.4061  23.1178  24.0629  24.9408  27.0388  27.2920

          k = 0.5833-0.2500 0.5833 (  2829 PWs)   bands (ev):

   -26.8833 -26.8832 -26.8783 -26.8782 -26.8781  -7.5143  -7.5042  -7.4851
    -7.4775  -7.4746  -1.1163   0.9443   6.7930   7.9598   8.3154  10.9990
    11.2124  12.7522  16.5150  17.2054  17.7549  19.8593  21.1733  21.1734
    22.3868  23.7939  24.8621  25.5389  26.1699  26.6267

          k = 0.5000-0.1667 0.5000 (  2820 PWs)   bands (ev):

   -26.8833 -26.8832 -26.8783 -26.8782 -26.8782  -7.5102  -7.5051  -7.4853
    -7.4776  -7.4773  -1.3371   1.2220   6.7128   8.2677   8.6918  10.6695
    10.8902  13.0942  16.0705  16.8619  18.0037  19.4305  19.9210  22.5233
    22.6438  23.5379  23.7910  25.0580  26.1592  26.8444

          k = 0.4167-0.0833 0.4167 (  2819 PWs)   bands (ev):

   -26.8833 -26.8833 -26.8784 -26.8783 -26.8782  -7.5053  -7.5046  -7.4866
    -7.4808  -7.4784  -1.6636   1.6817   6.8155   8.4914   9.0106  10.4998
    10.8017  13.3221  15.5249  16.1746  18.2570  18.5649  19.6026  21.7563
    22.4282  23.0595  23.9956  24.3969  26.1892  26.5698

          k = 0.3333 0.0000 0.3333 (  2818 PWs)   bands (ev):

   -26.8833 -26.8833 -26.8784 -26.8783 -26.8783  -7.5029  -7.5009  -7.4881
    -7.4839  -7.4802  -1.9670   2.1608   7.1055   8.4985   8.9963  10.7387
    11.0610  13.3239  15.1808  15.7279  17.4167  17.6853  20.2702  20.3175
    21.0095  22.4664  25.3307  25.5197  26.0823  26.4434

          k = 0.0000 0.5000 0.0000 (  2826 PWs)   bands (ev):

   -26.8834 -26.8832 -26.8786 -26.8782 -26.8782  -7.5163  -7.4938  -7.4900
    -7.4791  -7.4791  -1.9027   2.3528   7.2044   7.2044   7.9017  11.7301
    13.3970  13.6271  13.6271  17.5738  17.6789  17.6789  17.8865  20.0817
    23.0240  23.9089  24.0044  24.0044  24.2649  28.5927

          k =-0.0833 0.5833-0.0833 (  2825 PWs)   bands (ev):

   -26.8834 -26.8832 -26.8786 -26.8781 -26.8781  -7.5223  -7.4940  -7.4903
    -7.4766  -7.4758  -1.6697   2.0791   7.0668   7.0871   7.2652  12.4086
    13.1897  13.5520  13.7105  18.0100  18.2667  18.4992  18.6177  21.1645
    22.1735  22.3539  24.2394  24.3058  24.8662  27.1240

          k =-0.1667 0.6667-0.1667 (  2819 PWs)   bands (ev):

   -26.8834 -26.8831 -26.8786 -26.8780 -26.8780  -7.5257  -7.4926  -7.4926
    -7.4753  -7.4729  -1.3871   1.6927   6.6063   7.0955   7.2334  12.7030
    13.1337  13.2094  13.8970  18.6996  19.0946  19.1578  19.4874  21.1733
    21.2017  22.7371  24.5839  24.7698  24.8687  26.5290

          k = 0.7500-0.2500 0.7500 (  2816 PWs)   bands (ev):

   -26.8834 -26.8831 -26.8785 -26.8780 -26.8780  -7.5258  -7.4960  -7.4896
    -7.4756  -7.4719  -1.1224   1.3095   6.2121   7.2316   7.4322  12.3423
    12.5880  13.6013  14.4784  18.3624  18.9586  19.6822  20.2881  21.6713
    21.8786  23.1252  24.4887  24.7359  25.2995  25.9050

          k = 0.6667-0.1667 0.6667 (  2814 PWs)   bands (ev):

   -26.8834 -26.8831 -26.8784 -26.8781 -26.8780  -7.5227  -7.4994  -7.4859
    -7.4773  -7.4729  -0.9972   1.0886   6.0140   7.4881   7.7428  11.8670
    12.0169  13.9018  15.3895  17.3935  17.9894  20.0738  21.4860  22.0404
    22.7818  23.0016  24.2177  25.5894  25.8254  26.4353

          k = 0.5833-0.0833 0.5833 (  2820 PWs)   bands (ev):

   -26.8833 -26.8832 -26.8783 -26.8782 -26.8781  -7.5173  -7.5022  -7.4826
    -7.4798  -7.4754  -1.1075   1.1397   6.0427   7.8411   8.1492  11.3644
    11.4692  13.9962  16.4494  16.7410  17.1467  19.2762  21.3098  22.7651
    23.1269  24.2172  24.7640  25.2134  25.3554  25.8095

          k = 0.5000 0.0000 0.5000 (  2840 PWs)   bands (ev):

   -26.8833 -26.8832 -26.8783 -26.8782 -26.8782  -7.5110  -7.5041  -7.4840
    -7.4791  -7.4783  -1.3741   1.3821   6.3139   8.2278   8.6208  10.8585
    11.0108  13.8082  16.0670  16.5354  17.7954  18.5999  20.0411  23.0771
    23.6617  24.0326  24.2315  24.3623  25.1358  25.8352

          k = 0.0000 0.6667 0.0000 (  2822 PWs)   bands (ev):

   -26.8835 -26.8831 -26.8787 -26.8780 -26.8780  -7.5302  -7.4958  -7.4876
    -7.4735  -7.4735  -1.4937   2.0551   6.4854   6.8828   6.8828  12.9781
    13.3498  14.0166  14.0166  18.1817  18.3885  19.1580  19.1580  21.7774
    22.3159  22.5687  22.7705  22.7705  25.3868  26.8281

          k =-0.0833 0.7500-0.0833 (  2817 PWs)   bands (ev):

   -26.8835 -26.8831 -26.8787 -26.8779 -26.8779  -7.5351  -7.4958  -7.4879
    -7.4717  -7.4711  -1.2752   1.8802   5.9149   6.8126   6.8468  12.9460
    13.9083  13.9509  14.2063  18.7443  18.9740  19.8191  19.8422  21.2168
    21.4007  22.8634  23.1231  23.1294  24.2835  26.8053

          k = 0.8333-0.1667 0.8333 (  2830 PWs)   bands (ev):

   -26.8835 -26.8831 -26.8786 -26.8779 -26.8779  -7.5358  -7.4938  -7.4903
    -7.4718  -7.4701  -1.0640   1.6054   5.5530   6.8816   6.9863  13.0118
    13.5030  13.8831  14.6538  18.7987  19.3523  20.1145  20.2086  21.3533
    21.5679  22.8651  23.5332  23.6744  24.5644  26.0283

          k = 0.7500-0.0833 0.7500 (  2830 PWs)   bands (ev):

   -26.8835 -26.8831 -26.8785 -26.8780 -26.8779  -7.5321  -7.4940  -7.4901
    -7.4738  -7.4709  -0.9316   1.3327   5.4418   7.0875   7.2647  12.6770
    12.8752  14.3897  14.8097  18.0285  18.4453  20.2774  21.2996  22.0994
    22.6252  22.6710  23.9510  24.1041  25.3745  25.7575

          k = 0.6667-0.0000 0.6667 (  2838 PWs)   bands (ev):

   -26.8834 -26.8831 -26.8784 -26.8781 -26.8780  -7.5253  -7.4982  -7.4857
    -7.4772  -7.4729  -0.9465   1.1653   5.6061   7.4181   7.6580  12.0725
    12.1719  14.5804  15.3482  17.3204  17.6744  19.5366  22.3965  22.4423
    23.1892  23.7251  24.2489  24.3713  25.0360  25.8127

          k = 0.0000 0.8333 0.0000 (  2826 PWs)   bands (ev):

   -26.8836 -26.8831 -26.8787 -26.8779 -26.8779  -7.5416  -7.4973  -7.4859
    -7.4693  -7.4693  -1.1387   1.9424   5.3970   6.6659   6.6659  12.7250
    14.3756  14.3756  14.9248  18.9781  19.0192  20.5237  20.5237  21.1174
    21.4690  22.1201  22.1201  23.4286  23.6306  25.8135

          k = 0.9167-0.0833 0.9167 (  2826 PWs)   bands (ev):

   -26.8836 -26.8831 -26.8787 -26.8779 -26.8779  -7.5432  -7.4968  -7.4865
    -7.4688  -7.4684  -1.0140   1.8443   5.1208   6.6637   6.6937  12.7965
    14.2327  14.2816  15.3854  19.4474  19.5242  20.1058  20.2791  21.3373
    21.7419  22.1063  22.4806  22.8871  24.5631  25.0836

          k = 0.8333 0.0000 0.8333 (  2834 PWs)   bands (ev):

   -26.8835 -26.8831 -26.8786 -26.8779 -26.8779  -7.5397  -7.4942  -7.4894
    -7.4705  -7.4691  -0.9376   1.6143   5.1333   6.8065   6.9057  13.0322
    13.6623  13.9963  15.3387  18.8213  19.1432  20.4534  20.6471  21.4042
    22.2823  22.7061  22.8306  23.4349  24.4996  24.9812

          k = 0.0000-1.0000 0.0000 (  2794 PWs)   bands (ev):

   -26.8836 -26.8830 -26.8787 -26.8778 -26.8778  -7.5460  -7.4979  -7.4852
    -7.4677  -7.4677  -0.9940   1.9384   4.9685   6.5899   6.5899  12.6404
    14.5269  14.5269  15.6665  19.3544  19.9277  20.2417  20.9056  20.9056
    20.9217  22.2951  22.4394  22.4394  24.6608  24.6612

          k =-0.1667 0.3333 0.0000 (  2812 PWs)   bands (ev):

   -26.8833 -26.8833 -26.8785 -26.8784 -26.8783  -7.5038  -7.4951  -7.4905
    -7.4846  -7.4828  -2.1753   2.5944   7.4315   7.9360   8.8866  10.9129
    12.3740  13.2709  14.4101  16.0694  16.6143  17.4027  18.6183  19.1183
    20.7014  23.6674  25.5667  25.5693  27.3611  27.3830

          k =-0.2500 0.4167-0.0833 (  2818 PWs)   bands (ev):

   -26.8833 -26.8833 -26.8785 -26.8783 -26.8782  -7.5077  -7.4975  -7.4896
    -7.4820  -7.4795  -1.9174   2.1108   7.1971   8.1062   8.7427  10.8138
    11.7191  13.1399  14.6203  16.4490  17.4894  18.0426  19.7180  20.4755
    21.5183  22.7155  23.9615  25.4966  26.2856  27.6937

          k =-0.3333 0.5000-0.1667 (  2819 PWs)   bands (ev):

   -26.8833 -26.8832 -26.8784 -26.8782 -26.8782  -7.5108  -7.5008  -7.4879
    -7.4795  -7.4766  -1.5933   1.5705   7.1092   8.0834   8.5713  10.8773
    11.2855  12.7991  15.0679  17.0456  18.4474  18.9859  19.7492  21.8286
    22.1085  22.3866  23.7880  24.5478  26.4557  27.0688

          k = 0.5833-0.4167 0.7500 (  2822 PWs)   bands (ev):

   -26.8833 -26.8832 -26.8783 -26.8782 -26.8781  -7.5128  -7.5036  -7.4863
    -7.4778  -7.4747  -1.2751   1.0994   7.1625   7.7536   8.6829  10.5826
    11.4672  12.3894  15.8149  17.8046  18.2230  19.3554  20.2041  21.5224
    22.5864  23.3619  24.1756  24.8705  26.3356  26.9740

          k = 0.5000-0.3333 0.6667 (  2830 PWs)   bands (ev):

   -26.8833 -26.8832 -26.8783 -26.8782 -26.8781  -7.5134  -7.5048  -7.4857
    -7.4773  -7.4740  -1.1245   0.8940   7.2686   7.5326   8.7568  10.4285
    11.6846  12.1226  16.5867  17.1713  18.7424  19.0524  20.7954  21.1659
    22.8828  23.2935  24.8908  25.7199  25.9502  26.6799

          k =-0.1667 0.5000 0.0000 (  2819 PWs)   bands (ev):

   -26.8834 -26.8832 -26.8786 -26.8782 -26.8782  -7.5148  -7.4930  -7.4923
    -7.4792  -7.4783  -1.8369   2.1585   7.0633   7.5667   8.0129  11.5615
    12.6791  13.3573  14.0580  17.3641  17.7014  17.9228  18.9634  20.5850
    21.9197  23.4301  24.0676  24.1849  26.0345  27.7283

          k =-0.2500 0.5833-0.0833 (  2810 PWs)   bands (ev):

   -26.8834 -26.8832 -26.8785 -26.8781 -26.8781  -7.5188  -7.4952  -7.4910
    -7.4772  -7.4755  -1.5515   1.7537   6.8294   7.3165   7.9046  11.8669
    12.3049  13.3467  14.3263  17.8148  18.4529  18.8451  19.4551  21.3361
    21.9925  22.4641  24.3649  24.8347  26.2095  26.5900

          k = 0.6667-0.3333 0.8333 (  2817 PWs)   bands (ev):

   -26.8834 -26.8832 -26.8784 -26.8781 -26.8780  -7.5207  -7.4981  -7.4885
    -7.4772  -7.4733  -1.2509   1.3361   6.7253   6.9033   8.1750  11.3958
    12.6460  13.1972  14.7779  18.1337  18.6009  19.4272  20.0319  21.3425
    22.4444  23.6353  24.1833  24.5886  25.4248  27.1148

          k = 0.5833-0.2500 0.7500 (  2818 PWs)   bands (ev):

   -26.8834 -26.8832 -26.8783 -26.8782 -26.8780  -7.5201  -7.5008  -7.4854
    -7.4785  -7.4726  -1.0497   1.0579   6.4952   6.9307   8.4773  10.9304
    12.6523  13.2204  15.5784  17.0632  18.9832  19.4373  21.1279  21.7662
    22.5692  23.2852  24.2418  25.6357  25.7911  26.6566

          k = 0.5000-0.1667 0.6667 (  2821 PWs)   bands (ev):

   -26.8833 -26.8832 -26.8783 -26.8782 -26.8780  -7.5178  -7.5021  -7.4840
    -7.4795  -7.4737  -1.0908   1.0804   6.3647   7.1986   8.7261  10.6357
    12.2485  13.4905  16.0214  16.7519  18.1053  19.7577  21.0810  21.7282
    22.9282  23.7436  24.7930  25.1227  25.6295  26.4089

          k = 0.4167-0.0833 0.5833 (  2818 PWs)   bands (ev):

   -26.8833 -26.8832 -26.8783 -26.8782 -26.8781  -7.5147  -7.5015  -7.4860
    -7.4785  -7.4761  -1.3415   1.3679   6.4343   7.6028   8.7799  10.6515
    11.7808  13.6175  15.4145  17.3234  17.9551  18.9082  20.0064  22.6132
    23.1462  23.4127  24.0649  24.8623  25.4583  26.3742

          k = 0.3333 0.0000 0.5000 (  2822 PWs)   bands (ev):

   -26.8833 -26.8832 -26.8784 -26.8782 -26.8782  -7.5113  -7.4995  -7.4883
    -7.4794  -7.4780  -1.6488   1.7495   6.7180   8.0579   8.6281  10.9534
    11.3699  13.5096  14.9801  16.8154  17.9616  18.6984  19.5380  21.7037
    21.8779  23.7136  24.2343  24.2351  26.2346  26.4715

          k =-0.1667 0.6667-0.0000 (  2822 PWs)   bands (ev):

   -26.8835 -26.8831 -26.8786 -26.8780 -26.8780  -7.5278  -7.4941  -7.4903
    -7.4740  -7.4736  -1.4384   1.8709   6.5485   6.7356   7.3091  12.9361
    13.1869  13.3216  14.2113  18.3046  18.8705  19.0533  19.3834  21.1706
    22.2053  22.5326  22.8684  24.6839  25.1024  26.8040

          k = 0.7500-0.2500 0.9167 (  2822 PWs)   bands (ev):

   -26.8835 -26.8831 -26.8786 -26.8780 -26.8779  -7.5302  -7.4926  -7.4922
    -7.4740  -7.4713  -1.1860   1.5803   6.0639   6.5545   7.6035  12.4080
    13.3696  13.8405  14.4011  18.4180  19.1455  19.4705  20.1489  21.4305
    21.8190  23.1230  23.6232  23.9626  25.1491  26.4231

          k = 0.6667-0.1667 0.8333 (  2830 PWs)   bands (ev):

   -26.8834 -26.8831 -26.8785 -26.8781 -26.8779  -7.5291  -7.4955  -7.4890
    -7.4760  -7.4705  -0.9885   1.3039   5.7839   6.5660   7.9666  11.7981
    13.3913  14.2571  14.6807  17.4487  19.3051  19.9623  20.8580  21.5604
    22.5725  23.1971  23.6049  25.1994  25.2643  25.9720

          k = 0.5833-0.0833 0.7500 (  2816 PWs)   bands (ev):

   -26.8834 -26.8831 -26.8783 -26.8782 -26.8780  -7.5251  -7.4986  -7.4849
    -7.4793  -7.4715  -0.9461   1.1632   5.7439   6.7598   8.3599  11.2218
    13.0125  14.3635  15.4908  16.6240  18.5274  19.7966  21.4820  22.3621
    22.8965  23.4634  24.4128  25.0309  25.4876  25.7663

          k = 0.5000 0.0000 0.6667 (  2818 PWs)   bands (ev):

   -26.8834 -26.8832 -26.8783 -26.8782 -26.8780  -7.5197  -7.5009  -7.4829
    -7.4808  -7.4738  -1.0925   1.2073   5.9634   7.1165   8.7017  10.7639
    12.4365  14.1265  16.0007  16.6399  17.8541  19.0243  21.3284  22.9330
    23.1436  23.9817  24.7234  24.7877  25.2747  25.5372

          k = 0.8333-0.1667 1.0000 (  2822 PWs)   bands (ev):

   -26.8835 -26.8831 -26.8786 -26.8779 -26.8779  -7.5386  -7.4955  -7.4882
    -7.4710  -7.4693  -1.0979   1.7695   5.4751   6.5155   7.0849  12.9880
    13.4323  14.5222  14.7840  18.8614  19.2239  20.1839  20.3512  21.3517
    21.6148  22.0441  23.1796  23.6391  24.0364  25.6221

          k = 0.7500-0.0833 0.9167 (  2825 PWs)   bands (ev):

   -26.8835 -26.8831 -26.8786 -26.8780 -26.8779  -7.5375  -7.4932  -7.4906
    -7.4726  -7.4685  -0.9545   1.5683   5.2817   6.3992   7.4540  12.7280
    13.3235  14.5793  15.0836  18.0988  19.7131  20.1637  20.7906  21.5568
    21.9672  22.3393  23.1712  24.1681  24.3978  25.7838

          k = 0.6667 0.0000 0.8333 (  2826 PWs)   bands (ev):

   -26.8835 -26.8831 -26.8785 -26.8780 -26.8779  -7.5324  -7.4944  -7.4893
    -7.4757  -7.4694  -0.8949   1.3414   5.3707   6.4853   7.8943  11.9775
    13.5017  14.6808  14.9190  17.3220  19.1873  20.1743  20.8980  22.3437
    22.4198  22.9850  24.1660  24.4414  24.4794  25.8298

          k =-0.1667-1.0000-0.0000 (  2830 PWs)   bands (ev):

   -26.8836 -26.8831 -26.8787 -26.8779 -26.8778  -7.5428  -7.4960  -7.4874
    -7.4698  -7.4677  -0.9617   1.7710   5.0510   6.4385   7.0083  12.9148
    13.6144  14.6641  15.4970  18.9027  19.6323  20.6419  20.6831  20.9233
    21.6384  22.2110  22.6263  23.4063  24.1541  25.1165

          k = 0.6667-0.3333 1.0000 (  2802 PWs)   bands (ev):

   -26.8834 -26.8832 -26.8785 -26.8781 -26.8780  -7.5224  -7.4966  -7.4894
    -7.4764  -7.4737  -1.2868   1.4971   6.3779   6.7699   8.2982  11.3856
    12.8602  13.6418  14.8682  18.0472  18.3334  18.7689  20.1343  22.4112
    22.8223  22.8371  23.4749  24.5183  26.4492  26.6444

          k = 0.5833-0.2500 0.9167 (  2817 PWs)   bands (ev):

   -26.8834 -26.8831 -26.8784 -26.8782 -26.8779  -7.5243  -7.4983  -7.4864
    -7.4787  -7.4715  -1.0484   1.2629   6.1380   6.3699   8.6616  10.9199
    13.3928  13.8789  15.2944  16.9360  18.9111  19.4114  21.0009  21.8458
    23.1916  23.3744  23.9731  24.9116  25.3810  26.1057

          k = 0.5000-0.1667 0.8333 (  2808 PWs)   bands (ev):

   -26.8834 -26.8831 -26.8783 -26.8782 -26.8779  -7.5249  -7.4990  -7.4834
    -7.4815  -7.4706  -0.9458   1.1612   6.0941   6.1959   8.8225  10.7249
    13.6497  13.9331  15.8278  16.0428  19.5494  19.6679  21.0361  21.5644
    23.0563  23.3707  24.5152  25.2113  25.3581  26.4120

          k = 0.6667-0.1667 1.0000 (  2823 PWs)   bands (ev):

   -26.8835 -26.8831 -26.8785 -26.8781 -26.8779  -7.5317  -7.4939  -7.4903
    -7.4757  -7.4693  -0.9975   1.4410   5.7074   6.1516   8.1033  11.7803
    13.6294  14.3893  15.0091  17.4061  19.3413  19.9447  20.8859  21.8379
    22.0486  22.8472  23.4021  24.5779  25.6090  25.6539

          k = 0.5833-0.0833 0.9167 (  2813 PWs)   bands (ev):

   -26.8835 -26.8831 -26.8784 -26.8782 -26.8779  -7.5305  -7.4960  -7.4868
    -7.4792  -7.4685  -0.8868   1.3152   5.5855   5.9883   8.5741  11.1874
    13.9598  14.5748  15.3363  16.5606  19.9485  20.2504  20.5359  21.3491
    22.2289  23.6639  24.1057  24.7204  25.5290  26.1797

          k = 0.5000 0.0000 0.8333 (  2809 PWs)   bands (ev):

   -26.8834 -26.8831 -26.8783 -26.8783 -26.8779  -7.5277  -7.4977  -7.4831
    -7.4825  -7.4694  -0.9063   1.2501   5.7316   6.0660   8.8403  10.8149
    13.9197  14.3320  15.9033  15.9521  19.5141  19.6898  21.0376  22.0872
    22.1843  23.6438  24.4858  25.3710  25.6357  25.6716

          k =-0.3333-1.0000 0.0000 (  2830 PWs)   bands (ev):

   -26.8835 -26.8831 -26.8785 -26.8781 -26.8778  -7.5354  -7.4928  -7.4907
    -7.4756  -7.4677  -0.8895   1.4663   5.2890   6.0727   8.0343  11.9609
    13.6028  15.0441  15.1096  17.2906  19.8847  20.7188  20.8509  20.9610
    21.7211  23.0196  23.7136  24.3200  24.6674  26.4209

          k =-0.5000-1.0000 0.0000 (  2832 PWs)   bands (ev):

   -26.8835 -26.8831 -26.8783 -26.8783 -26.8778  -7.5309  -7.4963  -7.4833
    -7.4833  -7.4677  -0.8490   1.3232   5.6510   5.6510   8.8754  10.8899
    14.3913  14.3913  15.9741  15.9741  20.2300  20.2505  20.9810  21.2266
    21.2266  23.5564  24.6320  25.5510  25.8541  25.8541

     the Fermi energy is     9.7248 ev

!    total energy              =    -287.73538956 Ry
     estimated scf accuracy    <          4.3E-12 Ry
     smearing contrib. (-TS)   =      -0.00000000 Ry
     internal energy E=F+TS    =    -287.73538956 Ry

     The total energy is F=E-TS. E is the sum of the following terms:
     one-electron contribution =    -116.47391035 Ry
     hartree contribution      =      68.37652335 Ry
     xc contribution           =     -32.50994043 Ry
     ewald contribution        =    -207.12806212 Ry

     convergence has been achieved in   8 iterations

     Writing all to output data dir out/mp-19717.save/
 
     init_run     :      0.25s CPU      0.35s WALL (       1 calls)
     electrons    :      8.79s CPU     11.54s WALL (       1 calls)

     Called by init_run:
     wfcinit      :      0.21s CPU      0.26s WALL (       1 calls)
     potinit      :      0.01s CPU      0.02s WALL (       1 calls)
     hinit0       :      0.01s CPU      0.05s WALL (       1 calls)

     Called by electrons:
     c_bands      :      7.29s CPU      9.40s WALL (       9 calls)
     sum_band     :      1.45s CPU      1.94s WALL (       9 calls)
     v_of_rho     :      0.03s CPU      0.03s WALL (       9 calls)
     mix_rho      :      0.02s CPU      0.06s WALL (       9 calls)

     Called by c_bands:
     init_us_2    :      0.08s CPU      0.09s WALL (     684 calls)
     init_us_2:cp :      0.07s CPU      0.08s WALL (     684 calls)
     cegterg      :      5.86s CPU      6.11s WALL (     324 calls)

     Called by *egterg:
     cdiaghg      :      1.45s CPU      1.48s WALL (    1466 calls)
     h_psi        :      3.96s CPU      4.18s WALL (    1538 calls)
     g_psi        :      0.03s CPU      0.03s WALL (    1178 calls)

     Called by h_psi:
     h_psi:calbec :      0.15s CPU      0.16s WALL (    1538 calls)
     vloc_psi     :      3.68s CPU      3.87s WALL (    1538 calls)
     add_vuspsi   :      0.11s CPU      0.12s WALL (    1538 calls)

     General routines
     calbec       :      0.15s CPU      0.16s WALL (    1538 calls)
     fft          :      0.01s CPU      0.05s WALL (      90 calls)
     ffts         :      0.00s CPU      0.00s WALL (       9 calls)
     fftw         :      4.57s CPU      4.85s WALL (   66248 calls)
     davcio       :      0.10s CPU      1.74s WALL (    1112 calls)
 
     Parallel routines
 
     PWSCF        :      9.24s CPU     13.21s WALL

 
   This run was terminated on:   0:54: 8   6Dec2023            

=------------------------------------------------------------------------------=
   JOB DONE.
=------------------------------------------------------------------------------=
