
     Program PWSCF v.7.1 starts on 14Nov2023 at 13: 0:14 

     This program is part of the open-source Quantum ESPRESSO suite
     for quantum simulation of materials; please cite
         "P. Giannozzi et al., J. Phys.:Condens. Matter 21 395502 (2009);
         "P. Giannozzi et al., J. Phys.:Condens. Matter 29 465901 (2017);
         "P. Giannozzi et al., J. Chem. Phys. 152 154105 (2020);
          URL http://www.quantum-espresso.org", 
     in publications or presentations arising from this work. More details at
     http://www.quantum-espresso.org/quote

     Parallel version (MPI), running on    24 processors

     MPI processes distributed on     1 nodes
     123247 MiB available memory on the printing compute node when the environment starts
 
     Reading input from pw_mp-111_nscf_k350_E110.in
Warning: card &IONS ignored
Warning: card / ignored
Warning: card &CELL ignored
Warning: card / ignored

     Current dimensions of program PWSCF are:
     Max number of different atomic species (ntypx) = 10
     Max number of k-points (npk) =  40000
     Max angular momentum in pseudopotentials (lmaxx) =  4

     Atomic positions and unit cell read from directory:
     out/mp-111.save/
 
 
     K-points division:     npool     =       2
     R & G space division:  proc/nbgrp/npool/nimage =      12
     Subspace diagonalization in iterative solution of the eigenvalue problem:
     one sub-group per band group will be used
     scalapack distributed-memory algorithm (size of sub-group:  3*  3 procs)

 
     Parallelization info
     --------------------
     sticks:   dense  smooth     PW     G-vecs:    dense   smooth      PW
     Min          79      79     23                 1629     1629     260
     Max          80      80     24                 1633     1633     263
     Sum         955     955    283                19579    19579    3143
 
     Using Slab Decomposition
 


     bravais-lattice index     =            2
     lattice parameter (alat)  =       7.9274  a.u.
     unit-cell volume          =     124.5485 (a.u.)^3
     number of atoms/cell      =            1
     number of atomic types    =            1
     number of electrons       =         8.00
     number of Kohn-Sham states=         1200
     kinetic-energy cutoff     =     110.0000  Ry
     charge density cutoff     =     440.0000  Ry
     Exchange-correlation= PBE
                           (   1   4   3   4   0   0   0)

     celldm(1)=   7.927438  celldm(2)=   0.000000  celldm(3)=   0.000000
     celldm(4)=   0.000000  celldm(5)=   0.000000  celldm(6)=   0.000000

     crystal axes: (cart. coord. in units of alat)
               a(1) = (  -0.500000   0.000000   0.500000 )  
               a(2) = (   0.000000   0.500000   0.500000 )  
               a(3) = (  -0.500000   0.500000   0.000000 )  

     reciprocal axes: (cart. coord. in units 2 pi/alat)
               b(1) = ( -1.000000 -1.000000  1.000000 )  
               b(2) = (  1.000000  1.000000  1.000000 )  
               b(3) = ( -1.000000  1.000000 -1.000000 )  


     PseudoPot. # 1 for Ne read from file:
     /usr/scratch4/magr4985/MG/HTDF/pseudo/SG15/Ne.upf
     MD5 check sum: 56c1d532db00fbb77b1f83d77596279c
     Pseudo is Norm-conserving, Zval =  8.0
     Generated using ONCVPSP code by D. R. Hamann
     Using radial grid of  602 points,  4 beta functions with: 
                l(1) =   0
                l(2) =   0
                l(3) =   1
                l(4) =   1

     atomic species   valence    mass     pseudopotential
        Ne             8.00    20.17970     Ne( 1.00)

     48 Sym. Ops., with inversion, found



   Cartesian axes

     site n.     atom                  positions (alat units)
         1           Ne  tau(   1) = (   0.0000000   0.0000000   0.0000000  )

     number of k points=    29  Gaussian smearing, width (Ry)=  0.0005
                       cart. coord. in units 2pi/alat
        k(    1) = (   0.0000000   0.0000000   0.0000000), wk =   0.0039062
        k(    2) = (  -0.1250000   0.1250000  -0.1250000), wk =   0.0312500
        k(    3) = (  -0.2500000   0.2500000  -0.2500000), wk =   0.0312500
        k(    4) = (  -0.3750000   0.3750000  -0.3750000), wk =   0.0312500
        k(    5) = (   0.5000000  -0.5000000   0.5000000), wk =   0.0156250
        k(    6) = (   0.0000000   0.2500000   0.0000000), wk =   0.0234375
        k(    7) = (  -0.1250000   0.3750000  -0.1250000), wk =   0.0937500
        k(    8) = (  -0.2500000   0.5000000  -0.2500000), wk =   0.0937500
        k(    9) = (   0.6250000  -0.3750000   0.6250000), wk =   0.0937500
        k(   10) = (   0.5000000  -0.2500000   0.5000000), wk =   0.0937500
        k(   11) = (   0.3750000  -0.1250000   0.3750000), wk =   0.0937500
        k(   12) = (   0.2500000   0.0000000   0.2500000), wk =   0.0468750
        k(   13) = (   0.0000000   0.5000000   0.0000000), wk =   0.0234375
        k(   14) = (  -0.1250000   0.6250000  -0.1250000), wk =   0.0937500
        k(   15) = (   0.7500000  -0.2500000   0.7500000), wk =   0.0937500
        k(   16) = (   0.6250000  -0.1250000   0.6250000), wk =   0.0937500
        k(   17) = (   0.5000000   0.0000000   0.5000000), wk =   0.0468750
        k(   18) = (   0.0000000   0.7500000   0.0000000), wk =   0.0234375
        k(   19) = (   0.8750000  -0.1250000   0.8750000), wk =   0.0937500
        k(   20) = (   0.7500000   0.0000000   0.7500000), wk =   0.0468750
        k(   21) = (   0.0000000  -1.0000000   0.0000000), wk =   0.0117188
        k(   22) = (  -0.2500000   0.5000000   0.0000000), wk =   0.0937500
        k(   23) = (   0.6250000  -0.3750000   0.8750000), wk =   0.1875000
        k(   24) = (   0.5000000  -0.2500000   0.7500000), wk =   0.0937500
        k(   25) = (   0.7500000  -0.2500000   1.0000000), wk =   0.0937500
        k(   26) = (   0.6250000  -0.1250000   0.8750000), wk =   0.1875000
        k(   27) = (   0.5000000  -0.0000000   0.7500000), wk =   0.0937500
        k(   28) = (  -0.2500000  -1.0000000   0.0000000), wk =   0.0468750
        k(   29) = (  -0.5000000  -1.0000000   0.0000000), wk =   0.0234375

     Dense  grid:    19579 G-vectors     FFT dimensions: (  40,  40,  40)

     Estimated max dynamical RAM per process >     100.70 MB

     Estimated total dynamical RAM >       2.36 GB

     The potential is recalculated from file :
     out/mp-111.save/charge-density

     Starting wfcs are random

     Band Structure Calculation
     ParO style diagonalization

     ethr =  5.00E-06,  avg # of iterations =  5.0

     total cpu time spent up to now is      692.9 secs

     End of band structure calculation

          k = 0.0000 0.0000 0.0000 (  2421 PWs)   bands (ev):

   -31.2214  -7.6040  -7.6040  -7.6040   4.2618  24.9399  24.9399  24.9399
    26.4038  29.2742  29.2742  29.2742  32.4880  32.6593  32.6593  38.9664
    38.9664  38.9664  54.5115  66.7476  66.7476  66.7476  66.8353  66.8353
    66.8353  66.9977  66.9977  74.4631  74.4631  74.4631  82.8743  90.9993
    90.9993  92.1656  92.1656  92.1656  92.3382  92.3382  92.3382  92.6064
    92.6064  92.6064  92.7838  92.7838  92.7838  93.5458  93.9939  93.9939
    93.9939  94.0843  94.0843 100.1061 100.1061 100.1061 101.1512 101.6123
   101.6123 101.6123 101.9502 118.3338 118.3338 118.3338 133.9554 135.2496
   135.2496 139.4451 139.4451 139.4451 152.9863 159.5487 159.5487 159.5487
   159.7350 159.7350 159.7350 159.7629 159.7629 161.5387 161.5387 161.5387
   161.6400 161.6400 161.6768 161.6768 161.6768 161.8298 161.8298 161.8298
   161.9358 167.2642 167.2642 167.2642 169.1238 169.3269 169.4352 169.4352
   169.4352 169.4891 169.4891 169.4891 169.5361 169.5361 169.7600 169.7600
   169.7600 169.9940 169.9940 169.9940 170.1243 170.1243 170.1626 170.1626
   170.1626 192.6752 192.6752 192.6752 201.7235 203.5994 203.5994 203.5994
   203.6007 203.6007 203.6007 203.6198 203.6198 203.6198 203.7030 203.7030
   203.7894 203.7894 203.7894 203.7943 203.8339 203.8339 203.8646 203.8646
   203.8646 220.6451 220.6451 220.6451 226.9245 227.8752 227.8752 229.0192
   229.0192 229.0192 229.1919 229.1919 229.1919 229.3805 229.3805 229.3805
   229.3846 229.4216 229.4216 229.4216 229.4310 229.4310 229.4310 229.6296
   229.7463 229.7463 229.7463 230.8325 230.8325 230.9601 230.9601 230.9601
   231.1903 265.3810 265.3810 265.3810 271.5583 271.7041 271.7041 271.7041
   271.8045 271.8045 271.9091 271.9091 271.9091 286.5134 286.5134 286.5134
   296.0197 296.7570 296.8280 296.8280 296.8280 296.8543 296.8543 296.8723
   296.8723 296.8723 296.9390 296.9390 296.9390 296.9399 296.9399 296.9399
   296.9932 296.9932 297.0569 297.0569 297.0569 297.9375 297.9375 297.9375
   298.0470 298.0470 298.0504 298.0504 298.0504 298.1570 298.1570 298.1570
   298.1697 298.1767 298.4024 298.4024 298.4024 298.5592 298.5592 298.5592
   298.7363 298.7363 298.7363 298.7576 298.7576 304.9372 304.9372 304.9372
   306.2005 306.2005 306.2279 306.4251 306.4251 306.4251 306.5128 306.5128
   306.5128 306.5338 306.5338 306.5338 306.6008 306.6008 306.6032 306.6037
   306.6037 306.6120 306.6120 306.6120 306.7129 306.7129 306.7129 306.7588
   306.7588 306.7588 306.8458 338.2047 338.2047 338.2047 340.2902 340.4096
   340.4096 340.4096 340.4169 340.4169 340.4169 340.4820 340.5096 340.5096
   340.5630 340.5630 340.5630 340.5777 340.5777 340.5777 340.6203 340.6203
   340.6203 340.6830 340.6830 363.5210 363.5210 363.5210 365.8037 365.9105
   365.9105 365.9105 365.9430 365.9430 365.9430 365.9501 365.9501 365.9501
   366.0158 366.0158 366.0429 366.0429 366.0475 366.0703 366.0703 366.0703
   366.0760 366.0760 366.0760 374.2039 374.2039 374.2039 374.6744 374.6744
   374.6744 374.6875 374.6875 374.6875 374.8280 374.8280 374.8319 374.8319
   374.8319 374.8883 374.8883 374.8883 374.9207 374.9207 375.0059 375.0059
   375.0059 375.0875 375.1116 408.6091 408.6091 408.6091 408.9297 408.9297
   408.9297 409.0107 409.0384 431.2903 431.2903 431.2903 432.9966 432.9966
   433.0369 433.0369 433.0369 433.0423 433.1296 433.1296 433.1296 433.1353
   433.1353 433.1496 433.1496 433.1496 433.2478 434.3524 434.3524 434.3524
   434.5248 434.5248 434.5248 434.5297 434.5297 434.5297 434.7146 434.7146
   434.7146 435.0149 435.0149 435.0149 435.0482 435.0482 435.1841 435.1841
   435.1841 435.3802 435.3802 435.3802 435.4769 435.9915 435.9915 436.0302
   436.0302 436.0302 436.1075 442.7090 442.8994 442.8994 442.8994 442.9846
   442.9846 442.9846 443.0827 443.0827 443.0827 443.1132 443.1132 443.4828
   443.4828 443.4828 443.4856 443.4856 443.4856 443.5280 443.5280 443.6404
   443.6404 443.6404 443.8101 476.6338 476.6338 476.6338 476.9837 477.0214
   477.0491 477.0491 477.0491 477.0833 477.0833 477.0833 477.1144 477.1144
   477.1350 477.1350 477.1350 477.1421 477.1421 477.1421 477.1628 477.1628
   477.1663 477.1663 477.1663 477.1851 477.1851 477.1851 477.1924 477.1938
   477.1938 477.1938 477.2197 477.2197 477.2197 477.2355 477.2355 477.2355
   477.2766 477.2766 477.2775 477.2775 477.2775 477.2974 477.3490 477.3490
   477.3661 477.3661 477.3661 501.9877 501.9993 501.9993 501.9993 502.0774
   502.0774 502.0774 502.1165 502.1165 502.1165 502.1294 502.1294 502.2036
   502.2036 502.2036 502.2303 502.2303 502.2303 502.2884 502.3104 502.3104
   502.3268 502.3268 502.3268 502.8748 502.8748 502.8748 502.9076 502.9076
   502.9076 502.9566 502.9566 502.9566 502.9642 502.9642 502.9721 502.9904
   502.9904 502.9904 503.0082 503.0082 503.0082 503.0198 503.0198 503.0288
   503.0288 503.0288 503.0345 503.3282 503.5205 503.5205 503.5205 503.6636
   503.6636 503.6636 503.6772 503.6772 503.6772 503.6835 503.6835 503.7847
   503.7847 503.7847 503.8097 503.8097 503.8097 503.8260 503.8260 503.9115
   503.9115 503.9115 504.0097 545.5434 545.5434 545.5835 545.5835 545.5835
   545.6993 570.9794 570.9794 570.9794 571.0088 571.0088 571.0088 571.0477
   571.0477 571.0477 571.0733 571.0733 571.1076 571.1076 571.1301 571.1301
   571.1301 571.1756 571.1756 571.1756 571.1861 571.1861 571.1861 571.2179
   571.2389 579.6545 579.7421 579.7421 579.7421 579.7495 579.7495 579.7495
   579.8126 579.8126 579.8126 579.8263 579.8496 579.8496 579.8556 579.8556
   579.8556 579.8596 579.8596 579.8596 579.8882 579.8882 579.8882 579.9121
   579.9121 579.9121 579.9174 579.9174 579.9174 579.9355 579.9355 580.0033
   580.0033 580.0033 580.0053 580.0053 580.0053 580.0139 580.0139 580.0239
   580.0239 580.0393 580.0393 580.0393 580.0491 580.0491 580.0491 580.0701
   580.0888 613.6579 613.6579 613.6579 613.6848 613.6848 613.7508 613.7508
   613.7508 613.8360 613.8360 613.8360 613.8700 613.9191 613.9191 613.9191
   613.9313 613.9313 613.9313 614.0175 614.0175 614.0175 614.0482 614.0482
   614.0636 614.0636 614.0636 614.1381 614.1381 614.1381 614.1567 614.1567
   614.1711 614.2094 614.2094 614.2094 614.2697 638.6477 638.7370 638.7370
   638.7370 638.7495 638.7495 638.7495 638.7809 638.7809 638.7884 638.7884
   638.7884 638.7961 638.7961 638.7961 638.8343 638.8343 638.8705 638.8705
   638.8705 638.9221 638.9221 638.9221 638.9584 639.6842 639.6842 639.6842
   639.6893 639.6893 639.6893 639.7214 639.7325 639.8534 639.8534 639.8534
   639.8760 639.8760 639.9388 639.9388 639.9388 640.0413 640.0437 640.0437
   640.0437 640.0661 640.2745 640.2745 640.2745 640.4492 640.4492 640.4492
   640.5946 640.5946 640.5946 640.6407 640.6407 648.3695 648.3695 648.3695
   648.3903 648.3903 648.4040 648.4040 648.4040 648.4255 648.4255 648.4630
   648.4630 648.4630 648.4894 648.4894 648.4894 648.6261 648.6271 648.6271
   648.6271 648.6820 648.6820 648.6820 648.7384 682.0895 682.2249 682.2249
   682.2249 682.3310 682.3310 682.3310 682.3593 682.3593 682.4046 682.4046
   682.4046 682.4153 682.4153 682.4153 682.4887 682.4887 682.4887 682.5131
   682.5131 682.5875 682.5875 682.5875 682.6019 706.5331 706.5331 706.5614
   706.5614 706.5614 706.6244 707.7265 707.7270 707.7635 707.7635 707.7635
   707.7830 707.7830 707.7830 707.7872 707.7872 707.7872 707.8011 707.8011
   707.8048 707.8048 707.8048 707.8081 707.8081 707.8243 707.8243 707.8243
   707.8250 707.8250 707.8250 707.8419 707.8840 707.8840 707.8840 707.8875
   707.8875 707.8875 707.9009 707.9009 707.9009 707.9202 707.9202 707.9202
   707.9215 707.9215 707.9215 707.9240 707.9240 707.9240 707.9290 707.9290
   707.9290 707.9401 707.9421 707.9421 707.9688 707.9688 708.0345 708.0345
   708.0345 708.0462 708.0462 708.0462 708.1510 708.1510 708.1510 709.5141
   709.5141 709.5201 709.5201 709.5201 709.5355 716.4623 716.5118 716.5782
   716.5782 716.5782 716.6198 716.6198 716.6198 716.6256 716.6256 716.6256
   716.6491 716.6491 716.6491 716.6757 716.6757 716.6757 716.7252 716.7252
   716.7252 716.7400 716.7400 716.7800 716.7800 716.7839 716.7839 716.7992
   716.7992 716.7992 716.8312 716.8312 716.8334 716.8334 716.8334 716.8462
   716.8462 716.8462 716.8744 716.8744 716.8744 716.8827 716.8889 716.8889
   716.8889 716.9037 716.9037 716.9037 716.9052 750.7873 750.7873 750.7873
   750.7896 750.7896 750.7896 750.8095 750.8095 750.8107 750.8107 750.8152
   750.8152 750.8152 750.8190 750.8202 750.8202 750.8202 750.8465 750.8469
   750.8469 750.8469 750.8553 750.8553 750.8553 775.5188 775.6010 775.6010
   775.6010 775.6101 775.6101 775.6101 775.6361 775.6361 775.6361 775.6471
   775.6471 775.7308 775.7436 775.7436 775.7436 775.7718 775.7718 775.7745
   775.7745 775.7745 775.7851 775.7851 775.7851 776.8877 777.0223 777.0223
   777.0223 777.1027 777.1027 777.1323 777.1323 777.1323 777.1616 777.1616
   777.1616 777.1762 777.1762 777.1762 777.2167 777.2167 777.2167 777.3133
   777.3133 777.3133 777.3141 777.3160 777.3160 818.9517 818.9517 818.9517
   818.9594 818.9594 818.9594 818.9792 818.9792 818.9792 819.0165 819.0165
   819.0165 819.0179 819.0179 819.0293 819.0293 819.1324 819.1617 819.1617
   819.1617 819.1750 819.1750 819.1750 819.1836 843.3463 843.3463 843.3509
   843.3509 843.3509 843.3573 843.3573 843.3573 843.3730 843.3990 843.3990
   843.3990 844.6607 844.6690 844.6864 844.6864 844.6864 844.6959 844.6959
   844.6959 844.6965 844.6965 844.6965 844.7050 844.7050 844.7050 844.7161
   844.7161 844.7161 844.7421 844.7421 844.7543 844.7543 844.7570 844.7570
   844.7570 844.8510 844.8510 844.8510 844.8521 844.8521 844.8521 844.8943
   844.8943 844.8943 844.9200 844.9200 844.9200 844.9556 844.9556 844.9619
   844.9619 845.0878 845.0878 845.0878 845.0900 845.1134 845.1134 845.1134
   845.1598 845.3480 845.3480 845.3480 845.3535 845.3535 845.4493 845.4493
   845.4493 845.5854 845.5854 845.5854 845.6405 853.0631 853.1679 853.1679
   853.1679 853.2551 853.2551 853.2551 853.2641 853.2641 853.2842 853.2842
   853.2842 853.3143 853.3143 853.3143 853.3272 853.3450 853.3450 853.8202
   853.8202 853.8211 853.8211 853.8211 853.8795 853.8795 853.8795 853.9593
   853.9593 853.9593 853.9776 887.2617 887.2767 887.3264 887.3264 887.3264
   887.3332 887.3332 887.3536 887.3536 887.3536 887.3562 887.3562 887.3562
   887.3607 887.3607 887.3607 887.3802 887.3802 887.3841 887.3841 887.3841
   887.3916 887.3916 887.3916 887.4172 887.4529 887.4608 887.4608 887.4608
   887.4618 887.4618 887.4618 887.4643 887.4643 887.4643 887.4881 887.4881
   887.4881 887.4967 887.4967 887.4967 887.5101 887.5101 887.5101 887.5174
   887.5174 887.5174 887.5195 887.5327 887.5327 887.5327 887.5413 887.5413
   887.5415 887.5415 887.5415 887.5515 887.5515 887.5515 887.5574 887.5574
   887.5745 887.5776 887.5776 887.5776 887.5796 887.5796 887.6220 887.6220
   887.6220 887.6243 887.6243 912.2609 912.3155 912.3155 912.3155 912.3681
   912.3681 912.3681 912.3927 912.3927 912.3927 912.4086 912.4086 912.5160
   912.5160 912.5160 912.5340 912.5340 912.5388 912.5388 912.5388 912.5640
   912.5756 912.5756 912.5756 913.1411 913.1411 913.1411 913.1444 913.1444
   913.1784 913.1784 913.1784 913.1951 913.1951 913.1951 913.1989 913.1989
   913.1989 913.2056 913.2056 913.3005 913.3602 913.3602 913.3602 913.3911
   913.4162 913.4162 913.4162 913.6170 913.7579 913.7579 913.7579 913.8823
   913.8823 913.9229 913.9229 913.9229 913.9410 913.9410 913.9410 914.0137

          k =-0.1250 0.1250-0.1250 (  2433 PWs)   bands (ev):

   -31.1996  -7.7710  -7.6191  -7.6191   4.7693  21.3380  24.6996  24.6996
    27.0657  29.0469  29.0469  30.5038  32.8612  32.8612  35.0911  39.0350
    40.6794  40.6794  55.2286  59.5156  59.5156  64.6652  67.1396  67.3092
    67.3092  72.2874  72.2874  74.5622  77.0595  77.0595  82.8863  82.8863
    84.7471  86.0830  86.5677  86.7634  86.7634  89.0473  89.0473  89.1873
    91.3537  91.8312  91.8312  95.1095  97.4226  97.4226  97.8633  97.8633
    98.0887  99.3637  99.4111  99.4111 101.8746 103.8564 103.8564 105.4344
   105.4344 106.2039 112.5692 117.8031 117.8031 118.0703 130.0916 130.6667
   130.6667 142.6896 144.9279 144.9279 146.9813 146.9813 149.6552 151.4523
   151.4523 154.2283 155.6714 157.0204 157.1798 157.1798 157.7735 157.7735
   158.5831 158.7698 158.7698 160.6877 161.8197 161.8197 163.0426 163.2577
   163.2577 163.9568 165.9210 165.9210 166.1480 166.2997 166.2997 166.5247
   170.0197 170.0197 173.1470 173.1470 173.7506 174.2815 174.4572 174.4572
   174.9991 176.1256 176.1256 181.0480 181.9685 181.9685 182.6570 183.0966
   183.0966 184.5826 186.7533 186.7533 190.9995 190.9995 193.8879 195.4671
   195.6347 195.6347 200.3860 200.3860 203.6115 204.0638 204.0638 204.2408
   206.3460 209.6765 209.6765 211.0773 212.5572 212.7287 212.7287 212.9894
   214.0537 214.0537 217.7273 217.7273 218.0291 219.0341 219.2303 219.2303
   219.6029 221.0727 221.0727 222.5429 222.5429 223.2616 223.6397 223.6397
   223.8187 233.2525 233.2525 234.0603 236.1584 236.1584 236.3290 238.8157
   239.6798 239.6798 240.3914 240.5512 240.5512 244.5294 244.8631 244.8631
   248.3407 252.7674 254.3088 254.3088 266.8055 266.8055 271.7463 272.0937
   272.1765 272.2472 272.2472 277.6320 277.6320 278.6897 278.7299 278.7299
   281.5936 281.5936 282.3390 283.1764 283.3818 283.3818 285.1261 285.6680
   285.6680 287.1124 287.1124 288.0956 289.7993 289.7993 291.2683 291.4196
   291.5557 291.5557 293.1981 293.1981 293.4686 293.9984 293.9984 294.1930
   295.3313 295.3313 295.9340 296.0546 296.0851 296.0851 298.0396 298.0396
   299.5331 299.5815 299.7625 299.7625 302.8121 302.8958 302.8958 302.9340
   303.0458 303.0458 303.8527 303.8527 304.1916 304.3939 304.5126 304.5126
   309.7737 310.5677 310.5677 311.1594 311.3005 311.3005 311.4729 312.2579
   312.2579 312.8332 312.9517 312.9517 315.8983 317.1338 317.1338 317.4106
   317.5487 317.5487 319.0637 319.0637 319.2424 319.8227 319.8227 319.9982
   323.0771 323.4222 323.4222 323.7074 323.8877 323.8877 327.9154 328.3032
   328.3032 331.6262 331.6262 332.2099 332.3005 332.4295 332.4295 341.8644
   342.8890 342.8890 348.6403 348.6403 349.2442 349.3858 349.5152 349.5152
   353.5030 353.6693 353.6693 354.7611 354.7611 355.3117 355.6015 355.7124
   355.7124 357.4966 357.7478 357.7478 357.8895 358.0753 358.0753 362.2214
   362.2214 362.3079 362.4623 362.4623 362.4829 363.9835 363.9835 364.3612
   367.6465 367.6465 368.2034 371.2978 371.2978 371.3879 376.5620 376.5620
   376.7599 377.0368 377.1543 377.1543 379.3067 379.3067 379.5127 383.5371
   387.8746 387.8942 387.8942 387.9011 388.0278 388.0278 389.2884 389.8421
   389.8421 396.5742 396.5742 396.6807 400.6095 400.6095 400.8187 410.2629
   410.6885 410.6885 415.1474 415.1474 415.1827 415.4144 415.4144 415.5769
   417.7382 417.7382 417.9152 419.7653 419.7653 419.8865 419.9164 420.0260
   420.0260 421.9042 422.0728 422.0728 422.5733 422.5733 422.6072 424.4285
   424.4285 424.5470 431.5401 431.5401 432.0672 432.1618 432.1618 432.2061
   434.9159 436.5207 436.5696 436.5696 436.6522 436.6522 436.8453 439.6292
   439.7055 439.7055 439.7577 439.7577 439.8158 445.2164 445.2164 445.3335
   447.7652 447.8335 447.8335 447.8672 447.8672 448.0053 449.7852 449.7852
   449.7862 449.7993 449.9346 449.9346 451.6261 451.8606 451.8606 451.9011
   452.0307 452.0307 453.4412 453.5011 453.5011 454.3685 454.3685 454.4707
   458.1365 458.1365 458.2432 460.3553 460.3553 460.4142 460.4278 460.5559
   460.5559 464.6395 464.8152 464.8152 465.3410 465.3410 465.4509 468.9302
   468.9729 468.9729 469.0221 469.0221 469.1191 475.5610 475.6076 475.6076
   477.3515 477.3515 477.5044 477.5123 477.5558 477.5830 477.5830 477.5953
   477.5953 477.6180 477.6180 477.6817 479.5916 479.6346 479.6346 479.6907
   479.8081 479.8081 484.0634 484.2229 484.2229 484.2736 484.2736 484.3645
   486.0107 486.0923 486.0923 486.1106 486.1106 486.2031 488.3852 488.3852
   488.4766 492.4259 492.5228 492.5228 492.5323 492.5323 492.6262 494.5939
   494.5939 494.6252 494.6475 494.7574 494.7574 496.9237 496.9237 496.9367
   496.9745 497.0107 497.0107 497.0173 497.0778 497.0778 497.1248 497.1248
   497.1778 503.1561 503.1561 503.1682 503.1713 503.3015 503.3015 509.5709
   509.5709 509.5855 509.6392 509.6600 509.6600 509.7404 509.7693 509.7693
   509.8195 509.8197 509.8197 514.0099 514.1095 514.1095 514.2180 514.2180
   514.2798 518.3207 518.3207 518.3994 522.2848 522.4098 522.4098 522.5149
   522.5149 522.5785 526.8376 526.9570 526.9570 527.0330 527.0330 527.0781
   528.8654 528.8654 528.9435 531.1663 531.1663 531.1705 543.6323 543.6323
   543.7400 550.5085 550.5085 550.5773 556.4641 556.5506 556.5506 556.6087
   556.6087 556.6551 558.7661 558.8363 558.8363 558.9112 558.9112 558.9145
   563.0592 563.0592 563.1376 567.3497 567.3989 567.3989 567.4144 567.4340
   567.4340 567.4687 567.5321 567.5321 567.5706 567.5706 567.5952 569.4156
   569.4156 569.4554 573.2513 573.2513 573.3046 576.4893 576.4893 576.5047
   584.5851 584.5851 584.6154 586.3088 586.3917 586.3917 586.4443 586.4443
   586.4843 588.4675 588.4675 588.5781 588.7863 588.7863 588.9239 592.9910
   593.0449 593.0449 593.0623 593.0759 593.0759 593.1782 593.2540 593.2540
   593.3014 593.3014 593.3283 597.2341 597.3337 597.3337 597.4408 597.4408
   597.4894 599.2592 599.2592 599.4131 601.4973 601.5708 601.5708 601.6442
   601.6442 601.6548 605.9167 605.9167 605.9464 608.0497 610.2608 610.2608
   610.3112 611.8304 611.8304 611.9621 611.9655 612.1170 612.1170 614.0474
   614.1081 614.1081 614.1825 614.1825 614.2017 616.3784 616.3784 616.4358
   616.5433 616.7116 616.7116 619.0238 619.0238 619.2588 623.0077 623.0077
   623.0378 627.4427 627.4427 627.5302 629.4069 629.4069 629.4374 631.4181
   631.5184 631.5184 631.6259 631.6259 631.6748 633.3659 633.4118 633.4118
   633.4619 633.4619 633.4757 637.8047 637.8693 637.8693 638.0100 638.0100
   638.0168 639.7495 639.7495 639.8636 640.0640 640.0640 640.2037 641.4622
   641.5435 641.5435 641.6905 641.6905 641.7195 644.7952 644.8355 644.8355
   644.9390 644.9390 644.9429 646.3272 646.3752 646.3752 646.4535 646.4535
   646.4664 650.7723 650.7723 650.8038 653.0310 653.0965 653.0965 653.2404
   653.2404 653.2602 656.9829 657.1274 657.1274 657.2241 657.2241 657.3213
   663.1429 663.1429 663.2007 663.2819 663.3762 663.3762 667.6320 667.6320
   667.7638 667.7875 668.0145 668.0145 670.3502 670.3502 670.4515 672.1498
   674.1617 674.2151 674.2151 674.3345 674.3345 674.3455 676.1783 676.1783
   676.1801 676.2893 676.3024 676.3024 678.6815 678.6815 678.9025 684.6538
   684.6538 684.7368 687.0488 687.1508 687.1508 687.2771 687.2771 687.3289
   688.9482 688.9482 688.9536 688.9604 689.0178 689.0178 689.1457 689.2037
   689.2037 689.2285 689.2285 689.2343 691.2444 691.2985 691.2985 691.4170
   691.4170 691.4285 693.7209 693.7209 693.7467 695.6653 695.7756 695.7756
   695.9124 695.9124 695.9633 697.4528 697.4890 697.4890 697.5751 697.5751
   697.5759 704.2558 704.3328 704.3328 704.4501 704.4501 704.4807 706.1465
   706.1795 706.1795 706.1996 706.2087 706.2087 708.2645 708.4094 708.4094
   708.5048 708.5048 708.6020 709.9616 710.0097 710.0097 710.0508 710.0566
   710.0566 713.2398 713.2420 713.2420 713.2424 713.2601 713.2601 717.0263
   717.0263 717.0526 718.8869 718.9285 718.9285 719.0253 719.0253 719.0289
   721.3301 721.3533 721.3533 721.3632 721.3736 721.3736 723.1320 723.1320
   723.1645 727.4894 727.4957 727.4957 727.5149 727.5584 727.5584 727.6060
   727.6412 727.6412 727.6991 727.7042 727.7042 729.8218 729.8943 729.8943
   730.0018 730.0018 730.0275 732.1687 732.1687 732.2321 734.1128 734.1128
   734.1444 738.3321 738.4382 738.4382 738.5605 738.5605 738.6105 740.1972
   740.1972 740.2078 740.3000 740.3188 740.3188 742.6466 742.6714 742.6714
   742.6824 742.6925 742.6925 746.9486 747.0521 747.0521 747.1986 747.1986
   747.2479 748.8305 748.8882 748.8882 748.9860 748.9866 748.9866 753.3052
   753.4061 753.4061 753.5176 753.5176 753.5624 759.7334 759.7594 759.7594
   759.7713 759.7810 759.7810 761.6542 761.7072 761.7072 761.8059 761.8059
   761.8158 766.2326 766.2604 766.2604 766.2928 766.3004 766.3004 768.3055
   768.3055 768.3374 785.2016 785.2016 785.3763 785.3952 785.3952 785.4225
   787.3672 787.3845 787.3878 787.3878 787.4002 787.4002 791.7949 791.8493
   791.8493 791.9893 791.9893 792.0005 800.0728 800.1660 800.1660 800.2667
   800.2667 800.3144 802.2620 802.3084 802.3084 802.4119 802.4119 802.4186
   804.6262 804.7304 804.7304 804.7610 804.7610 804.7965 808.9098 808.9098
   808.9346 812.5349 812.5349 812.6223 813.1426 813.1426 813.2924 817.1639
   817.1639 817.2549 819.4180 819.4351 819.4351 819.4469 819.4469 819.4611
   823.6473 823.7718 823.7718 824.3652 824.3652 824.4580 825.9096 825.9759
   825.9759 826.0701 826.0701 826.0908 830.2500 830.2786 830.2786 830.2987
   830.3055 830.3055 832.3060 832.3060 832.3378 836.4489 836.4957 836.4957
   836.5978 836.5978 836.6047 838.8273 838.8441 838.8441 838.8555 838.8555
   838.8660 842.3828 842.3889 842.3889 842.4296 842.4476 842.4476 846.8607
   846.9100 846.9100 847.0371 847.0371 847.0443 849.9412 849.9665 849.9665
   850.0368 850.0368 850.0409 851.6227 851.6397 851.6397 851.6514 851.6514
   851.6634 853.5579 853.5765 853.5765 853.5799 853.5799 853.7305 853.7526
   853.7585 853.7585 858.0899 858.1246 858.1246 858.2165 858.2165 858.2219
   860.1687 860.1961 860.1961 860.2049 860.2170 860.2170 862.1696 862.1729
   862.1729 862.1847 862.2154 862.2455 862.2455 862.2679 862.2679 862.3049
   862.3049 862.3139 864.3659 864.4324 864.4324 864.5309 864.5309 864.5568
   870.7923 870.8180 870.8180 870.8244 870.8349 870.8349 872.3804 872.3804
   872.4180 875.0388 875.0388 875.0705 876.9753 876.9753 877.1113 877.2481
   877.2481 877.2576 877.2576 877.3898 877.4660 879.2475 879.2699 879.2699
   879.3456 879.3493 879.3493 881.2513 881.3867 881.3867 881.4994 881.4994
   881.5545 881.5545 881.5916 881.5948 883.4775 883.6033 883.6033 883.6808
   884.1987 884.1987 884.2922 885.8072 885.9233 885.9233 886.0107 886.0107
   886.0636 887.7350 887.7591 887.7650 887.7650 887.7739 887.7739 887.8524
   887.9053 887.9053 887.9356 887.9356 887.9600 890.1343 890.1343 890.1699
   892.2146 892.2146 892.2912 896.3283 896.3511 896.3511 896.4270 896.4306
   896.4306 900.6714 900.7262 900.7262 900.8526 900.8526 900.8635 902.7474
   902.7741 902.7741 902.8453 902.8482 902.8482 904.9827 905.0084 905.0084
   905.0151 905.0253 905.0253 907.1688 907.1879 907.1879 907.2497 907.2682
   907.2682 907.2800 907.3262 907.3262 907.4315 907.4315 907.4523 909.3004
   909.3178 909.3178 909.3343 909.3343 909.3456 913.4555 913.4555 913.4624
   913.4662 913.4939 913.5365 913.5365 913.5496 913.5496 913.5833 913.5833
   913.5931 919.8160 919.8315 919.8315 919.9359 919.9468 919.9468 919.9727
   919.9954 919.9954 920.1114 920.1282 920.1282 921.9217 921.9552 921.9552

          k =-0.2500 0.2500-0.2500 (  2439 PWs)   bands (ev):

   -31.1466  -8.1471  -7.6554  -7.6554   6.1660  17.3194  24.0881  24.0881
    25.7930  28.5679  28.5679  32.5775  34.2101  34.2101  38.0015  42.6373
    44.6033  44.6033  53.0238  53.0238  56.0866  61.2415  68.3074  68.4791
    68.4791  71.7089  71.7089  74.6869  75.1972  75.1972  78.0358  78.7993
    81.4022  81.5702  81.5702  84.3159  84.3159  87.1056  87.1056  89.6609
    91.4531  91.4531  92.9214  93.3371  96.9604  96.9604  99.9385 102.0680
   102.0680 106.9657 107.0214 107.0214 108.8641 111.1136 111.1136 111.9866
   114.6644 114.6644 116.0048 116.8921 116.8921 122.8798 125.8295 125.8295
   128.5655 133.8246 133.8246 137.9959 142.7881 142.7881 144.2395 145.4077
   145.7918 145.7918 147.1697 147.1697 149.6913 154.4655 154.4655 155.8584
   157.6753 157.8511 157.8511 160.9967 161.2865 161.2865 162.4525 162.5096
   162.6848 162.6848 165.9443 165.9443 167.0144 167.1502 167.1502 167.3963
   170.9591 170.9591 175.0629 175.8831 175.8831 179.7078 179.8884 179.8884
   180.5810 182.2710 182.2710 185.8288 185.8288 185.9387 188.1268 188.2934
   188.2934 188.9291 191.8429 191.8429 192.4110 195.5807 195.5807 196.4303
   196.6763 197.1499 197.1499 199.2013 199.2013 199.4587 202.5053 202.5053
   204.8590 205.2394 205.2394 205.4190 208.4747 208.5000 208.5000 209.5602
   209.7482 209.7482 216.3178 216.3178 217.7121 218.3590 218.3590 218.5236
   219.8247 221.0490 221.0490 222.3076 222.4816 222.4816 232.1509 237.4319
   237.4319 238.9860 239.4584 239.4584 241.6470 241.6470 243.1183 243.8099
   243.8099 243.9790 250.0283 250.8326 250.8326 252.2724 252.4404 252.4404
   255.7360 259.0387 259.0387 260.7142 260.7142 260.7271 260.9575 260.9575
   260.9655 265.5389 265.7214 265.7214 266.1774 266.1774 268.1534 269.3540
   269.3977 269.5407 269.5407 271.1576 271.1576 273.2594 273.2903 273.4139
   273.4139 280.7826 280.7826 281.5062 282.3507 282.3507 282.5302 284.8704
   284.8704 286.2569 286.3210 286.4529 286.4529 293.4119 293.4119 294.9781
   295.0730 295.1252 295.1252 297.5790 297.5790 299.0059 299.1047 299.1769
   299.1769 303.0871 303.1553 303.1553 303.8468 303.9486 303.9486 304.7554
   306.9576 306.9576 307.7453 307.7453 307.7735 307.8178 308.0005 308.0005
   310.9486 310.9486 311.6576 311.8277 311.9500 311.9500 316.4515 316.4515
   316.6868 316.8169 316.8418 316.8418 319.0793 320.6040 320.6040 324.0577
   324.0577 324.7886 324.9649 325.0914 325.0914 327.1419 328.1809 328.1809
   329.0512 329.1883 329.1883 332.8468 333.0906 333.0906 333.6138 333.6138
   333.6710 334.0224 334.0224 334.2159 336.6007 337.5411 337.5411 337.7771
   337.9066 337.9066 345.0021 345.0021 345.6521 346.0389 346.1431 346.1431
   350.3332 350.7744 350.7890 350.7890 350.8717 350.8717 350.9377 350.9377
   351.0886 358.5948 358.5948 358.8589 359.1326 359.2513 359.2627 359.2627
   363.0033 363.0033 363.4410 366.9817 366.9817 367.4894 372.1981 372.1981
   372.3671 375.6950 376.0514 376.0514 376.1833 376.3696 376.3696 384.6981
   384.6981 384.9552 387.8361 388.2899 388.2899 388.7639 388.7639 388.9151
   388.9393 389.0606 389.0606 393.2502 393.2502 393.4766 396.7678 396.9186
   396.9186 397.4026 397.4026 397.5269 401.7382 401.8483 401.8483 401.8795
   401.9662 401.9662 401.9887 402.0336 402.0336 402.5436 402.5436 402.5819
   405.9635 405.9635 406.1137 406.1330 406.2676 406.2676 413.9327 414.4531
   414.4531 414.7911 414.7911 414.9437 419.2448 419.2448 419.4479 427.0483
   427.3491 427.3491 427.4677 427.5278 427.5278 427.6092 427.6092 427.6804
   430.6770 430.6770 431.1572 431.2455 431.2455 431.2865 435.9417 436.0638
   436.0638 436.1000 436.1000 436.3168 440.4888 440.5059 440.5059 440.5606
   440.5606 440.6363 444.4221 444.4221 444.4689 444.5306 444.6568 444.6568
   448.9424 449.0482 449.0482 453.1904 453.2625 453.2625 453.2931 453.2931
   453.4287 457.2326 457.2326 457.2850 457.3437 457.4087 457.4087 457.4668
   457.5547 457.5547 461.5936 461.6151 461.6151 461.6849 461.6849 461.7539
   461.8148 465.9373 465.9373 465.9568 465.9820 466.0063 466.0904 466.0904
   466.1394 466.1394 466.1981 466.1981 466.2620 474.0983 474.1000 474.1000
   474.5956 474.5956 474.6855 474.6855 474.7037 474.7920 478.5325 478.5325
   478.6764 478.6851 478.7286 478.7583 478.7583 478.7688 478.7688 478.7938
   478.7938 478.8607 482.5729 482.5729 482.6648 483.0056 483.1059 483.1059
   483.1300 483.1300 483.2256 487.2069 487.3846 487.3846 488.0398 488.0398
   488.1885 491.7221 491.7221 491.7651 491.7915 491.7915 491.8307 491.8307
   491.8545 491.8545 491.8839 491.8839 491.9370 495.7566 495.8432 495.8432
   495.8670 495.8670 495.9477 512.8956 512.8956 512.9257 512.9556 512.9726
   512.9726 513.0465 513.0601 513.0601 516.9696 516.9696 517.0168 517.2451
   517.2530 517.2530 517.3015 517.3228 517.3228 517.3507 517.3897 517.3897
   517.4337 517.4337 517.4462 521.8839 521.8839 521.9768 525.8349 525.9348
   525.9348 526.0351 526.0351 526.0946 530.0001 530.0001 530.0073 530.0634
   530.1379 530.1379 534.4968 534.4968 534.5768 538.6023 538.6668 538.6668
   538.7411 538.7461 538.7461 542.7266 542.7700 542.8151 542.8151 542.8684
   542.8684 542.9070 542.9070 542.9200 543.0081 543.0081 543.0892 551.4914
   551.5984 551.5984 551.6969 551.6969 551.7409 555.7308 555.7756 555.7756
   555.7926 555.8134 555.8134 555.8336 555.8934 555.8934 555.9298 555.9298
   555.9546 560.1349 560.1349 560.1530 564.0202 564.0202 564.1249 564.3508
   564.3508 564.4858 568.5020 568.5020 568.5404 572.5413 572.5413 572.5887
   577.2015 577.4615 577.4615 577.4840 581.3443 581.3543 581.3543 581.4294
   581.4447 581.4447 581.5521 581.5521 581.6051 585.1347 585.1347 585.2611
   585.4530 585.6253 585.6253 590.0376 590.0376 590.0682 590.4474 590.4474
   590.6674 594.1087 594.1087 594.1734 594.1839 594.3235 594.3235 598.5751
   598.5751 598.6052 602.3864 602.4638 602.4638 602.4953 602.4953 602.5320
   607.0139 607.0688 607.0688 607.0884 607.0991 607.0991 607.2360 607.2360
   607.2819 607.3208 607.3664 607.3664 607.4291 607.4291 607.4596 615.2116
   615.2725 615.2725 615.3472 615.3472 615.3664 619.9267 619.9267 619.9572
   624.0634 624.1368 624.1368 624.2104 624.2104 624.2218 628.2524 628.2524
   628.2675 628.3177 628.3177 628.3721 628.3721 628.3787 628.4251 632.5414
   632.6849 632.6849 632.7543 632.7543 632.7868 632.7903 632.7903 632.8840
   636.8486 636.9116 636.9116 637.0482 637.0482 637.0562 640.8815 640.9616
   640.9616 641.1209 641.1209 641.1474 641.3575 641.3575 641.4024 645.3500
   645.3500 645.3500 645.4632 645.4750 645.4750 645.7052 645.7461 645.7461
   645.8469 645.8469 645.8535 649.7167 649.8163 649.8163 649.9233 649.9233
   649.9711 653.7618 653.8011 653.8011 653.8556 653.8556 653.8614 658.3225
   658.4242 658.4242 658.5438 658.5438 658.5620 658.5956 658.6369 658.6369
   658.7900 658.7900 658.8163 662.4733 662.4733 662.5545 662.6592 662.6592
   662.6897 666.5850 666.5850 666.6982 666.8265 666.8752 666.8752 666.9095
   666.9095 666.9980 666.9980 667.0038 667.0504 670.8184 670.8184 670.8326
   670.8384 670.8966 670.8966 671.1161 671.1753 671.1753 671.1985 671.1985
   671.2014 675.5859 675.7000 675.7000 675.8495 675.8495 675.9014 679.8441
   679.8441 679.8728 684.0436 684.0436 684.0703 687.7274 687.7274 687.7806
   687.8894 687.9194 687.9194 687.9933 687.9935 687.9935 688.0544 688.1667
   688.1667 692.7263 692.8092 692.8092 692.9393 692.9393 692.9702 693.0555
   693.0555 693.1469 696.6424 696.6424 696.6988 696.7961 696.9125 696.9125
   700.9887 701.0427 701.0427 701.1607 701.1607 701.1710 705.2319 705.2638
   705.2638 705.2786 705.2908 705.2908 705.4045 709.2611 709.3027 709.3027
   709.3351 709.3420 709.3420 709.7563 709.7563 709.9746 714.2102 714.2208
   714.2208 714.2221 714.2370 714.2370 718.2187 718.2187 718.2499 722.3141
   722.3807 722.3807 722.4649 722.4649 722.4709 726.7770 726.8025 726.8025
   726.8160 726.8249 726.8249 730.7874 730.8307 730.8307 730.9307 730.9307
   730.9354 730.9461 731.0461 731.0461 731.1538 731.1538 731.2008 735.1055
   735.2475 735.2475 735.3100 735.3368 735.3368 735.3406 735.3421 735.3421
   735.3593 735.3593 735.4470 739.4098 739.4098 739.4421 743.8235 743.8934
   743.8934 743.9966 743.9966 744.0229 747.9404 747.9506 747.9506 747.9539
   747.9657 748.0009 748.0009 748.0186 748.0186 748.0374 748.0838 748.0838
   748.1051 748.1051 748.1207 748.1412 748.1453 748.1453 752.2140 752.2140
   752.3880 756.6999 756.7147 756.7147 756.7436 756.7545 756.7545 756.7618
   756.7618 756.8235 760.8858 760.9916 760.9916 761.1101 761.1101 761.1601
   769.4819 769.5079 769.5079 769.5198 769.5296 769.5296 773.3523 773.3523
   773.3748 773.4473 773.4744 773.4744 773.7939 773.7939 773.8240 778.1479
   778.2543 778.2543 778.4193 778.4193 778.4686 781.8331 781.8331 781.9358
   782.2910 782.2910 782.4365 786.3681 786.4142 786.4142 786.5162 786.5162
   786.5233 786.6046 786.6046 786.6365 790.3236 790.3236 790.3938 794.9344
   795.0579 795.0579 795.7734 795.7734 795.8681 799.3082 799.3320 799.3320
   799.3331 799.3453 799.3453 807.8828 807.9000 807.9435 807.9435 807.9594
   807.9594 808.0460 808.0460 808.0688 808.0844 808.0844 808.0951 812.1385
   812.1385 812.1693 816.4918 816.5188 816.5188 816.5342 816.5425 816.5425
   820.5771 820.5908 820.5916 820.5916 820.6089 820.6089 820.6212 820.6212
   820.6349 820.7417 820.7778 820.7778 820.7842 820.7842 820.8113 824.8352
   824.9321 824.9321 825.0333 825.0333 825.0825 833.5483 833.6345 833.6345
   833.6492 833.6712 833.6712 833.6820 833.6842 833.6842 833.6895 833.6895
   833.7273 837.7227 837.7308 837.7308 837.7431 837.7776 837.7983 837.7983
   837.8296 837.8296 837.8673 837.8673 837.8753 841.4720 841.4749 841.4749
   841.5118 841.5313 841.5313 842.1481 842.1481 842.3594 846.2868 846.3505
   846.3505 846.4201 846.4863 846.4863 846.5054 850.4574 850.5998 850.5998
   850.6979 850.6979 850.7928 850.7962 850.8114 850.8114 850.8755 850.8763
   850.8763 854.7452 854.7914 854.7914 854.8884 854.8884 854.8909 854.8983
   854.9279 854.9279 854.9391 854.9418 854.9418 859.1799 859.2287 859.2443
   859.2443 859.2569 859.2569 859.2681 859.2891 859.2891 859.3891 859.3891
   859.4392 863.5085 863.5085 863.5161 863.5503 863.5503 863.5842 863.6425
   863.6425 863.6472 867.8203 867.8203 867.8544 871.9119 871.9338 871.9338
   872.0087 872.0130 872.0130 876.3327 876.3611 876.3611 876.3736 876.3842
   876.3842 880.5084 880.5629 880.5629 880.6898 880.6898 880.7007 884.7943
   884.8603 884.8603 884.9568 884.9568 884.9813 888.9067 888.9298 888.9375
   888.9375 888.9453 888.9453 888.9634 888.9634 889.0257 889.0796 889.0796
   889.1115 889.1115 889.1353 889.1405 893.3292 893.3589 893.3589 893.4405
   893.4407 893.4407 897.6052 897.6052 897.6332 897.6847 897.6988 897.6988
   897.7138 897.7138 897.7269 901.5074 901.5074 901.5578 901.9937 902.0129
   902.0129 902.0236 902.0418 902.0418 902.0972 902.1436 902.1436 902.1957
   902.1957 902.2174 906.0725 906.0949 906.0949 906.1700 906.1744 906.1744
   909.9612 909.9612 910.0751 910.0828 910.1539 910.1539 910.1776 910.1776
   910.2279 910.5059 910.5059 910.6508 914.5920 914.7179 914.7179 914.9424
   915.0041 915.0041 915.1570 915.1570 915.1887 915.4312 915.4312 915.5274
   919.0766 919.0766 919.1125 923.2790 923.3052 923.3052 923.3118 923.3219
   923.3219 927.4745 927.4924 927.4924 927.5812 927.5961 927.5961 927.6012
   927.6260 927.6260 927.7323 927.7411 927.7411 931.7077 931.8064 931.8064

          k =-0.3750 0.3750-0.3750 (  2434 PWs)   bands (ev):

   -31.0931  -8.4919  -7.6912  -7.6912   8.2149  13.8008  23.4714  23.4714
    25.1022  28.2586  28.2586  32.2797  36.7240  36.7240  41.5314  46.2327
    46.2327  49.7483  51.2022  51.2022  52.9325  62.3939  64.6605  64.6605
    67.5783  70.1942  70.3739  70.3739  71.1344  74.4178  74.4178  77.1156
    77.2696  77.2696  78.0291  83.2634  83.2634  89.1521  90.5862  90.5862
    91.2592  94.8999  94.8999  98.5953  98.5953  99.8567 102.4573 105.9876
   105.9876 110.9793 113.7481 113.7481 115.2446 115.3723 115.3992 115.3992
   118.1292 118.1292 118.7246 118.8520 118.8520 124.4190 124.8391 124.8391
   128.4953 128.7075 128.7075 134.1518 134.1518 134.5948 134.9962 135.4347
   135.4347 140.3080 140.3080 142.1159 149.7790 154.7108 156.1267 156.1267
   157.3558 157.5245 157.5245 160.3040 160.3040 160.5602 160.7569 160.7923
   160.7923 161.3108 163.7078 163.7078 168.3089 168.3089 169.2739 170.9705
   171.1294 171.1294 173.1735 177.1934 177.1934 178.3525 181.5845 181.7529
   181.7529 182.8263 184.2093 184.2093 185.9669 186.1439 186.1439 186.3447
   187.6041 187.6041 191.5801 194.3380 194.3380 198.4665 198.4665 199.4094
   200.8900 201.0735 201.0735 203.3374 204.2590 204.2590 206.9240 207.1440
   207.1440 207.3363 208.5512 208.5512 211.3116 211.3116 211.4933 212.1698
   212.4043 212.4043 213.1601 213.1601 213.6201 214.0294 214.0294 214.1791
   220.6824 223.1792 223.1792 230.4690 230.5923 230.5923 232.8604 233.0358
   233.0358 237.2704 241.6772 241.6772 243.4724 243.4724 243.5238 246.6947
   246.6947 246.7483 248.8734 248.8734 250.8846 252.2400 252.2400 252.4120
   254.6065 254.9708 254.9708 256.3809 256.5610 256.5610 257.3212 258.5116
   258.5116 263.1790 263.1790 263.9618 264.9556 265.1247 265.1247 268.8332
   268.8332 270.6806 271.5034 271.5034 271.6862 273.1156 273.1156 275.1117
   275.1279 275.2930 275.2930 277.4195 277.8419 277.8419 281.1564 281.1564
   281.9986 282.0719 282.1946 282.1946 289.7321 291.1811 291.1811 291.7170
   292.7239 292.9004 292.9004 293.9808 293.9808 294.8394 294.9278 294.9840
   294.9840 296.2132 296.2132 296.9235 297.0045 297.0786 297.0786 297.8576
   299.1416 299.1416 306.7607 306.7607 307.6906 307.8070 307.9259 307.9259
   313.6753 314.0400 314.0400 316.8412 316.8412 318.2622 318.4192 318.5485
   318.5485 319.3459 319.3459 319.4227 320.0274 320.1396 320.1396 323.1506
   323.1572 323.1572 323.3428 323.3428 323.4097 325.5625 326.5091 326.5091
   335.1516 335.7639 335.7639 336.6694 337.1563 337.2527 337.2527 340.1672
   340.3123 340.3123 340.3908 340.3908 340.4584 343.9705 344.8224 344.8224
   346.0318 346.1760 346.1760 348.0676 348.0676 348.1142 349.2277 349.2277
   349.4193 357.5811 358.7712 358.7712 358.9882 359.1110 359.1110 362.7386
   362.7386 363.3094 364.9398 364.9398 365.3853 366.4769 367.0773 367.0773
   369.3147 369.3147 369.6197 369.6797 369.8099 369.8099 373.8030 374.1777
   374.1777 376.0744 376.0744 376.3368 378.9522 379.2223 379.2223 380.1830
   380.1830 380.2947 382.3713 382.5285 382.5285 383.4608 383.4608 383.5151
   386.7098 386.7098 386.9518 390.9527 390.9527 391.2317 392.9461 392.9461
   393.0619 393.1796 393.3142 393.3142 395.0226 395.2364 395.2364 395.2775
   395.4709 395.4709 401.3423 401.3423 401.4219 401.6373 401.7597 401.7597
   403.3059 403.7521 403.7521 403.8388 403.9666 403.9666 406.0411 406.0411
   406.2180 416.6927 416.7779 416.7779 416.8459 416.8459 416.8709 423.1089
   423.2868 423.2868 429.0924 429.0924 429.3332 429.4263 429.5499 429.5499
   430.4090 430.4090 430.8430 430.9179 430.9179 430.9289 434.0507 434.1867
   434.1867 434.3115 434.3115 434.4417 435.7939 435.8615 435.8771 435.8771
   436.0608 436.0608 438.1040 438.1040 438.2156 439.3562 439.7518 439.7518
   442.8416 442.8416 443.1281 444.4417 444.4417 444.4447 444.5285 444.5285
   444.6219 448.7415 448.8952 448.8952 448.9051 448.9051 448.9840 455.0579
   455.0694 455.0694 455.1486 455.1486 455.2462 459.4427 459.5168 459.5168
   459.5450 459.5450 459.6734 461.6371 461.6371 461.7412 470.0189 470.0189
   470.1194 474.3525 474.4456 474.4456 474.4576 474.4576 474.5763 480.4212
   480.4212 480.5700 480.5808 480.6341 480.6629 480.6629 480.6711 480.6711
   480.6983 480.6983 480.7724 482.9178 482.9525 482.9525 482.9989 483.0555
   483.0555 487.4198 487.4198 487.4692 487.4776 487.4811 487.5206 487.5206
   487.5406 487.5406 487.5606 487.5606 487.6047 489.4471 490.9050 490.9910
   490.9910 494.1764 494.1764 494.3345 495.4191 495.4191 495.4672 495.8728
   495.8728 495.9908 497.8605 497.8605 497.9455 506.2976 506.3852 506.3852
   506.4209 506.4209 506.4929 507.7338 507.7338 507.8241 510.5742 510.7541
   510.7541 511.7033 511.7033 511.8955 519.2389 519.2961 519.2961 519.3649
   519.3812 519.3812 525.6718 525.6927 525.6927 525.7284 525.7511 525.7511
   525.7620 525.8090 525.8090 525.8479 525.8479 525.8682 529.7861 529.8746
   529.8746 529.9241 529.9241 529.9800 532.0122 532.0122 532.0319 532.0710
   532.1682 532.1682 538.4992 538.5992 538.5992 538.7005 538.7005 538.7564
   540.3663 540.3663 540.4595 540.7188 540.7188 540.8494 544.9130 544.9520
   544.9520 544.9721 544.9943 544.9943 545.0050 545.0613 545.0613 545.0976
   545.0976 545.1218 547.1528 551.4745 551.4745 551.5553 557.6406 557.6406
   557.6440 557.7340 557.7734 557.7734 559.0386 559.0386 559.1498 559.7005
   559.8784 559.8784 562.8927 562.8927 563.1231 564.0204 564.1609 564.1609
   564.2600 564.2600 564.3493 566.2595 566.3602 566.3602 566.4645 566.4645
   566.5157 568.3707 568.3707 568.4093 570.4504 570.4504 570.4921 572.6081
   572.6081 572.6495 572.6754 572.7925 572.7925 576.9846 577.0882 577.0882
   577.1953 577.1953 577.2439 581.4237 581.4237 581.4517 587.8417 587.8417
   587.9249 589.9083 589.9083 589.9330 592.0367 592.0367 592.0669 596.3070
   596.3070 596.3372 600.4459 600.4459 600.5245 608.9025 609.0459 609.0459
   609.1443 609.1443 609.2396 611.2496 611.2496 611.2809 615.3160 615.3164
   615.3164 615.4292 615.4430 615.4430 617.0809 617.1471 617.1471 617.2235
   617.2235 617.2451 619.1569 619.2099 619.2099 619.2219 619.2219 619.2402
   621.8372 621.8934 621.8934 621.9141 621.9223 621.9223 622.2982 622.3977
   622.3977 622.4970 622.4970 622.5337 624.0175 624.0611 624.0611 624.1196
   624.1196 624.1328 630.4034 630.5054 630.5054 630.6219 630.6219 630.6736
   636.7051 636.7672 636.7672 636.8999 636.8999 636.9050 638.7935 638.8655
   638.8655 639.0154 639.0154 639.0419 641.0132 641.0132 641.0930 643.3150
   643.3150 643.3451 647.4297 647.5033 647.5033 647.5776 647.5776 647.5889
   649.6678 649.7172 649.7172 649.8309 649.8309 649.8408 651.8626 651.8626
   651.8899 653.3582 653.3582 653.3728 653.4022 653.4510 653.4510 653.8889
   653.9470 653.9470 653.9711 653.9729 653.9729 656.4305 656.5515 656.5515
   656.7194 656.7194 656.7720 658.0485 658.0485 658.2154 660.2859 660.3398
   660.3398 660.4589 660.4589 660.4710 661.9481 661.9748 661.9748 662.0045
   662.0058 662.0058 665.0338 665.1204 665.1204 665.2911 665.2911 665.3230
   666.8499 666.8499 666.8798 668.8153 668.9156 668.9156 669.0225 669.0225
   669.0707 673.2604 673.2604 673.3002 675.3464 675.3464 675.3776 679.0130
   679.0328 679.0328 679.0737 679.0821 679.0821 682.1160 682.2103 682.2103
   682.3646 682.3646 682.4042 694.2153 694.2153 694.3281 694.5486 694.5486
   694.6899 696.5589 696.6294 696.6294 696.7081 696.7081 696.7171 703.1219
   703.1219 703.1539 705.1003 705.1328 705.1328 705.1549 705.1635 705.1635
   707.1782 707.2124 707.2124 707.2345 707.2428 707.2428 709.4259 709.5260
   709.5260 709.6332 709.6332 709.6810 711.5326 711.5866 711.5866 711.7038
   711.7038 711.7148 712.9176 712.9176 712.9667 713.5839 713.7007 713.7007
   716.7817 716.7817 716.8822 718.1612 718.1825 718.1825 718.1911 718.2012
   718.2012 720.0267 720.0267 720.1990 726.4250 726.4250 726.4557 726.5742
   726.6631 726.6631 728.7683 728.7942 728.7942 728.8069 728.8159 728.8159
   733.0517 733.0747 733.0747 733.0852 733.0958 733.0958 735.0203 735.0747
   735.0747 735.1892 735.1892 735.2002 739.4526 739.4796 739.4796 739.5125
   741.6434 741.6434 741.8602 743.4842 743.5288 743.5288 743.6313 743.6313
   743.6365 748.0046 748.0302 748.0302 748.0461 748.0553 748.0553 751.8487
   751.8487 751.9572 752.2420 752.2420 752.3855 756.4084 756.4084 756.4408
   758.6332 758.7025 758.7025 758.8045 758.8045 758.8296 762.7478 762.8930
   762.8930 762.9880 762.9880 763.0861 764.1882 764.1882 764.2458 767.0187
   767.1403 767.1403 768.1517 768.1517 768.2524 769.1880 769.1995 769.1995
   769.2145 769.2609 769.2609 769.2706 769.3197 769.3197 769.3627 769.3627
   769.3656 771.2755 771.3219 771.3219 771.4256 771.4256 771.4317 780.0306
   780.0567 780.0567 780.0703 780.0796 780.0796 782.2131 782.2131 782.2864
   784.2484 784.3549 784.3549 784.4691 784.4691 784.5194 788.3991 788.4032
   788.4032 788.5528 788.6014 788.6014 790.6651 790.7317 790.7317 790.8259
   790.8259 790.8494 792.7707 792.7707 792.8013 803.5354 803.5628 803.5628
   803.5777 803.5863 803.5863 805.7052 805.7052 805.7373 807.1791 807.1791
   807.2225 807.2613 807.3040 807.3040 807.8416 807.8416 808.0540 809.9639
   810.2683 810.3787 810.3787 810.5745 810.5745 810.6245 812.0146 812.0394
   812.0394 812.0425 812.0548 812.0548 814.0795 814.0885 814.0885 814.1017
   814.1413 814.1543 814.1543 814.1922 814.1922 814.2309 814.2309 814.2374
   820.4272 820.5716 820.5716 820.6695 820.6695 820.7677 822.4922 822.5097
   822.5097 822.5217 822.5217 822.5379 824.8377 824.8921 824.8921 825.0219
   825.0219 825.0326 829.3513 829.3677 829.3677 829.3788 829.3788 829.3879
   833.3911 833.4963 833.4963 833.6010 833.6010 833.6497 835.6075 835.6075
   835.6827 839.8044 839.8296 839.8296 839.8352 839.8459 839.8459 841.1379
   841.1379 841.1439 841.1564 841.1812 841.1812 844.3975 844.4673 844.4673
   844.6032 844.6032 844.6285 846.3132 846.3132 846.3463 850.3613 850.4591
   850.4591 850.5608 850.5608 850.6101 854.7599 854.7790 854.7790 854.8488
   854.8536 854.8536 856.9715 856.9715 856.9983 861.1473 861.2015 861.2015
   861.3290 861.3290 861.3397 863.3098 863.3968 863.3968 863.4521 863.4521
   863.4735 865.3761 865.3978 865.3978 865.4733 865.4765 865.4765 867.6378
   867.6540 867.6540 867.6645 867.6645 867.6756 869.7664 869.7999 869.7999
   869.8923 869.8923 869.8956 873.8372 873.8841 873.8841 873.9879 873.9879
   873.9946 875.5593 875.6004 875.6004 875.6363 875.6363 875.6587 878.6805
   878.7600 878.7600 878.9397 878.9397 878.9787 884.6760 884.7065 884.7065
   884.7898 884.7898 884.7911 886.8647 886.8823 886.8823 886.8980 886.8980
   886.9104 890.8024 890.8295 890.8365 890.8365 890.8474 890.8474 890.9306
   890.9879 890.9879 891.0211 891.0211 891.0488 893.3014 893.3294 893.3294
   893.3436 893.3538 893.3538 897.6928 897.7104 897.7104 897.7108 897.7249
   897.7249 897.7879 897.8317 897.8317 897.8682 897.8682 897.8874 903.7942
   903.8927 903.8927 903.9945 903.9945 904.0438 906.0260 906.0919 906.0919
   906.1875 906.1875 906.2116 914.4216 914.4678 914.4678 914.5672 914.5672
   914.5738 916.6154 916.6375 916.6375 916.7115 916.7156 916.7156 920.9701
   920.9701 921.0020 925.1500 925.1500 925.2605 925.3249 925.3444 925.3444
   925.4047 925.4047 925.4245 929.6426 929.6729 929.6729 929.6907 929.6998
   929.6998 931.3534 931.3534 931.4089 931.7543 931.7543 931.7805 935.9012
   935.9198 935.9198 935.9960 936.0133 936.0133 936.0278 936.0538 936.0538

          k = 0.5000-0.5000 0.5000 (  2452 PWs)   bands (ev):

   -31.0707  -8.6272  -7.7060  -7.7060  10.5537  10.9965  23.2218  23.2218
    24.9204  28.1673  28.1673  31.8735  38.8856  38.8856  43.4624  43.4624
    44.4031  49.8184  56.3751  56.3751  58.0307  58.2305  58.2305  58.2991
    65.5449  67.0557  71.9586  72.1641  72.1641  74.5195  74.5195  74.5511
    74.6757  74.6757  78.5373  82.5069  82.5069  88.9228  90.3205  90.3205
    90.4971  96.9350  96.9350 102.1219 107.2829 107.2829 107.4245 107.4245
   107.5201 107.6679 107.6679 107.8805 113.8121 113.8121 115.6149 119.8411
   123.0934 123.0934 124.4726 124.4862 124.4862 124.6925 124.7192 124.7192
   126.2269 126.3055 126.3055 126.3892 126.3892 126.5376 134.5575 136.7151
   136.7151 140.5577 141.8369 141.8369 143.1497 143.1497 154.7727 155.8793
   157.3703 157.5302 157.5302 158.9982 159.7784 159.9017 159.9017 160.0944
   160.0944 160.1629 167.0685 167.8302 167.8302 173.9327 175.7180 175.7796
   175.7796 175.8598 175.8598 175.9482 175.9482 175.9679 175.9679 176.0114
   176.0118 176.1297 176.1440 176.1440 187.8857 187.8857 188.4747 192.2691
   192.8878 193.0715 193.0715 193.1586 193.2396 193.2396 193.3014 193.3014
   199.3754 202.7590 202.7590 207.8828 208.9657 208.9657 209.1990 209.6338
   209.6338 209.6482 209.7527 209.7527 211.3448 211.3811 211.3811 211.3986
   211.3986 211.5064 216.9882 224.1765 224.1765 224.7176 225.6699 225.6699
   226.8288 226.8288 227.0785 227.1405 227.2484 227.2484 228.8153 228.8153
   228.9111 228.9111 229.0055 229.0312 239.4884 239.4884 241.6599 243.7889
   244.1912 244.2242 244.2242 244.2454 244.3899 244.3899 244.4288 244.4288
   256.7653 256.7653 259.5393 261.0562 261.4151 261.4151 261.4710 261.4710
   261.5604 261.5604 261.6522 261.6600 270.7545 270.7545 272.1167 276.6650
   276.8475 277.0453 277.0453 278.1365 278.1365 278.2043 278.3580 278.4653
   278.4653 278.5010 278.5010 278.5232 278.5432 278.5432 278.5468 278.6062
   278.6161 278.6161 278.6680 278.6680 279.5582 279.6481 279.6481 279.7032
   279.7032 279.7315 292.8691 292.8691 294.6356 295.4030 295.4498 295.4498
   295.4844 295.5531 295.5531 295.5823 295.6288 295.6880 295.6880 295.6944
   295.6944 295.7553 295.7553 295.9085 310.4694 310.4694 311.6885 312.5519
   312.6530 312.7405 312.7405 312.7521 312.8287 312.8801 312.8801 312.9144
   312.9144 312.9538 325.5072 325.5072 327.2992 328.3914 328.5993 328.5993
   328.6187 328.6256 328.6963 328.6963 328.7390 328.7390 330.8140 330.8271
   330.9474 330.9474 330.9898 330.9898 331.1489 331.1489 331.1615 331.1615
   331.1929 331.2717 344.2607 346.1997 346.1997 346.5270 346.5270 346.6289
   360.0024 360.6976 360.6976 362.3603 362.3740 362.3740 363.1645 363.1645
   363.7595 363.7986 363.8417 363.8467 363.8686 363.8686 363.9509 363.9509
   363.9651 363.9651 363.9833 363.9833 364.0026 364.0026 364.0084 364.0356
   365.6390 365.6390 365.6576 365.6576 365.7358 365.8586 378.7135 379.6344
   379.6344 380.9078 380.9136 380.9448 380.9448 380.9909 380.9997 380.9997
   381.0287 381.0481 381.0481 381.1001 381.1001 381.1512 381.1662 381.1663
   381.1663 381.1792 381.1792 381.1880 381.1880 381.2157 381.2157 381.2176
   381.2572 381.2572 381.2595 381.3025 397.7087 397.9361 397.9361 398.2794
   398.2794 398.3075 398.3387 398.3387 398.3392 398.3392 398.3773 398.3894
   414.1711 414.3579 414.3579 415.1151 415.1165 415.1625 415.1625 415.1821
   415.1971 415.2177 415.2272 415.2272 415.2386 415.2386 415.2481 415.2481
   415.2858 415.3010 415.3010 415.3733 415.3733 415.3936 415.3936 415.4117
   430.1090 430.1090 430.8469 430.8979 430.9174 430.9174 432.3100 432.3102
   432.4046 432.4154 432.4154 432.4575 432.4575 432.4740 432.4740 432.5570
   432.5570 432.6467 433.2807 433.4225 433.4225 433.6288 433.6288 433.6997
   449.1724 449.1724 449.1981 449.2925 449.2925 449.3445 449.3465 449.3465
   449.4787 449.5319 449.5319 449.5362 449.5362 449.5503 449.5734 449.5734
   449.6094 449.6922 464.8534 465.3066 465.3809 465.3809 465.3921 465.3921
   466.3888 466.4020 466.4020 466.5057 466.5057 466.6013 466.6809 466.6883
   466.6883 466.7686 466.7686 466.7776 467.6874 467.6874 467.6937 467.6937
   467.9688 467.9843 482.1458 482.1458 482.3627 482.3769 482.4691 482.4895
   482.4895 482.4917 482.4917 482.5345 482.5345 482.6344 483.4919 483.4919
   483.5935 483.6227 483.6227 483.6779 484.8430 484.8732 484.8732 484.8777
   484.8791 484.8875 484.8875 484.9190 484.9190 484.9228 484.9228 484.9382
   500.6210 500.6907 500.6907 500.7333 500.7345 500.7548 500.7548 500.7931
   500.7931 500.8351 500.8442 500.8442 517.4393 517.4393 517.4694 517.4694
   517.4910 517.5724 517.6218 517.6616 517.7267 517.7267 517.7315 517.7315
   517.7880 517.7880 517.8443 517.8443 517.8559 517.8859 517.8859 517.8869
   517.8891 517.9079 517.9079 517.9116 518.0261 518.0305 533.3028 533.3028
   533.3038 533.3038 533.3710 533.4256 534.7221 534.7535 534.8444 534.8542
   534.8542 534.8952 534.8952 534.9125 534.9125 534.9136 534.9158 534.9158
   534.9161 534.9662 534.9836 534.9836 534.9867 535.0039 535.0178 535.0178
   535.0267 535.0267 535.0526 535.0526 535.0887 535.0887 535.0907 535.0907
   535.0985 535.1063 536.5753 536.5753 536.5808 536.5808 536.7933 536.8126
   551.9005 551.9005 551.9058 551.9058 551.9320 551.9417 551.9590 551.9761
   551.9803 551.9860 552.0524 552.0524 552.0687 552.0687 552.0924 552.0924
   552.0980 552.0980 552.1662 552.1662 552.2070 552.2070 552.2327 552.2370
   569.0206 569.0206 569.0281 569.0281 569.0331 569.0952 569.2534 569.2534
   569.2580 569.2580 569.3305 569.3441 586.0252 586.0533 586.0655 586.0655
   586.0753 586.0753 586.0970 586.1108 586.1557 586.1824 586.1824 586.1991
   586.1991 586.2074 586.2160 586.2160 586.2274 586.2274 586.2772 586.2772
   586.3045 586.3045 586.3270 586.3356 586.3356 586.3470 586.3470 586.3493
   586.4083 586.4167 603.2892 603.2912 603.3632 603.3632 603.3683 603.3683
   603.3932 603.3932 603.3967 603.4044 603.4100 603.4100 603.5039 603.5039
   603.5067 603.5067 603.5457 603.5767 618.8114 618.8920 618.8920 618.9794
   618.9794 619.0056 620.3120 620.3120 620.3515 620.3515 620.3714 620.4459
   620.4852 620.4852 620.4868 620.4868 620.5147 620.5157 621.4939 621.5226
   621.5226 621.5715 621.5715 621.5786 636.2702 636.2702 636.2749 636.2749
   636.2780 636.3028 636.3061 636.3064 636.3326 636.3326 636.3717 636.3717
   637.2717 637.3252 637.3252 637.3646 637.3724 637.3724 637.3818 637.4578
   637.4796 637.4796 637.5096 637.5096 637.5249 637.5341 637.5535 637.5535
   637.5652 637.5734 637.5734 637.5829 637.5829 637.7271 637.7271 637.7964
   638.5349 638.5406 638.6505 638.6505 638.6646 638.6646 638.8114 638.8114
   638.8238 638.8238 638.8527 638.8796 654.4993 654.5462 654.5462 654.6151
   654.6151 654.6339 654.6529 654.6529 654.6558 654.6801 654.6801 654.6913
   654.7169 654.7408 654.7408 654.8264 654.8264 654.8415 670.5001 670.5001
   670.5031 670.5049 670.5086 670.5261 670.5261 670.5345 670.5345 670.5434
   670.5434 670.5436 671.5842 671.6075 671.6644 671.6644 671.6708 671.6708
   671.7338 671.7338 671.7497 671.7555 671.7555 671.7595 672.7369 672.7489
   672.8362 672.8362 672.8568 672.8568 673.0213 673.0213 673.0399 673.0399
   673.0532 673.0937 688.6364 688.6364 688.6374 688.6374 688.7165 688.7180
   688.8023 688.8035 688.8041 688.8041 688.8217 688.8217 688.8359 688.8359
   688.8385 688.8385 688.8499 688.8614 688.9215 688.9215 688.9334 688.9334
   688.9813 688.9949 705.7485 705.7611 705.7726 705.7726 705.7930 705.7934
   705.7934 705.7981 705.7981 705.8194 705.8328 705.8328 705.9725 705.9725
   705.9730 705.9730 706.0014 706.0094 722.6353 722.6353 722.6403 722.6403
   722.7356 722.7620 722.8019 722.8715 722.8715 722.9506 722.9555 722.9555
   722.9885 722.9885 722.9910 722.9968 722.9968 723.0307 723.0307 723.0362
   723.0523 723.0528 723.0679 723.0679 723.0778 723.0778 723.0783 723.0783
   723.0933 723.1054 723.1054 723.1145 723.1145 723.1219 723.1501 723.1685
   738.4685 738.4685 738.4705 738.4705 738.5001 738.5349 739.8949 739.9118
   740.0180 740.0180 740.0286 740.0286 740.1187 740.1260 740.1463 740.1463
   740.1466 740.1489 740.1489 740.1624 740.1624 740.1764 740.1802 740.1802
   741.7428 741.7428 741.7477 741.7477 741.8400 741.8623 756.9683 756.9851
   757.0056 757.0056 757.0129 757.0129 757.0130 757.0130 757.0274 757.0298
   757.0397 757.0397 757.1017 757.1247 757.1247 757.1317 757.1317 757.1334
   757.1764 757.1846 757.2261 757.2261 757.2424 757.2424 774.1301 774.1301
   774.1488 774.1759 774.1759 774.2418 774.2440 774.2504 774.2988 774.2998
   774.3191 774.3191 774.3230 774.3230 774.3434 774.3434 774.3452 774.3452
   774.4340 774.4340 774.4358 774.4505 774.4505 774.4740 774.5717 774.5762
   791.1641 791.1669 791.2078 791.2217 791.2246 791.2246 791.2337 791.2337
   791.2423 791.2587 791.2623 791.2623 791.2645 791.2645 791.2745 791.3254
   791.3254 791.3302 791.3302 791.3360 791.3455 791.3455 791.3506 791.3506
   791.3566 791.3566 791.3711 791.3864 791.3864 791.3927 791.4237 791.4255
   791.4255 791.4260 791.4304 791.4304 791.4342 791.4347 791.4606 791.4606
   791.4622 791.4622 791.4718 791.4718 791.4883 791.4883 791.5285 791.5596
   808.4147 808.4167 808.4288 808.4288 808.4458 808.4458 808.5081 808.5353
   808.5402 808.5402 808.5502 808.5502 808.6739 808.6739 808.6749 808.6749
   808.7295 808.7467 824.3101 824.3286 824.3286 824.3415 824.3415 824.3646
   825.4724 825.4938 825.4938 825.5119 825.5142 825.5142 825.5472 825.5657
   825.5760 825.5760 825.5820 825.5820 825.6093 825.6093 825.6116 825.6116
   825.6383 825.6430 826.7344 826.7488 826.7488 826.7588 826.7588 826.7609
   841.1326 841.1333 841.1333 841.1505 841.1640 841.1640 841.3809 841.3809
   841.3816 841.3816 841.4202 841.4211 841.4476 841.4495 841.4768 841.4768
   841.5011 841.5011 842.5871 842.5935 842.6383 842.6383 842.6482 842.6482
   842.7671 842.7671 842.7776 842.7783 842.7783 842.7862 843.6215 843.6444
   843.6444 843.7006 843.7006 843.7481 843.7481 843.7544 843.7544 843.8471
   843.8471 843.8776 843.9684 843.9684 843.9684 843.9684 844.0151 844.0186
   859.5134 859.5340 859.5340 859.5982 859.6075 859.6075 859.7969 859.8238
   859.8238 859.8932 859.8932 859.9001 876.6611 876.6849 876.7274 876.7332
   876.7332 876.7746 876.7746 876.7754 876.7754 876.7809 876.7809 876.7870
   876.8130 876.8372 876.8374 876.8374 876.8483 876.8570 876.8570 876.8600
   876.8600 876.8855 876.8855 876.8988 876.8988 876.9220 876.9244 876.9244
   876.9393 876.9432 876.9979 877.0004 877.0004 877.0581 877.0592 877.0592
   892.6038 892.6398 892.6495 892.6495 892.6638 892.6638 892.7565 892.8276
   892.8276 892.8659 892.8659 892.9035 893.7281 893.7307 893.7754 893.7754
   893.7757 893.7757 893.8740 893.8740 893.8766 893.8807 893.8807 893.8808
   893.8847 893.8873 893.9139 893.9139 893.9329 893.9329 893.9858 893.9872
   893.9872 893.9898 893.9920 893.9920 894.0333 894.0424 894.0424 894.0437
   894.0437 894.0627 895.0936 895.0948 895.1000 895.1000 895.1021 895.1021
   895.1646 895.1936 895.1936 895.2184 895.2184 895.2283 911.0697 911.0706
   911.0990 911.0990 911.0999 911.0999 911.1101 911.1199 911.1233 911.1233
   911.1260 911.1260 927.9387 927.9645 927.9645 927.9659 927.9890 927.9890
   928.0395 928.0464 928.0464 928.0611 928.0613 928.0658 928.0658 928.0697
   928.1234 928.1234 928.1334 928.1334 928.2205 928.2205 928.2235 928.2235
   928.2452 928.2485 945.0672 945.0910 945.0910 945.1222 945.1222 945.1338

          k = 0.0000 0.2500 0.0000 (  2437 PWs)   bands (ev):

   -31.1924  -7.7734  -7.6493  -7.6493   4.9333  21.8719  23.6540  23.6540
    25.2318  30.5388  31.5373  31.6762  31.6762  33.1894  34.8235  39.2167
    39.2167  42.5640  55.4996  58.8820  60.5264  60.5264  65.4597  67.3611
    70.9011  70.9011  73.2790  75.9282  77.6985  77.6985  81.0391  81.0391
    81.6592  84.3462  86.8111  88.0508  89.1807  89.2874  89.2874  89.3826
    92.7381  92.7381  93.4828  93.9970  94.1401  94.1401  96.8060  98.0520
    98.0520  98.1076  98.1881  98.8013 104.6375 104.6375 106.9741 109.2988
   109.2988 109.8633 111.0073 114.2345 119.1347 119.1347 125.5644 134.9569
   135.7822 138.9731 138.9731 147.2609 149.1743 149.1743 149.3092 149.5061
   149.5452 151.1470 151.1470 152.9704 153.4491 153.4935 153.4935 155.7612
   156.9638 159.2505 159.7287 159.7287 161.3686 161.5944 163.1451 163.1451
   165.4284 166.4194 168.2570 168.2570 169.9563 170.0131 170.2154 170.2154
   170.4931 170.8454 171.8052 171.8052 172.8782 174.9472 174.9954 174.9954
   175.1864 178.5735 178.5735 178.9498 179.1079 181.4048 185.5518 185.5518
   186.6513 187.1656 187.2886 187.2886 187.3740 191.5655 191.5655 193.9478
   195.6601 195.7026 195.7164 195.7513 195.7513 202.9425 206.9246 206.9246
   208.9051 208.9051 210.1071 210.5408 212.7319 212.7875 212.8033 212.8250
   212.8250 216.1021 216.3132 216.3132 217.3169 219.3620 220.0765 220.0765
   221.3412 222.4077 222.4077 224.3800 224.8362 226.1884 226.3279 226.3279
   226.5717 231.8502 231.8502 232.9687 233.5418 234.9071 235.0387 235.0387
   235.2320 240.7709 242.0105 242.0105 242.9433 246.1862 251.1690 251.1690
   252.8298 253.3169 253.8160 253.8160 255.1897 268.1154 268.1154 270.3163
   272.2570 272.4322 275.3449 275.3449 276.1378 277.4253 277.4416 277.4416
   277.6594 280.4977 281.0389 281.0389 283.1532 284.4813 285.7182 285.7721
   285.7721 285.9672 287.7565 288.0524 288.0524 289.3718 289.8563 289.9225
   289.9225 290.0549 290.1189 290.2048 290.2048 290.3370 291.7068 291.7068
   293.2736 293.5749 293.8755 293.8772 293.9174 293.9174 298.7080 298.7080
   298.7407 298.8831 300.8173 300.8173 302.0238 302.5147 302.5907 302.5945
   302.6305 302.6305 306.0307 306.0307 306.7301 306.8218 308.3889 309.4942
   309.4942 310.2915 311.5765 311.6867 311.6867 311.8752 313.3438 315.0901
   315.0901 315.4499 315.4744 315.4744 315.5242 315.6268 317.0877 318.3222
   318.3222 318.6947 319.9352 319.9806 319.9806 320.1349 323.9297 323.9297
   323.9509 324.2485 324.3125 324.4372 324.4372 324.5223 331.9172 331.9172
   332.1063 332.4413 332.5117 339.8618 339.8618 340.9499 340.9847 341.0262
   341.0262 341.1315 341.1533 343.8690 344.7027 344.7027 345.0389 349.1016
   349.1016 349.3809 349.5347 349.8090 349.8403 349.8403 349.9691 352.8900
   352.8900 353.3849 353.7406 353.7444 353.7825 353.7948 353.7948 365.8735
   366.1816 366.1816 366.6918 366.6995 366.7156 366.7156 366.7691 366.7938
   366.7938 366.8934 366.8956 378.2564 378.2564 378.6576 379.1923 379.1929
   379.2125 379.2486 379.2486 383.8601 383.8601 383.9770 384.0144 384.0685
   384.0685 384.1636 384.1971 387.4591 387.7862 387.7862 387.9841 392.1931
   392.1931 392.2370 392.4284 400.6839 400.8954 400.8954 401.0311 403.2210
   405.1454 405.1454 406.6482 411.4361 411.7426 411.7426 412.1208 414.2022
   414.3484 414.3484 414.5246 418.2591 418.3986 418.3986 418.4431 426.3037
   426.3037 426.4530 426.5764 426.6106 426.6423 426.6423 426.7181 429.3850
   429.3850 429.9617 430.0080 430.2554 430.2554 430.3881 430.3957 431.3514
   431.4712 431.4712 431.5970 438.2845 438.2845 438.6460 438.6603 438.7874
   438.7874 438.8594 438.8651 440.0565 440.1528 440.1528 440.2535 443.5094
   443.5113 443.5218 443.5218 444.1863 444.1863 444.3025 444.3230 451.7625
   451.9714 451.9714 452.0092 452.0627 452.0973 452.0973 452.1160 454.5618
   454.7152 454.7152 454.8585 456.9378 457.0912 457.0912 457.2607 460.5070
   460.5070 460.5181 460.5583 460.5894 460.5894 460.6267 460.6859 461.0349
   461.1264 461.1264 461.2347 463.3520 464.9789 464.9789 466.4736 468.9600
   468.9600 469.1315 469.1704 469.2003 469.2034 469.2228 469.2228 469.2728
   469.4090 469.4090 469.4440 472.6511 472.8250 472.8424 472.8424 474.1892
   474.3227 474.3227 474.4685 482.0847 482.0847 482.1041 482.1282 482.1345
   482.1863 482.1863 482.2182 486.1183 486.1183 486.2290 486.2634 486.2711
   486.2743 486.2927 486.2927 489.8422 489.8422 489.8962 489.9270 490.6895
   490.6895 490.7270 490.7374 491.2945 491.4063 491.4063 491.5182 494.7098
   494.7499 494.7788 494.7788 494.7915 494.7915 494.8715 494.8793 499.0550
   499.0563 499.0563 499.0583 499.1632 499.1632 499.2276 499.2601 503.2825
   503.3055 503.3055 503.3283 503.3375 503.3851 503.3851 503.3915 507.7624
   507.7637 507.7655 507.7655 507.8661 507.8661 507.8982 507.9270 511.9261
   515.5443 515.5443 515.5519 515.5967 516.3154 516.3154 516.3444 516.3520
   516.9493 517.0606 517.0606 517.1705 524.8618 524.8631 524.8631 524.8682
   524.8917 524.9169 524.9169 524.9546 532.6164 532.6373 532.6674 532.6674
   534.0041 534.1388 534.1388 534.2823 541.7345 541.7345 541.7772 541.8222
   546.0415 546.1130 546.1130 546.1583 546.1583 546.1747 546.1995 546.2218
   554.8001 554.8001 554.8555 554.8667 558.6244 558.6261 558.6467 558.6467
   558.6795 558.6795 558.7057 558.7293 563.5399 563.5415 563.5562 563.5562
   563.6097 563.6097 563.6129 563.6356 571.7747 571.8183 571.8183 571.8683
   580.2822 580.2940 580.2966 580.2966 580.3226 580.3590 580.3590 580.3937
   580.4133 580.4133 580.4456 580.4617 580.5475 584.4416 584.4433 584.4654
   584.4654 584.5464 584.5464 584.5619 584.5854 588.5591 588.6342 588.6342
   588.7057 588.8625 588.9096 588.9096 588.9590 597.5449 597.5469 597.5649
   597.5649 597.5716 597.5716 597.5836 597.5973 601.3815 601.3815 601.4212
   601.4429 605.9789 606.0136 606.0136 606.0275 606.0863 606.1034 606.1034
   606.1435 606.2779 606.2779 606.3515 606.3632 609.4243 609.4919 609.4919
   609.5505 610.7090 610.8651 610.8651 611.0192 614.2704 614.2711 614.2711
   614.2752 614.5294 614.5294 614.5609 614.5887 617.8286 617.8604 617.8604
   617.8896 618.8568 618.8568 618.8759 618.8786 619.0893 619.1694 619.1694
   619.2493 623.0711 623.1064 623.1064 623.1180 623.1808 623.1977 623.1977
   623.2365 623.3367 623.4120 623.4120 623.4273 623.5282 623.5812 623.5812
   623.6800 635.3939 635.3968 635.3968 635.3992 635.7755 635.7772 635.7803
   635.7803 639.8385 639.9166 639.9166 639.9911 640.7262 640.7370 640.7370
   640.7370 644.3446 644.3479 644.3499 644.3499 644.4860 644.4860 644.4878
   644.4896 648.6238 648.7176 648.7176 648.7626 648.7626 648.8081 648.8950
   648.9140 657.4720 657.4777 657.4777 657.4793 660.7399 660.7731 660.7731
   660.8020 661.5896 661.5896 661.6093 661.6114 662.0552 662.1486 662.1486
   662.2406 665.7938 665.8439 665.8439 665.8923 668.6381 669.0717 669.1419
   669.1419 669.2085 670.1005 670.1005 670.3042 670.4524 670.4524 670.5967
   671.5938 674.6230 674.7113 674.7171 674.7171 674.8042 674.8402 674.8402
   674.9601 678.3010 678.3013 678.3190 678.3190 678.3432 678.3432 678.3583
   678.3702 682.8602 682.8617 682.8617 682.8642 683.0100 683.0144 683.0144
   683.0193 683.1618 683.1877 683.1877 683.2148 683.2928 683.3047 683.3047
   683.3224 687.0062 687.0063 687.0311 687.0311 687.1184 687.1184 687.1324
   687.1531 695.6043 695.6097 695.6097 695.6097 695.6386 695.6394 695.6394
   695.6394 699.9921 700.0425 700.0425 700.0516 700.0879 700.0879 700.0912
   700.0985 700.1719 700.1873 700.1873 700.2264 703.4761 703.4928 703.4928
   703.5106 704.9047 704.9709 704.9709 705.0360 708.6111 708.6111 708.6121
   708.6150 708.7623 708.7673 708.7673 708.7680 712.1557 712.1668 712.1668
   712.1793 713.6017 713.6505 713.6505 713.6990 716.9894 717.1266 717.1266
   717.2581 721.0349 721.0367 721.0367 721.0377 721.0891 721.0896 721.0907
   721.0907 725.6901 725.6906 725.7054 725.7054 725.7132 725.7132 725.7253
   725.7358 725.8857 725.8888 725.8888 725.8901 726.0626 726.0726 726.0726
   726.0761 729.5561 729.5598 729.5867 729.5867 729.6397 729.6397 729.6622
   729.6754 734.2590 734.2598 734.2598 734.2609 734.4312 734.4693 734.4693
   734.4706 734.5856 734.5905 734.5905 734.6250 737.7379 737.7726 737.7726
   737.7729 738.3221 738.3258 738.3508 738.3508 738.3602 738.3602 738.3794
   738.4012 739.1103 739.2433 739.2433 739.3854 745.5581 747.0208 747.0208
   748.5108 751.3379 751.3696 751.3696 751.3926 751.4631 751.4695 751.4695
   751.4966 763.3896 763.4031 763.4031 763.4177 764.8261 764.8825 764.8825
   764.9383 768.4382 768.4428 768.4428 768.4444 772.5707 772.5732 772.5732
   772.5750 772.6657 772.6767 772.6767 772.6893 776.9738 776.9756 776.9922
   776.9922 776.9964 776.9964 777.0065 777.0202 781.2596 781.2596 781.2624
   781.2654 781.3326 781.3476 781.3476 781.3547 785.3708 785.3708 785.4101
   785.4123 789.0321 789.0461 789.0461 789.0613 790.4700 790.5261 790.5261
   790.5818 802.4259 802.4259 802.4263 802.4283 802.5392 802.5423 802.5423
   802.5449 806.8784 806.8784 806.9522 806.9838 811.0866 813.8400 813.8583
   813.8583 813.8756 814.6573 814.6918 814.6918 814.6926 815.4451 815.4451
   815.4661 815.4704 815.9699 816.0303 816.0715 816.0715 816.1627 816.1627
   816.1736 816.3047 820.0220 820.1169 820.1169 820.2022 824.0061 824.0063
   824.0067 824.0067 824.0220 824.0293 824.0294 824.0294 828.3235 828.3779
   828.3779 828.4298 832.5035 832.5035 832.5054 832.5064 832.5890 832.6025
   832.6025 832.6113 836.6135 836.6135 836.6140 836.6157 836.7275 836.7308
   836.7308 836.7326 840.6188 840.6196 840.6377 840.6377 845.2922 845.2922
   845.3234 845.3524 849.0949 849.0954 849.1167 849.1167 853.6699 853.6910
   853.7294 853.7294 853.7421 853.7421 853.7609 853.7609 853.7804 853.7865
   853.7874 853.7874 853.8100 853.8125 853.8125 853.8377 853.8550 853.8672
   853.8672 853.9179 854.5534 854.5635 854.5707 854.5707 858.1573 858.1573
   858.1589 858.1612 858.2440 858.2575 858.2575 858.2656 862.2596 862.2969
   862.2969 862.3064 862.3527 862.3685 862.3685 862.4107 866.7265 866.7270
   866.7272 866.7272 866.7440 866.7517 866.7521 866.7521 873.6727 873.6878
   873.6878 873.7007 874.4959 874.5589 874.5589 874.6092 875.2863 875.2863
   875.3055 875.3104 875.7977 875.8598 875.8997 875.8997 876.0029 876.0268
   876.0268 876.1930 879.3928 879.3994 879.4150 879.4150 879.4546 879.4546
   879.4645 879.4645 879.4647 879.4748 879.4898 879.5155 879.5284 879.5284
   879.5713 879.6826 879.8893 879.9487 879.9487 880.0045 883.7851 883.7851
   883.7882 883.7921 883.8133 883.8133 883.8613 883.8935 883.9312 883.9312
   883.9399 883.9668 887.9968 888.0107 888.0107 888.0403 888.0521 888.0826
   888.0826 888.0974 888.1227 888.2129 888.2129 888.2964 891.6194 891.6342
   891.6342 891.6495 893.0486 893.1082 893.1082 893.1670 896.4854 896.4922
   896.5101 896.5101 896.5302 896.5302 896.5414 896.5432 896.5464 896.5768
   896.5931 896.5931 896.6075 896.6345 896.6345 896.6349 896.6425 900.9718
   900.9734 900.9876 900.9876 909.3133 909.3133 909.3278 909.3290 909.4751
   909.4820 909.4932 909.4932 913.5484 913.5854 913.5854 913.5932 913.6411
   913.6548 913.6548 913.6891 913.6966 913.7030 913.7030 913.7366 913.7415
   913.7763 913.7763 913.7919 918.0134 918.0134 918.0297 918.0301 918.1498
   918.1536 918.1670 918.1670 922.0444 922.0850 922.1013 922.1013 922.2228
   922.2228 922.2265 922.2866 926.5841 926.5856 926.6003 926.6003 930.7384

          k =-0.1250 0.3750-0.1250 (  2435 PWs)   bands (ev):

   -31.1499  -8.0481  -7.6963  -7.6847   6.0188  18.7145  22.2509  22.9455
    25.0360  30.0278  31.6607  31.6723  34.3145  35.1288  37.8746  40.5570
    41.2254  46.4292  52.7544  55.2973  57.1507  60.7514  63.8979  65.6158
    70.8333  71.4913  73.0987  75.3636  76.6434  77.4782  78.7066  80.1587
    80.2941  82.2027  82.7908  83.6626  84.7107  86.6629  88.8968  90.7416
    91.1573  92.1019  93.7970  93.8609  94.4866  96.3073  96.6766  99.3605
   101.3071 102.5095 105.6346 108.0702 108.8324 109.5758 110.4955 111.5000
   114.9215 115.0195 116.1719 118.5296 119.9356 122.4925 124.4760 130.3043
   130.4274 135.4755 137.5020 140.3568 140.8624 141.6444 142.5831 144.1086
   145.7604 148.0359 148.6168 149.1948 149.8062 151.2443 151.2795 152.3807
   152.7043 155.0791 156.0276 157.9678 158.5192 161.0985 162.1876 164.5748
   166.0784 166.7355 167.5884 168.6954 169.3311 169.5434 170.9828 173.3280
   173.9122 175.3671 175.4718 175.4790 177.5787 177.6513 178.2050 178.6709
   179.5819 179.7276 182.3958 182.7850 184.1789 184.2283 186.4749 186.8626
   187.6410 188.7284 189.8319 190.7359 192.2297 192.6371 192.8552 193.2568
   195.0024 195.8107 197.6003 197.9545 198.8031 200.2746 200.9942 201.0140
   203.3893 204.3919 204.8332 205.2094 207.6523 209.7236 211.3003 211.5875
   212.8495 213.1120 215.3563 215.7257 220.2394 220.6331 220.8102 223.1699
   223.9122 224.3793 226.9439 227.9066 228.6312 230.0605 230.0783 230.8167
   231.9187 232.2039 235.8747 236.3347 236.9869 237.4107 238.5281 239.1609
   244.6096 244.9765 248.8389 249.0833 249.6131 250.2646 252.1334 254.0615
   255.3330 256.6423 258.1001 258.2409 261.4049 262.0859 262.6366 262.8906
   262.9403 264.9110 265.3331 267.2366 268.2700 268.7760 269.8050 269.8807
   270.1763 271.0105 271.2977 272.2679 273.1805 273.2583 275.1833 275.5721
   275.7654 277.7562 277.9853 278.7746 283.6097 283.6630 286.6076 287.1766
   288.3198 288.5484 288.8024 288.8789 289.5270 289.8042 290.0723 291.8807
   292.1780 293.4079 294.4868 294.5467 294.7927 295.4915 295.5074 297.4172
   297.6011 298.2246 299.2436 300.5535 301.2102 303.1073 304.6001 305.1186
   305.7203 307.0699 307.2313 307.7996 308.3867 308.9031 309.7553 309.8251
   309.8962 309.9142 312.9545 315.8149 315.9568 318.6907 319.6188 319.7245
   320.1753 320.6696 320.7577 321.4384 322.4218 322.7217 322.8966 323.1541
   324.5733 324.6396 325.7711 326.0112 326.6120 326.6738 329.0946 329.5605
   329.7957 330.3298 331.1000 331.2263 331.2616 332.8060 333.3767 333.7050
   334.5527 334.9046 334.9890 337.6276 338.1102 338.1672 338.2434 338.3174
   339.4485 339.7107 341.4178 341.4187 341.9755 342.0161 343.5401 343.8645
   345.2294 345.8784 346.1634 346.2383 346.4862 346.5296 348.8805 350.0964
   350.4646 352.1887 352.4805 354.7487 354.8873 358.7570 358.9386 364.7765
   365.3742 367.2697 367.4044 367.6710 368.5861 369.2101 371.7249 371.9438
   372.3294 372.4940 375.7707 376.1661 379.3513 379.7324 380.4432 380.4588
   383.0489 383.0906 384.1778 384.5409 384.7297 384.7758 386.2739 386.6560
   389.7983 390.1712 390.6999 390.8466 390.9989 391.1289 394.8870 394.8895
   395.6083 397.6182 397.7230 397.9887 398.1043 399.4194 399.4376 401.7286
   402.9341 403.4135 406.0652 406.1176 406.1681 406.5134 406.6854 407.6627
   410.9594 411.2511 412.1152 412.1805 412.3122 414.6435 414.6552 414.7087
   414.8923 416.7063 416.8403 417.1361 417.1736 418.8750 419.9956 423.0763
   423.2502 424.1145 425.1152 425.1583 427.2152 427.3631 428.8482 429.2291
   429.6969 429.7692 431.7315 431.7882 435.7086 435.7296 435.8788 435.9329
   435.9861 436.0584 439.5738 439.8274 442.1006 442.1732 442.6644 442.7059
   444.2611 444.3056 444.3927 444.4425 444.4955 444.5168 446.6915 446.7583
   448.9524 449.0412 450.4979 450.7495 450.8830 452.8593 452.9816 453.0985
   454.0062 454.1222 455.0716 455.1056 455.2543 455.3015 455.3652 455.4810
   457.4342 457.6506 459.6192 459.6890 459.8885 459.9222 461.3753 461.5212
   461.5497 461.5881 462.8273 463.6594 463.6962 463.8686 465.8160 466.8769
   467.8895 467.9443 468.0630 468.1243 468.2393 468.2435 469.9571 469.9967
   470.0574 470.1055 470.1160 470.1301 472.4407 472.5143 474.4866 474.5782
   475.8516 475.8864 476.3078 476.5076 476.6237 476.6654 476.7225 480.4562
   480.5040 480.8357 480.8705 483.4689 483.6123 485.2249 485.2749 485.3915
   487.0955 487.1005 487.1561 487.1834 487.2370 487.2484 489.3687 489.4317
   489.4563 489.4787 489.5033 489.5760 491.6446 491.7488 495.6455 495.7216
   495.7271 495.7502 495.7729 497.8346 497.8723 502.2837 502.3214 502.3644
   502.3742 502.4398 504.2573 504.2605 506.3978 506.4760 506.4793 506.5138
   506.6225 510.9517 511.0189 512.7761 512.7797 512.8164 512.8489 512.8530
   512.8818 514.8968 519.2500 519.3870 519.4054 519.4356 519.4407 519.4411
   521.3178 521.3507 521.3859 521.4449 523.6593 523.6901 525.7327 525.7401
   525.8712 527.7235 527.7873 529.9130 529.9301 529.9343 529.9794 531.5900
   531.5941 532.1856 532.2157 532.2639 532.3255 534.2838 534.2861 534.7739
   534.8859 536.3309 536.3691 540.5844 540.6061 540.6128 540.7605 540.8199
   540.8482 540.9469 542.8986 542.9581 544.7244 544.7580 545.0405 545.0602
   545.2147 551.3649 551.4110 551.5893 551.6083 553.3774 553.4888 553.5934
   553.6063 555.7131 557.9521 557.9827 559.3573 559.3959 559.8790 559.9727
   560.0078 562.5952 562.6068 563.8872 563.9564 564.1276 564.1768 564.1929
   564.3360 568.4596 568.4848 570.4445 570.5515 572.8077 574.3277 574.3443
[...]
   503.2981 503.3205 503.4722 503.4956 503.4971 503.4977 507.0031 507.0156
   507.7098 507.7310 508.3524 508.3555 516.3526 516.3554 516.3699 516.3992
   519.7509 519.9077 519.9162 519.9414 519.9452 521.2549 524.7945 524.8224
   524.9595 524.9714 524.9738 524.9837 528.7561 528.7725 528.8040 528.8051
   532.9453 532.9655 533.3667 533.3730 533.3768 533.3845 534.3704 534.3748
   537.2847 537.2923 537.3082 537.3117 537.6636 537.6707 541.9339 541.9477
   541.9559 541.9610 542.1984 542.1999 542.2343 542.2386 545.3302 545.3338
   546.0208 546.0390 546.0423 546.0513 546.0958 546.0969 546.1001 546.1154
   550.2259 550.2289 551.1090 551.1105 553.9251 553.9414 554.0183 554.0277
   554.7591 554.7704 554.7722 554.7752 555.4327 555.4403 555.4452 555.5456
   558.1816 558.1964 559.0319 559.0356 559.0414 559.0424 559.0682 559.0949
   559.1225 559.1744 559.6768 559.6768 562.9702 562.9710 562.9734 562.9765
   566.8637 566.8705 567.9039 567.9067 567.9069 567.9110 568.3554 568.3555
   571.4741 571.4751 571.5179 571.5240 571.8830 571.8839 576.3973 576.4053
   576.4158 576.4165 579.6496 579.6533 580.0489 580.0534 580.0540 580.0554
   580.2403 580.2419 580.2831 580.2925 581.1350 581.1351 584.6719 584.6810
   584.6993 584.6994 584.9571 584.9634 584.9646 584.9646 588.1488 588.9067
   588.9222 589.6292 592.5512 592.5604 594.0216 594.0249 595.9082 595.9097
   596.7421 596.7431 597.3326 597.3330 597.3347 597.3377 598.1219 598.1232
   598.2235 598.2239 601.6118 601.6304 601.6495 601.6550 602.1658 602.1710
   605.8612 605.8612 605.9131 605.9136 610.3863 610.3901 610.3973 610.3989
   610.4351 610.4412 618.1115 618.1124 618.7298 618.7308 618.7308 618.7330
   618.9379 618.9471 618.9550 618.9567 619.5916 619.5919 622.3805 622.3900
   623.0794 623.0902 623.0975 623.1032 623.1266 623.1716 623.1749 623.2407
   623.8101 623.9185 627.3288 627.3295 627.3429 627.3441 631.6891 631.6955
   631.7156 631.7158 635.8166 635.8184 635.8620 635.8703 636.0102 636.0137
   636.0230 636.0244 640.2587 640.2654 640.2678 640.2679 643.7588 643.7601
   644.3455 644.3554 644.3581 644.3657 644.3717 644.3856 644.4157 644.4211
   645.2385 645.2389 647.1930 647.1951 648.7985 648.7996 648.8114 648.8119
   649.4056 649.4067 653.4460 653.4482 656.6054 656.6133 657.2793 657.2930
   658.0801 658.0840 660.7986 661.4374 661.4557 661.4754 661.4784 661.7164
   661.7220 662.2764 665.8826 665.8958 665.9049 665.9096 665.9243 665.9281
   665.9325 665.9384 673.6851 673.6868 674.2477 674.2478 674.2494 674.2515
   674.4321 674.4371 674.4390 674.4395 675.1630 675.1630 682.9813 682.9867
   683.0059 683.0071 687.1005 687.1006 687.1503 687.1521 687.3020 687.3025
   687.3184 687.3185 691.4226 691.4251 691.4866 691.5257 691.5312 691.5962
   695.0262 695.0354 695.6398 695.6420 695.6559 695.6585 695.6925 695.6989
   696.4573 696.5658 699.2006 699.2009 704.0757 704.0805 704.3360 704.3361
   704.9524 704.9535 707.8890 707.8901 708.2377 708.2393 708.2397 708.2411
   709.3631 709.3634 712.8777 712.8832 712.8862 712.8862 713.1460 713.1474
   713.1621 713.1628 717.1167 717.1171 717.1940 717.2020 717.2120 717.2139
   724.9637 724.9712 725.0711 725.0749 725.0811 725.0826 725.5025 725.5233
   725.5411 725.5414 725.6335 725.6362 725.6794 725.6804 725.7347 725.7418
   726.4432 726.4465 729.8695 729.8698 729.8969 729.9024 729.9337 729.9406
   730.1080 730.1089 730.1131 730.1139 734.0845 734.0849 734.1333 734.1344
   734.2042 734.2042 737.7194 738.4928 738.4959 738.4987 738.5009 738.5474
   738.5541 738.5786 738.5913 738.5970 738.6050 738.6097 738.6129 739.2017
   742.4245 742.4248 742.4342 742.4350 746.3992 746.4008 747.3354 747.3355
   747.3385 747.3429 747.8669 747.8677 750.9467 750.9489 751.2161 751.2175
   751.2240 751.2244 751.3323 751.3325 751.3829 751.3837 755.5655 755.5706
   755.6089 755.6152 755.6175 755.6229 759.7042 759.7067 759.7495 759.7563
   759.8988 759.9014 759.9015 759.9077 763.4472 763.4518 764.1245 764.1426
   764.1670 764.1677 764.1712 764.1722 764.1880 764.2387 764.7614 764.7629
   768.0972 768.1006 768.1035 768.1072 768.4156 768.4159 768.4672 768.4682
   771.9477 771.9566 772.7801 772.7877 772.7968 772.7981 773.0360 773.0389
   773.0410 773.0419 773.3781 773.4859 776.8071 776.8074 776.8188 776.8193
   781.2112 781.2118 785.1607 785.1615 785.1780 785.1802 785.2149 785.2162
   785.2180 785.2187 789.3697 789.3719 789.7772 789.7784 789.8209 789.8235
   789.8738 789.8769 789.8770 789.8778 790.0898 790.0922 790.0958 790.0962
   790.7853 790.7862 793.6906 793.7047 793.7168 793.7214 794.0827 794.0876
   797.6001 797.6081 798.5990 798.6095 798.6380 798.6390 799.0798 799.0833
   802.4591 802.4600 802.4617 802.4628 802.6154 802.6214 802.6236 802.6242
   806.5827 806.5831 806.8448 806.8581 811.1296 811.1299 815.3019 815.3024
   815.3147 815.3149 815.4194 815.4204 815.4587 815.4602 815.5305 815.5347
   815.5385 815.5431 818.9147 820.3936 823.8555 823.8572 823.8587 823.8594
   827.4363 827.4402 827.8802 827.8825 827.9310 827.9360 828.2202 828.2220
   828.2236 828.2248 828.8136 828.8150 832.4596 832.4600 832.4618 832.4620
   832.8057 832.8166 832.8237 832.8259 835.8071 835.8074 836.8376 836.8388
   836.8389 836.8426 837.1181 837.1185 841.0409 841.0778 841.0830 841.1299
   841.1407 841.1421 841.1430 841.1586 841.3832 841.3859 841.5018 841.5022
   845.3149 845.3188 845.3359 845.3378 845.3659 845.3664 845.4039 845.4087
   845.4298 845.4323 849.4936 849.4952 849.4966 849.4972 853.1422 853.1502
   853.8960 853.9003 853.9011 853.9042 853.9287 853.9291 853.9303 853.9341
   854.5748 854.6810 858.0398 858.0404 858.0514 858.0519 861.6465 861.6475
   862.0789 862.0803 862.0864 862.0877 863.1253 863.1261 865.8825 865.8833
   866.4114 866.4117 866.6990 866.7034 866.9700 866.9811 867.0155 867.0313
   867.3598 867.3601 871.0287 871.0289 871.0324 871.0326 874.4997 874.5066
   874.5732 874.5736 875.9945 875.9967 876.0386 876.0402 879.3729 879.3750
   879.3757 879.3760 879.5292 879.5330 879.5407 879.5437 879.5876 879.5910
   879.6238 879.6256 883.7906 883.7907 887.2660 887.2668 887.3380 887.3386
   888.0390 888.0514 888.1085 888.1099 888.1102 888.1141 888.6429 888.6429
   888.8183 888.8188 892.4359 892.4361 892.4378 892.4379 895.6348 895.6379
   896.2749 896.2789 896.2807 896.2817 896.9445 896.9455 901.1685 901.1720
   901.2036 901.2109 901.2134 901.2203 901.3289 901.3292 904.3708 904.4253
   904.4390 905.0156 905.0164 905.0255 905.0259 905.8626 905.9067 905.9070
   909.4536 909.4598 909.4626 909.4628 913.3626 913.3644 913.3645 913.3654
   917.9954 917.9956 917.9994 918.0013 918.0724 918.0731 918.1172 918.1186
   918.2790 918.2794 918.2808 918.2808 922.2338 922.2725 922.2773 922.3417
   925.7914 925.7920 926.5363 926.5365 927.2711 927.2712 930.4358 930.4362
   930.6462 930.6495 930.6617 930.6640 930.7718 930.7727 930.7849 930.7850
   935.0061 935.0068 935.0203 935.0204 938.6109 938.6184 940.0408 940.1469

          k =-0.5000-1.0000 0.0000 (  2400 PWs)   bands (ev):

   -31.0228  -8.2178  -8.2178  -7.9455  12.8573  14.0022  14.0022  18.3372
    28.6014  28.6014  32.7100  33.5796  42.5630  44.4214  44.8237  44.8237
    45.4617  49.3363  49.3363  52.1073  60.8106  60.8106  61.0645  61.3274
    61.4647  61.5669  62.2047  62.2047  67.0213  67.0213  70.9467  75.5380
    78.0559  81.5320  81.5320  87.0218  95.0505  95.0505  95.3801  95.5046
    95.7725  96.0324  96.0745  96.0745  99.1936  99.1936 102.4355 106.5902
   110.2992 111.1094 112.6920 112.6920 112.8974 112.8974 113.0169 113.0339
   118.9448 119.0895 119.0895 125.8706 128.6800 128.8377 128.8377 128.8391
   128.8962 128.9072 128.9072 129.0373 135.8778 137.3568 137.3568 142.5286
   145.3671 145.3671 145.4719 145.4762 146.5942 146.6384 146.6662 146.6662
   146.7630 146.8786 146.8786 147.0599 154.6180 154.6180 156.1471 159.7770
   162.2207 162.2207 162.2403 162.3199 163.8462 163.9183 164.1027 164.1027
   164.7762 164.8566 164.8566 164.9370 170.0333 177.0175 177.0175 178.6334
   179.7461 179.7508 180.9764 180.9764 188.7129 188.7129 193.1832 195.8143
   197.8894 197.8894 197.9806 197.9874 202.9845 202.9845 203.4885 210.8962
   212.8924 212.9329 212.9370 212.9370 213.5048 213.5048 213.5203 213.5664
   214.1319 214.1319 214.1528 214.5152 215.2390 215.3367 215.3585 215.3585
   215.5199 215.5199 215.5418 215.5918 216.0562 216.0915 216.1950 216.1950
   226.9790 226.9790 230.1963 230.8975 231.3743 231.3949 231.3949 231.5073
   231.6449 231.7197 231.7197 231.7231 239.6834 242.1764 242.1764 245.6273
   247.6629 247.6629 248.3802 248.5436 248.7068 248.7068 248.7973 248.8168
   249.2669 249.2669 249.2953 249.3289 249.8633 249.8892 249.8892 249.9122
   260.3041 260.4685 260.4685 264.0064 264.5141 264.5584 264.5804 264.5804
   264.7124 264.9359 265.6549 265.6549 265.7074 265.7653 266.4481 266.4481
   266.8977 266.9116 266.9322 266.9322 266.9882 266.9974 266.9974 267.0045
   279.4292 281.8228 281.8228 282.5390 282.7066 282.7083 282.7613 282.7613
   295.5825 297.2290 297.2290 299.0777 299.3858 299.3858 299.7552 299.7765
   299.8026 299.8041 299.8283 299.8283 300.6852 300.6911 300.7858 300.7858
   311.4518 311.4518 311.8724 314.4788 315.5037 315.5037 316.1028 316.2827
   316.7926 316.9161 316.9161 316.9515 317.0345 317.1414 317.1414 317.1807
   317.5820 317.6477 317.6477 317.6775 317.6970 317.7457 317.7457 317.8697
   318.2256 318.2733 318.2784 318.2784 332.2279 332.2279 332.9687 333.3354
   333.6955 334.1705 334.1705 334.1722 334.8940 334.8940 334.9037 334.9098
   347.6095 347.6095 349.5602 349.6607 350.3534 350.8472 350.8472 351.0616
   351.0930 351.0930 351.0963 351.1315 352.3014 352.3014 352.3079 352.3303
   365.0416 366.2568 366.2568 367.4641 367.6267 367.6770 367.9313 367.9769
   367.9769 368.0995 368.1089 368.1112 368.1112 368.1377 368.1456 368.1697
   368.1921 368.1921 368.3288 368.3288 368.4044 368.4079 369.0116 369.0116
   369.0949 369.1234 369.1234 369.1363 384.0648 384.0648 384.1799 385.0531
   385.1674 385.1674 385.2921 385.2980 385.3404 385.4427 385.4427 385.4587
   385.4803 385.4980 385.4980 385.5003 385.5498 385.5640 385.5640 385.5808
   399.9321 400.2163 400.2163 401.2320 401.2872 401.2875 401.3109 401.3109
   401.3451 401.6944 401.6944 401.7076 401.7683 401.7863 401.7863 401.7910
   403.0421 403.0462 403.0989 403.0989 403.2551 403.2681 403.2953 403.2953
   403.6713 403.6988 403.6998 403.6998 403.7170 403.7188 403.7382 403.7382
   417.4661 417.4661 417.5945 418.0070 418.6460 418.6460 418.6461 418.6926
   419.3537 419.3537 419.4440 419.5893 420.4186 420.4620 420.4648 420.4648
   421.2400 421.2434 421.2434 421.2503 436.1593 436.1593 436.2759 436.5346
   436.5512 436.5753 436.5753 436.5990 436.6232 436.6351 436.6351 436.6588
   436.7033 436.7116 436.7116 436.7239 453.4010 453.4010 453.6634 453.6984
   453.7150 453.7609 453.7609 453.8027 453.8222 453.8551 453.8551 453.8577
   453.8673 453.8673 453.8713 453.8878 469.1571 469.5225 469.5225 469.6289
   469.6346 469.6400 469.6400 469.6447 470.4879 470.4879 470.4943 470.5684
   470.7335 470.7335 470.7982 470.8710 470.8729 470.8974 470.8974 470.9356
   470.9517 470.9517 470.9597 470.9880 472.0117 472.0235 472.0256 472.0350
   472.0949 472.0949 472.1201 472.1201 487.0377 487.1335 487.1335 487.1683
   487.1702 487.2279 487.7669 487.7669 487.7804 487.8420 487.8436 487.8436
   487.8540 487.8612 488.5589 488.5689 488.5689 488.5904 488.6725 488.6725
   503.3263 503.4557 503.4557 503.4950 504.1180 504.1312 504.1312 504.1555
   505.0970 505.0970 505.1081 505.1156 505.1286 505.1286 505.1438 505.1689
   505.9041 505.9318 505.9318 505.9349 506.7096 506.7103 506.7144 506.7144
   520.5839 520.5839 520.6227 520.6252 521.3356 521.4260 521.4308 521.4308
   522.1293 522.1375 522.1420 522.1420 522.1461 522.1764 522.1803 522.1803
   522.2136 522.2136 522.2222 522.2275 522.8547 522.8556 522.9603 522.9603
   523.2533 523.2533 523.2562 523.2656 539.0496 539.0496 539.0538 539.0656
   539.3263 539.3263 539.3335 539.3353 555.0880 555.0880 555.1041 555.1079
   555.1098 555.1280 555.1280 555.1426 555.5251 555.5374 555.5374 555.5757
   556.2506 556.2615 556.2615 556.2866 556.3003 556.3578 556.3578 556.3607
   556.4605 556.4605 556.4694 556.4769 556.9384 557.0229 557.0229 557.1030
   557.5178 557.5338 557.5399 557.5399 557.5442 557.5479 557.5479 557.5638
   571.0821 571.0880 571.0880 571.0918 572.2064 572.2064 572.2143 572.2204
   572.2391 572.2444 572.2469 572.2469 572.6993 572.7109 572.7109 572.7318
   573.2780 573.2908 573.3040 573.3042 573.3120 573.3120 573.3383 573.3383
   574.0779 574.0828 574.0828 574.0889 574.1573 574.1892 574.1892 574.2244
   574.5597 574.6060 574.6060 574.6304 574.6463 574.6659 574.6659 574.6751
   574.7045 574.7158 574.7158 574.7296 590.5559 590.5563 590.5704 590.5779
   590.5790 590.5790 590.6154 590.6352 590.6352 590.6434 590.6666 590.6666
   606.8880 606.8905 606.8905 606.8948 607.4356 607.4518 607.4518 607.4715
   607.4768 607.4860 607.4877 607.4877 607.4942 607.5105 607.5105 607.5287
   607.5376 607.5488 607.5619 607.5619 607.6787 607.6797 607.6818 607.6833
   607.6946 607.6946 607.7022 607.7022 608.3631 608.3802 608.3802 608.3951
   623.9244 623.9262 624.0372 624.0372 624.0442 624.0447 624.5265 624.5554
   624.5554 624.5723 624.6097 624.6147 624.6169 624.6169 624.6563 624.6563
   624.6658 624.6797 624.7495 624.7495 624.7560 624.7579 624.7832 624.7924
   624.8002 624.8026 624.8026 624.8060 624.8089 624.8089 625.4207 625.4207
   625.5182 625.5188 625.5251 625.5251 641.8207 641.8275 641.8275 641.8275
   641.8546 641.8600 641.8600 641.8696 641.9046 641.9125 641.9125 641.9158
   641.9200 641.9226 641.9280 641.9280 658.1356 658.1631 658.1738 658.1738
   658.1913 658.1913 658.2002 658.2123 658.7593 658.7715 658.7715 658.7775
   658.7810 658.7950 658.7950 658.8033 659.5845 659.5890 659.6656 659.6656
   659.6691 659.6899 659.7067 659.7067 673.6543 673.6604 673.6604 673.6656
   676.0383 676.0545 676.0545 676.0682 676.0703 676.0735 676.0735 676.0790
   676.6448 676.6468 676.6468 676.6517 677.2442 677.2520 677.2523 677.2523
   692.9134 692.9201 692.9309 692.9344 692.9618 692.9618 692.9654 692.9654
   692.9666 693.0129 693.0129 693.0298 693.0593 693.0678 693.0753 693.0753
   693.1197 693.1197 693.1297 693.1413 693.1446 693.1570 693.1570 693.1691
   693.2044 693.2153 693.2153 693.2222 710.0353 710.0452 710.0452 710.0491
   710.0868 710.0911 710.0935 710.0935 710.1674 710.1786 710.1786 710.1979
   710.2587 710.2628 710.2641 710.2749 710.2863 710.2863 710.2886 710.2886
   725.7553 725.7553 725.7607 725.7610 726.0384 726.0384 726.0386 726.0447
   726.0506 726.0540 726.0540 726.0606 726.5947 726.5989 726.5989 726.6015
   727.1355 727.1390 727.1405 727.1405 727.1632 727.1699 727.1784 727.2011
   727.2011 727.2076 727.2076 727.2303 727.2330 727.2791 727.2835 727.2835
   727.2980 727.3133 727.3206 727.3206 727.3385 727.3523 727.3819 727.3819
   728.0548 728.0711 728.0711 728.0834 728.3818 728.3824 728.3824 728.4012
   728.4470 728.4698 728.4719 728.4719 728.4788 728.4809 728.4809 728.4853
   744.1707 744.1707 744.1776 744.1935 744.3124 744.3156 744.3355 744.3355
   744.3579 744.3636 744.3636 744.4027 744.4111 744.4361 744.4361 744.4403
   744.4637 744.4637 744.4643 744.4651 744.4781 744.4846 744.4846 744.4866
   744.5005 744.5005 744.5038 744.5105 760.7462 760.7477 760.7550 760.7550
   761.4222 761.4222 761.4242 761.4245 761.5820 761.5881 761.5894 761.5894
   762.2264 762.2276 762.2312 762.2312 777.3442 777.3442 777.3463 777.3482
   777.3606 777.3606 777.3607 777.3732 777.7813 777.7824 778.2489 778.2539
   778.2539 778.2568 778.5439 778.5463 778.5463 778.5546 778.5642 778.5760
   778.5802 778.5836 778.5836 778.5964 778.5964 778.6068 778.6140 778.6185
   778.6185 778.6306 779.2622 779.2622 779.7530 779.7530 779.7544 779.7662
   779.7767 779.7781 779.7829 779.7829 794.9000 794.9017 794.9047 794.9047
   795.5194 795.5242 795.5242 795.5274 795.5294 795.5391 795.5391 795.5508
   795.6389 795.6389 795.6389 795.6411 796.2582 796.2631 796.2631 796.2678
   811.1875 811.1904 811.1904 811.1946 811.8067 811.8269 811.8269 811.8470
   812.0104 812.0106 812.0184 812.0184 812.6143 812.6143 812.6160 812.6199
   812.6295 812.6409 812.6409 812.6439 812.7982 812.8005 812.8205 812.8205
   812.8231 812.8231 812.8338 812.8365 813.4399 813.4408 813.5472 813.5472
   813.6094 813.6206 813.6206 813.6300 814.4053 814.4066 814.4066 814.4073
   828.6052 828.6061 828.6064 828.6064 828.6146 828.6158 828.6165 828.6165
   829.7304 829.7356 829.7356 829.7637 829.8172 829.8172 829.8243 829.8322
   829.8337 829.8411 829.8507 829.8568 829.8568 829.8722 829.8831 829.8831
   829.8916 829.8916 829.9116 829.9161 829.9339 829.9340 829.9340 829.9341
   829.9529 829.9587 829.9587 829.9753 830.9908 830.9984 831.0111 831.0113
   831.0544 831.0544 831.0611 831.0611 846.9048 846.9057 846.9140 846.9140
   846.9780 846.9842 846.9892 846.9892 846.9972 846.9972 846.9990 847.0033
   862.7924 862.7942 862.7942 862.7969 862.8152 862.8244 862.8244 862.8298
   863.2301 863.2399 863.2399 863.2514 863.8883 863.8944 863.8944 863.8951
   863.9159 863.9207 863.9207 863.9247 864.0187 864.0214 864.0214 864.0252
   864.6771 864.7213 864.7213 864.7652 865.2117 865.2168 865.2179 865.2179
   865.2190 865.2207 865.2345 865.2345 880.3906 880.3992 880.3992 880.4110
   880.9604 880.9685 880.9701 880.9701 880.9768 880.9769 880.9786 880.9786
   881.0895 881.0955 881.1017 881.1145 881.1261 881.1261 881.1423 881.1423
   881.1510 881.1510 881.1568 881.1625 881.1721 881.1740 881.1993 881.1993
   881.2138 881.2259 881.2285 881.2387 881.2387 881.2420 881.2478 881.2478
   881.8661 881.8882 881.8882 881.9067 897.9024 897.9024 897.9033 897.9042
   898.2161 898.2161 898.2163 898.2361 898.2389 898.2412 898.2412 898.2496
   898.2750 898.2944 898.2944 898.3076 898.3220 898.3324 898.3324 898.3441
   914.5215 914.5328 914.5343 914.5343 914.5803 914.5834 914.5834 914.5850
   914.5961 914.6004 914.6004 914.6058 915.3400 915.3434 915.3494 915.3494
   915.3529 915.3529 915.3541 915.3567 915.9000 915.9162 915.9162 915.9262
   916.0365 916.0567 916.0567 916.0582 916.0636 916.0636 916.0648 916.0791
   930.8423 930.8463 930.8463 930.8495 931.1586 931.1640 931.1640 931.1646
   931.1825 931.1826 931.1826 931.1849 931.4754 931.4850 931.4850 931.4951
   932.3330 932.3330 932.3343 932.3412 932.3963 932.4107 932.4107 932.4164

     the Fermi energy is    -0.7689 ev
     (compare with:    -2.6122 eV, computed in scf)

     Writing all to output data dir out/mp-111.save/
 
     init_run     :      0.02s CPU      0.15s WALL (       1 calls)
     electrons    :    651.26s CPU    692.58s WALL (       1 calls)

     Called by init_run:
     wfcinit      :      0.00s CPU      0.00s WALL (       1 calls)
     potinit      :      0.01s CPU      0.13s WALL (       1 calls)
     hinit0       :      0.00s CPU      0.01s WALL (       1 calls)

     Called by electrons:
     c_bands      :    651.24s CPU    692.52s WALL (       1 calls)
     v_of_rho     :      0.01s CPU      0.01s WALL (       1 calls)

     Called by c_bands:
     init_us_2    :      0.00s CPU      0.00s WALL (      15 calls)
     init_us_2:cp :      0.00s CPU      0.00s WALL (      15 calls)
     paro_k       :    616.59s CPU    655.15s WALL (      15 calls)

     Called by paro_*:
     h_psi        :     13.50s CPU     14.29s WALL (    1259 calls)
     g_psi        :      0.27s CPU      0.31s WALL (  125900 calls)

     Called by h_psi:
     h_psi:calbec :      0.20s CPU      0.21s WALL (    1259 calls)
     vloc_psi     :     13.09s CPU     13.85s WALL (    1259 calls)
     add_vuspsi   :      0.09s CPU      0.10s WALL (    1259 calls)

     General routines
     calbec       :      0.20s CPU      0.21s WALL (    1259 calls)
     fft          :      0.00s CPU      0.00s WALL (      10 calls)
     fftw         :     11.70s CPU     12.38s WALL (  212862 calls)
 
     Parallel routines
 
     PWSCF        :  10m52.33s CPU  11m34.25s WALL

 
   This run was terminated on:  13:11:48  14Nov2023            

=------------------------------------------------------------------------------=
   JOB DONE.
=------------------------------------------------------------------------------=
