
     Program PWSCF v.7.1 starts on 18Nov2023 at 18:40:26 

     This program is part of the open-source Quantum ESPRESSO suite
     for quantum simulation of materials; please cite
         "P. Giannozzi et al., J. Phys.:Condens. Matter 21 395502 (2009);
         "P. Giannozzi et al., J. Phys.:Condens. Matter 29 465901 (2017);
         "P. Giannozzi et al., J. Chem. Phys. 152 154105 (2020);
          URL http://www.quantum-espresso.org", 
     in publications or presentations arising from this work. More details at
     http://www.quantum-espresso.org/quote

     Parallel version (MPI), running on    24 processors

     MPI processes distributed on     1 nodes
     123349 MiB available memory on the printing compute node when the environment starts
 
     Reading input from pw_mp-611517_scf_k3000_E69.in
Warning: card &CELL ignored
Warning: card / ignored

     Current dimensions of program PWSCF are:
     Max number of different atomic species (ntypx) = 10
     Max number of k-points (npk) =  40000
     Max angular momentum in pseudopotentials (lmaxx) =  4
 
     R & G space division:  proc/nbgrp/npool/nimage =      24
     Subspace diagonalization in iterative solution of the eigenvalue problem:
     a serial algorithm will be used

 
     Parallelization info
     --------------------
     sticks:   dense  smooth     PW     G-vecs:    dense   smooth      PW
     Min          59      59     17                 1489     1489     235
     Max          60      60     18                 1494     1494     238
     Sum        1417    1417    421                35749    35749    5673
 
     Using Slab Decomposition
 


     bravais-lattice index     =            2
     lattice parameter (alat)  =      12.2699  a.u.
     unit-cell volume          =     461.8062 (a.u.)^3
     number of atoms/cell      =            1
     number of atomic types    =            1
     number of electrons       =        18.00
     number of Kohn-Sham states=           18
     kinetic-energy cutoff     =      69.0000  Ry
     charge density cutoff     =     276.0000  Ry
     scf convergence threshold =      1.0E-10
     mixing beta               =       0.7000
     number of iterations used =            8  plain     mixing
     Exchange-correlation= PBE
                           (   1   4   3   4   0   0   0)

     celldm(1)=  12.269869  celldm(2)=   0.000000  celldm(3)=   0.000000
     celldm(4)=   0.000000  celldm(5)=   0.000000  celldm(6)=   0.000000

     crystal axes: (cart. coord. in units of alat)
               a(1) = (  -0.500000   0.000000   0.500000 )  
               a(2) = (   0.000000   0.500000   0.500000 )  
               a(3) = (  -0.500000   0.500000   0.000000 )  

     reciprocal axes: (cart. coord. in units 2 pi/alat)
               b(1) = ( -1.000000 -1.000000  1.000000 )  
               b(2) = (  1.000000  1.000000  1.000000 )  
               b(3) = ( -1.000000  1.000000 -1.000000 )  


     PseudoPot. # 1 for Xe read from file:
     /usr/scratch4/magr4985/MG/HTDF/pseudo/SG15/Xe.upf
     MD5 check sum: cc9f462402d923a4ee0779e880a8f0fc
     Pseudo is Norm-conserving, Zval = 18.0
     Generated using ONCVPSP code by D. R. Hamann
     Using radial grid of  602 points,  6 beta functions with: 
                l(1) =   0
                l(2) =   0
                l(3) =   1
                l(4) =   1
                l(5) =   2
                l(6) =   2

     atomic species   valence    mass     pseudopotential
        Xe            18.00   131.29300     Xe( 1.00)

     48 Sym. Ops., with inversion, found



   Cartesian axes

     site n.     atom                  positions (alat units)
         1           Xe  tau(   1) = (   0.0000000   0.0000000   0.0000000  )

     number of k points=   104  Gaussian smearing, width (Ry)=  0.0005

     Number of k-points >= 100: set verbosity='high' to print them.

     Dense  grid:    35749 G-vectors     FFT dimensions: (  45,  45,  45)

     Estimated max dynamical RAM per process >       2.60 MB

     Estimated total dynamical RAM >      62.45 MB

     Initial potential from superposition of free atoms

     starting charge      17.9847, renormalised to      18.0000
     Starting wfcs are random

     total cpu time spent up to now is        1.5 secs

     Self-consistent Calculation

     iteration #  1     ecut=    69.00 Ry     beta= 0.70
     Davidson diagonalization with overlap
     ethr =  1.00E-02,  avg # of iterations =  8.7

     Threshold (ethr) on eigenvalues was too large:
     Diagonalizing with lowered threshold

     Davidson diagonalization with overlap
     c_bands:  1 eigenvalues not converged
     ethr =  4.57E-06,  avg # of iterations =  8.8

     total cpu time spent up to now is        7.0 secs

     total energy              =    -231.79675288 Ry
     estimated scf accuracy    <       0.00019557 Ry

     iteration #  2     ecut=    69.00 Ry     beta= 0.70
     Davidson diagonalization with overlap
     ethr =  1.09E-06,  avg # of iterations =  2.1

     total cpu time spent up to now is        8.2 secs

     total energy              =    -231.79681878 Ry
     estimated scf accuracy    <       0.00001713 Ry

     iteration #  3     ecut=    69.00 Ry     beta= 0.70
     Davidson diagonalization with overlap
     ethr =  9.52E-08,  avg # of iterations =  2.0

     total cpu time spent up to now is        9.4 secs

     total energy              =    -231.79682334 Ry
     estimated scf accuracy    <       0.00000010 Ry

     iteration #  4     ecut=    69.00 Ry     beta= 0.70
     Davidson diagonalization with overlap
     ethr =  5.38E-10,  avg # of iterations =  2.0

     total cpu time spent up to now is       11.2 secs

     total energy              =    -231.79682349 Ry
     estimated scf accuracy    <       0.00000002 Ry

     iteration #  5     ecut=    69.00 Ry     beta= 0.70
     Davidson diagonalization with overlap
     ethr =  8.47E-11,  avg # of iterations =  2.0

     total cpu time spent up to now is       12.4 secs

     total energy              =    -231.79682349 Ry
     estimated scf accuracy    <          2.7E-09 Ry

     iteration #  6     ecut=    69.00 Ry     beta= 0.70
     Davidson diagonalization with overlap
     ethr =  1.49E-11,  avg # of iterations =  2.0

     total cpu time spent up to now is       13.7 secs

     End of self-consistent calculation

     Number of k-points >= 100: set verbosity='high' to print the bands.

     the Fermi energy is     0.4979 ev

!    total energy              =    -231.79682349 Ry
     estimated scf accuracy    <          3.9E-12 Ry
     smearing contrib. (-TS)   =      -0.00000000 Ry
     internal energy E=F+TS    =    -231.79682349 Ry

     The total energy is F=E-TS. E is the sum of the following terms:
     one-electron contribution =    -165.69003699 Ry
     hartree contribution      =      76.61082781 Ry
     xc contribution           =     -21.64905481 Ry
     ewald contribution        =    -121.06855951 Ry

     convergence has been achieved in   6 iterations

     Writing all to output data dir out/mp-611517.save/
 
     init_run     :      1.02s CPU      1.41s WALL (       1 calls)
     electrons    :     11.04s CPU     12.24s WALL (       1 calls)

     Called by init_run:
     wfcinit      :      0.99s CPU      1.34s WALL (       1 calls)
     potinit      :      0.01s CPU      0.01s WALL (       1 calls)
     hinit0       :      0.01s CPU      0.04s WALL (       1 calls)

     Called by electrons:
     c_bands      :      9.85s CPU     10.75s WALL (       7 calls)
     sum_band     :      1.16s CPU      1.33s WALL (       7 calls)
     v_of_rho     :      0.02s CPU      0.02s WALL (       7 calls)
     mix_rho      :      0.01s CPU      0.02s WALL (       7 calls)

     Called by c_bands:
     init_us_2    :      0.07s CPU      0.08s WALL (    1560 calls)
     init_us_2:cp :      0.07s CPU      0.07s WALL (    1560 calls)
     cegterg      :      8.56s CPU      9.02s WALL (     728 calls)

     Called by *egterg:
     cdiaghg      :      1.28s CPU      1.34s WALL (    3495 calls)
     h_psi        :      7.54s CPU      8.02s WALL (    3703 calls)
     g_psi        :      0.04s CPU      0.04s WALL (    2871 calls)

     Called by h_psi:
     h_psi:calbec :      0.21s CPU      0.22s WALL (    3703 calls)
     vloc_psi     :      7.23s CPU      7.69s WALL (    3703 calls)
     add_vuspsi   :      0.07s CPU      0.07s WALL (    3703 calls)

     General routines
     calbec       :      0.20s CPU      0.21s WALL (    3703 calls)
     fft          :      0.01s CPU      0.04s WALL (      70 calls)
     ffts         :      0.00s CPU      0.00s WALL (       7 calls)
     fftw         :      7.81s CPU      8.32s WALL (  104096 calls)
     davcio       :      0.11s CPU      0.71s WALL (    2430 calls)
 
     Parallel routines
 
     PWSCF        :     12.36s CPU     16.40s WALL

 
   This run was terminated on:  18:40:43  18Nov2023            

=------------------------------------------------------------------------------=
   JOB DONE.
=------------------------------------------------------------------------------=
