
     Program PWSCF v.7.1 starts on  6Dec2023 at 19: 9:42 

     This program is part of the open-source Quantum ESPRESSO suite
     for quantum simulation of materials; please cite
         "P. Giannozzi et al., J. Phys.:Condens. Matter 21 395502 (2009);
         "P. Giannozzi et al., J. Phys.:Condens. Matter 29 465901 (2017);
         "P. Giannozzi et al., J. Chem. Phys. 152 154105 (2020);
          URL http://www.quantum-espresso.org", 
     in publications or presentations arising from this work. More details at
     http://www.quantum-espresso.org/quote

     Parallel version (MPI), running on     8 processors

     MPI processes distributed on     1 nodes
     122939 MiB available memory on the printing compute node when the environment starts
 
     Reading input from pw_mp-22894_nscf_k0_E51.in
Warning: card &IONS ignored
Warning: card / ignored
Warning: card &CELL ignored
Warning: card / ignored

     Current dimensions of program PWSCF are:
     Max number of different atomic species (ntypx) = 10
     Max number of k-points (npk) =  40000
     Max angular momentum in pseudopotentials (lmaxx) =  4

     Atomic positions and unit cell read from directory:
     out/mp-22894.save/
     Atomic positions from file used, from input discarded
 
 
     R & G space division:  proc/nbgrp/npool/nimage =       8
     Subspace diagonalization in iterative solution of the eigenvalue problem:
     one sub-group per band group will be used
     scalapack distributed-memory algorithm (size of sub-group:  2*  2 procs)

 
     Parallelization info
     --------------------
     sticks:   dense  smooth     PW     G-vecs:    dense   smooth      PW
     Min         134     134     33                 5877     5877     729
     Max         135     135     35                 5882     5882     730
     Sum        1075    1075    271                47039    47039    5835
 
     Using Slab Decomposition
 


     bravais-lattice index     =            4
     lattice parameter (alat)  =       8.8034  a.u.
     unit-cell volume          =     957.9312 (a.u.)^3
     number of atoms/cell      =            4
     number of atomic types    =            2
     number of electrons       =        72.00
     number of Kohn-Sham states=         1200
     kinetic-energy cutoff     =      51.0000  Ry
     charge density cutoff     =     204.0000  Ry
     Exchange-correlation= PBE
                           (   1   4   3   4   0   0   0)

     celldm(1)=   8.803395  celldm(2)=   0.000000  celldm(3)=   1.621262
     celldm(4)=   0.000000  celldm(5)=   0.000000  celldm(6)=   0.000000

     crystal axes: (cart. coord. in units of alat)
               a(1) = (   1.000000   0.000000   0.000000 )  
               a(2) = (  -0.500000   0.866025   0.000000 )  
               a(3) = (   0.000000   0.000000   1.621262 )  

     reciprocal axes: (cart. coord. in units 2 pi/alat)
               b(1) = (  1.000000  0.577350  0.000000 )  
               b(2) = (  0.000000  1.154701  0.000000 )  
               b(3) = (  0.000000  0.000000  0.616804 )  


     PseudoPot. # 1 for Ag read from file:
     /usr/scratch4/magr4985/MG/HTDF/pseudo/SG15/Ag.upf
     MD5 check sum: 2fe2fe769560ddf16f28d1c82859634b
     Pseudo is Norm-conserving, Zval = 19.0
     Generated using ONCVPSP code by D. R. Hamann
     Using radial grid of  602 points,  6 beta functions with: 
                l(1) =   0
                l(2) =   0
                l(3) =   1
                l(4) =   1
                l(5) =   2
                l(6) =   2

     PseudoPot. # 2 for I  read from file:
     /usr/scratch4/magr4985/MG/HTDF/pseudo/SG15/I.upf
     MD5 check sum: 8277ef51204d8074ead4596f3b37a2aa
     Pseudo is Norm-conserving, Zval = 17.0
     Generated using ONCVPSP code by D. R. Hamann
     Using radial grid of  602 points,  6 beta functions with: 
                l(1) =   0
                l(2) =   0
                l(3) =   1
                l(4) =   1
                l(5) =   2
                l(6) =   2

     atomic species   valence    mass     pseudopotential
        Ag            19.00   107.86820     Ag( 1.00)
        I             17.00   126.90450     I ( 1.00)

      6 Sym. Ops. (no inversion) found



   Cartesian axes

     site n.     atom                  positions (alat units)
         1           Ag  tau(   1) = (   0.5000000   0.2886752   0.0015955  )
         2           Ag  tau(   2) = (   0.0000000   0.5773502   0.8122265  )
         3           I   tau(   3) = (   0.5000000   0.2886752   0.6143218  )
         4           I   tau(   4) = (   0.0000000   0.5773502   1.4249528  )

     number of k points=     1  Gaussian smearing, width (Ry)=  0.0005
                       cart. coord. in units 2pi/alat
        k(    1) = (   0.0000000   0.0000000   0.0000000), wk =   2.0000000

     Dense  grid:    47039 G-vectors     FFT dimensions: (  45,  45,  72)

     Estimated max dynamical RAM per process >     139.93 MB

     Estimated total dynamical RAM >       1.09 GB

     The potential is recalculated from file :
     out/mp-22894.save/charge-density

     Starting wfcs are random

     Band Structure Calculation
     Davidson diagonalization with overlap

     ethr =  5.00E-06,  avg # of iterations = 11.0

     total cpu time spent up to now is      159.9 secs

     End of band structure calculation

          k = 0.0000 0.0000 0.0000 (  5835 PWs)   bands (ev):

   -83.5005 -83.5004 -46.9809 -46.9809 -46.9808 -46.9808 -46.9776 -46.9775
   -37.6441 -37.6441 -37.6441 -37.6441 -37.6411 -37.6409 -37.6378 -37.6378
   -37.6377 -37.6377  -5.5285  -5.2609   3.0624   3.0624   3.0944   3.1865
     3.1865   3.1999   4.0844   4.0844   4.1748   4.1748   4.2753   6.4037
     6.4037   6.9980   7.0620   7.0620   8.4681   9.6992  12.8927  12.8927
    13.1430  13.7810  13.7810  14.4020  15.7945  15.7945  15.9372  16.8288
    17.1676  17.1676  17.2726  19.5255  20.3194  20.3194  20.7840  21.7121
    21.7121  22.8802  22.8802  23.5108  23.5108  24.8060  25.5655  26.1755
    27.4678  27.8764  27.8764  28.2092  28.2839  29.3008  29.3008  29.9063
    29.9063  30.1342  30.1342  30.2778  31.8760  31.8760  32.7364  32.7850
    32.8443  32.8443  33.7984  33.8560  33.8560  34.6342  34.6523  34.6523
    34.8133  34.8133  35.4193  35.7233  35.7233  36.1960  36.4483  36.7942
    38.4088  38.4088  38.6146  38.7214  38.9766  38.9766  39.1059  39.1059
    39.3139  40.0214  40.2538  40.2539  40.4893  40.4893  40.6023  40.7731
    40.9857  40.9857  41.9922  41.9922  42.3373  43.8925  43.8925  44.5243
    45.1524  45.1524  45.2433  45.2433  45.5900  46.0763  46.0763  46.3519
    46.3519  46.6183  46.8506  47.9031  48.6007  48.6909  48.6909  49.1178
    49.1178  49.4405  50.0959  50.1254  50.1254  50.4748  50.4748  51.2474
    51.5425  51.5426  51.8442  52.9029  52.9029  52.9513  53.1651  53.1651
    53.3188  53.3188  53.6096  54.9007  55.4700  55.4700  55.8468  56.8057
    57.3691  57.9932  57.9932  58.0378  59.0971  59.3818  59.3818  59.4768
    59.4768  60.0665  60.7972  60.7972  60.8014  60.8014  60.8324  61.7910
    62.3659  62.9090  63.0617  63.1574  63.5717  63.5717  63.5802  63.5802
    63.7229  63.8791  63.8791  64.0643  64.9742  64.9742  65.4500  65.4500
    66.0631  66.6607  66.6607  67.3410  67.3410  67.3526  67.3526  68.5301
    68.7260  68.7313  68.7313  68.7719  68.7719  69.2500  69.2500  69.3999
    70.5692  70.5692  70.6539  70.6831  70.8820  71.3255  71.3255  71.3392
    71.4261  71.4261  71.5959  71.7015  71.7015  71.9483  72.0391  72.6079
    72.7292  72.7292  72.9149  72.9149  73.7875  73.7875  74.1864  74.1864
    74.5996  74.6556  74.6556  75.0790  75.5282  75.5282  75.6783  75.7395
    75.7395  75.9142  76.4179  76.4179  76.7637  77.0488  77.5761  77.6397
    77.6397  78.3243  78.3243  78.3450  78.3450  79.0512  79.0570  79.3310
    79.3310  79.3711  79.3711  79.7303  79.7303  80.0295  80.1103  80.1103
    80.1862  81.0689  81.0689  81.3883  81.4511  81.6391  82.0863  82.0863
    82.9892  83.1266  83.1266  83.3083  83.3083  83.4897  83.4897  83.9862
    84.2771  84.3853  85.2161  85.3470  85.3929  85.4752  85.4752  85.8126
    85.8126  86.0813  86.6901  86.6901  86.7416  86.7416  88.0801  88.2554
    88.4748  89.3105  89.3105  89.3215  89.5774  89.5792  89.5792  89.6114
    89.6667  89.6667  89.8054  89.9709  90.1761  90.1761  90.4473  90.8805
    90.8805  91.2649  91.2649  91.4140  91.5037  91.5037  91.8917  91.8917
    92.8572  92.8572  93.6628  94.1077  94.1077  94.1318  94.1873  94.1873
    94.5930  95.1003  95.4653  95.4653  95.5114  95.5114  95.5997  96.4402
    96.4402  97.0891  97.1036  97.1036  97.2039  97.2039  97.3289  97.3976
    97.6085  97.7471  97.7471  98.8273  98.8273  98.8571  99.2353  99.5063
    99.5063  99.6587 100.1701 100.1701 100.5736 101.0356 101.0356 101.2620
   101.3548 101.3548 101.8048 101.8048 102.1066 102.5818 103.0736 103.0736
   103.1208 103.1336 103.1336 104.0740 104.7489 104.7489 105.0056 105.1553
   105.1553 105.2843 105.3727 105.3727 105.5884 105.6491 105.6887 105.6887
   106.2362 106.5908 106.5908 106.9891 107.8794 108.2407 108.2407 108.3284
   108.5326 108.7583 108.7583 108.8436 109.0132 109.0132 109.4230 109.4230
   109.4541 110.2880 110.2880 110.3104 110.4824 110.4824 110.9431 111.0643
   111.0643 111.4908 111.4908 111.5648 111.9250 112.4728 112.4728 112.7601
   112.7601 112.8467 113.0589 113.6441 113.6441 113.6542 114.2060 114.2476
   114.6256 114.6256 115.6472 115.6472 115.6619 115.7895 116.0124 116.0124
   116.1266 116.1266 116.5746 116.5746 117.2347 117.2347 118.0508 118.1874
   118.2303 118.2303 118.3110 118.3110 118.4484 119.1763 119.1763 119.2966
   119.2966 119.8584 119.8692 121.1871 121.1991 121.1991 121.4186 121.4186
   121.5558 121.5558 121.7381 122.0642 122.1564 122.1564 122.3473 122.3473
   122.3734 122.7668 123.0616 123.0616 123.0643 123.0643 123.0803 123.4248
   123.6710 123.7098 123.7121 123.7121 123.9086 123.9086 124.5027 124.5027
   124.7093 124.9841 124.9841 125.0803 125.1460 125.2282 125.5460 125.5460
   125.7081 125.8071 125.8071 125.8200 126.4479 126.5918 126.5918 127.0354
   127.1204 127.1204 127.6037 127.6037 128.1277 128.5095 128.5853 128.8457
   128.8457 128.9353 129.1241 129.1241 129.2941 129.3343 129.3343 129.6797
   129.6797 130.0683 130.0683 130.1034 130.1034 130.5850 130.8294 131.0092
   131.1828 131.1828 131.2717 131.2717 131.4012 131.4012 131.5402 131.5402
   131.6083 132.1145 132.1145 132.3911 132.6699 132.9863 132.9863 132.9928
   133.0388 133.0805 133.0805 133.1597 133.1597 133.3277 133.3277 133.5591
   133.6315 133.7057 133.7257 133.7257 133.7877 133.7877 134.2160 134.2763
   134.7732 134.7732 135.0803 135.0803 135.2953 135.7941 136.1925 136.2968
   136.2968 136.8488 136.8488 137.1457 137.4022 137.4022 137.7911 138.0107
   138.0107 138.3170 138.3170 139.3691 139.3691 139.4199 139.7191 139.7467
   139.7467 139.8985 140.5360 140.8156 140.8156 141.5561 141.9760 141.9760
   142.1492 142.6385 142.6438 142.6438 143.0161 143.1752 143.1752 143.3636
   143.3636 143.6197 143.6197 144.2409 144.2409 144.8630 144.8630 145.1073
   145.1145 145.2356 145.2356 145.4655 145.4655 145.7825 146.0388 146.0485
   146.0485 146.4108 146.4599 146.5896 146.6577 146.7079 146.7079 146.9933
   146.9933 147.5914 147.5914 147.7567 148.1657 148.1657 148.1948 148.3668
   148.3668 148.3694 148.3694 148.5360 148.6926 148.8210 149.3692 149.3692
   149.4592 150.3194 150.6390 151.1826 151.1827 151.4557 151.4557 152.6377
   152.6377 152.7889 152.8404 152.9386 152.9386 153.2390 153.5300 153.7157
   153.7157 153.8360 153.8360 153.9152 154.7922 154.7922 155.1011 155.1011
   155.8025 155.9205 155.9812 155.9812 156.2246 156.2246 156.4098 156.4099
   156.9919 156.9919 157.0352 157.3582 157.4527 157.4838 157.4838 157.6201
   157.6201 157.6913 158.4517 158.4517 158.6039 158.8265 158.8265 159.4234
   159.4996 159.5425 159.5425 159.6603 159.6976 159.8204 159.8224 159.8224
   159.9005 159.9005 160.1256 160.1256 160.1429 160.7759 160.7759 160.8871
   160.9421 161.0324 161.1687 161.1687 161.8701 161.8701 161.9308 162.0250
   162.0250 162.1403 162.2512 162.2512 162.3279 163.1235 163.1235 163.1664
   163.5207 163.7149 163.7149 164.3844 164.3844 164.7002 164.8149 164.8149
   164.9362 164.9881 164.9881 165.1361 165.2137 165.2137 165.2331 165.4347
   165.4347 165.5228 166.0642 167.1527 167.2884 167.8457 168.0381 168.0381
   168.7505 168.7505 168.7831 168.7831 169.1624 169.2785 169.2785 169.2848
   169.7434 169.7434 169.8509 170.1025 170.1025 170.9112 170.9112 171.0441
   171.3326 171.3928 171.3928 172.4191 172.4192 172.4216 172.4216 172.8309
   173.0232 173.0552 173.0552 173.1642 173.2444 173.2444 173.3671 173.3671
   173.4359 173.4359 174.1367 174.5721 174.7876 174.7876 174.8562 175.3174
   175.4863 175.4863 176.4244 176.4244 176.4404 176.5092 176.5092 177.2149
   177.3950 177.4880 177.6599 177.6599 177.8773 177.8773 177.8963 178.0971
   178.0971 178.1444 178.1444 178.3247 178.3247 178.3691 178.5129 178.7082
   178.7082 178.7876 179.8673 180.0584 180.0584 180.3256 180.5690 180.5690
   180.6239 180.8558 180.8669 180.8820 180.8820 181.6054 181.7498 181.7499
   181.8464 181.9727 181.9727 182.2451 182.2451 182.4344 182.9543 182.9543
   183.0707 183.0707 183.3823 183.4710 183.5468 183.5468 183.7913 183.7913
   184.1236 184.1236 184.3227 184.6523 184.6523 184.6588 184.6906 184.7220
   184.7220 185.0772 185.1391 185.1391 185.3807 185.3807 186.0056 186.0797
   186.1333 186.1333 186.2083 186.2083 186.2123 186.6049 186.9652 186.9652
   187.0868 187.7052 187.7490 187.7490 187.8209 187.8209 187.9908 187.9908
   188.1799 188.1799 188.2025 188.2546 188.4924 188.4924 188.6214 188.6696
   188.6696 189.0386 189.0386 189.1077 189.2507 189.2510 189.2510 189.4168
   189.5976 190.0718 190.4280 190.4280 190.6061 190.6659 190.6659 190.7902
   190.7902 190.8232 190.8232 190.8498 191.6890 191.7478 191.8548 191.9361
   191.9361 192.0897 192.0897 192.2881 192.2881 192.4310 192.5150 192.5150
   192.8078 192.9050 192.9050 192.9496 192.9496 193.4020 193.5084 193.5915
   193.5915 194.1381 194.2462 194.2462 194.2531 194.2531 194.5498 194.5498
   194.5577 194.8938 194.8938 194.9235 195.1188 195.1574 195.1574 195.3658
   195.6484 195.7305 195.7305 196.2618 196.6056 196.6201 196.6201 196.8271
   196.8271 196.9457 197.6197 197.6197 198.1945 198.2023 198.2838 198.3876
   198.3876 198.4979 198.6012 198.6012 198.7562 199.0596 199.0596 199.4798
   199.4798 199.5624 199.7664 199.7947 199.8539 200.3754 200.3754 200.7917
   200.7917 201.2908 201.2908 201.4656 201.4786 201.5446 201.5959 201.5959
   201.6331 201.8349 201.8349 202.0798 202.1615 202.1615 202.1853 202.1853
   202.5005 202.5005 202.6718 203.0520 203.0520 203.3170 203.3170 203.4568
   203.8456 203.8456 204.1046 204.1734 204.1734 204.4411 204.8793 204.8793
   204.9516 204.9687 204.9687 205.0100 205.0244 205.0244 205.4174 205.7199
   205.8113 205.8113 205.8135 205.8135 206.0131 206.0131 206.3412 206.3412
   206.4320 206.5130 206.5130 206.5195 206.8325 207.0150 207.5059 207.6222
   207.7317 208.4226 208.4226 208.5629 208.6689 209.3713 209.3713 209.3723
   209.3723 209.6265 210.0675 210.0675 210.1043 210.1375 210.1375 210.1778
   210.5881 210.5882 210.9246 211.0683 211.0683 211.3972 211.3972 211.4127
   211.4127 212.2277 212.2277 212.2394 212.6000 212.6000 212.6681 213.0974
   213.4858 213.4859 213.5378 214.2414 214.2414 214.3312 214.5320 214.6579
   214.9073 214.9073 215.0382 215.0382 215.1433 215.1823 215.2369 215.2369
   215.3097 215.3097 215.3709 215.7926 215.9919 215.9919 216.1122 216.1122
   217.0222 217.0296 217.0296 217.1537 217.2392 217.2392 217.3000 217.3000
   217.4608 217.5403 217.7309 217.7595 217.7595 217.9937 218.1845 218.1845
   218.2866 218.2866 218.8120 218.8120 218.8848 219.2032 219.2032 219.3137
   219.3344 219.3344 219.5065 219.6222 219.6222 219.8914 220.4970 220.4970
   220.7524 220.7650 220.9364 221.0496 221.0496 221.1149 221.1769 221.1769
   221.4046 221.4046 222.7475 222.7475 222.8102 222.9854 222.9854 222.9969
   222.9969 224.2653 224.3482 224.3482 224.5137 224.6266 224.6266 224.7897
   224.7897 224.9164 225.4131 225.4131 226.0655 226.7114 226.7114 226.7184
   226.7184 226.7760 227.7453 227.9166 227.9166 227.9261 227.9261 228.1248
   228.1475 228.4903 228.4903 228.4985 228.8877 229.2543 229.2543 229.6167
   229.6167 229.7015 229.8686 229.8686 229.8835 230.7233 231.1854 231.4553
   232.2951 232.2951 232.6206 232.6206 232.9850 232.9850 233.3254 233.3557
   233.3557 233.6558 233.6558 233.6560 233.7652 233.7652 233.8651 234.1892
   234.3304 234.3304 234.5101 234.5101 234.5715 234.6514 234.7992 235.0137
   235.1846 235.2538 235.2538 235.3466 235.3466 235.5287 235.5287 235.5538
   235.5538 235.7551 235.7551 235.7682 235.7761 235.9064 235.9182 235.9182

     the Fermi energy is     7.5569 ev
     (compare with:     7.7946 eV, computed in scf)

     Writing all to output data dir out/mp-22894.save/
 
     init_run     :      0.07s CPU      0.09s WALL (       1 calls)
     electrons    :    148.62s CPU    159.47s WALL (       1 calls)

     Called by init_run:
     wfcinit      :      0.00s CPU      0.00s WALL (       1 calls)
     potinit      :      0.02s CPU      0.02s WALL (       1 calls)
     hinit0       :      0.02s CPU      0.03s WALL (       1 calls)

     Called by electrons:
     c_bands      :    148.62s CPU    159.47s WALL (       1 calls)
     v_of_rho     :      0.01s CPU      0.02s WALL (       1 calls)

     Called by c_bands:
     init_us_2    :      0.00s CPU      0.00s WALL (       1 calls)
     init_us_2:cp :      0.00s CPU      0.00s WALL (       1 calls)
     cegterg      :    145.63s CPU    156.28s WALL (       1 calls)

     Called by *egterg:
     cdiaghg      :    130.77s CPU    141.24s WALL (      12 calls)
     h_psi        :      3.73s CPU      3.84s WALL (      13 calls)
     g_psi        :      0.03s CPU      0.03s WALL (      11 calls)

     Called by h_psi:
     h_psi:calbec :      0.12s CPU      0.13s WALL (      13 calls)
     vloc_psi     :      3.48s CPU      3.57s WALL (      13 calls)
     add_vuspsi   :      0.11s CPU      0.11s WALL (      13 calls)

     General routines
     calbec       :      0.12s CPU      0.13s WALL (      13 calls)
     fft          :      0.01s CPU      0.01s WALL (      10 calls)
     fftw         :      3.10s CPU      3.18s WALL (   17524 calls)
 
     Parallel routines
 
     PWSCF        :   2m29.10s CPU   2m40.27s WALL

 
   This run was terminated on:  19:12:23   6Dec2023            

=------------------------------------------------------------------------------=
   JOB DONE.
=------------------------------------------------------------------------------=
