
     Program PWSCF v.7.1 starts on  5Apr2024 at 10:19:37 

     This program is part of the open-source Quantum ESPRESSO suite
     for quantum simulation of materials; please cite
         "P. Giannozzi et al., J. Phys.:Condens. Matter 21 395502 (2009);
         "P. Giannozzi et al., J. Phys.:Condens. Matter 29 465901 (2017);
         "P. Giannozzi et al., J. Chem. Phys. 152 154105 (2020);
          URL http://www.quantum-espresso.org", 
     in publications or presentations arising from this work. More details at
     http://www.quantum-espresso.org/quote

     Parallel version (MPI), running on     8 processors

     MPI processes distributed on     1 nodes
     245753 MiB available memory on the printing compute node when the environment starts
 
     Reading input from pw_FeCl2_nscf_k1_E65.in
Warning: card &IONS ignored
Warning: card / ignored
Warning: card &CELL ignored
Warning: card / ignored

     Current dimensions of program PWSCF are:
     Max number of different atomic species (ntypx) = 10
     Max number of k-points (npk) =  40000
     Max angular momentum in pseudopotentials (lmaxx) =  4

     Atomic positions and unit cell read from directory:
     out/FeCl2.save/
     Atomic positions from file used, from input discarded
 
 
     R & G space division:  proc/nbgrp/npool/nimage =       8
     Subspace diagonalization in iterative solution of the eigenvalue problem:
     one sub-group per band group will be used
     scalapack distributed-memory algorithm (size of sub-group:  2*  2 procs)

 
     Parallelization info
     --------------------
     sticks:   dense  smooth     PW     G-vecs:    dense   smooth      PW
     Min          93      93     26                13495    13495    2058
     Max          94      94     27                13524    13524    2071
     Sum         745     745    211               108013   108013   16491
 
     Using Slab Decomposition
 


     bravais-lattice index     =            4
     lattice parameter (alat)  =       6.4336  a.u.
     unit-cell volume          =    1521.4508 (a.u.)^3
     number of atoms/cell      =            3
     number of atomic types    =            2
     number of electrons       =        30.00
     number of Kohn-Sham states=         1200
     kinetic-energy cutoff     =      65.0000  Ry
     charge density cutoff     =     260.0000  Ry
     Exchange-correlation= PBE
                           (   1   4   3   4   0   0   0)

     celldm(1)=   6.433606  celldm(2)=   0.000000  celldm(3)=   6.597264
     celldm(4)=   0.000000  celldm(5)=   0.000000  celldm(6)=   0.000000

     crystal axes: (cart. coord. in units of alat)
               a(1) = (   1.000000   0.000000   0.000000 )  
               a(2) = (  -0.500000   0.866025   0.000000 )  
               a(3) = (   0.000000   0.000000   6.597264 )  

     reciprocal axes: (cart. coord. in units 2 pi/alat)
               b(1) = (  1.000000  0.577350  0.000000 )  
               b(2) = (  0.000000  1.154701  0.000000 )  
               b(3) = (  0.000000  0.000000  0.151578 )  


     PseudoPot. # 1 for Cl read from file:
     /usr/scratch4/magr4985/FGWC/FGWC/pseudo/SG15/Cl.upf
     MD5 check sum: 0f993535b366f580ecbcdacce103c843
     Pseudo is Norm-conserving, Zval =  7.0
     Generated using ONCVPSP code by D. R. Hamann
     Using radial grid of  602 points,  4 beta functions with: 
                l(1) =   0
                l(2) =   0
                l(3) =   1
                l(4) =   1

     PseudoPot. # 2 for Fe read from file:
     /usr/scratch4/magr4985/FGWC/FGWC/pseudo/SG15/Fe.upf
     MD5 check sum: 0a0a3b4237ca738a29386c4fd1f8ac5e
     Pseudo is Norm-conserving, Zval = 16.0
     Generated using ONCVPSP code by D. R. Hamann
     Using radial grid of  602 points,  6 beta functions with: 
                l(1) =   0
                l(2) =   0
                l(3) =   1
                l(4) =   1
                l(5) =   2
                l(6) =   2

     atomic species   valence    mass     pseudopotential
        Cl             7.00    35.45300     Cl( 1.00)
        Fe            16.00    55.84500     Fe( 1.00)

     12 Sym. Ops., with inversion, found



   Cartesian axes

     site n.     atom                  positions (alat units)
         1           Fe  tau(   1) = (   0.0000000   0.0000000   3.2986323  )
         2           Cl  tau(   2) = (   0.0000000   0.5773502   3.6532892  )
         3           Cl  tau(   3) = (   0.5000000   0.2886752   2.9439755  )

     number of k points=     2  Gaussian smearing, width (Ry)=  0.0005
                       cart. coord. in units 2pi/alat
        k(    1) = (   0.0000000   0.0000000   0.0000000), wk =   0.5000000
        k(    2) = (   0.0000000  -0.5773503   0.0000000), wk =   1.5000000

     Dense  grid:   108013 G-vectors     FFT dimensions: (  36,  36, 225)

     Estimated max dynamical RAM per process >     290.54 MB

     Estimated total dynamical RAM >       2.27 GB

     The potential is recalculated from file :
     out/FeCl2.save/charge-density

     Starting wfcs are random

     Band Structure Calculation
     Davidson diagonalization with overlap

     ethr =  5.00E-06,  avg # of iterations = 11.0

     total cpu time spent up to now is      179.2 secs

     End of band structure calculation

          k = 0.0000 0.0000 0.0000 ( 13495 PWs)   bands (ev):

   -88.1692 -54.2668 -54.2668 -54.2328 -19.3413 -18.0851  -8.1774  -6.7957
    -6.7957  -5.2127  -4.8381  -4.8381  -2.4577  -2.4577  -1.8160  -0.4413
    -0.4413   2.2765   2.7949   3.2863   3.5747   4.0904   4.1531   5.4471
     5.9850   6.9384   6.9384   7.5764   8.5785   9.6870   9.6870  10.4382
    11.0453  11.6509  12.4810  12.4810  13.0411  13.0411  13.8389  13.9270
    14.8464  15.8187  18.2765  18.2765  18.3630  18.4146  19.3444  19.3444
    19.7667  20.0318  20.0318  20.0871  20.1680  20.1680  20.2334  20.3902
    20.6641  20.6641  20.7152  20.7152  20.7169  20.7493  20.9309  20.9309
    21.0650  21.0650  21.1886  21.4752  21.7883  21.9395  21.9395  22.0430
    22.1676  22.1676  22.4489  22.4489  22.6403  22.6403  22.8472  23.1398
    23.3884  23.4762  24.0312  24.0312  24.3686  24.3686  24.4440  24.7012
    24.7012  24.7829  24.9314  24.9314  25.3659  26.1700  26.3944  26.7965
    26.7965  27.0059  27.1384  27.1384  27.5629  27.5629  27.9040  27.9040
    28.2673  28.4179  29.0971  29.6358  29.9995  29.9995  30.2588  30.2588
    30.4809  30.6629  30.9612  30.9612  31.5490  31.5490  32.2623  32.6325
    32.6325  32.8421  32.9317  32.9317  33.1946  34.0263  34.0263  34.3901
    34.4906  34.6941  34.6941  35.3116  35.3116  35.5337  35.7988  35.7988
    36.4165  36.4165  36.9787  37.0524  37.3182  37.6765  37.6765  37.7316
    38.6000  39.2410  39.2410  39.7556  39.7556  40.0406  40.0678  40.8207
    40.8207  41.0985  41.0985  41.5819  42.4220  42.8263  43.0229  43.5091
    43.7915  43.7915  44.7504  44.7896  44.7896  45.9209  46.1195  46.1195
    46.3803  46.3803  47.8513  48.3024  48.3522  48.3522  48.5304  48.5304
    48.6703  49.3732  49.4016  49.4016  49.9045  50.2540  51.1415  51.7128
    51.7128  51.7572  52.0116  52.0116  52.0615  52.4386  52.4386  52.5966
    52.5966  53.2229  53.2229  53.5681  53.7376  53.7376  54.2596  54.3482
    54.3482  54.6038  54.7785  54.8321  54.8321  54.8375  54.8825  55.0384
    55.0384  55.1701  55.1701  55.3904  55.3979  55.3979  55.4228  55.4329
    55.4329  55.6000  55.7374  55.9409  55.9409  56.0205  56.0205  56.0798
    56.2625  56.7366  56.7366  56.8376  56.8581  56.8581  56.9130  56.9868
    57.1405  57.2833  57.2833  57.7198  57.7198  57.7806  57.7839  57.8760
    57.8760  57.9589  58.5907  58.5907  58.6197  58.6197  58.8564  58.8564
    59.1031  59.2246  59.2246  59.3298  59.3899  59.4659  59.5105  59.5105
    59.9908  60.0545  60.0545  60.2930  60.2930  60.5772  60.5772  60.7839
    61.0548  61.4662  61.4662  61.6976  61.9499  61.9499  62.1162  62.3642
    62.5042  62.8312  62.8312  62.8362  62.8362  63.1216  63.7010  63.7010
    63.9979  63.9979  64.6297  64.8052  65.5224  65.5262  65.5262  65.6672
    65.6672  65.7092  65.8736  65.8736  66.0651  66.0656  66.2028  66.7363
    66.7568  66.7568  67.2550  67.2550  67.2917  67.2917  67.3932  67.7461
    67.9974  67.9974  68.0398  68.2525  68.2525  69.3445  69.4132  69.4132
    69.4329  69.4329  70.2738  70.2738  70.3818  70.3900  70.3900  70.4259
    70.5158  70.9883  70.9883  71.1651  71.2398  71.4167  71.4167  71.4692
    71.5052  71.7317  71.7317  71.9821  72.0165  72.2901  72.2901  72.4039
    72.4039  72.5245  72.6140  72.6775  72.6775  72.7394  72.8455  72.8455
    72.8898  72.9933  72.9933  73.1223  73.1223  73.2716  73.2716  73.5755
    73.6865  73.8759  74.0061  74.0061  74.0479  74.0479  74.1132  74.2519
    74.2879  74.2879  74.3626  74.3626  74.6606  74.6606  74.6906  74.6906
    74.7590  75.3338  75.4139  75.4427  75.4871  75.4871  75.5776  75.7030
    75.7030  75.7208  75.8772  75.9146  75.9146  76.0489  76.0489  76.1743
    76.3091  76.5574  76.5574  76.8067  76.8067  76.8377  77.0871  77.0871
    77.3425  77.3425  77.3938  77.6783  77.7648  77.7798  77.7798  79.0064
    79.1693  79.1693  79.1734  79.1734  79.4957  79.5184  79.5474  79.5474
    79.9377  80.1980  80.1980  80.3759  80.3759  80.9112  80.9709  81.0124
    81.0124  81.0170  81.1125  81.1125  81.5378  81.5577  81.8667  82.0571
    82.0571  82.3921  82.3921  82.5511  82.9703  83.1614  83.1614  83.3862
    83.3862  83.4689  83.4689  83.5864  83.6535  83.6535  83.6602  83.7863
    83.7863  83.8688  83.8688  84.1338  84.4601  85.3087  85.3087  85.4820
    85.6998  86.1458  86.1458  86.4747  86.5045  86.5045  86.8384  86.8384
    86.8998  86.8998  87.0805  87.2194  87.3244  87.3465  87.7154  87.7154
    88.2251  88.3429  88.3429  88.4879  88.4879  88.5995  88.6146  89.0014
    89.7683  89.7683  89.8412  89.8412  90.1899  90.6522  90.6522  91.0869
    91.0869  91.2555  91.8130  91.9063  91.9063  91.9346  92.2859  92.2859
    92.5213  92.5213  92.7105  92.9992  93.1730  93.1730  93.2919  93.2919
    93.3356  93.6717  93.6717  93.6807  93.9731  93.9731  93.9836  94.3129
    94.3814  94.3814  94.8376  94.8376  95.0151  95.0151  95.3021  95.3663
    95.7140  96.0771  96.0771  96.8776  97.1328  97.1328  97.2070  97.3721
    97.3721  97.8278  98.2434  98.6685  98.6685  98.7027  99.0706  99.1662
    99.4734  99.4734  99.6245  99.7008  99.7008 100.3220 100.6800 100.6800
   101.1542 101.1542 101.1799 101.4957 101.7028 101.7028 101.7317 101.7317
   101.9907 101.9907 102.1172 102.1913 102.5859 102.5859 102.5969 102.8852
   102.8852 102.9109 103.0804 103.0804 103.5163 103.5163 103.8909 104.2523
   104.2804 104.2804 104.4424 104.4424 104.9145 104.9145 105.1810 105.2321
   105.2597 106.2544 106.9603 107.0678 107.0678 107.1404 107.1404 107.3719
   107.4384 107.5953 108.1759 108.1759 108.8750 108.8750 108.9834 108.9834
   109.2961 109.2961 109.5529 109.8064 110.1127 110.1850 110.1850 110.3096
   110.3096 110.3801 110.4452 110.9574 111.2555 111.5658 111.5658 111.8065
   111.8065 111.9742 112.1658 112.4103 112.4103 112.7627 112.7627 112.8799
   112.8799 112.9688 113.0316 113.0316 113.1741 113.1741 113.2894 113.2894
   113.4375 114.0037 114.2310 114.2310 114.2771 114.6657 114.6657 114.9765
   114.9765 116.4589 116.4752 116.5293 116.8126 116.8126 116.9710 116.9710
   117.3291 117.4907 117.4907 117.8407 117.8407 117.8551 117.9301 117.9301
   118.0436 118.3854 118.4193 118.5698 118.5987 118.5987 118.9797 119.1273
   119.1273 119.2172 119.3834 119.3834 119.9342 119.9342 120.1387 120.4411
   120.6195 120.9471 121.0089 121.6300 121.6924 121.6924 122.1832 122.1832
   122.4997 122.4997 122.5310 122.7471 122.7953 122.9663 122.9663 123.0298
   123.0298 123.1671 123.1671 123.4659 123.4659 123.6553 123.6553 123.7044
   123.7044 123.7529 123.8273 123.8618 123.9376 123.9376 123.9771 123.9771
   124.1081 124.1455 124.1455 124.3541 124.3612 124.4480 124.4480 124.4711
   124.4711 124.5393 124.5526 124.5526 124.5545 124.5929 124.5929 124.6106
   124.6772 124.7083 124.7106 124.7106 124.7568 124.7568 124.7873 124.8182
   124.8182 124.8666 124.8666 125.2154 125.2273 125.2273 125.2936 125.4057
   125.5323 125.5323 125.6744 125.6744 125.8435 125.8435 125.8472 125.8472
   125.9889 126.0040 126.0319 126.0319 126.0491 126.0678 126.1053 126.1053
   126.1178 126.1178 126.2415 126.2497 126.2780 126.3327 126.3327 126.3967
   126.3967 126.5755 126.5755 126.6806 126.7045 126.7045 126.8666 126.9720
   126.9720 127.1751 127.1751 127.3782 127.3803 127.5672 127.7611 127.7860
   127.7860 127.8381 127.8381 127.8602 127.8602 127.9686 128.2020 128.2155
   128.2155 128.2745 128.2877 128.3696 128.3696 128.3698 128.4371 128.4371
   128.6132 128.6828 128.6828 128.7105 128.7125 128.7125 128.7253 128.9982
   128.9982 129.3661 129.3919 129.3919 129.9361 130.2508 130.4561 130.6877
   130.6877 130.7568 130.8669 130.8669 131.0053 131.0053 131.0390 131.2151
   131.2743 131.3628 131.3628 131.4313 131.4313 131.5014 131.6353 131.6353
   131.6651 131.6748 131.7428 131.7428 131.9343 132.1566 132.1566 132.2643
   132.2643 132.4602 133.0883 133.0883 133.1545 133.5352 133.5352 133.8144
   134.0346 134.1021 134.1021 134.3096 134.3096 134.4982 134.4982 134.5519
   134.5519 134.7769 134.7865 134.8499 134.9117 134.9117 134.9443 135.0346
   135.0346 135.0729 135.0729 135.2475 135.2570 135.3321 135.3480 135.3705
   135.3705 135.3916 135.3916 135.9052 135.9052 135.9466 135.9851 135.9851
   136.0248 136.0865 136.0865 136.1502 136.1502 136.4095 136.5581 136.5581
   136.8415 136.8415 136.9791 137.0851 137.0851 137.1817 137.1817 137.2250
   137.2324 137.4155 137.9269 137.9467 137.9467 137.9666 137.9666 138.7116
   138.7704 138.7704 139.1660 139.2584 139.2720 139.3784 139.3784 139.6491
   139.6813 139.6813 139.6837 139.6837 139.7257 139.7513 139.7513 139.7638
   139.8048 139.8048 139.9094 139.9094 139.9500 141.0381 141.0381 141.0405
   141.3842 141.4934 141.4934 141.6363 141.6363 141.6879 141.8068 143.0067
   143.0067 143.0506 143.1914 143.1956 143.1956 143.7484 143.8203 143.8203
   143.8555 143.8555 144.0157 144.0251 144.0955 144.0955 144.1215 144.1811
   144.2076 144.2076 144.5063 144.5610 144.5869 144.5869 144.5924 144.5924
   144.6727 144.9013 144.9330 144.9330 144.9919 144.9919 145.0077 145.2536
   145.6711 145.6711 145.7820 145.7820 146.0917 146.0917 146.1254 146.6339
   146.6339 146.8766 147.1203 147.1203 147.1244 147.2643 147.4119 147.4119
   147.5942 147.6033 147.9919 147.9919 148.0909 148.0909 148.2173 148.2173
   148.2303 148.2303 148.6196 148.9732 149.3204 149.3204 149.4687 149.4833
   149.4833 149.6099 149.6099 149.6830 149.7126 149.7136 149.8359 149.8904
   149.8904 150.1519 150.1519 150.2150 150.2150 150.2558 150.3052 150.5733
   150.5733 151.1701 151.1701 151.2626 151.5704 151.8637 151.9365 151.9365
   152.2898 152.2898 152.5309 152.5309 153.2425 153.5295 153.5295 153.7091
   153.7903 153.7903 154.3566 154.3566 154.4306 154.4306 154.8882 155.1180
   155.2063 155.3196 155.3196 155.4438 155.4438 155.4891 155.4916 155.8241
   155.8420 155.9237 156.0839 156.0839 156.1886 156.1989 156.2247 156.2247
   156.3738 156.5396 156.5900 156.5900 156.8298 156.8298 157.0338 157.0338
   157.2751 157.3015 157.3015 157.3644 157.4035 157.4035 157.4955 157.4955
   157.5789 157.7466 157.7466 158.2577 158.2729 158.2729 158.3148 158.3148
   158.3574 158.7473 158.7473 158.7621 158.7641 158.8064 158.8064 158.8645
   158.9585 159.1779 159.2142 159.2142 159.2500 159.2500 159.2524 159.3670
   159.3941 159.3941 159.4685 159.4685 159.7179 159.8045 159.9978 160.0965
   160.0965 160.3035 160.3035 160.4516 160.4516 160.5797 160.5829 160.5829
   160.5878 160.6022 160.6022 160.6934 160.6934 160.9925 161.0357 161.0382
   161.0382 161.1760 161.1931 161.1931 161.5767 161.5767 161.6357 161.6357
   161.7694 161.8966 161.8966 162.3081 162.3170 162.3170 162.5892 162.6083
   162.7055 162.7055 162.7378 162.9315 162.9315 162.9331 163.0770 163.0770
   163.1447 163.1510 163.2393 163.2393 163.2406 163.2406 163.2507 163.2961
   163.3234 163.3234 163.3923 163.3923 163.5939 163.6097 163.6097 164.1985
   164.3962 164.3962 164.5059 164.5059 164.5290 164.6607 164.6607 164.9121
   164.9965 164.9965 165.1178 165.4474 165.6824 165.6824 165.7003 165.7694
   165.7694 165.9116 166.2914 166.2914 166.6288 166.8262 166.9293 166.9293
   167.0500 167.4999 167.4999 167.6050 167.6050 168.2277 168.4227 168.4227
   168.5447 168.5447 168.6763 169.1127 169.4039 169.4695 169.4695 169.5575
   169.5947 169.7326 169.7326 169.7855 169.8615 169.8615 170.0306 170.0383
   170.1057 170.1057 170.1626 170.2189 170.2189 170.2873 170.3148 170.3148
   170.5416 170.6036 170.6036 170.6074 170.6074 170.7782 170.8523 170.8523

          k = 0.0000-0.5774 0.0000 ( 13490 PWs)   bands (ev):

   -88.1684 -54.2809 -54.2703 -54.2307 -18.1875 -18.0209  -9.0056  -8.0457
    -6.4768  -6.2703  -6.2102  -5.9522  -2.5139  -1.9213  -1.8209  -0.5018
    -0.4456   3.6976   4.3174   5.9028   6.0218   6.8630   7.0682   7.5578
     7.6962   7.9264   7.9323   8.0500   8.5392   9.0125   9.0557   9.1344
    10.2435  10.2797  10.8285  11.1783  12.2227  12.5294  12.5462  13.2081
    13.4572  13.9091  14.2741  15.0028  15.0233  15.0695  15.2281  15.3973
    16.0746  16.0804  16.2423  16.2640  16.2941  16.5667  17.1732  17.1747
    17.4286  17.4973  17.9499  18.2796  18.7246  18.7506  19.0341  19.3975
    19.5143  19.7355  20.2223  20.8841  20.9188  21.7328  21.9685  22.2869
    22.3368  22.8560  23.2981  23.7359  24.3175  24.8824  24.9264  25.6046
    25.7357  26.4632  26.7512  26.8444  26.9213  27.5445  27.7903  27.8598
    28.4599  28.9666  29.0161  29.1134  29.2890  29.6166  30.0925  31.0043
    31.2781  31.5614  31.9656  32.0733  32.1019  32.2732  32.9721  33.0464
    33.1574  33.1885  33.2438  33.4275  33.4518  33.4830  33.5623  33.7113
    33.7369  33.8747  33.9495  34.1539  34.2424  34.3841  34.4744  34.7969
    34.8886  35.1329  35.4378  35.5610  35.5733  35.6040  35.9574  36.1189
    36.3758  36.3991  36.4764  36.8934  36.9188  37.1357  37.3441  37.5494
    37.8224  37.8664  37.8823  38.3815  38.6149  38.7179  39.0453  39.2027
    39.3227  39.6661  39.7347  40.2007  40.4845  40.5044  40.5081  40.5426
    40.8227  40.8659  41.0433  41.5350  41.5986  41.7574  41.7952  41.8715
    41.9851  42.1091  42.2304  42.4691  42.6238  42.6892  42.9959  43.4248
    43.5003  43.6449  43.8040  43.8518  43.9111  44.1813  44.2243  44.4882
    44.5666  44.8286  45.4561  45.6270  45.7374  45.9741  46.0339  46.1184
    46.2336  46.3789  46.5163  46.5390  46.5630  47.1479  47.2346  47.4342
    47.6968  47.7502  47.8272  48.2172  48.4079  48.5114  48.8174  48.9605
    49.0781  49.2466  49.5280  49.7146  49.8540  49.9933  50.6281  50.8099
    50.9481  51.0706  52.0883  52.1652  52.2547  52.2600  52.6646  52.8664
    53.1260  53.3657  53.4169  53.6815  53.8766  53.9913  54.2449  54.3036
    54.6936  54.8953  54.9453  55.3919  55.4498  55.5984  55.7247  56.5015
    56.6589  57.1496  57.2201  57.2265  57.4375  57.6594  57.7290  57.8976
    58.1681  58.1745  58.6356  58.7613  58.8291  58.9726  59.1624  59.1825
    59.2536  59.3586  59.4800  59.5840  59.6488  59.7914  59.8055  59.8339
    59.9447  60.0227  60.1074  60.1598  60.1993  60.5773  60.6916  60.8258
    60.9205  60.9785  61.2419  61.2806  61.3759  61.5084  61.5921  61.7117
    61.8141  61.8363  62.1960  62.2652  62.3785  62.4990  62.7417  62.9254
    63.1345  63.2767  63.4227  63.5382  63.5574  63.8335  63.8541  63.8854
    64.1058  64.2606  64.3824  64.6968  64.8674  65.0380  65.1855  65.2752
    65.3074  65.8425  65.8440  65.8820  66.1147  66.1753  66.3225  66.4485
    66.6659  66.7887  66.8733  66.8912  66.9689  67.1362  67.4633  67.5457
    67.6873  68.1733  68.8966  68.9063  68.9198  69.1297  69.3134  69.3832
    69.7995  69.8344  70.0736  70.0789  70.3067  70.4604  70.8415  70.9711
    71.1036  71.1255  71.1636  71.5240  71.9174  71.9185  72.0345  72.0903
    72.3073  72.4367  72.6105  72.7080  72.9981  73.4497  73.4572  73.9524
    73.9886  74.0201  74.0251  74.1094  74.9414  75.2961  75.4615  75.4859
    75.5880  75.6690  76.0263  76.3080  76.4270  76.8551  76.8609  77.2718
    77.4476  77.6145  77.8296  78.1187  78.4576  78.4632  78.5116  78.7765
    78.9272  78.9351  79.4132  79.4862  79.5064  79.9022  79.9484  80.1045
    80.1293  80.1375  80.1419  80.2642  80.4117  80.5687  80.6414  80.7766
    80.7922  80.8148  81.2047  81.2117  81.4985  81.8200  82.0359  82.4517
    82.5246  82.6001  83.0923  83.2038  83.3533  83.6075  84.1797  84.5529
    84.8134  84.8644  84.9529  84.9766  84.9808  85.2490  85.2503  85.2733
    85.3611  85.4670  85.5828  85.6452  85.6545  85.7592  85.7752  85.8469
    85.8560  86.1412  86.1778  86.4700  86.5525  86.5731  86.7519  86.8755
    86.8786  86.9362  87.1185  87.2224  87.2601  87.3451  87.4032  87.7517
    87.8491  87.8934  88.1829  88.1928  88.1948  88.2957  88.3787  88.4647
    88.6282  88.6980  88.7151  88.9767  89.0050  89.1475  89.3692  89.5607
    89.5696  89.6581  89.6837  89.7440  89.9594  90.1262  90.2165  90.2382
    90.2989  90.5157  90.6133  90.7398  90.9503  91.1435  91.2058  91.5201
    91.8127  92.1627  92.1740  92.1835  92.4471  92.4797  92.5166  92.5981
    92.6880  92.7385  92.7423  92.8092  92.8609  93.1293  93.5372  93.5885
    93.6037  93.8065  93.8349  93.8363  93.9658  94.2202  94.2239  94.2699
    94.2867  94.3660  94.4365  94.4434  94.5805  94.7273  94.7298  94.7681
    94.9443  94.9749  95.2932  95.3680  95.3715  95.4710  95.4781  95.5167
    95.7400  95.8309  95.8785  95.9019  96.0208  96.0404  96.1343  96.1485
    96.3928  96.4937  96.6295  96.6404  96.7913  96.9106  97.0344  97.0431
    97.2902  97.3064  97.4223  97.5729  97.5967  97.7596  97.8457  97.8953
    97.9168  98.2116  98.2583  98.3597  98.4140  98.4847  98.5843  98.6149
    98.8205  98.8943  99.0556  99.2029  99.3548  99.3827  99.5917  99.6891
    99.6968 100.1827 100.3321 100.3343 100.3417 100.3688 100.4369 100.6951
   100.8164 100.8289 100.8600 100.8955 100.9545 101.3695 101.3743 101.7788
   101.8016 101.8424 101.9101 102.0391 102.2559 102.2734 102.6353 102.8761
   103.4545 103.8058 103.8929 103.9123 104.1428 104.1803 104.6560 104.7329
   104.7406 104.9329 104.9629 104.9897 105.0783 105.1049 105.2961 105.3711
   105.4787 105.5501 105.7626 105.9661 105.9992 106.0571 106.0630 106.0973
   106.1202 106.1984 106.3229 106.4014 106.4068 106.7190 106.7734 106.7971
   107.1129 107.3670 107.5530 108.0582 108.2660 108.3656 108.3820 108.5191
   108.7636 108.7811 108.9729 109.2530 109.3158 109.5580 109.7681 109.7799
   109.9647 110.0309 110.0625 110.3952 110.5327 110.6597 110.6837 111.0742
   111.1204 111.1523 111.2642 111.3224 111.3332 111.4250 111.5058 111.5611
   111.6194 111.8304 111.8405 111.8901 112.0348 112.0960 112.4520 112.5508
   112.6464 112.9909 113.0393 113.1338 113.2356 113.2755 113.4684 113.5107
   113.5498 113.6593 113.6683 113.9300 113.9999 114.0608 114.3108 114.4507
   114.5068 114.5188 114.6830 114.9067 114.9451 115.0156 115.0797 115.1972
   115.3315 115.4492 115.5104 115.6226 115.7681 115.9831 116.0218 116.1939
   116.1998 116.3339 116.4978 116.7901 117.1315 117.1829 117.2395 117.3506
   117.5412 117.5416 117.6517 117.7425 118.2010 118.2866 118.4238 118.5589
   118.6310 118.6898 118.9297 119.0537 119.0843 119.3441 119.3559 119.3773
   119.5167 119.7372 119.7388 119.7743 119.9969 120.0477 120.1642 120.1682
   120.2363 120.2424 120.3707 120.5841 120.6066 120.7531 120.8728 120.9996
   121.2427 121.3869 121.4183 121.4658 121.5489 121.5637 121.7431 121.8979
   121.9366 121.9607 122.1539 122.1748 122.1865 122.3422 122.3967 122.4712
   122.5742 122.9127 123.0169 123.2219 123.3495 123.3573 123.4249 123.6290
   123.8249 123.8618 123.8691 124.0549 124.0597 124.3552 124.3568 124.4012
   124.5890 124.6905 125.1132 125.2398 125.2517 125.2579 125.3046 125.5165
   125.5926 125.7170 125.8761 125.9751 126.0771 126.0797 126.1569 126.1625
   126.1920 126.3760 126.4310 126.4974 126.5480 126.7795 127.0711 127.2201
   127.4262 127.5563 127.6396 127.8336 128.2897 128.5288 128.8487 128.8811
   129.1531 129.4538 129.6531 129.9249 130.2424 130.3078 130.3375 130.3413
   130.5557 130.5662 130.8783 130.8839 130.9962 131.0770 131.1212 131.2037
   131.2141 131.3732 131.4481 131.8052 131.8521 131.9310 131.9633 132.1825
   132.2616 132.2910 132.3625 132.4451 132.4761 132.4908 132.6536 132.9598
   132.9750 133.1997 133.3692 133.4114 133.5356 133.5776 133.7591 134.0160
   134.0421 134.2532 134.3592 134.4559 134.6398 134.8019 134.9295 135.0191
   135.0640 135.3319 135.3513 135.5999 135.6157 135.6704 135.8387 135.9089
   136.0540 136.0566 136.0597 136.4639 136.6154 136.7657 136.8752 136.8910
   136.9739 137.1530 137.1898 137.1983 137.2649 137.3125 137.4323 137.5399
   137.6016 137.6297 137.7373 137.7597 137.8062 138.0491 138.0555 138.1421
   138.2138 138.5650 138.7093 138.7773 138.8409 138.9640 139.0203 139.0479
   139.0744 139.2064 139.2092 139.2188 139.2622 139.3309 139.4161 139.4765
   139.5264 139.5543 139.5669 139.8131 139.8407 140.0286 140.0352 140.1730
   140.2049 140.4116 140.6339 140.7400 140.8144 140.8384 140.9704 141.0877
   141.1479 141.3251 141.4826 141.5228 141.6149 141.6368 141.6808 141.7151
   141.7152 141.7428 141.9275 141.9895 142.1229 142.4582 142.6057 142.7038
   142.9050 143.0422 143.2286 143.3484 143.5202 143.6010 143.6780 143.8073
   143.9106 144.1276 144.1578 144.3454 144.4114 144.5420 144.5441 144.7310
   144.8044 144.9667 145.3170 145.3555 145.4707 145.5435 145.8241 145.8911
   145.9063 146.1726 146.2517 146.3926 146.3995 146.6628 146.7998 146.8657
   147.1631 147.2180 147.3501 147.4712 147.7290 147.7808 147.8712 147.9079
   148.0283 148.1406 148.2089 148.2652 148.2858 148.4144 148.4406 148.4616
   148.5255 148.6096 148.8664 148.9095 149.0187 149.0283 149.0468 149.1935
   149.2360 149.2413 149.3081 149.4862 149.7507 149.8507 149.8983 149.9720
   150.2824 150.4221 150.6045 150.9208 151.0027 151.1261 151.5831 151.6494
   151.7290 151.9459 151.9599 151.9680 151.9774 152.4062 152.5172 152.5194
   152.7387 152.7665 152.7849 153.0667 153.3584 153.5011 153.8028 153.8045
   153.9901 154.0069 154.2547 154.6400 154.7634 154.9877 155.2754 155.4391
   155.4806 155.5585 155.8284 156.0122 156.1226 156.1663 156.1930 156.4364
   156.4520 156.4657 156.5369 156.5750 156.7032 156.9309 156.9403 156.9610
   157.1995 157.2065 157.3228 157.3240 157.4248 157.5151 157.6475 157.7328
   157.7618 157.8113 157.8868 158.0330 158.1164 158.1928 158.4837 158.5678
   158.6153 158.7373 158.8483 158.9384 159.0803 159.2171 159.2623 159.3830
   159.5368 159.6601 160.0248 160.0584 160.0971 160.2441 160.2779 160.4730
   160.4933 160.5135 160.5180 160.7369 160.8514 161.1894 161.4281 161.5216
   161.6287 161.8143 161.9402 162.0704 162.2212 162.2388 162.3031 162.3854
   162.4385 162.5341 162.6315 162.8233 162.8976 162.9695 163.0353 163.2155
   163.2265 163.2607 163.2951 163.3276 163.3720 163.4222 163.5115 163.5751
   163.5971 163.7185 163.8662 164.0086 164.1715 164.1845 164.2073 164.3127
   164.3579 164.5067 164.5840 164.5922 164.8953 164.9172 164.9850 165.1750
   165.2035 165.3110 165.3371 165.3923 165.5353 165.5765 165.8029 165.8496
   165.9613 165.9646 166.0315 166.1530 166.2566 166.2923 166.3646 166.4358
   166.4605 166.7200 166.7534 166.9659 166.9693 167.1152 167.1795 167.2026
   167.2314 167.3974 167.4140 167.4773 167.5021 167.5469 167.7224 168.0082
   168.1037 168.2966 168.3615 168.4063 168.4381 168.7168 168.7703 168.7858
   168.9494 169.1604 169.2207 169.3589 169.4341 169.4404 169.4589 169.5375
   169.6109 169.7396 169.8217 169.8949 169.9839 170.0001 170.0409 170.0965
   170.1521 170.2594 170.2678 170.5854 170.5983 170.8200 170.9300 170.9533
   171.1755 171.2556 171.2999 171.3951 171.4606 171.5407 171.5573 171.7566
   171.7969 172.0314 172.0414 172.0441 172.0926 172.1412 172.1647 172.2743
   172.2841 172.3080 172.3130 172.4660 172.6529 172.6536 172.9054 172.9153
   173.1669 173.1857 173.2329 173.2718 173.2890 173.3927 173.4686 173.5032
   173.5579 173.6785 173.6917 173.7970 173.8083 173.9287 173.9332 173.9425

     the Fermi energy is    -1.1609 ev
     (compare with:    -1.2049 eV, computed in scf)

     Writing all to output data dir out/FeCl2.save/
 
     init_run     :      0.33s CPU      0.34s WALL (       1 calls)
     electrons    :    173.64s CPU    178.56s WALL (       1 calls)

     Called by init_run:
     wfcinit      :      0.00s CPU      0.00s WALL (       1 calls)
     potinit      :      0.04s CPU      0.04s WALL (       1 calls)
     hinit0       :      0.07s CPU      0.07s WALL (       1 calls)

     Called by electrons:
     c_bands      :    173.64s CPU    178.56s WALL (       1 calls)
     v_of_rho     :      0.03s CPU      0.03s WALL (       1 calls)

     Called by c_bands:
     init_us_2    :      0.00s CPU      0.00s WALL (       2 calls)
     init_us_2:cp :      0.00s CPU      0.00s WALL (       2 calls)
     cegterg      :    169.00s CPU    173.78s WALL (       2 calls)

     Called by *egterg:
     cdiaghg      :    140.52s CPU    144.98s WALL (      24 calls)
     h_psi        :      6.15s CPU      6.26s WALL (      26 calls)
     g_psi        :      0.05s CPU      0.05s WALL (      22 calls)

     Called by h_psi:
     h_psi:calbec :      0.13s CPU      0.14s WALL (      26 calls)
     vloc_psi     :      5.85s CPU      5.94s WALL (      26 calls)
     add_vuspsi   :      0.11s CPU      0.11s WALL (      26 calls)

     General routines
     calbec       :      0.13s CPU      0.14s WALL (      26 calls)
     fft          :      0.03s CPU      0.03s WALL (      10 calls)
     fftw         :      5.20s CPU      5.27s WALL (   36606 calls)
 
     Parallel routines
 
     PWSCF        :   2m54.60s CPU   2m59.87s WALL

 
   This run was terminated on:  10:22:37   5Apr2024            

=------------------------------------------------------------------------------=
   JOB DONE.
=------------------------------------------------------------------------------=
