
     Program PWSCF v.7.1 starts on  5Apr2024 at 10:13:29 

     This program is part of the open-source Quantum ESPRESSO suite
     for quantum simulation of materials; please cite
         "P. Giannozzi et al., J. Phys.:Condens. Matter 21 395502 (2009);
         "P. Giannozzi et al., J. Phys.:Condens. Matter 29 465901 (2017);
         "P. Giannozzi et al., J. Chem. Phys. 152 154105 (2020);
          URL http://www.quantum-espresso.org", 
     in publications or presentations arising from this work. More details at
     http://www.quantum-espresso.org/quote

     Parallel version (MPI), running on     8 processors

     MPI processes distributed on     1 nodes
     245704 MiB available memory on the printing compute node when the environment starts
 
     Reading input from pw_FeCl2_nscf_k0_E65.in
Warning: card &IONS ignored
Warning: card / ignored
Warning: card &CELL ignored
Warning: card / ignored

     Current dimensions of program PWSCF are:
     Max number of different atomic species (ntypx) = 10
     Max number of k-points (npk) =  40000
     Max angular momentum in pseudopotentials (lmaxx) =  4

     Atomic positions and unit cell read from directory:
     out/FeCl2.save/
     Atomic positions from file used, from input discarded
 
 
     R & G space division:  proc/nbgrp/npool/nimage =       8
     Subspace diagonalization in iterative solution of the eigenvalue problem:
     one sub-group per band group will be used
     scalapack distributed-memory algorithm (size of sub-group:  2*  2 procs)

 
     Parallelization info
     --------------------
     sticks:   dense  smooth     PW     G-vecs:    dense   smooth      PW
     Min          93      93     23                13495    13495    1675
     Max          94      94     24                13524    13524    1696
     Sum         745     745    187               108013   108013   13495
 
     Using Slab Decomposition
 


     bravais-lattice index     =            4
     lattice parameter (alat)  =       6.4336  a.u.
     unit-cell volume          =    1521.4508 (a.u.)^3
     number of atoms/cell      =            3
     number of atomic types    =            2
     number of electrons       =        30.00
     number of Kohn-Sham states=         1200
     kinetic-energy cutoff     =      65.0000  Ry
     charge density cutoff     =     260.0000  Ry
     Exchange-correlation= PBE
                           (   1   4   3   4   0   0   0)

     celldm(1)=   6.433606  celldm(2)=   0.000000  celldm(3)=   6.597264
     celldm(4)=   0.000000  celldm(5)=   0.000000  celldm(6)=   0.000000

     crystal axes: (cart. coord. in units of alat)
               a(1) = (   1.000000   0.000000   0.000000 )  
               a(2) = (  -0.500000   0.866025   0.000000 )  
               a(3) = (   0.000000   0.000000   6.597264 )  

     reciprocal axes: (cart. coord. in units 2 pi/alat)
               b(1) = (  1.000000  0.577350  0.000000 )  
               b(2) = (  0.000000  1.154701  0.000000 )  
               b(3) = (  0.000000  0.000000  0.151578 )  


     PseudoPot. # 1 for Cl read from file:
     /usr/scratch4/magr4985/FGWC/FGWC/pseudo/SG15/Cl.upf
     MD5 check sum: 0f993535b366f580ecbcdacce103c843
     Pseudo is Norm-conserving, Zval =  7.0
     Generated using ONCVPSP code by D. R. Hamann
     Using radial grid of  602 points,  4 beta functions with: 
                l(1) =   0
                l(2) =   0
                l(3) =   1
                l(4) =   1

     PseudoPot. # 2 for Fe read from file:
     /usr/scratch4/magr4985/FGWC/FGWC/pseudo/SG15/Fe.upf
     MD5 check sum: 0a0a3b4237ca738a29386c4fd1f8ac5e
     Pseudo is Norm-conserving, Zval = 16.0
     Generated using ONCVPSP code by D. R. Hamann
     Using radial grid of  602 points,  6 beta functions with: 
                l(1) =   0
                l(2) =   0
                l(3) =   1
                l(4) =   1
                l(5) =   2
                l(6) =   2

     atomic species   valence    mass     pseudopotential
        Cl             7.00    35.45300     Cl( 1.00)
        Fe            16.00    55.84500     Fe( 1.00)

     12 Sym. Ops., with inversion, found



   Cartesian axes

     site n.     atom                  positions (alat units)
         1           Fe  tau(   1) = (   0.0000000   0.0000000   3.2986323  )
         2           Cl  tau(   2) = (   0.0000000   0.5773502   3.6532892  )
         3           Cl  tau(   3) = (   0.5000000   0.2886752   2.9439755  )

     number of k points=     1  Gaussian smearing, width (Ry)=  0.0005
                       cart. coord. in units 2pi/alat
        k(    1) = (   0.0000000   0.0000000   0.0000000), wk =   2.0000000

     Dense  grid:   108013 G-vectors     FFT dimensions: (  36,  36, 225)

     Estimated max dynamical RAM per process >     228.90 MB

     Estimated total dynamical RAM >       1.79 GB

     The potential is recalculated from file :
     out/FeCl2.save/charge-density

     Starting wfcs are random

     Band Structure Calculation
     Davidson diagonalization with overlap

     ethr =  5.00E-06,  avg # of iterations = 12.0

     total cpu time spent up to now is      110.6 secs

     End of band structure calculation

          k = 0.0000 0.0000 0.0000 ( 13495 PWs)   bands (ev):

   -88.1692 -54.2668 -54.2668 -54.2328 -19.3413 -18.0851  -8.1774  -6.7957
    -6.7957  -5.2127  -4.8381  -4.8381  -2.4577  -2.4577  -1.8160  -0.4413
    -0.4413   2.2765   2.7949   3.2863   3.5747   4.0904   4.1531   5.4471
     5.9850   6.9384   6.9384   7.5764   8.5785   9.6870   9.6870  10.4382
    11.0453  11.6509  12.4810  12.4810  13.0411  13.0411  13.8389  13.9270
    14.8464  15.8187  18.2765  18.2765  18.3630  18.4146  19.3444  19.3444
    19.7667  20.0318  20.0318  20.0871  20.1680  20.1680  20.2334  20.3902
    20.6641  20.6641  20.7152  20.7152  20.7169  20.7493  20.9309  20.9309
    21.0650  21.0650  21.1886  21.4752  21.7883  21.9395  21.9395  22.0430
    22.1676  22.1676  22.4489  22.4489  22.6403  22.6403  22.8472  23.1398
    23.3884  23.4762  24.0312  24.0312  24.3686  24.3686  24.4440  24.7012
    24.7012  24.7829  24.9314  24.9314  25.3659  26.1700  26.3944  26.7965
    26.7965  27.0059  27.1384  27.1384  27.5629  27.5629  27.9040  27.9040
    28.2673  28.4179  29.0971  29.6358  29.9995  29.9995  30.2588  30.2588
    30.4809  30.6629  30.9612  30.9612  31.5490  31.5490  32.2623  32.6325
    32.6325  32.8421  32.9317  32.9317  33.1946  34.0263  34.0263  34.3901
    34.4906  34.6941  34.6941  35.3116  35.3116  35.5337  35.7988  35.7988
    36.4165  36.4165  36.9787  37.0524  37.3182  37.6765  37.6765  37.7316
    38.6000  39.2410  39.2410  39.7556  39.7556  40.0406  40.0678  40.8207
    40.8207  41.0985  41.0985  41.5819  42.4220  42.8263  43.0229  43.5091
    43.7915  43.7915  44.7504  44.7896  44.7896  45.9209  46.1195  46.1195
    46.3803  46.3803  47.8513  48.3024  48.3522  48.3522  48.5304  48.5304
    48.6703  49.3732  49.4016  49.4016  49.9045  50.2540  51.1415  51.7128
    51.7128  51.7572  52.0116  52.0116  52.0615  52.4386  52.4386  52.5966
    52.5966  53.2229  53.2229  53.5681  53.7376  53.7376  54.2596  54.3482
    54.3482  54.6038  54.7785  54.8321  54.8321  54.8375  54.8825  55.0384
    55.0384  55.1701  55.1701  55.3904  55.3979  55.3979  55.4228  55.4329
    55.4329  55.6000  55.7374  55.9409  55.9409  56.0205  56.0205  56.0798
    56.2625  56.7366  56.7366  56.8376  56.8581  56.8581  56.9130  56.9868
    57.1405  57.2833  57.2833  57.7198  57.7198  57.7806  57.7839  57.8760
    57.8760  57.9589  58.5907  58.5907  58.6197  58.6197  58.8564  58.8564
    59.1031  59.2246  59.2246  59.3298  59.3899  59.4659  59.5105  59.5105
    59.9908  60.0545  60.0545  60.2930  60.2930  60.5772  60.5772  60.7839
    61.0548  61.4662  61.4662  61.6976  61.9499  61.9499  62.1162  62.3642
    62.5042  62.8312  62.8312  62.8362  62.8362  63.1216  63.7010  63.7010
    63.9979  63.9979  64.6297  64.8052  65.5224  65.5262  65.5262  65.6672
    65.6672  65.7092  65.8736  65.8736  66.0651  66.0656  66.2028  66.7363
    66.7568  66.7568  67.2550  67.2550  67.2917  67.2917  67.3932  67.7461
    67.9974  67.9974  68.0398  68.2525  68.2525  69.3445  69.4132  69.4132
    69.4329  69.4329  70.2738  70.2738  70.3818  70.3900  70.3900  70.4259
    70.5158  70.9883  70.9883  71.1651  71.2398  71.4167  71.4167  71.4692
    71.5052  71.7317  71.7317  71.9821  72.0165  72.2901  72.2901  72.4039
    72.4039  72.5245  72.6140  72.6775  72.6775  72.7394  72.8455  72.8455
    72.8898  72.9933  72.9933  73.1223  73.1223  73.2716  73.2716  73.5755
    73.6865  73.8759  74.0061  74.0061  74.0479  74.0479  74.1132  74.2519
    74.2879  74.2879  74.3626  74.3626  74.6606  74.6606  74.6906  74.6906
    74.7590  75.3338  75.4139  75.4427  75.4871  75.4871  75.5776  75.7030
    75.7030  75.7208  75.8772  75.9146  75.9146  76.0489  76.0489  76.1743
    76.3091  76.5574  76.5574  76.8067  76.8067  76.8377  77.0871  77.0871
    77.3425  77.3425  77.3938  77.6783  77.7648  77.7798  77.7798  79.0064
    79.1693  79.1693  79.1734  79.1734  79.4957  79.5184  79.5474  79.5474
    79.9377  80.1980  80.1980  80.3759  80.3759  80.9112  80.9709  81.0124
    81.0124  81.0170  81.1125  81.1125  81.5378  81.5577  81.8667  82.0571
    82.0571  82.3921  82.3921  82.5511  82.9703  83.1614  83.1614  83.3862
    83.3862  83.4689  83.4689  83.5864  83.6535  83.6535  83.6602  83.7863
    83.7863  83.8688  83.8688  84.1338  84.4601  85.3087  85.3087  85.4820
    85.6998  86.1458  86.1458  86.4747  86.5045  86.5045  86.8384  86.8384
    86.8998  86.8998  87.0805  87.2194  87.3244  87.3465  87.7154  87.7154
    88.2251  88.3429  88.3429  88.4879  88.4879  88.5995  88.6146  89.0014
    89.7683  89.7683  89.8412  89.8412  90.1899  90.6522  90.6522  91.0869
    91.0869  91.2555  91.8130  91.9063  91.9063  91.9346  92.2859  92.2859
    92.5213  92.5213  92.7105  92.9992  93.1730  93.1730  93.2919  93.2919
    93.3356  93.6717  93.6717  93.6807  93.9731  93.9731  93.9836  94.3129
    94.3814  94.3814  94.8376  94.8376  95.0151  95.0151  95.3021  95.3663
    95.7140  96.0771  96.0771  96.8776  97.1328  97.1328  97.2070  97.3721
    97.3721  97.8278  98.2434  98.6685  98.6685  98.7027  99.0706  99.1662
    99.4734  99.4734  99.6245  99.7008  99.7008 100.3220 100.6800 100.6800
   101.1542 101.1542 101.1799 101.4957 101.7028 101.7028 101.7317 101.7317
   101.9907 101.9907 102.1172 102.1913 102.5859 102.5859 102.5969 102.8852
   102.8852 102.9109 103.0804 103.0804 103.5163 103.5163 103.8909 104.2523
   104.2804 104.2804 104.4424 104.4424 104.9145 104.9145 105.1810 105.2321
   105.2597 106.2544 106.9603 107.0678 107.0678 107.1404 107.1404 107.3719
   107.4384 107.5953 108.1759 108.1759 108.8750 108.8750 108.9834 108.9834
   109.2961 109.2961 109.5529 109.8064 110.1127 110.1850 110.1850 110.3096
   110.3096 110.3801 110.4452 110.9574 111.2555 111.5658 111.5658 111.8065
   111.8065 111.9742 112.1658 112.4103 112.4103 112.7627 112.7627 112.8799
   112.8799 112.9688 113.0316 113.0316 113.1741 113.1741 113.2894 113.2894
   113.4375 114.0037 114.2310 114.2310 114.2771 114.6657 114.6657 114.9765
   114.9765 116.4589 116.4752 116.5293 116.8126 116.8126 116.9710 116.9710
   117.3291 117.4907 117.4907 117.8407 117.8407 117.8551 117.9301 117.9301
   118.0436 118.3854 118.4193 118.5698 118.5987 118.5987 118.9797 119.1273
   119.1273 119.2172 119.3834 119.3834 119.9342 119.9342 120.1387 120.4411
   120.6195 120.9471 121.0089 121.6300 121.6924 121.6924 122.1832 122.1832
   122.4997 122.4997 122.5310 122.7471 122.7953 122.9663 122.9663 123.0298
   123.0298 123.1671 123.1671 123.4659 123.4659 123.6553 123.6553 123.7044
   123.7044 123.7529 123.8273 123.8618 123.9376 123.9376 123.9771 123.9771
   124.1081 124.1455 124.1455 124.3541 124.3612 124.4480 124.4480 124.4711
   124.4711 124.5393 124.5526 124.5526 124.5545 124.5929 124.5929 124.6106
   124.6772 124.7083 124.7106 124.7106 124.7568 124.7568 124.7873 124.8182
   124.8182 124.8666 124.8666 125.2154 125.2273 125.2273 125.2936 125.4057
   125.5323 125.5323 125.6744 125.6744 125.8435 125.8435 125.8472 125.8472
   125.9889 126.0040 126.0319 126.0319 126.0491 126.0678 126.1053 126.1053
   126.1178 126.1178 126.2415 126.2497 126.2780 126.3327 126.3327 126.3967
   126.3967 126.5755 126.5755 126.6806 126.7045 126.7045 126.8666 126.9720
   126.9720 127.1751 127.1751 127.3782 127.3803 127.5672 127.7611 127.7860
   127.7860 127.8381 127.8381 127.8602 127.8602 127.9686 128.2020 128.2155
   128.2155 128.2745 128.2877 128.3696 128.3696 128.3698 128.4371 128.4372
   128.6132 128.6828 128.6828 128.7105 128.7125 128.7125 128.7253 128.9982
   128.9982 129.3661 129.3919 129.3919 129.9361 130.2508 130.4561 130.6877
   130.6877 130.7568 130.8669 130.8669 131.0053 131.0053 131.0390 131.2151
   131.2743 131.3628 131.3628 131.4313 131.4313 131.5014 131.6353 131.6353
   131.6651 131.6748 131.7428 131.7429 131.9343 132.1566 132.1566 132.2643
   132.2643 132.4602 133.0883 133.0883 133.1545 133.5352 133.5352 133.8144
   134.0346 134.1021 134.1021 134.3096 134.3096 134.4982 134.4982 134.5519
   134.5519 134.7769 134.7865 134.8499 134.9117 134.9117 134.9443 135.0346
   135.0346 135.0729 135.0729 135.2475 135.2570 135.3321 135.3480 135.3705
   135.3705 135.3916 135.3916 135.9052 135.9052 135.9466 135.9851 135.9851
   136.0248 136.0865 136.0865 136.1502 136.1502 136.4095 136.5581 136.5581
   136.8415 136.8415 136.9791 137.0851 137.0851 137.1817 137.1817 137.2250
   137.2324 137.4155 137.9269 137.9467 137.9467 137.9666 137.9666 138.7116
   138.7704 138.7704 139.1660 139.2584 139.2720 139.3784 139.3784 139.6491
   139.6813 139.6813 139.6837 139.6837 139.7257 139.7513 139.7513 139.7638
   139.8048 139.8048 139.9094 139.9094 139.9500 141.0381 141.0381 141.0405
   141.3842 141.4934 141.4934 141.6363 141.6363 141.6879 141.8068 143.0067
   143.0067 143.0506 143.1914 143.1956 143.1956 143.7484 143.8203 143.8203
   143.8555 143.8555 144.0157 144.0251 144.0955 144.0955 144.1215 144.1811
   144.2076 144.2076 144.5063 144.5610 144.5869 144.5869 144.5923 144.5924
   144.6727 144.9013 144.9330 144.9330 144.9919 144.9919 145.0077 145.2536
   145.6711 145.6711 145.7820 145.7820 146.0917 146.0917 146.1254 146.6339
   146.6339 146.8766 147.1203 147.1203 147.1244 147.2643 147.4119 147.4119
   147.5942 147.6033 147.9919 147.9919 148.0909 148.0909 148.2173 148.2173
   148.2303 148.2303 148.6196 148.9732 149.3204 149.3204 149.4687 149.4833
   149.4833 149.6099 149.6099 149.6830 149.7126 149.7136 149.8359 149.8904
   149.8904 150.1519 150.1519 150.2150 150.2150 150.2558 150.3052 150.5733
   150.5733 151.1701 151.1701 151.2626 151.5704 151.8637 151.9365 151.9365
   152.2898 152.2898 152.5309 152.5309 153.2425 153.5295 153.5295 153.7091
   153.7903 153.7903 154.3566 154.3566 154.4306 154.4306 154.8882 155.1180
   155.2063 155.3196 155.3196 155.4438 155.4438 155.4891 155.4916 155.8241
   155.8420 155.9237 156.0839 156.0839 156.1886 156.1989 156.2247 156.2247
   156.3738 156.5396 156.5900 156.5900 156.8298 156.8298 157.0338 157.0338
   157.2751 157.3015 157.3015 157.3644 157.4035 157.4035 157.4955 157.4955
   157.5789 157.7466 157.7466 158.2577 158.2729 158.2729 158.3148 158.3148
   158.3574 158.7473 158.7474 158.7621 158.7641 158.8064 158.8064 158.8645
   158.9585 159.1779 159.2142 159.2142 159.2500 159.2500 159.2524 159.3670
   159.3941 159.3941 159.4685 159.4685 159.7179 159.8045 159.9978 160.0965
   160.0965 160.3035 160.3035 160.4516 160.4516 160.5797 160.5829 160.5830
   160.5878 160.6022 160.6022 160.6934 160.6934 160.9925 161.0357 161.0382
   161.0382 161.1760 161.1931 161.1932 161.5767 161.5767 161.6357 161.6357
   161.7694 161.8966 161.8966 162.3081 162.3170 162.3170 162.5892 162.6083
   162.7055 162.7055 162.7378 162.9315 162.9315 162.9331 163.0770 163.0770
   163.1447 163.1510 163.2393 163.2393 163.2406 163.2406 163.2507 163.2961
   163.3234 163.3234 163.3923 163.3923 163.5939 163.6097 163.6097 164.1985
   164.3962 164.3962 164.5059 164.5059 164.5290 164.6607 164.6607 164.9121
   164.9965 164.9965 165.1178 165.4474 165.6824 165.6824 165.7003 165.7694
   165.7694 165.9116 166.2914 166.2914 166.6288 166.8262 166.9293 166.9293
   167.0500 167.4999 167.4999 167.6050 167.6050 168.2277 168.4227 168.4227
   168.5447 168.5447 168.6763 169.1127 169.4039 169.4695 169.4695 169.5575
   169.5947 169.7326 169.7326 169.7855 169.8615 169.8615 170.0306 170.0383
   170.1057 170.1057 170.1626 170.2189 170.2189 170.2873 170.3148 170.3148
   170.5416 170.6036 170.6036 170.6074 170.6074 170.7782 170.8523 170.8523

     the Fermi energy is    -1.1747 ev
     (compare with:    -1.2049 eV, computed in scf)

     Writing all to output data dir out/FeCl2.save/
 
     init_run     :      0.31s CPU      0.34s WALL (       1 calls)
     electrons    :    107.01s CPU    110.05s WALL (       1 calls)

     Called by init_run:
     wfcinit      :      0.00s CPU      0.00s WALL (       1 calls)
     potinit      :      0.03s CPU      0.04s WALL (       1 calls)
     hinit0       :      0.03s CPU      0.05s WALL (       1 calls)

     Called by electrons:
     c_bands      :    107.00s CPU    110.05s WALL (       1 calls)
     v_of_rho     :      0.03s CPU      0.03s WALL (       1 calls)

     Called by c_bands:
     init_us_2    :      0.00s CPU      0.00s WALL (       1 calls)
     init_us_2:cp :      0.00s CPU      0.00s WALL (       1 calls)
     cegterg      :    104.39s CPU    107.34s WALL (       1 calls)

     Called by *egterg:
     cdiaghg      :     87.85s CPU     90.64s WALL (      13 calls)
     h_psi        :      3.39s CPU      3.47s WALL (      14 calls)
     g_psi        :      0.03s CPU      0.03s WALL (      12 calls)

     Called by h_psi:
     h_psi:calbec :      0.08s CPU      0.08s WALL (      14 calls)
     vloc_psi     :      3.20s CPU      3.27s WALL (      14 calls)
     add_vuspsi   :      0.08s CPU      0.08s WALL (      14 calls)

     General routines
     calbec       :      0.08s CPU      0.08s WALL (      14 calls)
     fft          :      0.02s CPU      0.04s WALL (      10 calls)
     fftw         :      2.83s CPU      2.90s WALL (   20768 calls)
 
     Parallel routines
 
     PWSCF        :   1m47.70s CPU   1m50.97s WALL

 
   This run was terminated on:  10:15:20   5Apr2024            

=------------------------------------------------------------------------------=
   JOB DONE.
=------------------------------------------------------------------------------=
