
     Program PWSCF v.7.1 starts on  1Dec2023 at  9:54:14 

     This program is part of the open-source Quantum ESPRESSO suite
     for quantum simulation of materials; please cite
         "P. Giannozzi et al., J. Phys.:Condens. Matter 21 395502 (2009);
         "P. Giannozzi et al., J. Phys.:Condens. Matter 29 465901 (2017);
         "P. Giannozzi et al., J. Chem. Phys. 152 154105 (2020);
          URL http://www.quantum-espresso.org", 
     in publications or presentations arising from this work. More details at
     http://www.quantum-espresso.org/quote

     Parallel version (MPI), running on    24 processors

     MPI processes distributed on     1 nodes
     123036 MiB available memory on the printing compute node when the environment starts
 
     Reading input from pw_mp-2534_scf_k3000_E80.in
Warning: card &CELL ignored
Warning: card / ignored

     Current dimensions of program PWSCF are:
     Max number of different atomic species (ntypx) = 10
     Max number of k-points (npk) =  40000
     Max angular momentum in pseudopotentials (lmaxx) =  4
 
     K-points division:     npool     =       2
     R & G space division:  proc/nbgrp/npool/nimage =      12
     Subspace diagonalization in iterative solution of the eigenvalue problem:
     a serial algorithm will be used

 
     Parallelization info
     --------------------
     sticks:   dense  smooth     PW     G-vecs:    dense   smooth      PW
     Min         107     107     31                 2576     2576     411
     Max         108     108     32                 2581     2581     414
     Sum        1285    1285    379                30923    30923    4957
 
     Using Slab Decomposition
 


     bravais-lattice index     =            2
     lattice parameter (alat)  =      10.8663  a.u.
     unit-cell volume          =     320.7608 (a.u.)^3
     number of atoms/cell      =            2
     number of atomic types    =            2
     number of electrons       =        18.00
     number of Kohn-Sham states=           18
     kinetic-energy cutoff     =      80.0000  Ry
     charge density cutoff     =     320.0000  Ry
     scf convergence threshold =      1.0E-10
     mixing beta               =       0.7000
     number of iterations used =            8  plain     mixing
     Exchange-correlation= PBE
                           (   1   4   3   4   0   0   0)

     celldm(1)=  10.866269  celldm(2)=   0.000000  celldm(3)=   0.000000
     celldm(4)=   0.000000  celldm(5)=   0.000000  celldm(6)=   0.000000

     crystal axes: (cart. coord. in units of alat)
               a(1) = (  -0.500000   0.000000   0.500000 )  
               a(2) = (   0.000000   0.500000   0.500000 )  
               a(3) = (  -0.500000   0.500000   0.000000 )  

     reciprocal axes: (cart. coord. in units 2 pi/alat)
               b(1) = ( -1.000000 -1.000000  1.000000 )  
               b(2) = (  1.000000  1.000000  1.000000 )  
               b(3) = ( -1.000000  1.000000 -1.000000 )  


     PseudoPot. # 1 for As read from file:
     /usr/scratch4/magr4985/MG/HTDF/pseudo/SG15/As.upf
     MD5 check sum: a2ff92a4799c87c945fff9e6739df4dd
     Pseudo is Norm-conserving, Zval =  5.0
     Generated using ONCVPSP code by D. R. Hamann
     Using radial grid of  602 points,  6 beta functions with: 
                l(1) =   0
                l(2) =   0
                l(3) =   1
                l(4) =   1
                l(5) =   2
                l(6) =   2

     PseudoPot. # 2 for Ga read from file:
     /usr/scratch4/magr4985/MG/HTDF/pseudo/SG15/Ga.upf
     MD5 check sum: 9961a622ff199abf6dfec9a0a10b8555
     Pseudo is Norm-conserving, Zval = 13.0
     Generated using ONCVPSP code by D. R. Hamann
     Using radial grid of  602 points,  6 beta functions with: 
                l(1) =   0
                l(2) =   0
                l(3) =   1
                l(4) =   1
                l(5) =   2
                l(6) =   2

     atomic species   valence    mass     pseudopotential
        As             5.00    74.92160     As( 1.00)
        Ga            13.00    69.72300     Ga( 1.00)

     24 Sym. Ops. (no inversion) found



   Cartesian axes

     site n.     atom                  positions (alat units)
         1           Ga  tau(   1) = (   0.0000000   0.0000000   0.0000000  )
         2           As  tau(   2) = (  -0.2500000   0.2500000   0.2500001  )

     number of k points=    72  Gaussian smearing, width (Ry)=  0.0005
                       cart. coord. in units 2pi/alat
        k(    1) = (   0.0000000   0.0000000   0.0000000), wk =   0.0011574
        k(    2) = (  -0.0833333   0.0833333  -0.0833333), wk =   0.0092593
        k(    3) = (  -0.1666667   0.1666667  -0.1666667), wk =   0.0092593
        k(    4) = (  -0.2500000   0.2500000  -0.2500000), wk =   0.0092593
        k(    5) = (  -0.3333333   0.3333333  -0.3333333), wk =   0.0092593
        k(    6) = (  -0.4166667   0.4166667  -0.4166667), wk =   0.0092593
        k(    7) = (   0.5000000  -0.5000000   0.5000000), wk =   0.0046296
        k(    8) = (   0.0000000   0.1666667   0.0000000), wk =   0.0069444
        k(    9) = (  -0.0833333   0.2500000  -0.0833333), wk =   0.0277778
        k(   10) = (  -0.1666667   0.3333333  -0.1666667), wk =   0.0277778
        k(   11) = (  -0.2500000   0.4166667  -0.2500000), wk =   0.0277778
        k(   12) = (  -0.3333333   0.5000000  -0.3333333), wk =   0.0277778
        k(   13) = (   0.5833333  -0.4166667   0.5833333), wk =   0.0277778
        k(   14) = (   0.5000000  -0.3333333   0.5000000), wk =   0.0277778
        k(   15) = (   0.4166667  -0.2500000   0.4166667), wk =   0.0277778
        k(   16) = (   0.3333333  -0.1666667   0.3333333), wk =   0.0277778
        k(   17) = (   0.2500000  -0.0833333   0.2500000), wk =   0.0277778
        k(   18) = (   0.1666667  -0.0000000   0.1666667), wk =   0.0138889
        k(   19) = (   0.0000000   0.3333333   0.0000000), wk =   0.0069444
        k(   20) = (  -0.0833333   0.4166667  -0.0833333), wk =   0.0277778
        k(   21) = (  -0.1666667   0.5000000  -0.1666667), wk =   0.0277778
        k(   22) = (  -0.2500000   0.5833333  -0.2500000), wk =   0.0277778
        k(   23) = (   0.6666667  -0.3333333   0.6666667), wk =   0.0277778
        k(   24) = (   0.5833333  -0.2500000   0.5833333), wk =   0.0277778
        k(   25) = (   0.5000000  -0.1666667   0.5000000), wk =   0.0277778
        k(   26) = (   0.4166667  -0.0833333   0.4166667), wk =   0.0277778
        k(   27) = (   0.3333333   0.0000000   0.3333333), wk =   0.0138889
        k(   28) = (   0.0000000   0.5000000   0.0000000), wk =   0.0069444
        k(   29) = (  -0.0833333   0.5833333  -0.0833333), wk =   0.0277778
        k(   30) = (  -0.1666667   0.6666667  -0.1666667), wk =   0.0277778
        k(   31) = (   0.7500000  -0.2500000   0.7500000), wk =   0.0277778
        k(   32) = (   0.6666667  -0.1666667   0.6666667), wk =   0.0277778
        k(   33) = (   0.5833333  -0.0833333   0.5833333), wk =   0.0277778
        k(   34) = (   0.5000000   0.0000000   0.5000000), wk =   0.0138889
        k(   35) = (   0.0000000   0.6666667   0.0000000), wk =   0.0069444
        k(   36) = (  -0.0833333   0.7500000  -0.0833333), wk =   0.0277778
        k(   37) = (   0.8333333  -0.1666667   0.8333333), wk =   0.0277778
        k(   38) = (   0.7500000  -0.0833333   0.7500000), wk =   0.0277778
        k(   39) = (   0.6666667  -0.0000000   0.6666667), wk =   0.0138889
        k(   40) = (   0.0000000   0.8333333   0.0000000), wk =   0.0069444
        k(   41) = (   0.9166667  -0.0833333   0.9166667), wk =   0.0277778
        k(   42) = (   0.8333333   0.0000000   0.8333333), wk =   0.0138889
        k(   43) = (   0.0000000  -1.0000000   0.0000000), wk =   0.0034722
        k(   44) = (  -0.1666667   0.3333333   0.0000000), wk =   0.0277778
        k(   45) = (  -0.2500000   0.4166667  -0.0833333), wk =   0.0555556
        k(   46) = (  -0.3333333   0.5000000  -0.1666667), wk =   0.0555556
        k(   47) = (   0.5833333  -0.4166667   0.7500000), wk =   0.0555556
        k(   48) = (   0.5000000  -0.3333333   0.6666667), wk =   0.0277778
        k(   49) = (  -0.1666667   0.5000000   0.0000000), wk =   0.0277778
        k(   50) = (  -0.2500000   0.5833333  -0.0833333), wk =   0.0555556
        k(   51) = (   0.6666667  -0.3333333   0.8333333), wk =   0.0555556
        k(   52) = (   0.5833333  -0.2500000   0.7500000), wk =   0.0555556
        k(   53) = (   0.5000000  -0.1666667   0.6666667), wk =   0.0555556
        k(   54) = (   0.4166667  -0.0833333   0.5833333), wk =   0.0555556
        k(   55) = (   0.3333333   0.0000000   0.5000000), wk =   0.0277778
        k(   56) = (  -0.1666667   0.6666667  -0.0000000), wk =   0.0277778
        k(   57) = (   0.7500000  -0.2500000   0.9166667), wk =   0.0555556
        k(   58) = (   0.6666667  -0.1666667   0.8333333), wk =   0.0555556
        k(   59) = (   0.5833333  -0.0833333   0.7500000), wk =   0.0555556
        k(   60) = (   0.5000000   0.0000000   0.6666667), wk =   0.0277778
        k(   61) = (   0.8333333  -0.1666667   1.0000000), wk =   0.0277778
        k(   62) = (   0.7500000  -0.0833333   0.9166667), wk =   0.0555556
        k(   63) = (   0.6666667   0.0000000   0.8333333), wk =   0.0277778
        k(   64) = (  -0.1666667  -1.0000000  -0.0000000), wk =   0.0138889
        k(   65) = (   0.6666667  -0.3333333   1.0000000), wk =   0.0277778
        k(   66) = (   0.5833333  -0.2500000   0.9166667), wk =   0.0555556
        k(   67) = (   0.5000000  -0.1666667   0.8333333), wk =   0.0277778
        k(   68) = (   0.6666667  -0.1666667   1.0000000), wk =   0.0277778
        k(   69) = (   0.5833333  -0.0833333   0.9166667), wk =   0.0555556
        k(   70) = (   0.5000000   0.0000000   0.8333333), wk =   0.0277778
        k(   71) = (  -0.3333333  -1.0000000   0.0000000), wk =   0.0138889
        k(   72) = (  -0.5000000  -1.0000000   0.0000000), wk =   0.0069444

     Dense  grid:    30923 G-vectors     FFT dimensions: (  45,  45,  45)

     Estimated max dynamical RAM per process >       5.27 MB

     Estimated total dynamical RAM >     118.87 MB

     Initial potential from superposition of free atoms

     starting charge      17.8922, renormalised to      18.0000
     Starting wfcs are random

     total cpu time spent up to now is        0.4 secs

     Self-consistent Calculation

     iteration #  1     ecut=    80.00 Ry     beta= 0.70
     Davidson diagonalization with overlap
     ethr =  1.00E-02,  avg # of iterations = 10.3

     Threshold (ethr) on eigenvalues was too large:
     Diagonalizing with lowered threshold

     Davidson diagonalization with overlap
     ethr =  4.47E-04,  avg # of iterations =  2.5

     total cpu time spent up to now is        4.7 secs

     total energy              =    -144.00609674 Ry
     estimated scf accuracy    <       0.07192525 Ry

     iteration #  2     ecut=    80.00 Ry     beta= 0.70
     Davidson diagonalization with overlap
     ethr =  4.00E-04,  avg # of iterations =  2.0

     total cpu time spent up to now is        5.7 secs

     total energy              =    -144.02524916 Ry
     estimated scf accuracy    <       0.01929263 Ry

     iteration #  3     ecut=    80.00 Ry     beta= 0.70
     Davidson diagonalization with overlap
     ethr =  1.07E-04,  avg # of iterations =  1.9

     total cpu time spent up to now is        6.7 secs

     total energy              =    -144.02899499 Ry
     estimated scf accuracy    <       0.00056421 Ry

     iteration #  4     ecut=    80.00 Ry     beta= 0.70
     Davidson diagonalization with overlap
     ethr =  3.13E-06,  avg # of iterations =  4.9

     total cpu time spent up to now is        7.8 secs

     total energy              =    -144.02907642 Ry
     estimated scf accuracy    <       0.00003669 Ry

     iteration #  5     ecut=    80.00 Ry     beta= 0.70
     Davidson diagonalization with overlap
     ethr =  2.04E-07,  avg # of iterations =  1.8

     total cpu time spent up to now is        8.9 secs

     total energy              =    -144.02907987 Ry
     estimated scf accuracy    <       0.00000236 Ry

     iteration #  6     ecut=    80.00 Ry     beta= 0.70
     Davidson diagonalization with overlap
     ethr =  1.31E-08,  avg # of iterations =  2.0

     total cpu time spent up to now is        9.9 secs

     total energy              =    -144.02908060 Ry
     estimated scf accuracy    <       0.00000004 Ry

     iteration #  7     ecut=    80.00 Ry     beta= 0.70
     Davidson diagonalization with overlap
     ethr =  2.34E-10,  avg # of iterations =  2.0

     total cpu time spent up to now is       11.1 secs

     total energy              =    -144.02908062 Ry
     estimated scf accuracy    <          2.7E-09 Ry

     iteration #  8     ecut=    80.00 Ry     beta= 0.70
     Davidson diagonalization with overlap
     ethr =  1.49E-11,  avg # of iterations =  2.0

     total cpu time spent up to now is       12.1 secs

     End of self-consistent calculation

          k = 0.0000 0.0000 0.0000 (  3839 PWs)   bands (ev):

    -8.1417  -8.1417  -8.1417  -8.0748  -8.0748  -5.7862   6.5783   6.5783
     6.5783   6.7149  10.3000  10.3000  10.3000  14.0210  16.6094  16.6094
    18.0329  18.0329

          k =-0.0833 0.0833-0.0833 (  3840 PWs)   bands (ev):

    -8.1465  -8.1403  -8.1403  -8.0749  -8.0749  -5.7105   5.2910   6.4743
     6.4743   7.6719  10.4242  10.4575  10.4575  14.4711  16.1031  16.1031
    17.6461  18.8405

          k =-0.1667 0.1667-0.1667 (  3837 PWs)   bands (ev):

    -8.1591  -8.1367  -8.1367  -8.0748  -8.0748  -5.4901   3.8764   6.2274
     6.2274   8.0009  10.8144  10.8144  11.1080  15.3540  15.5780  15.5780
    17.2902  20.3168

          k =-0.2500 0.2500-0.2500 (  3867 PWs)   bands (ev):

    -8.1755  -8.1324  -8.1324  -8.0744  -8.0744  -5.1471   2.5354   5.9498
     5.9498   7.8611  11.1255  11.1255  12.2901  15.4551  15.5525  15.5525
    18.2416  22.0560

          k =-0.3333 0.3333-0.3333 (  3873 PWs)   bands (ev):

    -8.1908  -8.1285  -8.1285  -8.0734  -8.0734  -4.7307   1.3759   5.7167
     5.7167   7.6447  11.2375  11.2375  13.5692  15.2369  16.1503  16.1503
    19.6525  22.6790

          k =-0.4167 0.4167-0.4167 (  3861 PWs)   bands (ev):

    -8.2015  -8.1262  -8.1262  -8.0720  -8.0720  -4.3465   0.5352   5.5660
     5.5660   7.4905  11.2195  11.2195  14.2367  15.7798  17.2433  17.2433
    19.4511  20.7808

          k = 0.5000-0.5000 0.5000 (  3852 PWs)   bands (ev):

    -8.2053  -8.1254  -8.1254  -8.0714  -8.0714  -4.1780   0.2130   5.5142
     5.5142   7.4365  11.1978  11.1978  14.2792  16.5965  18.2497  18.2497
    18.6145  19.5062

          k = 0.0000 0.1667 0.0000 (  3827 PWs)   bands (ev):

    -8.1495  -8.1390  -8.1390  -8.0758  -8.0741  -5.6853   5.2143   6.2744
     6.2744   8.0495   9.9622  10.7339  10.7339  14.5998  15.3917  16.7204
    18.2633  18.2633

          k =-0.0833 0.2500-0.0833 (  3854 PWs)   bands (ev):

    -8.1599  -8.1361  -8.1355  -8.0768  -8.0734  -5.5129   4.1593   5.9767
     6.0448   8.5324   9.9388  11.1847  11.2812  14.7140  15.4588  16.4391
    17.8836  19.2158

          k =-0.1667 0.3333-0.1667 (  3867 PWs)   bands (ev):

    -8.1743  -8.1325  -8.1310  -8.0773  -8.0727  -5.2096   2.8973   5.6903
     5.7352   8.5223  10.3804  11.5692  12.0070  14.6551  16.0891  16.2854
    18.0699  20.7925

          k =-0.2500 0.4167-0.2500 (  3858 PWs)   bands (ev):

    -8.1890  -8.1288  -8.1270  -8.0766  -8.0717  -4.8133   1.7188   5.4011
     5.4788   8.3259  10.7880  11.7022  12.8125  15.2344  16.0554  16.7210
    19.3147  22.3277

          k =-0.3333 0.5000-0.3333 (  3876 PWs)   bands (ev):

    -8.2005  -8.1261  -8.1245  -8.0750  -8.0711  -4.4059   0.7816   5.1230
     5.3717   8.1500  10.9326  11.6246  13.7766  15.6070  16.7796  17.6807
    19.4288  20.6126

          k = 0.5833-0.4167 0.5833 (  3862 PWs)   bands (ev):

    -8.2062  -8.1248  -8.1236  -8.0732  -8.0711  -4.1469   0.2769   4.9409
     5.3786   8.0559  10.9998  11.4885  14.4122  16.1547  17.6002  18.2454
    18.7041  19.6476

          k = 0.5000-0.3333 0.5000 (  3865 PWs)   bands (ev):

    -8.2049  -8.1247  -8.1243  -8.0725  -8.0722  -4.2048   0.3852   4.8749
     5.4960   8.0608  11.1121  11.3790  14.3945  16.0828  16.9453  17.9605
    18.9853  20.6238

          k = 0.4167-0.2500 0.4167 (  3862 PWs)   bands (ev):

    -8.1967  -8.1267  -8.1260  -8.0745  -8.0722  -4.5361   1.0599   4.9361
     5.7085   8.1620  11.2548  11.2840  13.6397  15.6712  15.7478  17.6684
    19.3874  21.5143

          k = 0.3333-0.1667 0.3333 (  3869 PWs)   bands (ev):

    -8.1835  -8.1305  -8.1287  -8.0759  -8.0729  -4.9530   2.0929   5.1311
     5.9858   8.3290  11.1093  11.2431  12.5835  15.0234  15.6734  16.7794
    18.8674  21.7682

          k = 0.2500-0.0833 0.2500 (  3848 PWs)   bands (ev):

    -8.1681  -8.1350  -8.1326  -8.0762  -8.0736  -5.3243   3.3004   5.4650
     6.2714   8.4479  10.7754  10.7967  11.8454  14.9098  15.5897  16.1944
    18.0032  19.9360

          k = 0.1667-0.0000 0.1667 (  3847 PWs)   bands (ev):

    -8.1544  -8.1387  -8.1369  -8.0757  -8.0742  -5.5865   4.4831   5.9517
     6.4699   8.2065  10.3636  10.5006  11.1662  15.0862  15.3359  15.9594
    18.1599  18.5260

          k = 0.0000 0.3333 0.0000 (  3863 PWs)   bands (ev):

    -8.1692  -8.1318  -8.1318  -8.0790  -8.0721  -5.3907   3.8297   5.6437
     5.6437   8.9802   9.5455  11.7492  11.7492  14.0293  16.0151  17.0529
    18.9572  18.9576

          k =-0.0833 0.4167-0.0833 (  3876 PWs)   bands (ev):

    -8.1817  -8.1277  -8.1270  -8.0807  -8.0710  -5.1344   2.9557   5.2797
     5.3377   9.0100   9.7310  12.1844  12.2736  14.0979  16.8644  17.0802
    18.8142  19.9978

          k =-0.1667 0.5000-0.1667 (  3880 PWs)   bands (ev):

    -8.1941  -8.1246  -8.1226  -8.0812  -8.0700  -4.7729   1.9399   4.8317
     5.1209   8.9886  10.2183  12.1875  12.5259  15.1455  17.1747  17.3821
    19.3462  21.5848

          k =-0.2500 0.5833-0.2500 (  3867 PWs)   bands (ev):

    -8.2040  -8.1227  -8.1197  -8.0800  -8.0695  -4.3699   1.0275   4.4088
     5.0227   8.8696  10.7671  12.4722  12.5015  16.2270  17.2921  18.1960
    19.4614  20.6000

          k = 0.6667-0.3333 0.6667 (  3864 PWs)   bands (ev):

    -8.2095  -8.1220  -8.1187  -8.0776  -8.0703  -4.0546   0.4244   4.0908
     5.0523   8.7932  10.9729  12.2742  13.4742  16.2603  17.8451  18.2774
    18.9143  19.9994

          k = 0.5833-0.2500 0.5833 (  3888 PWs)   bands (ev):

    -8.2096  -8.1222  -8.1195  -8.0753  -8.0723  -4.0045   0.3387   3.9162
     5.2049   8.8043  11.0896  12.0553  14.2927  15.8868  16.8185  17.5082
    19.9878  21.4957

          k = 0.5000-0.1667 0.5000 (  3875 PWs)   bands (ev):

    -8.2039  -8.1231  -8.1220  -8.0748  -8.0736  -4.2560   0.8047   3.9143
     5.4605   8.8945  11.2645  11.8283  13.4886  15.5591  16.4085  18.1037
    19.5361  21.6977

          k = 0.4167-0.0833 0.4167 (  3866 PWs)   bands (ev):

    -8.1937  -8.1261  -8.1250  -8.0767  -8.0729  -4.6489   1.6195   4.1282
     5.7790   9.0042  11.3825  11.5181  12.4141  14.7779  16.7308  17.9940
    19.3344  20.8026

          k = 0.3333 0.0000 0.3333 (  3873 PWs)   bands (ev):

    -8.1809  -8.1310  -8.1282  -8.0771  -8.0730  -5.0315   2.5242   4.6338
     6.0874   8.9422  10.9793  11.1073  12.1200  14.5913  16.2759  16.9756
    18.9132  20.3028

          k = 0.0000 0.5000 0.0000 (  3895 PWs)   bands (ev):

    -8.1931  -8.1218  -8.1218  -8.0840  -8.0694  -4.9277   2.5200   5.0086
     5.0086   8.5846   9.7034  13.0097  13.0097  13.8541  17.6043  17.7086
    20.1155  20.1155

          k =-0.0833 0.5833-0.0833 (  3888 PWs)   bands (ev):

    -8.2041  -8.1176  -8.1169  -8.0859  -8.0682  -4.6120   1.8031   4.5982
     4.7706   8.6156   9.6547  13.0006  13.5016  14.9759  17.9608  18.3944
    20.1858  21.2243

          k =-0.1667 0.6667-0.1667 (  3883 PWs)   bands (ev):

    -8.2122  -8.1160  -8.1135  -8.0857  -8.0678  -4.2378   1.0674   4.0427
     4.6565   8.7445  10.1561  12.7346  13.5845  16.4333  18.4204  18.6645
    20.0301  20.7279

          k = 0.7500-0.2500 0.7500 (  3889 PWs)   bands (ev):

    -8.2162  -8.1165  -8.1123  -8.0835  -8.0688  -3.9081   0.5079   3.5477
     4.6785   8.7684  11.1195  12.6981  13.3874  16.6362  18.4100  18.8066
    19.3955  20.3935

          k = 0.6667-0.1667 0.6667 (  3894 PWs)   bands (ev):

    -8.2158  -8.1181  -8.1132  -8.0802  -8.0711  -3.7812   0.3185   3.2297
     4.8333   8.8586  11.7437  13.0790  13.3499  15.3919  16.8928  18.9349
    20.3897  21.9049

          k = 0.5833-0.0833 0.5833 (  3876 PWs)   bands (ev):

    -8.2112  -8.1200  -8.1160  -8.0769  -8.0740  -3.9410   0.5716   3.1623
     5.1020   9.0323  11.9343  12.6844  13.3982  15.2927  15.6501  19.0777
    20.6365  22.0881

          k = 0.5000 0.0000 0.5000 (  3875 PWs)   bands (ev):

    -8.2034  -8.1223  -8.1207  -8.0761  -8.0743  -4.2806   1.0870   3.4367
     5.4432   9.1845  12.0527  12.1363  12.2649  14.9362  16.6755  18.9411
    19.6892  20.6228

          k = 0.0000 0.6667 0.0000 (  3876 PWs)   bands (ev):

    -8.2144  -8.1114  -8.1114  -8.0895  -8.0666  -4.3486   1.3329   4.5048
     4.5048   8.2044   9.1957  14.3585  14.3585  14.8862  18.3639  19.2922
    21.7020  21.7021

          k =-0.0833 0.7500-0.0833 (  3898 PWs)   bands (ev):

    -8.2217  -8.1086  -8.1077  -8.0907  -8.0660  -4.0262   0.7890   4.1119
     4.3625   8.3251   9.1238  14.2427  14.7600  16.2995  18.9608  19.3097
    20.8659  21.3703

          k = 0.8333-0.1667 0.8333 (  3886 PWs)   bands (ev):

    -8.2244  -8.1095  -8.1063  -8.0891  -8.0667  -3.7303   0.3687   3.5268
     4.3595   8.4653   9.8624  13.9677  14.6563  16.8302  18.6815  19.0591
    20.5811  21.0160

          k = 0.7500-0.0833 0.7500 (  3881 PWs)   bands (ev):

    -8.2228  -8.1125  -8.1073  -8.0856  -8.0689  -3.5881   0.2092   3.0466
     4.4960   8.5882  11.1101  13.8151  14.2472  15.4567  17.2300  20.0857
    21.1233  22.0733

          k = 0.6667-0.0000 0.6667 (  3875 PWs)   bands (ev):

    -8.2179  -8.1164  -8.1106  -8.0813  -8.0718  -3.6787   0.3307   2.8749
     4.7561   8.8075  12.2280  13.5769  13.8307  14.2097  16.1612  20.4604
    20.9985  22.3093

          k = 0.0000 0.8333 0.0000 (  3888 PWs)   bands (ev):

    -8.2287  -8.1037  -8.1037  -8.0937  -8.0647  -3.7779   0.3937   4.1870
     4.1870   8.0593   8.5953  15.6502  15.6502  16.2683  19.2798  19.7803
    20.5979  20.5979

          k = 0.9167-0.0833 0.9167 (  3893 PWs)   bands (ev):

    -8.2312  -8.1035  -8.1023  -8.0933  -8.0648  -3.5717   0.1163   3.8616
     4.1509   8.2301   8.7144  15.5271  15.8198  16.9792  19.1123  19.1390
    20.3994  20.9248

          k = 0.8333 0.0000 0.8333 (  3893 PWs)   bands (ev):

    -8.2288  -8.1071  -8.1035  -8.0903  -8.0665  -3.4990   0.0743   3.3493
     4.2578   8.3608   9.7355  15.0111  15.2732  16.0255  17.9702  19.7149
    21.5347  21.8515

          k = 0.0000-1.0000 0.0000 (  3892 PWs)   bands (ev):

    -8.2338  -8.1009  -8.1009  -8.0952  -8.0640  -3.5053  -0.0028   4.0787
     4.0787   8.1338   8.2511  16.3462  16.3462  17.0999  19.3743  19.7519
    19.7519  19.9232

          k =-0.1667 0.3333 0.0000 (  3852 PWs)   bands (ev):

    -8.1715  -8.1328  -8.1309  -8.0781  -8.0724  -5.2986   3.3649   5.3007
     5.9609   8.9697   9.8743  11.5290  11.8973  14.3850  16.2266  16.4317
    18.5896  19.3163

          k =-0.2500 0.4167-0.0833 (  3873 PWs)   bands (ev):

    -8.1850  -8.1288  -8.1267  -8.0787  -8.0716  -4.9653   2.3453   4.7760
     5.7304   9.0412  10.3039  11.9283  12.1460  14.7011  16.4724  17.1532
    18.8856  20.8444

          k =-0.3333 0.5000-0.1667 (  3867 PWs)   bands (ev):

    -8.1973  -8.1255  -8.1232  -8.0779  -8.0711  -4.5618   1.3442   4.4507
     5.4561   8.9041  10.7475  11.9974  12.7041  15.4701  16.5420  18.0299
    19.3046  21.3492

          k = 0.5833-0.4167 0.7500 (  3874 PWs)   bands (ev):

    -8.2059  -8.1238  -8.1210  -8.0761  -8.0712  -4.1915   0.5823   4.2776
     5.2503   8.7826  10.8351  11.9990  13.6787  16.0151  16.9876  18.0422
    19.2130  20.7586

          k = 0.5000-0.3333 0.6667 (  3874 PWs)   bands (ev):

    -8.2090  -8.1232  -8.1202  -8.0749  -8.0716  -4.0300   0.2857   4.2240
     5.1749   8.7378  10.8247  11.9865  14.3941  15.9071  17.1716  18.1520
    18.8474  20.9977

          k =-0.1667 0.5000 0.0000 (  3878 PWs)   bands (ev):

    -8.1934  -8.1234  -8.1221  -8.0826  -8.0698  -4.8478   2.2512   4.6661
     5.2018   9.0983   9.8109  12.2224  12.8855  14.6276  17.3856  17.6830
    19.4269  20.5953

          k =-0.2500 0.5833-0.0833 (  3880 PWs)   bands (ev):

    -8.2037  -8.1209  -8.1179  -8.0829  -8.0692  -4.4767   1.4486   4.1546
     4.9658   9.2562  10.2262  11.9861  13.2896  15.5825  17.7498  18.3574
    19.6924  21.1055

          k = 0.6667-0.3333 0.8333 (  3882 PWs)   bands (ev):

    -8.2107  -8.1200  -8.1152  -8.0814  -8.0696  -4.1019   0.7408   3.7792
     4.7933   9.2332  10.8632  12.1081  13.3730  16.3126  17.7262  18.6699
    19.3610  20.9424

          k = 0.5833-0.2500 0.7500 (  3879 PWs)   bands (ev):

    -8.2135  -8.1203  -8.1144  -8.0791  -8.0710  -3.8711   0.3503   3.5384
     4.7765   9.2475  10.9957  12.7127  13.6554  15.4517  18.0546  18.4964
    19.0068  21.6323

          k = 0.5000-0.1667 0.6667 (  3880 PWs)   bands (ev):

    -8.2117  -8.1211  -8.1155  -8.0778  -8.0723  -3.9292   0.4502   3.4579
     4.9200   9.3368  11.0035  12.6309  13.8120  15.2342  16.9116  18.3823
    20.1565  22.1533

          k = 0.4167-0.0833 0.5833 (  3875 PWs)   bands (ev):

    -8.2056  -8.1224  -8.1184  -8.0786  -8.0719  -4.2340   0.9760   3.5900
     5.1862   9.4591  10.9862  12.0483  13.1335  15.4213  16.8647  18.6995
    19.7154  21.1130

          k = 0.3333 0.0000 0.5000 (  3869 PWs)   bands (ev):

    -8.1962  -8.1249  -8.1224  -8.0793  -8.0714  -4.6197   1.6806   4.0139
     5.5006   9.4611  10.5688  11.8618  12.5704  14.8927  17.3068  17.9730
    19.6492  20.4748

          k =-0.1667 0.6667-0.0000 (  3903 PWs)   bands (ev):

    -8.2132  -8.1142  -8.1122  -8.0876  -8.0673  -4.2889   1.2172   4.1840
     4.5422   8.7524   9.5308  13.0012  14.3100  15.7487  18.5854  18.8327
    20.6909  21.0958

          k = 0.7500-0.2500 0.9167 (  3886 PWs)   bands (ev):

    -8.2186  -8.1137  -8.1092  -8.0868  -8.0676  -3.9439   0.6712   3.6853
     4.3636   9.0035  10.0413  12.7204  14.5886  16.5098  18.2267  19.4709
    20.0580  21.2612

          k = 0.6667-0.1667 0.8333 (  3881 PWs)   bands (ev):

    -8.2200  -8.1153  -8.1084  -8.0843  -8.0693  -3.6957   0.3263   3.2375
     4.3660   9.0947  11.1354  12.5520  14.3457  15.7003  18.3367  19.1517
    20.0428  21.8957

          k = 0.5833-0.0833 0.7500 (  3879 PWs)   bands (ev):

    -8.2178  -8.1176  -8.1097  -8.0812  -8.0717  -3.6783   0.3159   2.9986
     4.5366   9.2576  11.8399  12.7451  13.8874  14.7849  16.9617  19.9363
    20.5730  22.6859

          k = 0.5000 0.0000 0.6667 (  3869 PWs)   bands (ev):

    -8.2126  -8.1200  -8.1133  -8.0791  -8.0728  -3.8996   0.5982   3.0881
     4.8340   9.4651  11.8440  11.9983  13.9448  15.0227  16.1371  19.9681
    20.2851  21.6755

          k = 0.8333-0.1667 1.0000 (  3892 PWs)   bands (ev):

    -8.2265  -8.1071  -8.1048  -8.0911  -8.0658  -3.7472   0.3865   3.9091
     4.0899   8.5896   9.0306  14.2196  15.5542  16.7607  18.6519  19.5477
    20.5723  21.3091

          k = 0.7500-0.0833 0.9167 (  3885 PWs)   bands (ev):

    -8.2268  -8.1092  -8.1041  -8.0890  -8.0671  -3.5486   0.1607   3.4259
     4.0511   8.8312   9.8103  13.9285  15.0632  16.5322  18.5521  19.2266
    20.7670  22.2892

          k = 0.6667 0.0000 0.8333 (  3883 PWs)   bands (ev):

    -8.2233  -8.1133  -8.1058  -8.0854  -8.0695  -3.5244   0.1704   3.0239
     4.2259   9.0079  11.1238  13.5455  13.8734  15.8061  17.4869  20.0612
    21.4152  22.5460

          k =-0.1667-1.0000-0.0000 (  3894 PWs)   bands (ev):

    -8.2312  -8.1044  -8.1023  -8.0923  -8.0653  -3.4938   0.0354   3.8503
     3.9004   8.6238   8.7477  15.3786  15.4808  17.1430  18.6876  19.6618
    19.7732  21.7028

          k = 0.6667-0.3333 1.0000 (  3895 PWs)   bands (ev):

    -8.2113  -8.1191  -8.1133  -8.0831  -8.0696  -4.1247   0.9293   3.5821
     4.6725   9.8939  10.3217  11.6620  14.1636  15.7601  17.4491  19.3606
    20.1208  20.7754

          k = 0.5833-0.2500 0.9167 (  3877 PWs)   bands (ev):

    -8.2160  -8.1186  -8.1102  -8.0820  -8.0708  -3.8109   0.4856   3.2562
     4.4008  10.0200  10.8780  11.8314  14.4025  15.3583  17.3931  19.7192
    20.0913  22.1495

          k = 0.5000-0.1667 0.8333 (  3880 PWs)   bands (ev):

    -8.2176  -8.1186  -8.1091  -8.0811  -8.0715  -3.6779   0.3015   3.1557
     4.2949  10.0250  10.9212  12.5935  13.8354  15.0137  18.4386  19.0217
    19.7131  22.9082

          k = 0.6667-0.1667 1.0000 (  3875 PWs)   bands (ev):

    -8.2218  -8.1141  -8.1062  -8.0860  -8.0687  -3.6703   0.3527   3.4009
     3.9709   9.8444  10.1119  12.4053  14.8570  16.2321  17.9766  19.8725
    20.6389  21.8512

          k = 0.5833-0.0833 0.9167 (  3885 PWs)   bands (ev):

    -8.2219  -8.1157  -8.1053  -8.0840  -8.0705  -3.5251   0.2070   3.1509
     3.8420  10.0782  11.1591  12.2015  13.5200  16.3816  18.5644  19.1852
    20.7428  22.3406

          k = 0.5000 0.0000 0.8333 (  3873 PWs)   bands (ev):

    -8.2198  -8.1173  -8.1066  -8.0824  -8.0715  -3.5843   0.2768   3.0474
     4.0301  10.2396  11.5778  11.7946  13.4501  15.9443  17.6403  20.0120
    20.9624  21.9808

          k =-0.3333-1.0000 0.0000 (  3884 PWs)   bands (ev):

    -8.2256  -8.1120  -8.1038  -8.0869  -8.0685  -3.4705   0.1184   3.4570
     3.6014   9.8526   9.9317  13.4900  13.8107  17.2032  18.5207  19.5898
    19.9136  23.3148

          k =-0.5000-1.0000 0.0000 (  3884 PWs)   bands (ev):

    -8.2224  -8.1161  -8.1043  -8.0837  -8.0711  -3.4588   0.1637   3.2799
     3.4716  10.9564  11.2685  11.8290  12.6023  17.2324  18.5048  19.5656
    19.9958  23.1081

     the Fermi energy is     6.6744 ev

!    total energy              =    -144.02908062 Ry
     estimated scf accuracy    <          9.5E-11 Ry
     smearing contrib. (-TS)   =      -0.00000000 Ry
     internal energy E=F+TS    =    -144.02908062 Ry

     The total energy is F=E-TS. E is the sum of the following terms:
     one-electron contribution =     -85.15985702 Ry
     hartree contribution      =      53.78773394 Ry
     xc contribution           =     -21.20744903 Ry
     ewald contribution        =     -91.44950852 Ry

     convergence has been achieved in   8 iterations

     Writing all to output data dir out/mp-2534.save/
 
     init_run     :      0.24s CPU      0.31s WALL (       1 calls)
     electrons    :      9.69s CPU     11.78s WALL (       1 calls)

     Called by init_run:
     wfcinit      :      0.19s CPU      0.21s WALL (       1 calls)
     potinit      :      0.01s CPU      0.01s WALL (       1 calls)
     hinit0       :      0.01s CPU      0.04s WALL (       1 calls)

     Called by electrons:
     c_bands      :      7.62s CPU      8.97s WALL (       9 calls)
     sum_band     :      2.00s CPU      2.63s WALL (       9 calls)
     v_of_rho     :      0.04s CPU      0.04s WALL (       9 calls)
     mix_rho      :      0.02s CPU      0.06s WALL (       9 calls)

     Called by c_bands:
     init_us_2    :      0.08s CPU      0.08s WALL (     684 calls)
     init_us_2:cp :      0.07s CPU      0.08s WALL (     684 calls)
     cegterg      :      4.77s CPU      4.97s WALL (     324 calls)

     Called by *egterg:
     cdiaghg      :      0.51s CPU      0.53s WALL (    1352 calls)
     h_psi        :      4.00s CPU      4.18s WALL (    1424 calls)
     g_psi        :      0.02s CPU      0.03s WALL (    1064 calls)

     Called by h_psi:
     h_psi:calbec :      0.12s CPU      0.12s WALL (    1424 calls)
     vloc_psi     :      3.79s CPU      3.95s WALL (    1424 calls)
     add_vuspsi   :      0.08s CPU      0.08s WALL (    1424 calls)

     General routines
     calbec       :      0.11s CPU      0.12s WALL (    1424 calls)
     fft          :      0.02s CPU      0.05s WALL (      90 calls)
     ffts         :      0.00s CPU      0.00s WALL (       9 calls)
     fftw         :      5.22s CPU      5.49s WALL (   42352 calls)
     davcio       :      0.08s CPU      1.41s WALL (    1112 calls)
 
     Parallel routines
 
     PWSCF        :     10.10s CPU     12.62s WALL

 
   This run was terminated on:   9:54:26   1Dec2023            

=------------------------------------------------------------------------------=
   JOB DONE.
=------------------------------------------------------------------------------=
