
     Program PWSCF v.7.1 starts on  5Dec2023 at  4:15:21 

     This program is part of the open-source Quantum ESPRESSO suite
     for quantum simulation of materials; please cite
         "P. Giannozzi et al., J. Phys.:Condens. Matter 21 395502 (2009);
         "P. Giannozzi et al., J. Phys.:Condens. Matter 29 465901 (2017);
         "P. Giannozzi et al., J. Chem. Phys. 152 154105 (2020);
          URL http://www.quantum-espresso.org", 
     in publications or presentations arising from this work. More details at
     http://www.quantum-espresso.org/quote

     Parallel version (MPI), running on    24 processors

     MPI processes distributed on     1 nodes
     121714 MiB available memory on the printing compute node when the environment starts
 
     Reading input from pw_mp-2133_nscf_k310_E72.in
Warning: card &IONS ignored
Warning: card / ignored
Warning: card &CELL ignored
Warning: card / ignored

     Current dimensions of program PWSCF are:
     Max number of different atomic species (ntypx) = 10
     Max number of k-points (npk) =  40000
     Max angular momentum in pseudopotentials (lmaxx) =  4

     Atomic positions and unit cell read from directory:
     out/mp-2133.save/
     Atomic positions from file used, from input discarded
 
 
     R & G space division:  proc/nbgrp/npool/nimage =      24
     Subspace diagonalization in iterative solution of the eigenvalue problem:
     one sub-group per band group will be used
     scalapack distributed-memory algorithm (size of sub-group:  4*  4 procs)

 
     Parallelization info
     --------------------
     sticks:   dense  smooth     PW     G-vecs:    dense   smooth      PW
     Min          31      31      8                 1103     1103     170
     Max          32      32      9                 1110     1110     181
     Sum         745     745    211                26513    26513    4235
 
     Using Slab Decomposition
 


     bravais-lattice index     =            4
     lattice parameter (alat)  =       6.1177  a.u.
     unit-cell volume          =     319.8517 (a.u.)^3
     number of atoms/cell      =            4
     number of atomic types    =            2
     number of electrons       =        52.00
     number of Kohn-Sham states=          912
     kinetic-energy cutoff     =      72.0000  Ry
     charge density cutoff     =     288.0000  Ry
     Exchange-correlation= PBE
                           (   1   4   3   4   0   0   0)

     celldm(1)=   6.117706  celldm(2)=   0.000000  celldm(3)=   1.613066
     celldm(4)=   0.000000  celldm(5)=   0.000000  celldm(6)=   0.000000

     crystal axes: (cart. coord. in units of alat)
               a(1) = (   1.000000   0.000000   0.000000 )  
               a(2) = (  -0.500000   0.866025   0.000000 )  
               a(3) = (   0.000000   0.000000   1.613066 )  

     reciprocal axes: (cart. coord. in units 2 pi/alat)
               b(1) = (  1.000000  0.577350  0.000000 )  
               b(2) = (  0.000000  1.154701  0.000000 )  
               b(3) = (  0.000000  0.000000  0.619937 )  


     PseudoPot. # 1 for O  read from file:
     /usr/scratch4/magr4985/MG/HTDF/pseudo/SG15/O.upf
     MD5 check sum: e36c48deb68f4e355fffe4602be2c42c
     Pseudo is Norm-conserving, Zval =  6.0
     Generated using ONCVPSP code by D. R. Hamann
     Using radial grid of  602 points,  4 beta functions with: 
                l(1) =   0
                l(2) =   0
                l(3) =   1
                l(4) =   1

     PseudoPot. # 2 for Zn read from file:
     /usr/scratch4/magr4985/MG/HTDF/pseudo/SG15/Zn.upf
     MD5 check sum: 732f41c0cd6489a4b50a33b4ec99a2d3
     Pseudo is Norm-conserving, Zval = 20.0
     Generated using ONCVPSP code by D. R. Hamann
     Using radial grid of  602 points,  6 beta functions with: 
                l(1) =   0
                l(2) =   0
                l(3) =   1
                l(4) =   1
                l(5) =   2
                l(6) =   2

     atomic species   valence    mass     pseudopotential
        O              6.00    15.99940     O ( 1.00)
        Zn            20.00    65.40900     Zn( 1.00)

      6 Sym. Ops. (no inversion) found



   Cartesian axes

     site n.     atom                  positions (alat units)
         1           Zn  tau(   1) = (   0.0000000   0.5773502   0.8074876  )
         2           Zn  tau(   2) = (   0.5000000   0.2886752   0.0009545  )
         3           O   tau(   3) = (   0.0000000   0.5773502   1.4190439  )
         4           O   tau(   4) = (   0.5000000   0.2886752   0.6125108  )

     number of k points=    24  Gaussian smearing, width (Ry)=  0.0005
                       cart. coord. in units 2pi/alat
        k(    1) = (   0.0000000   0.0000000   0.0000000), wk =   0.0138889
        k(    2) = (   0.0000000   0.0000000   0.1549843), wk =   0.0277778
        k(    3) = (   0.0000000   0.0000000  -0.3099687), wk =   0.0138889
        k(    4) = (   0.0000000   0.1924501   0.0000000), wk =   0.0833333
        k(    5) = (   0.0000000   0.1924501   0.1549843), wk =   0.0833333
        k(    6) = (   0.0000000   0.1924501  -0.3099687), wk =   0.0833333
        k(    7) = (   0.0000000   0.3849002   0.0000000), wk =   0.0833333
        k(    8) = (   0.0000000   0.3849002   0.1549843), wk =   0.0833333
        k(    9) = (   0.0000000   0.3849002  -0.3099687), wk =   0.0833333
        k(   10) = (   0.0000000  -0.5773503   0.0000000), wk =   0.0416667
        k(   11) = (   0.0000000  -0.5773503   0.1549843), wk =   0.0833333
        k(   12) = (   0.0000000  -0.5773503  -0.3099687), wk =   0.0416667
        k(   13) = (   0.1666667   0.2886751   0.0000000), wk =   0.0833333
        k(   14) = (   0.1666667   0.2886751   0.1549843), wk =   0.1666667
        k(   15) = (   0.1666667   0.2886751  -0.3099687), wk =   0.0833333
        k(   16) = (   0.1666667   0.4811252   0.0000000), wk =   0.1666667
        k(   17) = (   0.1666667   0.4811252   0.1549843), wk =   0.1666667
        k(   18) = (   0.1666667   0.4811252  -0.3099687), wk =   0.1666667
        k(   19) = (   0.3333333   0.5773503   0.0000000), wk =   0.0277778
        k(   20) = (   0.3333333   0.5773503   0.1549843), wk =   0.0555556
        k(   21) = (   0.3333333   0.5773503  -0.3099687), wk =   0.0277778
        k(   22) = (   0.0000000  -0.1924501   0.1549843), wk =   0.0833333
        k(   23) = (   0.0000000  -0.3849002   0.1549843), wk =   0.0833333
        k(   24) = (  -0.1666667  -0.4811252   0.1549843), wk =   0.1666667

     Dense  grid:    26513 G-vectors     FFT dimensions: (  36,  36,  54)

     Estimated max dynamical RAM per process >      73.80 MB

     Estimated total dynamical RAM >       1.73 GB

     The potential is recalculated from file :
     out/mp-2133.save/charge-density

     Starting wfcs are random

     Band Structure Calculation
     Davidson diagonalization with overlap

     ethr =  5.00E-06,  avg # of iterations = 10.0

     total cpu time spent up to now is      534.3 secs

     End of band structure calculation

          k = 0.0000 0.0000 0.0000 (  3321 PWs)   bands (ev):

  -113.3535-113.3533 -67.5648 -67.5617 -67.5617 -67.5616 -67.5612 -67.5612
    -7.9258  -7.1981   4.3686   4.3686   4.4145   4.4950   4.5605   4.5605
     5.5226   5.5226   5.7321   5.7321   6.0234   9.3224   9.3224  10.0264
    10.1136  10.1136  10.9804  15.4373  18.3688  23.1304  23.1304  24.2015
    24.3955  24.3955  26.7575  28.4000  28.4000  30.0821  30.0821  30.1502
    31.4476  33.4071  35.0836  35.0836  37.6906  38.6636  38.6636  39.0077
    41.3678  41.3678  44.7427  44.7428  45.4483  47.0423  47.0424  49.3679
    49.3679  51.1121  52.2559  54.2921  57.2018  58.5064  58.5064  60.2885
    60.4834  60.7416  61.1917  61.1917  62.8358  62.8358  64.6485  65.6528
    66.0364  66.0364  66.3264  66.6884  66.6884  67.4707  67.4707  70.1127
    70.1128  70.1363  71.3792  71.3792  73.2964  73.2964  74.1872  74.2408
    74.8993  74.8993  77.5789  77.5789  77.7155  78.1695  78.1695  78.6354
    79.8164  79.8586  80.3422  80.6286  80.6286  80.6996  80.6996  80.7203
    81.6525  81.6525  83.4464  83.6151  83.6151  84.3843  85.8978  85.8978
    87.7662  88.6861  89.0949  89.0949  89.3631  89.3631  90.7648  95.7684
    95.7684  96.7877  96.7877  97.6271  97.8669  98.7790 100.2011 100.8574
   100.8574 101.9722 103.6707 103.6707 104.4020 104.4919 104.4919 104.6981
   104.6981 105.7400 105.7400 107.0198 107.0198 107.2456 107.3168 107.6251
   107.6251 107.7883 109.8048 109.8048 110.0495 110.0495 111.4856 111.4856
   114.7259 117.4880 117.7171 117.7171 119.8466 122.0066 123.1097 123.1097
   124.1586 124.1586 125.8878 125.8878 126.1476 126.4215 126.7163 127.5662
   127.9798 128.4992 128.8494 128.8494 129.4435 129.4435 129.6193 130.9180
   131.9928 131.9928 132.9097 134.7168 135.2010 135.2010 136.4325 136.4325
   137.2216 137.2216 137.9711 138.1532 138.3677 138.8856 138.8856 140.1152
   140.6775 140.6776 140.9299 140.9299 142.2479 142.4837 142.4837 142.8656
   143.1572 143.1572 143.2119 143.9406 143.9406 143.9457 144.0591 144.0591
   145.7362 145.7362 146.2015 146.2015 146.4531 146.5226 147.9304 147.9304
   148.7751 148.9768 148.9768 151.5187 152.1765 153.2636 153.6023 153.6023
   153.7922 154.1529 154.1529 154.2505 155.6168 155.6168 156.0440 156.0440
   156.5763 156.5763 156.7747 157.3547 157.3547 157.4181 157.4181 157.8975
   158.0504 158.0504 158.4024 159.6689 159.6689 160.2170 161.4523 161.4523
   161.5069 162.3108 163.4948 163.4948 163.6020 163.7829 163.7829 163.9307
   163.9307 166.3920 166.5389 166.5389 167.1243 167.7148 169.5497 169.5497
   170.4069 170.8218 171.5746 171.5746 172.7288 172.7288 173.0361 173.6519
   173.6519 174.2858 176.6313 176.6313 177.1068 177.1068 177.3947 177.5357
   179.0431 179.5132 179.8198 179.8198 180.6823 180.6823 180.8278 181.3202
   181.3202 181.3334 182.2667 182.2667 183.1398 183.9598 183.9598 184.5310
   184.7322 184.7322 185.2311 185.3591 186.6673 186.6673 187.1220 187.1220
   189.8828 190.9061 191.2294 191.2294 191.6137 192.3757 192.3757 192.4542
   192.7656 192.7656 193.7422 193.7422 194.2009 194.3788 194.3996 194.3996
   195.6592 195.6592 196.0079 196.0293 197.5094 197.5094 199.4487 203.3030
   203.3030 203.3097 203.3097 203.3471 206.4312 206.8620 206.8620 208.3786
   211.0566 211.0566 211.0954 211.5385 211.8060 211.8060 212.4470 212.4470
   214.0454 214.0454 214.4449 214.6096 214.6096 214.7785 214.7785 214.9146
   214.9146 215.7550 216.3712 216.6323 216.6323 216.9272 217.2997 217.6132
   218.0814 218.0814 218.2131 218.5594 218.5594 218.6410 219.6934 219.6934
   220.4303 220.4303 220.9831 220.9831 221.0347 221.0347 221.1573 221.9349
   222.2808 222.2808 223.0236 223.0236 223.2151 223.6841 223.9972 224.0312
   224.3449 225.3098 225.3098 226.3814 226.3814 227.1067 227.1067 228.5149
   228.5149 228.8885 229.9112 229.9112 230.0663 230.0663 232.2477 232.4164
   233.8107 236.0237 236.2322 236.6010 236.6010 239.1508 239.1508 240.3994
   240.3994 241.4785 241.6091 241.6340 242.1564 244.2037 244.2037 244.9140
   245.0529 245.0529 245.6651 245.6651 245.8090 245.8090 245.8371 245.8990
   246.7105 247.5740 247.5740 247.9659 248.4497 248.4497 249.1998 249.1998
   249.2519 249.2519 249.6609 249.6620 249.9949 250.8311 250.8311 251.2172
   251.2172 251.9790 251.9790 252.0794 252.3805 252.4210 252.8238 252.8312
   252.8312 253.1680 253.1680 253.4498 253.4498 254.7757 254.7757 255.9173
   255.9173 256.1166 256.3005 256.3005 256.3150 256.4930 256.5237 256.5685
   257.2886 257.2886 257.4064 257.5394 257.5394 257.6177 258.3941 258.5142
   258.5142 259.9613 259.9613 260.4567 260.4567 261.7540 261.7540 262.5704
   263.3706 263.5506 263.5506 263.6722 263.6722 264.2516 265.1849 265.5075
   265.5075 266.6036 267.1929 267.1929 267.6317 267.8204 267.8242 268.0324
   268.1300 268.1300 268.6383 269.0628 269.2508 269.2508 269.8136 269.8136
   270.3464 271.0642 271.1945 271.1945 271.2676 271.2676 271.4558 271.9500
   271.9500 272.0771 272.0771 272.2372 272.3342 272.3342 272.5296 272.5743
   272.5743 273.4446 273.6979 273.7327 273.7327 274.0148 274.0148 274.2363
   274.2363 274.4520 274.5634 274.5634 275.1143 275.6671 275.8582 275.8582
   275.8856 275.8856 276.5055 276.7097 276.7097 276.9122 278.3933 281.3079
   281.3079 282.0795 283.5695 283.5695 284.7056 284.7653 284.7653 285.5649
   285.5649 287.8168 287.8168 288.8244 289.2195 289.3635 289.3635 290.0811
   290.4386 290.4386 291.4025 291.4026 292.7130 295.4712 295.4801 295.4801
   295.6319 295.9070 296.4632 296.4632 296.6018 296.8524 296.8524 297.3731
   297.3731 298.1710 298.1710 298.6874 298.6874 299.0039 299.1613 299.6502
   299.6502 299.6836 300.4629 300.5291 300.5291 301.4240 301.4240 301.9712
   303.4442 303.5221 303.5221 303.5723 303.5723 304.8892 305.7224 306.0232
   306.0232 306.1033 306.4684 307.7579 307.7579 309.2596 309.2596 309.4504
   309.7093 311.4631 311.4631 311.8773 311.8773 312.1855 312.1855 312.4364
   312.5676 312.5676 313.2616 313.2616 313.2672 313.4708 313.7982 316.4919
   317.3893 319.3738 319.3738 319.6214 319.6214 321.4815 321.4815 321.5269
   321.8315 321.8315 322.2330 322.2330 322.4122 323.2465 323.2465 323.5721
   323.5721 324.0834 324.0834 324.3051 324.8509 325.1460 325.2387 325.2578
   325.4980 325.4980 326.3120 327.1519 327.1519 327.8818 327.8818 328.4735
   328.6065 328.6065 328.8214 329.6737 329.6737 330.5227 330.5469 331.2226
   331.2226 331.2375 331.2375 331.8949 331.8949 332.0583 332.6244 333.0749
   333.5443 333.5443 333.6249 333.6249 334.0305 334.0305 334.4767 334.4767
   334.5669 334.5694 334.5871 334.8075 334.9782 335.5488 335.5488 336.3278
   336.9805 336.9805 337.5728 337.6572 337.6744 337.6744 338.3653 338.3653
   339.9330 339.9330 340.4124 342.2002 342.2002 342.9650 342.9650 343.5644
   344.0736 344.4723 344.4723 345.4146 345.4146 345.7460 345.7460 346.6455
   348.0982 348.2640 348.4079 348.4079 348.4480 348.4480 350.3316 350.8456
   351.1258 351.1258 351.4950 351.9354 352.7661 352.9331 352.9331 354.6610
   354.7406 355.8903 355.8903 357.0873 357.0873 357.3163 357.3163 357.9001
   357.9001 358.4955 358.4955 359.3249 359.8418 360.1102 360.5613 360.9307
   360.9307 361.4561 361.7849 361.8424 361.8424 362.7294 362.7294 362.7341
   363.7217 364.5766 364.5766 364.6163 365.1270 365.1270 366.6208 366.6208
   366.7632 366.8647 366.8647 367.0443 367.0704 367.0704 367.5028 367.7360
   367.7360 367.8242 367.8242 368.0776 368.0776 368.1499 368.1878 369.7704
   369.7704 369.9144 370.6569 371.3764 371.3764 371.4800 371.4800 371.7751
   371.9074 371.9074 372.0067 372.7258 372.7259 372.9741 372.9741 373.6958
   374.6179 374.6179 375.2650 375.2650 375.4038 377.0253 377.0253 377.7896
   378.6188 378.9264 379.0608 379.0608 379.2051 379.2051 380.9876 381.1242
   381.1242 381.3432 381.5128 381.8278 381.9862 381.9862 382.2322 382.3797
   384.0187 384.0187 384.4514 384.4514 384.7291 384.7291 384.7330 384.9063
   385.2569 385.2569 386.0941 386.1517 386.1517 386.2441 386.2441 386.6411
   386.8451 386.8451 387.1125 387.2621 387.2621 387.4336 387.4487 387.7600
   387.7600 388.1463 388.1463 388.6764 388.6764 389.5553 389.5784 389.5784
   389.7158 390.3255 391.1557 391.1557 391.5528 391.9262 392.2941 392.3996
   392.3996 393.7736 393.7736 393.8056 394.3461 394.3461 394.8765 394.8765
   395.6166 395.6166 395.8274 396.4276 396.4447 398.5598 398.5599 398.6897
   398.6897 398.8222 399.1102 399.2210 399.2210 399.3491 399.7583 399.7583
   399.9218 400.3541 401.1836 401.1836 401.3426 401.3426 402.2551 402.3743
   402.3743 402.5177 402.5177 402.9939 402.9939 403.1450 403.3774 403.3774
   403.4304 403.8718 403.8718 404.5763 404.7238 404.7238 405.2047 405.2047
   405.2295 405.2295 405.6774 405.7603 405.7603 405.8349 405.9479 405.9479

          k = 0.0000 0.0000 0.1550 (  3315 PWs)   bands (ev):

  -113.3534-113.3533 -67.5643 -67.5621 -67.5617 -67.5617 -67.5613 -67.5613
    -7.8241  -7.3098   4.2786   4.3153   4.3848   4.3848   4.5193   4.5193
     5.5635   5.5635   5.7129   5.7129   6.6665   9.0832   9.4404   9.4404
    10.0001  10.0001  12.1027  14.9079  18.8575  22.4866  23.1536  23.1536
    24.0007  24.0007  27.3997  29.0390  29.0390  29.6735  30.7002  30.7002
    33.5066  33.5890  34.4580  34.4580  37.5212  37.5212  37.8301  38.9912
    41.6953  41.6953  42.9459  42.9459  45.0813  46.1989  50.7311  50.7312
    50.7697  50.7697  53.4858  57.4972  58.3906  58.7433  58.7433  59.2017
    59.2017  59.5458  60.5998  60.6861  60.6861  61.5144  63.2128  63.2128
    63.4148  66.4398  67.2390  67.2390  67.4011  67.4011  67.7499  68.6471
    68.6471  69.0545  73.6647  73.6647  73.9481  74.4435  74.9794  74.9794
    75.2307  75.5939  75.5948  75.5949  77.6025  78.0364  78.0364  78.8132
    78.8132  78.8425  80.6802  80.6802  81.8071  81.8071  82.1394  83.4071
    83.4071  84.4237  84.4237  85.2735  85.3124  86.0795  86.0999  86.6801
    86.6801  88.1817  88.1817  88.9616  90.9528  90.9528  93.0622  93.4066
    93.4066  95.2162  95.5633  95.5633  96.1241  96.9856  96.9856  98.3003
    99.5451  99.5451  99.7134 100.0137 100.0137 101.0382 102.0428 102.0428
   103.6733 104.2391 104.2391 107.0274 107.1782 107.1782 108.1861 112.0220
   112.0221 113.6617 114.1707 114.1707 114.5084 115.9941 116.7286 116.7286
   117.4117 117.4117 118.4915 119.0283 119.0283 119.6268 119.6268 121.4110
   121.9251 121.9251 124.1472 125.1861 126.7051 127.1121 128.1281 128.8996
   128.8996 129.0678 129.0678 130.1148 130.1148 130.6902 131.3924 132.9715
   132.9715 134.3919 134.3919 134.6520 134.8457 134.8457 134.8870 135.0776
   136.0435 136.6214 136.8336 136.8336 137.3528 137.6112 137.6112 138.0101
   139.0356 139.0356 139.4117 139.4117 140.9884 140.9884 141.3177 142.0713
   142.0713 142.6042 142.8310 144.2411 144.2411 144.2635 144.2635 144.9569
   144.9569 144.9570 145.1664 145.1664 145.3753 146.9214 146.9214 147.5863
   147.6127 147.9035 147.9035 150.2696 150.2696 150.6349 152.2045 152.2045
   152.6268 152.7436 153.0470 153.1582 153.1582 153.8375 154.0710 154.0710
   154.9225 154.9225 155.6491 155.6491 157.6027 158.0497 159.1516 159.7211
   159.7211 160.2058 161.5028 161.5028 162.8243 163.5579 163.5579 164.0428
   164.0971 164.0971 164.3114 166.7086 166.7086 166.9998 167.8688 167.8688
   168.5891 169.4022 169.8128 170.0014 170.0014 170.5442 170.5443 171.0153
   171.0153 171.4364 171.4364 171.4702 172.8930 173.2799 173.2799 173.7894
   173.7894 174.9368 175.2006 175.2006 177.1498 177.1498 177.1584 177.2739
   177.3205 177.5471 177.5471 178.0244 178.0244 179.0324 179.6212 180.0019
   180.2826 180.2826 180.9400 180.9400 182.4612 182.4612 182.7604 183.4997
   184.8067 184.8067 185.1616 185.1616 186.2880 186.4815 187.7901 187.9011
   187.9011 188.5073 190.3594 190.3594 191.3932 191.3932 191.6522 192.6904
   193.9177 193.9256 193.9256 194.4121 194.4121 195.7818 197.4199 197.4199
   197.5811 197.5811 197.7704 198.9427 198.9427 199.2668 199.9378 199.9378
   200.6957 202.7983 202.7983 202.8490 203.4483 203.4483 205.4421 205.7986
   205.7986 206.2128 206.2128 206.6078 206.6078 206.7913 207.0829 208.0153
   208.0153 208.9780 210.0473 210.9693 210.9693 211.3980 212.8043 212.8043
   212.8668 212.8668 213.1464 213.8999 214.6361 216.4886 216.4886 217.2140
   217.2140 218.8639 218.8639 221.2179 221.4993 222.4192 222.5242 222.9472
   222.9472 223.4182 224.9068 224.9068 224.9174 224.9174 226.1518 226.5741
   226.5741 226.8154 227.9362 227.9362 228.6871 228.6871 228.8372 229.0989
   230.5027 230.5052 230.9313 230.9313 231.6437 231.6437 232.0329 232.0329
   233.4563 233.4563 234.9214 235.0857 235.3875 235.3875 235.5029 235.6284
   235.6284 236.3376 236.6164 236.6164 237.1296 237.1296 237.7953 237.7953
   238.7863 239.4983 239.5328 239.8773 239.8773 240.2608 241.7255 242.0492
   242.0492 242.0589 242.0589 242.4848 243.5242 245.2466 245.4212 245.4212
   245.7320 245.7320 246.0816 246.1654 246.9552 246.9552 246.9890 246.9890
   247.1833 247.3973 248.0225 248.0225 248.7745 248.8554 248.8554 249.4819
   249.6264 249.6264 249.7328 249.7328 251.1283 251.1296 251.1296 251.2455
   251.3666 251.3666 251.8273 253.5887 253.5887 253.7011 253.7011 253.7290
   253.9086 254.2344 254.4625 254.4625 254.7791 256.5810 256.5810 256.7441
   256.7441 256.8553 257.5628 257.6331 257.6331 258.1153 258.1153 258.2356
   258.6258 258.6258 258.7124 259.2490 259.5321 259.7902 259.7902 260.0128
   260.0128 261.3740 261.8925 262.1990 262.1990 262.8007 262.8007 263.6283
   264.6884 264.6885 264.9775 265.3614 265.3614 265.7185 265.7185 266.0610
   266.2491 266.2491 266.5691 266.5691 266.6514 267.5576 268.4736 268.8290
   268.9659 269.0014 269.0014 269.2683 269.2683 270.9005 270.9005 271.2770
   271.2770 271.5695 271.5695 271.6180 272.9412 272.9573 273.0336 273.0336
   273.6647 273.6647 273.7241 275.5042 275.5042 277.1068 277.1068 277.3663
   277.3801 278.8325 278.8325 279.0808 279.0808 279.7988 280.8322 281.9131
   281.9131 282.2809 283.6405 285.0097 285.3192 285.3192 285.4595 285.4595
   285.4944 285.5093 287.0913 287.0913 287.3357 287.5476 287.5476 287.7082
   288.3462 288.3462 288.5364 288.5364 288.6103 288.9429 289.8875 289.8875
   290.6672 290.6672 291.1695 291.2256 291.2256 292.5097 292.6580 292.6580
   293.5372 293.5843 293.5843 293.7359 294.9024 294.9024 295.9911 296.1293
   297.0947 297.0947 300.3503 300.3503 300.8674 300.8674 301.1577 302.0996
   302.4516 302.4516 302.7581 302.7802 303.5401 303.5401 303.6687 303.8289
   304.0375 304.0375 304.3726 304.5041 304.5041 305.5740 305.5740 305.9549
   305.9549 306.4398 306.9120 306.9120 307.2117 307.2117 307.6836 307.7557
   308.0027 309.2119 309.2119 310.3771 310.3771 310.5757 310.5757 311.5995
   311.6669 311.6669 312.3337 313.2307 313.6571 313.6571 313.8509 313.8509
   314.8895 315.1161 316.1303 316.1303 316.4349 316.4349 316.7984 317.4705
   318.1336 318.1336 318.4554 319.2873 319.2873 319.5815 320.2296 320.2296
   320.3317 320.4841 321.2562 321.2562 321.8459 322.6625 322.6631 322.6631
   323.3094 323.3094 323.7794 323.9605 323.9605 324.6208 325.7450 325.7450
   325.9869 325.9869 326.5087 326.5087 326.6938 326.9479 326.9556 328.9102
   328.9102 329.0365 329.4834 331.0537 331.0537 331.1533 331.1533 331.8571
   332.4518 332.7712 332.7712 334.4164 337.1475 337.1475 338.0076 338.0076
   339.7068 339.7357 339.7357 341.2603 341.6060 341.6060 342.0578 342.6431
   342.6431 342.7412 342.7412 343.2144 344.4155 344.4569 345.1101 345.1101
   345.9436 345.9436 346.1729 346.1729 346.5654 346.8330 346.8335 346.8335
   347.5346 347.8709 347.8709 348.3964 348.3964 348.5928 348.8229 348.8577
   348.8577 349.0910 349.0910 349.4971 349.5485 349.7625 349.7625 350.4935
   350.4935 350.6008 350.6008 350.8508 350.8508 351.4049 351.4478 351.5065
   351.5586 351.5586 351.9526 352.5795 353.9291 353.9566 353.9567 355.2278
   355.2278 356.2710 356.2710 357.0549 358.2731 358.2731 359.6540 359.6741
   360.4275 360.4275 360.6083 360.6083 361.3968 361.8989 361.8989 361.9821
   362.1389 363.1662 363.1662 364.0566 364.0566 364.1177 364.3622 366.4120
   366.4120 366.9857 367.6815 367.6815 367.6986 368.4679 368.8279 368.8279
   368.8983 369.2526 369.4282 369.4282 369.6741 370.3387 370.4979 370.4979
   371.7804 371.7804 371.7976 371.7976 372.3374 372.8595 372.8595 372.9751
   373.2446 373.3365 373.3403 373.3403 373.6563 373.6563 374.6565 374.8036
   375.1589 375.1676 375.1676 375.4567 375.4567 375.5455 375.5455 376.6509
   377.0120 377.0120 377.3866 377.3866 377.6213 378.4054 378.5512 378.5512
   379.1670 379.1670 379.9895 379.9935 380.5905 381.0080 381.0080 381.5051
   381.5051 381.5253 382.2119 382.2119 382.2357 382.2804 382.2804 383.0857
   383.4180 383.4180 383.8277 383.8277 384.0024 384.4038 384.4038 385.4944
   386.2404 386.2404 387.0888 387.2287 387.2363 387.2363 388.3293 388.3293
   388.4023 388.4023 389.6623 390.0229 390.0229 390.1213 390.2458 390.2952
   390.2952 390.4514 391.2817 391.2817 392.7960 393.0623 393.5999 393.5999
   393.6074 393.6074 394.2254 394.9233 394.9233 395.0124 395.0398 395.0398
   395.6829 395.6829 396.0875 396.1695 396.2408 396.2408 396.4932 398.0969
   398.7213 398.7213 399.2078 399.2210 399.2210 399.7373 400.3516 400.3516
   400.5299 400.5299 400.9323 400.9323 401.1631 401.1631 401.1942 401.2798
   401.5442 401.5554 401.5554 401.7985 402.2454 402.2454 402.6154 402.6264
   403.9334 403.9334 404.0186 404.0186 404.4570 404.4570 404.7391 405.4606
   405.5502 405.9348 406.0700 406.0700 406.5018 406.5018 406.8806 406.8806

          k = 0.0000 0.0000-0.3100 (  3314 PWs)   bands (ev):

  -113.3534-113.3534 -67.5632 -67.5632 -67.5615 -67.5615 -67.5614 -67.5614
    -7.5720  -7.5720   4.1793   4.1793   4.4398   4.4398   4.4398   4.4398
     5.6487   5.6487   5.6487   5.6487   7.8561   7.8561   9.7228   9.7228
     9.7228   9.7228  13.6374  13.6374  20.2663  20.2663  23.4143  23.4143
    23.4143  23.4143  28.4642  28.4642  30.4274  30.4274  30.4274  30.4274
    34.7786  34.7786  35.1586  35.1586  35.1586  35.1586  38.7085  38.7085
    42.1330  42.1330  42.1330  42.1330  43.5447  43.5447  54.1880  54.1880
    54.1880  54.1880  56.7528  56.7528  56.7634  56.7634  56.7634  56.7634
    58.3451  58.3451  59.5960  59.5960  59.5960  59.5960  61.2306  61.2306
    66.5949  66.5949  67.9757  67.9757  67.9757  67.9757  69.8148  69.8148
    70.3928  70.3928  70.3928  70.3928  70.9913  70.9913  74.3449  74.3449
    76.0561  76.0561  76.0561  76.0561  77.1982  77.1982  79.4749  79.4749
    79.4749  79.4749  82.4377  82.4377  82.4377  82.4378  84.6924  84.6924
    86.7254  86.7254  86.7254  86.7254  88.1289  88.1289  89.0145  89.0146
    89.0146  89.0146  89.4830  89.4830  89.4830  89.4830  90.4123  90.4123
    92.5493  92.5493  92.7644  92.7644  92.7644  92.7644  92.9104  92.9104
    96.3971  96.3971  96.3971  96.3971 100.8357 100.8357 103.6863 103.6863
   103.6863 103.6863 107.4095 107.4095 110.5351 110.5351 110.5926 110.5926
   110.5926 110.5926 116.1312 116.1313 116.5210 116.5210 116.5210 116.5210
   118.3261 118.3261 122.6529 122.6529 122.6529 122.6529 123.5070 123.5070
   123.5070 123.5070 124.3055 124.3055 127.7717 127.7717 127.7717 127.7717
   128.1419 128.1419 129.2775 129.2775 130.1833 130.1833 130.1833 130.1833
   132.5360 132.5360 132.5360 132.5360 132.6753 132.6753 135.0801 135.0801
   136.0688 136.0688 136.8529 136.8529 136.8529 136.8529 138.7868 138.7868
   138.7868 138.7868 139.5781 139.5781 141.6906 141.6906 141.6906 141.6906
   142.9834 142.9834 142.9834 142.9834 143.3142 143.3142 143.7761 143.7761
   144.5506 144.5506 144.5506 144.5506 144.9003 144.9003 146.1814 146.1814
   146.7282 146.7282 146.7282 146.7282 148.7714 148.7714 148.9485 148.9485
   148.9485 148.9486 149.6141 149.6141 149.6141 149.6141 154.9458 154.9458
   160.7792 160.7792 160.7792 160.7792 161.3675 161.3675 163.7893 163.7893
   164.3051 164.3052 164.3052 164.3052 164.3683 164.3683 165.6935 165.6935
   165.7813 165.7813 165.7813 165.7813 166.3225 166.3225 166.3225 166.3225
   168.8850 168.8851 169.9746 169.9746 169.9746 169.9746 170.0641 170.0641
   170.8046 170.8046 170.8046 170.8046 171.2618 171.2618 173.1434 173.1434
   173.4258 173.4258 173.4258 173.4258 176.4588 176.4588 176.4588 176.4588
   178.8051 178.8051 180.2323 180.2323 180.2323 180.2323 182.1821 182.1821
   183.3927 183.3927 183.4048 183.4048 183.4048 183.4048 184.5562 184.5562
   184.5562 184.5562 186.7823 186.7823 186.7823 186.7823 187.2075 187.2075
   187.6940 187.6940 187.6940 187.6940 188.7191 188.7191 191.2805 191.2805
   191.2805 191.2805 192.2072 192.2072 195.0180 195.0180 195.0180 195.0180
   195.1904 195.1904 196.9746 196.9746 197.4355 197.4355 197.4355 197.4355
   202.4108 202.4108 202.4108 202.4108 202.6902 202.6903 203.2048 203.2048
   203.9292 203.9292 203.9292 203.9292 205.1288 205.1288 206.4909 206.4909
   206.4909 206.4909 208.1774 208.1774 211.5873 211.5873 211.5873 211.5873
   213.8147 213.8147 215.2323 215.2323 215.2323 215.2323 220.6130 220.6130
   220.6130 220.6130 221.9713 221.9713 221.9713 221.9713 222.0148 222.0148
   222.6494 222.6494 224.7941 224.7941 225.8046 225.8047 225.8047 225.8047
   227.0327 227.0327 232.3124 232.3124 232.5316 232.5316 232.5316 232.5316
   234.6702 234.6702 235.9335 235.9335 235.9335 235.9335 235.9394 235.9394
   237.3685 237.3685 237.3685 237.3685 237.5635 237.5635 237.9135 237.9135
   237.9135 237.9135 238.8850 238.8850 240.3932 240.3932 240.3932 240.3932
   241.2268 241.2268 241.2268 241.2268 241.4960 241.4960 241.9964 241.9964
   242.7659 242.7659 242.7659 242.7659 243.5914 243.5914 243.5914 243.5914
   243.7584 243.7584 244.2213 244.2213 246.1276 246.1276 246.1276 246.1276
   246.1882 246.1882 246.2059 246.2059 247.8416 247.8416 247.8416 247.8416
   247.9789 247.9789 248.3103 248.3103 248.3103 248.3103 248.5682 248.5682
   248.5682 248.5682 250.0588 250.0588 250.0870 250.0870 250.0870 250.0870
   250.4564 250.4564 251.2214 251.2214 251.2214 251.2214 253.2946 253.2946
   253.2946 253.2946 253.9870 253.9870 256.0970 256.0970 256.0970 256.0970
   257.4814 257.4814 258.0693 258.0693 258.3194 258.3194 258.3194 258.3194
   260.0597 260.0597 260.0597 260.0597 260.7569 260.7569 261.9803 261.9803
   261.9804 261.9804 262.0523 262.0523 262.0523 262.0523 262.0593 262.0593
   262.5625 262.5625 262.9422 262.9422 267.0239 267.0239 267.0239 267.0239
   269.5425 269.5425 269.9059 269.9059 269.9059 269.9059 273.4184 273.4184
   277.4190 277.4190 277.4190 277.4190 278.7008 278.7008 279.1120 279.1120
   279.1120 279.1120 280.3939 280.3939 280.7365 280.7365 281.9698 281.9698
   281.9698 281.9698 282.2952 282.2952 282.9007 282.9007 282.9007 282.9007
   283.6948 283.6948 283.6948 283.6948 283.9374 283.9374 285.1479 285.1479
   285.1479 285.1479 285.4751 285.4751 288.4884 288.4884 288.4884 288.4884
   289.5331 289.5331 289.5331 289.5331 290.1965 290.1965 292.9224 292.9224
   293.3670 293.3670 293.3670 293.3670 293.7215 293.7215 294.8735 294.8735
   294.8735 294.8735 296.1358 296.1358 297.2177 297.2177 297.5824 297.5824
   297.5824 297.5824 298.2402 298.2402 298.2402 298.2402 299.7760 299.7760
   301.4884 301.4884 301.4884 301.4884 302.2010 302.2010 302.2010 302.2010
   302.3097 302.3097 303.0760 303.0760 303.5286 303.5286 303.5286 303.5286
   303.7510 303.7510 306.0444 306.0444 306.1260 306.1260 306.1260 306.1260
   307.9487 307.9487 307.9487 307.9487 309.1072 309.1072 310.3248 310.3248
   312.1938 312.1938 312.6035 312.6035 312.6035 312.6035 313.7051 313.7051
   314.1625 314.1625 314.1625 314.1625 315.2837 315.2837 315.2837 315.2837
   316.2893 316.2893 316.3017 316.3017 316.3017 316.3017 316.9772 316.9772
   317.2576 317.2576 318.3172 318.3172 318.3172 318.3172 321.5421 321.5421
   322.3494 322.3494 322.3494 322.3494 324.9160 324.9160 324.9160 324.9160
   329.1838 329.1838 329.1838 329.1838 330.2453 330.2453 330.4488 330.4488
   330.4488 330.4488 333.4375 333.4375 334.2680 334.2680 334.2680 334.2680
   334.5807 334.5807 335.1304 335.1304 335.1304 335.1304 335.5332 335.5332
   336.5248 336.5248 337.0982 337.0982 337.0982 337.0982 338.2407 338.2407
   339.8393 339.8394 339.8394 339.8394 340.9187 340.9187 341.4173 341.4173
   341.4173 341.4173 345.1820 345.1820 347.9046 347.9046 347.9046 347.9046
   348.8764 348.8764 348.8764 348.8764 351.8331 351.8331 352.0070 352.0070
   352.0070 352.0070 354.2811 354.2811 355.7337 355.7337 356.1378 356.1378
   356.4887 356.4887 356.4887 356.4887 356.6980 356.6980 357.7840 357.7840
   357.7840 357.7840 358.6456 358.6456 358.6456 358.6456 358.8937 358.8937
   359.8556 359.8556 359.8556 359.8556 360.5083 360.5083 360.7374 360.7374
   360.7374 360.7374 360.9848 360.9848 360.9848 360.9848 361.4427 361.4427
   362.5190 362.5190 363.8033 363.8033 363.8033 363.8033 364.2682 364.2682
   365.5931 365.5931 365.5931 365.5931 366.8310 366.8310 366.8310 366.8310
   367.6844 367.6844 367.6844 367.6844 367.8010 367.8010 368.2950 368.2950
   368.2950 368.2950 368.9872 368.9872 369.3651 369.3651 369.5089 369.5089
   370.1767 370.1767 370.1767 370.1767 371.2076 371.2076 371.2992 371.2992
   371.2992 371.2992 372.3049 372.3049 373.0057 373.0057 374.6689 374.6689
   374.6689 374.6689 375.2761 375.2761 375.2761 375.2761 376.1591 376.1591
   376.5365 376.5365 376.7909 376.7909 376.7909 376.7909 380.3230 380.3230
   380.3230 380.3230 381.1324 381.1324 382.2452 382.2452 382.2452 382.2452
   385.2404 385.2404 385.2404 385.2404 385.9397 385.9397 385.9872 385.9872
   385.9872 385.9872 388.2727 388.2727 388.6114 388.6114 390.0264 390.0264
   390.0264 390.0264 390.9896 390.9897 392.2605 392.2605 392.8783 392.8783
   392.8783 392.8783 393.5341 393.5341 393.9111 393.9111 394.2209 394.2209
   394.2209 394.2209 394.6461 394.6461 394.6461 394.6461 395.8115 395.8115
   395.8115 395.8115 395.9719 395.9719 395.9874 395.9874 397.3443 397.3443
   397.5050 397.5050 397.5050 397.5050 399.8978 399.8978 399.8978 399.8978
   400.5500 400.5500 401.1376 401.1376 401.2419 401.2419 401.2419 401.2419
   401.2991 401.2991 401.7991 401.7991 401.7991 401.7991 402.2859 402.2859
   402.7929 402.7929 402.7929 402.7929 404.7016 404.7016 405.0172 405.0172
   405.0172 405.0172 406.3945 406.3945 406.3945 406.3945 408.4370 408.4370

          k = 0.0000 0.1925 0.0000 (  3298 PWs)   bands (ev):

  -113.3534-113.3533 -67.5645 -67.5623 -67.5619 -67.5618 -67.5617 -67.5613
    -7.7774  -7.1339   4.2273   4.4500   4.4762   4.5554   4.6825   4.7298
     5.4638   5.5213   5.7435   5.8598   5.9921   8.4057   8.9740   9.0069
     9.8412   9.9228  12.4460  16.4496  18.3548  21.0427  22.7856  23.3773
    24.2752  24.5783  25.5382  27.5645  28.6451  31.2129  32.3610  32.7159
    33.0506  33.7253  35.3492  36.5877  37.4435  38.5782  38.7147  39.6905
    39.9023  41.0528  43.1713  46.3518  46.5841  47.2263  47.7392  49.3349
    50.0573  51.7167  51.8991  53.7410  54.9857  55.1116  56.5752  57.3665
    58.1417  59.5404  61.5751  61.7077  62.7038  63.4520  64.4464  65.2953
    65.5262  66.1146  66.3426  67.0990  67.7389  68.0036  69.2236  69.2279
    69.3962  70.6550  71.0343  71.4833  71.9324  72.1128  73.3408  73.5444
    73.6359  73.9426  74.0977  74.6684  75.7532  76.6951  77.7723  78.8367
    78.9314  79.2032  79.4570  80.1877  80.9247  81.7190  82.3390  83.3119
    83.6635  84.7554  85.7515  85.9708  88.0664  88.3070  88.6042  89.1932
    89.8582  89.8980  90.2280  90.3108  91.7934  92.5546  93.3907  94.8728
    94.9514  95.3478  95.5209  96.0854  96.8586  98.7143  98.7968  99.5775
   101.2434 101.4928 101.6225 101.9313 103.5985 103.9598 104.2537 105.0763
   105.9039 106.5887 106.6520 107.3534 108.2608 108.8572 108.9567 109.7153
   110.0437 110.8787 111.7701 112.2133 112.7792 113.1730 113.5078 114.4358
   115.3330 115.7796 116.2652 117.3545 118.1098 118.9435 119.2139 119.4500
   120.3655 121.1470 121.5905 121.7976 123.2304 123.4009 124.2573 125.2488
   126.0918 126.2289 126.9839 127.5280 128.5131 129.3918 129.4667 129.5849
   130.1892 131.2247 131.6227 132.1467 133.1567 133.5826 133.9434 134.6092
   135.7270 136.5906 136.6428 137.0391 137.0733 138.4878 138.7426 139.2685
   139.6112 139.9478 140.4831 141.0400 141.2275 141.4870 142.0939 142.4026
   142.6795 142.7345 143.5590 144.1879 145.0477 145.5484 145.6169 146.7531
   146.8932 147.5088 147.6228 148.1025 148.6666 149.0025 149.7270 150.2165
   150.5175 151.3171 151.5284 151.8025 152.3132 152.3226 153.0410 153.1338
   153.6454 153.9980 154.1143 154.3378 155.0331 155.2304 155.3414 155.7741
   156.5064 156.9334 156.9608 157.3554 157.7321 158.1829 158.5235 158.9967
   159.1991 159.7288 160.3292 160.4377 160.7033 161.4609 161.9167 161.9902
   162.5445 163.1396 163.6797 163.8158 164.3525 164.6808 165.0156 165.5061
   165.7582 166.8141 167.5502 167.6161 168.6383 168.9535 169.4280 169.4694
   169.6776 170.3106 170.6484 171.4223 171.7356 172.1596 172.4459 172.5149
   172.8719 173.8721 174.0591 174.9877 175.5077 175.5113 176.5453 176.7077
   177.3322 178.1035 178.3118 179.1210 179.5438 179.9998 181.4173 181.7300
   182.2074 182.5052 183.8346 183.9325 184.5254 184.6848 185.3450 185.4017
   185.4838 187.7489 188.0554 188.4492 188.7697 189.9895 190.1710 190.4555
   190.7488 191.3709 191.9529 192.0455 192.3882 192.6125 193.3620 193.4494
   195.0726 195.9609 196.5573 196.7830 197.8304 198.9590 198.9648 199.0474
   199.3508 200.1102 200.4329 200.8869 200.8999 201.5312 201.8607 202.6018
   203.1295 203.6816 203.8091 203.8241 203.8983 204.4865 205.1214 205.7699
   205.9172 206.5276 206.5553 207.3085 207.6171 208.0547 208.8828 209.3334
   209.9513 210.1902 210.8309 211.0197 211.4707 211.5301 212.1944 212.6467
   212.8997 213.2539 213.2692 214.2729 214.4314 214.8164 215.1339 215.2470
   215.6209 215.8820 217.2800 217.6898 217.9720 218.3990 218.6757 219.4825
   219.7296 220.0979 220.5884 221.4993 221.7970 222.0602 222.2021 222.4637
   223.2065 224.0536 224.4787 224.9363 225.2582 225.5019 225.9998 226.6940
   226.9577 228.0209 228.3542 228.3564 228.5309 228.6616 229.5199 230.0740
   230.1019 230.4002 230.7831 231.8494 232.0583 232.1401 232.6490 232.8073
   233.5698 233.6101 234.3287 234.8485 235.0626 235.8767 236.0777 236.5426
   236.9085 237.0634 238.1369 238.2068 238.8035 238.8392 239.0615 239.6659
   239.7763 240.3268 240.9255 241.3031 241.3945 242.0492 242.5343 243.3326
   243.5770 243.6707 244.2920 244.8160 245.0763 245.7521 245.8711 246.5103
   247.1426 247.3626 247.4565 248.1920 248.2779 248.8183 248.8918 249.7874
   250.1547 250.3202 250.4761 250.5499 250.6301 251.4106 251.5400 252.1050
   252.3324 252.3533 253.1652 253.3425 253.3922 253.4581 254.5347 254.7496
   255.3365 255.4227 256.1143 256.4951 256.9210 257.1604 257.6615 257.7819
   258.4202 258.7575 258.8310 259.4357 259.5204 260.0947 260.1896 260.7075
   260.8136 260.9415 261.1305 261.5436 262.1154 262.5403 262.7636 262.8180
   263.5381 263.5898 263.9902 264.4309 264.8923 265.1496 265.3383 265.4184
   265.8978 266.1234 266.5081 266.9843 267.0695 267.8138 267.9316 268.2582
   268.2965 268.9169 269.0927 269.5638 269.8023 269.9520 270.9483 271.1004
   271.1097 271.3724 271.7194 272.6099 272.6467 273.0892 273.7206 273.7838
   274.1153 274.4690 274.5094 274.7422 275.5014 275.5678 275.8995 276.3525
   276.6679 277.1547 277.2190 277.3063 277.3923 278.0532 278.1467 278.8437
   279.0284 279.2841 279.8282 280.1373 280.2166 280.3062 280.3749 280.7732
   281.7302 282.0534 282.9316 283.0384 283.3330 283.3850 283.8066 284.3295
   284.9343 285.1431 285.4776 285.5913 285.7117 285.8150 286.0362 286.9400
   286.9573 287.2310 287.3128 287.9242 288.3629 288.5433 288.7287 288.9361
   289.2192 290.0635 290.2262 291.0028 291.3248 291.7929 291.9457 292.1392
   292.6242 292.6620 293.0025 293.0785 293.3851 294.0050 294.0722 294.2163
   294.9228 294.9917 295.0274 295.6191 295.8115 296.6215 296.6675 297.4452
   298.0281 298.9418 299.3948 299.6845 300.0374 300.7839 301.2220 301.4438
   302.0061 303.5302 304.0087 304.4763 305.0566 305.1091 306.2655 308.0095
   308.3793 309.2734 309.6684 309.8130 309.8572 310.4183 310.7030 311.3491
   311.5691 311.8238 312.0600 312.4101 313.1197 313.1847 313.7776 313.9560
   314.4842 314.7773 314.9181 314.9377 315.2771 315.7601 315.9285 316.3850
   316.7071 317.0831 317.1457 317.4276 317.4281 317.8210 318.1596 318.6850
   319.1570 319.4370 319.4864 319.8186 320.3201 320.4285 320.9178 321.7419
   322.0859 322.1099 323.1105 323.8764 324.2097 324.3197 324.6878 325.1752
   325.4636 325.5098 326.2822 326.3214 326.5324 327.1153 327.3389 327.3869
   327.7401 328.1997 328.5242 328.8193 329.0231 329.2232 330.0521 330.6297
   330.9989 331.6478 331.6685 332.1566 332.3854 332.8325 333.4159 333.8246
   334.6067 334.7478 334.8437 335.1703 335.5712 335.6965 335.8043 336.1826
   336.3711 336.9833 337.1155 337.5218 338.2795 338.3039 338.3882 338.5280
   339.3595 339.3757 339.6675 340.2689 340.7503 341.0727 341.2710 341.3770
   341.7044 341.9689 342.5407 342.7314 342.8756 343.2361 343.5986 344.0049
   344.2660 344.3141 344.7146 345.1396 345.6375 346.1532 346.7339 346.9177
   348.0215 348.0378 348.5203 348.7450 348.8772 348.9993 349.3768 349.5203
   349.5700 349.6582 350.0413 350.2576 350.9386 351.0583 351.5393 351.6219
   351.9782 352.3877 353.0135 353.1542 353.6914 354.6146 354.9399 355.2823
   355.5224 355.9383 356.7832 356.8409 357.1568 357.3981 357.5345 358.4521
   358.4672 358.9051 358.9658 359.4129 359.4238 360.0115 360.3345 360.9911
   361.7117 361.9204 362.2243 362.6052 362.7668 362.8755 362.9034 363.3184
   364.1736 364.4283 364.6905 365.5783 366.0122 366.0336 366.1824 366.2138
   366.5538 366.8678 367.1323 367.5705 367.7131 367.8757 368.4205 369.0074
   369.0858 369.3540 370.1366 370.1367 370.9106 370.9365 371.7060 371.8112
   371.8394 372.2557 372.7612 373.1702 373.8438 373.9255 374.4177 374.4328
   374.5597 374.7499 375.1380 375.2263 375.5212 375.8528 376.0634 376.0833
   376.4987 376.6211 376.9123 376.9999 377.4595 377.8240 378.0987 378.2139
   379.0075 379.4684 379.6567 380.0429 380.1054 380.2838 380.6319 380.8735
   380.9157 381.2041 381.2861 381.3133 381.8217 381.9444 381.9799 382.3924
   382.8548 382.9274 383.2159 383.2490 383.8530 384.3617 384.3786 384.7255
   384.9670 385.3859 385.9948 386.5747 386.6963 387.0677 387.6040 387.8385
   387.9381 388.7158 388.7229 389.2383 389.2865 389.6305 389.6384 389.9371
   390.2035 390.5508 390.7361 391.0106 391.1500 391.3423 391.7950 391.8586
   392.6724 393.0250 393.3002 393.5097 393.7462 394.2816 394.4357 395.1514
   395.5936 395.6909 395.9226 396.0989 396.1545 396.5080 396.9722 396.9996
   397.0870 397.6421 398.1466 398.2067 398.3005 398.6206 398.9022 399.5582
   400.1606 400.6685 400.7481 401.0360 401.7411 402.1568 402.1758 402.2719
   402.6259 402.6967 403.0763 403.2191 403.7002 403.8393 404.0560 404.1209
   404.5075 404.6889 404.9264 405.0462 405.4134 405.5943 405.7697 406.1867
   406.4913 406.5084 406.7879 407.0971 407.4266 407.4739 407.6962 407.7825

          k = 0.0000 0.1925 0.1550 (  3300 PWs)   bands (ev):

  -113.3534-113.3533 -67.5642 -67.5623 -67.5621 -67.5618 -67.5616 -67.5614
    -7.6859  -7.2309   4.1646   4.2851   4.4725   4.5016   4.6162   4.6354
     5.5282   5.5605   5.7181   5.7547   6.7378   8.4754   8.7424   9.1174
     9.6491   9.7881  13.0387  15.7530  18.8725  21.1297  22.3295  22.9444
    23.3965  24.1639  26.5036  28.5327  28.9962  31.1359  32.2122  32.5244
    33.5699  34.1215  34.8955  36.3810  37.3480  37.6964  38.8424  39.9333
    41.0102  41.4370  42.8266  44.1515  46.1491  47.2588  48.3089  48.8128
    51.0008  51.2352  52.7973  54.6047  55.5432  56.2807  57.7302  58.4341
    58.9818  59.1392  59.8945  60.5063  61.2996  63.0850  63.8576  63.9560
    65.4335  65.5992  65.9257  66.3685  66.5947  66.9539  67.5493  69.0829
    69.8803  70.0981  70.2871  72.2409  72.3760  72.7857  73.7740  74.1315
    74.2574  75.4797  76.0544  76.4100  76.8624  77.4678  77.5913  78.4860
    79.5863  80.1491  80.7809  81.0954  81.4308  81.9394  82.3242  83.3612
    83.5081  84.9364  85.4679  85.9345  87.1350  87.2834  88.1047  88.5197
    89.3947  90.4595  90.8121  91.8608  92.3114  92.6134  92.9932  93.4271
    94.3142  95.1114  95.1739  96.2257  96.9167  97.0488  98.1340  98.3060
    99.4873 100.4067 100.5967 101.2211 101.6662 102.5872 102.7365 103.8473
   104.8462 105.1650 105.1682 107.7248 108.3463 108.3852 109.3405 109.6798
   110.9572 112.3288 112.9663 113.9447 113.9935 115.0098 115.8454 115.8501
   116.4359 116.7080 117.4849 118.3557 118.8355 120.0719 120.8388 121.4484
   121.9408 122.3623 123.3088 123.7894 124.0259 124.7424 124.9819 125.9398
   126.0568 126.7799 126.8749 127.2791 127.8516 128.1992 128.9803 129.6176
   129.8756 130.7194 131.3271 131.6999 131.9747 132.6065 132.8522 133.5629
   133.9716 134.9644 136.3048 136.8000 137.4258 137.5360 137.8568 138.6888
   138.8991 138.9846 139.8527 140.2498 140.3093 141.5294 141.5686 141.9912
   142.5116 143.0317 143.1697 143.9952 144.3087 145.2234 145.2347 146.0339
   146.2357 146.3505 146.4839 146.9907 147.4824 148.0848 148.3622 148.9915
   149.0169 149.4652 150.7914 150.8188 151.2624 151.8706 151.8941 152.8265
   153.0510 153.5076 153.7620 154.3302 154.4198 154.9900 155.1635 156.0177
   156.1990 157.7364 157.7922 158.6671 158.9069 159.3640 159.5729 160.0669
   160.5723 160.7815 161.1032 161.6006 161.9560 162.3744 162.6339 163.1790
   163.8352 164.5020 165.0453 165.1973 165.2844 165.5330 165.7669 166.0036
   166.7186 167.2030 167.6210 167.9668 168.1723 169.5201 169.8355 170.9353
   171.2635 171.2992 171.3672 171.3974 172.3683 172.8766 173.6761 174.0936
   174.8189 175.0616 175.7118 175.8701 176.4901 176.5027 176.8611 177.7567
   177.8391 178.7572 178.9254 179.9366 180.0598 180.4161 181.3738 181.6844
   182.0651 182.6969 183.1203 183.5226 183.9662 184.5635 184.7280 185.6510
   185.6512 186.0817 186.3537 186.5016 187.7398 188.1966 188.8563 190.0359
   190.4144 190.8160 191.3803 191.6857 191.7720 192.7727 193.1248 193.4516
   193.8935 194.4135 194.9054 194.9998 195.8095 196.4684 197.0321 197.6915
   197.9647 198.1792 198.6612 199.6079 199.6838 200.1325 200.1874 200.5111
   200.9491 201.8764 202.1460 202.9968 203.3779 204.1345 204.2173 205.1144
   205.5275 205.5278 206.2344 206.4887 206.5965 207.2325 207.6609 208.3171
   209.4292 209.9337 210.2778 210.7764 211.7426 211.9284 212.3556 212.7536
   213.4014 213.9110 214.1552 214.8694 215.5523 216.2160 216.2801 217.4284
   217.5329 218.0487 218.3668 219.2415 219.4845 219.4962 219.9300 220.3497
   220.9240 221.5607 222.0435 222.4180 222.9018 223.7297 224.1886 224.4108
   225.1043 225.3363 225.6246 226.5567 226.7375 227.3976 227.7555 228.2735
   228.3287 228.7111 229.0184 229.4695 229.5080 229.6122 230.7638 230.9657
   231.4111 231.6821 231.9603 232.1067 232.1122 232.7542 233.5599 234.1465
   234.2870 234.6762 234.8718 234.9559 236.4077 236.5752 237.0453 237.3784
   237.4796 237.7071 238.2082 238.4872 238.7850 238.8684 239.3917 239.4677
   240.1357 240.1366 240.4874 240.9103 241.0231 241.6447 242.0931 242.5136
   242.6341 242.9500 243.0948 243.8793 244.1356 244.8781 245.0698 245.2273
   245.6255 245.7799 246.1763 246.4921 247.0241 247.1203 247.8379 248.1929
   248.2343 249.0868 249.5057 249.5516 249.7739 250.5816 250.7833 251.2460
   251.3925 251.7346 251.9126 252.3562 252.8453 253.1802 253.4334 253.8448
   254.1831 254.8838 255.0744 255.4278 255.7269 256.6296 256.7869 257.1956
   257.3550 257.6511 258.6894 258.6964 259.2554 259.3137 259.8392 260.2016
   260.7362 260.9939 261.2297 261.8608 261.9895 262.7317 262.7374 263.0275
   263.3839 263.6868 264.0698 264.1380 264.4104 265.3589 265.3777 265.6850
   266.0400 266.2522 266.4596 266.8138 267.0455 267.3818 267.8346 267.8621
   268.4951 268.5468 269.1115 269.3696 269.6441 269.8872 270.2719 270.6205
   270.9841 271.6302 271.6539 272.0179 272.0953 272.5166 272.8630 273.2459
   273.7007 273.8303 273.8450 274.2606 274.8099 275.2026 275.3938 275.8332
   276.0891 276.4492 277.3042 277.3308 277.6371 278.0631 278.1630 278.5615
   278.9040 279.5690 279.7444 279.8050 280.3185 280.8935 281.0496 281.4053
   281.8091 281.9742 282.3721 282.6971 283.5533 283.8877 284.0360 284.5250
   284.7877 285.3667 285.4558 285.7848 286.0782 286.5241 287.0464 287.2491
   287.7554 288.0575 288.3389 288.6844 289.2669 289.3951 289.9530 290.0207
   290.4767 290.9091 291.1934 291.6704 292.7454 292.9873 293.6018 293.9197
   294.5910 295.1613 295.3129 296.0075 296.0623 296.5538 296.9945 297.6071
   297.8050 298.6122 298.6730 298.8614 299.1822 299.9415 300.1419 300.7011
   301.1047 301.1381 301.6956 301.7416 302.0725 302.7407 302.7574 303.1053
   303.4201 303.4970 303.8295 303.9088 304.4790 304.6121 304.6679 304.8162
   305.5215 305.7930 306.1893 306.6695 306.7584 307.3613 308.0530 308.4974
   308.6014 309.2608 309.4285 309.9942 310.3866 310.5547 311.1512 311.2214
   312.1781 312.2279 312.2950 312.9544 313.3815 313.7729 314.1933 314.7929
   315.5335 315.9512 315.9538 316.7265 316.8105 317.0125 317.3643 318.1477
   318.3342 318.8663 319.0116 319.7488 319.9484 320.5533 321.2713 321.2856
   321.5240 321.9060 322.6848 323.2843 323.9570 324.2182 324.9264 325.1496
   325.4015 325.6859 325.9001 326.0270 326.5701 327.2014 327.3478 327.7739
   327.8970 328.2360 328.7730 328.7731 329.0601 329.4050 330.0062 330.0186
   330.4437 330.6221 330.7991 331.9101 331.9768 332.3815 332.7406 332.8442
   333.0818 333.7944 334.1269 334.9371 335.0035 335.6890 335.9740 336.2895
   336.5254 337.0260 337.3540 337.6973 338.5874 338.8646 339.2426 339.5501
   339.5769 340.2689 340.5585 340.8642 340.8899 341.4336 341.9673 341.9951
   342.4006 342.7102 343.5593 344.1735 344.2649 344.4278 344.7300 345.1763
   345.3564 345.4768 345.5919 345.7558 345.9064 346.9687 347.2291 347.3009
   347.9294 348.3666 348.4546 348.9480 349.1604 349.4556 349.4651 350.1190
   350.2915 350.4432 351.1140 351.1396 351.4668 352.2209 352.3585 352.4821
   352.8015 353.1568 353.5104 353.9946 354.0590 354.6555 354.6748 355.8117
   356.0394 356.2182 356.7708 357.1884 357.3170 357.7914 358.1744 358.4747
   358.5077 358.8437 359.5337 359.7349 359.7585 360.5501 360.7630 360.9710
   361.6055 361.6714 361.9937 362.5564 362.9229 363.3341 363.4107 363.8062
   363.9410 364.5879 364.7623 365.1840 365.5686 365.8165 365.9190 366.4299
   366.6340 367.1627 367.7694 367.8027 368.0438 368.1762 369.0831 369.3249
   369.9045 369.9520 370.2339 370.5235 370.8742 371.1231 371.1729 371.4245
   371.9857 372.1594 372.3867 372.4295 372.9308 373.0943 373.5524 373.6396
   373.7975 374.0532 374.2685 374.4846 375.1195 375.1515 375.5085 375.8264
   375.8348 376.4732 376.5256 376.6308 377.0023 377.2259 377.2789 377.6118
   377.8973 378.0330 379.3357 379.4446 379.7777 380.2586 380.7797 381.1024
   381.5917 381.7001 381.9858 382.2006 382.8869 383.0844 383.1411 383.3983
   383.4763 383.7337 384.4217 384.7717 384.9594 385.2252 385.7097 386.1197
   386.2927 386.3845 387.1071 387.4670 387.6537 387.9380 388.3341 388.3937
   388.7041 389.0461 389.5066 389.6725 389.9255 389.9965 390.3876 390.3957
   390.6609 390.7043 391.1643 391.1857 391.5253 391.6508 392.0640 392.2461
   392.6776 392.7572 392.9362 393.2389 393.3768 393.5771 393.6976 394.0751
   394.1798 394.3881 395.0765 395.1316 395.3242 395.4030 395.6264 396.0042
   396.5041 396.7723 396.9915 397.1926 397.3110 397.5626 397.8228 398.1335
   398.4577 398.5359 398.6004 399.0520 399.2562 399.6489 400.1464 400.4612
   400.6827 400.9264 401.1752 401.3429 401.7545 402.0017 402.2667 402.3428
   403.0719 403.4582 403.6999 404.1716 404.3706 404.6695 405.0757 405.1905
   405.8553 405.9949 406.4456 406.7765 407.1625 407.1780 407.5841 408.0998

          k = 0.0000 0.1925-0.3100 (  3298 PWs)   bands (ev):

  -113.3533-113.3533 -67.5633 -67.5633 -67.5619 -67.5619 -67.5616 -67.5616
    -7.4611  -7.4611   4.1006   4.1006   4.5290   4.5290   4.5419   4.5419
     5.6459   5.6459   5.6515   5.6515   7.7965   7.7965   9.1058   9.1058
     9.4567   9.4567  14.3716  14.3716  20.1130  20.1130  22.1460  22.1460
    23.6231  23.6231  27.9789  27.9789  30.6052  30.6052  32.0026  32.0026
    33.4971  33.4971  36.0404  36.0404  37.6811  37.6811  39.9483  39.9483
    41.6180  41.6180  42.3023  42.3023  44.5847  44.5847  51.4803  51.4803
    51.4842  51.4842  53.8768  53.8768  55.3787  55.3787  58.5477  58.5477
    58.7655  58.7655  60.3022  60.3022  61.9015  61.9015  62.1004  62.1004
    64.9149  64.9149  65.8087  65.8087  66.5955  66.5955  68.8836  68.8836
    70.2410  70.2410  70.3212  70.3212  71.8837  71.8837  74.0573  74.0573
    75.6598  75.6598  77.0686  77.0686  77.5107  77.5107  79.9385  79.9385
    79.9431  79.9431  81.6852  81.6852  83.3807  83.3807  83.8591  83.8591
    84.8121  84.8121  85.9710  85.9710  86.6416  86.6416  87.3126  87.3126
    89.4130  89.4130  89.8000  89.8000  91.7540  91.7540  92.7230  92.7230
    94.3074  94.3074  95.1216  95.1216  97.1520  97.1520  97.4543  97.4543
    98.6759  98.6759 100.9320 100.9320 101.2841 101.2841 103.2022 103.2022
   103.7622 103.7622 105.5217 105.5217 107.7522 107.7522 109.5369 109.5369
   111.6181 111.6182 115.6180 115.6180 115.8933 115.8933 116.3412 116.3412
   117.7908 117.7908 119.9873 119.9873 120.1811 120.1811 122.8455 122.8455
   123.3847 123.3847 123.8381 123.8381 125.4763 125.4763 126.2503 126.2503
   127.2654 127.2654 127.3991 127.3991 128.8872 128.8872 129.9089 129.9089
   130.3334 130.3334 131.5218 131.5218 132.1546 132.1546 133.2848 133.2848
   134.0702 134.0702 134.2013 134.2013 135.3585 135.3585 136.7007 136.7007
   137.4530 137.4530 138.1498 138.1498 139.5301 139.5301 140.3260 140.3260
   140.9338 140.9338 141.5189 141.5189 142.7392 142.7392 144.0035 144.0035
   145.8553 145.8553 147.7028 147.7028 148.9868 148.9868 149.9549 149.9549
   149.9974 149.9974 151.2351 151.2351 151.8377 151.8377 153.0985 153.0985
   153.2647 153.2647 154.2851 154.2851 156.0744 156.0744 156.2506 156.2506
   157.2921 157.2921 157.3631 157.3631 158.0769 158.0769 158.7045 158.7045
   160.2700 160.2700 162.1422 162.1422 162.3883 162.3883 163.0586 163.0586
   163.7336 163.7336 164.7519 164.7519 165.4604 165.4604 166.2371 166.2371
   168.3537 168.3537 168.5606 168.5606 170.2167 170.2167 171.5360 171.5360
   171.8105 171.8105 173.5798 173.5798 174.8285 174.8285 175.1414 175.1414
   177.0156 177.0156 177.2362 177.2362 178.3545 178.3545 178.6341 178.6341
   179.7818 179.7818 180.0361 180.0361 180.9885 180.9885 181.7208 181.7208
   182.3219 182.3219 183.5580 183.5580 184.1612 184.1612 184.7126 184.7126
   185.9614 185.9615 186.3262 186.3262 186.9242 186.9242 188.4531 188.4531
   188.8087 188.8087 189.9561 189.9561 190.5676 190.5676 191.3432 191.3432
   192.1786 192.1786 193.1817 193.1817 194.2471 194.2471 194.6279 194.6279
   195.4365 195.4365 196.5988 196.5988 197.2072 197.2072 198.5109 198.5109
   200.4312 200.4312 201.0554 201.0554 202.3608 202.3608 204.4781 204.4781
   205.2013 205.2013 206.8116 206.8116 207.3886 207.3886 208.4155 208.4155
   210.1649 210.1649 211.5291 211.5291 212.6433 212.6433 214.4637 214.4637
   215.4638 215.4638 216.3311 216.3311 217.2036 217.2036 217.6711 217.6711
   219.3619 219.3619 219.5451 219.5451 220.9036 220.9036 221.2722 221.2722
   222.0681 222.0681 222.9174 222.9174 224.1141 224.1141 224.8992 224.8992
   225.8405 225.8405 226.4112 226.4112 227.7705 227.7705 227.9827 227.9827
   229.5599 229.5599 229.7068 229.7068 230.5117 230.5117 231.4329 231.4329
   232.3611 232.3611 232.3866 232.3866 233.0287 233.0287 233.6366 233.6366
   234.5693 234.5693 235.1863 235.1864 235.6595 235.6595 237.6289 237.6289
   237.6836 237.6836 238.9861 238.9861 239.2255 239.2255 240.1304 240.1304
   240.8261 240.8261 241.6440 241.6440 242.0187 242.0187 242.4258 242.4258
   242.6767 242.6767 243.4133 243.4133 243.8332 243.8332 244.6436 244.6436
   246.0453 246.0453 246.3166 246.3166 247.3164 247.3164 247.5286 247.5286
   249.0132 249.0132 249.5601 249.5601 250.2336 250.2336 250.6744 250.6744
   251.4142 251.4142 251.7596 251.7596 252.2503 252.2503 253.3530 253.3530
   253.5585 253.5585 254.3758 254.3758 255.5464 255.5464 255.5606 255.5606
   255.7609 255.7609 257.0015 257.0015 257.4328 257.4328 258.9451 258.9451
   259.9376 259.9376 260.2049 260.2049 261.0083 261.0083 261.3272 261.3272
   261.8129 261.8129 262.6127 262.6127 262.6816 262.6816 263.3646 263.3646
   263.7606 263.7606 264.7378 264.7378 265.4546 265.4546 265.9057 265.9057
   267.6091 267.6091 268.1598 268.1598 269.3964 269.3964 270.5703 270.5703
   271.8569 271.8569 272.1001 272.1001 272.8420 272.8420 273.0178 273.0178
   274.0667 274.0667 274.4843 274.4843 276.5829 276.5829 276.9561 276.9561
   277.5764 277.5764 278.3785 278.3785 278.6584 278.6584 280.1097 280.1097
   280.5602 280.5602 281.5716 281.5716 282.0455 282.0455 282.9962 282.9962
   283.2958 283.2958 284.4266 284.4266 284.5744 284.5744 286.2536 286.2536
   286.5446 286.5446 287.5131 287.5131 287.8072 287.8072 289.2549 289.2549
   289.3296 289.3296 290.3645 290.3645 291.5549 291.5549 291.5609 291.5609
   292.4851 292.4851 292.8166 292.8166 293.3650 293.3650 294.1029 294.1029
   294.7324 294.7324 295.5396 295.5396 295.8292 295.8292 296.9040 296.9040
   297.0311 297.0311 298.3556 298.3556 298.4394 298.4394 298.8854 298.8854
   300.3618 300.3618 301.1509 301.1509 301.5654 301.5654 301.6721 301.6721
   302.9442 302.9442 303.2050 303.2050 304.0580 304.0580 305.0334 305.0334
   305.6299 305.6299 306.4987 306.4987 307.4669 307.4669 307.6182 307.6182
   308.1918 308.1918 309.6600 309.6600 309.7828 309.7828 311.3369 311.3369
   311.7831 311.7831 312.8820 312.8820 313.6738 313.6738 314.8669 314.8669
   314.9600 314.9600 315.9928 315.9928 316.9684 316.9684 317.9919 317.9919
   318.4536 318.4536 318.7548 318.7548 319.1454 319.1454 320.6172 320.6172
   321.4324 321.4324 321.8330 321.8330 322.7732 322.7732 323.5338 323.5338
   324.2307 324.2307 325.3911 325.3911 326.4051 326.4051 326.6183 326.6183
   326.9911 326.9911 328.4121 328.4121 328.9508 328.9508 329.5730 329.5730
   330.0444 330.0444 330.9313 330.9313 331.9205 331.9205 332.1809 332.1809
   332.7363 332.7363 333.0691 333.0691 334.8941 334.8941 335.6320 335.6320
   336.7529 336.7529 337.9024 337.9024 338.4941 338.4941 338.6099 338.6099
   339.7220 339.7220 340.2646 340.2646 341.1180 341.1180 342.5046 342.5046
   343.7114 343.7114 343.8013 343.8013 344.5808 344.5808 345.6600 345.6600
   346.5225 346.5226 346.9101 346.9101 347.8489 347.8489 348.1320 348.1320
   348.8070 348.8070 348.8645 348.8645 349.7423 349.7423 350.1111 350.1111
   351.3695 351.3695 352.0910 352.0910 352.1983 352.1983 352.7805 352.7805
   353.1886 353.1886 354.5140 354.5140 355.0797 355.0797 355.5427 355.5427
   355.9108 355.9108 357.0682 357.0682 357.5956 357.5956 358.6761 358.6761
   359.4037 359.4037 360.1087 360.1087 360.8296 360.8296 361.1321 361.1321
   362.3495 362.3495 362.8266 362.8266 363.8024 363.8024 363.8225 363.8225
   364.7580 364.7580 365.6899 365.6899 366.3015 366.3015 367.4327 367.4327
   368.4923 368.4923 369.4814 369.4814 369.5375 369.5375 370.0375 370.0375
   370.2126 370.2126 370.9651 370.9651 371.4359 371.4359 371.8622 371.8622
   372.9807 372.9807 373.2655 373.2655 373.3887 373.3887 373.8165 373.8165
   374.6145 374.6145 374.8092 374.8092 375.1141 375.1141 375.8538 375.8538
   376.3176 376.3176 376.6622 376.6622 377.3552 377.3552 377.5724 377.5724
   377.7825 377.7825 378.3687 378.3687 379.0631 379.0631 379.2329 379.2329
   379.8788 379.8788 381.3671 381.3671 381.6370 381.6370 382.6882 382.6882
   382.8013 382.8013 383.6739 383.6739 384.0343 384.0343 385.1235 385.1235
   385.2927 385.2927 385.6775 385.6775 386.0970 386.0970 387.0280 387.0280
   387.5922 387.5922 388.1817 388.1817 388.7568 388.7568 389.5568 389.5568
   390.0712 390.0712 390.6683 390.6683 390.8498 390.8498 391.7796 391.7796
   392.0648 392.0648 392.2728 392.2728 393.8566 393.8566 393.9737 393.9737
   394.1499 394.1499 394.3533 394.3533 394.8795 394.8795 394.9434 394.9434
   395.8637 395.8637 396.4407 396.4407 396.6690 396.6690 397.6111 397.6111
   398.6166 398.6166 398.9672 398.9672 399.9680 399.9680 400.0359 400.0359
   401.0171 401.0171 401.4008 401.4008 402.6068 402.6068 402.6216 402.6216
   403.5028 403.5028 403.7204 403.7204 404.2006 404.2006 405.0736 405.0736
   405.2522 405.2522 406.1694 406.1694 406.2070 406.2070 407.5700 407.5700

          k = 0.0000 0.3849 0.0000 (  3298 PWs)   bands (ev):

  -113.3533-113.3532 -67.5640 -67.5633 -67.5629 -67.5623 -67.5621 -67.5615
    -7.4438  -7.0270   4.0849   4.4317   4.5807   4.7873   4.9775   5.1110
     5.4418   5.5972   5.7632   5.9370   6.2134   6.9326   7.8341   8.2572
     9.2906   9.5073  14.4517  17.7180  18.1407  19.0082  21.2153  22.6530
    23.6321  24.3117  25.9947  28.4817  29.1184  30.0641  33.5950  34.8303
    35.9339  36.2271  36.6990  38.2874  38.4132  38.8047  39.0653  40.0255
    40.4245  41.9432  43.4418  45.0104  46.7290  47.6356  48.3754  48.9223
    50.6086  51.1600  51.5091  51.7937  54.1470  54.3134  54.7527  55.8701
    58.0286  58.2589  59.2469  60.1127  61.0147  61.5393  61.8507  63.1514
    63.1583  63.9949  64.0117  64.7653  65.9819  66.4746  67.4253  67.6099
    68.3461  68.4993  69.2843  70.4865  70.5022  71.4406  73.7584  74.3154
    74.6862  74.9495  75.7769  76.8321  77.0324  77.2779  77.5922  78.7635
    80.4191  80.6715  81.2298  83.3560  83.9180  84.2424  84.6598  85.9977
    86.2919  86.3087  87.6582  88.1552  88.3120  89.6803  89.7250  90.5047
    90.8001  91.2014  92.9095  92.9783  93.6885  94.3486  96.0948  96.9219
    96.9335  97.3969  97.6206  98.7479  98.9589  99.4014 100.1843 101.0368
   101.6572 101.9184 102.4482 102.6970 103.3716 103.7303 103.9174 104.5462
   105.2091 105.8663 106.7893 108.0503 108.4383 109.5505 109.9511 110.0993
   110.5990 112.0798 112.1448 112.1764 112.6596 112.7907 114.1886 114.3861
   114.4992 114.8723 115.4062 116.6302 116.6362 116.9069 116.9107 117.2773
   118.6248 119.0251 119.6189 120.2558 120.6181 121.2433 121.6617 121.8848
   123.3619 124.2038 124.6354 126.1923 126.7103 127.0417 127.0449 127.3039
   127.5673 127.9928 128.6257 128.6888 130.0403 130.7125 131.4134 132.1104
   132.7317 133.4743 134.2646 134.3998 136.2064 136.8800 137.3166 137.5829
   138.0173 138.4074 138.9714 139.4765 140.3615 140.7880 141.6181 142.0110
   142.8564 143.4559 143.8459 144.4036 144.8389 145.3400 145.6539 146.0222
   146.4282 146.9947 147.9550 147.9646 148.7042 149.1698 149.7724 149.8515
   150.3091 150.8135 150.9908 151.0867 151.5706 151.5981 152.5074 153.0000
   153.2171 153.3023 154.2913 154.7665 154.7767 155.3010 156.1966 156.4179
   156.8963 157.2140 157.4544 158.5781 159.4520 159.5344 159.7816 159.8323
   160.3914 161.3568 161.6527 161.9338 161.9647 162.5953 163.1235 163.3126
   163.9580 164.0154 164.6125 164.7320 166.2393 166.2449 166.8717 167.3010
   168.0595 169.2336 169.2760 170.1078 170.1821 171.0502 171.1407 171.6523
   172.3344 172.6523 173.3002 173.9659 174.4261 174.8279 175.6925 176.2645
   176.4258 176.6215 176.7766 177.5438 177.7457 178.2951 178.5994 179.3041
   179.4547 180.1785 180.5070 181.3966 181.5368 182.2247 183.1886 183.7715
   184.7180 185.1426 185.4646 185.6708 185.9888 187.9103 188.3724 188.7083
   188.8023 189.1040 189.1937 189.4857 190.3774 190.5033 190.6889 191.1262
   191.1743 191.2078 191.7481 192.2487 193.0222 193.1326 193.2471 194.2276
   194.2784 195.6412 195.8518 196.7859 197.4591 197.6711 198.0504 198.3821
   198.9798 199.1288 199.7927 200.2294 200.3169 200.4277 201.1314 201.3738
   202.7754 202.8247 203.7724 203.9471 203.9589 204.2857 205.2984 205.3712
   205.8751 206.2224 206.6146 207.0785 207.1515 207.6770 207.8362 208.0616
   209.3928 209.5977 210.0975 210.8882 211.3665 211.5438 211.9452 212.1941
   212.2314 213.2156 213.3396 213.8589 213.9291 213.9566 214.0723 214.4137
   214.9019 215.4659 215.5959 215.8388 216.1521 217.1806 217.6030 217.7517
   217.8468 218.3732 218.4420 218.7371 219.1023 220.1762 220.4937 220.6449
   221.0172 222.2308 222.4899 222.8966 223.3315 223.6676 224.1098 224.6094
   224.6178 225.2430 225.6985 225.8930 226.3562 226.9812 227.4373 227.5128
   227.7061 228.1099 229.1548 229.3060 230.2187 230.5318 231.1112 231.1766
   231.5380 232.0964 232.7409 233.5916 234.2927 234.6951 234.7896 235.6217
   236.0690 236.1933 236.4906 237.0045 237.4826 237.6801 237.9081 238.3168
   238.7931 239.0556 239.5052 239.6282 239.9918 240.1774 240.2768 240.6338
   240.9622 241.2241 241.6293 241.7730 242.4683 243.1006 243.2977 243.3695
   243.4318 243.8357 244.2627 244.9263 245.2645 245.6349 245.8757 246.3919
   247.2385 247.7354 248.1511 248.3387 248.9763 249.2030 249.5778 250.1579
   250.8045 251.4361 251.4462 252.3227 252.5750 252.8638 253.5142 254.1052
   254.2283 254.6704 255.3032 255.4315 255.4903 255.8624 256.1624 256.3059
   256.5964 257.4601 257.5042 258.1960 258.6381 259.5619 259.8583 260.0350
   260.1937 260.6813 260.9422 261.4120 262.0537 262.2655 262.8548 263.2294
   263.9512 264.2380 264.6896 264.8058 264.9239 265.3876 265.5845 266.7807
   267.0176 267.4732 267.9554 268.2424 268.7403 269.9735 270.0135 270.5535
   270.9457 271.3475 271.7231 272.0095 273.1518 273.3512 273.4826 273.7418
   274.3241 274.7597 275.3130 275.7192 275.9427 275.9895 276.6927 277.6274
   277.8996 278.0608 278.0745 278.8021 278.8885 278.9708 279.2462 279.9388
   280.0593 280.2570 280.7748 280.8090 280.8568 281.6200 281.8247 282.0361
   282.0550 282.6320 282.7768 282.9249 283.1742 283.8199 283.9460 284.5483
   284.7462 284.9870 285.1036 285.2311 286.0149 286.0240 286.5899 286.6687
   286.9110 287.3714 288.1671 288.3132 288.5029 288.6697 288.8142 289.7842
   290.1665 290.3595 290.8811 290.9938 291.3094 291.8347 292.3727 292.6929
   292.8600 293.3290 293.4593 293.4995 294.2649 294.6771 295.1287 295.1329
   295.5368 295.8180 296.3865 296.6731 296.7115 297.3332 297.4647 297.8673
   297.8731 298.4801 298.5279 298.7845 299.5564 299.6374 300.1252 300.2336
   300.9062 301.2368 302.0852 302.1163 302.2464 302.2843 302.6896 303.0493
   303.0751 303.7094 303.9814 304.5042 304.7116 304.7521 304.8408 305.2386
   305.5480 305.7286 305.7343 306.1502 306.5275 306.5476 308.2026 308.2771
   308.5750 308.8511 309.3734 309.9702 310.5784 310.8213 311.2447 311.4108
   311.9187 312.1103 312.8373 312.8989 313.8303 313.9341 314.7054 315.0008
   315.2899 315.5192 315.7190 316.7969 317.8043 317.9233 318.2347 318.6022
   319.0707 319.3316 319.5737 319.7723 320.3424 320.6085 320.9918 321.2969
   322.0694 322.1819 322.5593 322.6238 323.4697 324.3201 324.6058 324.7240
   324.7983 325.1424 325.2988 325.6415 326.2942 326.8312 326.9612 327.3791
   327.9584 328.0444 328.5125 328.6320 328.7761 328.8853 329.1550 329.2685
   329.6653 330.0693 330.3540 330.4358 330.6419 331.2969 331.3064 331.4592
   332.0029 332.3531 333.3357 333.4158 333.9475 334.2819 335.0756 335.3111
   335.4416 335.8288 336.0491 336.8616 336.9982 337.0840 337.7930 338.3709
   338.7527 339.0511 339.7706 339.8819 340.1511 341.2499 341.2663 341.9295
   342.6923 342.7382 343.0778 343.1606 343.3849 343.7205 343.7453 344.5781
   344.7872 344.8688 345.2078 345.2320 345.5755 345.8634 346.1904 346.2563
   346.3923 346.6989 346.7694 347.0779 347.0958 347.8571 348.2971 348.5456
   349.0377 349.1884 350.1036 350.6130 350.9970 351.1913 351.9120 352.0312
   352.6607 352.7195 352.8692 353.2193 353.3465 353.6689 353.8883 353.9038
   354.0466 354.3682 354.6387 355.2751 355.4313 356.0966 356.2397 356.5665
   356.9076 357.0121 357.6012 358.0700 358.5143 358.9280 359.2907 359.3224
   359.6479 360.1037 360.6346 360.6927 361.2904 361.4654 361.8098 361.8627
   362.3001 362.5793 362.8566 363.4354 364.0459 364.2684 364.5842 365.0361
   365.2154 365.5250 365.5805 365.7225 365.8722 366.0174 366.3036 366.5435
   366.7023 366.9308 367.0377 367.5658 367.5951 367.6836 368.0401 368.2345
   368.4700 368.6214 368.7689 369.1874 369.3640 369.9147 370.1080 370.3286
   370.3524 370.7461 371.4418 371.7242 372.1129 372.1893 372.4410 372.8588
   373.2759 373.8746 374.7376 375.4116 375.8277 376.0034 376.0538 376.3642
   376.5627 376.7827 377.1270 377.1413 377.4892 377.7363 377.8445 378.4764
   378.6945 378.8449 379.0060 379.3987 379.7844 380.0221 380.1228 380.5768
   381.1762 381.8405 382.0264 382.3246 382.7091 382.8803 383.3473 383.6525
   383.7537 384.2553 384.4263 385.4637 385.4735 385.9087 386.3494 386.5936
   386.6069 386.8831 386.9461 387.1953 387.5359 387.9847 388.0731 388.8361
   389.1022 389.4244 390.1313 390.3807 391.0774 391.4058 391.4509 391.7733
   392.0736 392.2670 392.9055 393.2956 393.4318 393.9228 393.9818 394.3755
   394.4889 394.6718 395.4907 396.6504 396.8647 397.0983 397.2298 397.7956
   397.9982 398.6269 398.8086 398.9140 398.9248 399.3505 399.6490 400.4904
   400.6095 401.0418 401.3128 401.4541 401.7532 402.2171 402.9677 403.0586
   403.3352 403.5864 404.1824 404.2924 404.7094 404.7424 404.7647 404.9072
   405.5636 405.6626 405.9156 405.9727 406.2116 406.3066 406.5827 406.7600
   406.7780 407.0341 407.0740 407.2511 407.7814 407.9797 408.2241 408.8994

          k = 0.0000 0.3849 0.1550 (  3288 PWs)   bands (ev):

  -113.3533-113.3533 -67.5641 -67.5633 -67.5629 -67.5621 -67.5621 -67.5616
    -7.3809  -7.0857   4.0233   4.2375   4.6264   4.7424   4.8914   4.9045
     5.5257   5.6189   5.7338   5.8395   6.6529   7.2007   7.8548   8.4557
     9.2788   9.3345  14.6333  16.7418  18.7191  19.1212  21.1561  22.7270
    23.6745  24.1602  25.1082  28.5252  29.8540  31.3271  32.0726  34.4900
    35.3771  36.7552  36.7786  37.5674  38.3709  39.1015  39.8772  40.6057
    41.6054  42.3263  44.7760  44.8844  45.6510  46.6344  48.5952  48.6110
    49.9586  50.2785  51.4814  52.6312  53.0851  54.0672  55.2775  56.3284
    57.1889  58.1110  58.4109  59.7455  59.8577  60.9120  61.6622  62.2286
    63.2141  64.2713  65.3310  65.9731  66.4352  67.2988  67.8283  68.8287
    68.9578  69.8746  69.9675  70.6774  70.6837  72.5640  73.3719  73.7255
    74.5893  74.7064  76.0335  76.2302  76.2353  77.3947  77.7054  79.2208
    79.2388  80.5766  80.5794  83.0264  83.8977  84.0097  84.3294  84.4342
    86.1518  86.7926  87.5993  87.7822  88.5768  89.3750  89.7516  91.1416
    91.7104  92.2029  92.8030  93.5758  93.8121  94.3275  95.3688  96.1790
    96.3898  97.4756  97.5061  98.4489  98.7750  98.8854  99.5282  99.7706
   100.6964 101.7819 102.5035 102.5267 103.3375 104.1866 105.0086 105.4861
   105.9559 106.5637 107.6270 107.7841 108.2900 109.3846 109.6432 109.7541
   110.4062 110.9410 111.4439 112.3275 112.3568 113.1225 113.6340 113.7521
   114.2841 115.7003 115.7757 116.4949 117.3469 117.6362 117.7905 118.3283
   119.0004 119.6592 119.9779 120.4871 121.0890 121.4075 122.2243 122.5247
   123.5422 123.7033 124.8888 125.2698 125.9072 126.3923 127.1005 127.6268
   128.6445 128.7352 130.4471 130.4870 130.7445 131.7534 132.2981 132.9530
   133.3212 133.3695 133.9942 135.2678 135.4680 136.3603 136.7020 137.4022
   137.8117 137.8699 138.6131 138.7451 139.2035 139.8002 139.8556 140.8165
   141.0679 141.8675 142.5595 142.6659 143.4563 143.8548 144.8529 145.2754
   145.6485 146.3952 146.9696 147.2062 147.9362 148.0046 148.4542 149.0413
   150.0709 150.6600 150.7421 151.5539 151.6709 152.7131 152.8270 153.8300
   153.8577 154.0971 154.6853 155.0227 155.8087 156.0272 156.3472 157.0216
   157.1574 157.4293 157.7375 159.0187 159.3569 159.8398 160.2442 161.2297
   161.2792 161.9012 162.0443 162.6562 163.0480 163.4228 163.9216 164.5460
   164.6894 165.5782 165.6874 166.2409 166.6945 166.8779 167.6569 168.4221
   168.4415 168.9957 169.3601 169.7509 170.0079 170.4460 171.0100 171.5318
   172.1399 172.4052 172.5648 173.8486 174.4320 174.7980 175.5226 176.0213
   176.3581 176.5086 177.4228 177.5574 178.3627 178.6370 179.0344 179.5344
   179.9649 180.8593 180.9379 181.2501 181.3825 182.5008 183.2542 183.3742
   184.5706 184.6580 185.0017 185.1419 185.9818 186.0784 186.2423 187.3250
   187.3459 187.4996 188.5227 188.6693 189.3003 190.0266 190.5787 190.7426
   191.3799 191.9280 192.3659 192.6909 192.8698 193.6459 194.2968 194.4809
   195.1097 195.1730 195.6722 196.3700 196.5209 196.9231 197.1136 198.5317
   198.9949 199.6621 200.0138 200.2679 200.6861 200.9213 201.1132 202.0135
   202.1512 202.3406 203.1640 203.5055 203.8731 204.5059 204.8688 205.5891
   206.2086 206.3089 207.2100 207.2359 207.5041 207.7982 208.2622 208.3662
   209.0710 209.4385 210.1112 210.2766 210.5142 210.6111 211.2383 211.3011
   211.6008 212.2273 212.5970 213.0612 213.2252 213.4457 214.0325 214.4242
   215.2107 215.3199 215.6533 215.9227 216.7163 217.0573 217.5366 218.0968
   218.4638 219.0432 219.5436 219.6743 219.7898 220.0796 220.9826 221.8424
   222.1598 222.1820 223.3899 223.5222 223.7628 224.1634 224.8539 225.2877
   225.3156 225.8563 225.9095 226.2641 226.6877 227.2391 227.4584 227.9611
   228.6233 228.8508 229.0462 229.4269 229.4791 229.9788 230.7911 231.1115
   231.2686 232.0199 232.2312 232.9238 233.1444 233.4674 233.8673 234.3362
   234.4837 235.1362 235.4661 235.6614 236.4556 236.4601 237.2814 237.2930
   237.6994 238.1352 238.5258 239.3439 239.8349 240.1091 240.8193 241.0216
   241.2490 242.1076 242.2516 243.1065 243.4817 243.8719 244.1026 244.1141
   244.8536 244.8761 245.1565 246.3187 246.5783 246.7483 246.7702 247.1470
   247.8512 248.4851 248.7554 249.0039 249.5132 249.6999 250.4047 250.6044
   251.1836 251.6245 252.0283 252.2557 252.7001 253.5290 253.5301 253.9359
   254.3590 254.8986 254.9100 255.5860 256.0830 256.2724 256.8410 256.9943
   257.5122 258.0034 258.1195 258.7138 258.9908 259.3256 259.7499 260.7011
   260.8560 261.0425 261.3919 261.9490 262.6944 262.8493 263.5145 263.6513
   264.1101 264.2031 264.7369 264.7515 265.5888 265.6787 265.8298 266.3547
   267.0853 267.1650 267.3097 267.9648 268.4781 268.6720 269.2180 269.7970
   269.8212 270.5249 271.1147 271.2097 271.3979 271.5686 272.2102 272.6861
   273.0998 273.6686 273.8439 274.1740 274.8478 275.0712 275.6939 276.1348
   276.5013 276.6956 277.4212 277.4261 277.7647 278.2529 278.2753 278.8301
   279.1293 279.3740 279.8338 280.1938 280.4761 280.9608 280.9862 281.4800
   282.0897 282.2354 282.6136 282.9099 283.1847 283.5687 283.8576 284.0513
   284.5284 284.6095 284.9747 285.1365 285.7482 286.0096 286.8244 287.0844
   287.3526 287.7063 287.8602 288.2807 288.9133 289.0621 289.5016 289.8323
   289.8674 290.3464 290.8370 290.9874 291.3052 291.4905 291.7854 292.1115
   292.5919 292.6110 293.2957 293.5543 293.6604 294.0004 294.2635 294.4622
   295.1177 295.4086 295.9945 296.2169 296.7967 296.8779 297.0779 297.3543
   297.8456 298.5925 299.1286 299.1292 299.7814 300.4940 301.0316 301.0975
   301.7314 301.9812 302.2540 302.4498 302.4814 302.8288 303.7832 304.3797
   304.4384 305.0135 305.1690 305.5704 305.8850 306.3250 306.4540 306.7943
   307.2605 307.6104 307.8690 308.2529 309.0668 309.2179 310.0734 310.2030
   310.5070 310.7741 311.3265 311.7354 311.9485 312.2112 312.4228 312.5159
   312.5487 312.9625 313.6329 313.9324 314.0483 314.4472 314.7475 314.9911
   315.6683 315.7289 316.2801 316.5735 316.9424 317.0531 317.5923 317.6812
   318.2543 318.4802 319.4241 319.5436 320.0784 320.5538 320.6231 321.2986
   321.4514 321.5592 322.0442 322.2979 322.6445 322.9125 323.0385 323.0969
   323.9047 324.3501 324.4999 324.8234 325.5491 325.9037 326.1636 326.4319
   326.9055 327.3152 327.5066 327.7387 327.9100 328.2995 328.8234 329.2089
   329.8993 329.9355 330.3321 330.7895 331.7297 332.1494 332.2283 332.5173
   333.0383 333.3757 333.4817 334.4060 334.7717 334.9698 335.2624 335.6291
   336.0329 336.3552 336.7376 337.1318 337.1554 337.7079 338.3183 338.4915
   339.0176 339.0253 339.3104 339.5782 340.0487 340.3077 340.8313 340.8660
   341.8174 341.9317 342.1245 342.2837 342.3225 342.7400 343.1578 343.4151
   343.7570 343.8679 344.5794 344.8140 345.0524 345.1901 345.5156 345.5806
   346.1097 346.5548 346.7514 347.4422 347.4595 348.0887 348.0984 348.3916
   349.1925 349.5711 349.9828 350.0817 350.4269 350.9071 351.1530 351.1769
   351.5161 351.9234 352.0116 352.3363 352.5152 352.8144 352.9552 353.5081
   353.9519 354.5562 354.6284 355.2909 355.4615 355.7409 355.8964 356.1230
   356.8498 357.0047 357.2545 357.3035 357.9414 358.1735 358.3612 358.6031
   359.0125 359.0129 359.5936 360.3195 360.3303 360.8842 361.1434 361.4274
   361.9853 362.0254 362.5655 362.7493 363.0059 363.3603 363.6032 363.7635
   363.8430 364.4034 364.5590 364.9697 365.0126 365.8099 366.0410 366.7365
   367.1346 367.1357 367.7559 367.7778 368.1910 368.4238 368.9083 369.0884
   369.1522 369.6718 370.6921 370.7931 370.9520 371.6185 371.7202 372.1016
   372.2737 372.4288 372.5473 373.2478 373.2979 373.6028 373.6729 374.2196
   374.3551 374.8349 374.9929 375.1406 375.7973 375.7991 376.1376 376.2794
   376.7783 377.3052 377.3839 377.7496 378.0104 378.1985 378.8852 379.1212
   379.2871 379.6875 379.9410 379.9439 380.6984 380.7533 381.1967 381.8366
   382.4389 382.4491 382.8689 382.9973 383.1800 383.8260 383.9309 384.4453
   384.8891 385.3403 385.4238 385.4984 385.7830 385.9958 386.4338 386.4462
   386.8986 387.1159 387.2073 387.4815 387.6390 387.8728 388.1739 388.6271
   388.6498 389.1285 389.2829 389.4539 390.0467 390.2125 390.5488 390.9161
   391.4217 391.5952 392.0256 392.0662 392.9934 393.0697 393.7810 393.9262
   394.3770 394.4356 395.0331 395.2479 395.7617 395.8003 396.2167 396.4247
   396.6435 397.1979 397.4265 397.8856 397.9442 398.7236 399.0826 399.2375
   399.5810 399.9431 400.1392 400.9893 401.5420 401.6906 402.0161 402.0818
   402.9328 403.3896 403.6132 403.8837 403.9962 404.4081 404.9011 405.0771
   405.2343 405.4986 405.9622 405.9981 406.3145 406.8316 406.9157 407.2608
   407.5475 408.0122 408.1495 408.3546 408.9317 409.0641 409.3794 409.5910

          k = 0.0000 0.3849-0.3100 (  3306 PWs)   bands (ev):

  -113.3533-113.3533 -67.5638 -67.5638 -67.5623 -67.5623 -67.5619 -67.5619
    -7.2313  -7.2313   4.0024   4.0024   4.7520   4.7521   4.7552   4.7552
     5.6730   5.6730   5.6920   5.6920   7.0375   7.0375   8.7144   8.7145
     8.9066   8.9066  15.4583  15.4583  19.1240  19.1240  21.6459  21.6459
    23.8653  23.8653  26.5099  26.5099  31.8158  31.8158  32.2129  32.2129
    35.9511  35.9511  37.1422  37.1422  39.0828  39.0828  41.1023  41.1024
    42.8359  42.8359  43.8132  43.8132  47.1937  47.1937  47.2873  47.2873
    49.7229  49.7229  52.7119  52.7119  53.4298  53.4298  55.4794  55.4794
    55.8156  55.8156  58.5288  58.5289  61.3089  61.3089  62.7258  62.7258
    63.1046  63.1046  65.9084  65.9084  67.2781  67.2781  68.6313  68.6313
    70.2196  70.2196  71.3777  71.3777  71.9270  71.9270  73.6658  73.6658
    74.1790  74.1790  75.7243  75.7243  77.4895  77.4895  78.6973  78.6973
    79.9740  79.9740  80.9896  80.9896  82.2528  82.2528  83.3282  83.3282
    87.1331  87.1331  88.0369  88.0369  88.9829  88.9829  90.4170  90.4170
    92.1192  92.1192  93.3893  93.3893  94.5557  94.5557  95.8669  95.8669
    95.9860  95.9860  97.6366  97.6366  98.1854  98.1854 100.5576 100.5576
   102.3768 102.3768 102.8342 102.8342 103.3684 103.3684 104.6809 104.6809
   105.1692 105.1692 107.6222 107.6222 108.3357 108.3357 109.8065 109.8065
   109.9386 109.9386 111.6610 111.6610 112.7362 112.7362 113.6793 113.6793
   115.7259 115.7259 116.5706 116.5706 117.2813 117.2813 118.5053 118.5053
   119.9562 119.9562 121.4675 121.4675 122.4680 122.4680 123.7549 123.7549
   125.0018 125.0018 126.0099 126.0099 126.7289 126.7289 126.9666 126.9666
   128.5633 128.5633 128.6500 128.6500 130.3790 130.3790 131.8355 131.8355
   132.9004 132.9004 134.5105 134.5105 136.1209 136.1209 136.4050 136.4050
   137.3235 137.3235 137.8471 137.8471 139.8319 139.8319 140.3865 140.3866
   141.4742 141.4743 142.9605 142.9605 143.3823 143.3823 145.1599 145.1599
   145.4554 145.4554 146.3988 146.3988 146.7956 146.7956 148.4394 148.4394
   149.7778 149.7778 149.9850 149.9850 150.9544 150.9544 152.2354 152.2354
   152.7316 152.7316 154.9174 154.9174 155.6804 155.6804 156.8184 156.8184
   158.0547 158.0547 159.7250 159.7250 160.0910 160.0910 161.3409 161.3409
   162.4703 162.4703 162.5617 162.5617 164.7398 164.7398 165.0727 165.0727
   166.9110 166.9110 168.0981 168.0981 168.1517 168.1517 169.0787 169.0787
   169.1625 169.1625 170.0578 170.0578 171.4458 171.4458 171.6887 171.6887
   172.4151 172.4151 173.0851 173.0851 174.2345 174.2345 175.3334 175.3334
   175.7582 175.7582 176.6943 176.6943 177.2260 177.2260 179.6980 179.6980
   180.0620 180.0620 180.6758 180.6758 180.8207 180.8207 182.6418 182.6419
   182.9814 182.9814 184.4031 184.4031 185.2999 185.2999 186.6695 186.6695
   187.2206 187.2206 189.0500 189.0500 190.5508 190.5508 190.6336 190.6336
   192.0892 192.0892 192.1167 192.1167 193.2743 193.2743 193.8594 193.8594
   194.1415 194.1415 195.9166 195.9166 197.7526 197.7526 197.9626 197.9626
   199.0170 199.0170 200.3264 200.3264 200.9315 200.9315 202.6703 202.6703
   202.7163 202.7163 203.6008 203.6008 203.6248 203.6248 205.2821 205.2821
   205.3922 205.3922 206.1001 206.1001 206.8773 206.8773 207.1208 207.1208
   207.6835 207.6835 208.9125 208.9125 210.2788 210.2788 210.7461 210.7461
   212.9894 212.9895 213.2968 213.2968 213.4982 213.4982 215.1292 215.1292
   215.9317 215.9317 217.0792 217.0792 218.1469 218.1469 219.0424 219.0424
   219.2363 219.2363 220.3670 220.3670 221.0798 221.0798 221.4854 221.4854
   222.7893 222.7893 222.9092 222.9092 223.4051 223.4051 223.9510 223.9510
   224.9015 224.9015 225.4483 225.4483 226.1492 226.1492 227.5827 227.5827
   227.5990 227.5990 229.5239 229.5239 229.8203 229.8203 230.8953 230.8953
   231.0368 231.0368 231.4922 231.4922 232.6289 232.6289 233.8349 233.8349
   235.5234 235.5234 235.7510 235.7510 237.0661 237.0661 237.6542 237.6542
   237.9857 237.9857 239.9937 239.9937 240.4412 240.4412 241.7504 241.7504
[...]
   383.4763 383.7337 384.4217 384.7717 384.9594 385.2252 385.7097 386.1197
   386.2927 386.3845 387.1071 387.4670 387.6537 387.9380 388.3341 388.3937
   388.7041 389.0461 389.5066 389.6725 389.9255 389.9965 390.3876 390.3957
   390.6609 390.7043 391.1643 391.1857 391.5252 391.6508 392.0640 392.2461
   392.6776 392.7572 392.9362 393.2389 393.3768 393.5771 393.6976 394.0751
   394.1798 394.3881 395.0765 395.1316 395.3242 395.4030 395.6264 396.0042
   396.5041 396.7723 396.9915 397.1926 397.3110 397.5626 397.8228 398.1335
   398.4577 398.5359 398.6004 399.0520 399.2562 399.6489 400.1464 400.4612
   400.6827 400.9264 401.1752 401.3429 401.7545 402.0017 402.2667 402.3428
   403.0719 403.4582 403.6999 404.1716 404.3706 404.6695 405.0757 405.1905
   405.8554 405.9949 406.4456 406.7765 407.1625 407.1780 407.5841 408.0998

          k = 0.0000-0.3849 0.1550 (  3288 PWs)   bands (ev):

  -113.3533-113.3533 -67.5641 -67.5633 -67.5629 -67.5621 -67.5621 -67.5616
    -7.3809  -7.0857   4.0233   4.2375   4.6264   4.7424   4.8914   4.9045
     5.5257   5.6189   5.7338   5.8395   6.6529   7.2007   7.8548   8.4557
     9.2788   9.3345  14.6333  16.7418  18.7191  19.1212  21.1561  22.7270
    23.6745  24.1602  25.1082  28.5252  29.8540  31.3271  32.0726  34.4900
    35.3771  36.7552  36.7786  37.5674  38.3709  39.1015  39.8772  40.6057
    41.6054  42.3263  44.7760  44.8844  45.6510  46.6344  48.5952  48.6110
    49.9586  50.2785  51.4814  52.6312  53.0851  54.0672  55.2775  56.3284
    57.1889  58.1110  58.4109  59.7455  59.8577  60.9120  61.6622  62.2286
    63.2141  64.2713  65.3310  65.9731  66.4352  67.2988  67.8283  68.8287
    68.9578  69.8746  69.9675  70.6774  70.6837  72.5640  73.3719  73.7255
    74.5893  74.7064  76.0335  76.2302  76.2353  77.3947  77.7054  79.2208
    79.2388  80.5766  80.5794  83.0264  83.8977  84.0097  84.3294  84.4342
    86.1518  86.7926  87.5993  87.7822  88.5768  89.3750  89.7516  91.1416
    91.7104  92.2029  92.8030  93.5758  93.8121  94.3275  95.3688  96.1790
    96.3898  97.4756  97.5061  98.4489  98.7750  98.8854  99.5282  99.7706
   100.6964 101.7819 102.5035 102.5267 103.3375 104.1866 105.0086 105.4861
   105.9559 106.5637 107.6270 107.7841 108.2900 109.3846 109.6432 109.7541
   110.4062 110.9410 111.4439 112.3275 112.3568 113.1225 113.6340 113.7521
   114.2841 115.7003 115.7757 116.4949 117.3469 117.6362 117.7905 118.3283
   119.0004 119.6592 119.9779 120.4871 121.0890 121.4075 122.2243 122.5247
   123.5422 123.7033 124.8888 125.2698 125.9072 126.3923 127.1005 127.6268
   128.6445 128.7352 130.4471 130.4870 130.7445 131.7534 132.2981 132.9530
   133.3212 133.3695 133.9942 135.2678 135.4680 136.3603 136.7020 137.4022
   137.8117 137.8699 138.6131 138.7451 139.2035 139.8002 139.8556 140.8165
   141.0679 141.8675 142.5595 142.6659 143.4563 143.8548 144.8529 145.2754
   145.6485 146.3952 146.9696 147.2062 147.9362 148.0046 148.4542 149.0413
   150.0709 150.6600 150.7421 151.5539 151.6709 152.7131 152.8270 153.8300
   153.8577 154.0971 154.6853 155.0227 155.8087 156.0272 156.3472 157.0216
   157.1574 157.4293 157.7375 159.0187 159.3569 159.8398 160.2442 161.2297
   161.2792 161.9012 162.0443 162.6562 163.0480 163.4228 163.9216 164.5460
   164.6894 165.5782 165.6874 166.2409 166.6945 166.8779 167.6569 168.4221
   168.4415 168.9957 169.3601 169.7509 170.0079 170.4460 171.0100 171.5318
   172.1399 172.4052 172.5648 173.8486 174.4320 174.7980 175.5226 176.0213
   176.3581 176.5086 177.4228 177.5574 178.3627 178.6370 179.0344 179.5344
   179.9649 180.8593 180.9379 181.2501 181.3825 182.5008 183.2542 183.3742
   184.5706 184.6580 185.0017 185.1419 185.9818 186.0784 186.2423 187.3250
   187.3459 187.4996 188.5227 188.6693 189.3003 190.0266 190.5787 190.7426
   191.3799 191.9280 192.3659 192.6909 192.8698 193.6460 194.2968 194.4809
   195.1097 195.1730 195.6722 196.3700 196.5209 196.9231 197.1136 198.5317
   198.9949 199.6621 200.0138 200.2679 200.6861 200.9213 201.1132 202.0135
   202.1512 202.3406 203.1640 203.5055 203.8731 204.5059 204.8688 205.5891
   206.2086 206.3089 207.2100 207.2359 207.5041 207.7982 208.2622 208.3662
   209.0710 209.4385 210.1112 210.2766 210.5142 210.6111 211.2383 211.3011
   211.6008 212.2273 212.5970 213.0612 213.2252 213.4457 214.0325 214.4242
   215.2107 215.3199 215.6533 215.9227 216.7163 217.0573 217.5366 218.0968
   218.4638 219.0432 219.5436 219.6743 219.7898 220.0796 220.9826 221.8424
   222.1598 222.1820 223.3899 223.5222 223.7628 224.1634 224.8539 225.2877
   225.3156 225.8563 225.9095 226.2641 226.6877 227.2391 227.4584 227.9611
   228.6233 228.8508 229.0462 229.4269 229.4791 229.9788 230.7911 231.1115
   231.2686 232.0199 232.2312 232.9238 233.1444 233.4674 233.8673 234.3362
   234.4837 235.1362 235.4661 235.6614 236.4556 236.4601 237.2814 237.2930
   237.6994 238.1352 238.5258 239.3439 239.8349 240.1091 240.8193 241.0216
   241.2490 242.1076 242.2516 243.1065 243.4817 243.8719 244.1026 244.1141
   244.8536 244.8761 245.1565 246.3186 246.5783 246.7483 246.7702 247.1470
   247.8512 248.4851 248.7554 249.0039 249.5132 249.6999 250.4047 250.6044
   251.1836 251.6245 252.0283 252.2557 252.7001 253.5290 253.5301 253.9359
   254.3590 254.8986 254.9100 255.5860 256.0830 256.2724 256.8410 256.9943
   257.5122 258.0034 258.1195 258.7138 258.9908 259.3256 259.7499 260.7011
   260.8560 261.0425 261.3919 261.9490 262.6944 262.8493 263.5145 263.6513
   264.1101 264.2031 264.7369 264.7515 265.5888 265.6787 265.8298 266.3547
   267.0853 267.1650 267.3097 267.9648 268.4781 268.6720 269.2180 269.7970
   269.8212 270.5249 271.1147 271.2097 271.3979 271.5686 272.2102 272.6861
   273.0998 273.6686 273.8439 274.1740 274.8478 275.0712 275.6939 276.1348
   276.5013 276.6956 277.4212 277.4261 277.7647 278.2529 278.2753 278.8301
   279.1293 279.3740 279.8338 280.1938 280.4761 280.9608 280.9862 281.4800
   282.0897 282.2354 282.6136 282.9099 283.1847 283.5687 283.8576 284.0513
   284.5284 284.6095 284.9747 285.1365 285.7482 286.0096 286.8244 287.0844
   287.3526 287.7063 287.8602 288.2807 288.9133 289.0621 289.5016 289.8323
   289.8674 290.3464 290.8370 290.9874 291.3052 291.4905 291.7854 292.1115
   292.5919 292.6110 293.2957 293.5543 293.6604 294.0004 294.2635 294.4622
   295.1177 295.4086 295.9945 296.2169 296.7967 296.8779 297.0779 297.3543
   297.8456 298.5925 299.1286 299.1292 299.7814 300.4940 301.0316 301.0975
   301.7314 301.9812 302.2540 302.4498 302.4814 302.8288 303.7832 304.3797
   304.4384 305.0135 305.1690 305.5704 305.8850 306.3250 306.4540 306.7943
   307.2605 307.6104 307.8690 308.2529 309.0668 309.2179 310.0734 310.2030
   310.5070 310.7741 311.3265 311.7354 311.9485 312.2112 312.4228 312.5159
   312.5487 312.9625 313.6329 313.9324 314.0483 314.4472 314.7475 314.9912
   315.6683 315.7289 316.2801 316.5735 316.9424 317.0531 317.5923 317.6812
   318.2543 318.4802 319.4241 319.5436 320.0784 320.5538 320.6231 321.2986
   321.4514 321.5592 322.0442 322.2979 322.6445 322.9125 323.0385 323.0969
   323.9047 324.3501 324.4999 324.8234 325.5491 325.9037 326.1636 326.4319
   326.9055 327.3152 327.5066 327.7387 327.9100 328.2995 328.8234 329.2089
   329.8993 329.9355 330.3321 330.7895 331.7297 332.1494 332.2283 332.5173
   333.0383 333.3757 333.4817 334.4060 334.7717 334.9698 335.2624 335.6291
   336.0329 336.3552 336.7376 337.1318 337.1554 337.7079 338.3183 338.4915
   339.0176 339.0253 339.3104 339.5782 340.0487 340.3077 340.8313 340.8660
   341.8174 341.9317 342.1245 342.2837 342.3225 342.7400 343.1578 343.4151
   343.7570 343.8679 344.5794 344.8140 345.0524 345.1901 345.5156 345.5806
   346.1097 346.5548 346.7514 347.4422 347.4595 348.0888 348.0985 348.3916
   349.1925 349.5711 349.9828 350.0817 350.4269 350.9071 351.1530 351.1769
   351.5161 351.9234 352.0116 352.3363 352.5152 352.8144 352.9552 353.5081
   353.9519 354.5562 354.6284 355.2909 355.4615 355.7409 355.8964 356.1230
   356.8498 357.0047 357.2545 357.3035 357.9414 358.1735 358.3612 358.6031
   359.0125 359.0129 359.5936 360.3195 360.3303 360.8842 361.1434 361.4274
   361.9853 362.0254 362.5655 362.7493 363.0059 363.3603 363.6032 363.7635
   363.8430 364.4034 364.5590 364.9697 365.0126 365.8099 366.0410 366.7365
   367.1346 367.1357 367.7559 367.7778 368.1910 368.4238 368.9083 369.0884
   369.1522 369.6718 370.6921 370.7931 370.9520 371.6185 371.7202 372.1016
   372.2737 372.4288 372.5473 373.2478 373.2979 373.6028 373.6729 374.2196
   374.3551 374.8349 374.9929 375.1406 375.7973 375.7991 376.1376 376.2794
   376.7783 377.3052 377.3839 377.7496 378.0104 378.1985 378.8852 379.1212
   379.2871 379.6875 379.9410 379.9439 380.6984 380.7533 381.1967 381.8366
   382.4389 382.4491 382.8689 382.9973 383.1800 383.8260 383.9309 384.4453
   384.8891 385.3403 385.4238 385.4984 385.7830 385.9958 386.4338 386.4462
   386.8986 387.1159 387.2073 387.4815 387.6390 387.8728 388.1739 388.6271
   388.6498 389.1285 389.2829 389.4539 390.0467 390.2125 390.5488 390.9161
   391.4217 391.5952 392.0256 392.0662 392.9934 393.0697 393.7810 393.9262
   394.3770 394.4356 395.0331 395.2479 395.7617 395.8003 396.2167 396.4247
   396.6435 397.1979 397.4265 397.8856 397.9442 398.7236 399.0826 399.2375
   399.5810 399.9431 400.1392 400.9893 401.5420 401.6906 402.0161 402.0818
   402.9328 403.3896 403.6132 403.8837 403.9962 404.4081 404.9011 405.0771
   405.2343 405.4986 405.9622 405.9981 406.3145 406.8316 406.9157 407.2608
   407.5475 408.0122 408.1495 408.3546 408.9317 409.0641 409.3794 409.5910

          k =-0.1667-0.4811 0.1550 (  3300 PWs)   bands (ev):

  -113.3533-113.3532 -67.5640 -67.5636 -67.5629 -67.5626 -67.5623 -67.5620
    -7.2018  -7.0350   4.1858   4.3378   4.6263   4.8222   5.0101   5.0496
     5.5533   5.6641   5.7926   5.9718   6.3067   6.8117   7.4970   7.9975
     8.6816   9.0261  16.0235  17.3016  18.4926  18.8940  20.4117  21.4012
    22.9806  24.7373  26.0978  28.2513  30.1753  31.9351  32.9271  33.4723
    35.8352  36.2292  36.9824  38.1738  39.0354  39.3872  40.2666  42.7285
    43.2822  43.5483  44.9018  45.7842  46.3141  47.1906  48.0778  49.0456
    49.9589  50.3599  51.5646  52.1806  53.0796  53.4808  54.3666  54.4769
    55.2567  56.0709  57.5987  57.9759  59.0965  59.8259  60.5055  61.4284
    61.9011  62.6307  63.8791  64.7354  65.3103  66.2984  66.4279  66.9901
    67.8308  68.7551  69.5181  70.3761  71.2435  72.8155  73.2274  73.6086
    74.7828  76.6001  77.0177  78.0429  78.5064  79.0557  79.9897  80.3993
    81.5789  82.2770  82.5068  83.3625  84.0251  84.5940  85.3802  85.7646
    86.5983  87.8316  88.4442  88.7146  89.5352  89.8005  90.7719  91.3205
    91.5911  92.0450  92.5312  92.8496  94.1905  95.2409  95.6786  96.5608
    97.0639  97.9212  98.2985  98.7854  99.2765  99.4796  99.9534 100.5279
   101.2889 101.7314 102.4335 103.4566 103.6839 104.0563 105.1908 105.4428
   106.2201 106.5588 107.6976 107.9407 108.6329 109.0779 109.2900 109.7352
   109.9265 110.6276 111.1225 111.9349 112.3841 112.8511 113.3444 114.1243
   114.5787 114.8735 115.4134 116.0152 116.4003 116.7547 117.0687 117.7511
   118.7112 119.0340 119.5274 120.7066 120.9005 121.5348 122.2235 122.5513
   123.7772 123.9371 124.5491 124.9466 126.1016 126.5870 127.2855 127.8206
   128.0993 128.4086 129.0323 129.6205 130.0849 130.6019 130.9722 131.4798
   131.9726 132.5170 132.9398 133.2562 133.8121 134.5665 134.9134 135.5546
   135.9144 136.5421 137.1378 137.6225 138.1530 138.5892 138.9246 139.6423
   140.4239 140.6314 141.0866 141.6881 142.2350 142.9707 143.5863 144.2071
   144.6388 145.5648 145.8182 146.5146 146.8999 147.3758 147.8803 148.6280
   148.8606 149.7390 150.3928 150.9534 151.8950 152.0597 152.7007 153.0840
   153.9811 154.2734 154.8201 155.3249 155.8011 156.4831 156.7445 157.5775
   158.0043 158.4750 158.8869 159.1302 160.3776 160.6563 160.9869 161.8786
   162.1697 162.4777 162.9440 163.8319 164.0561 164.3554 165.0828 165.4741
   165.9974 166.6762 167.2302 167.6196 168.3412 169.0712 169.3711 169.8816
   170.4847 171.0566 171.4244 171.7299 172.2057 172.5483 172.9625 173.1530
   173.7437 174.2589 174.5638 175.1654 175.5940 176.1629 176.5975 177.0224
   177.4983 177.6995 178.5763 179.0318 179.2444 180.0238 180.4450 181.1499
   181.3010 181.7367 182.4191 182.7044 183.3763 183.6880 184.2918 184.7485
   185.1380 185.8100 186.4174 186.7956 187.2714 187.5441 187.8165 188.1002
   188.3701 188.6566 188.9818 189.4675 189.8378 190.3903 190.7311 191.1499
   191.4325 191.9391 192.1093 192.6026 192.7185 193.2797 193.7666 194.1174
   194.6718 195.1526 195.8636 196.2025 196.4165 196.7028 197.2767 197.5652
   198.1746 198.3269 198.9130 199.2209 199.9617 200.2687 200.7551 201.0639
   201.1383 201.8544 202.1590 202.6206 203.1741 203.2906 203.8991 204.3491
   204.6991 205.3243 205.4491 205.7730 206.2786 206.6204 207.1010 207.4564
   208.0250 208.3126 208.5822 208.9933 209.3644 209.7509 210.3684 211.0511
   211.4071 211.7532 212.0604 212.5667 213.3290 213.5470 213.9058 214.2384
   214.5439 215.0443 215.3417 215.7632 215.9177 216.4862 216.6990 217.6613
   217.9780 218.2956 218.9060 219.2498 219.8802 220.1076 220.4358 221.3694
   221.4994 221.7071 222.2798 222.5390 222.8500 223.2127 223.5616 223.8552
   224.1478 224.4850 225.0550 225.6507 225.8315 226.1956 226.5364 227.0862
   227.2766 227.6401 228.1218 228.5763 228.7213 229.7812 230.1180 230.6460
   230.9984 231.4769 231.6579 232.0096 232.2006 232.8040 233.0689 233.7076
   234.0702 234.5446 234.9387 235.3406 235.8296 236.2999 236.6338 237.1927
   237.5586 238.0160 238.4132 239.0722 239.3659 239.6712 239.8710 240.0955
   240.7481 241.0054 241.7212 242.1267 242.3145 243.1901 243.4457 243.7225
   243.9107 244.6202 245.0008 245.4919 245.8945 246.3841 246.8070 246.9969
   247.2895 247.8252 248.7446 249.2602 249.5142 249.5944 250.5541 250.7736
   251.1594 251.7094 252.1985 252.6421 253.0549 253.3673 253.5749 254.1625
   254.4142 254.8655 255.3713 255.6589 256.3563 256.4653 256.7546 257.3601
   257.4861 257.9808 258.0719 258.4124 258.7310 259.0559 259.4269 259.8978
   260.1319 260.7654 261.0750 261.4539 261.7321 262.2303 262.4467 263.1262
   263.3108 263.7990 264.2645 264.7512 265.1817 265.3023 265.4519 265.8570
   266.4112 266.7656 267.4721 267.7229 267.9494 268.1813 268.7290 269.1869
   269.5631 270.0573 270.6533 270.9520 271.2848 271.7889 272.3174 272.5874
   272.9582 273.5246 273.8253 274.6430 275.1055 275.6892 275.9719 276.3716
   276.6462 277.2061 277.7682 278.0505 278.4070 278.6374 278.9667 279.1647
   279.5518 279.9552 280.6537 280.7767 281.1485 281.5317 281.8584 282.2688
   282.5046 282.8205 283.3140 283.6429 284.4525 284.6825 285.1311 285.6904
   286.0132 286.2707 286.4618 287.1539 287.3444 287.7167 288.1367 288.2704
   288.5310 289.1461 289.4453 289.7863 290.0778 290.6544 290.7381 291.1682
   291.4969 291.8800 292.2254 292.5785 293.0424 293.5297 294.0165 294.0600
   294.4115 295.0231 295.3241 295.5817 296.1793 296.6470 297.0861 297.2413
   297.4595 297.5773 298.0732 298.4115 298.7216 299.0439 299.4573 299.7815
   300.2789 300.4172 300.7917 301.1610 301.4855 301.8102 301.9831 302.3021
   302.5206 302.9275 303.4017 303.4678 303.8518 304.3387 304.7300 305.0254
   305.5007 305.6675 306.2504 306.5960 306.8104 307.1918 307.3669 307.6780
   308.5310 308.6422 308.8499 309.1687 309.5620 309.9137 310.3443 310.6728
   310.9740 311.2234 311.6159 311.8488 312.1501 312.5000 312.6109 312.8626
   313.1910 313.4062 313.9006 314.1871 314.4712 314.7697 315.2643 315.9042
   316.2390 316.6154 316.7815 317.2322 317.5445 318.1346 318.3571 318.6079
   319.2012 319.4331 319.6391 320.0446 320.2452 320.7046 321.1191 321.3645
   321.6549 322.1542 322.6513 322.7365 322.9707 323.3711 323.6300 323.8793
   324.1597 324.2801 324.3902 324.7367 325.0540 325.2972 325.5088 325.9070
   326.0711 326.2125 326.6692 327.4464 327.7434 327.9488 328.1981 328.3837
   328.8467 329.4101 329.6620 330.0446 330.3383 330.9075 331.1865 331.7474
   332.0149 332.1837 332.5652 333.0534 333.4035 333.5613 333.8892 334.2041
   334.6221 334.8413 335.0431 335.2302 335.8572 336.2987 336.4499 336.7544
   336.9680 337.4918 337.7257 337.9779 338.1514 338.4294 338.6841 339.2078
   339.4329 339.9292 340.3993 340.6501 340.7961 341.0767 341.2594 341.8476
   342.1716 342.7195 342.9585 343.4154 343.5847 343.8508 344.0739 344.4686
   344.9721 345.2624 345.3315 345.6522 346.2059 346.4942 346.7129 347.0478
   347.3374 347.5323 348.0589 348.3675 348.8341 349.1554 349.5562 349.8836
   350.1319 350.5178 350.9244 351.0578 351.3901 351.5729 351.7004 352.3024
   352.5231 352.8299 353.1193 353.3361 353.5934 353.9413 354.1873 354.3776
   354.7438 354.9753 355.6918 355.8358 356.2891 357.1799 357.5636 357.7191
   358.3225 358.6029 358.8350 359.0557 359.3059 359.7694 360.1596 360.4084
   360.8648 360.9397 361.5947 361.7609 362.0998 362.4741 362.6196 363.0155
   363.2977 363.5849 363.8271 364.1990 364.5201 364.7067 365.1917 365.7139
   366.0456 366.4692 366.7234 367.3278 367.5940 367.8660 368.0887 368.4354
   368.6007 368.9847 369.2690 369.5243 370.0954 370.2803 370.4924 370.8236
   371.1356 371.4247 371.7494 371.8753 372.2680 372.7452 373.0509 373.2394
   373.5799 373.9075 373.9560 374.3096 374.8366 375.1843 375.3639 375.4633
   375.8727 376.3092 376.7394 377.1334 377.1871 377.9152 378.1164 378.4804
   378.8400 379.1647 379.5801 379.9054 380.4309 380.9163 381.2526 381.7314
   382.1342 382.3505 382.6747 383.0521 383.3018 383.6247 384.1659 384.2420
   384.7211 384.9363 385.3821 385.5551 386.0034 386.3141 386.4073 386.7498
   387.0854 387.5023 387.8703 388.3380 388.6760 389.0496 389.4858 389.8282
   390.1337 390.4621 390.8383 391.0383 391.3615 391.8351 392.1471 392.4241
   392.8447 393.3409 393.8811 394.3588 394.5577 394.7592 395.1209 395.5657
   395.9212 396.1707 396.4700 396.6360 396.8304 397.2276 397.5373 398.2788
   398.3974 398.7438 398.8905 399.0538 399.3250 399.4736 399.8465 400.3272
   400.5204 400.8401 400.9299 401.3838 401.9732 402.0812 402.2519 402.3657
   402.6394 402.9361 403.5935 403.9861 404.4569 404.9056 405.2141 405.5471
   405.8023 405.9476 406.1180 406.5743 406.8345 407.1221 407.3790 407.7858
   408.2356 408.5063 408.7118 409.1202 409.3930 409.6170 409.9383 410.1919

     the Fermi energy is    10.5645 ev
     (compare with:    10.5645 eV, computed in scf)

     Writing all to output data dir out/mp-2133.save/
 
     init_run     :      0.02s CPU      0.03s WALL (       1 calls)
     electrons    :    491.17s CPU    533.59s WALL (       1 calls)

     Called by init_run:
     wfcinit      :      0.00s CPU      0.00s WALL (       1 calls)
     potinit      :      0.00s CPU      0.01s WALL (       1 calls)
     hinit0       :      0.01s CPU      0.01s WALL (       1 calls)

     Called by electrons:
     c_bands      :    491.16s CPU    533.57s WALL (       1 calls)
     v_of_rho     :      0.00s CPU      0.00s WALL (       1 calls)

     Called by c_bands:
     init_us_2    :      0.00s CPU      0.00s WALL (      24 calls)
     init_us_2:cp :      0.00s CPU      0.00s WALL (      24 calls)
     cegterg      :    478.30s CPU    519.58s WALL (      24 calls)

     Called by *egterg:
     cdiaghg      :    430.57s CPU    468.76s WALL (     264 calls)
     h_psi        :     15.91s CPU     16.91s WALL (     288 calls)
     g_psi        :      0.09s CPU      0.09s WALL (     240 calls)

     Called by h_psi:
     h_psi:calbec :      0.46s CPU      0.50s WALL (     288 calls)
     vloc_psi     :     14.94s CPU     15.87s WALL (     288 calls)
     add_vuspsi   :      0.35s CPU      0.36s WALL (     288 calls)

     General routines
     calbec       :      0.46s CPU      0.50s WALL (     288 calls)
     fft          :      0.00s CPU      0.00s WALL (      10 calls)
     fftw         :     13.68s CPU     14.53s WALL (  287294 calls)
 
     Parallel routines
 
     PWSCF        :   8m13.80s CPU   8m57.08s WALL

 
   This run was terminated on:   4:24:18   5Dec2023            

=------------------------------------------------------------------------------=
   JOB DONE.
=------------------------------------------------------------------------------=
