
     Program PWSCF v.7.1 starts on 17Nov2023 at 21:56:30 

     This program is part of the open-source Quantum ESPRESSO suite
     for quantum simulation of materials; please cite
         "P. Giannozzi et al., J. Phys.:Condens. Matter 21 395502 (2009);
         "P. Giannozzi et al., J. Phys.:Condens. Matter 29 465901 (2017);
         "P. Giannozzi et al., J. Chem. Phys. 152 154105 (2020);
          URL http://www.quantum-espresso.org", 
     in publications or presentations arising from this work. More details at
     http://www.quantum-espresso.org/quote

     Parallel version (MPI), running on    24 processors

     MPI processes distributed on     1 nodes
     121682 MiB available memory on the printing compute node when the environment starts
 
     Reading input from pw_mp-1342_nscf_k250_E93.in
Warning: card &IONS ignored
Warning: card / ignored
Warning: card &CELL ignored
Warning: card / ignored

     Current dimensions of program PWSCF are:
     Max number of different atomic species (ntypx) = 10
     Max number of k-points (npk) =  40000
     Max angular momentum in pseudopotentials (lmaxx) =  4

     Atomic positions and unit cell read from directory:
     out/mp-1342.save/
     Atomic positions from file used, from input discarded
 
 
     R & G space division:  proc/nbgrp/npool/nimage =      24
     Subspace diagonalization in iterative solution of the eigenvalue problem:
     one sub-group per band group will be used
     scalapack distributed-memory algorithm (size of sub-group:  4*  4 procs)

 
     Parallelization info
     --------------------
     sticks:   dense  smooth     PW     G-vecs:    dense   smooth      PW
     Min          59      59     17                 1484     1484     231
     Max          60      60     18                 1488     1488     234
     Sum        1417    1417    421                35629    35629    5577
 
     Using Slab Decomposition
 


     bravais-lattice index     =            2
     lattice parameter (alat)  =      10.5462  a.u.
     unit-cell volume          =     293.2392 (a.u.)^3
     number of atoms/cell      =            2
     number of atomic types    =            2
     number of electrons       =        16.00
     number of Kohn-Sham states=         1448
     kinetic-energy cutoff     =      93.0000  Ry
     charge density cutoff     =     372.0000  Ry
     Exchange-correlation= PBE
                           (   1   4   3   4   0   0   0)

     celldm(1)=  10.546151  celldm(2)=   0.000000  celldm(3)=   0.000000
     celldm(4)=   0.000000  celldm(5)=   0.000000  celldm(6)=   0.000000

     crystal axes: (cart. coord. in units of alat)
               a(1) = (  -0.500000   0.000000   0.500000 )  
               a(2) = (   0.000000   0.500000   0.500000 )  
               a(3) = (  -0.500000   0.500000   0.000000 )  

     reciprocal axes: (cart. coord. in units 2 pi/alat)
               b(1) = ( -1.000000 -1.000000  1.000000 )  
               b(2) = (  1.000000  1.000000  1.000000 )  
               b(3) = ( -1.000000  1.000000 -1.000000 )  


     PseudoPot. # 1 for Ba read from file:
     /usr/scratch4/magr4985/MG/HTDF/pseudo/SG15/Ba.upf
     MD5 check sum: ac4691792522964bb0504809e83fae44
     Pseudo is Norm-conserving, Zval = 10.0
     Generated using ONCVPSP code by D. R. Hamann
     Using radial grid of  602 points,  8 beta functions with: 
                l(1) =   0
                l(2) =   0
                l(3) =   1
                l(4) =   1
                l(5) =   2
                l(6) =   2
                l(7) =   3
                l(8) =   3

     PseudoPot. # 2 for O  read from file:
     /usr/scratch4/magr4985/MG/HTDF/pseudo/SG15/O.upf
     MD5 check sum: e36c48deb68f4e355fffe4602be2c42c
     Pseudo is Norm-conserving, Zval =  6.0
     Generated using ONCVPSP code by D. R. Hamann
     Using radial grid of  602 points,  4 beta functions with: 
                l(1) =   0
                l(2) =   0
                l(3) =   1
                l(4) =   1

     atomic species   valence    mass     pseudopotential
        Ba            10.00   137.32700     Ba( 1.00)
        O              6.00    15.99940     O ( 1.00)

     48 Sym. Ops., with inversion, found



   Cartesian axes

     site n.     atom                  positions (alat units)
         1           Ba  tau(   1) = (   0.0000000   0.0000000   0.0000000  )
         2           O   tau(   2) = (  -0.5000000   0.5000000   0.5000000  )

     number of k points=    16  Gaussian smearing, width (Ry)=  0.0005
                       cart. coord. in units 2pi/alat
        k(    1) = (   0.0000000   0.0000000   0.0000000), wk =   0.0092593
        k(    2) = (  -0.1666667   0.1666667  -0.1666667), wk =   0.0740741
        k(    3) = (  -0.3333333   0.3333333  -0.3333333), wk =   0.0740741
        k(    4) = (   0.5000000  -0.5000000   0.5000000), wk =   0.0370370
        k(    5) = (   0.0000000   0.3333333   0.0000000), wk =   0.0555556
        k(    6) = (  -0.1666667   0.5000000  -0.1666667), wk =   0.2222222
        k(    7) = (   0.6666667  -0.3333333   0.6666667), wk =   0.2222222
        k(    8) = (   0.5000000  -0.1666667   0.5000000), wk =   0.2222222
        k(    9) = (   0.3333333   0.0000000   0.3333333), wk =   0.1111111
        k(   10) = (   0.0000000   0.6666667   0.0000000), wk =   0.0555556
        k(   11) = (   0.8333333  -0.1666667   0.8333333), wk =   0.2222222
        k(   12) = (   0.6666667  -0.0000000   0.6666667), wk =   0.1111111
        k(   13) = (   0.0000000  -1.0000000   0.0000000), wk =   0.0277778
        k(   14) = (   0.6666667  -0.3333333   1.0000000), wk =   0.2222222
        k(   15) = (   0.5000000  -0.1666667   0.8333333), wk =   0.2222222
        k(   16) = (  -0.3333333  -1.0000000   0.0000000), wk =   0.1111111

     Dense  grid:    35629 G-vectors     FFT dimensions: (  45,  45,  45)

     Estimated max dynamical RAM per process >     133.73 MB

     Estimated total dynamical RAM >       3.13 GB

     The potential is recalculated from file :
     out/mp-1342.save/charge-density

     Starting wfcs are random

     Band Structure Calculation
     Davidson diagonalization with overlap

     ethr =  5.00E-06,  avg # of iterations = 10.2

     total cpu time spent up to now is     1348.5 secs

     End of band structure calculation

          k = 0.0000 0.0000 0.0000 (  4477 PWs)   bands (ev):

   -17.5998  -6.7078  -2.1665  -2.1665  -2.1665   7.8294   7.8294   7.8294
    11.7228  12.9735  12.9735  12.9735  15.1826  15.1826  15.7427  18.6302
    18.6302  18.6302  18.8537  18.8537  18.8537  22.7614  29.2629  29.2629
    29.2629  31.6128  31.6128  31.6128  34.5782  34.5782  34.5782  35.1072
    35.6742  35.6742  40.3162  40.3162  40.3162  43.3253  43.3253  47.4262
    48.2057  48.2057  48.2057  51.4128  51.4128  51.4128  52.5671  52.5671
    52.5671  53.2334  53.2334  53.2334  53.5619  53.5619  53.5619  53.5754
    54.6534  54.6534  54.6534  56.1480  56.1480  57.7598  57.7598  57.7598
    58.9878  59.0849  66.2035  66.2035  66.2035  70.5826  70.5826  72.4144
    80.4547  80.4547  80.4547  81.6941  81.6941  82.8685  82.8685  82.8685
    86.4038  86.4038  86.4038  87.3550  87.3550  87.3550  88.6692  88.6692
    88.6692  90.3173  90.3173  90.3173  90.6348  90.6763  92.1923  92.1923
    92.2085  92.2085  92.2085  92.3914  92.3914  92.3958  92.3958  92.3958
    93.4170  93.4170  93.4170  93.9074  93.9074  93.9074  93.9531  93.9531
    93.9531  96.2698  96.2698  96.5881  96.5908  96.5908  96.5908 101.3496
   106.3452 106.3452 106.3452 109.3508 109.3508 109.3508 112.1330 112.5510
   112.5510 113.1485 113.1485 113.1485 113.2440 113.3009 113.3009 113.3009
   114.4009 114.4009 114.4009 114.4370 114.4370 114.8304 114.8304 114.8304
   116.5573 116.5573 118.8517 118.8517 118.8517 124.0610 125.9190 125.9190
   125.9190 126.7267 126.7267 126.7267 127.2444 127.2444 127.2444 127.5258
   127.5258 127.5258 127.7791 127.7791 127.7791 127.9954 127.9954 127.9954
   128.8056 129.4529 132.8386 132.8594 132.8594 132.8594 132.9099 132.9099
   142.7896 142.7896 142.7896 144.9382 144.9382 145.3980 147.2543 147.2543
   147.2543 149.3015 149.3015 149.3015 151.0902 151.0902 151.0902 157.2576
   157.2576 157.5494 157.5494 157.5494 159.7131 159.9359 159.9359 159.9359
   162.1083 162.1083 162.1083 162.1847 162.1847 162.3387 162.3387 162.3387
   162.4514 162.4514 162.4514 162.8921 162.8921 162.8921 163.1674 163.3560
   163.3560 164.8881 164.8881 164.8881 165.1197 165.1830 165.1830 165.1830
   165.3582 165.3582 165.9929 165.9929 165.9929 167.6568 167.6568 167.6568
   168.3405 169.1013 169.1013 169.2655 169.2655 169.2655 169.9090 169.9090
   169.9090 170.2187 170.6304 170.6304 170.6304 171.2341 172.0741 172.2845
   172.2845 172.3344 172.3344 172.3344 173.3421 173.3421 173.3421 173.6601
   173.6601 173.6601 173.9290 173.9290 173.9290 174.4484 174.4484 174.4484
   174.4788 174.4788 182.3107 182.3107 182.3107 185.4787 185.4787 185.6186
   185.6186 185.6186 186.5923 186.5923 186.5923 187.4144 189.3891 189.3891
   189.3891 189.4091 189.4091 189.4091 191.9305 191.9305 192.2020 192.2490
   192.2490 192.2490 195.6337 195.6337 195.6337 197.9333 197.9333 197.9333
   199.0509 202.4397 202.4397 202.6149 202.6149 202.6149 203.1209 203.1209
   203.1209 203.5756 203.5756 204.6846 204.6846 204.6846 205.7072 205.9764
   205.9764 205.9764 207.5586 207.5586 207.5586 208.0798 208.0798 208.0798
   210.0665 210.0665 210.0665 210.0800 210.0800 210.2043 210.2043 210.4753
   210.4753 210.4753 210.5726 210.5726 210.5726 210.6988 210.6988 210.6988
   211.2741 211.7716 222.6198 222.6198 222.6198 223.7433 223.7433 225.9060
   225.9060 225.9060 226.4817 226.4817 226.4817 227.3276 229.2186 229.2186
   229.4217 229.4217 229.4217 230.3429 231.0836 231.2337 232.2548 232.2548
   232.2548 240.3209 240.3209 240.3209 240.7645 240.7645 240.7645 240.9247
   240.9247 240.9247 241.7415 241.7415 241.7415 243.0743 243.0743 243.0743
   243.2816 243.2816 243.2816 244.0337 244.0337 244.0337 244.1373 244.1373
   244.1794 244.1794 244.1794 244.5568 244.5568 244.5568 244.5648 244.5648
   244.5648 244.7821 244.7821 245.9211 245.9974 245.9974 246.0279 246.0279
   246.0279 246.0969 246.0969 246.0969 248.1279 248.4687 248.4687 248.4723
   248.4723 248.4723 249.0784 251.3642 251.9925 251.9925 251.9925 253.4221
   253.4221 253.4221 260.0834 260.0834 260.0834 260.3306 260.3306 260.3306
   262.6613 262.6613 262.7743 262.9178 262.9178 262.9178 263.1263 263.1263
   263.1263 263.6351 263.6351 264.9546 264.9546 264.9546 265.8538 265.8538
   265.8538 267.0079 267.0079 267.2022 267.2022 267.2022 267.2599 267.2599
   267.2599 267.2842 267.2842 267.2842 267.4850 267.4850 268.7375 268.7375
   268.7375 268.7584 268.8423 268.9715 268.9715 268.9715 269.2228 270.0418
   270.0418 270.0418 270.1016 270.1016 270.1016 271.2704 271.2704 271.2704
   271.5887 271.5887 275.5351 275.5351 275.5351 276.1861 276.2681 276.2681
   276.2681 276.5248 276.5248 276.5248 277.6671 277.6671 278.0464 278.0464
   278.0464 278.5145 281.8681 282.3644 282.3644 282.3644 282.4428 282.4428
   282.4682 282.4682 282.4682 282.5601 282.7404 282.7404 282.8045 282.8045
   282.8045 283.0359 283.0359 283.0359 283.2446 283.2446 283.2446 283.4557
   283.4557 284.0625 284.0625 284.0625 285.2294 285.2294 285.2294 285.2945
   285.2945 285.2945 285.3056 285.3056 285.3056 285.3857 285.3857 285.3857
   286.6375 286.6375 286.6836 286.6836 286.6836 286.7555 294.0665 294.0665
   294.0665 294.4175 294.4175 295.1301 300.5027 303.0061 303.0061 303.0061
   312.0314 312.0314 312.0314 315.6667 315.6667 315.6667 316.2532 316.9599
   316.9599 317.0036 317.0036 317.0036 317.0508 317.0508 317.0508 317.1086
   317.1086 317.2026 317.2026 317.2026 318.3731 318.3731 318.3731 318.9587
   318.9587 318.9810 318.9810 318.9810 319.0286 319.0286 319.0286 319.4660
   320.4453 320.7934 320.7934 320.7934 320.9681 320.9681 320.9681 321.1450
   321.1450 321.1450 323.6129 323.6129 323.6129 326.3565 326.3565 326.4704
   326.4704 326.4704 326.6415 326.6415 326.6415 326.7141 326.7141 326.7141
   326.7165 326.7165 326.7165 326.7758 326.7758 326.8907 326.8907 326.9696
   327.1143 327.1143 327.1143 327.1153 333.7400 333.7400 333.7400 334.5967
   334.5967 334.7586 334.7586 334.7586 335.1376 338.3630 338.3630 338.3630
   339.0752 340.8121 340.8121 340.8121 342.9138 342.9138 342.9138 343.0430
   343.0430 343.3930 343.3930 343.3930 343.4625 343.4625 343.4625 343.8337
   343.9278 343.9278 343.9278 344.0618 344.0618 345.9377 347.2469 347.2469
   347.2469 347.6615 347.6615 347.6615 348.0610 348.0610 348.0610 349.7829
   349.7829 349.7829 350.4293 350.4293 353.4296 353.4296 353.4296 353.5629
   353.5931 353.5931 353.5990 353.5990 353.5990 354.5210 354.5210 354.5210
   354.8992 354.8992 354.8992 355.0705 355.0705 355.0784 355.0784 355.0784
   355.6627 356.6976 356.6976 356.6976 356.7527 356.8251 356.8251 356.8251
   357.6584 359.4259 359.4259 359.4259 361.2210 361.2210 361.2210 362.3449
   362.3449 362.3449 362.3998 362.3998 362.4018 362.4018 362.4018 362.4595
   362.4595 362.4595 362.4882 362.5508 362.5508 362.5508 362.6527 362.6527
   364.7839 365.5947 365.5947 365.5947 365.7214 365.7214 365.7214 366.0310
   366.0310 366.0334 366.0334 366.0334 366.2617 368.6614 368.6614 368.6614
   373.7594 373.7594 373.7594 374.5919 374.5919 374.5919 375.7260 375.7260
   377.7278 378.6536 378.6536 378.6536 379.2712 379.2712 379.2712 379.5575
   379.5575 379.6777 379.6777 379.6777 379.9781 380.0376 380.0376 380.0376
   380.2741 380.7289 380.7289 385.6345 386.7472 386.7472 386.7472 387.1866
   387.1866 387.1866 389.8500 389.8500 389.8500 391.4624 391.4624 391.4624
   391.8777 391.8777 391.8777 391.9304 391.9304 392.0817 392.0817 392.0817
   392.3360 392.3360 392.5493 395.6274 395.6274 395.6274 395.7973 395.7973
   395.7973 395.9294 395.9294 395.9294 395.9493 395.9493 396.1031 396.1031
   396.1031 396.1467 396.1467 396.1467 396.2350 396.2350 396.2350 396.3909
   396.3909 396.3909 396.4031 396.4031 396.4031 396.4237 396.4237 397.0940
   397.3407 397.3407 397.3407 397.7900 397.9849 397.9849 397.9849 398.1501
   398.1501 398.1501 398.2951 398.3677 398.3677 398.3677 400.0571 400.0571
   400.0571 400.2369 400.2369 400.2369 400.4985 400.4985 400.6357 400.6357
   400.6357 400.7361 400.7361 400.7361 400.9089 400.9089 402.9412 402.9756
   402.9756 402.9756 402.9897 402.9897 404.3177 404.3177 404.4172 404.4172
   404.4172 404.4312 404.4312 404.4312 404.4351 404.4351 404.4351 404.4422
   404.4422 404.4422 404.6638 404.6638 404.9879 405.0590 405.1459 405.1459
   405.1459 405.2837 405.2837 405.2837 405.4093 410.3520 410.7400 410.7400
   410.7400 414.0519 414.0519 414.0519 417.9788 421.7524 421.7524 421.7524
   421.7631 421.7631 421.7631 422.0457 422.0457 422.2831 422.2831 422.2831
   422.4072 422.4072 422.4072 422.4397 422.4397 422.9515 422.9515 422.9515
   424.7121 424.7121 424.7121 425.6646 425.6646 426.0456 426.0456 426.0456
   428.3649 428.3649 428.3649 428.5404 428.5404 428.5404 431.6379 431.6379
   431.6379 431.6764 431.6764 431.8468 432.4390 436.0138 436.7946 436.7946
   436.7946 436.8277 436.8277 439.3116 439.3116 439.3116 439.4083 439.4083
   439.4083 439.4297 439.4297 439.4297 439.4447 439.4447 439.4447 440.9507
   440.9507 440.9649 440.9649 440.9649 440.9869 447.1100 447.1100 447.1100
   447.7340 447.7340 447.7340 450.5238 454.1743 454.1743 454.1743 457.0275
   457.0275 457.0368 457.0368 457.0368 457.1498 457.1498 457.1498 457.2139
   457.2139 457.2139 457.2324 457.2324 457.4703 457.9107 457.9107 457.9107
   458.1763 458.1763 458.1763 460.2907 460.2907 460.4036 460.4036 460.4036
   460.4562 460.9582 460.9582 460.9582 463.1994 465.5085 465.5085 465.5085
   466.8061 466.8061 467.3082 467.3082 467.3082 468.2981 470.0405 470.0405
   470.0405 472.1232 472.1232 472.1232 472.1633 472.5072 472.5072 472.5072
   472.9000 472.9000 472.9902 472.9902 472.9902 473.1239 473.1239 473.1239
   473.4341 473.4341 473.5316 473.5316 473.5316 473.5371 474.7934 474.7934
   474.7934 475.2143 475.2143 475.3058 475.3058 475.3058 475.3059 475.3059
   475.3059 475.3394 475.3394 475.3394 475.3417 475.3446 475.3446 475.4914
   475.9224 475.9224 475.9224 475.9590 475.9590 475.9590 476.1031 476.1031
   476.1058 476.1058 476.1058 476.1487 476.1487 476.1487 476.2532 476.2532
   476.2532 476.6152 476.6152 476.6941 476.6941 476.6941 476.9264 476.9264
   476.9264 477.1752 477.1752 477.1752 477.2304 477.2304 477.2304 477.2832
   477.3259 477.3259 483.3953 490.7594 490.7594 490.7594 491.4416 491.9023
   491.9023 491.9023 492.1152 492.1152 492.1152 492.7362 492.7362 493.8537
   493.8537 493.8537 494.0820 494.0820 494.0820 494.3726 494.3726 494.3726
   494.4050 494.4050 494.5307 494.5307 494.5307 494.5357 494.5357 494.5357
   494.7350 495.0169 495.0169 495.0169 495.3413 495.3413 495.3413 495.4315
   495.4315 495.6645 495.6645 495.6645 496.8217 498.3215 498.3660 498.3660
   498.3660 498.3871 498.3871 498.3871 498.4172 498.4172 498.4315 498.4315
   498.4315 498.6501 498.6501 498.6501 498.9268 498.9268 498.9268 498.9413
   499.0508 499.0508 499.0749 499.0749 499.0749 500.6687 500.6687 500.6687
   500.6730 500.6730 500.7312 501.6207 501.6207 501.6207 503.4831 503.4831
   503.4831 504.6257 504.6257 504.6257 504.9914 504.9914 506.1698 506.1698
   506.1698 507.1322 507.1322 507.2347 507.2347 507.2347 507.4729 507.4729
   507.4729 507.6728 510.1175 510.4962 511.2619 511.2619 511.2619 511.5452
   511.5452 511.5452 512.3484 512.3484 512.3484 512.4092 512.4092 512.4096
   512.4096 512.4096 512.4154 512.4154 512.4154 512.4410 512.4410 512.4610
   512.4610 512.4610 513.7976 514.1965 514.8015 514.8015 514.8015 515.2370
   515.2370 515.2370 516.0281 516.2551 516.2551 516.2905 516.2905 516.2905
   516.3591 516.3591 516.3591 516.4492 516.4492 516.4492 516.5091 516.5091
   516.5091 516.5819 516.5819 516.5872 516.5872 516.5872 516.6346 516.6550
   516.6550 516.6550 516.7094 516.8055 516.8055 516.9070 516.9070 516.9070
   517.0446 517.2915 517.2915 517.2915 517.3863 517.3863 517.3863 517.6089
   517.6089 517.6089 517.6634 517.6634 517.6634 517.6973 517.6973 517.6973
   517.9728 517.9728 521.0834 541.3641 541.3641 541.3641 542.5324 544.1865
   544.1865 544.1865 544.5665 544.5665 544.5665 545.9009 545.9475 545.9475
   545.9475 546.0368 546.0368 546.1159 546.1159 546.1159 546.1263 546.1263
   546.1263 546.1464 546.1464 546.1464 546.1646 546.1646 549.3632 549.3632
   549.3632 549.8494 549.8814 549.8814 549.8814 550.2495 550.2495 550.6273
   550.6273 550.6273 550.6446 550.6446 550.6446 550.7246 550.7246 550.7246
   550.7457 550.7457 550.7712 550.7712 550.7712 550.9517 550.9517 550.9959
   551.0166 551.0166 551.0166 551.0906 551.0906 551.0906 551.1622 551.8733
   551.8733 551.8733 552.3546 552.3546 552.3546 552.7231 552.7231 552.7231
   552.7411 553.0978 553.0978 553.0978 553.2672 553.2672 553.3523 553.3523
   553.3523 553.4921 554.2896 554.2896 554.3373 554.3373 554.3373 554.4452
   554.4452 554.4452 554.4718 554.4718 554.4718 554.5131 554.5131 554.5587
   554.5587 554.5587 557.9557 558.6910 558.6910 558.7118 558.7118 558.7118
   558.7526 558.7526 558.7526 558.7642 558.7642 558.7642 558.7883 558.7883
   558.7883 558.8066 558.8066 560.4578 560.4578 560.4578 560.4586 560.4587
   560.4587 560.4587 560.4615 566.7443 566.7443 566.7443 569.8444 569.8444
   571.9907 572.2296 572.2296 572.2296 572.3700 572.3700 572.4579 572.4579
   572.4579 572.6462 572.6462 572.6462 572.6996 572.6996 572.6996 572.8603
   572.8603 572.8603 573.0433 573.0433 573.0433 573.2887 574.1208 574.1208
   576.3094 577.0896 577.0896 577.1144 577.1144 577.1144 577.1402 577.4651
   577.4651 577.4651 577.4687 577.4687 577.4687 577.4824 577.4824 577.4824
   577.5627 577.5627 577.5627 577.8298 577.8298 577.8716 577.8716 577.8716
   577.9560 581.4181 581.4181 581.4181 581.6315 582.6781 582.6781 582.6781
   585.6446 589.0109 589.0109 589.0109 589.0798 589.0798 589.0798 589.1625
   589.1625 589.1625 589.1718 589.1718 589.1718 591.0328 591.0328 591.0328
   591.0951 591.0951 591.1068 591.1068 591.1068 591.1238 591.1238 591.1238

          k =-0.1667 0.1667-0.1667 (  4459 PWs)   bands (ev):

   -17.5434  -6.8751  -2.2282  -2.1960  -2.1960   7.3416   7.5461   7.5461
    12.5757  12.8994  13.4203  13.4203  15.7796  15.7796  16.7716  18.4794
    18.5809  18.5809  18.8136  18.8136  18.8642  23.3026  27.7327  28.9259
    28.9259  29.4684  30.1256  30.1256  33.6323  33.6323  34.8890  36.4546
    36.4546  38.1460  40.6009  41.9505  41.9505  44.1917  44.1917  44.4740
    46.7046  46.7046  47.8458  47.8458  48.4036  48.7870  49.1305  50.5321
    50.5321  52.0676  53.5714  53.5714  54.5634  55.3496  56.3427  56.3427
    57.0717  57.0717  57.4283  57.9715  57.9715  58.1443  61.4357  62.4189
    62.4189  63.4657  64.3196  64.3196  67.8737  71.6208  71.6208  72.4855
    75.2822  75.2822  77.0313  80.4578  80.9064  80.9064  81.8297  82.2718
    82.2718  82.8612  82.8612  84.4380  84.4380  84.6946  86.0510  86.0510
    86.3076  87.4700  87.4700  89.0674  90.2648  90.2648  90.9588  91.5337
    91.5337  91.8354  92.6124  92.7322  92.9585  93.2862  93.2862  93.4790
    93.4790  94.7709  94.7709  96.5132  97.2024  97.2024  97.9584  98.4301
   100.8284 100.8284 101.0765 101.7898 101.7898 102.6751 102.6751 103.5910
   104.2685 104.2685 104.7708 104.7863 104.7863 107.3017 107.8672 107.8672
   108.2007 108.5884 108.5884 111.9817 112.3287 112.9851 112.9851 113.2257
   113.2257 114.3176 115.8497 116.9963 116.9963 117.8850 119.4974 119.4974
   119.6064 119.9443 120.4356 120.4356 120.7165 120.7165 121.3644 121.7201
   121.7933 121.7933 124.0093 124.0093 124.3449 126.2126 126.2126 126.3127
   127.6729 127.6729 129.2054 131.4283 131.4283 132.3056 134.5520 135.1023
   135.1023 135.6051 135.6051 135.7977 136.7541 136.7541 137.0718 139.1222
   141.1125 141.1125 142.1038 142.2320 142.2320 142.7949 146.3211 146.3211
   146.6398 148.0194 148.0194 148.9456 149.6292 149.6292 151.0660 151.6427
   151.6427 152.7131 152.7575 152.7575 154.2661 154.4407 155.1918 155.1918
   157.2707 157.2707 157.6366 158.0198 158.2137 158.2137 159.0274 159.0274
   159.6112 159.9685 160.7746 160.8811 160.8811 161.1128 161.1128 161.6095
   161.6095 162.6633 162.6633 163.9671 163.9671 164.3190 164.5057 165.5856
   165.5856 165.7965 166.3739 167.6182 168.0312 168.0381 168.0381 168.7260
   168.7260 169.8263 169.8263 169.9684 170.8095 170.8095 171.2668 172.7244
   172.7244 173.4568 173.4568 173.4878 173.5096 174.2875 174.2875 174.9162
   175.0446 175.0610 175.0610 175.8155 175.8155 175.9194 176.8839 176.8839
   177.0354 177.3044 177.3044 177.3664 178.1154 180.0026 180.0026 180.3405
   180.3405 180.3486 180.7436 182.6672 182.6672 183.8043 183.8043 184.0304
   184.1714 184.1714 184.3931 185.1126 187.0409 187.2729 187.2729 189.5104
   189.5104 189.8067 189.8067 191.7304 192.7473 192.7473 193.9947 194.4035
   194.4035 194.8149 195.0590 195.0590 195.3790 196.1017 196.1017 196.7120
   198.3477 198.4065 198.4065 199.9728 199.9728 200.4038 200.8482 200.8482
   201.7427 201.9347 201.9347 201.9489 202.4814 202.4814 203.5587 203.5587
   203.6160 205.2528 205.2528 206.0776 207.4782 207.8386 209.7909 210.6926
   210.6926 211.7850 211.7850 212.5007 212.5007 212.5642 212.9708 213.8979
   215.3601 215.3601 216.5119 217.7095 217.7095 218.2272 219.0924 219.0924
   219.5627 219.5627 220.2195 221.7608 221.7608 221.8277 222.0652 222.0652
   223.3148 225.2108 226.4710 226.4710 226.8124 227.8131 227.8131 228.3710
   228.3710 229.1350 229.1350 229.7348 229.7348 229.7365 229.9056 230.1477
   230.7478 230.7478 231.4358 231.4358 231.5248 232.7735 232.8018 232.8018
   233.8881 233.8881 235.8522 237.7779 237.7779 238.0092 238.6617 238.7012
   238.7012 242.3154 242.3154 242.3503 242.7806 242.7806 243.2270 244.4622
   244.5679 244.5679 244.7616 244.8252 244.8252 245.7066 245.9822 246.3921
   246.5367 246.5367 247.0582 247.0582 247.7646 248.5439 248.5439 248.9153
   248.9153 250.1415 250.1415 250.2304 250.3534 251.2720 252.5282 252.8484
   252.8484 253.3317 253.3317 253.5834 254.2702 254.4156 254.4156 254.9330
   256.0517 256.0517 257.2521 257.7496 257.7496 258.1415 259.1229 259.1229
   259.7473 259.7541 259.7541 260.4907 260.6024 260.6024 260.7633 260.8231
   260.8231 261.2298 261.2298 261.5910 261.9739 261.9739 262.0545 262.6211
   262.6211 263.2025 263.2025 263.5194 263.9203 263.9203 263.9335 264.7672
   264.9089 264.9089 266.7269 266.7269 266.9374 267.9137 268.0987 268.0987
   268.2237 268.7869 268.7869 268.7920 269.1163 269.1163 269.2023 269.2023
   270.5821 270.9637 271.1765 271.1765 271.2463 271.8787 271.8787 273.1373
   273.1373 273.8219 274.3494 274.3494 274.9036 276.1182 276.1182 276.6886
   277.5642 277.5642 277.8645 277.9310 278.1210 278.1210 278.2971 278.7170
   278.7170 278.8996 278.8996 279.8877 280.0606 280.6605 280.6605 280.8200
   280.9096 280.9096 281.2172 281.2866 281.9505 281.9505 283.4467 283.4467
   285.3142 285.3142 286.3707 286.3707 287.3565 287.6247 287.9080 287.9080
   288.4267 289.5174 289.5174 289.6146 290.7526 291.5043 291.5043 291.7884
   292.9055 292.9055 293.5116 293.5116 293.6010 293.9018 294.1099 294.1099
   294.7406 294.9424 295.5575 295.5575 296.7898 298.9038 299.4150 299.4150
   300.5119 300.5784 300.5784 302.2117 302.9277 302.9277 303.1568 303.2028
   303.2028 304.3680 304.3680 304.9453 304.9453 305.2561 305.7720 305.7720
   306.4813 306.4813 307.0156 307.0156 307.2341 307.8386 309.1659 309.1659
   310.5884 310.5884 310.7706 312.9148 314.5564 315.5390 315.5390 315.8366
   316.1336 316.1336 316.4770 317.0405 317.0405 317.4271 317.6450 317.8362
   317.8362 318.5359 318.5359 318.9241 321.9740 323.0971 323.0971 324.0949
   324.1065 324.1065 324.3496 324.3496 325.9589 326.4633 326.4633 326.9484
   328.4173 328.4173 329.1808 329.1808 329.1868 329.9946 330.2383 330.2383
   330.8454 330.8454 331.5509 331.6423 331.6881 331.6894 331.6894 332.3815
   332.3815 332.9012 333.7739 333.7739 334.2626 334.2626 334.3848 334.4160
   334.7131 334.7697 334.7697 334.9387 335.2937 335.2937 336.0282 336.1042
   336.1042 336.9090 337.0095 337.0095 337.1579 337.1579 337.2582 337.5469
   338.2379 338.2379 339.5333 339.9474 339.9474 341.4135 341.8028 341.8028
   342.3299 343.5264 343.7090 343.7090 343.7419 343.7419 343.8006 345.8674
   345.8674 347.5339 348.0712 348.3676 348.3676 348.6571 348.7405 348.7405
   349.4376 349.4376 349.8947 349.8947 350.6507 350.9237 350.9237 351.9607
   351.9607 352.0249 353.0843 353.9400 353.9400 354.1209 354.6550 354.6550
   354.6783 354.8345 354.8345 354.8349 355.2371 356.0347 356.0347 356.6202
   356.8633 356.8633 357.5727 357.5727 358.4711 358.6194 358.6194 359.9739
   359.9739 360.2232 360.2871 361.0779 361.0819 361.0819 361.3307 361.4715
   361.4715 362.3133 362.5738 362.5738 363.2711 363.4417 363.6111 363.6111
   364.1725 364.1725 364.6466 364.6466 364.8889 365.6205 367.1254 367.1254
   368.0023 368.2124 368.2124 368.2469 368.3911 368.3911 369.2631 369.2631
   370.2726 370.9210 370.9210 371.2760 371.3133 372.7103 372.7103 372.9179
   372.9179 373.0646 373.4080 373.4080 374.3841 374.3841 374.6308 374.7445
   375.5197 375.9762 375.9762 377.1771 377.8817 377.8817 378.1493 379.4096
   379.4312 379.4312 379.8586 379.8586 380.5528 381.5542 381.5542 381.7267
   381.8683 381.8683 381.9990 382.2403 382.2403 382.3316 382.3316 382.4344
   382.8178 382.8398 382.8398 383.0572 384.2731 384.5726 384.5803 384.5803
   384.8017 385.2556 385.2556 385.9887 385.9887 386.3311 386.8064 386.8064
   386.9220 386.9220 387.4182 387.4182 387.4222 387.4809 387.7761 389.0966
   389.1374 389.1374 389.3429 389.3429 389.7459 390.4541 390.4541 391.5244
   392.1443 392.1443 393.6412 393.6871 393.6871 393.6927 394.2746 394.2746
   395.2280 395.3172 395.4462 395.4462 396.5755 396.5755 396.6844 396.8840
   396.8840 397.0416 397.0416 397.2919 397.6474 397.6474 397.9632 397.9632
   398.7671 399.1940 400.5613 400.7021 400.9364 400.9364 401.6454 401.6454
   402.3174 402.3174 403.3347 403.5968 404.0056 404.0056 404.3209 404.3209
   404.6572 406.1994 406.1994 407.2390 407.4681 407.4681 407.7649 407.9442
   407.9442 408.5398 409.9692 409.9692 410.1057 410.2100 410.2100 410.4369
   410.4938 410.4938 410.9979 411.1546 411.1546 411.3194 411.3563 411.3563
   411.9582 411.9582 412.0297 412.3707 412.7025 413.1407 413.1407 413.7301
   414.5372 414.5372 415.6706 415.6706 416.0693 416.1758 416.5363 416.5363
   418.3237 418.5271 418.5756 418.5756 418.6521 418.6521 418.8787 418.9009
   418.9009 419.7575 419.7575 419.9220 420.1737 420.1737 420.2505 420.2958
   420.2958 420.5169 422.0441 422.0441 422.0601 422.1735 422.2881 422.2881
   422.6628 423.6108 423.6108 427.5965 427.5965 428.5415 428.5655 428.6888
   428.6888 428.9440 429.0987 429.0987 429.9885 430.1744 430.1744 431.5067
   431.5067 431.5465 432.4227 432.4227 433.2577 434.3032 434.3032 435.0608
   435.0608 435.1592 437.0798 437.2615 438.4733 438.7546 438.7546 439.5431
   442.2934 442.2934 442.8792 443.2656 443.2656 443.4946 444.2748 444.6787
   444.6787 445.6065 445.6065 447.7253 447.7253 447.8712 448.1864 448.1864
   448.4715 448.4715 448.8196 449.3294 449.3294 449.6797 449.8945 449.8945
   450.4481 450.9247 451.1433 451.1433 451.3278 452.4815 452.4815 452.8269
   453.4716 453.4716 453.7049 454.6848 454.6848 455.1305 455.1582 455.6584
   455.6584 456.7134 456.7134 457.3547 457.4290 457.4290 457.6455 457.7582
   457.7582 458.5795 458.5795 458.6454 458.9661 458.9661 459.3177 459.8101
   459.9548 459.9548 460.3592 460.3592 460.4083 460.4720 460.4720 460.5063
   464.4584 464.4584 464.6322 465.3401 465.3401 467.5294 468.5735 468.5735
   468.6231 469.2313 469.2313 469.4773 469.4773 469.5039 469.7873 469.9424
   470.2997 470.2997 471.2183 471.2183 472.1582 473.0522 473.0522 473.3214
   473.3214 473.5201 473.5987 473.9210 474.6083 474.6083 474.8385 474.8385
   475.1206 475.1206 475.2063 475.9245 476.1845 476.1845 476.2562 476.8355
   476.8355 476.9264 477.1891 477.4915 477.4915 477.5257 477.5257 478.3572
   478.3572 478.5245 478.6316 479.1903 479.1903 479.2613 479.5411 479.5411
   479.5786 479.7194 480.3787 480.3787 480.5441 480.9844 480.9844 481.7082
   481.7082 482.2884 482.3696 482.3696 483.3869 483.6546 483.6546 484.0552
   484.1636 484.1636 484.5575 484.5575 485.0201 485.6715 485.9132 485.9132
   485.9696 486.2825 486.2825 486.7222 486.7311 486.9688 486.9688 487.1889
   488.1264 488.1264 488.3824 488.3824 488.4185 488.7974 489.5988 489.9928
   490.2346 490.2346 490.5498 490.5498 492.0471 493.5387 493.5387 494.2569
   494.6619 494.6619 494.7371 495.2596 495.2938 495.2938 495.4047 495.4305
   495.4305 495.5069 495.6956 495.6956 495.7941 496.3297 496.3297 496.4673
   496.4673 497.1782 497.3587 497.3587 497.6180 497.6180 497.6315 497.7525
   497.7525 497.9962 498.3924 498.4685 498.4685 499.4333 499.4333 499.4881
   499.6175 499.6175 499.8678 499.9424 499.9424 500.0768 501.1170 501.5118
   501.5118 501.8145 501.9097 501.9097 502.9838 503.3920 503.3920 503.5580
   503.9073 504.0026 504.0026 504.0413 504.0413 505.0302 505.0302 505.9973
   506.4764 506.4764 506.9758 507.7945 507.8657 507.8657 507.9783 508.0165
   508.0165 508.1157 508.1157 508.8197 509.3813 509.3813 509.4156 510.3785
   510.3785 510.7721 510.8495 510.8495 510.8553 511.8427 511.8427 512.5405
   512.6039 512.6039 512.7285 512.8656 512.8656 512.8768 514.4167 514.4719
   514.4719 516.7862 516.9867 516.9867 517.5395 517.5679 517.5679 517.6871
   518.1796 518.1885 518.1885 518.2476 518.2476 518.7145 518.7145 518.7971
   519.3849 520.6090 520.6090 521.7348 523.0922 523.0922 523.1822 523.1822
   523.4689 523.4689 523.4898 523.5242 523.9695 524.2620 524.2620 524.4828
   524.5283 524.5283 525.2521 525.6500 525.6500 526.5122 526.6412 526.6412
   527.6803 527.7205 527.7205 529.1351 529.1351 529.2062 529.2062 529.6990
   529.9212 529.9212 529.9313 530.2053 530.3733 530.3733 530.5374 530.5374
   530.8167 530.8581 530.8581 530.9606 530.9606 530.9829 531.6858 532.1661
   533.6177 533.6177 533.7833 534.0027 534.0204 534.0204 535.3720 535.3720
   536.7454 538.3427 538.5106 538.5883 538.6096 538.6096 538.6827 538.6827
   538.9960 538.9960 539.7710 539.7710 539.8529 539.8529 539.8646 539.9288
   540.3427 540.3427 540.5822 540.5822 540.7712 541.1759 542.0362 542.0362
   542.8388 543.3359 543.3681 543.3681 544.2449 544.7757 544.8941 544.8941
   545.0059 545.0059 545.3202 546.8484 547.0865 547.0922 547.0922 547.2269
   547.2269 547.6530 547.6530 548.2705 550.1849 550.2678 550.2678 550.6946
   550.6946 551.6280 551.6513 551.7324 551.7324 552.1063 552.1911 552.1911
   552.2702 552.7275 552.7275 553.7213 554.9695 554.9695 555.3700 555.3700
   555.4422 555.5330 555.6466 555.6466 556.5404 557.6703 557.6703 557.6757
   558.1208 558.3324 558.3324 558.8402 558.8402 558.9769 560.4807 560.4807
   560.8928 560.9723 560.9723 561.4685 561.4685 562.7080 562.7080 562.7774
   562.8075 563.5215 563.5215 563.5567 563.5739 563.5739 563.5894 564.9113
   564.9113 565.7291 566.5208 566.5208 566.7082 566.8030 566.8030 566.8427
   566.8503 566.8503 567.3448 567.3448 567.3489 567.3720 570.2491 570.6168
   570.6168 571.3995 571.4020 571.4020 571.4140 571.4443 571.4443 571.7942
   571.9005 571.9005 571.9953 571.9953 572.5812 573.5192 573.6803 573.6803
   574.1795 574.1795 574.7792 575.3766 575.3766 575.4214 575.9142 575.9142
   576.0374 578.1627 578.1627 578.5359 578.8349 578.8349 579.0628 579.0628
   579.0825 579.0858 579.4582 579.4673 579.4673 579.6535 580.7964 580.8828
   580.8828 582.9815 582.9815 583.3942 583.4059 583.4059 584.4193 584.4311
   584.4311 585.4140 585.4140 585.5680 587.4428 587.4428 587.5551 587.8590
   587.8590 588.2837 588.5667 588.5667 589.6297 591.3633 591.4062 591.4062
   592.6996 592.6996 594.6066 595.2761 595.2761 595.6538 595.6937 595.6937
   595.7507 595.7507 595.7971 596.0621 596.5822 596.5822 597.7839 597.8475

          k =-0.3333 0.3333-0.3333 (  4462 PWs)   bands (ev):

   -17.4265  -7.2109  -2.3403  -2.2534  -2.2534   6.6271   7.0601   7.0601
    12.7889  14.5383  14.5383  14.8643  16.9515  16.9515  17.9752  18.3404
    18.3497  18.3497  18.7888  18.7888  18.8852  23.8594  25.8845  25.9392
    25.9392  27.5997  30.6011  30.6011  33.4602  33.4602  35.5007  36.5279
    36.5279  39.6077  40.0939  40.0939  41.4331  41.4724  44.2347  44.2347
    44.5983  45.3712  45.8351  45.8351  49.9367  49.9367  50.3189  50.3189
    50.5583  52.2584  52.2584  52.5926  54.4274  56.8864  58.9287  58.9287
    60.7729  61.2934  61.2934  62.4104  62.4104  63.0067  63.2674  63.7750
    63.7750  66.5304  66.5304  68.0494  69.2070  70.6805  70.6805  71.0644
    71.5196  71.5196  75.0429  75.0429  75.2576  76.0328  76.0328  76.8862
    77.0985  79.4057  79.4057  81.1140  82.3686  82.3686  86.0943  86.2983
    86.2983  87.2727  87.5774  87.5774  88.2765  89.5454  89.5454  90.2886
    90.2886  91.1179  91.7132  91.8819  91.8819  94.3797  94.6680  95.0561
    95.0561  96.4239  96.4239  96.5651 100.4503 100.4503 100.6031 101.2719
   101.2719 101.6590 101.9766 102.6309 102.6309 103.3503 103.3503 103.6770
   104.0861 104.0861 104.2132 107.8410 108.8465 109.8750 109.8750 111.1999
   111.1999 112.4610 112.5430 112.5430 113.4890 113.5169 113.5169 113.8556
   114.3618 114.3618 115.1346 115.5261 115.5261 115.5670 115.8959 115.8959
   116.6912 118.3294 118.3294 119.8752 120.9571 120.9571 121.2575 124.0996
   125.0237 125.0237 125.9020 125.9020 127.2740 128.3494 128.3494 128.4642
   128.9404 129.3215 129.3215 133.6928 133.6928 135.1414 136.6966 136.6966
   136.6987 137.7796 138.2540 138.2540 138.3982 139.0998 139.0998 139.1986
   141.0767 141.0767 143.2492 143.3556 143.3556 144.2378 144.5013 144.5013
   144.6504 144.9986 144.9986 146.3569 146.3569 146.6335 146.7444 146.7444
   147.0416 147.2524 147.2524 149.0936 150.1866 150.1866 151.0774 151.0774
   152.4139 153.4079 153.4202 153.4708 153.4708 154.8774 154.8774 155.9417
   156.8224 156.8224 157.0421 157.9930 159.9237 160.5300 160.5300 162.2406
   162.2406 162.6243 162.6243 163.6160 163.8291 163.8291 164.3313 164.8395
   165.0821 165.6249 165.6249 166.6753 166.6753 166.6824 166.9663 166.9663
   168.5240 168.6416 168.6416 168.9575 170.3105 170.7513 170.7513 171.3609
   172.5029 172.5029 174.2768 174.8512 174.8512 175.7692 175.7692 176.0091
   176.7922 176.7922 176.9064 177.3904 177.9855 177.9855 178.3712 178.3712
   179.4143 179.9748 179.9748 180.6015 180.7571 181.1566 181.1566 181.6494
   183.0119 183.0119 184.5787 184.5787 185.3071 186.3923 186.3923 186.5482
   187.7487 187.9981 187.9981 189.0852 189.0852 189.2882 190.2081 190.2081
   190.3577 191.8364 192.0499 192.0499 193.5264 193.5264 193.6284 193.9892
   195.6563 195.6563 196.0958 197.9475 197.9628 197.9628 199.2611 199.2611
   199.4319 199.8971 200.1000 200.1000 200.7894 201.4330 201.5258 201.5258
   202.8541 202.8541 203.2193 203.2193 204.2111 204.9207 205.9626 205.9626
   206.9715 207.5788 207.5788 209.3978 209.3978 210.2923 211.8316 211.8316
   212.0715 213.0456 213.0456 213.4100 214.3101 214.3101 215.4436 215.8434
   215.8434 216.2293 216.7816 216.7816 216.8746 216.9390 217.8486 217.8486
   218.1139 218.1139 218.5544 219.4045 219.4045 220.4018 220.4018 220.8983
   220.9873 220.9873 221.2486 222.3552 224.0429 224.6290 224.6290 226.1119
   227.3225 227.3225 228.0245 228.0245 229.3397 229.3397 229.5548 230.2141
   230.2141 230.5241 230.6816 230.6816 230.8057 231.0413 231.1574 231.1574
   232.4982 232.9394 233.1272 233.1272 235.4095 235.4095 235.8140 238.4824
   239.0990 239.0990 239.8091 239.8091 240.4742 240.6133 240.6133 241.1062
   241.8842 242.2305 242.5419 242.5419 243.1453 243.1453 243.5064 243.5064
   243.6321 244.2037 244.2037 244.5586 244.5586 244.8489 245.4656 245.7496
   245.7496 246.3195 246.3195 246.7843 247.2777 247.2777 248.8988 248.8988
   248.9359 249.2571 251.6949 251.6949 253.0887 253.3233 253.4541 253.4541
   254.5249 254.5249 254.8213 255.1947 255.1947 255.4049 255.4049 255.6855
   255.7919 256.5394 256.5394 258.0131 259.8810 259.8810 259.8984 259.9597
   261.3299 261.6925 261.6925 263.2221 263.2221 263.3770 263.7059 263.7059
   264.4837 265.0097 265.0097 265.1972 265.1972 265.3704 266.1027 266.3313
   266.3313 266.5275 267.4063 268.3812 268.3812 268.7931 268.9070 268.9070
   269.5465 270.7603 270.7603 271.0656 272.0908 272.0908 273.0564 273.0564
   273.3301 273.4901 273.9524 274.5832 274.5832 275.1189 275.1189 275.6731
   275.6731 275.7476 275.8881 276.1247 276.1247 276.6301 276.6301 276.6673
   276.6797 278.3223 278.3223 279.0261 279.5416 279.5416 279.7824 280.3075
   280.3075 281.0410 281.3019 281.3019 282.1614 283.8312 283.8312 284.5202
   284.5479 284.5479 285.3547 285.3547 285.8687 288.5845 288.8746 288.8746
   290.5283 290.5283 291.3556 291.4870 291.4870 291.6237 292.0310 292.0310
   293.1461 293.7724 294.0038 294.0038 294.0370 294.0774 294.0774 294.6820
   295.4145 295.4178 295.4178 296.4151 296.4151 296.8394 297.6577 297.6577
   298.6874 299.4368 299.4368 299.5605 299.5605 299.7095 299.7977 300.2210
   300.8844 300.8844 301.7285 301.7285 303.1797 304.1490 304.2295 304.2295
   305.1629 305.1629 305.4123 306.3838 306.3838 307.0053 307.0053 307.2728
   307.2728 307.7597 307.7633 308.4943 308.5039 308.6064 308.6064 308.9327
   308.9327 309.9088 309.9227 310.6240 310.6240 311.2505 311.4546 311.4546
   312.6111 314.6500 314.6500 315.5513 315.8271 315.8361 315.8361 316.0198
   316.7117 316.7807 316.7807 317.7134 317.7134 317.9581 317.9581 318.7149
   318.8779 318.8779 319.8320 319.8320 319.9705 320.7222 321.2497 321.2497
   321.5051 321.6229 322.3147 322.3147 323.1772 323.4750 323.4750 325.1737
   325.3842 325.3842 326.2528 326.2528 326.5840 326.6372 326.6372 327.4549
   328.2614 328.2614 330.7269 331.7921 331.7921 332.3126 332.3126 333.5627
   333.6671 334.6544 334.6544 335.0486 335.0486 335.1513 337.0722 337.0722
   337.2559 338.5287 340.1501 340.2938 340.2938 340.7189 340.7189 340.9752
   341.6494 341.6494 341.9829 341.9829 342.8725 342.8897 342.8897 343.0939
   343.7873 343.8556 343.8556 344.1297 344.5923 344.5923 345.7909 345.7909
   346.6472 346.9365 346.9365 347.3828 348.1395 348.1395 348.4761 348.6399
   348.6399 348.8205 349.3961 350.3734 350.3734 351.0097 351.0097 352.1893
   352.8473 353.6203 353.6203 353.7213 353.7213 353.8314 354.6978 354.6978
   354.9237 355.6996 356.6136 356.6136 356.9074 356.9074 357.5165 357.5165
   357.6608 357.6708 358.0687 358.0687 358.4272 359.1435 359.3860 359.3860
   359.4591 359.4591 359.9451 360.1448 360.1448 360.8319 360.9456 360.9456
   361.3639 361.8779 361.8779 362.0582 363.1697 364.1779 365.1575 365.8372
   365.8372 365.9351 365.9351 366.3678 366.7744 366.7744 367.3489 367.4857
   367.6458 367.6458 368.1630 368.1630 368.3401 368.3401 368.5832 368.5993
   368.6865 368.7759 368.7759 369.2782 369.2782 369.9291 370.5423 370.5423
   371.0158 371.0158 371.3922 371.5010 371.5010 372.1262 372.6231 372.6231
   372.7060 372.7060 372.7545 373.0060 373.0060 373.2291 373.2291 373.2308
   373.4020 373.4020 373.5590 373.9976 373.9976 374.2671 375.0398 377.6634
   377.9474 377.9474 378.5049 378.6298 378.7008 378.7008 379.5867 379.5867
   381.4156 382.5956 382.5956 383.0651 383.0651 383.9222 385.2650 385.2650
   385.7099 385.7234 385.7234 385.7904 386.8594 387.6978 387.6978 389.9422
   390.4565 390.4565 390.9394 391.0511 391.0835 391.0835 391.3747 391.3747
   391.8568 392.0004 392.0004 392.6871 392.8955 392.8955 393.0574 393.0574
   393.2468 393.8378 394.0066 394.0066 394.1420 394.1420 395.4279 395.9318
   396.0133 396.0133 396.4400 396.8081 396.8081 397.2868 397.2868 398.2862
   399.5438 400.0415 400.0415 401.2425 401.2425 401.7424 402.2546 402.2546
   402.2670 402.7992 402.7992 403.5082 403.5082 403.5420 403.7187 404.0476
   404.0476 404.1280 404.5251 405.4924 405.6801 405.6801 406.4248 406.4248
   407.7144 408.2244 408.2244 408.6323 408.8653 408.8653 409.1397 409.1921
   409.4661 409.9441 409.9441 410.1856 410.1856 410.7593 410.9879 410.9879
   411.2980 411.7218 411.7218 411.8299 412.1689 412.1689 412.3443 412.3443
   412.3924 412.8958 412.8958 414.0128 416.5285 417.0691 417.0691 418.0086
   418.0086 418.7270 419.0281 420.2897 420.3834 420.3834 421.4966 421.4966
   421.9273 422.2438 422.2438 422.4107 422.5254 422.5254 423.0095 423.3416
   423.3416 424.0319 424.0441 424.0441 424.6264 424.6264 425.0806 425.9360
   426.1699 426.1699 426.2598 426.4701 426.4701 427.5491 427.5491 427.6515
   428.3487 428.3487 428.4466 429.0808 429.0808 430.4718 430.4718 430.8932
   431.3416 432.3089 432.8115 432.8115 433.3131 433.3131 433.7426 433.8145
   433.8145 433.8952 434.1467 435.3001 435.3001 435.7120 435.7120 436.0011
   436.0011 436.1963 436.4345 436.6145 436.6145 436.9863 437.1523 437.1534
   437.1534 439.4204 439.8136 439.8136 442.8841 443.1801 443.1801 444.0639
   444.4037 444.4037 444.5432 444.9114 444.9114 445.4834 445.4834 445.6486
   446.2373 446.2373 446.5941 447.5564 447.7704 447.7704 447.8335 448.0037
   448.0037 448.2068 448.2449 448.2449 448.5516 449.2651 449.2651 449.3971
   450.5992 450.5992 451.7880 451.7880 452.6523 452.9582 453.9533 453.9533
   454.4720 454.4720 454.6546 454.7818 455.9753 456.4882 456.4882 456.8418
   456.8418 457.3435 458.1396 458.1396 458.3100 458.3767 458.5787 458.5787
   459.2467 459.5141 459.5141 459.5910 459.5910 459.8562 459.8954 459.8954
   460.2122 460.2894 460.2894 460.3535 460.4081 460.4081 460.7296 460.7296
   460.7841 460.8763 461.5139 461.5139 461.8388 462.8551 462.8551 463.3363
   463.3363 463.5206 464.4999 465.8199 465.8442 465.8442 466.7051 466.7051
   466.9614 467.5395 467.5395 467.6550 468.8842 468.8842 469.2030 469.6921
   471.3605 471.3605 471.7776 472.4353 472.4353 473.2398 473.5711 473.5711
   473.9413 474.0125 474.0125 474.0440 474.1940 474.1940 474.3485 474.7040
   474.7040 474.7928 475.3195 475.3195 476.4945 477.0052 477.0052 477.5405
   477.5405 477.7237 478.1248 478.2244 478.2244 478.4170 478.4170 478.6180
   479.8970 479.8970 481.5964 481.7536 481.7536 481.8883 481.8883 481.9607
   482.0460 482.5537 482.5537 483.4919 484.2618 484.2683 484.2683 484.5022
   484.5022 484.6116 484.7664 484.7664 484.8835 485.7519 486.1012 486.1012
   486.1506 486.3277 486.3277 486.7344 486.7344 487.2261 487.2261 487.3100
   487.3294 490.0213 491.3220 491.3220 491.9058 492.5033 492.5033 493.0648
   493.6363 493.7077 493.7077 494.2390 494.2390 495.5966 496.2473 496.2473
   496.5196 496.5196 496.5523 497.2257 497.4150 497.4150 497.5124 497.5717
   497.6004 497.6004 498.2033 498.2841 498.2841 498.4399 498.4399 498.5869
   498.6271 498.6271 499.0926 499.0926 499.5047 499.5500 499.5500 499.5890
   499.8802 499.8802 502.4148 503.1803 503.1803 503.2459 503.2459 503.6315
   503.6916 503.7634 503.7634 504.0759 504.0759 504.5953 504.5953 504.7807
   504.9933 505.0860 505.1459 505.1459 506.0016 506.1147 506.1147 506.3912
   506.6293 506.6293 506.6301 507.8582 507.8582 507.9974 509.0986 509.0986
   509.4755 509.9168 509.9168 509.9456 510.8574 511.2015 511.2015 511.3522
   511.3635 511.3635 513.9745 514.0244 514.0244 514.3861 514.4822 514.4822
   515.6460 517.0379 517.0379 518.9611 519.2162 519.3576 519.3576 520.1343
   520.1343 521.1562 521.3257 521.3257 521.5418 521.8000 521.8000 522.0006
   522.4887 522.4887 522.8351 522.8351 522.8916 523.2637 523.2637 523.2948
   523.5550 523.5550 523.5970 523.6163 523.6163 523.9902 523.9902 524.2144
   524.3851 524.5366 524.6040 524.6040 524.9778 525.7134 526.7634 526.7634
   526.8070 527.8496 527.8496 527.9401 528.2668 528.3957 528.3957 528.4742
   528.5392 528.5392 530.1315 530.1315 531.4677 531.6397 531.6397 531.6904
   531.6904 531.7935 531.7935 531.8190 531.8220 531.8220 532.4197 532.5801
   532.5801 533.9481 534.0575 534.0575 534.0583 534.7845 534.7845 534.8272
   535.8513 535.8513 536.2942 536.5270 536.5270 536.8444 537.2421 537.2421
   537.8357 537.8368 537.8368 537.9010 537.9387 537.9387 537.9657 538.0282
   538.0282 538.4647 538.4647 538.4924 538.8160 539.1287 539.1287 539.4889
   539.4889 539.5289 539.8069 544.3038 544.6472 544.6472 546.0732 546.1424
   546.1424 546.8475 547.3661 547.3661 547.4466 547.4466 548.3599 549.8650
   549.9235 549.9235 550.4649 550.4649 550.5937 550.8766 550.8766 550.9900
   551.1035 551.1035 551.1170 551.3664 551.4676 551.4676 551.5073 551.5711
   551.5711 551.7589 551.7589 551.8940 551.8947 551.8947 552.1105 552.7989
   552.7989 553.2393 553.2393 553.3728 553.3728 553.4931 553.7722 554.0320
   554.0320 554.0685 554.6331 555.1528 555.1528 555.2015 558.1770 558.1770
   558.8383 558.8729 558.8729 558.9519 559.2397 559.2397 560.2412 561.7014
   562.3268 562.3268 562.3950 563.4705 563.4705 563.7089 563.7635 563.7635
   564.3628 564.3628 564.5376 564.6857 564.7053 564.7053 565.0929 565.1624
   565.1624 565.5985 565.7333 565.7333 566.2817 566.2820 566.2820 567.3840
   568.2311 568.2311 568.6002 568.6002 568.8178 570.7465 570.7465 570.8537
   570.9526 570.9972 570.9972 571.3698 571.3698 572.2455 572.3128 572.3128
   572.6209 572.6941 573.0545 573.0545 573.5422 573.5422 573.6001 573.7691
   573.7691 573.7995 575.1224 575.3375 575.3375 575.9397 576.4135 576.5776
   576.5776 576.5897 576.6449 576.6449 576.8440 576.8440 577.8844 577.8844
   577.9213 578.7804 579.5979 579.6790 579.6790 580.9664 581.3118 581.3118
   583.2532 583.8739 583.8739 583.9049 584.2728 584.2728 584.3519 585.5589
   585.5589 585.5775 587.2604 587.2604 587.7900 587.9109 588.0484 588.0484
   588.9603 588.9603 589.2757 589.2757 589.3816 589.4032 589.9923 589.9923
   590.4726 591.2191 591.2191 592.2219 592.2283 592.2283 593.0492 593.0492
   593.1905 594.1326 594.1326 594.8267 596.6929 596.7053 596.7053 596.7790

          k = 0.5000-0.5000 0.5000 (  4446 PWs)   bands (ev):

   -17.3660  -7.3794  -2.3914  -2.2814  -2.2814   6.3309   6.8463   6.8463
    13.1530  15.3541  15.3541  15.5478  17.2634  17.2634  18.5251  18.5885
    18.5885  18.5931  18.5931  18.8958  18.9684  22.0097  24.4181  24.4181
    25.7641  28.8774  31.3226  31.3226  33.1715  33.1715  33.8284  36.8129
    36.8129  38.4594  38.4594  39.2232  40.8384  42.6956  43.2924  43.2924
    43.4150  44.1081  45.4295  45.4295  50.3202  50.3202  50.4225  51.7983
    51.7983  52.8464  56.0055  56.0055  57.0168  57.2866  57.9919  57.9919
    59.8259  59.8259  61.7235  62.8126  65.8442  65.8442  66.9900  66.9900
    67.3099  68.1931  68.1931  68.2275  68.2275  68.6084  68.8054  69.6488
    69.6488  70.0790  70.0790  70.4967  70.5158  76.4266  77.7173  77.7173
    78.3444  79.9180  79.9180  80.4198  80.4198  81.8332  82.4292  82.4292
    86.0216  86.1164  86.1164  87.1834  88.4624  88.8507  88.8507  89.4218
    90.1422  90.1422  90.5445  92.3569  94.6058  94.6058  94.8677  94.8677
    96.0350  96.2182  96.7906  96.7906  97.4343  99.5599  99.5599  99.8505
    99.8505 100.8757 101.3071 101.3071 102.8236 105.5618 105.5618 105.9921
   106.0593 106.0808 107.6220 107.6220 107.8870 107.8870 109.0183 109.1995
   111.5789 111.5789 113.8850 113.8850 114.7481 115.0001 115.0001 115.5790
   116.8487 116.8487 116.9186 116.9186 117.7370 118.6717 118.6717 118.7669
   118.9496 120.3243 120.8556 120.8556 123.8223 123.8223 124.7683 124.9792
   125.0217 125.0217 125.6828 125.6828 125.9344 126.2082 126.2082 126.3546
   126.8665 127.8901 127.8901 132.2600 132.2600 132.9655 135.8325 135.8325
   136.0673 136.1423 136.1423 136.5263 136.5770 136.8339 136.8339 137.1507
   137.1507 137.6159 141.4816 141.4816 143.3182 143.3182 143.4620 144.8927
   144.9660 144.9660 146.0593 146.6428 147.7914 147.7914 148.8446 150.3981
   150.3981 150.8175 150.8175 152.3142 152.4195 153.0831 153.2337 153.2337
   153.8059 153.8059 153.9276 153.9276 154.0907 154.0944 154.8055 154.8055
   155.1758 155.3495 155.3495 156.4604 156.4604 156.5012 157.1769 157.1769
   157.5158 160.1403 160.1403 162.3723 162.3723 163.2808 163.4841 164.2296
   164.2296 164.7034 164.8552 165.8600 165.9203 165.9203 166.0057 166.0057
   166.9091 166.9091 167.1426 167.1426 168.4907 169.5514 169.8488 169.8488
   171.5634 171.9090 173.4664 173.5784 173.5784 174.6773 174.6807 174.6807
   176.6866 176.8034 177.8863 177.8863 179.8458 179.8458 179.9527 181.3492
   181.3492 181.5163 182.1623 182.1623 182.7548 182.7548 184.0344 184.0644
   184.0644 184.7825 185.2735 185.2735 185.7874 185.8355 186.8758 186.8758
   186.8806 186.8807 186.8807 187.1700 187.3248 187.3784 190.0858 190.0858
   192.2556 192.2556 196.3301 196.3301 196.5314 198.3347 198.6772 198.6772
   199.5018 199.5018 200.2324 200.5068 200.5068 200.6170 201.1306 201.2995
   201.2995 201.5668 201.7734 201.9805 201.9805 202.1830 202.1830 203.6651
   203.6651 204.1135 205.8918 205.8918 206.8560 206.8560 207.7159 208.9648
   209.8888 210.1458 210.1458 210.1803 210.1817 210.1817 210.6227 210.6227
   210.9224 211.1101 211.1101 211.4901 212.2857 212.2857 213.4589 213.6368
   213.6368 213.8666 213.9032 213.9032 213.9553 213.9553 214.5296 215.5113
   215.5114 216.1453 216.1453 218.0645 220.9206 222.5118 222.5118 222.9721
   223.1944 223.1944 223.5601 223.5601 224.1898 224.3618 224.3618 224.3948
   225.4364 225.4364 227.3221 227.3221 227.7280 227.7550 227.7550 228.8669
   228.8669 228.9314 228.9314 229.6607 229.8242 229.9484 229.9484 230.0753
   230.3095 231.3987 231.3987 232.0557 232.0557 232.3615 232.7460 234.2113
   234.2113 234.7919 235.6094 235.6094 239.8083 239.8083 240.1224 240.1881
   240.1881 240.9177 241.7131 241.7131 241.8353 242.0655 242.0655 242.3897
   242.3897 242.7493 243.3659 244.1081 244.4131 244.4131 246.5443 246.5443
   246.8066 247.8366 247.9540 248.1157 248.1157 248.3331 248.3331 250.2028
   250.7446 251.1059 251.1059 251.4526 252.1673 252.1673 252.2935 252.8313
   252.8313 252.8333 252.8333 254.8726 255.2373 255.2373 255.9719 256.6750
   257.1246 257.1246 257.7091 257.7091 257.9663 258.2763 258.2763 259.2412
   259.7507 259.7507 260.2464 261.1297 261.1495 261.1495 263.5963 263.5963
   263.9498 263.9498 264.7283 264.9580 264.9580 265.1080 265.6544 265.6544
   266.2989 269.2082 269.2440 269.2440 269.2724 269.2724 270.0483 270.0483
   270.0746 270.1612 270.1612 270.7729 272.4531 272.4531 272.9843 273.1003
   274.1960 274.5420 274.5420 274.5956 274.6069 274.6069 274.7561 276.6126
   276.6126 277.8659 278.1390 278.1390 278.4991 278.4991 278.5018 278.9972
   279.7954 279.7954 279.9514 281.7719 281.9968 281.9968 283.0497 284.9975
   285.3225 285.3225 287.4168 287.4216 287.4216 287.4963 287.4997 287.4997
   287.5298 287.8364 287.8364 288.3666 288.3666 290.3528 290.5830 290.5830
   290.6467 290.6467 290.7623 290.7719 291.9589 291.9589 293.2861 293.8200
   293.8523 294.0494 294.0494 295.2530 295.2530 295.2644 296.0613 296.0613
   296.1215 296.1215 296.1462 297.0487 297.1429 297.1429 297.1609 297.1768
   297.7743 297.8481 297.8481 298.0101 298.0101 298.2129 298.2129 298.5844
   298.5844 300.6135 300.9066 300.9066 300.9514 300.9514 301.0016 302.2224
   303.8200 303.8200 304.9777 305.7694 305.7738 305.7738 306.9175 307.1272
   307.1272 307.5242 308.2634 308.2634 308.3208 308.9247 308.9247 309.3813
   309.3813 309.4949 310.1727 310.1727 310.3370 310.3722 310.3722 310.4581
   310.4664 310.9909 310.9909 313.3850 313.9829 315.3798 315.7974 315.7974
   316.0416 316.0416 316.4358 317.1518 317.1518 317.7680 317.7680 319.0869
   319.9257 321.5556 321.5556 321.7075 321.7075 322.8188 323.8004 323.8154
   323.8154 324.2021 324.2021 325.1505 325.1505 325.5275 325.7879 325.9509
   325.9509 326.0194 326.4552 326.4552 327.6952 327.8377 327.8377 328.6853
   328.6853 328.8238 328.8238 330.4582 330.4596 330.5248 331.2177 331.2177
   332.0259 332.2225 332.2225 334.4107 334.9901 334.9901 335.0190 335.7387
   335.8573 335.8573 335.9910 335.9910 336.1156 336.9631 336.9631 337.2794
   337.2794 337.9291 340.6055 340.6055 340.6292 340.6292 340.9278 340.9473
   340.9481 341.1546 344.2321 344.2321 344.7516 344.7516 345.9035 346.3244
   346.4468 347.5710 347.5710 348.7964 348.7964 348.9305 348.9305 349.7853
   351.1196 351.7386 351.7386 351.7517 351.8293 351.8293 351.9126 351.9126
   352.7656 353.3639 353.3639 353.6000 353.6000 353.8824 354.0623 354.3072
   354.3072 354.5374 354.6704 354.6704 355.2027 355.2027 355.3523 355.7114
   355.9549 355.9549 356.2591 356.4026 356.4026 356.5847 356.5847 357.0241
   357.0241 357.6096 358.5771 358.5771 358.6883 359.0134 359.0134 359.1710
   359.3612 359.5859 359.5859 360.3243 361.0050 361.0050 361.3685 361.3685
   361.9748 362.9577 363.1536 363.1536 364.0700 365.1943 365.7126 365.7126
   366.3791 366.3791 366.6163 367.2083 367.7395 367.7395 368.0464 368.0464
   368.3188 368.8229 369.8882 369.8882 371.2267 371.5769 371.5769 372.9482
   372.9482 373.2306 373.2306 373.4041 373.5400 373.5400 373.5526 373.6998
   374.1956 374.1956 374.7672 374.7672 375.0335 375.2193 377.6785 377.6785
   377.7126 377.7126 377.8760 378.4700 378.7622 378.8741 378.8741 378.8928
   378.8928 378.9310 379.0485 379.6936 379.6936 381.1272 381.4396 381.9941
   381.9941 382.5135 382.5135 383.5872 383.5872 383.6696 384.4120 384.4120
   385.5267 385.9438 386.0648 386.0648 386.0741 386.1315 386.1315 386.5432
   386.6977 386.8080 386.8080 387.1904 387.1904 387.7272 389.9086 391.3113
   391.3113 391.5374 392.1367 392.1367 394.4542 394.8860 394.8860 395.1979
   395.2916 395.7357 395.7357 396.0675 396.0675 396.1093 396.1195 396.1195
   397.1645 397.1645 397.3826 397.3826 399.0807 399.9398 399.9398 400.1706
   400.1706 400.4096 400.5140 401.5648 401.6952 401.8653 401.9555 401.9555
   402.2336 402.2336 402.8441 403.2878 403.2878 404.2410 404.2410 404.4779
   404.4779 405.6172 406.4741 406.6454 406.6454 406.9377 407.0354 407.0354
   407.5010 408.7134 408.7134 408.7917 408.7917 408.8188 408.8188 409.7779
   412.2155 412.4168 412.4968 412.4968 412.5069 412.8224 412.9521 412.9521
   413.0099 413.3564 413.3564 413.5793 413.5793 413.6941 413.6941 413.6962
   416.7476 416.7476 417.5787 417.6292 417.6304 417.6304 417.6516 417.6516
   419.0035 419.0405 419.1480 419.1480 419.8768 421.4789 421.4789 422.0206
   422.1294 422.1294 422.1354 422.1354 422.2200 422.2234 422.3795 422.3795
   422.5513 422.5513 422.8112 422.9014 422.9014 425.2729 425.9037 425.9037
   426.0446 426.0631 426.0847 426.0847 429.3570 430.9368 430.9368 431.8517
   431.8899 431.8899 432.2321 432.3853 432.6599 432.6599 432.7203 433.5235
   433.6961 433.6961 433.8447 433.8447 433.9527 434.2440 434.2440 435.4131
   436.9148 436.9148 437.3589 437.5496 437.5496 437.8303 437.8303 438.0975
   439.1140 439.1140 439.7481 439.9968 439.9968 440.0350 440.1582 440.1945
   440.2827 440.2827 440.5434 440.5434 440.5576 440.5576 440.6574 440.6574
   440.8185 441.2564 441.2564 441.3685 441.3910 441.9488 442.7704 442.8848
   442.8848 443.0385 443.0385 444.3854 444.4526 444.4526 444.4552 444.4552
   444.5299 444.6677 445.0055 445.2564 445.2564 445.2831 445.3021 445.3021
   450.2640 452.2080 453.0276 453.0276 453.2180 453.2180 453.7335 454.1710
   454.1710 454.3532 454.3532 454.4501 454.6432 454.8624 454.8624 454.9441
   454.9441 454.9540 455.0972 455.1376 455.7051 455.7051 456.2569 456.2569
   456.7553 456.9117 456.9117 458.6983 458.6983 458.7197 458.7494 459.6001
   459.6001 460.2123 460.2123 460.3900 461.5534 461.5534 461.6137 461.6137
   461.6633 462.0950 462.1299 462.4821 462.5063 462.5063 462.6090 462.6090
   463.0977 463.5239 463.5239 464.4473 464.4765 464.4765 464.6740 465.1755
   465.1755 465.4702 466.4674 466.4674 467.2722 469.9299 469.9299 469.9866
   469.9866 470.5590 470.5590 470.5850 471.7167 471.7167 471.7488 471.7574
   471.9836 472.7181 472.7181 472.7379 472.9033 472.9033 473.0669 473.1787
   473.1787 473.2125 473.2936 473.2936 473.4159 473.4159 473.5911 473.5911
   473.6820 474.1376 476.9835 476.9835 476.9966 476.9966 478.3544 478.3559
   478.4249 478.4249 478.4760 478.6644 478.6644 479.0328 481.8170 481.8170
   482.7717 483.3979 483.3979 483.6125 484.0638 484.0638 484.2164 485.0353
   485.0353 485.5973 485.8172 486.2287 486.2287 487.4860 487.4860 487.5126
   487.5126 488.7263 488.7263 488.7850 488.8300 489.0932 489.3430 489.4757
   489.4757 489.7693 489.9282 489.9282 489.9477 490.6259 490.7663 490.7663
   490.8819 490.8819 491.4242 491.4242 491.7052 491.7052 491.7812 492.6226
   493.7586 493.7968 497.2964 497.2964 497.6032 497.7811 497.7811 498.0119
   498.3047 498.3810 498.3810 498.6200 498.7064 498.7064 498.7599 498.7599
   498.9941 499.0477 499.0496 499.1395 499.1395 499.1507 499.1507 499.3382
   499.3382 499.4664 500.3416 500.3416 500.5204 500.5204 500.6449 500.7974
   502.8783 502.8783 503.0244 503.0244 503.1869 503.1869 503.6619 503.7363
   503.7363 504.3656 504.3905 504.3905 504.4366 504.4366 504.4894 504.5028
   504.5028 504.5189 504.5552 504.5552 504.5909 504.9465 506.6779 507.2820
   507.2820 507.5545 507.5545 509.4777 512.4663 512.4663 512.7644 512.8244
   512.8244 512.9388 514.0268 514.6098 514.6098 515.2040 515.2040 517.9994
   518.0935 518.8222 518.8222 519.2176 519.2919 519.2919 519.4791 519.5005
   519.5005 519.5242 519.5242 519.5313 519.9005 519.9005 519.9026 519.9026
   520.1510 520.1986 520.2507 520.2507 520.6086 520.7598 520.7598 522.2281
   525.2205 525.2205 525.2319 525.2319 526.5687 526.5687 526.6512 526.8574
   527.0039 527.3508 527.3508 527.5417 527.5891 527.5891 529.7441 529.8399
   529.9159 529.9159 529.9263 530.0008 530.0008 530.0584 530.0584 530.3818
   530.4027 530.5367 530.5367 530.5817 530.5827 530.5827 534.2535 536.3278
   537.1173 537.1173 537.2200 537.2200 537.4850 537.4850 537.5077 537.6517
   537.6517 537.8374 539.1751 539.1751 539.1878 539.1878 539.2168 539.2531
   539.4311 540.8915 540.8915 541.1967 541.1967 541.2231 541.2571 541.2571
   541.2586 541.3079 541.3079 541.3311 541.3408 543.0703 543.0703 543.8518
   543.8518 543.9764 545.1386 545.1386 545.4018 545.4018 545.4914 545.7890
   546.6725 546.8308 546.8308 546.9193 546.9193 546.9928 547.4181 547.6060
   547.6060 547.7428 547.7428 547.8443 547.9260 548.3830 548.3830 548.4140
   548.4140 549.7315 549.7315 549.9128 549.9128 549.9951 550.1622 550.3130
   550.3342 550.3342 550.3346 550.3346 550.3404 550.3908 551.1488 551.1488
   551.1862 551.1862 551.2323 551.2477 553.0813 553.1299 553.5365 553.5365
   553.6039 553.6039 554.0738 554.8921 556.0388 556.0388 556.6512 556.6512
   556.8668 557.5879 557.5879 557.8481 557.9224 557.9224 558.0233 558.3658
   558.4808 558.5051 558.5051 558.5234 558.5234 558.8336 561.0737 561.0737
   561.1282 561.1282 561.2046 561.2241 561.2241 561.2359 561.2359 561.2393
   561.9068 561.9278 561.9278 561.9542 561.9587 561.9587 564.8694 564.8694
   565.8152 565.8651 565.8651 566.3502 567.4883 568.2381 568.2381 568.4501
   568.4501 569.3782 569.3782 569.3890 569.3890 569.4941 569.7068 569.7942
   569.9111 570.0212 570.0212 570.1327 570.1636 570.1636 570.6066 570.6112
   570.6112 570.6332 570.6399 570.6399 572.8707 574.2752 574.2752 574.2759
   574.2759 574.7322 574.9703 574.9703 575.0774 575.0774 575.1271 575.1271
   575.1476 575.3932 575.4493 575.4493 575.4886 576.4313 579.4033 579.4033
   579.4233 579.4233 579.4931 579.4959 581.9482 581.9482 583.1807 583.2625
   583.2625 583.3608 583.5246 583.7985 583.7985 583.9747 583.9747 583.9809
   584.0053 584.0053 584.0995 584.1500 584.1500 585.0429 585.2338 585.2924
   585.2924 585.3508 585.3508 585.3588 587.0684 587.9017 587.9017 587.9156
   587.9156 588.2281 588.8407 588.8818 588.8818 588.9287 589.2748 589.2748
   589.4024 589.4024 589.4329 589.7786 589.7786 590.0477 590.0477 590.0568

          k = 0.0000 0.3333 0.0000 (  4460 PWs)   bands (ev):

   -17.5254  -6.8833  -2.3089  -2.3089  -2.1739   7.0071   7.8181   7.8181
    11.9248  12.7255  13.9495  13.9495  15.4841  16.3588  16.9418  18.4007
    18.6384  18.6384  18.7324  18.8384  18.8384  23.5022  28.0179  28.0179
    28.6840  29.7966  29.7966  29.9046  31.8998  32.9746  36.1610  36.6196
    36.6196  39.4451  41.4352  42.0459  42.0459  42.5358  44.2896  44.2896
    45.2796  45.6200  48.1294  48.1294  48.7426  49.1185  50.3063  51.1401
    51.1401  51.7253  51.9335  52.9506  52.9506  55.1612  55.1613  56.3810
    57.1836  57.1836  58.3130  59.2249  60.3390  60.3390  61.4385  61.4385
    62.2451  64.6272  66.8800  67.2467  67.2467  70.9326  71.3484  72.3780
    75.1568  75.7960  75.7960  78.2247  78.7180  78.7180  80.6576  82.0878
    82.0878  82.1525  82.6047  83.2619  83.6073  83.6073  84.6501  86.0919
    86.7206  86.7206  87.9895  89.1330  89.1330  89.5969  90.8451  91.6997
    92.2535  92.2535  92.5980  92.6951  93.4554  93.5725  94.4381  94.4381
    95.0784  95.2443  95.2443  96.8858  98.8536  99.7417  99.7417 100.4368
   100.4368 100.6975 100.9693 101.5507 101.7971 101.9419 101.9419 102.5554
   103.9551 103.9551 106.0945 106.0945 106.1291 106.4390 106.6718 107.3720
   107.8843 107.8843 108.9494 109.5950 110.1608 111.8573 111.8573 112.8762
   112.8762 114.4683 115.4634 117.3113 118.2649 118.6105 118.6105 119.0203
   119.3577 119.3577 119.5005 119.7432 121.0847 121.9823 122.0311 122.0311
   124.6783 125.6341 125.6341 125.7831 126.2655 126.3094 126.9549 126.9549
   128.8912 128.8912 129.3877 130.0271 131.5844 134.5224 134.5224 134.8151
   135.0082 135.6376 135.6412 135.6412 136.2043 136.8764 136.8764 137.5966
   137.6490 140.9230 141.3261 141.3261 143.5031 143.5031 145.2801 146.9114
   147.3228 147.6352 147.6352 149.1530 149.4265 150.1967 150.1967 150.5337
   151.4138 151.8193 151.8193 151.9584 152.2125 154.4688 154.5205 154.5205
   155.4152 156.9452 156.9452 157.0596 157.9542 158.3240 158.3479 158.3479
   159.4719 159.9803 159.9803 160.4047 160.6962 161.2642 161.5657 161.6518
   161.6518 163.0301 163.1044 163.1417 163.1417 163.3110 163.7048 163.7048
   163.9619 164.4311 164.9482 165.2178 165.2178 165.5946 168.3470 168.3470
   168.8668 169.5544 169.5544 170.0153 170.3355 171.3968 171.3968 171.4945
   171.5828 172.4188 172.4188 173.1210 173.9240 174.9476 175.2022 175.2022
   176.1118 176.3852 176.6548 176.7396 176.7396 177.8565 178.1354 178.1354
   178.4146 180.6431 181.4961 181.4961 181.5681 182.6720 182.9690 183.1183
   183.1183 184.0612 184.0612 184.2994 184.9464 185.6069 185.6466 185.6466
   185.7011 186.0454 186.2875 186.7953 186.7953 186.8359 187.4381 188.0455
   188.0455 188.4796 189.0633 189.4209 190.1688 190.1688 190.6658 191.2619
   191.2619 192.0739 193.7487 193.7487 194.0874 194.5911 194.8605 194.8605
   195.2675 195.6961 196.6829 196.6829 196.8609 196.9087 200.4678 201.5389
   201.5389 203.4007 203.5152 203.9817 204.0317 204.0317 204.4662 205.5957
   205.5957 206.6326 207.8761 207.8761 211.5625 211.5770 211.7355 211.8050
   211.8050 211.8956 212.7646 213.7199 213.7199 213.9127 214.5984 214.9415
   214.9415 216.6245 216.6245 216.9771 216.9941 217.7857 217.8977 218.1470
   218.1470 218.4082 219.7657 219.7657 220.0592 220.3005 220.3005 221.3962
   223.0368 223.8827 224.4152 225.7138 225.7138 226.5691 226.9472 227.4658
   227.4658 228.1187 228.5419 228.6249 228.8366 228.8366 229.2458 229.3894
   229.7623 229.7623 230.5222 230.8840 233.7424 234.7026 234.7026 234.8848
   237.1930 237.1930 237.6660 237.6660 239.1657 239.2953 240.9937 241.3774
   241.9364 241.9364 242.6566 242.8593 242.8593 243.3388 243.3388 243.4481
   243.6577 244.0859 244.5943 244.7432 244.7432 245.0365 245.5610 245.5610
   245.6995 246.0275 246.2047 246.7550 247.7407 247.8339 247.8339 247.9005
   248.9744 249.4409 249.4987 249.4987 250.2135 250.2135 250.3370 250.5186
   251.0443 251.0443 252.1231 252.2614 252.6971 253.5972 253.5972 254.2385
   254.7037 254.7037 255.0576 255.4680 257.3095 257.3095 257.4744 257.4744
   258.3615 258.4029 259.0064 259.2807 259.2807 260.0323 260.0612 260.6739
   261.0193 261.0193 261.6700 261.7463 261.7463 261.8095 262.0960 262.3808
   262.8699 262.8699 263.4247 263.4247 264.2013 264.7610 264.7944 264.7944
   265.0203 265.6123 266.1195 266.1195 266.3642 267.4425 267.4425 267.5304
   267.6611 267.8850 268.8676 268.8676 269.0904 269.2528 269.9689 269.9689
   271.1570 271.4456 272.2490 272.6863 273.0828 273.0828 273.3762 273.8104
   273.9313 273.9313 274.5588 274.6833 274.6833 275.5131 275.7403 276.2710
   276.7792 276.7806 276.7806 277.3625 277.4812 278.4658 278.4658 278.8218
   278.8218 278.9358 280.8755 281.3001 281.3001 281.7225 282.3008 283.3518
   283.6066 283.6066 284.6368 285.7614 285.7614 286.2230 286.8225 286.9627
   287.0233 287.0233 287.1370 287.2112 287.6707 287.6707 287.7339 287.9398
   288.4846 289.1811 289.1811 290.3104 290.3104 291.9893 292.5586 293.0889
   294.4911 294.6375 294.6375 295.0425 295.2901 295.2901 295.3079 295.3881
   295.7827 295.7827 296.1635 296.4515 297.2703 297.2703 297.8741 298.4320
   298.4320 298.5440 299.6551 299.7126 299.7126 299.7418 300.9896 301.8332
   301.8332 301.8788 302.6239 305.5952 306.0318 306.2062 306.6232 306.6232
   307.4050 308.1589 308.1589 308.8229 308.8229 309.0862 309.6763 310.5934
   310.5934 311.4045 311.9527 313.1000 313.4902 313.4902 314.4887 314.6940
   314.6940 315.0498 315.4352 316.2759 316.6277 316.7227 316.9944 316.9944
   318.2910 318.5587 318.5587 318.9921 320.2268 320.2268 320.9221 321.0647
   321.7414 322.3396 323.9115 323.9115 324.7590 324.7590 325.1025 325.2601
   327.0139 327.3619 327.3619 327.5630 328.3330 328.3330 329.2833 329.6728
   329.6879 329.6879 330.0267 330.4681 330.4681 330.5775 333.5890 334.0802
   334.3075 334.3211 334.3211 334.8471 334.8776 335.1412 335.5317 335.5833
   335.5833 336.9657 336.9657 337.5058 337.7840 337.7840 337.7871 338.0087
   338.5281 338.6208 338.6208 338.6619 339.3478 339.4549 339.5642 339.5642
   339.7742 340.0941 340.2997 340.4752 340.4752 341.6685 342.0571 342.0571
   342.6823 342.9760 343.3181 343.3181 343.4488 344.6531 344.9327 344.9327
   345.7754 345.9590 346.1615 346.1615 346.3102 347.0987 347.0987 347.1068
   347.8280 348.1339 348.1339 348.3222 348.6649 348.6649 348.7332 349.4360
   349.4360 350.2671 350.9479 351.1098 351.2421 351.2531 351.2531 351.5636
   351.6340 352.4349 352.4349 352.9690 353.0262 353.0461 353.2373 353.9474
   353.9474 354.3214 354.3214 354.7915 355.2393 356.3057 359.2523 359.2523
   360.1229 361.0334 361.7611 361.7611 363.1935 363.2756 363.2756 363.6532
   364.0169 364.2089 364.2089 364.3809 364.8527 365.8920 366.5048 366.5048
   367.8089 368.0547 368.0547 369.0456 369.1179 369.1179 369.7583 370.0060
   370.3021 370.3021 370.5134 370.5336 370.5336 370.8033 371.1079 372.2828
   372.5810 372.5810 372.7622 373.0976 373.0976 373.3679 373.4004 373.8765
   373.8765 374.0012 374.1030 374.4680 374.4705 374.4705 374.6947 374.8309
   374.8309 374.9659 375.0523 376.2568 376.8983 376.8983 377.4244 377.8432
   377.9620 377.9926 378.4404 378.4404 378.5940 378.5940 378.9741 379.5398
   379.5398 379.8420 380.0618 380.2520 380.5752 380.8084 380.8577 380.8577
   380.8883 381.7552 381.8342 381.8342 381.9378 382.0017 382.0625 382.0625
   383.6711 384.0392 384.0392 384.4327 384.6878 386.3934 386.7408 386.7408
   386.9897 387.5967 387.7708 387.9366 387.9366 388.1060 388.3378 388.3378
   388.9419 388.9419 388.9446 388.9497 389.4261 391.4922 391.6184 391.8772
   391.8772 392.9119 394.6824 394.6824 395.0048 395.0048 395.0284 395.3780
   395.4970 395.9378 396.1738 396.7827 396.8947 396.8947 397.0552 397.0552
   397.1065 397.4283 397.4283 397.4803 397.5376 398.4772 398.4772 398.6688
   399.5815 399.7047 400.0217 400.0217 402.2557 402.9001 402.9001 403.0375
   403.4459 403.5664 403.5664 403.7145 403.8731 403.8755 404.4931 404.4931
   404.8194 404.8886 404.8886 404.9328 405.6221 405.6221 405.7574 406.5628
   407.2663 408.0581 408.6736 408.7156 408.7156 408.7777 409.2951 409.3044
   409.4263 409.4263 410.1033 410.1033 410.2156 410.2744 410.5921 410.6749
   410.9106 410.9145 410.9145 411.0211 411.0211 412.5479 413.6784 413.6784
   414.1644 414.9505 415.9080 415.9080 416.7014 416.7361 416.7462 416.7462
   417.3345 417.8111 417.8549 417.9207 417.9207 420.4772 420.5353 420.5353
   420.5717 420.6507 423.4226 423.4226 424.2192 424.5248 424.9121 424.9121
   425.3550 425.3550 426.3607 426.9022 426.9022 426.9513 427.9953 428.1877
   428.5867 429.7531 429.9727 429.9727 430.2761 430.3955 430.4194 430.4194
   430.7893 430.7893 430.9412 431.0766 431.0766 431.2705 431.2931 431.7936
   432.4033 432.4689 433.2918 434.9545 434.9545 436.7889 436.7889 437.3299
   438.0693 438.5871 438.6381 438.6805 439.0639 439.0639 439.2242 439.2242
   439.7504 440.0876 440.4163 440.4163 441.8909 442.0271 442.0271 442.1321
   442.2444 442.2444 442.2885 442.3150 442.5612 443.6531 443.6531 443.7177
   444.2881 444.6505 444.7320 444.8376 444.8950 444.8950 446.4793 446.4793
   447.2089 448.2326 449.4916 449.4916 449.4992 449.5414 451.2362 451.2362
   451.5454 452.0605 453.2821 453.2821 453.5660 453.5988 453.7657 453.8816
   453.8816 454.7606 454.7606 456.4835 456.5253 456.9700 457.2993 457.2993
   457.6029 457.6029 458.2692 459.8032 460.0542 460.1068 460.1068 460.1244
   460.3203 460.3799 461.0975 461.0975 461.1105 462.2948 462.2948 463.4477
   463.8158 463.8158 464.1412 464.2358 464.5031 464.5191 464.5191 466.0772
   467.9098 468.0895 468.4904 468.9066 468.9066 468.9373 468.9373 469.1328
   469.1626 470.3212 470.3212 470.4552 470.4922 470.4996 470.5163 470.5836
   470.5836 470.7317 470.9583 470.9583 471.2143 471.4376 473.2758 473.2758
   474.4430 474.7485 475.2996 475.9668 476.3839 476.3839 476.7292 476.7292
   477.2876 477.2876 477.2952 477.5602 477.5765 477.6893 477.9149 477.9988
   477.9988 478.0455 478.5641 478.8743 479.1955 479.1955 480.8037 480.8037
   480.8684 481.7937 481.7937 481.9937 482.5527 482.7472 482.7472 483.1230
   483.1562 483.3610 483.5573 483.5573 483.6771 483.7270 484.9178 484.9396
   485.1550 485.1550 485.2484 485.8010 485.8010 486.6083 487.2122 487.2122
   487.5337 488.0771 488.0771 488.1804 488.5217 489.1832 489.2079 489.2088
   489.2088 489.6939 489.7234 489.9582 489.9582 489.9701 490.2142 490.4949
   490.4949 490.6991 491.3537 491.3537 491.4920 491.4992 491.7856 491.8531
   491.8531 492.0610 493.1199 493.1199 493.3193 493.3684 494.2304 494.2304
   494.3752 494.3752 494.5601 494.6566 494.9894 495.5084 495.7015 495.7673
   496.0627 496.0627 496.4293 496.4293 497.0150 497.3486 497.7694 497.7694
   497.9422 498.2979 498.7179 498.7255 498.7626 498.7626 499.4882 500.5374
   500.5374 500.6876 500.8432 500.8725 500.8725 501.0188 501.0188 501.1526
   501.5207 501.9237 501.9237 502.2052 502.4347 502.6115 502.9564 502.9564
   503.0478 503.0564 503.6357 503.7068 503.7157 503.7157 504.2549 504.2549
   504.6612 504.6659 504.6716 505.3617 505.3617 505.7252 507.0744 507.0744
   507.2534 507.2609 507.2759 511.5624 511.5624 511.5995 511.6578 511.8035
   511.8035 512.0157 512.5055 514.8712 515.2512 515.3017 515.3017 515.6644
   515.7407 516.0479 516.0479 516.8473 517.2500 517.2500 517.2526 517.4489
   517.4489 517.8004 518.1178 518.2246 518.2246 518.2460 518.3001 518.5186
   519.7831 519.7831 520.8765 520.8765 521.1507 521.8464 522.0814 522.2545
   522.2545 522.4439 522.9181 522.9507 522.9507 522.9840 523.0026 523.0026
   523.0197 523.1244 523.1930 523.7018 523.7018 523.7418 523.7418 523.8343
   523.8676 524.0183 524.1723 524.6051 524.8368 524.9220 524.9220 525.1034
   526.2081 526.2081 526.2252 526.9621 526.9621 527.6227 529.9795 530.2334
   530.2334 530.7620 530.7962 531.0597 531.3300 531.3300 532.1037 532.1642
   532.1642 532.5343 532.6507 532.6507 532.6661 532.8776 533.0494 533.2837
   533.2837 533.3362 534.4403 534.6817 535.0841 535.0841 535.1016 535.3552
   535.5797 535.5811 535.5811 535.7238 535.7238 535.8037 536.4212 536.5114
   536.5114 536.7017 536.8727 537.8407 538.0633 538.0633 538.4700 538.5545
   538.6629 538.6629 538.9344 539.7564 539.7797 539.7797 539.8235 539.8788
   540.2600 540.2600 540.3555 540.7560 541.0121 541.1078 541.1078 542.2252
   543.7887 543.7887 544.0373 544.6456 545.5176 545.7210 545.8664 545.8664
   545.8938 545.8938 545.9955 546.2473 547.2760 547.2760 547.2815 547.3160
   549.3366 550.1715 550.1715 550.3520 550.4766 550.4766 552.3232 552.3232
   552.5725 552.6904 552.9078 554.0991 554.2357 554.2357 557.4255 557.4864
   557.4864 557.7474 557.7662 557.7662 557.8724 558.2696 559.9213 559.9213
   560.2656 560.7091 561.2094 561.7833 561.7833 561.8151 562.3477 562.3499
   562.6445 562.6445 563.0231 563.2015 563.2015 564.6082 565.1083 565.6429
   565.6429 565.7307 566.2803 566.3422 566.3458 566.3458 566.4247 566.5905
   566.5905 566.7486 567.1299 568.4257 568.4257 569.0728 569.2139 569.2139
   569.2210 569.9113 570.2330 570.2671 570.2671 570.3719 570.3926 570.4002
   570.4016 570.4016 570.4517 570.5670 570.5670 571.2217 572.0317 573.4806
   573.4806 573.5829 573.8322 574.2480 574.2480 574.3177 574.3703 574.8812
   575.3740 575.3740 575.8372 575.8688 575.9767 575.9767 576.0688 577.9343
   578.4339 578.4339 578.9207 579.2452 579.7523 579.7962 579.7962 579.8590
   580.8113 580.8113 581.0286 581.1845 581.1845 581.1873 581.2386 581.3341
   581.3341 581.4610 581.7810 583.9047 585.1649 585.3103 585.3103 585.6159
   585.6159 585.8503 586.1305 586.1305 586.1317 586.1729 588.2804 588.2804
   588.4018 588.4135 588.9536 588.9715 588.9715 588.9788 589.4645 589.4927
   589.4944 589.4944 589.6392 590.2435 590.2555 590.3463 590.3463 592.5242
   592.5242 593.6439 593.6688 594.5637 595.8344 595.8344 596.1495 596.1877

          k =-0.1667 0.5000-0.1667 (  4452 PWs)   bands (ev):

   -17.4302  -7.0761  -2.4378  -2.4070  -2.3901   6.8555   7.4630   7.5771
    11.7938  13.8605  15.0015  15.0148  16.3622  16.9021  17.9000  18.3046
    18.5537  18.6225  18.7714  18.8093  18.8394  24.3290  25.3253  25.8501
    28.1784  28.3145  29.7446  30.4692  30.8103  32.4692  35.5722  36.6171
    38.5443  39.7969  40.2742  41.0231  41.9267  41.9805  42.8879  43.6924
    44.4880  46.0308  46.4342  46.8762  47.4359  49.0338  50.3116  50.6392
    50.9485  52.2927  53.7187  54.2481  55.2737  55.5303  55.8776  57.2689
    59.0699  59.4478  60.4593  61.5101  62.5486  63.4320  64.7599  66.1699
    66.4432  67.2369  67.8592  68.1353  69.0825  69.7360  71.1231  71.5018
    72.1529  73.9163  74.0462  74.4209  74.7103  74.9948  76.6788  77.1903
    77.5395  78.9282  80.0057  81.5853  82.0478  83.1777  83.6738  83.9493
    85.0963  85.6466  85.7652  86.2557  87.4131  89.1619  90.3521  91.3123
    91.3555  93.0317  93.5628  94.2623  94.4831  94.9996  95.2629  95.3930
    95.9666  96.5256  96.9039  97.0469  97.7257  98.8648  99.3053  99.3929
   101.4000 101.9028 102.5829 103.0748 103.3211 103.3258 103.5813 104.1261
   104.4575 104.9636 105.3950 106.7507 107.6027 108.1015 108.7949 109.1182
   109.9008 110.0725 110.8953 111.1486 111.2277 111.9791 112.5654 113.6465
   114.3238 114.5058 115.2752 115.2808 115.7211 115.8822 117.4693 118.1706
   118.3579 120.0266 120.1294 121.0117 122.5011 122.8518 123.1692 123.9385
   125.0716 126.1284 126.8464 127.2571 127.4776 127.9895 129.7218 129.9674
   131.6087 132.9623 133.2174 133.4662 133.9272 134.1354 134.3920 134.7970
   135.8496 136.4629 136.5537 136.5647 137.6845 137.8861 138.2384 138.4571
   139.7221 139.8127 140.5413 141.8241 142.2945 142.6530 143.2346 143.3378
   144.4428 144.8205 145.4253 145.5223 145.7311 146.8635 147.3234 147.5923
   147.6258 148.7692 148.9742 149.5159 149.9012 149.9766 151.5399 151.9627
   152.3724 152.5080 152.8292 153.9026 155.2090 155.2137 156.1021 156.7389
   157.3815 157.7307 158.0469 158.6153 158.8174 159.1338 159.7293 160.0214
   160.0906 160.7161 161.2584 161.4313 162.3531 162.7788 162.9429 163.1192
   163.7307 164.4017 165.9736 166.0398 166.7065 167.0968 167.9025 168.5804
   169.9690 170.0876 170.8828 171.0467 171.1407 171.3730 171.9816 173.5888
   174.1657 174.2115 174.3980 174.6643 174.8109 175.6132 175.8700 176.0871
   176.7088 177.2187 177.3862 177.9058 178.3402 179.0363 179.0741 179.9614
   180.2697 180.6347 181.6531 181.7576 181.8937 182.9037 183.1488 183.6832
   184.0088 185.0730 185.1902 185.8354 186.1129 186.6639 187.0239 187.4954
   187.9381 188.0159 188.2576 189.0001 189.2443 189.6336 189.7375 190.0752
   190.4940 190.5447 190.8161 190.9255 191.5752 192.4611 192.6020 193.0281
   193.3139 194.5530 194.7549 195.1520 195.5709 195.6627 195.9002 196.1452
   197.5321 198.6503 198.8963 199.4994 199.5948 200.7247 200.9314 201.1003
   201.7523 203.4770 204.0171 204.5874 204.6758 205.1830 206.2737 206.3155
   207.4362 208.4805 209.0179 209.0275 209.1750 209.7782 210.1426 210.7386
   211.4037 211.7155 211.9935 212.3405 212.5281 212.9299 213.5710 213.9035
   214.2011 214.6966 214.9299 215.1326 216.0915 216.7375 217.2414 217.6362
   217.8853 218.8778 219.2658 220.5870 220.6432 221.6240 222.8132 222.9578
   223.9164 224.0507 224.1937 224.5991 225.0059 226.4950 227.2593 227.7030
   228.4895 228.7394 228.9543 229.3117 229.4622 229.6727 230.0772 230.2973
   230.4588 231.0429 231.2770 231.4303 231.6596 231.9664 232.7356 233.4219
   234.0060 234.1332 234.4018 234.5518 235.0947 235.1630 236.1687 237.0848
   237.6765 237.8123 238.3097 238.8701 239.8280 240.0875 240.3535 240.9534
   241.1621 241.5349 241.6567 241.6967 241.9644 242.7411 243.0007 243.1719
   243.5862 244.5510 245.0006 245.1735 245.5550 245.9455 246.1095 246.6774
   246.8353 247.5697 247.6560 247.8904 248.2101 248.7817 249.1998 249.2593
   250.0234 250.2237 250.5843 251.2548 252.3585 252.6185 252.8505 253.5573
   253.6356 254.0115 254.2306 255.0615 255.1318 255.6278 255.9325 256.2736
   256.4756 257.0898 257.0978 257.3840 258.7888 258.9865 259.3565 259.3657
   259.7952 260.5996 260.6616 260.8744 261.0890 261.3531 261.4107 261.6321
   261.8485 261.8700 262.1004 262.4904 263.9586 264.0368 264.2075 264.4517
   264.8190 266.1263 266.1538 266.8934 267.5075 268.6700 268.7334 269.2997
   269.9585 270.2391 270.3341 271.0774 271.7668 271.8428 272.6512 272.9380
   273.2714 273.3704 274.1908 274.7108 275.3667 275.4490 276.1899 276.4241
   276.5111 276.8314 277.6636 277.8343 278.0776 278.4104 278.7441 279.2100
   279.7483 279.9521 280.1318 280.2203 280.7703 281.2301 281.5460 281.7054
   281.8901 282.6123 282.7156 283.3635 283.6679 283.8587 284.3465 284.3801
   284.7508 285.1736 285.6810 286.8170 287.1222 287.7250 288.2120 288.2558
   288.6014 288.8025 289.1727 289.9825 290.1536 290.3977 290.8396 291.4501
   291.5449 292.3975 292.4010 292.4943 292.7049 293.6903 293.7100 293.9191
   294.0483 294.6852 294.9950 295.1728 296.1117 296.3287 296.5828 297.9701
   298.1746 298.6637 299.0870 299.4648 299.6810 299.7735 300.1755 300.3168
   300.7102 301.1637 302.0174 302.5464 303.1267 303.3065 303.3473 304.0291
   304.2490 304.7296 305.1902 305.3805 306.2160 306.3124 306.5878 306.9469
   307.4158 307.7103 308.1028 308.1517 308.3305 309.6857 310.0431 310.4610
   310.6204 311.6213 312.1053 312.3997 312.6217 312.7013 312.8347 312.9914
   313.5567 314.0099 314.2252 314.2414 315.0077 315.5154 316.6166 316.8332
[...]
   454.7915 454.9721 454.9944 455.2152 455.5662 455.5678 455.8545 455.8663
   456.1649 456.3577 456.4894 456.6063 456.8296 457.3771 458.2964 458.9338
   459.2133 459.2856 459.5453 459.5871 459.8598 460.2224 460.4228 460.8117
   461.0476 461.3179 461.6941 461.9752 462.1490 462.3216 462.6280 462.7745
   463.0282 463.5565 463.6772 464.1012 465.2513 465.7850 465.8094 466.6642
   467.0214 467.0590 467.1826 467.5689 467.5759 467.9785 468.1603 468.4553
   468.4809 468.5584 468.5613 469.2352 469.2366 469.9102 470.1927 470.3889
   470.7268 470.9262 471.1255 471.4261 472.0166 473.3102 473.3735 473.4334
   473.5579 473.8247 474.0522 474.3440 474.3577 474.4840 474.5258 474.5851
   475.2250 475.2733 475.8668 475.9435 476.1835 476.4078 476.6930 476.7501
   476.7764 476.8862 477.3432 477.4852 479.2853 480.0030 480.3198 480.8926
   480.9872 481.4994 481.8544 481.9729 482.2749 482.6432 482.7879 482.9305
   483.0755 483.4997 483.9263 483.9308 484.6414 484.6440 485.2116 485.2921
   485.6755 485.7742 485.9171 486.0640 486.1513 486.4464 486.5122 486.7525
   486.9376 487.1853 487.4327 487.6275 487.7109 489.6629 490.0696 491.1168
   491.4026 491.7914 492.0452 492.5234 492.7441 492.9124 493.6454 493.9558
   494.2530 494.3298 494.7601 495.0186 495.2954 495.3590 495.7616 495.9184
   495.9221 496.2397 497.2915 497.3559 497.4473 497.4888 498.3666 498.7927
   498.9869 499.8608 500.5694 500.8165 501.0008 501.1567 501.2547 501.3781
   501.5971 501.6062 501.7735 501.9017 501.9281 501.9922 502.1062 502.1538
   502.5444 502.6741 503.1914 503.2216 503.7334 504.1625 504.1724 504.5930
   504.6679 505.1348 505.2414 505.8267 506.2930 506.2948 506.3888 507.7316
   508.0323 508.3282 508.9526 509.0293 509.1010 509.2083 510.2615 511.1845
   511.2263 511.4602 511.6273 511.6388 511.8484 512.1836 512.2496 512.6094
   513.3494 513.4558 513.8050 514.2911 514.5158 514.9886 514.9966 515.4525
   515.8388 516.0713 516.2060 516.4012 516.9587 517.3338 518.0180 518.4542
   518.6019 519.0710 519.0832 519.2377 519.5360 519.6483 519.6926 521.5437
   522.6017 522.6657 522.9340 522.9556 523.2338 523.3572 523.7124 523.9476
   524.2804 524.4542 524.5096 524.9051 525.1080 525.3868 525.6791 526.0440
   526.0867 526.1425 526.4299 527.3024 527.7906 528.6812 529.0289 530.0058
   530.1816 530.2108 530.6431 531.0792 531.1114 531.1841 531.1942 531.4245
   531.4532 531.5914 531.6471 531.7697 532.4667 532.8152 532.8848 533.8267
   534.0272 535.2153 535.2492 535.3148 535.4926 536.0566 536.4029 536.7865
   537.9657 538.0690 538.2476 538.2989 538.5441 538.7280 538.9221 539.0131
   539.1098 539.5171 539.6062 539.8278 539.9676 540.2394 540.9571 541.0175
   541.3290 541.3915 541.6407 541.8995 541.9717 542.7762 542.9419 543.3711
   543.4021 543.5372 543.9941 544.3251 544.4265 544.5705 544.7673 544.7736
   544.8676 545.4007 546.2322 546.2946 546.4738 546.5527 546.5666 547.5081
   547.5498 548.5364 548.7972 548.8595 549.1429 549.7064 549.9701 550.1570
   550.2622 550.8151 550.9780 551.0110 551.1937 551.2691 551.3832 551.7156
   551.8615 552.5310 552.8707 553.0239 553.0917 553.2236 553.3982 553.4452
   553.9763 554.1352 554.2651 554.3781 554.5349 555.2209 555.3020 555.3704
   555.4050 555.9869 555.9966 556.3961 557.1415 557.6765 557.7451 558.2447
   558.5717 559.0176 559.0368 559.5733 559.5907 559.8832 559.9347 560.7762
   560.9371 561.8194 562.3838 562.4234 563.0257 563.0469 563.0671 563.3018
   563.3540 563.4206 563.6228 563.6289 563.7673 563.8921 564.1071 564.1107
   564.4952 565.1503 565.3891 565.6857 565.8033 565.8647 566.2200 566.3057
   566.3497 566.7487 566.7489 566.9797 567.2210 567.5515 567.6142 567.7389
   568.2728 568.4875 569.1882 569.3723 569.4028 569.4688 569.6154 569.8999
   570.6842 570.7066 570.8405 570.9906 571.3784 571.4185 571.5375 571.6602
   571.7655 571.9623 572.3328 572.7344 572.9310 572.9375 573.1299 573.4423
   573.4949 573.6035 574.3557 575.5071 575.5460 575.9715 576.0673 576.1350
   576.1398 576.2419 576.9202 577.0705 577.1987 577.2628 577.4949 578.0521
   578.2637 578.4108 578.5348 578.8853 579.2482 579.3079 579.6138 580.3512
   581.0848 581.9468 582.3593 582.5944 582.7909 583.7364 584.0169 584.3906
   584.5831 584.7162 585.0531 585.1449 585.2999 585.6874 585.7354 586.0122
   586.4726 586.5674 586.7310 587.4651 587.6356 587.8744 588.3323 588.5572
   588.9285 589.3256 589.8264 590.1209 590.1252 590.6698 590.7416 590.7715
   590.8861 591.0872 591.1805 591.8026 591.9128 592.0357 592.0888 592.1513

          k =-0.3333-1.0000 0.0000 (  4428 PWs)   bands (ev):

   -17.3002  -7.0020  -3.3605  -2.9421  -2.3601   7.2058   7.9764   8.1004
    11.5234  14.2110  14.8358  17.3509  17.6078  17.8198  17.8860  18.1058
    18.4674  18.6879  18.7305  18.8289  21.2265  21.4413  23.4503  24.9159
    27.8040  28.2167  28.4999  31.6522  33.3177  33.5523  34.2457  34.7819
    35.5006  35.9762  37.1581  38.8354  39.7372  41.0358  41.4438  43.2615
    43.2702  46.6755  48.3085  48.7959  50.5906  50.6472  51.6490  52.1497
    53.6796  54.7586  55.5332  55.5772  58.0347  58.2596  58.5345  59.4712
    60.0417  60.4405  60.6772  60.8384  62.2314  63.5931  65.6738  66.3294
    66.7264  66.9551  68.4143  69.1280  69.6921  70.6872  71.2930  71.3304
    72.7088  73.0422  73.7626  73.7698  73.9087  74.8623  75.0283  75.9342
    76.9569  77.6876  78.4793  80.3807  81.1533  81.7869  82.5400  83.8831
    83.9654  84.5367  85.1059  85.7404  85.7830  86.5324  87.7687  88.1158
    88.2792  88.3843  88.4912  91.2313  91.3552  91.9174  92.3480  93.0131
    93.6349  94.2043  94.5383  94.6483  95.8402  96.5285  96.9908  98.0408
    98.0653 101.6492 102.6780 104.1103 105.8286 106.0003 106.5229 106.7339
   107.9212 109.1143 109.8724 109.9926 110.9979 111.0387 111.6999 113.0057
   113.2156 114.0927 114.5242 114.9613 115.4889 115.5161 115.8233 116.1987
   117.3862 117.9973 118.7949 119.2638 119.5214 120.2930 120.6949 120.9473
   120.9905 123.6237 123.6523 124.2499 124.7108 125.5231 125.6363 126.0927
   126.4445 126.6426 126.9660 126.9820 127.7190 128.8537 129.1766 129.3612
   129.5818 130.8306 130.8876 131.4013 131.8949 131.9068 132.2243 132.2383
   132.3809 133.8882 134.3167 134.7937 134.8863 136.7707 137.1439 137.5256
   137.7508 138.2448 138.9354 139.1152 140.2104 140.6595 141.2188 142.7461
   143.1173 143.2671 143.4150 144.4132 144.5746 145.6357 145.7851 146.0965
   146.6541 146.6615 147.2084 148.2301 148.6405 148.9273 149.1043 149.1172
   149.5554 150.0561 150.1412 150.5222 151.0706 151.2267 151.3630 152.4715
   152.8422 152.8814 153.0054 155.8266 158.8770 159.3369 160.4542 160.6267
   160.9935 161.7568 162.1397 162.3669 162.3911 162.8445 163.2487 163.2642
   163.9139 163.9948 165.1025 165.1753 166.0677 168.2730 168.5991 169.6684
   169.9413 170.1596 170.7083 170.8184 170.9664 171.6566 171.7623 172.5597
   172.6462 172.8201 173.0976 175.0232 175.1459 175.8204 175.8950 176.3187
   177.1616 178.1918 178.5011 178.5267 179.2964 179.4763 180.0813 180.4929
   180.7720 181.3631 182.3535 182.4763 183.8244 184.2786 184.4615 185.0551
   185.5876 185.6471 186.5387 187.0808 187.3853 187.6662 187.6866 187.7200
   189.3999 189.9173 189.9563 190.7860 190.9367 191.6852 191.9628 192.4158
   192.8055 194.4277 194.9025 195.3411 195.6721 195.8371 196.5722 197.2590
   197.4452 197.6723 197.9533 199.3897 199.5252 200.3261 200.5687 200.5743
   200.6708 201.8664 202.2323 202.4180 202.8502 203.4643 203.8689 203.8734
   204.4362 205.1230 205.8070 206.7486 206.8714 207.8011 207.8402 207.9947
   208.1713 208.3016 208.7227 209.2543 209.4150 210.0170 210.1299 211.6310
   211.8623 212.2533 212.4349 212.8331 213.2124 213.3650 213.4627 213.7972
   214.4798 214.9482 215.3112 216.2888 216.4015 217.0769 217.2766 217.6708
   217.6833 217.7777 218.0062 218.4169 218.7080 218.9200 218.9510 220.1733
   220.7995 221.3636 222.1670 223.1733 223.2141 223.8215 223.8435 224.0883
   224.2023 224.4311 225.6392 225.6987 225.7966 225.9112 226.0930 226.8043
   227.4795 227.5200 227.7027 228.2608 229.5187 229.6089 229.6299 229.9880
   230.1265 230.2308 231.0909 231.5985 232.6176 233.1087 233.2057 233.3591
   233.3872 234.3386 235.5842 235.9184 236.6751 237.9901 238.3934 238.5910
   238.9911 239.4614 239.7709 239.9598 240.7909 240.8365 241.1298 241.2587
   241.9044 243.4122 243.7113 244.0146 244.2148 244.8079 245.2941 245.3947
   245.5879 246.9243 247.0310 247.1061 247.9350 248.1308 249.0432 249.1975
   249.2633 249.6171 249.6712 250.3826 251.1043 251.1478 251.3530 251.9720
   252.2059 252.7271 253.2753 253.9771 254.1098 255.0460 255.4258 255.6772
   255.9751 256.6766 257.8029 258.0205 258.2829 258.7210 259.6456 259.6585
   260.2092 260.5973 261.9118 261.9136 262.0761 262.6923 263.3263 264.3967
   264.4566 264.8702 265.0552 265.3300 265.5370 265.7012 265.8824 266.1319
   266.2937 266.7832 266.8494 266.9137 267.1412 268.5298 268.6107 269.6449
   270.0789 270.6637 271.2628 271.9072 272.9684 273.2362 273.4714 273.6476
   273.6878 274.4540 274.5504 275.6002 275.8714 276.0007 276.1829 276.8159
   277.0407 277.0915 277.5184 277.6651 277.7601 278.1428 278.2229 278.6824
   279.6407 279.6743 280.1410 280.9763 281.3106 281.4326 282.0550 283.0265
   283.1292 283.2510 284.1385 284.9527 285.0899 285.4673 285.6021 285.8565
   285.8777 286.8099 287.4550 287.8701 289.4311 289.7285 290.3708 290.4308
   290.9334 291.2125 291.4576 291.7006 292.6705 293.0065 294.2232 294.4932
   294.8946 295.1077 295.5123 296.2970 296.9984 296.9986 297.0114 297.5273
   297.5952 297.8213 297.9384 298.1176 298.6613 299.0013 299.1383 299.3273
   299.6516 299.7283 300.2758 301.7203 301.9088 303.1638 303.3963 303.6596
   304.2709 305.0505 305.0844 305.2241 305.4619 306.3663 306.8478 307.2604
   307.4574 307.5288 307.7571 308.1908 308.4985 308.5422 308.8499 309.6196
   309.8860 310.0505 310.2848 310.3320 310.7518 311.0641 311.7019 312.2812
   312.8940 313.0904 313.4260 313.6597 313.6816 313.6989 314.2237 314.5117
   314.6635 314.8854 315.0802 315.1666 315.4183 315.6530 316.8002 317.4595
   317.5816 318.0422 318.5907 318.6044 318.6141 318.8429 318.8683 319.5334
   319.8827 320.2508 320.4851 320.6053 320.7196 320.9748 321.0518 321.1020
   321.4315 321.6176 322.4156 322.4605 322.6273 323.4295 324.3463 324.9120
   325.7628 325.7734 325.7979 326.3017 326.6488 327.0264 327.0844 327.1313
   327.4345 327.5812 328.1261 328.3425 329.0335 329.0528 329.2362 329.3089
   329.9322 330.2214 330.3897 330.5874 331.2055 331.2746 331.9623 332.4323
   332.6706 332.9328 333.0877 333.1346 334.1590 334.2783 336.6758 336.6972
   337.7460 338.1224 338.5305 339.2425 339.4849 339.6539 340.3324 340.6733
   340.9727 341.0828 341.1170 341.5440 341.9572 341.9995 342.2181 342.2609
   342.3720 342.4536 342.8158 342.8467 343.8627 344.2441 344.5879 344.6134
   344.7421 344.8475 345.2758 345.6864 345.7494 346.5472 346.7311 346.7558
   347.1164 347.8891 348.0671 348.3026 348.3527 348.6950 349.1338 349.2742
   350.0038 350.0096 350.8831 351.1754 351.2115 351.6628 352.0552 353.2567
   354.0406 354.2440 354.4855 354.7985 355.0735 355.5040 355.5696 355.8521
   356.2907 356.8063 357.0644 357.5699 357.9011 357.9861 358.0462 358.7184
   359.0064 359.7399 359.9925 360.1039 360.1825 360.3348 361.0700 361.4107
   361.9229 362.2713 362.9423 365.0068 365.5708 365.7000 366.0069 366.6481
   366.7974 367.1615 367.2052 367.4211 367.5547 367.7231 368.3620 368.4197
   368.8548 369.5868 369.6487 369.9039 370.2157 370.6776 371.0714 371.8987
   371.9361 372.2697 372.8847 373.4373 373.4852 373.7162 374.1603 374.2836
   374.4449 374.6282 375.1460 375.2457 375.7592 376.4449 376.9413 377.0960
   377.3615 378.5358 378.6628 378.6766 378.8920 380.4630 380.7134 380.9627
   382.3069 383.0917 383.6571 384.5707 385.0623 385.2441 386.0259 386.3572
   386.3587 386.4902 386.9384 387.0146 387.0501 387.7567 388.4166 388.6606
   389.2600 389.6467 389.6773 391.6168 391.9687 392.0161 392.7937 392.8179
   393.0305 393.3779 393.5271 393.6408 394.4078 394.4084 394.4426 394.5445
   394.9489 395.0156 395.3481 395.4863 396.0497 396.1356 396.1531 396.4252
   396.6867 397.0165 397.2772 397.4200 397.7325 398.0375 398.3316 398.8264
   399.0250 399.0451 399.7386 400.2633 401.7090 402.0367 402.0485 402.9483
   402.9562 403.3041 403.3443 403.4450 403.6136 403.7985 404.1582 404.2508
   404.7107 404.9246 405.0928 405.3893 405.4432 405.6354 406.1353 406.4669
   406.5915 406.6151 407.1491 407.1526 407.3204 407.5060 407.7368 407.7803
   407.8925 408.0208 408.1104 408.1545 409.3418 409.5405 409.5434 409.6590
   411.2295 411.6135 411.6404 412.5666 412.7794 413.1859 413.2697 413.3953
   414.0883 414.2578 415.5562 415.6600 415.8730 416.1103 416.1240 416.2244
   416.7293 417.1138 417.1464 417.2035 417.5046 417.5854 418.0713 418.4291
   418.4689 418.9947 419.0534 419.1211 419.3413 419.3940 419.5064 419.6278
   419.6899 419.7846 419.9907 420.1082 420.1904 420.3571 420.6462 420.7182
   420.8176 421.2683 422.6529 423.0640 423.5521 423.8109 424.2296 424.6438
   425.1773 425.4281 425.8113 425.8164 427.0247 427.4543 427.7858 427.9176
   428.4424 429.3484 429.5950 429.7454 430.2680 430.4639 431.1018 432.1556
   432.2885 432.4968 432.8804 433.2881 433.5149 433.6569 433.8976 434.3427
   434.7470 434.8427 435.0596 435.3903 435.4758 435.8443 436.2532 436.2722
   436.4417 436.8116 436.9014 436.9460 436.9694 437.0374 437.1704 437.2481
   437.9497 438.4156 438.8877 439.4877 439.4964 439.7170 441.1093 441.2641
   441.3058 441.4545 442.0962 442.1964 442.6936 442.7494 442.8154 443.1542
   443.5015 443.9212 444.0598 444.1897 444.4958 444.5170 444.7336 444.8984
   445.1736 445.1823 446.4254 447.2608 447.7257 447.8177 447.9102 448.2596
   448.2668 449.4088 449.5030 449.7278 449.9263 450.0727 450.4186 450.4472
   450.7004 450.7185 450.7577 451.0183 451.7878 451.7976 452.1455 453.7014
   454.1957 454.6115 454.9218 454.9285 455.5316 456.2414 456.4406 456.7341
   457.1417 457.1812 457.1866 457.8471 458.1213 458.2057 458.5851 458.7040
   458.8500 458.8744 458.9395 459.8240 459.9667 460.1745 460.2509 460.4259
   461.2978 461.6406 461.6616 462.1191 462.2170 462.5774 462.6625 462.7380
   462.7822 463.2543 463.8870 463.9861 464.8654 465.1929 465.4673 465.6672
   466.6048 466.6424 467.6387 467.7530 468.0986 468.5356 468.9639 470.0144
   470.1071 470.2030 470.2385 470.3341 470.6967 471.1907 471.2044 471.3609
   471.3744 471.4743 472.4201 472.9186 473.1086 473.1775 473.4733 473.6417
   473.7919 473.9995 474.1002 474.4281 474.4316 474.4825 474.5086 474.6169
   474.7009 474.9236 475.4569 475.8022 476.0888 476.2573 476.5107 476.7169
   477.8855 478.4924 478.5209 478.5969 478.7725 478.8279 478.8905 479.0049
   479.6357 480.0126 480.2621 480.3112 480.3885 480.7459 480.8296 481.0648
   481.5350 483.0274 484.4418 484.5665 484.6559 484.6883 485.5111 485.9218
   486.3832 486.7251 486.9803 487.0604 487.2323 487.3763 487.3889 487.5861
   488.0948 488.1801 488.3817 488.8794 489.1730 489.1895 489.4694 490.0068
   491.1691 491.7261 491.8641 492.4419 493.0624 493.2277 493.3572 493.7352
   494.4453 495.1549 495.2524 495.4723 495.6121 495.7187 496.4870 496.5014
   496.7799 497.4350 497.5605 497.6254 497.6680 497.6851 498.1304 498.1405
   498.9240 499.0601 499.1809 499.2602 500.2213 500.5478 500.6333 500.7992
   501.0803 501.3520 502.1649 502.2840 502.4991 502.5182 502.6498 502.6603
   502.6882 502.7090 502.7273 502.8403 502.8770 503.0924 503.2270 503.4407
   503.5386 503.7834 504.4774 504.6696 504.9859 507.7826 508.5591 508.9248
   509.1374 509.7122 509.9735 510.1714 510.4888 510.5097 510.5197 510.5895
   510.6135 510.6457 511.4454 511.8480 512.0248 512.1207 512.1260 512.2137
   512.4203 512.5602 512.9704 513.0363 513.1078 515.1816 515.3421 516.2192
   517.3771 517.4027 517.7650 518.1623 518.2822 518.6281 518.8100 519.0574
   519.0956 519.3098 519.7155 519.8105 520.2504 521.0302 521.6522 521.7872
   522.0243 522.4917 522.7620 522.7818 523.6482 523.6653 523.7798 524.1097
   524.2051 524.3274 524.7474 525.0930 525.2842 525.5089 525.6875 525.8793
   526.3032 526.3981 527.4360 527.6644 527.9146 528.1129 528.4908 528.8012
   529.0761 530.0484 530.1008 530.7197 530.7693 530.9487 531.4338 531.7382
   531.7419 531.7832 532.2486 532.4155 532.8802 532.9165 533.7385 533.7666
   534.0768 534.2565 534.2679 534.3526 534.5820 535.1745 535.3487 535.4671
   535.6131 535.6215 536.4627 536.9700 537.4760 538.0845 538.1572 538.2888
   538.4183 538.5254 538.9015 538.9907 538.9990 539.5326 539.8652 539.9698
   540.7858 541.2011 541.2140 541.7606 541.9307 541.9310 542.0041 542.2275
   542.3777 542.4849 543.6365 544.1283 544.3026 544.3279 544.9459 547.0357
   547.4702 547.4820 547.4828 547.8751 547.9107 547.9389 548.0370 548.3296
   548.3357 548.4401 548.5128 548.8654 549.0155 549.4263 549.4624 550.6414
   550.8237 551.2372 551.7164 551.7996 551.8551 551.9197 552.2372 552.2510
   552.9055 553.2621 553.5812 553.6068 553.7332 553.7528 553.9167 553.9885
   554.3757 554.5576 554.6792 554.6982 555.2299 555.7295 555.8494 555.8587
   556.2860 556.8656 556.8918 556.9296 557.1350 557.3380 557.7060 557.8940
   558.4183 558.4994 558.6141 558.7209 558.7736 558.9536 560.2992 560.4062
   560.6636 560.8468 561.4128 561.5534 562.0797 562.6644 562.8317 563.1006
   563.4975 563.8543 564.0776 564.1624 564.2867 564.3244 564.7328 565.4417
   565.4528 565.6645 565.8782 566.2073 566.3671 566.6355 566.7477 566.8109
   566.8872 566.9978 567.1427 567.1902 567.6679 567.7902 568.0976 568.4881
   568.7039 568.7918 568.8315 569.0786 569.5463 570.8926 570.9069 571.3938
   571.4790 571.4806 571.5693 571.8100 571.9487 572.0391 572.0438 572.0476
   572.1371 572.5409 572.7095 572.7278 572.8571 573.0291 573.0386 573.4942
   574.1613 574.2291 574.3813 574.4031 574.4119 574.5348 574.6443 575.0137
   575.1271 575.4331 576.8215 576.8957 576.9277 577.1307 577.2245 577.9316
   577.9356 578.1102 578.7972 578.8436 580.1837 580.4793 580.5270 580.6370
   581.5807 582.0962 584.2839 584.9719 585.1156 585.1348 585.2835 585.3436
   585.4563 585.4780 585.4865 585.5384 585.9736 586.0355 586.2511 586.3653
   586.8733 587.0877 587.1020 587.2642 587.5812 587.7863 587.8620 588.1326
   588.8082 589.3510 590.4305 591.1020 591.6682 592.1951 592.3632 592.4640
   592.6140 593.0638 593.1238 593.1273 593.2012 593.3030 593.4512 593.4731

     the Fermi energy is     8.7880 ev
     (compare with:     8.7880 eV, computed in scf)

     Writing all to output data dir out/mp-1342.save/
 
     init_run     :      0.03s CPU      0.05s WALL (       1 calls)
     electrons    :   1251.40s CPU   1347.65s WALL (       1 calls)

     Called by init_run:
     wfcinit      :      0.00s CPU      0.00s WALL (       1 calls)
     potinit      :      0.01s CPU      0.01s WALL (       1 calls)
     hinit0       :      0.01s CPU      0.03s WALL (       1 calls)

     Called by electrons:
     c_bands      :   1251.39s CPU   1347.62s WALL (       1 calls)
     v_of_rho     :      0.00s CPU      0.00s WALL (       1 calls)

     Called by c_bands:
     init_us_2    :      0.00s CPU      0.00s WALL (      16 calls)
     init_us_2:cp :      0.00s CPU      0.00s WALL (      16 calls)
     cegterg      :   1224.43s CPU   1318.68s WALL (      16 calls)

     Called by *egterg:
     cdiaghg      :   1147.29s CPU   1237.89s WALL (     180 calls)
     h_psi        :     21.45s CPU     22.46s WALL (     196 calls)
     g_psi        :      0.12s CPU      0.12s WALL (     164 calls)

     Called by h_psi:
     h_psi:calbec :      0.45s CPU      0.46s WALL (     196 calls)
     vloc_psi     :     20.41s CPU     21.38s WALL (     196 calls)
     add_vuspsi   :      0.33s CPU      0.33s WALL (     196 calls)

     General routines
     calbec       :      0.44s CPU      0.46s WALL (     196 calls)
     fft          :      0.00s CPU      0.02s WALL (      10 calls)
     fftw         :     19.06s CPU     19.98s WALL (  283704 calls)
 
     Parallel routines
 
     PWSCF        :  20m54.59s CPU  22m32.28s WALL

 
   This run was terminated on:  22:19: 2  17Nov2023            

=------------------------------------------------------------------------------=
   JOB DONE.
=------------------------------------------------------------------------------=
