
     Program PWSCF v.7.1 starts on 17Nov2023 at 16:12:57 

     This program is part of the open-source Quantum ESPRESSO suite
     for quantum simulation of materials; please cite
         "P. Giannozzi et al., J. Phys.:Condens. Matter 21 395502 (2009);
         "P. Giannozzi et al., J. Phys.:Condens. Matter 29 465901 (2017);
         "P. Giannozzi et al., J. Chem. Phys. 152 154105 (2020);
          URL http://www.quantum-espresso.org", 
     in publications or presentations arising from this work. More details at
     http://www.quantum-espresso.org/quote

     Parallel version (MPI), running on     8 processors

     MPI processes distributed on     1 nodes
     121976 MiB available memory on the printing compute node when the environment starts
 
     Reading input from pw_mp-1342_nscf_k10_E93.in
Warning: card &IONS ignored
Warning: card / ignored
Warning: card &CELL ignored
Warning: card / ignored

     Current dimensions of program PWSCF are:
     Max number of different atomic species (ntypx) = 10
     Max number of k-points (npk) =  40000
     Max angular momentum in pseudopotentials (lmaxx) =  4

     Atomic positions and unit cell read from directory:
     out/mp-1342.save/
     Atomic positions from file used, from input discarded
 
 
     R & G space division:  proc/nbgrp/npool/nimage =       8
     Subspace diagonalization in iterative solution of the eigenvalue problem:
     one sub-group per band group will be used
     scalapack distributed-memory algorithm (size of sub-group:  2*  2 procs)

 
     Parallelization info
     --------------------
     sticks:   dense  smooth     PW     G-vecs:    dense   smooth      PW
     Min         177     177     49                 4453     4453     650
     Max         178     178     50                 4457     4457     652
     Sum        1417    1417    397                35629    35629    5209
 
     Using Slab Decomposition
 


     bravais-lattice index     =            2
     lattice parameter (alat)  =      10.5462  a.u.
     unit-cell volume          =     293.2392 (a.u.)^3
     number of atoms/cell      =            2
     number of atomic types    =            2
     number of electrons       =        16.00
     number of Kohn-Sham states=         2200
     kinetic-energy cutoff     =      93.0000  Ry
     charge density cutoff     =     372.0000  Ry
     Exchange-correlation= PBE
                           (   1   4   3   4   0   0   0)

     celldm(1)=  10.546151  celldm(2)=   0.000000  celldm(3)=   0.000000
     celldm(4)=   0.000000  celldm(5)=   0.000000  celldm(6)=   0.000000

     crystal axes: (cart. coord. in units of alat)
               a(1) = (  -0.500000   0.000000   0.500000 )  
               a(2) = (   0.000000   0.500000   0.500000 )  
               a(3) = (  -0.500000   0.500000   0.000000 )  

     reciprocal axes: (cart. coord. in units 2 pi/alat)
               b(1) = ( -1.000000 -1.000000  1.000000 )  
               b(2) = (  1.000000  1.000000  1.000000 )  
               b(3) = ( -1.000000  1.000000 -1.000000 )  


     PseudoPot. # 1 for Ba read from file:
     /usr/scratch4/magr4985/MG/HTDF/pseudo/SG15/Ba.upf
     MD5 check sum: ac4691792522964bb0504809e83fae44
     Pseudo is Norm-conserving, Zval = 10.0
     Generated using ONCVPSP code by D. R. Hamann
     Using radial grid of  602 points,  8 beta functions with: 
                l(1) =   0
                l(2) =   0
                l(3) =   1
                l(4) =   1
                l(5) =   2
                l(6) =   2
                l(7) =   3
                l(8) =   3

     PseudoPot. # 2 for O  read from file:
     /usr/scratch4/magr4985/MG/HTDF/pseudo/SG15/O.upf
     MD5 check sum: e36c48deb68f4e355fffe4602be2c42c
     Pseudo is Norm-conserving, Zval =  6.0
     Generated using ONCVPSP code by D. R. Hamann
     Using radial grid of  602 points,  4 beta functions with: 
                l(1) =   0
                l(2) =   0
                l(3) =   1
                l(4) =   1

     atomic species   valence    mass     pseudopotential
        Ba            10.00   137.32700     Ba( 1.00)
        O              6.00    15.99940     O ( 1.00)

     48 Sym. Ops., with inversion, found



   Cartesian axes

     site n.     atom                  positions (alat units)
         1           Ba  tau(   1) = (   0.0000000   0.0000000   0.0000000  )
         2           O   tau(   2) = (  -0.5000000   0.5000000   0.5000000  )

     number of k points=     3  Gaussian smearing, width (Ry)=  0.0005
                       cart. coord. in units 2pi/alat
        k(    1) = (   0.0000000   0.0000000   0.0000000), wk =   0.2500000
        k(    2) = (   0.5000000  -0.5000000   0.5000000), wk =   1.0000000
        k(    3) = (   0.0000000  -1.0000000   0.0000000), wk =   0.7500000

     Dense  grid:    35629 G-vectors     FFT dimensions: (  45,  45,  45)

     Estimated max dynamical RAM per process >     231.92 MB

     Estimated total dynamical RAM >       1.81 GB

     The potential is recalculated from file :
     out/mp-1342.save/charge-density

     Starting wfcs are random

     Band Structure Calculation
     ParO style diagonalization

     ethr =  5.00E-06,  avg # of iterations =  5.6

     total cpu time spent up to now is     1674.4 secs

     End of band structure calculation

          k = 0.0000 0.0000 0.0000 (  4477 PWs)   bands (ev):

   -17.5998  -6.7078  -2.1665  -2.1665  -2.1665   7.8294   7.8294   7.8294
    11.7228  12.9735  12.9735  12.9735  15.1826  15.1826  15.7427  18.6302
    18.6302  18.6302  18.8537  18.8537  18.8537  22.7614  29.2629  29.2629
    29.2629  31.6128  31.6128  31.6128  34.5782  34.5782  34.5782  35.1072
    35.6742  35.6742  40.3162  40.3162  40.3162  43.3253  43.3253  47.4262
    48.2057  48.2057  48.2057  51.4128  51.4128  51.4128  52.5671  52.5671
    52.5671  53.2334  53.2334  53.2334  53.5619  53.5619  53.5619  53.5754
    54.6534  54.6534  54.6534  56.1480  56.1480  57.7598  57.7598  57.7598
    58.9878  59.0849  66.2035  66.2035  66.2035  70.5826  70.5826  72.4144
    80.4547  80.4547  80.4547  81.6941  81.6941  82.8685  82.8685  82.8685
    86.4038  86.4038  86.4038  87.3550  87.3550  87.3550  88.6692  88.6692
    88.6692  90.3173  90.3173  90.3173  90.6348  90.6763  92.1923  92.1923
    92.2085  92.2085  92.2085  92.3914  92.3914  92.3958  92.3958  92.3958
    93.4170  93.4170  93.4170  93.9074  93.9074  93.9074  93.9531  93.9531
    93.9531  96.2698  96.2698  96.5881  96.5908  96.5908  96.5908 101.3496
   106.3452 106.3452 106.3452 109.3509 109.3509 109.3509 112.1330 112.5510
   112.5510 113.1485 113.1485 113.1485 113.2440 113.3009 113.3009 113.3009
   114.4009 114.4009 114.4009 114.4370 114.4370 114.8304 114.8304 114.8304
   116.5573 116.5573 118.8517 118.8517 118.8517 124.0610 125.9190 125.9190
   125.9190 126.7267 126.7267 126.7267 127.2444 127.2444 127.2444 127.5258
   127.5258 127.5258 127.7791 127.7791 127.7791 127.9954 127.9954 127.9954
   128.8056 129.4529 132.8386 132.8594 132.8594 132.8594 132.9099 132.9099
   142.7896 142.7896 142.7896 144.9382 144.9382 145.3980 147.2543 147.2543
   147.2543 149.3015 149.3015 149.3015 151.0902 151.0902 151.0902 157.2576
   157.2576 157.5494 157.5494 157.5494 159.7131 159.9359 159.9359 159.9359
   162.1083 162.1083 162.1083 162.1847 162.1847 162.3387 162.3387 162.3387
   162.4514 162.4514 162.4514 162.8921 162.8921 162.8921 163.1674 163.3560
   163.3560 164.8881 164.8881 164.8881 165.1197 165.1830 165.1830 165.1830
   165.3582 165.3582 165.9929 165.9929 165.9929 167.6568 167.6568 167.6568
   168.3405 169.1013 169.1013 169.2655 169.2655 169.2655 169.9090 169.9090
   169.9090 170.2187 170.6304 170.6304 170.6304 171.2341 172.0741 172.2845
   172.2845 172.3344 172.3344 172.3344 173.3421 173.3421 173.3421 173.6601
   173.6601 173.6601 173.9290 173.9290 173.9290 174.4484 174.4484 174.4484
   174.4788 174.4788 182.3107 182.3107 182.3107 185.4787 185.4787 185.6186
   185.6186 185.6186 186.5923 186.5923 186.5923 187.4144 189.3891 189.3891
   189.3891 189.4091 189.4091 189.4091 191.9305 191.9305 192.2020 192.2490
   192.2490 192.2490 195.6337 195.6337 195.6337 197.9333 197.9333 197.9333
   199.0509 202.4397 202.4397 202.6149 202.6149 202.6149 203.1209 203.1209
   203.1209 203.5756 203.5756 204.6846 204.6846 204.6846 205.7072 205.9764
   205.9764 205.9764 207.5586 207.5586 207.5586 208.0798 208.0798 208.0798
   210.0665 210.0665 210.0665 210.0800 210.0800 210.2043 210.2043 210.4753
   210.4753 210.4753 210.5726 210.5726 210.5726 210.6988 210.6988 210.6988
   211.2741 211.7716 222.6198 222.6198 222.6198 223.7433 223.7433 225.9060
   225.9060 225.9060 226.4817 226.4817 226.4817 227.3276 229.2186 229.2186
   229.4217 229.4217 229.4217 230.3429 231.0836 231.2338 232.2548 232.2548
   232.2548 240.3209 240.3209 240.3209 240.7645 240.7645 240.7645 240.9247
   240.9247 240.9247 241.7415 241.7415 241.7415 243.0743 243.0743 243.0743
   243.2816 243.2816 243.2816 244.0337 244.0337 244.0337 244.1373 244.1373
   244.1794 244.1794 244.1794 244.5568 244.5568 244.5568 244.5648 244.5648
   244.5648 244.7821 244.7821 245.9211 245.9974 245.9974 246.0279 246.0279
   246.0279 246.0969 246.0969 246.0969 248.1279 248.4687 248.4687 248.4723
   248.4723 248.4723 249.0784 251.3642 251.9925 251.9925 251.9925 253.4221
   253.4221 253.4221 260.0834 260.0834 260.0834 260.3306 260.3306 260.3306
   262.6613 262.6613 262.7743 262.9178 262.9178 262.9178 263.1263 263.1263
   263.1263 263.6351 263.6351 264.9546 264.9546 264.9546 265.8538 265.8538
   265.8538 267.0079 267.0079 267.2022 267.2022 267.2022 267.2599 267.2599
   267.2599 267.2842 267.2842 267.2842 267.4850 267.4850 268.7375 268.7375
   268.7375 268.7584 268.8423 268.9715 268.9715 268.9715 269.2228 270.0418
   270.0418 270.0418 270.1016 270.1016 270.1016 271.2704 271.2704 271.2704
   271.5887 271.5887 275.5351 275.5351 275.5351 276.1861 276.2681 276.2681
   276.2681 276.5248 276.5248 276.5248 277.6671 277.6671 278.0464 278.0464
   278.0464 278.5145 281.8681 282.3644 282.3644 282.3644 282.4428 282.4428
   282.4682 282.4682 282.4682 282.5601 282.7404 282.7404 282.8045 282.8045
   282.8045 283.0359 283.0359 283.0359 283.2446 283.2446 283.2446 283.4557
   283.4557 284.0625 284.0625 284.0625 285.2294 285.2294 285.2294 285.2945
   285.2945 285.2945 285.3056 285.3056 285.3056 285.3857 285.3857 285.3857
   286.6375 286.6375 286.6836 286.6836 286.6836 286.7555 294.0665 294.0665
   294.0665 294.4175 294.4175 295.1301 300.5027 303.0061 303.0061 303.0061
   312.0314 312.0314 312.0314 315.6667 315.6667 315.6667 316.2532 316.9599
   316.9599 317.0036 317.0036 317.0036 317.0508 317.0508 317.0508 317.1086
   317.1086 317.2026 317.2026 317.2026 318.3731 318.3731 318.3731 318.9587
   318.9587 318.9810 318.9810 318.9810 319.0286 319.0286 319.0286 319.4660
   320.4453 320.7934 320.7934 320.7934 320.9681 320.9681 320.9681 321.1450
   321.1450 321.1450 323.6129 323.6129 323.6129 326.3565 326.3565 326.4704
   326.4704 326.4704 326.6415 326.6415 326.6415 326.7141 326.7141 326.7141
   326.7165 326.7165 326.7165 326.7758 326.7758 326.8907 326.8907 326.9696
   327.1143 327.1143 327.1143 327.1153 333.7400 333.7400 333.7400 334.5967
   334.5967 334.7586 334.7586 334.7586 335.1376 338.3630 338.3630 338.3630
   339.0752 340.8121 340.8121 340.8121 342.9138 342.9138 342.9138 343.0430
   343.0430 343.3930 343.3930 343.3930 343.4625 343.4625 343.4625 343.8337
   343.9278 343.9278 343.9278 344.0618 344.0618 345.9377 347.2469 347.2469
   347.2469 347.6615 347.6615 347.6615 348.0610 348.0610 348.0610 349.7829
   349.7829 349.7829 350.4293 350.4293 353.4296 353.4296 353.4296 353.5629
   353.5931 353.5931 353.5990 353.5990 353.5990 354.5210 354.5210 354.5210
   354.8992 354.8992 354.8992 355.0705 355.0705 355.0784 355.0784 355.0784
   355.6627 356.6976 356.6976 356.6976 356.7527 356.8251 356.8251 356.8251
   357.6584 359.4259 359.4259 359.4259 361.2210 361.2210 361.2210 362.3449
   362.3449 362.3449 362.3998 362.3998 362.4018 362.4018 362.4018 362.4595
   362.4595 362.4595 362.4882 362.5508 362.5508 362.5508 362.6527 362.6527
   364.7839 365.5947 365.5947 365.5947 365.7214 365.7214 365.7214 366.0310
   366.0310 366.0334 366.0334 366.0334 366.2617 368.6614 368.6614 368.6614
   373.7594 373.7594 373.7594 374.5919 374.5919 374.5919 375.7260 375.7260
   377.7278 378.6536 378.6536 378.6536 379.2712 379.2712 379.2712 379.5575
   379.5575 379.6777 379.6777 379.6777 379.9781 380.0376 380.0376 380.0376
   380.2741 380.7289 380.7289 385.6345 386.7472 386.7472 386.7472 387.1866
   387.1866 387.1866 389.8500 389.8500 389.8500 391.4624 391.4624 391.4624
   391.8777 391.8777 391.8777 391.9304 391.9304 392.0817 392.0817 392.0817
   392.3360 392.3360 392.5493 395.6274 395.6274 395.6274 395.7973 395.7973
   395.7973 395.9294 395.9294 395.9294 395.9493 395.9493 396.1031 396.1031
   396.1031 396.1467 396.1467 396.1467 396.2350 396.2350 396.2350 396.3909
   396.3909 396.3909 396.4031 396.4031 396.4031 396.4237 396.4237 397.0940
   397.3407 397.3407 397.3407 397.7900 397.9849 397.9849 397.9849 398.1501
   398.1501 398.1501 398.2951 398.3677 398.3677 398.3677 400.0571 400.0571
   400.0571 400.2369 400.2369 400.2369 400.4985 400.4985 400.6357 400.6357
   400.6357 400.7361 400.7361 400.7361 400.9089 400.9089 402.9412 402.9756
   402.9756 402.9756 402.9897 402.9897 404.3177 404.3177 404.4172 404.4172
   404.4172 404.4312 404.4312 404.4312 404.4351 404.4351 404.4351 404.4422
   404.4422 404.4422 404.6638 404.6638 404.9879 405.0590 405.1459 405.1459
   405.1459 405.2837 405.2837 405.2837 405.4093 410.3520 410.7400 410.7400
   410.7400 414.0519 414.0519 414.0519 417.9788 421.7524 421.7524 421.7524
   421.7631 421.7631 421.7631 422.0457 422.0457 422.2831 422.2831 422.2831
   422.4072 422.4072 422.4072 422.4397 422.4397 422.9515 422.9515 422.9515
   424.7121 424.7121 424.7121 425.6646 425.6646 426.0456 426.0456 426.0456
   428.3649 428.3649 428.3649 428.5404 428.5404 428.5404 431.6379 431.6379
   431.6379 431.6764 431.6764 431.8468 432.4390 436.0138 436.7946 436.7946
   436.7946 436.8277 436.8277 439.3116 439.3116 439.3116 439.4083 439.4083
   439.4083 439.4297 439.4297 439.4297 439.4447 439.4447 439.4447 440.9507
   440.9507 440.9649 440.9649 440.9649 440.9869 447.1100 447.1100 447.1100
   447.7340 447.7340 447.7340 450.5238 454.1743 454.1743 454.1743 457.0275
   457.0275 457.0368 457.0368 457.0368 457.1498 457.1498 457.1498 457.2139
   457.2139 457.2139 457.2324 457.2324 457.4703 457.9107 457.9107 457.9107
   458.1763 458.1763 458.1763 460.2907 460.2907 460.4036 460.4036 460.4036
   460.4562 460.9582 460.9582 460.9582 463.1994 465.5085 465.5085 465.5085
   466.8061 466.8061 467.3082 467.3082 467.3082 468.2981 470.0405 470.0405
   470.0405 472.1232 472.1232 472.1232 472.1633 472.5072 472.5072 472.5072
   472.9000 472.9000 472.9902 472.9902 472.9902 473.1239 473.1239 473.1239
   473.4341 473.4341 473.5316 473.5316 473.5316 473.5371 474.7934 474.7934
   474.7934 475.2143 475.2143 475.3058 475.3058 475.3058 475.3059 475.3059
   475.3059 475.3394 475.3394 475.3394 475.3417 475.3446 475.3446 475.4914
   475.9224 475.9224 475.9224 475.9590 475.9590 475.9590 476.1031 476.1031
   476.1058 476.1058 476.1058 476.1487 476.1487 476.1487 476.2532 476.2532
   476.2532 476.6152 476.6152 476.6941 476.6941 476.6941 476.9264 476.9264
   476.9264 477.1752 477.1752 477.1752 477.2304 477.2304 477.2304 477.2832
   477.3259 477.3259 483.3953 490.7594 490.7594 490.7594 491.4416 491.9023
   491.9023 491.9023 492.1152 492.1152 492.1152 492.7362 492.7362 493.8537
   493.8537 493.8537 494.0820 494.0820 494.0820 494.3726 494.3726 494.3726
   494.4050 494.4050 494.5307 494.5307 494.5307 494.5357 494.5357 494.5357
   494.7350 495.0169 495.0169 495.0169 495.3413 495.3413 495.3413 495.4315
   495.4315 495.6645 495.6645 495.6645 496.8217 498.3215 498.3660 498.3660
   498.3660 498.3871 498.3871 498.3871 498.4172 498.4172 498.4315 498.4315
   498.4315 498.6501 498.6501 498.6501 498.9268 498.9268 498.9268 498.9413
   499.0508 499.0508 499.0749 499.0749 499.0749 500.6687 500.6687 500.6687
   500.6730 500.6730 500.7312 501.6207 501.6207 501.6207 503.4831 503.4831
   503.4831 504.6257 504.6257 504.6257 504.9914 504.9914 506.1698 506.1698
   506.1698 507.1322 507.1322 507.2347 507.2347 507.2347 507.4729 507.4729
   507.4729 507.6728 510.1175 510.4962 511.2619 511.2619 511.2619 511.5452
   511.5452 511.5452 512.3484 512.3484 512.3484 512.4092 512.4092 512.4096
   512.4096 512.4096 512.4154 512.4154 512.4154 512.4410 512.4410 512.4610
   512.4610 512.4610 513.7976 514.1965 514.8015 514.8015 514.8015 515.2370
   515.2370 515.2370 516.0281 516.2551 516.2551 516.2905 516.2905 516.2905
   516.3591 516.3591 516.3591 516.4492 516.4492 516.4492 516.5091 516.5091
   516.5091 516.5819 516.5819 516.5872 516.5872 516.5872 516.6346 516.6550
   516.6550 516.6550 516.7094 516.8055 516.8055 516.9070 516.9070 516.9070
   517.0446 517.2915 517.2915 517.2915 517.3863 517.3863 517.3863 517.6089
   517.6089 517.6089 517.6634 517.6634 517.6634 517.6973 517.6973 517.6973
   517.9728 517.9728 521.0834 541.3641 541.3641 541.3641 542.5324 544.1865
   544.1865 544.1865 544.5665 544.5665 544.5665 545.9009 545.9475 545.9475
   545.9475 546.0368 546.0368 546.1159 546.1159 546.1159 546.1263 546.1263
   546.1263 546.1464 546.1464 546.1464 546.1646 546.1646 549.3632 549.3632
   549.3632 549.8494 549.8814 549.8814 549.8814 550.2495 550.2495 550.6273
   550.6273 550.6273 550.6446 550.6446 550.6446 550.7246 550.7246 550.7246
   550.7457 550.7457 550.7712 550.7712 550.7712 550.9517 550.9517 550.9959
   551.0166 551.0166 551.0166 551.0906 551.0906 551.0906 551.1622 551.8733
   551.8733 551.8733 552.3546 552.3546 552.3546 552.7231 552.7231 552.7231
   552.7411 553.0978 553.0978 553.0978 553.2672 553.2672 553.3523 553.3523
   553.3523 553.4921 554.2896 554.2896 554.3373 554.3373 554.3373 554.4452
   554.4452 554.4452 554.4718 554.4718 554.4718 554.5131 554.5131 554.5587
   554.5587 554.5587 557.9557 558.6910 558.6910 558.7118 558.7118 558.7118
   558.7526 558.7526 558.7526 558.7642 558.7642 558.7642 558.7883 558.7883
   558.7883 558.8066 558.8066 560.4578 560.4578 560.4578 560.4586 560.4587
   560.4587 560.4587 560.4615 566.7443 566.7443 566.7443 569.8444 569.8444
   571.9907 572.2296 572.2296 572.2296 572.3700 572.3700 572.4579 572.4579
   572.4579 572.6462 572.6462 572.6462 572.6996 572.6996 572.6996 572.8603
   572.8603 572.8603 573.0433 573.0433 573.0433 573.2887 574.1208 574.1208
   576.3094 577.0896 577.0896 577.1144 577.1144 577.1144 577.1402 577.4651
   577.4651 577.4651 577.4687 577.4687 577.4687 577.4824 577.4824 577.4824
   577.5627 577.5627 577.5627 577.8298 577.8298 577.8716 577.8716 577.8716
   577.9560 581.4181 581.4181 581.4181 581.6315 582.6781 582.6781 582.6781
   585.6446 589.0109 589.0109 589.0109 589.0798 589.0798 589.0798 589.1625
   589.1625 589.1625 589.1718 589.1718 589.1718 591.0328 591.0328 591.0328
   591.0951 591.0951 591.1068 591.1068 591.1068 591.1238 591.1238 591.1238
   591.1757 591.1757 591.1887 591.1887 591.1887 596.0652 596.0652 596.0652
   596.0660 596.0666 596.0666 602.9532 602.9532 602.9532 604.1687 604.1687
   604.1687 604.4163 604.4163 604.4163 604.4240 604.4240 604.4770 609.1610
   609.1610 609.1610 617.1120 617.1120 618.0793 618.0793 618.0793 618.2548
   618.2548 618.2548 618.9486 618.9486 618.9486 620.1803 620.1803 620.6495
   620.8662 620.8662 620.8662 621.7662 621.7662 621.7662 622.0250 622.0250
   622.0250 622.4992 622.4992 622.4992 623.3658 623.6559 623.6900 623.6900
   623.7479 623.7479 623.7479 623.7991 623.8497 623.8497 623.8497 624.0260
   624.0260 624.0260 624.7396 624.7396 624.7396 624.7645 624.7645 624.7645
   624.9621 624.9621 625.0404 625.0404 625.0775 625.0775 625.0775 625.0850
   625.0850 625.0850 625.1221 625.3127 625.3127 625.3127 625.3621 625.3621
   625.3621 625.5375 625.5375 625.5507 625.5512 625.5512 625.5512 625.5816
   625.5816 625.6864 625.6864 625.6864 625.7786 625.7786 625.7786 625.8338
   625.8338 625.8338 625.8495 629.1373 629.1373 629.1373 629.8788 629.8898
   629.8898 629.8898 629.9115 629.9115 631.2484 631.2484 631.2484 631.9018
   631.9269 631.9269 631.9269 632.0843 632.0843 632.4430 632.4430 632.4430
   632.4704 632.4704 632.4704 632.4745 632.4745 632.4745 632.4980 632.4980
   632.4980 632.7091 632.7091 632.7091 632.7473 632.7473 632.7847 632.7847
   632.7847 632.7896 632.7896 632.7896 632.8009 632.8628 632.8628 632.8628
   632.9882 632.9882 632.9882 633.0925 633.0925 633.0925 633.2808 633.2808
   633.6824 633.6824 633.8364 633.8364 633.8364 633.9982 633.9982 633.9982
   634.0378 634.0378 634.0378 634.0569 634.0569 634.0659 634.0659 634.0659
   634.0832 634.1919 635.1457 636.2657 636.2763 636.2763 636.2833 636.2833
   636.2833 636.2875 636.2875 636.2875 636.2911 636.2911 636.2911 644.0444
   644.0444 644.0444 645.2299 645.3855 645.3855 645.3855 646.8234 648.3101
   648.3101 648.3101 648.6781 648.6781 648.6781 648.7854 648.7854 648.8819
   648.8819 648.8819 649.6513 649.6513 649.6513 649.7373 649.7373 649.8030
   649.8030 649.8030 649.8762 649.8762 649.8762 649.9554 650.7600 653.9095
   653.9095 653.9199 653.9199 653.9199 653.9296 653.9296 653.9296 653.9478
   653.9478 653.9478 653.9680 653.9680 653.9680 653.9772 653.9772 661.1105
   661.1105 661.1105 662.4211 662.4727 662.4727 662.4727 662.4813 662.4813
   662.4813 662.6179 662.6179 662.7448 662.7448 662.7448 662.7533 662.7533
   662.7533 662.8013 662.8013 662.8035 662.8035 662.8035 663.4197 665.0049
   665.0049 665.0049 665.4040 665.4040 665.6119 665.6119 665.6119 665.6507
   665.6507 665.6507 665.6528 665.6528 665.6528 665.6674 665.6674 665.7422
   665.9936 665.9936 665.9936 666.0734 666.0734 666.0734 666.1520 666.1520
   666.1520 666.4150 666.4214 666.4214 666.4214 666.5706 666.7051 666.7051
   666.7051 666.7419 666.7419 666.7892 666.7892 666.7892 666.8200 666.8445
   666.8445 666.8903 666.8903 666.8903 666.9037 666.9037 666.9037 670.7328
   670.7328 670.7328 671.3394 671.4612 671.4612 671.4612 671.8194 671.8194
   671.8194 671.8282 671.8282 671.8282 671.8324 671.8324 672.2765 672.2765
   672.2765 672.3149 672.3149 672.3201 672.3201 672.3201 673.4051 673.4051
   673.4051 673.4079 673.4079 673.4521 673.4521 673.4521 673.5234 673.5234
   673.5234 673.5718 673.6506 673.6506 673.6506 673.6679 673.6679 673.6771
   673.9208 673.9208 673.9208 674.0079 674.0079 674.0079 674.0775 679.1000
   679.1000 679.1000 680.2711 680.2711 681.8494 688.7198 688.7198 688.7198
   689.8270 689.8270 689.8270 689.9210 690.2426 690.2426 690.2426 690.2704
   690.2704 690.3721 690.3721 690.3721 690.4633 690.4633 690.4633 690.5221
   690.5221 690.5283 690.5283 690.5283 690.9097 697.1136 697.1136 697.1136
   698.5103 698.5103 698.7000 698.7000 698.7000 698.7080 698.7080 698.7080
   698.7268 698.7268 698.7268 698.8351 698.8351 698.8351 699.1084 699.1084
   699.1941 699.1941 699.1941 699.2629 700.0602 703.0879 703.0879 703.0879
   703.2926 703.3508 703.3508 703.3508 703.7770 705.0573 705.0573 705.0573
   705.3867 705.3867 706.1294 706.6278 706.6278 706.6278 706.6351 706.6351
   706.6351 706.6544 706.6544 706.6544 706.6592 706.6592 706.6592 709.1648
   709.1695 709.1695 709.1695 709.1792 709.1792 709.2986 709.2986 709.2986
   709.3208 709.3208 709.3208 709.3280 709.3280 709.3280 709.3354 709.3354
   709.3354 709.4072 709.4072 709.4108 709.4108 709.4108 709.4278 713.0906
   713.0906 713.0906 713.0909 713.0909 713.0995 723.9706 723.9706 723.9706
   724.9309 724.9309 724.9309 724.9528 724.9978 724.9978 725.0151 725.0151
   725.0151 725.0374 725.0374 725.0374 725.0380 725.0380 725.0380 725.0794
   725.0794 725.0794 725.0862 725.0862 725.3896 729.0463 729.0530 729.0530
   729.0590 729.0590 729.0590 729.5140 729.5140 729.5140 729.9797 729.9797
   729.9797 729.9919 729.9919 729.9919 729.9940 729.9940 729.9940 730.0213
   730.0213 730.0333 730.0333 730.0333 730.0520 730.0520 730.0520 730.0696
   730.0727 730.0727 730.0727 730.0746 730.0746 730.0746 730.0781 730.0781
   730.0826 730.0826 730.0826 730.0975 730.0975 730.0975 730.0988 730.1005
   730.1005 730.1005 730.3679 730.3679 730.7391 734.0710 734.0710 734.0710
   736.5380 736.5380 736.5380 736.6021 738.6762 739.7327 739.7327 739.7327
   739.7962 739.7962 739.8976 739.8976 739.8976 740.0600 740.0600 740.0600
   740.0884 740.0884 740.0884 740.2356 740.2356 741.7491 741.7491 741.7491
   741.9698 741.9698 741.9698 742.0515 742.2176 742.3635 742.3635 742.3888
   742.3888 742.3888 742.4210 742.4210 742.4210 742.4343 742.4343 742.4343
   742.4636 742.4636 742.4636 742.4893 742.4893 745.9628 745.9628 745.9862
   745.9862 745.9862 746.0608 746.0608 746.0608 746.0745 746.0745 746.0745
   746.1392 746.1392 746.1392 746.1597 746.1597 746.2568 746.3112 746.3112
   746.3112 746.3574 746.3574 746.3574 746.3947 746.4220 746.4220 746.4228
   746.4228 746.4228 746.4366 746.4366 746.4366 746.4422 746.4422 746.4422
   746.4582 746.4582 746.4582 746.4633 746.4633 748.0452 748.0662 748.0662
   748.0662 748.0871 748.0871 748.0871 748.1079 762.1675 762.1675 762.1675
   763.9169 763.9169 764.7422 764.7422 764.7422 764.7516 764.7516 764.7516
   764.8008 764.8008 764.8008 764.8525 764.8773 764.8773 764.8773 765.4575
   765.4575 765.4881 765.4881 765.4881 765.5643 768.9257 768.9257 768.9257
   768.9566 768.9566 768.9566 768.9766 768.9766 768.9841 768.9841 768.9841
   768.9934 777.2164 777.2164 777.2164 779.9880 779.9880 779.9880 780.1223
   780.7821 782.8990 782.8990 782.8990 783.6155 783.6155 783.6155 783.6782
   783.6782 783.7977 783.7977 783.7977 784.5639 784.5639 784.6038 784.6038
   784.6038 784.6077 784.6360 784.6360 784.6360 784.6372 784.6372 784.6372
   784.6646 784.6646 784.6735 784.6735 784.6735 784.6813 785.0122 785.0122
   785.0122 785.0501 785.0501 785.0501 785.2651 785.3697 785.3697 785.3697
   785.5085 785.5085 785.6264 785.6264 785.6264 785.9489 785.9489 785.9489
   786.1908 786.2276 786.2276 786.2276 786.2368 786.2368 786.2368 786.3199
   786.3818 786.3818 786.3818 786.4235 786.4235 788.9669 788.9669 788.9690
   788.9690 788.9690 789.0274 789.0274 789.0274 789.0768 789.0768 789.0768

          k = 0.5000-0.5000 0.5000 (  4446 PWs)   bands (ev):

   -17.3660  -7.3794  -2.3914  -2.2814  -2.2814   6.3309   6.8463   6.8463
    13.1530  15.3541  15.3541  15.5478  17.2634  17.2634  18.5251  18.5885
    18.5885  18.5931  18.5931  18.8958  18.9684  22.0097  24.4181  24.4181
    25.7641  28.8774  31.3226  31.3226  33.1715  33.1715  33.8284  36.8129
    36.8129  38.4594  38.4594  39.2232  40.8384  42.6956  43.2924  43.2924
    43.4150  44.1081  45.4295  45.4295  50.3202  50.3202  50.4225  51.7983
    51.7983  52.8464  56.0055  56.0055  57.0168  57.2866  57.9919  57.9919
    59.8259  59.8259  61.7235  62.8126  65.8442  65.8442  66.9900  66.9900
    67.3099  68.1931  68.1931  68.2275  68.2275  68.6084  68.8054  69.6488
    69.6488  70.0790  70.0790  70.4967  70.5158  76.4266  77.7173  77.7173
    78.3444  79.9180  79.9180  80.4198  80.4198  81.8332  82.4292  82.4292
    86.0216  86.1164  86.1164  87.1834  88.4624  88.8507  88.8507  89.4218
    90.1422  90.1422  90.5445  92.3569  94.6058  94.6058  94.8677  94.8677
    96.0350  96.2182  96.7906  96.7906  97.4343  99.5599  99.5599  99.8505
    99.8505 100.8757 101.3071 101.3071 102.8236 105.5618 105.5618 105.9921
   106.0593 106.0808 107.6220 107.6220 107.8870 107.8870 109.0183 109.1995
   111.5789 111.5789 113.8850 113.8850 114.7481 115.0001 115.0001 115.5790
   116.8487 116.8487 116.9186 116.9186 117.7370 118.6717 118.6717 118.7669
   118.9496 120.3243 120.8556 120.8556 123.8223 123.8223 124.7683 124.9792
   125.0217 125.0217 125.6828 125.6828 125.9344 126.2082 126.2082 126.3546
   126.8665 127.8901 127.8901 132.2600 132.2600 132.9655 135.8325 135.8325
   136.0673 136.1423 136.1423 136.5263 136.5770 136.8339 136.8339 137.1507
   137.1507 137.6159 141.4816 141.4816 143.3182 143.3182 143.4620 144.8927
   144.9660 144.9660 146.0593 146.6428 147.7914 147.7914 148.8446 150.3981
   150.3981 150.8175 150.8175 152.3142 152.4195 153.0831 153.2337 153.2337
   153.8059 153.8059 153.9276 153.9276 154.0907 154.0944 154.8055 154.8055
   155.1758 155.3495 155.3495 156.4604 156.4604 156.5012 157.1769 157.1769
   157.5158 160.1403 160.1403 162.3723 162.3723 163.2808 163.4841 164.2296
   164.2296 164.7034 164.8552 165.8600 165.9203 165.9203 166.0057 166.0057
   166.9091 166.9091 167.1426 167.1426 168.4907 169.5514 169.8488 169.8488
   171.5634 171.9090 173.4664 173.5784 173.5784 174.6773 174.6807 174.6807
   176.6866 176.8034 177.8863 177.8863 179.8458 179.8458 179.9527 181.3492
   181.3492 181.5163 182.1623 182.1623 182.7548 182.7548 184.0344 184.0644
   184.0644 184.7825 185.2735 185.2735 185.7874 185.8355 186.8758 186.8758
   186.8806 186.8807 186.8807 187.1700 187.3248 187.3784 190.0858 190.0858
   192.2556 192.2556 196.3301 196.3301 196.5314 198.3347 198.6772 198.6772
   199.5018 199.5018 200.2324 200.5068 200.5068 200.6170 201.1306 201.2995
   201.2995 201.5668 201.7734 201.9805 201.9805 202.1830 202.1830 203.6651
   203.6651 204.1135 205.8918 205.8918 206.8560 206.8560 207.7159 208.9648
   209.8888 210.1458 210.1458 210.1803 210.1817 210.1817 210.6227 210.6227
   210.9224 211.1101 211.1101 211.4901 212.2857 212.2857 213.4589 213.6368
   213.6368 213.8666 213.9032 213.9032 213.9553 213.9553 214.5296 215.5113
   215.5114 216.1453 216.1453 218.0645 220.9206 222.5118 222.5118 222.9721
   223.1944 223.1944 223.5601 223.5601 224.1898 224.3618 224.3618 224.3948
   225.4364 225.4364 227.3221 227.3221 227.7280 227.7550 227.7550 228.8669
   228.8669 228.9314 228.9314 229.6607 229.8242 229.9484 229.9484 230.0753
   230.3095 231.3987 231.3987 232.0557 232.0557 232.3615 232.7460 234.2113
   234.2113 234.7919 235.6094 235.6094 239.8083 239.8083 240.1224 240.1881
   240.1881 240.9177 241.7131 241.7131 241.8353 242.0655 242.0655 242.3897
   242.3897 242.7493 243.3659 244.1081 244.4131 244.4131 246.5443 246.5443
   246.8066 247.8366 247.9540 248.1157 248.1157 248.3331 248.3331 250.2028
   250.7446 251.1059 251.1059 251.4526 252.1673 252.1673 252.2935 252.8313
   252.8313 252.8333 252.8333 254.8726 255.2373 255.2373 255.9719 256.6750
   257.1246 257.1246 257.7091 257.7091 257.9663 258.2763 258.2763 259.2412
   259.7507 259.7507 260.2464 261.1297 261.1495 261.1495 263.5963 263.5963
   263.9498 263.9498 264.7283 264.9580 264.9580 265.1080 265.6544 265.6544
   266.2989 269.2082 269.2440 269.2440 269.2724 269.2724 270.0483 270.0483
   270.0746 270.1612 270.1612 270.7729 272.4531 272.4531 272.9843 273.1003
   274.1960 274.5420 274.5420 274.5956 274.6069 274.6069 274.7561 276.6126
   276.6126 277.8659 278.1390 278.1390 278.4991 278.4991 278.5018 278.9972
   279.7954 279.7954 279.9514 281.7719 281.9968 281.9968 283.0497 284.9975
   285.3225 285.3225 287.4168 287.4216 287.4216 287.4963 287.4997 287.4997
   287.5298 287.8364 287.8364 288.3666 288.3666 290.3528 290.5830 290.5830
   290.6467 290.6467 290.7623 290.7719 291.9589 291.9589 293.2861 293.8200
   293.8523 294.0494 294.0494 295.2530 295.2530 295.2644 296.0613 296.0613
   296.1215 296.1215 296.1462 297.0487 297.1429 297.1429 297.1609 297.1768
   297.7743 297.8481 297.8481 298.0101 298.0101 298.2129 298.2129 298.5844
   298.5844 300.6135 300.9066 300.9066 300.9514 300.9514 301.0016 302.2224
   303.8200 303.8200 304.9777 305.7694 305.7738 305.7738 306.9175 307.1272
   307.1272 307.5242 308.2634 308.2634 308.3208 308.9247 308.9247 309.3813
   309.3813 309.4949 310.1727 310.1727 310.3370 310.3722 310.3722 310.4581
   310.4664 310.9909 310.9909 313.3850 313.9829 315.3798 315.7974 315.7974
   316.0416 316.0416 316.4358 317.1518 317.1518 317.7680 317.7680 319.0869
   319.9257 321.5556 321.5556 321.7075 321.7075 322.8188 323.8004 323.8154
   323.8154 324.2021 324.2021 325.1505 325.1505 325.5275 325.7879 325.9509
   325.9509 326.0194 326.4552 326.4552 327.6952 327.8377 327.8377 328.6853
   328.6853 328.8238 328.8238 330.4582 330.4596 330.5248 331.2177 331.2177
   332.0259 332.2225 332.2225 334.4107 334.9901 334.9901 335.0190 335.7387
   335.8573 335.8573 335.9910 335.9910 336.1156 336.9631 336.9631 337.2794
   337.2794 337.9291 340.6055 340.6055 340.6292 340.6292 340.9278 340.9473
   340.9481 341.1546 344.2321 344.2321 344.7516 344.7516 345.9035 346.3244
   346.4468 347.5710 347.5710 348.7964 348.7964 348.9305 348.9305 349.7853
   351.1196 351.7386 351.7386 351.7517 351.8293 351.8293 351.9126 351.9126
   352.7656 353.3639 353.3639 353.6000 353.6000 353.8824 354.0623 354.3072
   354.3072 354.5374 354.6704 354.6704 355.2027 355.2027 355.3523 355.7114
   355.9549 355.9549 356.2591 356.4026 356.4026 356.5847 356.5847 357.0241
   357.0241 357.6096 358.5771 358.5771 358.6883 359.0134 359.0134 359.1710
   359.3612 359.5859 359.5859 360.3243 361.0050 361.0050 361.3685 361.3685
   361.9748 362.9577 363.1536 363.1536 364.0700 365.1943 365.7126 365.7126
   366.3791 366.3791 366.6163 367.2083 367.7395 367.7395 368.0464 368.0464
   368.3188 368.8229 369.8882 369.8882 371.2267 371.5769 371.5769 372.9482
   372.9482 373.2306 373.2306 373.4041 373.5400 373.5400 373.5526 373.6998
   374.1956 374.1956 374.7672 374.7672 375.0335 375.2193 377.6785 377.6785
   377.7126 377.7126 377.8760 378.4700 378.7622 378.8741 378.8741 378.8928
   378.8928 378.9310 379.0485 379.6936 379.6936 381.1272 381.4396 381.9941
   381.9941 382.5135 382.5135 383.5872 383.5872 383.6696 384.4120 384.4120
   385.5267 385.9438 386.0648 386.0648 386.0741 386.1315 386.1315 386.5432
   386.6977 386.8080 386.8080 387.1904 387.1904 387.7272 389.9086 391.3113
   391.3113 391.5374 392.1367 392.1367 394.4542 394.8860 394.8860 395.1979
   395.2916 395.7357 395.7357 396.0675 396.0675 396.1093 396.1195 396.1195
   397.1645 397.1645 397.3826 397.3826 399.0807 399.9398 399.9398 400.1706
   400.1706 400.4096 400.5140 401.5648 401.6952 401.8653 401.9555 401.9555
   402.2336 402.2336 402.8441 403.2878 403.2878 404.2410 404.2410 404.4779
   404.4779 405.6172 406.4741 406.6454 406.6454 406.9377 407.0354 407.0354
   407.5010 408.7134 408.7134 408.7917 408.7917 408.8188 408.8188 409.7779
   412.2155 412.4168 412.4968 412.4968 412.5069 412.8224 412.9521 412.9521
   413.0099 413.3564 413.3564 413.5793 413.5793 413.6941 413.6941 413.6962
   416.7476 416.7476 417.5787 417.6292 417.6304 417.6304 417.6516 417.6516
   419.0035 419.0405 419.1480 419.1480 419.8768 421.4789 421.4789 422.0206
   422.1294 422.1294 422.1354 422.1354 422.2200 422.2234 422.3795 422.3795
   422.5513 422.5513 422.8112 422.9014 422.9014 425.2729 425.9037 425.9037
   426.0446 426.0631 426.0847 426.0847 429.3570 430.9368 430.9368 431.8517
   431.8899 431.8899 432.2321 432.3853 432.6599 432.6599 432.7203 433.5235
   433.6961 433.6961 433.8447 433.8447 433.9527 434.2440 434.2440 435.4131
   436.9148 436.9148 437.3589 437.5496 437.5496 437.8303 437.8303 438.0975
   439.1140 439.1140 439.7481 439.9968 439.9968 440.0350 440.1582 440.1945
   440.2827 440.2827 440.5434 440.5434 440.5576 440.5576 440.6574 440.6574
   440.8185 441.2564 441.2564 441.3685 441.3910 441.9488 442.7704 442.8848
   442.8848 443.0385 443.0385 444.3854 444.4526 444.4526 444.4552 444.4552
   444.5299 444.6677 445.0055 445.2564 445.2564 445.2831 445.3021 445.3021
   450.2640 452.2080 453.0276 453.0276 453.2180 453.2180 453.7335 454.1710
   454.1710 454.3532 454.3532 454.4501 454.6432 454.8624 454.8624 454.9441
   454.9441 454.9540 455.0972 455.1376 455.7051 455.7051 456.2569 456.2569
   456.7553 456.9117 456.9117 458.6983 458.6983 458.7197 458.7494 459.6001
   459.6001 460.2123 460.2123 460.3900 461.5534 461.5534 461.6137 461.6137
   461.6633 462.0950 462.1299 462.4821 462.5063 462.5063 462.6090 462.6090
   463.0977 463.5239 463.5239 464.4473 464.4765 464.4765 464.6740 465.1755
   465.1755 465.4702 466.4674 466.4674 467.2722 469.9299 469.9299 469.9866
   469.9866 470.5590 470.5590 470.5850 471.7167 471.7167 471.7488 471.7574
   471.9836 472.7181 472.7181 472.7379 472.9033 472.9033 473.0669 473.1787
   473.1787 473.2125 473.2936 473.2936 473.4159 473.4159 473.5911 473.5911
   473.6820 474.1376 476.9835 476.9835 476.9966 476.9966 478.3544 478.3559
   478.4249 478.4249 478.4760 478.6644 478.6644 479.0328 481.8170 481.8170
   482.7717 483.3979 483.3979 483.6125 484.0638 484.0638 484.2164 485.0353
   485.0353 485.5973 485.8172 486.2287 486.2287 487.4860 487.4860 487.5126
   487.5126 488.7263 488.7263 488.7850 488.8300 489.0932 489.3430 489.4757
   489.4757 489.7693 489.9282 489.9282 489.9477 490.6259 490.7663 490.7663
   490.8819 490.8819 491.4242 491.4242 491.7052 491.7052 491.7812 492.6226
   493.7586 493.7968 497.2964 497.2964 497.6032 497.7811 497.7811 498.0119
   498.3047 498.3810 498.3810 498.6200 498.7064 498.7064 498.7599 498.7599
   498.9941 499.0477 499.0496 499.1395 499.1395 499.1507 499.1507 499.3382
   499.3382 499.4664 500.3416 500.3416 500.5204 500.5204 500.6449 500.7974
   502.8783 502.8783 503.0244 503.0244 503.1869 503.1869 503.6619 503.7363
   503.7363 504.3656 504.3905 504.3905 504.4366 504.4366 504.4894 504.5028
   504.5028 504.5189 504.5552 504.5552 504.5909 504.9465 506.6779 507.2820
   507.2820 507.5545 507.5545 509.4777 512.4663 512.4663 512.7644 512.8244
   512.8244 512.9388 514.0268 514.6098 514.6098 515.2040 515.2040 517.9994
   518.0935 518.8222 518.8222 519.2176 519.2919 519.2919 519.4791 519.5005
   519.5005 519.5242 519.5242 519.5313 519.9005 519.9005 519.9026 519.9026
   520.1510 520.1986 520.2507 520.2507 520.6086 520.7598 520.7598 522.2281
   525.2205 525.2205 525.2319 525.2319 526.5687 526.5687 526.6512 526.8574
   527.0039 527.3508 527.3508 527.5417 527.5891 527.5891 529.7441 529.8399
   529.9159 529.9159 529.9263 530.0008 530.0008 530.0584 530.0584 530.3818
   530.4027 530.5367 530.5367 530.5817 530.5827 530.5827 534.2535 536.3278
   537.1173 537.1173 537.2200 537.2200 537.4850 537.4850 537.5077 537.6517
   537.6517 537.8374 539.1751 539.1751 539.1878 539.1878 539.2168 539.2531
   539.4311 540.8915 540.8915 541.1967 541.1967 541.2231 541.2571 541.2571
   541.2586 541.3079 541.3079 541.3311 541.3408 543.0703 543.0703 543.8518
   543.8518 543.9764 545.1386 545.1386 545.4018 545.4018 545.4914 545.7890
   546.6725 546.8308 546.8308 546.9193 546.9193 546.9928 547.4181 547.6060
   547.6060 547.7428 547.7428 547.8443 547.9260 548.3830 548.3830 548.4140
   548.4140 549.7315 549.7315 549.9128 549.9128 549.9951 550.1622 550.3130
   550.3342 550.3342 550.3346 550.3346 550.3404 550.3908 551.1488 551.1488
   551.1862 551.1862 551.2323 551.2478 553.0813 553.1299 553.5365 553.5365
   553.6039 553.6039 554.0738 554.8921 556.0388 556.0388 556.6512 556.6512
   556.8668 557.5879 557.5879 557.8481 557.9224 557.9224 558.0233 558.3658
   558.4808 558.5051 558.5051 558.5234 558.5234 558.8336 561.0737 561.0737
   561.1282 561.1282 561.2046 561.2241 561.2241 561.2359 561.2359 561.2393
   561.9068 561.9278 561.9278 561.9542 561.9587 561.9587 564.8694 564.8694
   565.8152 565.8651 565.8651 566.3502 567.4883 568.2381 568.2381 568.4501
   568.4501 569.3782 569.3782 569.3890 569.3890 569.4941 569.7068 569.7942
   569.9111 570.0212 570.0212 570.1327 570.1636 570.1636 570.6066 570.6112
   570.6112 570.6332 570.6399 570.6399 572.8707 574.2752 574.2752 574.2759
   574.2759 574.7322 574.9703 574.9703 575.0774 575.0774 575.1271 575.1271
   575.1476 575.3932 575.4493 575.4493 575.4886 576.4313 579.4033 579.4033
   579.4233 579.4233 579.4931 579.4959 581.9482 581.9482 583.1807 583.2625
   583.2625 583.3608 583.5246 583.7985 583.7985 583.9747 583.9747 583.9809
   584.0053 584.0053 584.0995 584.1500 584.1500 585.0429 585.2338 585.2924
   585.2924 585.3508 585.3508 585.3588 587.0684 587.9017 587.9017 587.9156
   587.9156 588.2281 588.8407 588.8818 588.8818 588.9287 589.2748 589.2748
   589.4024 589.4024 589.4329 589.7786 589.7786 590.0477 590.0477 590.0568
   590.0568 590.0966 590.1679 590.2265 590.2265 590.2813 590.2813 590.3885
   590.4108 591.9128 596.6961 596.7228 596.7228 596.9227 596.9227 596.9573
   596.9589 597.6056 597.7381 597.7381 597.7411 597.7411 600.9300 600.9527
   600.9527 600.9558 600.9563 600.9563 602.6187 602.6187 602.7904 602.8205
   602.8205 602.8724 603.3047 604.3555 604.3555 604.7130 604.7130 604.7136
   604.7136 604.7411 604.7583 604.8068 604.8392 604.8392 605.1115 605.5187
   605.5187 605.6796 607.0964 608.0737 608.0737 609.2137 610.2178 610.2178
   611.6515 611.6515 611.7031 611.7053 611.7053 611.7102 611.9800 611.9800
   612.0273 612.7599 614.7551 614.7551 615.2905 615.4581 615.4581 615.5017
   616.3952 616.4857 616.4857 616.5693 616.5693 617.2828 617.4153 617.4153
   617.5061 617.5061 617.5603 617.5950 618.9447 619.0167 619.0167 619.0570
   619.0570 619.1101 619.8589 620.8643 620.8643 622.0738 622.0738 623.4206
   623.4658 623.4658 623.5103 623.5103 623.5398 623.5765 623.5765 623.7102
   623.7216 623.7688 623.7688 623.8552 624.0795 624.0795 624.2049 624.2049
   624.3184 624.6956 624.6956 624.9328 625.0514 625.1067 625.1067 626.6134
   628.7612 628.7692 628.7692 628.7853 628.8313 628.8313 629.6421 629.6421
   630.5303 630.5303 630.5691 631.2997 631.6846 631.9755 631.9755 632.1054
   632.1054 632.7811 635.0529 635.2069 635.2069 635.5224 635.5224 635.6087
   635.6850 635.7215 635.7215 635.9017 635.9017 636.1191 636.6343 636.6343
   636.8268 636.8268 636.8743 636.9101 636.9307 636.9307 636.9413 636.9413
   636.9890 636.9892 637.8120 637.8120 637.8151 637.8151 637.8940 637.9292
   637.9445 637.9586 638.0050 638.0050 638.0146 638.0372 638.0372 640.6672
   642.8888 642.8888 643.2666 643.2666 643.2697 643.2697 643.3611 643.3611
   643.4181 643.4505 643.4815 643.5652 643.5652 643.5699 643.6045 643.6045
   643.7078 644.1037 644.1037 644.1540 644.1540 644.1969 645.3938 645.3938
   645.5817 645.5971 645.5971 645.6122 645.6204 645.6289 645.6289 645.6338
   645.6338 646.0359 648.6657 648.6892 648.6892 648.6925 648.6925 648.7230
   648.7230 648.7749 648.7749 648.8765 648.8765 648.8834 649.1557 649.1557
   649.1575 649.6534 650.5200 650.5200 652.6313 653.3636 653.3636 653.4110
   653.4110 653.7262 657.3035 657.3035 657.3241 657.3300 657.3300 657.3444
   658.1119 658.1119 658.1311 658.1311 658.2310 658.2313 658.9937 658.9937
   659.6241 660.0254 660.0254 660.9783 663.9770 664.0385 664.0385 664.0843
   664.0843 664.1056 664.2156 664.2156 664.2399 664.2399 664.2507 664.2508
   664.6911 664.6911 664.7062 664.7170 664.7170 664.7719 667.7341 667.7341
   670.5095 670.5095 670.5543 670.7453 671.5021 671.5021 671.5948 671.5948
   671.6015 671.7481 671.7709 672.2434 672.2434 672.4787 672.4787 672.6220
   672.6724 672.6724 672.6726 672.6726 672.7575 672.8014 672.9819 672.9951
   672.9951 673.0571 673.0571 673.3156 675.0431 675.0570 675.0570 675.1071
   675.1071 675.1953 675.2021 675.2776 675.3058 675.3058 675.3577 675.3577
   675.3691 675.5846 675.5846 675.6903 675.6903 675.9754 676.2979 676.2979
   676.3030 676.3101 676.3101 676.3148 676.6880 678.2288 682.6559 683.0575
   683.0575 683.7527 683.7527 684.2665 684.3056 684.3056 684.3255 684.3255
   684.3468 684.4081 684.4081 684.4283 684.4455 684.4455 684.4770 684.7019
   685.7963 685.7963 685.9305 685.9574 685.9574 686.1629 686.1881 686.1912
   686.1912 686.1944 686.1944 686.2034 686.3661 686.3661 686.3759 686.3759
   688.1104 689.3339 689.3339 689.9985 689.9985 690.8690 690.8690 690.9534
   690.9964 690.9964 691.5014 691.5593 691.5653 691.8188 691.8188 691.8241
   691.8381 691.8381 692.9833 692.9833 693.0157 693.0224 693.0224 693.0267
   693.0340 693.0340 693.0381 693.0398 693.0398 693.0940 694.0700 694.0700
   694.1993 694.2175 694.2175 694.4132 696.1231 696.1247 696.1247 696.1250
   696.1250 696.1450 697.9577 699.0726 699.0726 699.3318 699.3318 699.9411
   702.3884 702.3884 702.3974 702.4029 702.4029 702.4523 702.4536 702.9093
   702.9093 703.0628 703.0628 703.0801 703.3675 703.3675 703.4461 703.4461
   703.5502 703.7682 704.1450 704.1450 704.5479 704.5479 704.5575 704.5724
   704.6341 704.6341 704.6451 704.6451 704.6476 705.0242 707.1787 707.1793
   707.1868 707.1868 707.1869 707.1869 712.1503 712.1503 712.3383 712.3416
   712.4078 712.4078 712.4570 712.4570 712.9479 712.9893 712.9893 713.3078
   713.3445 713.3866 713.3866 713.4392 713.4392 713.4682 715.6763 715.6763
   715.6763 715.6763 715.7511 715.7511 718.4510 719.0932 719.0932 719.1081
   719.1081 719.1625 719.3378 721.0421 721.0421 722.3118 722.3983 722.3983
   722.5501 722.6332 722.6332 722.6450 722.6450 722.7028 722.7064 723.2048
   723.2056 723.2056 723.2100 723.2100 725.3649 725.3649 725.4035 725.4035
   725.6293 725.7554 726.6595 726.6595 726.6630 726.6631 726.6651 726.6651
   727.0388 727.0388 728.4070 728.7791 728.7791 729.0140 729.1162 729.1812
   729.1812 729.2532 729.2532 729.5736 729.5736 729.5741 729.5741 729.5914
   729.5917 729.6013 729.6641 729.6641 729.7112 729.7112 729.7198 729.9935
   729.9957 730.0002 730.0002 730.0076 730.0076 730.3241 731.5931 731.6003
   731.6003 731.6095 731.6095 731.6155 732.3596 732.3596 732.6475 732.6693
   732.6693 733.0630 733.9867 733.9867 733.9955 733.9955 734.0126 734.0128
   737.6810 737.6995 737.6995 737.7188 737.7188 737.7531 738.7725 738.9362
   738.9362 740.0606 740.0606 740.3109 740.3109 740.3558 740.3981 740.3981
   740.4025 741.3858 743.6971 743.6971 743.7541 743.7645 743.7645 743.8002
   743.9044 743.9081 743.9256 743.9256 743.9258 743.9258 744.0662 744.0825
   744.0893 744.0893 744.0954 744.0954 744.6302 744.6791 744.6810 744.6896
   744.6896 744.6907 744.6907 745.5265 751.3834 751.4504 751.4504 751.5421
   751.5421 751.8338 751.8465 751.8465 751.9811 751.9986 751.9986 752.1511
   754.1194 754.1194 754.1194 754.1194 756.8444 756.8444 757.2594 757.2594
   757.2680 757.2680 757.3358 757.4250 758.0315 758.0315 758.0653 758.4726
   758.9922 758.9923 759.2295 759.2295 759.2302 759.2302 759.4072 759.5242
   759.5242 759.5530 759.5530 759.5978 760.3450 760.3500 760.3500 760.3618
   760.3627 760.3627 761.4290 761.4290 761.4431 761.4559 761.4559 761.4601
   761.6139 762.7944 762.9306 762.9306 763.0093 763.0093 763.3847 763.4105
   763.4105 763.4395 763.4395 763.4822 764.3477 764.3492 764.3492 764.3537
   764.3537 764.3549 766.0442 766.0442 766.0666 766.0666 766.4116 766.4116
   768.8180 768.8630 768.8630 768.8703 768.8771 768.8771 768.9514 768.9514
   769.1540 769.2245 769.2245 769.2294 769.2645 769.2645 769.2764 769.2764
   769.2829 769.3294 773.0477 773.1905 773.1905 773.1924 773.1924 773.1934
   774.2662 774.4832 774.4832 775.6856 775.6856 776.2638 777.0535 777.0535
   777.3317 777.3317 777.4566 777.5996 777.6078 777.8067 777.8067 777.8164
   777.8164 777.8190 778.8860 778.8860 779.9599 779.9599 780.0092 780.4271
   780.4767 780.4767 780.5744 780.5759 780.5759 780.6211 780.6364 780.8679
   780.8679 781.1460 781.1460 781.2663 781.6375 781.6705 781.6705 781.7985
   781.7985 781.8492 787.6376 787.6376 787.8863 787.8863 787.8864 787.9553
   788.7914 789.1469 789.1469 789.2438 789.2438 789.2943 789.3505 789.3505

          k = 0.0000-1.0000 0.0000 (  4456 PWs)   bands (ev):

   -17.3036  -6.8622  -3.5525  -2.7119  -2.7119   8.0293   8.0293   8.2135
    10.3319  14.1538  16.5695  17.0665  17.7253  17.8710  17.8710  17.9398
    17.9398  18.4784  18.8447  18.8447  20.0098  21.4045  24.2630  24.2630
    28.4018  28.8494  28.8494  29.0404  33.1580  34.7775  34.9030  34.9482
    35.4382  35.4382  39.3339  39.3339  40.5425  40.5875  42.9572  42.9572
    44.1682  45.3649  45.4038  47.9996  48.5471  49.6614  49.6614  50.6366
    55.4933  55.4933  56.5358  56.5358  57.4626  59.3329  60.2592  60.2592
    60.6874  60.8759  60.8759  61.4630  64.9834  65.2348  65.7907  65.8239
    66.3739  66.3739  67.8076  68.4938  68.4938  68.4947  68.5346  70.3650
    70.3650  71.7207  72.4452  73.4449  75.9102  76.8773  79.1035  79.1035
    79.8033  80.1330  80.1330  80.2072  80.2072  80.6379  81.2300  81.9690
    82.3161  82.4978  84.0639  84.0639  84.7165  84.7165  85.0073  85.0073
    89.2118  89.4954  89.6771  90.4109  90.4109  92.6915  93.1520  96.6914
    96.6914  97.0061  97.0061  97.1957  97.2487  98.2412  99.2063  99.3632
   101.7393 101.7801 101.7801 102.6476 103.1200 103.1200 103.4326 104.4415
   104.4415 104.9767 105.6620 108.0960 109.2787 110.0883 110.1623 110.1623
   114.0643 114.0643 115.6902 116.5655 117.0010 117.2283 117.6156 117.6156
   118.3531 118.3531 120.0836 121.0413 121.1271 121.2857 121.4188 121.4188
   121.8449 124.1221 124.1333 124.2601 124.3782 124.3782 124.8621 124.8621
   125.1535 125.1535 125.1961 125.6637 125.8330 129.0484 130.8653 130.8653
   130.9120 130.9120 134.1028 134.5445 134.5445 134.8177 135.3471 135.3471
   136.3641 136.4995 136.5105 136.7183 136.7183 137.0962 137.1388 137.3277
   137.5398 138.1495 138.1495 138.5965 138.5965 138.6309 139.0870 139.1848
   139.1848 139.5697 140.1885 140.5200 140.8028 144.1978 144.8370 145.3130
   145.3130 145.3652 145.3652 145.5562 145.7494 146.0801 148.2722 150.9760
   150.9760 153.0940 153.3844 153.3844 153.9229 154.6855 155.2674 155.2674
   155.4481 156.6956 156.8965 156.8965 157.8039 157.9107 157.9107 158.3347
   158.9936 159.4680 159.5401 159.8449 159.9683 159.9683 161.0957 161.0957
   161.3073 161.5781 161.5781 162.2021 162.6981 163.2384 164.4510 167.0704
   167.0704 167.6464 170.2440 176.2960 176.5073 176.5073 176.6197 176.6197
   176.8361 176.8361 177.4878 177.6295 178.2580 179.2906 179.2906 179.7494
   179.8158 179.8158 179.8371 179.8371 180.1102 180.1674 180.6261 180.6267
   181.0560 182.3481 182.3481 183.8340 184.4374 184.7756 185.2859 185.2859
   185.7099 185.8095 186.3411 186.3411 186.5207 186.7900 188.7219 188.7219
   188.9103 190.6369 191.4879 191.6469 191.6469 193.0476 194.2384 194.4939
   194.7657 194.7657 195.6150 195.6150 195.8297 196.0979 196.0979 196.1397
   196.1397 196.4108 196.5186 196.6896 197.5401 197.5401 197.8375 197.8375
   197.8460 197.8495 198.3287 199.5235 200.3646 200.5570 200.5570 200.5612
   200.6566 201.9781 201.9781 202.5472 204.4381 205.1932 206.3691 206.3691
   209.2162 209.2162 209.3952 209.7242 209.8197 210.1626 210.1776 210.1776
   211.7295 212.8821 212.8821 212.8948 213.2490 213.3084 213.3084 213.5219
   213.7874 214.1430 214.1885 214.4094 215.1879 215.1879 215.2919 215.2919
   215.7232 215.7232 217.2226 217.3750 219.5126 220.3155 220.4511 222.5397
   222.5397 222.6326 222.9057 222.9057 223.4992 224.2165 224.2165 224.2830
   224.2833 226.9468 228.0652 228.3562 228.8342 229.9363 229.9363 230.2336
   230.4138 230.4983 230.5060 230.5060 230.6129 230.6129 231.1171 231.1171
   231.3358 231.3901 232.7781 233.1034 233.4983 234.2185 234.2185 237.0559
   237.2919 237.2919 238.7048 238.7048 238.8516 239.4276 239.5498 239.6309
   239.7657 239.8181 239.8181 239.9734 239.9734 240.1513 240.2240 240.8198
   241.1834 241.1834 242.0220 244.7017 245.4477 245.4477 245.6733 246.0156
   247.7304 247.8544 248.2881 248.2881 248.8909 249.3326 249.3326 249.5356
   249.9856 249.9856 250.6375 250.6375 251.7641 251.7641 251.9353 252.4521
   252.5394 252.5518 252.5518 253.5258 254.1159 254.5940 255.0836 255.1768
   255.1768 255.4916 255.6839 256.2757 256.2783 256.2953 256.2953 256.7895
   257.5839 258.3560 259.1768 259.2973 259.2973 259.6042 259.6358 259.6358
   260.1351 260.1373 260.2518 260.3966 260.3966 260.4192 261.0192 261.5867
   261.5867 264.0519 264.0519 267.4256 267.8545 267.8545 268.6110 268.6110
   268.9574 271.1377 271.1699 271.3504 271.9473 271.9473 272.2125 272.2525
   272.2525 272.8134 272.8134 273.4777 273.7126 274.0460 274.3265 275.0006
   276.2330 276.5597 276.5597 279.2808 279.4472 279.4472 280.1481 280.9730
   283.0831 283.0831 284.7443 286.2099 286.3316 286.3316 287.0754 288.0277
   289.0126 289.0126 289.0178 289.1278 289.3868 289.3868 289.5718 289.8308
   290.7908 290.7908 290.9512 291.5096 291.9506 291.9857 291.9857 293.0363
   293.0402 293.0402 294.8713 294.8713 294.9934 295.1048 295.2813 295.5325
   295.6615 295.8997 296.0752 296.0752 296.6148 296.6148 296.7158 296.7308
   296.7579 296.7579 296.7961 296.8060 296.8521 296.8521 296.9128 297.1493
   297.5858 298.5900 300.7685 300.7685 301.0026 301.6609 303.1854 303.4284
   303.4284 305.0573 305.0573 306.0731 306.1772 307.5413 307.7883 307.7883
   307.8235 308.1331 308.1638 308.1638 308.3072 308.5232 308.5232 308.5860
   308.5921 309.1978 309.4525 309.4525 309.9202 310.9322 311.2330 311.2330
   311.2714 311.2714 311.5470 311.6640 311.8490 311.9951 312.0205 312.0205
   312.0251 312.6355 312.8727 312.8727 312.8986 313.0009 313.0009 314.2687
   314.2687 316.0950 316.0950 316.6936 318.7818 318.7818 318.8469 318.9155
   319.0390 319.0390 319.1047 319.1443 319.2404 319.2404 319.8518 320.7503
   321.4065 321.9473 322.2800 323.5081 323.5081 324.5827 324.8970 325.1265
   325.1265 325.1343 325.6958 326.4489 326.8708 326.8708 327.0295 327.7813
   329.1517 329.1606 329.4011 329.6122 329.6122 330.0377 330.0461 330.0461
   330.4280 330.7236 330.7236 331.2245 331.4520 331.4520 332.0538 332.3982
   332.4488 332.4488 332.6511 332.6720 332.6720 334.4849 335.2038 335.2259
   335.2690 335.5213 336.1395 336.1395 336.1572 336.4425 336.4425 336.6190
   336.6498 340.1699 340.3317 340.3317 341.0604 341.9163 341.9163 344.2540
   344.9887 345.2352 345.2352 345.4634 345.8417 345.8417 346.6173 346.6173
   346.9244 347.0461 347.7213 347.7213 348.4723 348.5460 349.8777 349.9982
   349.9982 350.2066 350.5594 350.6918 350.7143 350.8383 351.3314 351.3314
   351.3541 351.4157 351.4157 351.9642 352.1077 352.1788 352.1788 352.4072
   352.4072 352.4277 352.4857 354.3496 354.7223 354.8047 357.3185 357.3185
   357.4132 357.4132 357.4241 357.4241 358.0163 358.9434 358.9471 360.0469
   362.4511 362.4962 362.4962 362.7767 363.7364 363.7364 364.2750 364.9051
   364.9051 365.8354 366.8201 366.8382 367.1010 367.2989 367.3596 367.3596
   367.4583 367.8091 367.8813 367.8813 368.0406 368.0406 368.1158 368.8596
   368.8596 369.1470 369.1470 369.2899 369.6148 369.6222 369.6441 369.6441
   369.6672 369.6811 370.0107 370.0107 370.2084 370.2956 370.7759 372.7294
   373.0445 373.0445 373.0590 373.6445 373.6735 374.0371 374.0371 374.8030
   374.8030 376.1352 377.0201 377.7272 380.0349 380.6190 381.0752 381.0752
   381.5466 382.1825 382.6031 383.1045 383.1045 383.6203 384.4627 384.4781
   384.4781 384.5298 384.8581 385.4296 386.5324 386.7614 386.7614 386.9819
   386.9834 386.9834 387.5549 388.7150 389.4155 389.4155 390.9645 390.9645
   390.9698 390.9698 390.9706 391.0184 391.1495 391.1495 391.1530 391.1561
   391.7437 391.7437 392.0629 392.2731 393.3256 393.7630 393.7630 393.8742
   393.8996 393.9440 395.2213 395.2280 395.4403 395.4403 396.6864 399.8295
   399.8295 401.2496 401.8478 401.8478 402.0441 402.5634 403.0652 403.4048
   403.4048 403.6623 403.6623 404.1013 404.1013 405.6012 405.7124 407.2791
   407.2791 407.5538 407.6822 408.0847 408.5617 408.8851 408.8851 409.1251
   409.2133 409.4807 409.4807 409.6212 409.9616 411.7194 411.8941 411.9590
   411.9590 412.2445 412.3626 412.3651 412.5155 412.5155 412.6353 413.2884
   413.2884 414.2890 414.3245 414.6041 414.6515 414.6515 414.6685 416.7826
   416.7826 417.2948 418.3829 418.5174 418.5174 420.1307 420.1307 420.1940
   420.1940 420.3823 421.3660 421.5161 422.6486 422.7490 422.7797 422.7797
   422.8304 422.9122 422.9214 422.9518 422.9518 423.1388 423.2007 423.2007
   423.6337 423.6750 423.7489 423.7489 423.8318 423.8520 423.8659 424.0691
   424.0691 424.1185 424.1185 424.2089 424.2439 424.6720 425.0167 425.2683
   425.3054 425.4963 425.4963 425.7044 425.8583 425.8583 425.8620 425.8620
   426.7315 426.9502 426.9502 427.0932 427.1880 427.1880 427.3956 427.3956
   427.4404 427.4809 427.4942 427.7541 427.8611 428.0122 428.2504 428.4944
   428.4944 428.6580 428.6580 428.7570 428.9120 432.5848 432.6128 432.6128
   432.6649 432.6786 432.7412 432.7412 432.7465 434.0709 434.5569 434.5788
   434.7420 434.7420 434.7969 434.7969 434.9672 434.9808 441.0559 441.1497
   441.7588 441.7588 442.2118 442.8348 442.8373 442.8396 442.8436 442.8436
   443.3223 443.3223 443.7891 443.9047 443.9047 443.9068 444.8505 444.8505
   445.5473 447.8380 448.1611 448.1611 448.3561 448.4420 448.4420 448.8186
   449.0191 449.0191 449.0824 449.0928 449.0928 449.1633 449.3085 449.8837
   449.9720 449.9991 449.9991 450.0810 450.2381 450.4253 450.4680 450.4957
   450.4957 450.5566 450.5566 450.6034 450.7118 452.4466 454.5717 454.5717
   455.3713 457.5889 457.5889 458.3680 458.6701 458.6701 458.9529 459.7913
   459.9524 460.4801 460.7588 460.7588 460.9579 461.5417 461.6893 461.8676
   461.8676 461.9307 461.9693 461.9693 462.0270 462.5311 462.8183 463.0948
   463.0948 463.1938 463.1938 464.0395 464.0500 464.1324 464.9513 464.9593
   464.9593 465.6753 465.7883 465.7883 466.8553 469.0131 469.3147 469.5163
   469.6319 469.6319 469.6853 469.6871 469.7042 469.7042 469.7615 472.7897
   472.7897 472.8181 472.8274 472.8870 472.8992 472.8992 472.9150 473.2979
   473.3522 473.3522 475.1228 477.3797 477.7763 477.7763 477.8460 478.0335
   478.5170 478.5170 478.8890 479.0084 479.3308 479.3308 479.3582 480.0370
   480.0706 480.5672 480.5672 481.8084 481.9010 481.9547 482.1752 482.1752
   482.2551 482.2551 482.6090 483.8297 484.0437 484.8118 484.8118 484.9439
   484.9754 484.9754 485.1082 485.1201 485.4089 485.5451 485.5748 485.5748
   485.6559 485.6703 485.9867 485.9867 486.0510 486.0510 486.3655 486.3688
   486.5193 486.5193 487.5624 487.5624 487.6450 487.8696 487.8696 487.8953
   487.9247 487.9266 487.9266 489.8160 491.0723 491.1250 491.1969 491.1969
   494.6685 494.6803 494.7649 494.7649 495.6427 495.8005 496.0886 496.0886
   497.6870 497.7933 498.0208 498.2309 498.9636 498.9636 499.5877 499.9082
   499.9082 499.9828 499.9828 499.9882 500.0603 500.0661 500.0826 500.0826
   500.1018 500.1278 501.3264 501.3264 503.3571 503.6794 503.6794 504.4721
   504.5806 504.5936 505.3737 505.8651 505.9754 505.9754 506.2275 506.3747
   506.3832 506.3893 506.3893 507.2414 507.2414 507.2453 507.2865 507.2865
   507.3875 507.8887 507.8887 508.0513 508.1153 508.1217 508.2689 508.2689
   508.3887 509.4662 512.0512 515.1715 515.1715 517.0162 517.2412 517.2412
   517.5050 517.7680 518.0865 518.2075 518.2075 518.4375 518.5278 518.9910
   519.0012 519.1733 519.1733 519.2389 519.2389 519.8341 519.8341 519.9667
   520.1244 520.5150 521.0161 521.1638 521.1638 521.1645 521.2038 521.2038
   521.5890 521.6445 521.6445 521.7498 521.7498 521.7944 521.8140 523.0322
   523.3242 525.1261 525.6778 526.5359 526.5359 527.2015 527.2065 527.2178
   527.2178 527.6585 527.9562 527.9562 528.2765 528.3067 528.3067 528.3462
   528.3503 528.4071 528.4071 528.4149 528.4371 528.4604 528.7143 528.8534
   528.8534 528.8604 528.8627 529.1098 529.1098 529.1691 529.1800 529.8287
   530.0321 530.0749 530.0961 530.0961 531.0995 531.0995 531.1153 531.1153
   532.6709 532.6717 535.8536 537.1974 537.1974 537.8323 538.0538 538.0538
   538.4489 538.4489 538.5464 538.5938 539.1327 539.9872 539.9872 540.2636
   540.3418 540.6022 540.6975 540.7989 540.7989 540.8095 540.9806 540.9900
   540.9900 541.7903 541.8927 542.2744 542.2744 542.6213 542.6213 542.8068
   542.8123 544.2615 545.2365 545.2365 545.4824 545.5318 545.6113 545.8294
   545.8294 545.9844 546.0483 546.0677 546.2570 546.2805 546.2805 546.4148
   546.4148 547.5580 547.5580 547.5798 547.5862 547.6005 547.6889 547.6889
   547.7652 547.8464 552.0161 552.0161 552.6026 554.1425 554.1425 554.3122
   554.3955 554.5744 554.6797 554.6797 554.7238 555.6698 555.7150 555.7150
   555.8182 557.3807 557.9090 558.1392 558.1975 558.1975 558.5862 558.5862
   558.6492 558.7396 559.1316 559.1316 559.1655 559.2475 559.2475 559.2904
   559.3124 559.4275 561.5040 561.5040 561.9150 562.2325 562.2610 562.2700
   562.2700 562.9029 563.3875 564.4894 564.5035 564.5424 564.5424 564.5565
   564.5737 564.5796 564.5796 564.5882 564.5882 564.8945 564.8945 565.0338
   565.0899 565.1615 567.1021 567.1021 567.6176 569.5964 569.7809 569.7981
   569.7981 569.8044 569.8617 569.8723 569.8723 569.9305 569.9563 572.7843
   576.1123 576.2715 576.3583 576.3583 577.1068 577.1984 577.1984 577.7268
   577.7341 577.8685 577.8685 578.0360 578.0360 578.2982 578.2996 578.4006
   578.4006 578.4468 578.6224 578.7835 578.9322 578.9322 579.0062 579.4173
   581.2422 581.2422 581.3779 581.6455 582.0928 582.0928 582.1078 582.2087
   582.3105 582.3105 582.3581 582.3733 582.4317 582.4317 582.4622 582.9047
   583.5419 584.1186 584.1186 584.6653 584.6653 585.0408 585.0531 585.0915
   585.1253 585.4763 585.4763 585.4828 585.4828 585.6456 585.6489 586.1396
   586.8538 586.8538 586.9100 586.9351 591.4982 591.4982 592.2766 593.6111
   593.9544 594.5374 594.5374 594.6073 595.1028 595.1050 595.2858 595.4521
   595.4521 595.5464 595.5464 595.5714 595.5714 596.2257 596.2257 596.4871
   596.6154 596.8127 596.8520 597.0272 597.2498 597.2498 597.2749 597.3662
   597.3662 597.6988 597.6988 597.8455 597.9300 598.3084 598.5027 598.5027
   598.5037 598.6509 598.7937 598.7937 598.8427 598.8821 598.8821 598.8881
   599.0905 599.2749 599.3809 599.3809 599.4401 599.6411 599.6411 599.7048
   599.9949 601.0583 601.0714 601.0871 601.0871 601.0959 601.1107 601.1107
   601.1560 601.8001 602.0744 602.0771 602.5156 602.5770 602.5969 602.6187
   602.6187 602.7006 602.7289 602.7289 602.7386 602.7386 602.7462 602.7637
   602.8080 602.8080 602.8464 603.3372 604.2153 604.2153 604.9231 604.9309
   607.3184 607.3184 607.3935 607.4277 607.7735 607.7818 607.7818 607.7900
   607.8141 607.8254 607.9630 607.9630 607.9788 607.9788 608.0939 608.1015
   614.7334 614.7334 615.8407 617.2054 617.2635 617.3400 617.3400 617.6586
   617.7351 617.7416 617.7416 617.8371 617.8445 617.8445 617.8981 617.9913
   618.0307 618.0996 618.2418 618.2418 618.7757 618.8800 618.8800 618.9111
   618.9111 618.9190 619.0032 619.0210 619.0571 619.0605 619.0605 619.0806
   619.0806 619.1534 619.2859 619.5914 619.7479 619.7614 619.7622 619.7622
   619.7673 619.7673 619.8764 620.3092 620.3092 620.4072 620.4570 620.4699
   620.4964 620.4964 620.7051 621.5042 621.9482 621.9482 622.1145 622.3140
   622.3684 622.3684 622.4248 622.4470 632.7009 632.7009 632.7254 632.8537
   633.0119 633.0119 633.0309 633.0320 635.8682 636.8726 636.8726 637.7786
   637.8004 637.8175 637.8175 637.8336 637.8336 637.8512 637.8597 638.1266
   638.3604 638.3604 638.8961 639.0351 639.9114 639.9114 639.9319 640.0486
   640.1043 640.1043 640.3963 640.9856 641.1282 641.2918 641.2918 641.3372
   641.3822 641.3822 641.3866 641.4711 641.4933 641.6405 641.6405 641.7196
   641.7225 641.7225 642.0112 642.1285 642.1285 642.2203 642.2659 642.9120
   642.9348 642.9348 643.0662 643.2952 643.3258 643.3258 643.3552 643.6301
   643.8755 643.8755 643.8815 643.9067 645.5795 645.5922 645.6660 645.6660
   645.6731 645.6731 645.7512 645.7608 648.2395 648.2395 649.4371 650.3132
   650.9513 651.7964 651.7964 651.8975 651.9412 653.5136 653.5136 653.7005
   653.8107 653.8107 654.4900 654.5015 655.0337 655.0337 655.3241 655.5809
   655.6213 655.6456 655.6456 656.3367 656.7870 656.7956 656.8495 656.8495
   656.8588 656.8588 657.0027 657.4921 658.5716 658.6684 658.6684 658.7292
   658.8085 658.8829 658.8829 659.6576 661.2493 661.2550 661.2574 661.2574
   661.3995 661.4002 661.4016 661.4016 663.3895 663.3942 663.4040 663.4040
   663.4351 663.4351 663.4616 663.4680 665.8770 665.8770 665.8902 665.8951
   665.9058 665.9072 665.9072 665.9139 672.2290 672.7527 672.7527 673.4006
   673.4032 673.4521 673.4660 673.4660 673.4754 673.4754 673.5257 673.5278
   673.5300 673.5482 673.5535 673.5535 673.5750 673.6609 673.6762 674.0386
   674.0386 674.1491 674.1491 674.6788 676.7462 676.7462 678.4057 678.4122
   678.8344 678.8344 678.8440 678.8440 679.1876 679.1904 679.5577 680.0399
   680.9467 680.9467 681.0211 681.0480 681.2045 681.2045 681.2632 681.3450
   681.3886 681.5294 681.5294 681.5740 681.6264 681.7147 681.9065 681.9065
   682.0254 683.4219 684.2922 684.3573 684.3573 684.4239 684.4239 684.4298
   684.4413 684.4428 693.1395 693.1395 693.2644 693.2644 693.2746 693.2909
   693.3763 693.3800 693.4029 693.4029 693.7208 693.7275 693.7275 693.7386
   693.8043 693.8058 693.8065 693.8065 693.9222 695.8406 696.2690 696.3034
   696.3034 696.3054 696.3054 696.3746 696.6216 696.6403 696.9378 696.9378
   697.0574 697.9312 697.9500 697.9500 697.9867 698.1321 698.5873 698.6816
   698.6816 698.6992 699.0149 699.0149 699.1423 699.5592 699.8783 699.8966
   699.8966 699.9347 700.1895 700.1911 700.1911 700.1913 700.1913 700.2418
   700.2418 700.2605 700.4010 700.4010 700.4142 700.4683 700.4835 700.4835
   700.5113 700.5477 702.0530 702.0635 702.0635 702.0655 702.0655 702.0670
   702.0670 702.0676 703.5360 703.5360 703.5435 703.5437 703.6149 703.6300
   703.6300 703.6450 706.2935 707.1186 707.1199 707.4886 707.4886 708.1609
   708.1626 708.2267 708.2267 709.0525 709.0525 709.6089 709.6707 709.9817
   710.0561 710.3575 710.4793 710.4793 710.6564 710.6564 710.9073 710.9527
   710.9527 710.9926 711.0799 711.6474 713.0209 713.0564 713.0564 713.0698
   713.0792 713.0792 713.1098 713.1690 713.6964 713.7108 713.7856 713.7856
   713.8026 713.8026 713.8728 713.8889 715.7736 716.3359 716.3359 716.3818
   716.3818 716.4342 716.4461 716.6862 716.6992 716.7224 716.8439 716.8439
   716.8449 716.8449 717.1768 717.2030 717.4811 717.4948 717.7874 717.7874
   717.7952 717.7952 717.9597 717.9728 718.4714 718.4814 718.4814 718.4873
   718.7820 718.7844 718.7869 718.7869 719.7288 719.7693 719.7693 719.7879
   719.8691 719.8881 719.8881 719.9058 720.3585 720.3585 720.6108 720.7617
   720.7617 720.7670 720.7910 720.8732 724.3792 724.3877 724.4512 724.4512
   724.4584 724.4584 724.5072 724.5165 727.3351 729.6048 730.7088 730.7088
   731.4504 731.7198 731.7198 731.7655 731.8337 731.8337 731.8528 731.9538
   731.9550 731.9550 732.2404 732.2492 732.2828 732.2931 732.2945 732.2945
   732.3126 732.3126 732.6297 733.0103 733.0157 733.1747 733.2504 733.2504
   733.3223 733.3223 733.3823 733.4014 733.4570 733.4570 733.4708 733.4821
   733.4901 733.4901 733.6224 733.6224 733.7841 733.8104 733.8278 733.8451
   733.8451 734.1251 734.7497 734.7497 734.7498 734.7520 734.7799 734.7801
   734.7801 734.7968 735.7865 735.7979 738.7690 738.7690 738.7691 739.1902
   739.2167 739.2174 739.2174 739.7274 739.7440 739.7461 739.7559 739.7559
   739.7602 739.7602 739.7828 739.7964 740.9272 740.9348 743.5521 743.5521
   743.5533 743.5533 745.1082 745.1085 749.6002 749.9278 749.9278 750.4901
   750.4901 750.5076 750.5262 750.5916 750.8682 750.8682 751.5822 751.6252
   751.7510 751.7787 751.7787 752.2366 752.6246 752.6246 752.6484 752.6532
   753.1566 753.1572 753.1655 753.1655 753.5815 753.5815 753.7358 753.8801
   754.2277 754.2344 754.2344 754.2376 756.8284 757.0222 757.0222 757.0508
   757.0606 757.0685 757.0685 757.0809 757.0809 757.0824 757.0866 757.0886
   757.0886 757.0945 757.0985 757.2023 762.3396 762.3396 762.3881 762.4078
   762.4286 762.4329 762.4329 762.4483 764.9995 764.9995 766.4175 766.6051
   766.6335 766.6335 766.6740 766.7686 768.4419 768.4419 768.4988 768.4994
   768.6620 769.4955 769.4955 769.7616 769.7931 769.7931 769.8817 769.9088
   769.9225 769.9225 769.9235 769.9879 769.9895 769.9895 770.0029 770.0264
   770.3508 770.8152 770.8152 771.3460 771.3470 771.3470 771.3581 772.0001
   772.2191 772.2216 772.2668 772.2668 772.2917 772.2917 772.3603 772.3604
   773.4095 773.4095 773.4192 773.4246 773.4308 773.4308 773.4329 773.4393
   773.9929 774.0904 774.1761 774.1761 774.1944 774.1944 774.2517 774.2634
   774.5723 774.5723 775.1963 775.2856 775.3402 775.3725 775.3725 775.6603
   776.6580 776.9124 776.9594 776.9594 776.9617 776.9626 776.9792 776.9794
   776.9827 776.9827 777.0864 777.0864 777.2797 777.2797 777.2981 777.2981
   777.4463 777.5053 777.6278 777.8457 777.8457 777.8473 777.8726 777.8897
   777.9313 777.9313 777.9489 777.9792 778.0150 778.0314 778.0314 778.0460

     the Fermi energy is     9.1351 ev
     (compare with:     9.6044 eV, computed in scf)

     Writing all to output data dir out/mp-1342.save/
 
     init_run     :      0.08s CPU      0.09s WALL (       1 calls)
     electrons    :   1560.65s CPU   1674.02s WALL (       1 calls)

     Called by init_run:
     wfcinit      :      0.00s CPU      0.00s WALL (       1 calls)
     potinit      :      0.01s CPU      0.02s WALL (       1 calls)
     hinit0       :      0.02s CPU      0.03s WALL (       1 calls)

     Called by electrons:
     c_bands      :   1560.65s CPU   1674.02s WALL (       1 calls)
     v_of_rho     :      0.01s CPU      0.01s WALL (       1 calls)

     Called by c_bands:
     init_us_2    :      0.00s CPU      0.00s WALL (       3 calls)
     init_us_2:cp :      0.00s CPU      0.00s WALL (       3 calls)
     paro_k       :   1508.17s CPU   1617.50s WALL (       3 calls)

     Called by paro_*:
     h_psi        :     12.82s CPU     13.26s WALL (     499 calls)
     g_psi        :      0.21s CPU      0.25s WALL (   52226 calls)

     Called by h_psi:
     h_psi:calbec :      0.31s CPU      0.32s WALL (     499 calls)
     vloc_psi     :     12.19s CPU     12.60s WALL (     499 calls)
     add_vuspsi   :      0.24s CPU      0.25s WALL (     499 calls)

     General routines
     calbec       :      0.31s CPU      0.32s WALL (     499 calls)
     fft          :      0.01s CPU      0.01s WALL (      10 calls)
     fftw         :     11.07s CPU     11.43s WALL (   85900 calls)
 
     Parallel routines
 
     PWSCF        :  26m 1.48s CPU  27m55.37s WALL

 
   This run was terminated on:  16:40:52  17Nov2023            

=------------------------------------------------------------------------------=
   JOB DONE.
=------------------------------------------------------------------------------=
