
     Program PWSCF v.7.1 starts on  5Apr2024 at 16:55:20 

     This program is part of the open-source Quantum ESPRESSO suite
     for quantum simulation of materials; please cite
         "P. Giannozzi et al., J. Phys.:Condens. Matter 21 395502 (2009);
         "P. Giannozzi et al., J. Phys.:Condens. Matter 29 465901 (2017);
         "P. Giannozzi et al., J. Chem. Phys. 152 154105 (2020);
          URL http://www.quantum-espresso.org", 
     in publications or presentations arising from this work. More details at
     http://www.quantum-espresso.org/quote

     Parallel version (MPI), running on     8 processors

     MPI processes distributed on     1 nodes
     237933 MiB available memory on the printing compute node when the environment starts
 
     Reading input from pw_BN_nscf_k0_E62.in
Warning: card &IONS ignored
Warning: card / ignored
Warning: card &CELL ignored
Warning: card / ignored

     Current dimensions of program PWSCF are:
     Max number of different atomic species (ntypx) = 10
     Max number of k-points (npk) =  40000
     Max angular momentum in pseudopotentials (lmaxx) =  4

     Atomic positions and unit cell read from directory:
     out/BN.save/
     Atomic positions from file used, from input discarded
 
 
     R & G space division:  proc/nbgrp/npool/nimage =       8
     Subspace diagonalization in iterative solution of the eigenvalue problem:
     one sub-group per band group will be used
     scalapack distributed-memory algorithm (size of sub-group:  2*  2 procs)

 
     Parallelization info
     --------------------
     sticks:   dense  smooth     PW     G-vecs:    dense   smooth      PW
     Min          47      47     11                 5093     5093     627
     Max          48      48     12                 5114     5114     634
     Sum         379     379     91                40811    40811    5055
 
     Using Slab Decomposition
 


     bravais-lattice index     =            4
     lattice parameter (alat)  =       4.7160  a.u.
     unit-cell volume          =     618.7652 (a.u.)^3
     number of atoms/cell      =            2
     number of atomic types    =            2
     number of electrons       =         8.00
     number of Kohn-Sham states=         1200
     kinetic-energy cutoff     =      62.0000  Ry
     charge density cutoff     =     248.0000  Ry
     Exchange-correlation= PBE
                           (   1   4   3   4   0   0   0)

     celldm(1)=   4.716000  celldm(2)=   0.000000  celldm(3)=   6.811990
     celldm(4)=   0.000000  celldm(5)=   0.000000  celldm(6)=   0.000000

     crystal axes: (cart. coord. in units of alat)
               a(1) = (   1.000000   0.000000   0.000000 )  
               a(2) = (  -0.500000   0.866025   0.000000 )  
               a(3) = (   0.000000   0.000000   6.811990 )  

     reciprocal axes: (cart. coord. in units 2 pi/alat)
               b(1) = (  1.000000  0.577350  0.000000 )  
               b(2) = (  0.000000  1.154701  0.000000 )  
               b(3) = (  0.000000  0.000000  0.146800 )  


     PseudoPot. # 1 for B  read from file:
     /usr/scratch4/magr4985/FGWC/FGWC/pseudo/SG15/B.upf
     MD5 check sum: eb3cbeacc2d324d57d903df00f564d27
     Pseudo is Norm-conserving, Zval =  3.0
     Generated using ONCVPSP code by D. R. Hamann
     Using radial grid of  602 points,  4 beta functions with: 
                l(1) =   0
                l(2) =   0
                l(3) =   1
                l(4) =   1

     PseudoPot. # 2 for N  read from file:
     /usr/scratch4/magr4985/FGWC/FGWC/pseudo/SG15/N.upf
     MD5 check sum: c233fa8df51455e992258b7c3dee8a9f
     Pseudo is Norm-conserving, Zval =  5.0
     Generated using ONCVPSP code by D. R. Hamann
     Using radial grid of  602 points,  4 beta functions with: 
                l(1) =   0
                l(2) =   0
                l(3) =   1
                l(4) =   1

     atomic species   valence    mass     pseudopotential
        B              3.00    10.81100     B ( 1.00)
        N              5.00    14.00670     N ( 1.00)

     12 Sym. Ops. (no inversion) found



   Cartesian axes

     site n.     atom                  positions (alat units)
         1           B   tau(   1) = (   0.0000000   0.5773502   0.0000000  )
         2           N   tau(   2) = (   0.5000000   0.2886752   0.0000000  )

     number of k points=     1  Gaussian smearing, width (Ry)=  0.0005
                       cart. coord. in units 2pi/alat
        k(    1) = (   0.0000000   0.0000000   0.0000000), wk =   2.0000000

     Dense  grid:    40811 G-vectors     FFT dimensions: (  24,  24, 162)

     Estimated max dynamical RAM per process >     127.10 MB

     Estimated total dynamical RAM >    1016.79 MB

     The potential is recalculated from file :
     out/BN.save/charge-density

     Starting wfcs are random

     Band Structure Calculation
     Davidson diagonalization with overlap

     ethr =  5.00E-06,  avg # of iterations =  9.0

     total cpu time spent up to now is       61.0 secs

     End of band structure calculation

          k = 0.0000 0.0000 0.0000 (  5055 PWs)   bands (ev):

   -21.4317  -9.0300  -5.0945  -5.0945   0.9668   1.9002   2.3095   3.6625
     4.2112   6.4787   7.1441   7.9537   7.9537   9.2346  10.0376  11.7318
    12.8396  16.4755  17.8816  22.0185  22.4148  24.4763  26.4629  26.4629
    28.1984  29.3598  29.3599  31.8342  31.9292  32.2780  32.2780  33.0366
    33.0366  33.4295  33.5888  33.9369  34.4164  34.4164  34.4205  34.4205
    34.4916  34.4916  34.5623  34.6330  34.6330  34.6456  34.7921  35.5256
    36.0550  36.0550  36.2733  36.2733  36.3646  36.3704  36.3704  36.5840
    36.5840  36.6048  37.1204  38.1983  38.7624  38.9633  38.9633  39.4746
    39.4746  39.5053  39.5053  39.7571  39.9166  39.9166  40.5852  40.6586
    40.8531  42.3542  42.8298  42.8298  43.7413  43.7413  43.9018  43.9018
    44.2242  44.3066  44.4076  44.4076  45.1227  47.0268  47.0268  47.2842
    48.2027  49.1443  49.1443  49.3978  49.3978  49.6540  49.9757  49.9757
    50.5411  50.8426  50.8617  51.4860  51.4860  53.7717  55.6254  55.6254
    55.7723  55.9952  55.9952  56.4181  56.6201  56.6201  57.3550  57.3623
    57.3623  59.6800  61.1681  61.3585  63.1396  63.1396  63.6703  63.6703
    64.0672  64.1286  64.3285  64.3285  64.7263  64.7263  65.0410  69.0299
    70.4037  70.7669  70.7669  72.2659  72.3272  72.3272  72.4100  72.4100
    72.6582  73.0812  73.0812  73.3555  73.3555  74.0464  74.1080  76.9888
    78.5112  80.1741  80.9550  80.9550  81.3275  82.2027  82.2027  82.3355
    82.8425  82.8425  83.0319  83.0319  85.0385  85.2976  87.6272  87.9176
    87.9645  87.9645  90.1074  90.3505  90.3505  92.4825  92.4825  92.8090
    93.1697  93.1697  93.2321  93.6417  93.6417  94.0693  94.0856  94.0856
    94.2751  94.2751  94.7734  96.3680  96.3680  97.7647  97.7647  97.7777
    98.0648  98.1932  98.7790  98.7790  98.8004  98.8004  98.9361  98.9361
    98.9502  98.9502  98.9596  98.9962  99.0564  99.2660 100.2299 100.2299
   100.3579 100.5974 100.6261 100.6261 100.8326 100.8326 100.9282 100.9631
   100.9631 101.0150 101.4720 101.6633 102.8555 102.8555 103.2097 103.7595
   103.7595 103.8857 104.1133 104.1133 104.1343 104.1343 104.2507 104.2796
   104.8635 105.0157 105.0157 105.3192 105.3192 105.4634 105.5977 105.5977
   105.8377 105.8377 105.8794 105.8794 106.3444 107.8827 108.2592 108.2592
   108.5637 108.5637 108.5799 108.5799 108.7066 108.7353 108.8520 108.8520
   109.3069 109.6449 111.6526 113.5231 113.5231 113.5804 113.5942 113.5942
   113.8581 114.0823 114.0823 114.1327 114.1327 114.2755 114.3034 114.6670
   114.8309 116.3636 117.8801 117.8801 117.8887 117.8887 118.0986 118.4731
   118.4731 118.6983 118.6983 119.4028 120.0813 120.1938 120.1938 120.2146
   120.2146 120.4871 120.6218 120.6218 120.7638 120.7638 120.9324 120.9555
   122.2682 123.3512 123.8658 123.8658 124.6095 124.6935 124.6935 126.7269
   127.0189 127.0189 128.1153 128.1153 128.2910 128.2910 128.5036 128.5036
   128.6605 128.6777 128.7059 128.8630 128.8630 129.5819 129.9053 129.9053
   130.0125 130.0680 130.1519 130.9601 130.9601 131.0364 131.0364 131.1182
   131.1315 131.1315 131.1349 131.1508 131.1509 131.1509 131.1880 131.6005
   131.7426 131.7426 132.0105 132.0105 132.6087 132.7336 132.7336 132.8316
   132.8316 132.9050 132.9300 132.9300 132.9962 132.9962 133.0337 133.0388
   133.0388 133.0612 133.0612 133.2247 133.2652 133.6393 134.4258 135.5330
   135.5330 135.5549 135.8282 135.8282 136.0115 136.0350 136.0350 136.1609
   136.1609 136.5713 136.7792 136.8202 136.8202 137.0598 137.0598 137.0840
   137.2732 137.2732 137.2986 137.2986 137.4520 137.4587 139.1588 139.8907
   139.8907 139.9434 140.6023 140.6023 140.7059 140.7059 140.7950 140.7950
   140.8312 140.9822 141.6084 142.6759 143.8032 144.6088 144.6088 145.3147
   145.3147 145.6839 145.6839 146.0086 146.0086 146.2544 146.3269 146.4633
   146.4916 146.5881 146.5881 146.7972 146.7972 146.8292 146.8292 146.9367
   146.9367 147.2905 147.3029 147.4066 147.4066 147.4346 147.4346 147.5914
   147.6556 147.7327 148.2047 148.2047 148.2073 148.2073 149.3230 149.3394
   149.9500 151.6666 151.6666 152.1745 152.7035 152.7035 152.7413 152.7413
   152.8492 152.9003 152.9003 153.2436 154.0207 155.5645 156.3237 156.3237
   157.3425 157.3425 157.9148 157.9148 157.9278 157.9278 158.1767 158.1839
   158.1940 158.6977 158.6977 159.3968 160.3653 160.3653 160.6407 160.6407
   160.7062 160.7062 160.8213 160.9117 161.2446 161.2469 162.4330 162.9904
   162.9904 163.1199 163.2639 163.2639 163.9210 163.9210 164.0689 164.0689
   164.7360 166.5297 166.5297 166.6190 167.1007 167.9206 168.0290 168.0290
   168.5361 168.6516 168.6516 169.0090 169.0090 169.7183 169.7957 169.7957
   169.9271 169.9271 170.0425 170.0711 170.0711 170.0850 170.0850 170.1248
   170.1335 170.1818 171.3082 173.3855 173.3855 175.2532 177.6919 178.5635
   178.5635 178.7095 178.7095 179.0868 179.0868 179.2995 179.4464 179.4734
   179.7626 179.8758 180.0069 180.0069 180.3485 180.3485 180.4838 180.4838
   180.9640 180.9640 181.0351 181.0351 181.6088 182.1250 182.1250 182.5987
   182.7473 182.7473 182.9283 182.9283 182.9543 182.9543 183.1086 183.1203
   183.7640 185.7568 186.1474 187.7651 187.7651 188.3577 189.7516 189.7516
   189.8087 189.8087 189.9406 190.0458 190.0458 190.2963 190.3518 190.4257
   190.4257 193.4313 194.8973 195.8664 195.8664 196.0216 196.1561 196.1561
   196.6762 196.8665 196.8665 196.9042 196.9042 197.1472 197.1509 197.2579
   198.5175 198.5175 198.5433 198.5433 199.3334 199.5458 199.5746 199.5746
   199.5839 199.5839 199.8808 199.8808 201.0671 201.6658 201.7602 201.7602
   201.9244 201.9244 202.0345 202.0345 202.0485 202.0657 202.2523 202.2523
   205.4268 205.7797 207.1360 207.1360 208.2597 208.3330 208.8676 209.8508
   210.5109 211.0183 211.0183 211.1686 211.1686 211.9088 211.9088 211.9540
   211.9540 212.2210 212.2534 214.3250 214.3250 214.3288 214.3288 214.3621
   214.9813 214.9813 215.0534 215.0534 215.2200 215.7490 216.0441 216.0494
   217.5028 217.8125 217.8564 217.8564 217.8658 217.8658 218.2552 218.2552
   218.6925 218.6925 218.6939 218.6939 219.0830 219.0830 219.2769 219.6808
   219.7124 221.1003 222.1520 222.1520 222.7034 222.7034 222.9060 224.5359
   224.5359 224.5954 225.3403 225.3403 226.0760 226.0760 226.1177 226.5770
   226.6900 226.6900 226.7398 226.7443 226.7505 226.9480 226.9480 227.0864
   227.0864 227.5135 227.5135 227.5281 227.5281 227.5564 227.5565 227.6113
   227.6314 227.6567 227.6568 227.6898 227.7041 227.7603 227.7604 227.7609
   227.7609 227.7735 227.7939 227.7939 227.8003 227.8190 227.8243 227.8243
   227.8446 227.8650 227.8747 227.8747 227.9377 227.9578 227.9578 228.3500
   228.3571 228.5168 228.5168 228.7971 228.8547 228.8547 229.1939 229.1939
   229.2091 229.2091 229.4243 229.4401 229.4583 229.4883 229.4970 229.4970
   229.5033 229.5258 229.5258 229.5632 229.5632 229.5702 229.5702 229.5730
   229.6818 229.6818 229.7274 229.7624 229.7624 229.8260 229.8261 229.8554
   229.8978 229.8978 229.9328 230.3381 230.7279 232.2260 232.2260 232.2868
   232.4477 232.4478 232.5503 232.5503 232.6445 232.6445 232.7238 232.7322
   232.8186 232.8186 232.8853 233.0583 233.0583 233.1633 233.1634 233.1824
   233.1824 233.2052 233.2362 233.3132 233.4681 234.4085 236.1795 236.1795
   236.5811 236.5812 236.7988 236.8353 236.8353 236.8582 236.9225 236.9997
   236.9998 237.0930 237.1257 237.1382 237.1382 237.5270 237.5270 237.6170
   237.6171 237.6626 237.6626 237.6855 237.7158 237.7256 237.9541 238.0248
   238.0248 238.1119 238.1119 238.8721 238.8721 238.9640 238.9640 239.0740
   239.3428 241.0519 241.0519 241.3741 241.7544 241.7544 242.0035 242.1641
   242.1641 242.4328 242.4328 242.4824 242.4824 242.6091 242.6270 243.0437
   243.0437 243.1021 243.1103 243.1659 243.1659 243.2246 243.2246 243.2371
   243.2641 243.2972 243.4100 243.4100 243.5535 243.5535 243.5563 243.6699
   243.6699 243.8310 243.8310 244.5615 245.1023 245.2029 245.2029 245.3313
   245.3313 245.4008 245.4008 245.4200 245.4200 245.4606 245.5178 245.5190
   245.8654 247.9785 247.9785 248.4444 248.5166 248.5166 248.9171 248.9171
   249.0870 249.0870 249.2211 249.2329 249.2362 249.2515 249.2515 249.6361
   249.6764 249.7408 249.7408 249.8552 249.8552 249.9104 249.9104 249.9497
   249.9771 250.0010 250.5677 253.0996 253.0996 253.8134 255.6736 255.6736
   256.4094 256.4094 256.4125 256.7006 256.7006 256.7940 256.7940 256.9105
   256.9164 256.9987 257.0353 257.4255 257.4255 257.5357 257.5357 257.6247
   257.6247 257.6316 257.6818 257.7027 258.1855 258.5117 258.5117 258.8045
   258.8045 259.0570 259.0570 259.3756 259.9732 259.9732 260.0637 260.0997
   260.0997 260.1601 260.1601 260.1985 260.2185 260.2185 260.2938 260.2938
   260.3615 260.3807 260.4705 260.4705 261.1458 262.6992 263.2667 263.2667
   263.3615 263.3615 263.3908 263.4344 263.4344 263.5199 263.5199 263.7066
   263.7136 263.8100 263.8100 263.8589 264.7876 264.7876 264.8173 265.3112
   265.3112 265.5025 265.5025 265.6600 265.6600 265.6708 265.6722 265.9134
   266.2302 266.2302 266.4287 266.4287 266.4988 266.5075 266.5420 266.5656
   266.5656 266.6480 266.6480 267.1853 271.6138 271.8266 272.9677 273.8105
   273.8105 273.9687 274.8183 274.8183 275.1123 275.1947 275.1947 275.2522
   275.2522 275.4827 275.4898 275.9917 275.9917 275.9952 275.9952 276.0645
   276.2389 276.2389 276.2748 276.2748 276.3269 276.3288 276.3417 276.3556
   276.7660 277.0339 277.0339 277.1026 277.1026 277.1870 277.1870 277.2780
   277.2780 277.7211 278.6076 279.4300 279.9204 281.3058 281.3058 281.3954
   281.5697 281.5697 281.7508 281.7508 281.8577 281.8577 282.8315 282.8315
   282.8412 282.8412 282.9640 282.9644 283.0650 283.2703 283.2703 283.2967
   283.2967 283.4517 283.7109 284.3698 284.8478 284.8478 284.9508 284.9852
   284.9852 285.1192 285.1192 285.6907 286.0577 286.0577 286.1956 286.1956
   286.2856 286.2856 286.3578 286.3624 286.6815 286.6815 286.9116 287.0833
   287.1629 287.1629 287.1707 287.1707 287.2321 287.2321 287.2414 287.2527
   287.9779 290.2901 290.2901 290.7339 290.7339 290.7687 291.1978 291.9919
   292.0467 292.0468 292.1042 292.1042 292.1066 292.1085 292.1085 292.1181
   292.1182 292.1236 292.2102 292.9904 293.6612 293.6612 293.8012 293.9647
   293.9647 293.9794 293.9794 293.9927 294.0375 294.0376 294.0737 294.2664
   294.4435 294.4435 294.6874 295.0900 295.0900 295.3067 295.3067 295.4328
   295.4328 295.7267 296.1187 296.5856 296.5884 296.5884 297.1564 297.1564
   297.1642 297.1642 297.1714 297.1898 297.1898 297.2340 297.2546 297.3585
   297.5383 297.5383 297.7073 297.8830 298.0244 298.0244 298.1017 298.1017
   298.1429 298.1429 298.2798 298.2854 298.4525 298.6536 298.6537 298.7431
   298.8808 298.8808 299.0889 299.0889 299.0894 299.0894 299.1643 299.1749
   299.7151 300.8832 301.2361 301.2362 301.6567 301.6568 301.6823 301.7016
   301.7133 301.7134 301.7243 301.7244 301.7609 301.8108 302.2289 302.2289
   302.3181 302.3757 302.3757 303.0097 303.0097 303.0114 303.0114 303.2669
   303.2774 303.4176 304.7314 305.1568 305.1568 305.2973 305.2973 306.2825
   306.2825 306.2972 306.2972 306.3040 306.4774 306.5437 306.5437 307.0032
   307.1585 307.1585 307.1757 307.1757 307.1818 307.1973 307.1973 307.2105
   307.9100 309.5309 309.5464 309.5465 310.6780 310.6781 310.8471 310.8471
   310.9908 310.9908 311.1674 311.2527 311.2614 311.4345 311.4345 311.5865
   311.8426 311.8426 312.0729 312.0729 312.0786 312.0786 312.1681 312.1811

     the Fermi energy is    -0.6356 ev
     (compare with:    -1.2161 eV, computed in scf)

     Writing all to output data dir out/BN.save/
 
     init_run     :      0.10s CPU      0.23s WALL (       1 calls)
     electrons    :     58.72s CPU     60.50s WALL (       1 calls)

     Called by init_run:
     wfcinit      :      0.00s CPU      0.00s WALL (       1 calls)
     potinit      :      0.01s CPU      0.09s WALL (       1 calls)
     hinit0       :      0.03s CPU      0.08s WALL (       1 calls)

     Called by electrons:
     c_bands      :     58.72s CPU     60.50s WALL (       1 calls)
     v_of_rho     :      0.01s CPU      0.01s WALL (       1 calls)

     Called by c_bands:
     init_us_2    :      0.00s CPU      0.00s WALL (       1 calls)
     init_us_2:cp :      0.00s CPU      0.00s WALL (       1 calls)
     cegterg      :     56.90s CPU     58.59s WALL (       1 calls)

     Called by *egterg:
     cdiaghg      :     52.29s CPU     53.91s WALL (      10 calls)
     h_psi        :      1.17s CPU      1.21s WALL (      11 calls)
     g_psi        :      0.01s CPU      0.01s WALL (       9 calls)

     Called by h_psi:
     h_psi:calbec :      0.02s CPU      0.02s WALL (      11 calls)
     vloc_psi     :      1.13s CPU      1.17s WALL (      11 calls)
     add_vuspsi   :      0.01s CPU      0.01s WALL (      11 calls)

     General routines
     calbec       :      0.02s CPU      0.02s WALL (      11 calls)
     fft          :      0.00s CPU      0.05s WALL (      10 calls)
     fftw         :      1.02s CPU      1.05s WALL (   17272 calls)
 
     Parallel routines
 
     PWSCF        :     59.15s CPU   1m 1.53s WALL

 
   This run was terminated on:  16:56:22   5Apr2024            

=------------------------------------------------------------------------------=
   JOB DONE.
=------------------------------------------------------------------------------=
