
     Program PWSCF v.7.1 starts on 21Dec2023 at  6:55: 7 

     This program is part of the open-source Quantum ESPRESSO suite
     for quantum simulation of materials; please cite
         "P. Giannozzi et al., J. Phys.:Condens. Matter 21 395502 (2009);
         "P. Giannozzi et al., J. Phys.:Condens. Matter 29 465901 (2017);
         "P. Giannozzi et al., J. Chem. Phys. 152 154105 (2020);
          URL http://www.quantum-espresso.org", 
     in publications or presentations arising from this work. More details at
     http://www.quantum-espresso.org/quote

     Parallel version (MPI), running on     8 processors

     MPI processes distributed on     1 nodes
     123139 MiB available memory on the printing compute node when the environment starts
 
     Reading input from pw_mp-1958_nscf_k0_E60.in
Warning: card &IONS ignored
Warning: card / ignored
Warning: card &CELL ignored
Warning: card / ignored

     Current dimensions of program PWSCF are:
     Max number of different atomic species (ntypx) = 10
     Max number of k-points (npk) =  40000
     Max angular momentum in pseudopotentials (lmaxx) =  4

     Atomic positions and unit cell read from directory:
     out/mp-1958.save/
     Atomic positions from file used, from input discarded
 
 
     R & G space division:  proc/nbgrp/npool/nimage =       8
     Subspace diagonalization in iterative solution of the eigenvalue problem:
     one sub-group per band group will be used
     scalapack distributed-memory algorithm (size of sub-group:  2*  2 procs)

 
     Parallelization info
     --------------------
     sticks:   dense  smooth     PW     G-vecs:    dense   smooth      PW
     Min         166     166     42                 3993     3993     501
     Max         167     167     43                 3996     3996     503
     Sum        1333    1333    337                31951    31951    4015
 
     Using Slab Decomposition
 


     bravais-lattice index     =            2
     lattice parameter (alat)  =      12.6832  a.u.
     unit-cell volume          =     510.0684 (a.u.)^3
     number of atoms/cell      =            2
     number of atomic types    =            2
     number of electrons       =        26.00
     number of Kohn-Sham states=         1200
     kinetic-energy cutoff     =      60.0000  Ry
     charge density cutoff     =     240.0000  Ry
     Exchange-correlation= PBE
                           (   1   4   3   4   0   0   0)

     celldm(1)=  12.683218  celldm(2)=   0.000000  celldm(3)=   0.000000
     celldm(4)=   0.000000  celldm(5)=   0.000000  celldm(6)=   0.000000

     crystal axes: (cart. coord. in units of alat)
               a(1) = (  -0.500000   0.000000   0.500000 )  
               a(2) = (   0.000000   0.500000   0.500000 )  
               a(3) = (  -0.500000   0.500000   0.000000 )  

     reciprocal axes: (cart. coord. in units 2 pi/alat)
               b(1) = ( -1.000000 -1.000000  1.000000 )  
               b(2) = (  1.000000  1.000000  1.000000 )  
               b(3) = ( -1.000000  1.000000 -1.000000 )  


     PseudoPot. # 1 for Sr read from file:
     /usr/scratch4/magr4985/MG/HTDF/pseudo/SG15/Sr.upf
     MD5 check sum: 3f9bc8d6f3e8472da0cbe0e6a3044a9f
     Pseudo is Norm-conserving, Zval = 10.0
     Generated using ONCVPSP code by D. R. Hamann
     Using radial grid of  602 points,  6 beta functions with: 
                l(1) =   0
                l(2) =   0
                l(3) =   1
                l(4) =   1
                l(5) =   2
                l(6) =   2

     PseudoPot. # 2 for Te read from file:
     /usr/scratch4/magr4985/MG/HTDF/pseudo/SG15/Te.upf
     MD5 check sum: dd4de4dac1e38587f63aaf3700bb29d3
     Pseudo is Norm-conserving, Zval = 16.0
     Generated using ONCVPSP code by D. R. Hamann
     Using radial grid of  602 points,  6 beta functions with: 
                l(1) =   0
                l(2) =   0
                l(3) =   1
                l(4) =   1
                l(5) =   2
                l(6) =   2

     atomic species   valence    mass     pseudopotential
        Sr            10.00    87.62000     Sr( 1.00)
        Te            16.00   127.60000     Te( 1.00)

     48 Sym. Ops., with inversion, found



   Cartesian axes

     site n.     atom                  positions (alat units)
         1           Sr  tau(   1) = (   0.0000000   0.0000000   0.0000000  )
         2           Te  tau(   2) = (  -0.5000000   0.5000000   0.5000000  )

     number of k points=     1  Gaussian smearing, width (Ry)=  0.0005
                       cart. coord. in units 2pi/alat
        k(    1) = (   0.0000000   0.0000000   0.0000000), wk =   2.0000000

     Dense  grid:    31951 G-vectors     FFT dimensions: (  45,  45,  45)

     Estimated max dynamical RAM per process >     116.60 MB

     Estimated total dynamical RAM >     932.84 MB

     The potential is recalculated from file :
     out/mp-1958.save/charge-density

     Starting wfcs are random

     Band Structure Calculation
     Davidson diagonalization with overlap

     ethr =  5.00E-06,  avg # of iterations = 15.0

     total cpu time spent up to now is      152.6 secs

     End of band structure calculation

          k = 0.0000 0.0000 0.0000 (  4015 PWs)   bands (ev):

   -28.2859 -28.2859 -28.2731 -28.2731 -28.2731 -27.8411  -9.8126  -9.8126
    -9.8126  -3.0406   6.8713   6.8713   6.8713   9.6240  10.1893  10.1893
    10.1893  10.8151  10.8151  14.3987  18.6677  18.6677  18.6677  18.9246
    18.9246  18.9246  21.9142  21.9142  23.3750  25.9508  25.9508  25.9508
    27.3254  27.3254  27.3254  28.4666  28.4666  31.0768  31.0768  31.0768
    33.4744  33.4744  33.4744  34.4963  34.4963  34.4963  34.8407  35.5771
    36.7197  37.1349  37.1349  37.1349  39.0789  39.0789  39.0789  39.3737
    39.3737  39.3737  39.9525  39.9525  39.9525  40.6246  40.6246  42.4596
    44.6620  44.6620  45.1624  45.1624  45.1624  51.2577  51.2577  51.2577
    52.6577  55.0759  55.0759  55.0759  55.5801  55.5801  55.5801  57.2812
    57.2812  57.2812  57.7454  57.8427  57.8427  61.8558  62.1218  62.1218
    62.1218  62.1245  62.1245  62.6321  62.6321  62.6321  63.6197  63.6197
    63.6197  63.8823  63.8823  63.8823  64.8988  64.8988  64.8988  65.1548
    65.1548  65.1548  65.7131  65.7131  65.7131  65.7469  65.7469  66.1503
    66.1503  67.3094  67.3094  67.3094  68.2287  68.9365  71.9877  73.6117
    73.6117  73.6117  74.1598  74.1598  74.1598  76.2451  76.2451  78.2452
    78.2452  78.2452  79.1192  79.1192  79.1898  79.1898  79.1898  79.2583
    79.2583  79.2583  79.4976  79.4976  79.4976  80.1683  80.4614  80.4614
    80.4614  83.1312  83.1312  84.0424  84.4014  85.1523  85.1523  85.1523
    86.1784  86.1784  86.1784  87.1123  87.5572  87.5572  87.5572  88.0524
    88.0524  88.0524  88.3549  88.3549  88.3549  88.9890  88.9890  88.9890
    93.0463  93.0463  93.1717  93.1717  93.1717  93.3768  97.7605  98.1998
    98.1998  98.1998  99.6281  99.6281  99.6281  99.9318  99.9318 102.0126
   102.0126 102.0126 102.7321 102.7321 102.7321 102.8441 102.8441 104.7570
   104.7570 104.7570 105.7570 107.9424 107.9424 107.9424 107.9647 109.3687
   109.3687 109.3687 110.3028 110.3028 110.3028 110.3167 110.3167 110.3167
   110.6086 110.6086 111.3401 112.1357 112.8662 112.8662 112.8662 113.1881
   113.1881 113.1881 114.2082 115.1192 115.1192 115.1192 115.5316 115.5316
   116.6753 116.6753 116.6753 117.3623 117.4341 117.4341 117.4341 117.5323
   117.5323 117.5323 118.3537 118.3537 118.3537 118.4688 118.4688 118.5063
   118.5063 118.5063 118.5168 118.5168 118.5168 118.7451 118.7451 118.9968
   118.9968 118.9968 119.2438 119.2438 119.2880 119.2880 119.2880 119.6838
   119.6838 119.6838 119.9871 122.0352 122.0352 122.1082 122.1082 122.1082
   125.4332 125.4332 125.4332 125.8747 125.8747 125.8747 126.0261 126.0261
   126.0261 127.8138 127.8138 127.8138 128.5291 128.7847 128.7847 128.7847
   129.8666 129.8666 133.0395 133.0395 133.0395 133.0582 133.0582 133.1892
   133.2789 133.8813 133.8813 133.8813 135.9854 138.5557 138.5557 138.5557
   140.7339 140.7339 140.7339 141.4327 141.4327 141.4327 141.7117 141.7117
   141.7117 141.8074 141.8074 141.8074 141.9549 141.9549 142.0173 142.9890
   142.9890 143.2048 143.2048 143.2100 143.2100 143.2100 143.2146 143.2146
   143.2146 144.1859 144.1859 144.1859 144.2792 144.2792 144.2792 144.5908
   144.5908 144.5908 144.8669 144.8669 144.9857 146.2086 146.2086 146.2086
   147.7789 147.7789 147.7789 149.2996 153.8219 153.8219 153.8219 154.3406
   154.3406 154.3406 154.7039 155.1097 155.2763 155.2763 156.6803 156.6803
   156.6803 157.6162 157.6162 157.6162 158.9404 158.9404 159.7365 159.7365
   159.7365 160.5778 160.9265 160.9265 160.9265 161.4263 161.4263 161.4263
   164.1111 165.1060 165.1060 165.1060 165.9705 165.9705 165.9705 166.1170
   166.1170 166.1170 166.3794 166.3794 166.3794 167.6345 167.6345 168.8184
   168.8760 168.8760 168.8760 169.4720 169.4720 169.4720 169.9534 169.9534
   169.9534 170.1935 170.1935 170.1935 170.3928 170.3928 170.3928 170.4030
   170.4030 170.5659 170.5659 170.5659 170.7246 173.1320 173.1320 173.1584
   173.1584 173.1584 173.2168 174.4135 174.4135 174.4135 176.2898 176.2898
   176.4406 178.3945 178.3945 178.3945 178.8310 178.8310 178.8310 180.3772
   180.3772 180.7517 180.7517 180.7517 181.3543 181.5232 181.5232 181.5232
   181.5476 181.5476 181.6184 181.6184 181.6184 181.7614 181.7614 181.7614
   182.3808 182.3808 182.3808 184.7129 184.7520 184.8081 184.8081 184.8081
   185.8783 185.8783 185.8783 185.9630 185.9630 185.9630 185.9725 185.9725
   186.0022 186.0022 186.0617 186.0617 186.0617 186.2731 186.2731 186.2731
   186.2754 186.2754 186.2754 186.2773 186.2773 186.2773 187.7273 187.7766
   187.7766 187.7766 187.8401 187.8401 187.8401 187.9180 188.1536 188.1536
   188.1536 188.8407 188.8407 189.3602 189.4707 189.4707 189.4707 189.8741
   189.8741 190.1719 190.1719 190.1719 190.4091 193.1955 193.1955 194.0472
   194.0472 194.0472 194.3662 194.3662 194.3662 194.8785 194.8785 194.8785
   195.0302 195.0302 195.0302 195.9579 195.9579 196.0182 196.0182 196.0182
   196.1051 196.5042 196.5066 196.5066 196.5066 196.5421 196.5421 197.9800
   197.9800 197.9800 198.1573 198.1573 198.1573 198.3768 198.3768 198.3768
   198.5219 198.5219 198.5219 199.4260 199.4759 199.4759 199.4759 199.4944
   199.4944 203.3534 203.3534 203.3534 213.0193 213.0193 213.0193 213.1783
   213.1783 213.1783 213.6690 213.6690 215.0342 216.1769 216.1769 216.2541
   217.2035 217.2035 217.2035 217.5961 217.5961 217.5961 217.7126 217.7126
   217.7126 218.1253 218.1253 218.1253 218.4338 218.4338 218.4338 219.2774
   219.4487 219.4487 219.4487 219.5278 219.5278 219.5278 219.5898 219.5898
   219.5898 219.6215 219.6215 219.6577 219.6577 219.6577 219.6669 219.8372
   219.8372 219.8372 220.7489 224.1020 224.1020 224.5448 224.5448 224.5448
   224.7099 224.7099 224.7892 224.7892 224.7892 225.0472 225.0472 225.0472
   225.2341 225.2341 225.2341 226.0617 226.0617 226.1691 226.1691 226.1691
   226.4311 227.7140 227.7140 227.7140 227.8856 227.8856 228.9403 228.9403
   228.9403 229.9541 229.9541 230.6686 230.6686 230.6686 230.7932 230.7932
   230.7932 232.2801 232.6656 232.6656 232.6656 233.9026 233.9026 233.9026
   235.9885 236.5085 236.5085 236.5085 236.5126 236.5882 236.5882 237.1563
   237.1563 237.6207 237.6207 237.6207 237.6308 237.6308 237.6308 237.6696
   237.6696 237.6696 237.8410 237.8410 237.8410 238.4006 238.4006 238.4006
   238.9243 239.1680 239.1680 242.0108 242.0108 242.0108 242.5418 243.6031
   243.6031 243.6031 243.9238 243.9238 243.9238 244.1962 244.1962 244.1962
   244.3326 244.3326 244.3326 244.4819 244.8886 246.7003 246.7003 246.7003
   247.5329 247.5329 248.6858 248.6858 248.7182 248.7182 248.7182 248.9897
   248.9897 248.9897 248.9906 249.3114 249.3114 249.4116 249.4116 249.4116
   249.4179 249.4179 249.4179 249.5468 249.5468 249.5481 249.5481 249.5481
   249.8893 249.8893 249.8893 249.8952 250.0226 250.0226 250.0226 250.5552
   250.5552 250.5552 250.6082 251.2929 251.2929 251.2929 251.8525 251.8525
   251.8525 251.9028 251.9028 251.9605 251.9605 251.9605 252.0758 252.0758
   252.0758 252.1861 253.1483 255.2493 255.2493 258.3457 258.3457 258.3457
   258.8537 258.8537 258.8537 259.2559 259.2559 259.2559 259.5731 259.5731
   259.5731 260.0456 260.2296 260.2296 260.2296 260.7411 260.7411 260.9265
   260.9265 260.9265 261.1145 261.6314 261.6314 261.6314 266.8139 266.8139
   266.8139 267.0861 268.5592 269.0851 269.0851 269.0851 269.1463 269.1463
   269.6325 269.6325 269.6325 269.6522 269.6522 269.6522 270.1389 270.1389
   270.1389 270.1632 270.1632 270.1632 270.2457 270.2457 272.3159 272.3159
   272.3159 272.3666 272.5186 272.5186 272.5186 272.5443 272.5443 272.5443
   272.7263 272.7263 272.7263 273.2511 273.2511 273.5333 273.5333 273.5333
   273.5441 273.5441 273.5441 273.7968 273.7968 274.5632 274.5632 274.5632
   274.6694 274.6694 274.6694 275.4662 275.4662 275.4662 275.7168 275.7168
   275.7500 275.7500 275.7500 275.7777 275.7802 275.7802 275.8599 275.8599
   275.8599 275.8695 275.8695 275.8695 275.9640 275.9640 275.9640 277.6094
   277.6346 277.6346 277.6346 277.6521 277.6521 277.6521 277.6609 279.3033
   279.3033 279.3033 279.3301 279.3301 279.3677 279.3677 279.3677 279.4697
   279.6237 279.6237 279.6237 279.7030 279.7030 279.7030 279.7730 279.7730
   279.7730 279.7773 279.7773 279.9195 279.9444 279.9444 279.9444 279.9583
   279.9583 279.9659 279.9659 279.9659 280.0744 282.0399 282.0399 282.0399
   283.3804 283.3804 283.3804 283.5516 283.7543 285.7776 285.7776 289.3746
   289.3746 289.3746 290.9387 290.9387 290.9387 291.5410 291.5410 291.8709
   291.8709 291.8709 291.9565 291.9565 291.9565 292.0417 292.0417 292.0417
   292.0562 292.0562 292.0596 292.0596 292.0596 292.3254 292.8508 292.8508
   292.8508 292.9452 292.9452 292.9452 293.0024 293.0024 293.0024 296.6244
   296.6244 296.8296 296.8296 296.8296 296.8807 298.6996 298.6996 301.2756
   301.2756 301.2756 301.4916 301.4916 301.5037 303.6639 303.6639 303.6639
   304.7222 304.7222 304.7222 304.7502 304.7502 304.7502 304.7525 304.7525
   304.7525 304.8986 304.8986 304.8986 306.1758 306.1758 306.1979 306.1979
   306.1979 306.2333 309.8557 309.8557 309.8557 311.9192 311.9192 311.9192
   313.8138 313.8138 313.9460 313.9460 313.9460 314.5499 314.7052 314.7052
   314.7052 315.1400 315.4665 315.4665 315.4665 315.6308 315.6318 315.6318
   315.6318 315.6411 315.6411 315.6411 315.7898 315.7898 316.3619 316.3619
   316.3619 316.4469 316.4469 316.8241 316.8241 316.8241 317.1299 317.7369
   318.4287 318.4287 318.4287 319.3477 319.3477 319.6037 319.6037 319.6037
   319.8001 319.8001 319.8001 320.3835 320.3835 320.3835 320.5276 321.0093
   321.0093 321.0093 321.9713 323.8460 323.8460 324.7642 324.7642 324.7642
   324.8556 324.8556 324.9212 324.9212 324.9212 325.2057 325.2057 325.2057
   325.3472 325.3472 325.3472 326.7074 326.7074 326.7074 326.8689 326.9280
   326.9280 326.9280 327.1914 329.1549 329.1549 329.1549 329.2240 329.2240
   329.3022 329.3022 329.3022 329.4610 329.4610 329.4610 329.4864 329.4864
   329.5287 329.5287 329.5287 329.7237 329.7237 329.7237 329.7972 329.7972
   329.7972 329.8506 329.8506 329.8730 329.9712 329.9712 329.9712 330.7649
   330.7649 330.7649 330.7657 330.7657 330.7657 330.7658 330.7658 330.7712
   330.7712 330.7712 330.8169 335.9666 335.9666 335.9666 338.1743 338.1743
   338.2766 338.2766 338.2766 338.3695 338.3695 338.3695 338.4073 338.4073
   338.4073 339.4323 339.4323 339.4323 339.7360 340.0370 340.0370 340.0370
   340.1156 340.1156 340.1156 340.1454 340.1454 340.2126 340.2126 340.2126
   340.3699 342.1201 342.1201 342.1201 342.6348 342.6348 342.7902 342.7902
   342.7902 343.0278 343.0925 343.0925 343.0925 343.1655 343.1655 343.5880
   343.5880 343.5880 345.6473 345.6473 345.6914 345.6914 345.6914 345.8146
   345.8146 345.8146 345.8701 345.8701 345.8701 345.9069 345.9249 346.0355
   346.0355 346.0792 346.0792 346.0792 346.2205 346.2205 346.2205 346.3127
   346.3127 346.3127 346.3915 346.3958 346.3958 346.3958 346.4441 346.4441
   346.4441 346.4622 346.4622 346.5640 346.5640 346.5640 346.7036 346.7036
   346.7036 346.7263 346.7263 346.7263 346.8016 346.8016 346.9775 346.9775
   346.9775 347.1335 347.4079 351.2743 351.2743 351.2743 351.6678 351.8759
   351.8759 351.8759 352.0230 352.0230 352.0230 352.0239 352.0239 353.1124
   353.1124 353.1124 353.8666 353.8666 353.8666 353.8846 353.8846 353.8846
   353.8919 354.0333 354.0333 354.0700 354.0700 354.0700 354.3926 354.3926
   354.3926 354.4364 354.5389 356.6096 356.6096 356.6096 356.6154 356.6278

     the Fermi energy is     7.7490 ev
     (compare with:     7.5769 eV, computed in scf)

     Writing all to output data dir out/mp-1958.save/
 
     init_run     :      0.06s CPU      0.08s WALL (       1 calls)
     electrons    :    141.41s CPU    152.27s WALL (       1 calls)

     Called by init_run:
     wfcinit      :      0.00s CPU      0.00s WALL (       1 calls)
     potinit      :      0.02s CPU      0.02s WALL (       1 calls)
     hinit0       :      0.02s CPU      0.03s WALL (       1 calls)

     Called by electrons:
     c_bands      :    141.41s CPU    152.26s WALL (       1 calls)
     v_of_rho     :      0.01s CPU      0.01s WALL (       1 calls)

     Called by c_bands:
     init_us_2    :      0.00s CPU      0.00s WALL (       1 calls)
     init_us_2:cp :      0.00s CPU      0.00s WALL (       1 calls)
     cegterg      :    138.78s CPU    149.44s WALL (       1 calls)

     Called by *egterg:
     cdiaghg      :    130.73s CPU    141.27s WALL (      16 calls)
     h_psi        :      2.16s CPU      2.25s WALL (      17 calls)
     g_psi        :      0.02s CPU      0.02s WALL (      15 calls)

     Called by h_psi:
     h_psi:calbec :      0.04s CPU      0.05s WALL (      17 calls)
     vloc_psi     :      2.07s CPU      2.14s WALL (      17 calls)
     add_vuspsi   :      0.03s CPU      0.03s WALL (      17 calls)

     General routines
     calbec       :      0.04s CPU      0.05s WALL (      17 calls)
     fft          :      0.01s CPU      0.01s WALL (      10 calls)
     fftw         :      1.87s CPU      1.94s WALL (   15070 calls)
 
     Parallel routines
 
     PWSCF        :   2m21.81s CPU   2m32.79s WALL

 
   This run was terminated on:   6:57:40  21Dec2023            

=------------------------------------------------------------------------------=
   JOB DONE.
=------------------------------------------------------------------------------=
