
     Program PWSCF v.7.1 starts on  4Dec2023 at 13:59:43 

     This program is part of the open-source Quantum ESPRESSO suite
     for quantum simulation of materials; please cite
         "P. Giannozzi et al., J. Phys.:Condens. Matter 21 395502 (2009);
         "P. Giannozzi et al., J. Phys.:Condens. Matter 29 465901 (2017);
         "P. Giannozzi et al., J. Chem. Phys. 152 154105 (2020);
          URL http://www.quantum-espresso.org", 
     in publications or presentations arising from this work. More details at
     http://www.quantum-espresso.org/quote

     Parallel version (MPI), running on     8 processors

     MPI processes distributed on     1 nodes
     122024 MiB available memory on the printing compute node when the environment starts
 
     Reading input from pw_mp-1479_nscf_k10_E94.in
Warning: card &IONS ignored
Warning: card / ignored
Warning: card &CELL ignored
Warning: card / ignored

     Current dimensions of program PWSCF are:
     Max number of different atomic species (ntypx) = 10
     Max number of k-points (npk) =  40000
     Max angular momentum in pseudopotentials (lmaxx) =  4

     Atomic positions and unit cell read from directory:
     out/mp-1479.save/
     Atomic positions from file used, from input discarded
 
 
     R & G space division:  proc/nbgrp/npool/nimage =       8
     Subspace diagonalization in iterative solution of the eigenvalue problem:
     one sub-group per band group will be used
     scalapack distributed-memory algorithm (size of sub-group:  2*  2 procs)

 
     Parallelization info
     --------------------
     sticks:   dense  smooth     PW     G-vecs:    dense   smooth      PW
     Min         119     119     33                 2416     2416     371
     Max         120     120     35                 2419     2419     372
     Sum         955     955    271                19339    19339    2975
 
     Using Slab Decomposition
 


     bravais-lattice index     =            2
     lattice parameter (alat)  =       8.5645  a.u.
     unit-cell volume          =     157.0536 (a.u.)^3
     number of atoms/cell      =            2
     number of atomic types    =            2
     number of electrons       =         8.00
     number of Kohn-Sham states=         1200
     kinetic-energy cutoff     =      94.0000  Ry
     charge density cutoff     =     376.0000  Ry
     Exchange-correlation= PBE
                           (   1   4   3   4   0   0   0)

     celldm(1)=   8.564512  celldm(2)=   0.000000  celldm(3)=   0.000000
     celldm(4)=   0.000000  celldm(5)=   0.000000  celldm(6)=   0.000000

     crystal axes: (cart. coord. in units of alat)
               a(1) = (  -0.500000   0.000000   0.500000 )  
               a(2) = (   0.000000   0.500000   0.500000 )  
               a(3) = (  -0.500000   0.500000   0.000000 )  

     reciprocal axes: (cart. coord. in units 2 pi/alat)
               b(1) = ( -1.000000 -1.000000  1.000000 )  
               b(2) = (  1.000000  1.000000  1.000000 )  
               b(3) = ( -1.000000  1.000000 -1.000000 )  


     PseudoPot. # 1 for B  read from file:
     /usr/scratch4/magr4985/MG/HTDF/pseudo/SG15/B.upf
     MD5 check sum: eb3cbeacc2d324d57d903df00f564d27
     Pseudo is Norm-conserving, Zval =  3.0
     Generated using ONCVPSP code by D. R. Hamann
     Using radial grid of  602 points,  4 beta functions with: 
                l(1) =   0
                l(2) =   0
                l(3) =   1
                l(4) =   1

     PseudoPot. # 2 for P  read from file:
     /usr/scratch4/magr4985/MG/HTDF/pseudo/SG15/P.upf
     MD5 check sum: 0688a67b2b263c6b42d3d97c42745426
     Pseudo is Norm-conserving, Zval =  5.0
     Generated using ONCVPSP code by D. R. Hamann
     Using radial grid of  602 points,  4 beta functions with: 
                l(1) =   0
                l(2) =   0
                l(3) =   1
                l(4) =   1

     atomic species   valence    mass     pseudopotential
        B              3.00    10.81100     B ( 1.00)
        P              5.00    30.97380     P ( 1.00)

     24 Sym. Ops. (no inversion) found



   Cartesian axes

     site n.     atom                  positions (alat units)
         1           B   tau(   1) = (   0.0000000   0.0000000   0.0000000  )
         2           P   tau(   2) = (  -0.2500000   0.2500000   0.2500001  )

     number of k points=     3  Gaussian smearing, width (Ry)=  0.0005
                       cart. coord. in units 2pi/alat
        k(    1) = (   0.0000000   0.0000000   0.0000000), wk =   0.2500000
        k(    2) = (   0.5000000  -0.5000000   0.5000000), wk =   1.0000000
        k(    3) = (   0.0000000  -1.0000000   0.0000000), wk =   0.7500000

     Dense  grid:    19339 G-vectors     FFT dimensions: (  40,  40,  40)

     Estimated max dynamical RAM per process >      68.05 MB

     Estimated total dynamical RAM >     544.40 MB

     The potential is recalculated from file :
     out/mp-1479.save/charge-density

     Starting wfcs are random

     Band Structure Calculation
     ParO style diagonalization

     ethr =  5.00E-06,  avg # of iterations =  6.0

     total cpu time spent up to now is      229.7 secs

     End of band structure calculation

          k = 0.0000 0.0000 0.0000 (  2421 PWs)   bands (ev):

    -6.1964   9.2764   9.2764   9.2764  12.7092  12.7092  12.7092  16.6991
    20.8342  21.4157  21.4157  25.0134  25.0134  25.0134  30.8630  39.7507
    39.7507  39.7507  46.1794  46.1794  46.1794  47.2301  47.2301  52.2631
    52.2631  52.2631  63.8011  63.8011  63.8011  64.0017  65.0806  65.0806
    66.1386  66.1386  66.1387  72.6816  72.6816  72.6816  74.0355  74.3624
    74.3624  75.1253  75.1253  75.1253  75.3158  75.3158  75.3158  76.3178
    76.3178  76.3178  81.8211  81.8211  81.8211  83.1005  84.6397  84.6397
    84.6397  89.2516  92.5361 100.5309 104.6536 104.6536 106.3433 106.3433
   106.3433 110.2995 110.2995 110.2995 114.7586 118.5137 118.5137 120.6423
   120.6423 120.6423 122.1747 122.1747 122.1747 127.2342 127.2342 127.2342
   132.5111 132.5111 132.5111 132.5595 132.5595 132.8930 132.8930 132.8930
   133.5006 135.1451 135.1451 137.2883 137.2883 137.2883 139.8654 139.8654
   139.8654 140.5787 140.5787 140.5787 141.2468 141.2468 141.2468 142.9118
   142.9118 142.9118 143.0406 143.7552 144.2850 144.2850 144.2850 144.3887
   144.3887 155.5358 155.5358 155.5358 159.6106 161.3578 161.3578 162.5313
   162.5313 162.5313 166.0666 166.0666 166.0666 167.2023 167.4376 167.4376
   167.4376 168.3043 168.3043 168.3043 168.9350 168.9350 168.9350 169.7062
   169.7062 181.0414 181.0414 182.3224 184.8544 184.8544 184.8544 185.3436
   185.3436 185.3436 187.6410 187.6410 187.6410 188.9982 190.6697 190.6697
   190.8013 190.8013 190.8013 191.2557 191.6777 191.6777 191.6777 192.0032
   192.0032 192.0032 192.1697 192.1697 192.1697 192.5925 192.5925 192.5925
   200.9517 211.3057 212.0175 212.0175 212.0175 214.9615 214.9615 214.9615
   215.7058 215.7058 216.8200 216.8200 216.8200 223.0277 223.0277 223.0277
   232.5255 232.5255 232.5255 234.2438 234.2438 236.8290 238.7996 238.7996
   238.7996 238.9193 238.9193 238.9193 239.6828 242.8050 242.8050 242.8050
   243.6482 243.6482 243.9465 243.9465 243.9465 247.4769 247.4769 247.6010
   247.6010 247.6010 247.8136 247.8136 247.8136 249.2385 249.2385 249.2385
   249.8201 249.9228 249.9228 249.9228 250.4852 250.4852 250.5162 250.5162
   250.5162 251.6777 251.6777 251.6777 252.3307 252.3307 252.3307 252.8289
   253.2033 253.9891 253.9891 253.9891 254.9520 254.9520 255.0761 255.0761
   255.0761 255.8063 259.2733 259.2733 259.3084 259.3084 259.3084 259.6884
   259.6884 259.6884 259.8799 259.8799 259.8799 260.2670 260.2670 260.2670
   260.2798 260.2798 261.1724 273.7022 273.7022 273.7022 275.6608 275.6608
   278.6944 283.0342 283.0342 283.0342 283.7853 283.7853 283.7853 284.4484
   284.4484 284.4484 284.8662 284.8662 284.8662 288.4880 288.4880 288.5422
   288.5422 288.5422 288.6370 290.8572 290.8572 290.8572 293.4860 293.4860
   293.4860 294.3281 296.6472 301.5367 301.5367 301.6799 301.6799 301.6800
   303.6203 303.6203 303.6203 304.4974 304.4974 304.4974 304.5764 304.5764
   304.5764 305.4908 305.4908 310.9523 310.9523 310.9523 313.3679 314.0604
   314.0604 314.4142 314.4142 314.4142 315.2301 315.2301 315.2301 315.8748
   315.8748 315.8748 316.0005 316.0005 316.0005 316.2490 316.8070 316.8070
   316.8070 317.1046 317.1046 337.1121 337.1121 337.1121 338.6435 338.8846
   338.8846 338.8846 341.1208 344.4788 344.4788 345.7520 345.7520 345.7520
   346.3747 346.3747 346.3747 347.1202 347.1202 347.1202 347.1411 353.6489
   353.6489 353.6489 354.3893 354.3893 357.1527 357.1527 357.1527 357.5127
   363.2177 363.2177 363.2177 363.3450 363.4464 363.4464 363.4464 363.5776
   363.5776 364.9725 364.9725 364.9725 365.6115 365.6115 365.9701 365.9970
   365.9970 365.9970 366.4898 366.4898 366.4898 366.5933 366.5933 366.5933
   366.9149 366.9149 366.9149 373.0035 373.0035 373.0035 373.0393 373.0393
   373.1130 373.1130 373.1130 373.2627 373.2627 373.2627 373.4062 375.7122
   375.7122 375.7122 376.2853 376.5392 376.5392 376.5392 376.6984 376.6984
   376.6984 376.7066 376.7066 384.6460 384.6460 384.6460 386.8938 387.6335
   387.6335 387.6335 388.7568 392.5520 392.5520 393.5171 393.5171 393.5171
   394.1683 394.1683 394.1683 395.6512 395.6512 395.6512 395.8435 395.8435
   395.8435 397.4319 397.4319 401.0826 401.0826 401.8419 401.8419 401.8419
   402.1827 402.1827 402.1827 402.4471 402.4471 402.4471 403.1504 403.1504
   403.1504 403.4760 403.4760 404.0452 404.7550 404.7550 404.7550 405.1654
   405.1654 405.1654 405.4637 412.9565 412.9565 412.9565 414.5815 415.7882
   415.7882 415.7882 416.2870 416.2870 417.2796 417.9331 417.9331 417.9331
   420.0578 420.0578 420.0578 420.1579 420.4634 420.4634 420.4634 420.9055
   420.9055 420.9055 421.8468 421.8468 421.8468 422.8296 422.8296 422.8296
   423.1915 423.1915 424.3132 424.4369 424.4369 424.6926 424.6926 424.6926
   425.1014 425.6505 425.6505 425.6505 425.7143 425.7143 425.7143 426.1785
   426.1785 426.1785 426.2274 426.2274 426.6835 426.6835 426.6835 426.8817
   426.8817 426.8892 426.8892 426.8892 427.1309 427.1309 427.1309 427.1906
   427.1906 427.1906 427.5182 427.5182 427.5182 427.6929 428.0375 428.0375
   428.0375 428.0887 428.0887 456.4828 456.4828 456.7685 457.1691 457.1691
   457.1691 468.7952 469.0823 469.0823 469.0823 470.9508 471.3564 471.3564
   471.3564 472.9601 472.9601 474.3807 474.3807 474.3807 475.6541 475.6541
   475.6541 476.6105 476.6105 476.6105 476.9621 476.9621 476.9621 478.1330
   478.1330 481.2881 482.6780 482.6780 482.6780 483.4928 483.4928 485.1362
   485.1362 485.1362 486.8464 487.1441 487.1441 487.1441 487.4545 489.5393
   489.5393 489.5393 489.5729 489.5729 489.5729 489.6641 489.6641 489.6641
   489.7572 489.7572 489.7572 492.7934 492.7934 492.8457 492.8457 492.8457
   492.9401 492.9401 492.9401 493.0915 493.0915 493.1532 493.1532 493.1532
   493.1583 493.1583 493.1583 493.2556 493.2556 493.2556 493.2623 493.2740
   493.2740 505.3506 505.3506 505.3506 505.4251 505.4251 505.4251 505.4617
   505.4617 505.8496 508.7176 508.7176 508.7176 514.5257 514.5257 514.5257
   514.8210 514.8210 516.3784 517.5866 517.5866 517.5866 518.1319 518.1319
   518.1319 518.2035 518.2035 518.2035 518.6047 518.6047 518.6047 519.7407
   519.9084 519.9084 519.9084 519.9914 519.9914 528.7210 528.8513 528.8513
   528.8513 529.0385 529.0385 529.0385 529.5196 529.5196 529.5196 529.5656
   529.5656 533.7839 535.2073 535.2073 535.2073 536.3561 536.3561 536.3561
   537.3539 537.3539 537.3539 537.4736 537.4736 538.6203 538.6203 538.6203
   538.6320 538.6320 538.8301 538.8301 538.8301 539.0896 539.0896 539.0896
   539.1199 539.1199 539.1199 539.2784 539.4626 539.7410 539.7410 539.7410
   540.0413 543.4608 543.4608 543.4608 543.4875 543.4875 543.5480 543.5480
   543.5480 543.5903 543.5903 543.5903 543.6389 549.4697 549.4697 549.4697
   550.0625 550.1370 550.1370 550.1370 550.1400 550.1400 550.1494 550.1494
   550.1494 551.5531 551.5747 551.5747 551.5747 551.5886 551.5886 551.5896
   551.5896 551.5896 551.7190 551.7190 551.7190 571.9771 572.0411 572.0411
   574.4198 574.4198 574.4198 574.9762 574.9762 574.9762 575.5296 575.5296
   575.5296 575.8645 575.8645 575.8645 576.3411 576.3411 576.3411 577.0158
   577.0158 577.2242 577.2242 577.2242 577.4496 582.2689 582.2689 582.2689
   582.8242 584.8370 586.1223 586.1223 586.1488 586.1488 586.1488 588.8218
   589.0817 589.0817 589.0817 589.7064 589.7064 589.7064 590.0973 590.0973
   590.0973 590.7246 590.7246 590.7246 591.1653 591.1653 592.1906 592.1906
   592.1906 592.3957 592.3957 598.1189 598.1189 598.1189 598.1803 598.1803
   598.1835 598.1835 598.1835 598.3736 598.3736 598.3736 598.7724 598.7724
   598.7724 598.9623 598.9623 598.9623 599.0005 599.0005 599.7690 600.0769
   600.0769 600.7328 600.7328 600.7328 600.8261 600.8818 600.8818 600.8818
   601.0169 601.0169 601.0169 601.0982 601.0982 601.0982 601.3278 601.3278
   601.3278 601.4331 601.4698 601.4698 601.4698 604.3914 604.3914 604.3914
   605.0414 605.9966 605.9966 605.9966 606.3211 606.4350 606.4350 606.7052
   606.7052 606.7052 606.7926 606.7926 606.7927 606.9819 606.9819 606.9819
   607.3456 607.3456 607.3456 607.5636 607.5636 609.4994 609.4994 609.6592
   609.6592 609.6592 610.0285 610.1943 610.1943 610.1943 610.3192 610.3192
   610.3192 610.3973 610.3973 610.3973 610.6218 610.6218 610.6218 610.7663
   610.7663 610.9663 610.9663 610.9663 611.1110 628.2783 628.2783 628.2783
   628.6115 628.8125 629.5962 629.5962 629.5962 638.0728 638.0728 638.0764
   638.0764 638.0764 638.1110 638.1110 638.1110 638.2141 638.2141 638.2141
   638.2199 638.2199 638.2223 638.2223 638.2223 648.3854 648.3854 648.4751
   650.5856 650.5856 650.5856 652.6339 652.6339 652.6339 652.6820 652.6820
   652.6820 652.7190 652.7190 652.7190 653.5465 653.5465 653.5465 655.9187
   655.9187 655.9187 656.8922 656.8922 656.9572 658.1855 658.1855 658.2870
   658.2870 658.2870 658.4771 660.4582 660.4582 660.4582 660.5329 660.5329
   660.5329 660.5462 660.5462 660.5462 660.5607 660.5607 660.5607 661.6165
   661.6176 661.6176 661.6176 661.6183 661.6183 684.0825 685.2873 685.2873
   685.2873 686.6544 688.4317 688.4317 688.4317 688.6109 688.6109 688.6773
   688.6773 688.6773 689.6133 689.6133 689.6133 689.9782 689.9782 689.9782
   690.3238 690.3238 690.3374 690.3374 690.3374 697.0488 697.0488 697.2644
   697.2644 697.2644 698.0222 698.0222 698.0222 699.1888 700.5969 700.5969
   700.5969 708.3445 708.7849 708.7850 708.7850 709.1893 709.1893 709.1893
   709.8943 712.7556 712.7556 713.2205 713.2205 713.2205 713.9939 713.9939
   713.9939 714.1062 714.1062 714.1062 714.3864 714.4197 714.4197 714.5733
   714.5733 714.5733 714.5897 715.1361 715.1361 715.1361 715.3843 715.3843
   715.3843 715.7888 715.7888 715.7888 715.9785 715.9785 716.4012 716.4012
   716.4012 716.7396 716.7396 716.7396 717.0289 718.9875 718.9875 719.1294
   719.1294 719.1294 719.1786 719.1786 719.1786 719.2519 719.2519 719.2519
   719.2587 719.2587 719.2587 719.3110 719.3110 721.4430 721.5391 721.5391
   721.6533 721.6533 721.6533 724.0654 724.0939 724.0939 724.0939 724.1338
   724.1338 724.1338 724.2445 724.2445 724.2445 724.2728 724.2728 727.8597
   727.8597 727.8597 727.9076 727.9076 727.9076 727.9105 727.9105 727.9158
   727.9199 727.9199 727.9199 742.3666 742.8033 742.8033 743.6003 743.6003
   743.6003 744.2216 744.2216 744.2216 744.4162 744.4162 744.4162 744.9866
   744.9866 745.3595 745.3595 745.3595 745.7190 747.2096 747.5917 747.5917
   747.5917 747.9353 747.9353 747.9353 748.1335 748.1335 748.1335 748.1926
   748.1926 750.3482 750.3482 750.3482 750.9537 750.9537 750.9537 751.0988
   751.0988 751.0988 752.0157 752.0687 752.0687 752.8426 752.8426 752.8426
   753.5147 753.5147 753.5147 753.5337 753.5337 753.5337 753.8496 753.8496
   753.8496 754.3337 754.3337 754.3563 754.3563 754.3563 754.5057 754.5057
   754.5057 754.5991 754.5991 754.5991 754.6847 756.7796 756.7796 756.8063
   756.8063 756.8063 756.8554 770.1377 770.8574 770.8574 770.8574 770.9618
   770.9618 771.0754 771.0754 771.0754 771.6600 771.6600 771.6600 771.8017
   771.8017 771.8017 772.2507 772.2989 772.2989 772.2989 772.7137 772.7137
   773.0271 773.0271 773.0271 773.1834 773.1834 773.1834 773.6241 773.6241
   773.6241 773.6418 774.0660 774.5457 774.5457 774.6186 774.6186 774.6186
   775.1928 775.1928 775.1928 775.7356 775.7356 775.7356 776.1959 776.1959
   776.2976 776.2976 776.2976 776.6989 776.6989 776.6989 776.8351 776.8351
   776.9805 776.9805 776.9805 777.1138 777.1138 777.1138 777.1644 777.2324

          k = 0.5000-0.5000 0.5000 (  2392 PWs)   bands (ev):

    -2.8618   0.2344   7.5169   7.5169  13.1006  14.0231  14.0231  19.4161
    23.8514  23.8514  24.1116  26.7871  26.7871  27.0657  36.1000  39.1922
    39.2708  39.2708  41.9717  41.9717  46.5820  46.5820  47.7537  49.3976
    49.5542  49.5542  54.9642  56.7075  56.7075  59.6463  59.6463  60.7476
    61.8884  62.2507  68.6831  68.6831  69.8097  70.2643  70.2644  72.3108
    76.7640  76.7640  78.1836  83.2711  83.2711  84.2194  84.9756  84.9756
    86.2309  86.2309  87.3178  91.1024  91.1024  93.5099  94.8444  94.8444
    95.3483  97.3640  97.3640  99.1867  99.5382  99.5382 102.4525 103.0296
   103.0663 103.6350 105.7473 105.7473 106.2564 106.2564 109.1470 109.6390
   114.0634 114.0634 114.9344 114.9344 115.2488 115.2488 115.5727 121.7438
   121.7438 121.8078 127.5849 129.8969 130.9298 130.9298 132.0230 132.0230
   132.5112 134.0410 134.8260 134.8260 138.0304 138.0304 140.3153 140.7848
   141.3911 141.3911 143.0977 143.0977 143.5012 144.1778 145.3775 145.3775
   145.5489 145.7006 146.5046 146.5046 154.8833 154.8833 155.2948 157.6248
   157.6248 157.9760 158.9663 158.9663 159.1101 160.7884 160.7884 161.1170
   161.6240 163.1951 163.1951 165.0593 165.9350 165.9350 167.4310 167.4310
   167.5408 168.7929 168.7929 169.3521 174.1114 176.1654 176.1654 176.2213
   176.7356 176.7356 177.2154 180.2506 180.2506 181.1186 181.1187 184.3239
   186.9958 186.9958 187.2720 187.2721 188.9327 190.5970 190.6676 191.8693
   193.1759 193.1759 193.2992 194.4076 194.4076 194.6590 194.6590 197.4280
   197.4280 199.3404 199.3404 201.6900 201.6900 201.7973 201.9844 202.8607
   209.6305 211.0125 211.0125 211.6526 211.6527 213.9583 214.6486 215.1433
   215.1433 215.7087 215.7087 215.8042 217.5640 217.5640 218.3931 218.6196
   219.0481 219.5317 219.5317 224.4543 225.3046 225.3046 226.3526 226.3526
   228.2250 229.8939 229.8939 230.0211 232.0445 232.0445 232.1065 232.1065
   232.7931 232.7931 232.9621 233.4299 233.4299 233.9050 233.9098 233.9098
   234.2397 236.8681 239.3690 239.3690 239.7563 240.7468 240.7468 242.3640
   242.9167 246.0408 246.2264 246.2264 246.5419 246.5419 247.0919 247.0919
   248.2484 248.2778 248.2778 248.8153 254.8638 254.8638 256.9628 257.7468
   257.7468 257.9203 258.9106 259.7635 260.7007 260.7007 262.3599 262.3599
   262.7637 263.1221 263.7264 263.7338 263.7338 265.1566 265.1566 267.1501
   268.7953 268.7953 269.8011 270.0208 270.0208 270.9617 273.7653 274.5555
   274.5555 276.6558 276.9265 276.9265 278.0446 279.4532 279.5392 279.5392
   279.8628 279.8628 280.7193 280.7193 280.8003 280.8003 280.9283 281.0844
   288.3105 294.0593 294.0593 295.1951 295.1951 296.1315 296.6210 296.6210
   297.5439 297.5439 298.4693 299.4009 300.6185 300.6185 300.9191 300.9191
   301.8829 303.2390 305.2591 305.2885 305.3840 305.5809 305.5809 306.1630
   306.1630 306.6830 308.3946 308.7462 308.7462 310.1052 310.1052 311.2582
   312.4653 312.4653 313.5030 313.5030 314.9956 315.2859 315.2859 315.7313
   315.7313 316.1693 317.2621 317.2621 318.0155 318.0155 318.5166 318.8069
   320.2956 320.2956 320.3252 320.3252 320.4977 321.0179 321.2696 321.2696
   321.4296 321.4296 322.7243 322.7393 327.2042 330.0715 331.2547 331.2547
   332.5959 332.8009 332.8009 333.5791 337.0250 337.0250 337.1382 337.1382
   338.1909 338.1909 338.9676 338.9676 338.9806 339.8976 342.3514 342.7603
   342.7603 344.0779 344.0779 344.8025 345.6689 345.6689 346.3560 346.6039
   346.6039 346.7905 348.1690 349.1764 349.1764 349.9141 349.9141 350.1912
   351.2006 351.2006 351.2762 351.2762 351.4794 351.6431 359.8232 359.8232
   360.4273 362.4480 362.4480 362.7036 363.2469 363.2469 363.2583 363.2583
   363.7082 363.7082 363.7458 364.0942 364.2401 364.5955 364.5955 364.8462
   371.3675 371.3675 372.6917 373.1604 373.1604 373.5073 374.7679 375.2868
   375.2868 375.6561 376.5031 376.5031 377.3305 377.6239 377.9940 378.6689
   378.6689 379.0641 379.0641 379.3491 385.3843 385.3843 385.5918 385.5918
   388.2049 388.8666 388.8666 390.7132 390.7132 391.0668 392.4957 392.5117
   392.7691 392.7691 393.2624 393.2624 393.5978 394.3501 395.2143 395.2143
   395.5180 396.9142 396.9142 397.7496 397.7496 397.7807 397.7807 397.7975
   403.2802 403.2802 403.8160 404.0812 404.0812 404.2990 404.4751 404.8206
   404.8206 405.3849 405.3849 405.6385 408.0899 408.0899 409.5579 409.5619
   409.5619 409.6091 412.6625 412.7850 412.7850 412.9807 412.9807 413.1233
   414.6032 415.4849 415.4849 416.6534 416.6534 416.7081 419.5196 419.5196
   419.9276 419.9276 421.1544 422.9180 422.9625 423.7454 424.4279 424.4279
   424.7846 424.7846 429.8033 430.1052 430.1052 430.6431 431.7826 431.7826
   432.2425 432.2603 432.2603 432.4169 432.7987 432.7987 432.8149 434.6989
   435.4055 435.4055 435.6568 435.6568 436.0294 436.3746 440.4844 441.8577
   441.8577 442.5055 442.5055 442.7241 445.3319 445.3319 445.3969 445.9309
   445.9309 446.5273 447.4862 447.6169 447.6169 447.8660 447.9050 447.9050
   451.0499 451.0499 451.1252 451.1252 451.3490 451.3819 452.7915 452.8691
   452.8691 453.0900 453.0900 453.1342 453.9312 453.9312 453.9607 453.9607
   453.9681 454.0375 456.0662 456.6493 456.7034 456.7034 456.8109 456.8109
   459.1740 459.6391 459.6391 459.9064 459.9064 460.1009 463.2042 463.2042
   463.9222 463.9222 464.1626 464.2571 464.5656 465.1798 465.1798 465.2507
   465.7813 465.7813 467.2758 467.2758 467.3944 467.3944 467.4618 467.5347
   475.2150 475.2586 475.2586 475.5397 476.1531 476.1531 478.8373 479.5986
   480.9971 480.9971 481.4108 481.4152 481.4152 482.4442 485.9800 485.9800
   486.4664 486.4664 493.0841 493.0841 493.1617 493.1617 493.3426 493.6338
   493.6338 494.1996 494.4110 494.4110 494.4212 494.4423 494.4885 494.9508
   494.9919 494.9919 495.1592 495.1592 496.4624 496.4624 496.4698 496.4698
   498.1197 498.1241 503.7269 503.9612 503.9612 504.9181 505.0918 506.3783
   506.5519 506.5519 507.2049 507.2049 507.2208 507.6235 507.6235 508.4757
   508.4757 510.5834 510.6233 510.6233 512.3596 512.3596 512.3895 512.3895
   512.6301 512.6513 517.4891 518.2372 519.5964 519.5964 520.4760 521.0093
   521.0093 521.3374 523.5315 523.5315 524.6490 524.6740 524.6740 524.7068
   526.5770 526.5770 526.8245 526.8245 526.9799 526.9799 528.0017 528.3563
   528.5212 528.5212 530.9271 530.9271 530.9968 531.2574 531.2574 531.8665
   532.7100 533.7458 533.7458 533.9020 535.1113 535.1113 535.7685 535.7685
   535.8453 536.1388 536.3118 536.3118 538.0826 538.2420 538.2420 538.4016
   538.4016 538.5681 540.2778 540.2778 540.4099 540.4099 540.8382 540.8521
   541.4779 541.9488 541.9488 542.0259 542.2495 542.2495 544.3312 544.3312
   544.3832 544.3832 544.3994 544.4241 550.3614 550.3731 550.3731 551.0488
   551.0488 551.0986 553.1439 553.4342 553.4342 554.0521 554.0521 554.5727
   554.8560 555.2668 555.2668 555.6532 555.6532 555.7474 561.0845 561.1023
   561.1023 561.5427 561.5427 561.6123 561.7037 562.3217 562.3217 562.3494
   562.7387 562.7387 562.7915 562.8128 562.8128 563.6900 563.6900 564.7322
   569.6788 569.6788 569.7726 569.7726 569.9120 569.9242 570.7555 570.7555
   570.9872 571.4995 571.6436 571.6436 572.2774 572.3585 572.3585 572.4823
   572.4823 572.5847 573.8495 576.6338 578.5435 578.5435 578.7140 578.7140
   580.1021 580.3576 580.3576 580.7065 580.9525 580.9525 581.4466 581.5828
   581.5828 581.9906 581.9906 582.0945 582.1534 582.2183 582.2183 582.2358
   582.2698 582.2698 588.5778 588.5778 588.7594 588.8250 589.9248 589.9248
   590.9098 592.0624 597.1133 597.1133 597.5442 597.6463 597.6463 597.8530
   597.8530 598.0560 598.5188 598.5188 598.6241 600.5520 600.5520 600.6783
   600.6783 602.5542 608.9331 608.9331 608.9804 609.3154 609.3154 609.4920
   610.2529 610.2529 610.5055 610.8792 610.8969 610.8969 611.1577 611.1577
   611.1786 611.2348 611.2348 611.3190 611.4575 611.4575 611.6003 611.7163
   611.7163 611.7910 614.6885 614.6885 614.6981 614.7250 614.7250 614.7802
   616.3362 617.1517 617.1517 617.7449 617.7449 618.1617 623.0733 623.0733
   623.4265 623.6262 624.0541 624.0541 626.5929 626.5929 626.6429 626.6574
   626.6650 626.6650 629.0152 629.0268 629.0268 629.1660 629.1660 629.1876
   631.6867 632.0606 632.0606 632.0885 632.1226 632.1226 633.5724 634.8534
   634.8534 635.1464 635.2088 635.2088 635.9453 636.0205 636.0205 636.5047
   636.5047 636.6610 636.6610 636.7196 636.7627 637.2039 637.6648 637.6648
   641.7612 641.7612 641.8294 641.8294 642.2736 642.2809 650.4171 650.5476
   650.5476 651.0031 651.3712 651.7838 651.7838 653.0424 655.2074 655.2074
   655.4169 655.4169 655.4479 655.4958 656.1457 656.2633 656.2633 656.3086
   656.4604 656.4604 657.1316 657.1316 657.2046 657.2046 658.4837 658.5929
   661.4568 661.4568 661.5576 662.4097 662.5628 662.5628 664.4886 664.4886
   664.7131 664.7131 664.9523 665.8456 666.7807 666.7807 667.4611 667.4611
   667.5132 667.6995 668.0796 668.0869 669.4068 669.4068 669.4349 669.4349
   670.5940 670.5940 670.5991 670.8049 670.8049 671.2784 671.6729 671.6729
   671.7055 671.7055 671.8493 671.8701 673.0165 673.0165 673.0306 673.0481
   673.0481 673.0758 673.1708 673.1708 673.1855 673.2668 673.2668 673.2897
   683.8807 683.8807 683.9538 684.0933 684.0933 684.2526 685.7017 685.7017
   685.7685 685.7685 686.1402 686.2073 686.2106 686.2574 686.6112 686.6112
   686.6281 686.6281 686.8581 688.3235 688.3235 689.1492 690.4445 690.4445
   694.9210 695.9934 695.9934 696.2763 696.4562 696.4562 696.4816 696.6028
   696.6028 696.9847 698.8469 699.0048 699.0048 699.0946 699.8933 699.8933
   699.9269 700.2176 700.2176 700.5007 701.4706 701.7257 701.7257 702.0911
   702.0911 702.2316 702.3764 702.3764 702.6766 702.6766 704.1376 704.2005
   704.2005 704.2152 704.2152 704.4274 711.1660 711.1660 711.1700 711.1700
   712.6623 712.6623 712.9681 713.0600 713.2094 713.2160 713.2200 713.2200
   713.5931 713.6413 713.6413 713.7386 713.7386 713.8337 714.7907 715.1958
   715.4716 715.4716 715.7230 715.7380 715.7482 715.7482 717.6657 717.6657
   717.7138 717.7138 720.4843 720.4843 720.4845 720.4845 721.4991 721.4992
   725.3577 725.3577 725.3775 725.3878 725.4668 725.4668 728.1200 728.1792
   728.1792 728.2820 728.2847 728.2847 739.2759 739.3809 739.3809 739.8332
   740.6182 740.6182 740.9117 740.9117 741.5024 741.7059 741.7059 741.7273
   741.9090 741.9090 741.9396 741.9396 742.0816 742.4232 742.4725 742.5794
   742.7162 742.7162 742.8382 742.8382 743.3277 743.5340 743.5340 744.0865
   744.0865 744.5258 744.7131 744.9669 744.9669 745.2472 745.2472 745.3316
   750.5976 750.8569 751.6506 751.6506 751.6558 751.7680 751.7813 751.7813
   752.5965 752.6893 752.6893 752.8764 752.8764 752.9459 753.0583 753.1577
   753.1577 753.2750 753.2750 753.4312 754.2966 754.2966 754.4110 754.4481
   754.4481 754.7512 754.8970 754.9989 754.9989 755.1386 755.1386 755.3479
   760.4612 760.4612 760.4712 760.4712 760.7981 760.8005 760.9260 760.9260
   760.9329 760.9329 762.5290 762.5290 762.6055 762.6365 762.6365 762.6523
   762.9025 762.9257 762.9257 762.9670 762.9670 762.9910 770.5164 770.5164
   770.5326 770.6388 770.6640 770.6640 775.7616 775.7672 775.7672 775.7806
   775.7806 775.7970 783.1252 783.1252 783.1647 783.2910 783.3223 783.3223
   783.3665 783.3665 783.3788 783.4580 783.8070 783.8070 787.1173 787.2298
   787.2298 787.4549 787.4549 787.5026 787.5676 787.5676 787.6865 787.6865
   787.7027 787.8219 797.0553 797.0553 797.1132 797.1979 797.6305 797.6305

          k = 0.0000-1.0000 0.0000 (  2450 PWs)   bands (ev):

    -1.3311   0.6971   5.1553   5.1553  10.6440  10.9660  21.3780  21.3780
    24.4715  25.8874  27.2513  27.2513  27.8548  31.9322  34.8320  35.2665
    35.2665  38.7645  39.7403  39.9440  39.9440  40.3075  47.4969  50.4479
    50.4479  52.9522  57.6982  57.6982  59.2464  59.4039  61.1659  63.5190
    65.4745  66.5382  66.5382  66.7872  67.5456  67.8517  67.8517  71.6793
    74.7435  74.7435  78.3028  82.5236  83.8983  83.8983  84.4338  86.5249
    86.5249  89.8421  90.7822  92.4202  94.0263  94.9889  94.9889  95.4614
    96.6255  96.6255  97.6172  97.7110  97.7110  97.8380  97.9899  98.1828
   103.9852 107.1235 111.1020 111.1020 111.4731 112.4016 112.4016 112.4545
   115.0368 116.7044 116.7044 116.7635 117.4056 118.4898 119.0474 119.0474
   120.5331 120.8994 121.9845 122.1585 122.1585 124.6235 124.9528 126.6966
   126.6966 127.4966 127.4966 128.5790 133.3391 136.0968 136.0968 139.2614
   140.7809 141.3233 142.1093 142.1093 145.2311 145.4127 145.4127 146.4821
   147.7630 147.7630 147.9301 148.8297 150.8692 150.8692 151.5069 153.2965
   155.4011 156.5992 156.5992 157.6352 159.4338 160.9858 160.9858 163.2910
   165.4182 165.8238 168.6257 168.6257 172.0237 173.3135 173.3135 173.9024
   175.1732 177.2965 177.9326 177.9326 178.4112 179.2077 180.8879 180.8879
   181.4174 182.0338 182.6528 182.6926 183.0087 183.0087 183.9627 184.7530
   184.7530 185.1970 185.1970 186.1790 186.2484 188.1766 190.3592 193.2861
   193.2861 193.7536 195.5942 198.3108 198.3108 198.9963 200.1947 200.7707
   200.8566 201.8201 201.8201 203.1218 203.1218 203.7747 204.0945 204.6014
   204.6174 204.6174 205.6532 205.6532 207.4770 208.4824 208.5078 209.0579
   209.0579 211.4127 211.5782 211.5782 211.8174 212.9290 213.3158 213.3158
   214.1577 214.3722 214.9550 214.9550 215.3351 216.2518 218.9628 219.0684
   219.4772 219.4772 222.1906 226.7686 226.7686 226.8206 227.9482 227.9482
   229.5685 230.4780 230.4780 231.5027 232.1751 234.2477 238.9842 238.9842
   239.3444 239.6134 240.4190 240.4190 240.7855 241.1219 241.3129 241.4710
   241.4710 244.2696 244.5734 244.6547 244.6547 246.0538 252.8545 252.8545
   253.1765 253.9567 257.0380 257.4212 257.4212 257.8426 261.8616 261.9509
   261.9509 262.3089 262.9085 263.0639 264.1511 264.6033 264.6033 265.6104
   267.1060 268.1454 268.1454 268.3111 268.4839 269.6803 269.6803 269.8637
   270.8010 270.8010 270.9906 271.3759 271.3759 272.0153 277.0168 277.1967
   277.1967 277.7559 277.7559 277.9812 279.2812 279.4163 284.1351 284.1351
   285.3460 287.3455 288.2810 288.2810 288.6704 288.7857 290.0469 290.3179
   290.3179 290.8947 290.9543 290.9543 291.1356 292.7423 292.7423 292.8086
   293.1497 293.4904 294.3050 294.3050 294.3613 294.4043 295.9103 295.9501
   295.9501 296.4750 296.5563 296.7700 296.7700 298.7668 300.6972 300.8000
   300.9460 300.9460 300.9707 300.9707 301.1617 301.1780 307.7983 309.5722
   311.2996 311.2996 311.9432 311.9432 314.3911 314.4168 319.8350 319.8350
   319.8597 319.9323 319.9323 320.0443 320.1730 320.4543 320.6039 321.8478
   322.1516 322.2731 322.2731 322.4973 322.4973 323.1839 323.3720 325.3847
   326.7382 326.7382 327.6981 327.6981 328.1555 329.6674 331.2020 331.2169
   332.3686 332.3686 332.3935 332.3935 333.2433 333.2495 335.8456 335.8456
   335.9146 336.2630 339.7142 339.7142 340.4678 341.9101 342.5684 343.8702
   343.8702 344.6656 346.3499 346.3499 347.1353 347.7637 347.9916 348.0027
   348.0027 348.1632 349.4836 350.4907 352.6603 353.2242 353.2242 353.6085
   354.5192 354.5192 355.3678 356.2317 356.5697 356.5737 356.5737 356.9521
   358.5375 358.5375 359.0745 359.3542 361.3545 361.4029 361.4029 361.4191
   361.4526 361.4526 361.5349 361.5383 367.4027 368.6333 368.6333 369.3177
   369.7042 369.8376 375.7680 375.7680 376.1889 376.3543 376.4697 376.9132
   376.9132 377.3439 377.3439 377.4646 377.7004 377.7004 381.3305 382.2094
   382.2094 382.2376 382.3284 382.5545 382.5545 382.5958 383.0141 383.4187
   383.4680 383.6992 383.7378 383.7378 384.0372 384.0653 384.0691 384.0691
   384.9749 384.9749 385.0900 385.2621 385.8755 385.8755 387.2401 387.8694
   388.2813 389.0115 389.0115 389.2844 389.3098 389.4855 389.4855 389.5698
   390.4204 390.5153 390.5153 390.5379 401.3541 404.9431 404.9431 405.0372
   405.5837 405.9263 405.9263 406.8357 407.7505 407.8520 408.9698 408.9698
   409.2646 409.2646 410.8689 410.9067 414.7736 414.7962 415.0572 415.0572
   415.1735 415.4387 415.4387 415.7430 420.8567 421.3218 421.3218 421.5691
   422.6724 423.7089 423.7089 424.3174 427.3417 427.3417 428.4403 428.8997
   429.5106 430.4673 430.4673 431.3277 434.1859 434.1859 434.4660 434.4994
   435.8581 435.8581 436.0453 436.3570 438.2511 440.9654 440.9654 442.1964
   442.1964 442.3430 442.7423 442.7640 443.7505 444.0794 444.0794 445.5601
   445.5997 445.9039 446.1601 446.1601 446.3570 446.5133 446.5133 446.8704
   447.1148 447.2211 447.2211 447.3104 447.3871 447.3871 447.4432 447.5426
   448.2009 448.2335 448.2335 448.3076 457.6685 459.1107 459.3694 459.7324
   460.0295 460.0295 460.6238 460.6238 461.5742 461.8348 462.9148 462.9922
   462.9922 463.7617 463.8459 464.1321 464.1321 464.2912 464.6459 464.6459
   465.2494 465.2749 467.5390 467.5390 467.8695 467.8695 468.4761 468.4761
   468.7314 468.7945 468.8264 468.8346 468.9083 470.1427 471.5162 471.5162
   471.8821 472.5816 472.9815 473.3034 473.3034 473.6949 474.7453 475.2409
   475.2861 475.2861 475.4179 475.4866 475.7424 475.7424 475.7923 475.9019
   476.5945 476.5945 476.6121 476.6121 477.9927 477.9927 478.0747 478.1061
   478.1130 478.1334 478.1334 478.2191 485.8709 487.2542 487.2542 487.5664
   487.5664 488.4839 488.8054 489.2109 490.9798 491.5740 492.8125 492.8125
   492.9650 494.0000 494.0000 494.2760 495.4772 495.4772 495.6670 495.6983
   496.8077 496.8077 496.8794 496.8794 497.0468 497.0722 497.6445 497.6679
   498.7764 498.7764 498.8059 498.8571 501.9099 502.8267 502.8267 502.8304
   502.9483 503.5793 503.5793 503.9032 506.6891 506.7659 507.4144 507.4413
   507.4721 507.4721 507.5062 507.5062 507.6440 507.6444 509.0279 509.0279
   521.9804 521.9804 522.4669 522.4994 522.8220 522.8220 522.9763 523.4749
   524.1009 524.5047 524.6436 524.6436 524.6774 527.3013 527.6399 528.0640
   528.0640 528.7867 528.7867 528.8873 529.0021 529.0749 529.0749 529.2509
   529.2509 529.5720 529.8660 530.2435 530.3273 530.3273 530.5425 530.6691
   530.9415 530.9415 530.9954 532.7672 533.8823 533.8954 533.8954 533.9559
   534.1663 534.2008 536.1350 536.1350 536.2173 536.2173 537.2567 537.2568
   537.4750 537.4750 537.5626 537.5735 548.0674 548.4268 548.4268 549.0026
   549.1129 549.6941 549.6941 550.7174 551.7262 552.0807 552.6134 552.6134
   553.2520 553.5990 553.7727 553.7727 554.4052 554.4052 554.5250 554.7096
   555.5112 555.5403 555.5530 555.5530 557.0230 557.2978 557.2978 557.7968
   557.9950 558.0206 558.0875 558.0875 558.1311 558.1666 558.1666 558.1820
   559.1768 559.2504 559.2504 559.3242 562.2216 562.2428 562.2474 562.2474
   564.4109 564.4125 564.4125 564.4157 575.2734 577.5097 577.5097 577.9878
   577.9878 578.5608 578.6831 579.5592 579.9614 580.1933 581.3035 581.5403
   581.5634 581.5634 581.9965 581.9965 582.0725 582.3387 583.6150 583.6150
   584.0066 584.1635 584.9985 585.4306 585.4306 585.8140 586.5251 586.5251
   586.6084 586.6520 587.3429 587.3612 587.3612 587.4623 587.8761 587.8782
   588.1532 588.1532 591.8164 592.2880 592.2881 592.7113 592.8761 592.8761
   592.8826 593.2303 593.2303 593.4777 593.5039 593.6280 596.4428 596.6586
   597.6241 597.6241 598.4890 600.4791 600.4791 602.6299 604.5559 606.4023
   613.5607 613.5607 613.6054 613.6054 614.3187 614.8620 615.4478 615.4478
   616.3119 616.3119 616.4413 616.7031 616.7301 617.1403 617.4360 617.5615
   617.5615 617.5654 617.6054 618.2880 618.4713 618.4713 618.9923 618.9923
   619.2072 619.3177 619.3497 619.3497 619.3845 620.0280 620.7995 620.7995
   620.9651 621.2094 622.6572 622.7161 622.7342 622.7342 622.7529 622.7663
   622.7663 622.8823 623.1125 623.1288 623.1288 623.1384 634.1485 634.4541
   634.9046 634.9046 635.0494 635.5282 635.7398 635.7558 635.7558 636.5664
   636.5664 636.6547 636.8392 637.1724 637.1724 637.2241 637.7354 637.8923
   637.8923 638.3980 638.3980 638.5731 638.5888 638.8145 638.9711 640.1203
   640.2030 640.6121 640.6121 640.7063 640.8884 640.8884 641.0908 641.1798
   642.3291 642.3291 642.5291 642.5291 643.8472 644.0351 644.1468 644.1468
   644.3380 644.3538 644.4363 644.4363 644.5238 644.5813 648.9515 649.0147
   649.0147 649.4038 649.6945 649.6991 649.6991 649.8457 649.8464 650.0691
   650.0691 650.1463 650.5313 650.7304 650.7670 650.7670 651.1136 651.1141
   651.2160 651.2160 651.3188 651.3247 651.3247 651.6315 653.5064 653.6291
   653.6477 653.6483 653.6483 653.7182 653.7182 653.7733 654.1177 654.1649
   654.2032 654.2032 654.2454 654.2454 654.2736 654.3075 666.4973 666.4973
   666.5725 666.7667 666.8099 667.5423 667.7946 667.7946 669.0805 669.1618
   669.2722 669.2722 669.3949 669.4257 669.4257 669.4311 676.3700 676.8114
   676.8237 676.8237 677.3228 677.3723 677.3723 677.6800 679.2031 679.2414
   679.4772 679.4772 679.6383 679.9508 679.9508 679.9867 680.4501 680.4882
   680.4882 680.9986 681.0031 681.1932 681.2529 681.2529 681.6400 681.7150
   681.7150 681.7668 681.8412 681.8953 681.8953 681.9738 694.3599 695.0300
   695.0853 696.2845 696.2845 696.5603 696.5603 697.6030 697.6030 697.9147
   698.1566 698.5751 699.6478 699.6877 699.6877 700.2530 700.5348 700.5348
   700.9164 700.9170 701.6337 702.5904 703.5848 703.5848 703.7093 703.7093
   704.2027 704.3068 705.2521 705.2657 705.8644 705.8734 705.8734 706.2204
   706.3624 706.3624 709.6609 709.6689 709.8932 709.8932 709.8953 709.8953
   710.0866 710.0927 710.5568 710.5568 710.7331 710.8195 710.8410 710.8413
   710.8413 710.8449 719.2591 719.3415 719.5241 719.5241 721.1806 723.0163
   723.9639 724.4054 724.6769 724.6769 725.7583 725.7583 726.1244 726.1244
   726.5432 727.0207 727.0534 727.2108 727.2108 727.5243 728.0050 728.0444
   728.5109 728.8783 728.8783 729.1901 729.4567 729.4567 729.7056 729.7056
   730.6056 730.8002 731.7909 731.9806 732.1578 732.1578 732.1853 732.1938
   732.2972 732.3375 732.7744 732.7744 732.8096 732.8096 732.9265 732.9268
   733.7005 733.7841 733.8399 733.8399 733.8711 733.9225 734.2472 734.2472
   734.2556 734.2556 734.7179 734.7181 739.0034 739.2299 739.8713 739.8713
   740.0314 740.0818 740.4936 740.4936 740.4968 740.4968 741.6922 741.7038
   741.7919 741.7919 751.2840 751.5199 752.4024 752.4024 752.4747 752.4747
   752.4754 752.7335 753.3117 753.3168 753.4538 753.5713 753.5713 754.0414
   754.0414 754.3442 756.3022 756.5960 756.5960 756.8876 758.1669 758.3060
   758.3060 758.4342 760.3768 760.3768 760.4947 760.5993 762.2664 762.2783
   762.2783 762.3036 767.0123 767.0180 767.1162 767.1162 767.3921 767.4617
   767.4617 767.4708 768.5097 768.5097 768.7170 768.8108 768.8233 768.9859
   768.9859 769.0600 769.0725 769.2350 769.2350 769.2596 769.2848 769.3170
   769.3170 769.4261 781.2143 781.3101 781.4544 781.4544 781.9878 782.1066
   782.1873 782.1873 786.5457 787.3587 787.3701 787.4126 787.4126 788.0960
   788.2376 788.2959 788.2959 788.3662 788.4951 788.5893 788.6573 788.6573
   788.7420 788.8267 788.8267 788.9738 790.0743 790.0743 790.5085 790.5085
   791.3711 791.4360 791.5583 791.9409 791.9724 791.9724 792.3618 792.3618

     the Fermi energy is     9.4432 ev
     (compare with:     9.3220 eV, computed in scf)

     Writing all to output data dir out/mp-1479.save/
 
     init_run     :      0.04s CPU      0.05s WALL (       1 calls)
     electrons    :    213.29s CPU    229.32s WALL (       1 calls)

     Called by init_run:
     wfcinit      :      0.00s CPU      0.00s WALL (       1 calls)
     potinit      :      0.01s CPU      0.01s WALL (       1 calls)
     hinit0       :      0.01s CPU      0.02s WALL (       1 calls)

     Called by electrons:
     c_bands      :    213.28s CPU    229.32s WALL (       1 calls)
     v_of_rho     :      0.01s CPU      0.01s WALL (       1 calls)

     Called by c_bands:
     init_us_2    :      0.00s CPU      0.00s WALL (       3 calls)
     init_us_2:cp :      0.00s CPU      0.00s WALL (       3 calls)
     paro_k       :    206.36s CPU    221.91s WALL (       3 calls)

     Called by paro_*:
     h_psi        :      3.78s CPU      3.99s WALL (     313 calls)
     g_psi        :      0.08s CPU      0.09s WALL (   30428 calls)

     Called by h_psi:
     h_psi:calbec :      0.05s CPU      0.06s WALL (     313 calls)
     vloc_psi     :      3.67s CPU      3.86s WALL (     313 calls)
     add_vuspsi   :      0.04s CPU      0.04s WALL (     313 calls)

     General routines
     calbec       :      0.05s CPU      0.06s WALL (     313 calls)
     fft          :      0.00s CPU      0.01s WALL (      10 calls)
     fftw         :      3.27s CPU      3.44s WALL (   49842 calls)
 
     Parallel routines
 
     PWSCF        :   3m33.70s CPU   3m50.35s WALL

 
   This run was terminated on:  14: 3:33   4Dec2023            

=------------------------------------------------------------------------------=
   JOB DONE.
=------------------------------------------------------------------------------=
