
     Program PWSCF v.7.1 starts on  4Dec2023 at 14:52: 2 

     This program is part of the open-source Quantum ESPRESSO suite
     for quantum simulation of materials; please cite
         "P. Giannozzi et al., J. Phys.:Condens. Matter 21 395502 (2009);
         "P. Giannozzi et al., J. Phys.:Condens. Matter 29 465901 (2017);
         "P. Giannozzi et al., J. Chem. Phys. 152 154105 (2020);
          URL http://www.quantum-espresso.org", 
     in publications or presentations arising from this work. More details at
     http://www.quantum-espresso.org/quote

     Parallel version (MPI), running on    24 processors

     MPI processes distributed on     1 nodes
     121717 MiB available memory on the printing compute node when the environment starts
 
     Reading input from pw_mp-1479_scf_k3000_E94.in
Warning: card &CELL ignored
Warning: card / ignored

     Current dimensions of program PWSCF are:
     Max number of different atomic species (ntypx) = 10
     Max number of k-points (npk) =  40000
     Max angular momentum in pseudopotentials (lmaxx) =  4
 
     K-points division:     npool     =       2
     R & G space division:  proc/nbgrp/npool/nimage =      12
     Subspace diagonalization in iterative solution of the eigenvalue problem:
     a serial algorithm will be used

 
     Parallelization info
     --------------------
     sticks:   dense  smooth     PW     G-vecs:    dense   smooth      PW
     Min          79      79     24                 1610     1610     267
     Max          80      80     26                 1613     1613     269
     Sum         955     955    295                19339    19339    3215
 
     Using Slab Decomposition
 


     bravais-lattice index     =            2
     lattice parameter (alat)  =       8.5645  a.u.
     unit-cell volume          =     157.0536 (a.u.)^3
     number of atoms/cell      =            2
     number of atomic types    =            2
     number of electrons       =         8.00
     number of Kohn-Sham states=            8
     kinetic-energy cutoff     =      94.0000  Ry
     charge density cutoff     =     376.0000  Ry
     scf convergence threshold =      1.0E-10
     mixing beta               =       0.7000
     number of iterations used =            8  plain     mixing
     Exchange-correlation= PBE
                           (   1   4   3   4   0   0   0)

     celldm(1)=   8.564512  celldm(2)=   0.000000  celldm(3)=   0.000000
     celldm(4)=   0.000000  celldm(5)=   0.000000  celldm(6)=   0.000000

     crystal axes: (cart. coord. in units of alat)
               a(1) = (  -0.500000   0.000000   0.500000 )  
               a(2) = (   0.000000   0.500000   0.500000 )  
               a(3) = (  -0.500000   0.500000   0.000000 )  

     reciprocal axes: (cart. coord. in units 2 pi/alat)
               b(1) = ( -1.000000 -1.000000  1.000000 )  
               b(2) = (  1.000000  1.000000  1.000000 )  
               b(3) = ( -1.000000  1.000000 -1.000000 )  


     PseudoPot. # 1 for B  read from file:
     /usr/scratch4/magr4985/MG/HTDF/pseudo/SG15/B.upf
     MD5 check sum: eb3cbeacc2d324d57d903df00f564d27
     Pseudo is Norm-conserving, Zval =  3.0
     Generated using ONCVPSP code by D. R. Hamann
     Using radial grid of  602 points,  4 beta functions with: 
                l(1) =   0
                l(2) =   0
                l(3) =   1
                l(4) =   1

     PseudoPot. # 2 for P  read from file:
     /usr/scratch4/magr4985/MG/HTDF/pseudo/SG15/P.upf
     MD5 check sum: 0688a67b2b263c6b42d3d97c42745426
     Pseudo is Norm-conserving, Zval =  5.0
     Generated using ONCVPSP code by D. R. Hamann
     Using radial grid of  602 points,  4 beta functions with: 
                l(1) =   0
                l(2) =   0
                l(3) =   1
                l(4) =   1

     atomic species   valence    mass     pseudopotential
        B              3.00    10.81100     B ( 1.00)
        P              5.00    30.97380     P ( 1.00)

     24 Sym. Ops. (no inversion) found



   Cartesian axes

     site n.     atom                  positions (alat units)
         1           B   tau(   1) = (   0.0000000   0.0000000   0.0000000  )
         2           P   tau(   2) = (  -0.2500000   0.2500000   0.2500001  )

     number of k points=    72  Gaussian smearing, width (Ry)=  0.0005
                       cart. coord. in units 2pi/alat
        k(    1) = (   0.0000000   0.0000000   0.0000000), wk =   0.0011574
        k(    2) = (  -0.0833333   0.0833333  -0.0833333), wk =   0.0092593
        k(    3) = (  -0.1666667   0.1666667  -0.1666667), wk =   0.0092593
        k(    4) = (  -0.2500000   0.2500000  -0.2500000), wk =   0.0092593
        k(    5) = (  -0.3333333   0.3333333  -0.3333333), wk =   0.0092593
        k(    6) = (  -0.4166667   0.4166667  -0.4166667), wk =   0.0092593
        k(    7) = (   0.5000000  -0.5000000   0.5000000), wk =   0.0046296
        k(    8) = (   0.0000000   0.1666667   0.0000000), wk =   0.0069444
        k(    9) = (  -0.0833333   0.2500000  -0.0833333), wk =   0.0277778
        k(   10) = (  -0.1666667   0.3333333  -0.1666667), wk =   0.0277778
        k(   11) = (  -0.2500000   0.4166667  -0.2500000), wk =   0.0277778
        k(   12) = (  -0.3333333   0.5000000  -0.3333333), wk =   0.0277778
        k(   13) = (   0.5833333  -0.4166667   0.5833333), wk =   0.0277778
        k(   14) = (   0.5000000  -0.3333333   0.5000000), wk =   0.0277778
        k(   15) = (   0.4166667  -0.2500000   0.4166667), wk =   0.0277778
        k(   16) = (   0.3333333  -0.1666667   0.3333333), wk =   0.0277778
        k(   17) = (   0.2500000  -0.0833333   0.2500000), wk =   0.0277778
        k(   18) = (   0.1666667  -0.0000000   0.1666667), wk =   0.0138889
        k(   19) = (   0.0000000   0.3333333   0.0000000), wk =   0.0069444
        k(   20) = (  -0.0833333   0.4166667  -0.0833333), wk =   0.0277778
        k(   21) = (  -0.1666667   0.5000000  -0.1666667), wk =   0.0277778
        k(   22) = (  -0.2500000   0.5833333  -0.2500000), wk =   0.0277778
        k(   23) = (   0.6666667  -0.3333333   0.6666667), wk =   0.0277778
        k(   24) = (   0.5833333  -0.2500000   0.5833333), wk =   0.0277778
        k(   25) = (   0.5000000  -0.1666667   0.5000000), wk =   0.0277778
        k(   26) = (   0.4166667  -0.0833333   0.4166667), wk =   0.0277778
        k(   27) = (   0.3333333   0.0000000   0.3333333), wk =   0.0138889
        k(   28) = (   0.0000000   0.5000000   0.0000000), wk =   0.0069444
        k(   29) = (  -0.0833333   0.5833333  -0.0833333), wk =   0.0277778
        k(   30) = (  -0.1666667   0.6666667  -0.1666667), wk =   0.0277778
        k(   31) = (   0.7500000  -0.2500000   0.7500000), wk =   0.0277778
        k(   32) = (   0.6666667  -0.1666667   0.6666667), wk =   0.0277778
        k(   33) = (   0.5833333  -0.0833333   0.5833333), wk =   0.0277778
        k(   34) = (   0.5000000   0.0000000   0.5000000), wk =   0.0138889
        k(   35) = (   0.0000000   0.6666667   0.0000000), wk =   0.0069444
        k(   36) = (  -0.0833333   0.7500000  -0.0833333), wk =   0.0277778
        k(   37) = (   0.8333333  -0.1666667   0.8333333), wk =   0.0277778
        k(   38) = (   0.7500000  -0.0833333   0.7500000), wk =   0.0277778
        k(   39) = (   0.6666667  -0.0000000   0.6666667), wk =   0.0138889
        k(   40) = (   0.0000000   0.8333333   0.0000000), wk =   0.0069444
        k(   41) = (   0.9166667  -0.0833333   0.9166667), wk =   0.0277778
        k(   42) = (   0.8333333   0.0000000   0.8333333), wk =   0.0138889
        k(   43) = (   0.0000000  -1.0000000   0.0000000), wk =   0.0034722
        k(   44) = (  -0.1666667   0.3333333   0.0000000), wk =   0.0277778
        k(   45) = (  -0.2500000   0.4166667  -0.0833333), wk =   0.0555556
        k(   46) = (  -0.3333333   0.5000000  -0.1666667), wk =   0.0555556
        k(   47) = (   0.5833333  -0.4166667   0.7500000), wk =   0.0555556
        k(   48) = (   0.5000000  -0.3333333   0.6666667), wk =   0.0277778
        k(   49) = (  -0.1666667   0.5000000   0.0000000), wk =   0.0277778
        k(   50) = (  -0.2500000   0.5833333  -0.0833333), wk =   0.0555556
        k(   51) = (   0.6666667  -0.3333333   0.8333333), wk =   0.0555556
        k(   52) = (   0.5833333  -0.2500000   0.7500000), wk =   0.0555556
        k(   53) = (   0.5000000  -0.1666667   0.6666667), wk =   0.0555556
        k(   54) = (   0.4166667  -0.0833333   0.5833333), wk =   0.0555556
        k(   55) = (   0.3333333   0.0000000   0.5000000), wk =   0.0277778
        k(   56) = (  -0.1666667   0.6666667  -0.0000000), wk =   0.0277778
        k(   57) = (   0.7500000  -0.2500000   0.9166667), wk =   0.0555556
        k(   58) = (   0.6666667  -0.1666667   0.8333333), wk =   0.0555556
        k(   59) = (   0.5833333  -0.0833333   0.7500000), wk =   0.0555556
        k(   60) = (   0.5000000   0.0000000   0.6666667), wk =   0.0277778
        k(   61) = (   0.8333333  -0.1666667   1.0000000), wk =   0.0277778
        k(   62) = (   0.7500000  -0.0833333   0.9166667), wk =   0.0555556
        k(   63) = (   0.6666667   0.0000000   0.8333333), wk =   0.0277778
        k(   64) = (  -0.1666667  -1.0000000  -0.0000000), wk =   0.0138889
        k(   65) = (   0.6666667  -0.3333333   1.0000000), wk =   0.0277778
        k(   66) = (   0.5833333  -0.2500000   0.9166667), wk =   0.0555556
        k(   67) = (   0.5000000  -0.1666667   0.8333333), wk =   0.0277778
        k(   68) = (   0.6666667  -0.1666667   1.0000000), wk =   0.0277778
        k(   69) = (   0.5833333  -0.0833333   0.9166667), wk =   0.0555556
        k(   70) = (   0.5000000   0.0000000   0.8333333), wk =   0.0277778
        k(   71) = (  -0.3333333  -1.0000000   0.0000000), wk =   0.0138889
        k(   72) = (  -0.5000000  -1.0000000   0.0000000), wk =   0.0069444

     Dense  grid:    19339 G-vectors     FFT dimensions: (  40,  40,  40)

     Estimated max dynamical RAM per process >       2.23 MB

     Estimated total dynamical RAM >      48.90 MB

     Initial potential from superposition of free atoms

     starting charge       7.9605, renormalised to       8.0000
     Starting wfcs are random

     total cpu time spent up to now is        0.1 secs

     Self-consistent Calculation

     iteration #  1     ecut=    94.00 Ry     beta= 0.70
     Davidson diagonalization with overlap
     ethr =  1.00E-02,  avg # of iterations =  8.6

     total cpu time spent up to now is        0.5 secs

     total energy              =     -18.89199691 Ry
     estimated scf accuracy    <       0.15217998 Ry

     iteration #  2     ecut=    94.00 Ry     beta= 0.70
     Davidson diagonalization with overlap
     ethr =  1.90E-03,  avg # of iterations =  1.9

     total cpu time spent up to now is        0.7 secs

     total energy              =     -18.92210015 Ry
     estimated scf accuracy    <       0.02147142 Ry

     iteration #  3     ecut=    94.00 Ry     beta= 0.70
     Davidson diagonalization with overlap
     ethr =  2.68E-04,  avg # of iterations =  1.8

     total cpu time spent up to now is        0.9 secs

     total energy              =     -18.92673085 Ry
     estimated scf accuracy    <       0.00051253 Ry

     iteration #  4     ecut=    94.00 Ry     beta= 0.70
     Davidson diagonalization with overlap
     ethr =  6.41E-06,  avg # of iterations =  5.5

     total cpu time spent up to now is        1.1 secs

     total energy              =     -18.92687901 Ry
     estimated scf accuracy    <       0.00001673 Ry

     iteration #  5     ecut=    94.00 Ry     beta= 0.70
     Davidson diagonalization with overlap
     ethr =  2.09E-07,  avg # of iterations =  2.2

     total cpu time spent up to now is        1.3 secs

     total energy              =     -18.92688577 Ry
     estimated scf accuracy    <       0.00000048 Ry

     iteration #  6     ecut=    94.00 Ry     beta= 0.70
     Davidson diagonalization with overlap
     ethr =  5.95E-09,  avg # of iterations =  2.6

     total cpu time spent up to now is        1.5 secs

     total energy              =     -18.92688602 Ry
     estimated scf accuracy    <          1.0E-08 Ry

     iteration #  7     ecut=    94.00 Ry     beta= 0.70
     Davidson diagonalization with overlap
     ethr =  1.25E-10,  avg # of iterations =  3.4

     total cpu time spent up to now is        1.7 secs

     End of self-consistent calculation

          k = 0.0000 0.0000 0.0000 (  2421 PWs)   bands (ev):

    -6.1965   9.2764   9.2764   9.2764  12.7092  12.7092  12.7092  16.6991

          k =-0.0833 0.0833-0.0833 (  2427 PWs)   bands (ev):

    -6.0710   8.3201   9.0633   9.0633  13.0037  13.0037  13.0586  17.0626

          k =-0.1667 0.1667-0.1667 (  2415 PWs)   bands (ev):

    -5.6976   6.4457   8.6123   8.6123  13.3279  13.6115  13.6115  17.9682

          k =-0.2500 0.2500-0.2500 (  2427 PWs)   bands (ev):

    -5.0885   4.4339   8.1596   8.1596  13.3140  14.0689  14.0689  18.8993

          k =-0.3333 0.3333-0.3333 (  2424 PWs)   bands (ev):

    -4.2770   2.5449   7.8074   7.8074  13.2143  14.1659  14.1659  19.3902

          k =-0.4167 0.4167-0.4167 (  2428 PWs)   bands (ev):

    -3.3769   0.9757   7.5899   7.5899  13.1311  14.0775  14.0775  19.4446

          k = 0.5000-0.5000 0.5000 (  2392 PWs)   bands (ev):

    -2.8618   0.2344   7.5169   7.5169  13.1006  14.0231  14.0231  19.4162

          k = 0.0000 0.1667 0.0000 (  2405 PWs)   bands (ev):

    -6.0291   8.6473   8.6473   8.7185  12.3920  13.5221  13.5221  17.0278

          k =-0.0833 0.2500-0.0833 (  2425 PWs)   bands (ev):

    -5.7381   7.0851   8.1192   8.5663  12.4868  14.0753  14.2642  17.2280

          k =-0.1667 0.3333-0.1667 (  2424 PWs)   bands (ev):

    -5.2065   5.1374   7.6646   8.1313  12.9261  14.2697  14.8258  17.3584

          k =-0.2500 0.4167-0.2500 (  2424 PWs)   bands (ev):

    -4.4580   3.2176   7.3583   7.6435  13.1585  14.3021  14.9482  17.9030

          k =-0.3333 0.5000-0.3333 (  2424 PWs)   bands (ev):

    -3.5658   1.5283   7.2249   7.2252  13.1912  14.2542  14.7549  18.8830

          k = 0.5833-0.4167 0.5833 (  2419 PWs)   bands (ev):

    -2.8294   0.4218   6.9278   7.2661  13.2295  14.2333  14.5062  19.5465

          k = 0.5000-0.3333 0.5000 (  2423 PWs)   bands (ev):

    -3.0157   0.6834   6.7798   7.4703  13.3453  14.3160  14.3346  19.6198

          k = 0.4167-0.2500 0.4167 (  2422 PWs)   bands (ev):

    -3.8706   2.0555   6.8003   7.8158  13.5063  14.2226  14.5016  19.1982

          k = 0.3333-0.1667 0.3333 (  2424 PWs)   bands (ev):

    -4.7297   3.8450   7.0005   8.2660  13.6451  14.0060  14.6250  18.4558

          k = 0.2500-0.0833 0.2500 (  2426 PWs)   bands (ev):

    -5.4100   5.7896   7.3855   8.7479  13.5337  13.6541  14.3733  17.9022

          k = 0.1667-0.0000 0.1667 (  2427 PWs)   bands (ev):

    -5.8627   7.5354   8.0454   9.0968  13.0414  13.3380  13.7978  17.4529

          k = 0.0000 0.3333 0.0000 (  2429 PWs)   bands (ev):

    -5.5303   7.3499   7.5452   7.5452  11.7437  15.1617  15.1617  16.2137

          k =-0.0833 0.4167-0.0833 (  2428 PWs)   bands (ev):

    -5.0799   5.7705   7.0627   7.2890  11.8224  15.4552  15.8261  15.9320

          k =-0.1667 0.5000-0.1667 (  2417 PWs)   bands (ev):

    -4.4042   3.9629   6.7459   6.7537  12.2461  15.5201  15.9364  16.2412

          k =-0.2500 0.5833-0.2500 (  2417 PWs)   bands (ev):

    -3.5527   2.2555   6.1766   6.6223  12.4586  15.7559  16.0915  16.6548

          k = 0.6667-0.3333 0.6667 (  2422 PWs)   bands (ev):

    -2.7102   0.9332   5.6961   6.6968  12.5993  15.6697  15.7580  18.2403

          k = 0.5833-0.2500 0.5833 (  2419 PWs)   bands (ev):

    -2.5342   0.6938   5.3739   6.9591  12.8577  15.4272  15.6149  19.6800

          k = 0.5000-0.1667 0.5000 (  2419 PWs)   bands (ev):

    -3.2624   1.7787   5.2467   7.3820  13.2542  15.1152  15.6125  19.1519

          k = 0.4167-0.0833 0.4167 (  2420 PWs)   bands (ev):

    -4.1437   3.3923   5.3560   7.9116  13.6905  14.6808  15.5530  18.0208

          k = 0.3333 0.0000 0.3333 (  2411 PWs)   bands (ev):

    -4.8840   4.9674   5.9164   8.4382  13.9365  14.0390  15.0670  17.6091

          k = 0.0000 0.5000 0.0000 (  2429 PWs)   bands (ev):

    -4.7117   5.5927   6.5418   6.5418  11.1175  14.2683  17.0207  17.0207

          k =-0.0833 0.5833-0.0833 (  2418 PWs)   bands (ev):

    -4.1151   4.3397   5.9866   6.1863  11.2641  13.7241  17.6113  17.6928

          k =-0.1667 0.6667-0.1667 (  2413 PWs)   bands (ev):

    -3.3261   2.8877   5.2094   6.0305  11.6397  14.2396  17.7093  17.7571

          k = 0.7500-0.2500 0.7500 (  2408 PWs)   bands (ev):

    -2.4648   1.5775   4.5002   6.0843  11.8393  15.7308  17.4491  17.6498

          k = 0.6667-0.1667 0.6667 (  2403 PWs)   bands (ev):

    -2.0026   0.9791   3.9902   6.3414  12.1213  17.0174  17.2375  18.0060

          k = 0.5833-0.0833 0.5833 (  2411 PWs)   bands (ev):

    -2.5078   1.6745   3.7510   6.7779  12.5786  16.4829  17.2961  19.1328

          k = 0.5000 0.0000 0.5000 (  2421 PWs)   bands (ev):

    -3.3659   2.8124   4.0338   7.3399  13.1653  15.6765  16.8266  18.0550

          k = 0.0000 0.6667 0.0000 (  2397 PWs)   bands (ev):

    -3.6008   3.6861   5.7818   5.7818  10.6877  12.6235  18.8969  18.8969

          k =-0.0833 0.7500-0.0833 (  2413 PWs)   bands (ev):

    -2.8910   2.6716   5.1228   5.5758  10.9268  12.4100  19.4184  19.4428

          k = 0.8333-0.1667 0.8333 (  2404 PWs)   bands (ev):

    -2.0783   1.7248   4.1009   5.5837  11.2290  13.4648  19.2764  19.5045

          k = 0.7500-0.0833 0.7500 (  2409 PWs)   bands (ev):

    -1.5043   1.1807   3.2418   5.8038  11.4994  15.3526  18.7537  19.3937

          k = 0.6667-0.0000 0.6667 (  2424 PWs)   bands (ev):

    -1.7623   1.4467   2.9393   6.2173  11.9508  17.5201  17.8385  19.0857

          k = 0.0000 0.8333 0.0000 (  2418 PWs)   bands (ev):

    -2.2797   1.8329   5.3133   5.3133  10.5435  11.4927  20.5705  20.5705

          k = 0.9167-0.0833 0.9167 (  2417 PWs)   bands (ev):

    -1.6069   1.0966   4.7210   5.2644  10.8335  11.6712  20.7905  20.9086

          k = 0.8333 0.0000 0.8333 (  2408 PWs)   bands (ev):

    -1.2500   0.8991   3.7414   5.4323  11.0841  13.2141  20.1488  20.6361

          k = 0.0000-1.0000 0.0000 (  2450 PWs)   bands (ev):

    -1.3312   0.6971   5.1553   5.1553  10.6440  10.9659  21.3780  21.3780

          k =-0.1667 0.3333 0.0000 (  2424 PWs)   bands (ev):

    -5.3675   6.2212   6.9684   8.3493  12.5428  14.6327  15.0349  16.7354

          k =-0.2500 0.4167-0.0833 (  2423 PWs)   bands (ev):

    -4.7631   4.5493   6.3388   7.9299  13.0136  14.7248  15.6351  16.6100

          k =-0.3333 0.5000-0.1667 (  2425 PWs)   bands (ev):

    -3.9589   2.7571   6.0572   7.4312  13.3050  14.5352  15.8174  17.3628

          k = 0.5833-0.4167 0.7500 (  2420 PWs)   bands (ev):

    -3.0689   1.2339   5.9484   7.0380  13.3728  14.2818  15.8162  18.6921

          k = 0.5000-0.3333 0.6667 (  2412 PWs)   bands (ev):

    -2.5614   0.5102   5.9308   6.8831  13.3840  14.1691  15.7959  19.6445

          k =-0.1667 0.5000 0.0000 (  2428 PWs)   bands (ev):

    -4.5562   4.8837   5.9859   7.0282  11.9411  14.8359  16.1294  16.9258

          k =-0.2500 0.5833-0.0833 (  2418 PWs)   bands (ev):

    -3.8212   3.4352   5.3689   6.5723  12.4467  14.9664  16.0080  17.5512

          k = 0.6667-0.3333 0.8333 (  2422 PWs)   bands (ev):

    -2.9503   1.9355   5.0096   6.2177  12.7129  15.4689  16.3809  17.7069

          k = 0.5833-0.2500 0.7500 (  2415 PWs)   bands (ev):

    -2.2424   0.9224   4.7068   6.1783  12.9210  15.2128  17.5723  18.1652

          k = 0.5000-0.1667 0.6667 (  2416 PWs)   bands (ev):

    -2.4304   1.1852   4.5003   6.4422  13.2447  14.9549  17.4519  18.7676

          k = 0.4167-0.0833 0.5833 (  2414 PWs)   bands (ev):

    -3.2600   2.4445   4.4974   6.9158  13.6359  14.7209  16.9530  17.5135

          k = 0.3333 0.0000 0.5000 (  2419 PWs)   bands (ev):

    -4.0976   3.8093   4.9591   7.4804  13.6020  14.6276  16.3629  16.7056

          k =-0.1667 0.6667-0.0000 (  2415 PWs)   bands (ev):

    -3.4595   3.4218   5.2527   5.8112  11.5135  13.2857  17.7384  18.8718

          k = 0.7500-0.2500 0.9167 (  2411 PWs)   bands (ev):

    -2.6448   2.3326   4.4757   5.4841  12.0207  13.8963  17.4781  19.4287

          k = 0.6667-0.1667 0.8333 (  2409 PWs)   bands (ev):

    -1.8692   1.3867   3.7633   5.5039  12.2832  15.5134  17.1572  19.3989

          k = 0.5833-0.0833 0.7500 (  2413 PWs)   bands (ev):

    -1.7532   1.2859   3.3185   5.8017  12.6363  16.4900  17.8127  18.7229

          k = 0.5000 0.0000 0.6667 (  2404 PWs)   bands (ev):

    -2.4366   2.0119   3.4083   6.3049  13.1428  15.8554  17.4082  18.7476

          k = 0.8333-0.1667 1.0000 (  2411 PWs)   bands (ev):

    -2.1684   1.8282   4.8258   5.0492  11.3473  12.2418  19.3717  20.5451

          k = 0.7500-0.0833 0.9167 (  2410 PWs)   bands (ev):

    -1.4682   1.1999   3.8902   5.0099  11.7975  13.3624  19.0281  20.4789

          k = 0.6667 0.0000 0.8333 (  2413 PWs)   bands (ev):

    -1.2804   1.1466   3.1178   5.2990  12.1308  15.3531  18.3315  19.3033

          k =-0.1667-1.0000-0.0000 (  2420 PWs)   bands (ev):

    -1.2678   0.8021   4.7301   4.7570  11.3966  11.7889  20.4832  21.0546

          k = 0.6667-0.3333 1.0000 (  2409 PWs)   bands (ev):

    -3.0514   2.7556   4.2677   6.0114  13.3028  14.8508  15.7863  18.8037

          k = 0.5833-0.2500 0.9167 (  2424 PWs)   bands (ev):

    -2.2119   1.7413   3.8469   5.5012  13.7454  15.0785  16.3639  19.3969

          k = 0.5000-0.1667 0.8333 (  2412 PWs)   bands (ev):

    -1.7439   1.1596   3.7739   5.2981  13.8030  15.0278  17.8919  18.4785

          k = 0.6667-0.1667 1.0000 (  2421 PWs)   bands (ev):

    -1.8696   1.7264   3.9237   4.7278  13.1465  14.0791  17.0773  20.1768

          k = 0.5833-0.0833 0.9167 (  2413 PWs)   bands (ev):

    -1.3082   1.2844   3.4088   4.5209  13.6541  15.5038  16.8030  18.4608

          k = 0.5000 0.0000 0.8333 (  2417 PWs)   bands (ev):

    -1.5069   1.4549   3.2258   4.8598  13.9638  15.8384  16.7112  18.1303

          k =-0.3333-1.0000 0.0000 (  2410 PWs)   bands (ev):

    -1.1301   1.0586   3.9719   4.0917  13.1320  13.7585  18.4242  19.0765

          k =-0.5000-1.0000 0.0000 (  2400 PWs)   bands (ev):

    -1.0546   1.2259   3.5969   3.7971  14.6177  16.0946  16.5313  16.7822

     the Fermi energy is     9.3220 ev

!    total energy              =     -18.92688603 Ry
     estimated scf accuracy    <          7.2E-11 Ry
     smearing contrib. (-TS)   =      -0.00000000 Ry
     internal energy E=F+TS    =     -18.92688603 Ry

     The total energy is F=E-TS. E is the sum of the following terms:
     one-electron contribution =       6.47373603 Ry
     hartree contribution      =       1.25906835 Ry
     xc contribution           =      -5.64934040 Ry
     ewald contribution        =     -21.01035001 Ry

     convergence has been achieved in   7 iterations

     Writing all to output data dir out/mp-1479.save/
 
     init_run     :      0.05s CPU      0.09s WALL (       1 calls)
     electrons    :      1.30s CPU      1.57s WALL (       1 calls)

     Called by init_run:
     wfcinit      :      0.04s CPU      0.06s WALL (       1 calls)
     potinit      :      0.01s CPU      0.01s WALL (       1 calls)
     hinit0       :      0.01s CPU      0.01s WALL (       1 calls)

     Called by electrons:
     c_bands      :      1.12s CPU      1.32s WALL (       7 calls)
     sum_band     :      0.15s CPU      0.19s WALL (       7 calls)
     v_of_rho     :      0.02s CPU      0.02s WALL (       8 calls)
     mix_rho      :      0.00s CPU      0.01s WALL (       7 calls)

     Called by c_bands:
     init_us_2    :      0.02s CPU      0.02s WALL (     540 calls)
     init_us_2:cp :      0.02s CPU      0.02s WALL (     540 calls)
     cegterg      :      1.00s CPU      1.12s WALL (     252 calls)

     Called by *egterg:
     cdiaghg      :      0.10s CPU      0.11s WALL (    1190 calls)
     h_psi        :      0.84s CPU      0.96s WALL (    1226 calls)
     g_psi        :      0.01s CPU      0.01s WALL (     938 calls)

     Called by h_psi:
     h_psi:calbec :      0.02s CPU      0.03s WALL (    1226 calls)
     vloc_psi     :      0.80s CPU      0.91s WALL (    1226 calls)
     add_vuspsi   :      0.01s CPU      0.02s WALL (    1226 calls)

     General routines
     calbec       :      0.02s CPU      0.02s WALL (    1226 calls)
     fft          :      0.01s CPU      0.01s WALL (      79 calls)
     ffts         :      0.00s CPU      0.00s WALL (       7 calls)
     fftw         :      0.83s CPU      0.93s WALL (   15824 calls)
     davcio       :      0.02s CPU      0.11s WALL (     880 calls)
 
     Parallel routines
 
     PWSCF        :      1.40s CPU      1.86s WALL

 
   This run was terminated on:  14:52: 4   4Dec2023            

=------------------------------------------------------------------------------=
   JOB DONE.
=------------------------------------------------------------------------------=
