
     Program PWSCF v.7.1 starts on  4Dec2023 at 13:55:29 

     This program is part of the open-source Quantum ESPRESSO suite
     for quantum simulation of materials; please cite
         "P. Giannozzi et al., J. Phys.:Condens. Matter 21 395502 (2009);
         "P. Giannozzi et al., J. Phys.:Condens. Matter 29 465901 (2017);
         "P. Giannozzi et al., J. Chem. Phys. 152 154105 (2020);
          URL http://www.quantum-espresso.org", 
     in publications or presentations arising from this work. More details at
     http://www.quantum-espresso.org/quote

     Parallel version (MPI), running on     8 processors

     MPI processes distributed on     1 nodes
     122136 MiB available memory on the printing compute node when the environment starts
 
     Reading input from pw_mp-1479_nscf_k0_E94.in
Warning: card &IONS ignored
Warning: card / ignored
Warning: card &CELL ignored
Warning: card / ignored

     Current dimensions of program PWSCF are:
     Max number of different atomic species (ntypx) = 10
     Max number of k-points (npk) =  40000
     Max angular momentum in pseudopotentials (lmaxx) =  4

     Atomic positions and unit cell read from directory:
     out/mp-1479.save/
     Atomic positions from file used, from input discarded
 
 
     R & G space division:  proc/nbgrp/npool/nimage =       8
     Subspace diagonalization in iterative solution of the eigenvalue problem:
     one sub-group per band group will be used
     scalapack distributed-memory algorithm (size of sub-group:  2*  2 procs)

 
     Parallelization info
     --------------------
     sticks:   dense  smooth     PW     G-vecs:    dense   smooth      PW
     Min         119     119     30                 2416     2416     302
     Max         120     120     31                 2419     2419     304
     Sum         955     955    241                19339    19339    2421
 
     Using Slab Decomposition
 


     bravais-lattice index     =            2
     lattice parameter (alat)  =       8.5645  a.u.
     unit-cell volume          =     157.0536 (a.u.)^3
     number of atoms/cell      =            2
     number of atomic types    =            2
     number of electrons       =         8.00
     number of Kohn-Sham states=          880
     kinetic-energy cutoff     =      94.0000  Ry
     charge density cutoff     =     376.0000  Ry
     Exchange-correlation= PBE
                           (   1   4   3   4   0   0   0)

     celldm(1)=   8.564512  celldm(2)=   0.000000  celldm(3)=   0.000000
     celldm(4)=   0.000000  celldm(5)=   0.000000  celldm(6)=   0.000000

     crystal axes: (cart. coord. in units of alat)
               a(1) = (  -0.500000   0.000000   0.500000 )  
               a(2) = (   0.000000   0.500000   0.500000 )  
               a(3) = (  -0.500000   0.500000   0.000000 )  

     reciprocal axes: (cart. coord. in units 2 pi/alat)
               b(1) = ( -1.000000 -1.000000  1.000000 )  
               b(2) = (  1.000000  1.000000  1.000000 )  
               b(3) = ( -1.000000  1.000000 -1.000000 )  


     PseudoPot. # 1 for B  read from file:
     /usr/scratch4/magr4985/MG/HTDF/pseudo/SG15/B.upf
     MD5 check sum: eb3cbeacc2d324d57d903df00f564d27
     Pseudo is Norm-conserving, Zval =  3.0
     Generated using ONCVPSP code by D. R. Hamann
     Using radial grid of  602 points,  4 beta functions with: 
                l(1) =   0
                l(2) =   0
                l(3) =   1
                l(4) =   1

     PseudoPot. # 2 for P  read from file:
     /usr/scratch4/magr4985/MG/HTDF/pseudo/SG15/P.upf
     MD5 check sum: 0688a67b2b263c6b42d3d97c42745426
     Pseudo is Norm-conserving, Zval =  5.0
     Generated using ONCVPSP code by D. R. Hamann
     Using radial grid of  602 points,  4 beta functions with: 
                l(1) =   0
                l(2) =   0
                l(3) =   1
                l(4) =   1

     atomic species   valence    mass     pseudopotential
        B              3.00    10.81100     B ( 1.00)
        P              5.00    30.97380     P ( 1.00)

     24 Sym. Ops. (no inversion) found



   Cartesian axes

     site n.     atom                  positions (alat units)
         1           B   tau(   1) = (   0.0000000   0.0000000   0.0000000  )
         2           P   tau(   2) = (  -0.2500000   0.2500000   0.2500001  )

     number of k points=     1  Gaussian smearing, width (Ry)=  0.0005
                       cart. coord. in units 2pi/alat
        k(    1) = (   0.0000000   0.0000000   0.0000000), wk =   2.0000000

     Dense  grid:    19339 G-vectors     FFT dimensions: (  40,  40,  40)

     Estimated max dynamical RAM per process >      57.84 MB

     Estimated total dynamical RAM >     462.75 MB

     The potential is recalculated from file :
     out/mp-1479.save/charge-density

     Starting wfcs are random

     Band Structure Calculation
     Davidson diagonalization with overlap

     ethr =  5.00E-06,  avg # of iterations = 13.0

     total cpu time spent up to now is       61.7 secs

     End of band structure calculation

          k = 0.0000 0.0000 0.0000 (  2421 PWs)   bands (ev):

    -6.1964   9.2764   9.2764   9.2764  12.7092  12.7092  12.7092  16.6991
    20.8342  21.4157  21.4157  25.0134  25.0134  25.0134  30.8630  39.7507
    39.7507  39.7507  46.1794  46.1794  46.1794  47.2301  47.2301  52.2631
    52.2631  52.2631  63.8011  63.8011  63.8011  64.0017  65.0806  65.0806
    66.1386  66.1386  66.1387  72.6816  72.6816  72.6816  74.0355  74.3624
    74.3624  75.1253  75.1253  75.1253  75.3158  75.3158  75.3158  76.3178
    76.3178  76.3178  81.8211  81.8211  81.8211  83.1005  84.6397  84.6397
    84.6397  89.2516  92.5361 100.5309 104.6536 104.6536 106.3433 106.3433
   106.3433 110.2995 110.2995 110.2995 114.7586 118.5137 118.5137 120.6423
   120.6423 120.6423 122.1747 122.1747 122.1747 127.2342 127.2342 127.2342
   132.5111 132.5111 132.5111 132.5595 132.5595 132.8930 132.8930 132.8930
   133.5006 135.1451 135.1451 137.2883 137.2883 137.2883 139.8654 139.8654
   139.8654 140.5787 140.5787 140.5787 141.2468 141.2468 141.2468 142.9118
   142.9118 142.9118 143.0406 143.7552 144.2850 144.2850 144.2850 144.3887
   144.3887 155.5358 155.5358 155.5358 159.6106 161.3578 161.3578 162.5313
   162.5313 162.5313 166.0666 166.0666 166.0666 167.2023 167.4376 167.4376
   167.4376 168.3043 168.3043 168.3043 168.9350 168.9350 168.9350 169.7062
   169.7062 181.0414 181.0414 182.3224 184.8544 184.8544 184.8544 185.3436
   185.3436 185.3436 187.6410 187.6410 187.6410 188.9982 190.6697 190.6697
   190.8013 190.8013 190.8013 191.2557 191.6777 191.6777 191.6777 192.0032
   192.0032 192.0032 192.1697 192.1697 192.1697 192.5925 192.5925 192.5925
   200.9517 211.3057 212.0175 212.0175 212.0175 214.9615 214.9615 214.9615
   215.7058 215.7058 216.8200 216.8200 216.8200 223.0277 223.0277 223.0277
   232.5255 232.5255 232.5255 234.2438 234.2438 236.8290 238.7996 238.7996
   238.7996 238.9193 238.9193 238.9193 239.6828 242.8050 242.8050 242.8050
   243.6482 243.6482 243.9465 243.9465 243.9465 247.4769 247.4769 247.6010
   247.6010 247.6010 247.8136 247.8136 247.8136 249.2385 249.2385 249.2385
   249.8201 249.9228 249.9228 249.9228 250.4852 250.4852 250.5162 250.5162
   250.5162 251.6777 251.6777 251.6777 252.3307 252.3307 252.3307 252.8289
   253.2033 253.9891 253.9891 253.9891 254.9520 254.9520 255.0761 255.0761
   255.0761 255.8063 259.2733 259.2733 259.3084 259.3084 259.3084 259.6884
   259.6884 259.6884 259.8799 259.8799 259.8799 260.2670 260.2670 260.2670
   260.2798 260.2798 261.1724 273.7022 273.7022 273.7022 275.6608 275.6608
   278.6944 283.0342 283.0342 283.0342 283.7853 283.7853 283.7853 284.4484
   284.4484 284.4484 284.8662 284.8662 284.8662 288.4880 288.4880 288.5422
   288.5422 288.5422 288.6370 290.8572 290.8572 290.8572 293.4860 293.4860
   293.4860 294.3281 296.6472 301.5367 301.5367 301.6799 301.6799 301.6800
   303.6203 303.6203 303.6203 304.4974 304.4974 304.4974 304.5764 304.5764
   304.5764 305.4908 305.4908 310.9523 310.9523 310.9523 313.3679 314.0604
   314.0604 314.4142 314.4142 314.4142 315.2301 315.2301 315.2301 315.8748
   315.8748 315.8748 316.0005 316.0005 316.0005 316.2490 316.8070 316.8070
   316.8070 317.1046 317.1046 337.1121 337.1121 337.1121 338.6435 338.8846
   338.8846 338.8846 341.1208 344.4788 344.4788 345.7520 345.7520 345.7520
   346.3747 346.3747 346.3747 347.1202 347.1202 347.1202 347.1411 353.6489
   353.6489 353.6489 354.3893 354.3893 357.1527 357.1527 357.1527 357.5127
   363.2177 363.2177 363.2177 363.3450 363.4464 363.4464 363.4464 363.5776
   363.5776 364.9725 364.9725 364.9725 365.6115 365.6115 365.9701 365.9970
   365.9970 365.9970 366.4898 366.4898 366.4898 366.5933 366.5933 366.5933
   366.9149 366.9149 366.9149 373.0035 373.0035 373.0035 373.0393 373.0393
   373.1130 373.1130 373.1130 373.2627 373.2627 373.2627 373.4062 375.7122
   375.7122 375.7122 376.2853 376.5392 376.5392 376.5392 376.6984 376.6984
   376.6984 376.7066 376.7066 384.6460 384.6460 384.6460 386.8938 387.6335
   387.6335 387.6335 388.7568 392.5520 392.5520 393.5171 393.5171 393.5171
   394.1683 394.1683 394.1683 395.6512 395.6512 395.6512 395.8435 395.8435
   395.8435 397.4319 397.4319 401.0826 401.0826 401.8419 401.8419 401.8419
   402.1827 402.1827 402.1827 402.4471 402.4471 402.4471 403.1504 403.1504
   403.1504 403.4760 403.4760 404.0452 404.7550 404.7550 404.7550 405.1654
   405.1654 405.1654 405.4637 412.9565 412.9565 412.9565 414.5815 415.7882
   415.7882 415.7882 416.2870 416.2870 417.2796 417.9331 417.9331 417.9331
   420.0578 420.0578 420.0578 420.1579 420.4634 420.4634 420.4634 420.9055
   420.9055 420.9055 421.8468 421.8468 421.8468 422.8296 422.8296 422.8296
   423.1915 423.1915 424.3132 424.4369 424.4369 424.6926 424.6926 424.6926
   425.1014 425.6505 425.6505 425.6505 425.7143 425.7143 425.7143 426.1785
   426.1785 426.1785 426.2274 426.2274 426.6835 426.6835 426.6835 426.8817
   426.8817 426.8892 426.8892 426.8892 427.1309 427.1309 427.1309 427.1906
   427.1906 427.1906 427.5182 427.5182 427.5182 427.6929 428.0375 428.0375
   428.0375 428.0887 428.0887 456.4828 456.4828 456.7685 457.1691 457.1691
   457.1691 468.7952 469.0823 469.0823 469.0823 470.9508 471.3564 471.3564
   471.3564 472.9601 472.9601 474.3807 474.3807 474.3807 475.6541 475.6541
   475.6541 476.6105 476.6105 476.6105 476.9621 476.9621 476.9621 478.1330
   478.1330 481.2881 482.6780 482.6780 482.6780 483.4928 483.4928 485.1362
   485.1362 485.1362 486.8464 487.1441 487.1441 487.1441 487.4545 489.5393
   489.5393 489.5393 489.5729 489.5729 489.5729 489.6641 489.6641 489.6641
   489.7572 489.7572 489.7572 492.7934 492.7934 492.8457 492.8457 492.8457
   492.9401 492.9401 492.9401 493.0915 493.0915 493.1532 493.1532 493.1532
   493.1583 493.1583 493.1583 493.2556 493.2556 493.2556 493.2623 493.2740
   493.2740 505.3506 505.3506 505.3506 505.4251 505.4251 505.4251 505.4617
   505.4617 505.8496 508.7176 508.7176 508.7176 514.5257 514.5257 514.5257
   514.8210 514.8210 516.3784 517.5866 517.5866 517.5866 518.1319 518.1319
   518.1319 518.2035 518.2035 518.2035 518.6047 518.6047 518.6047 519.7407
   519.9084 519.9084 519.9084 519.9914 519.9914 528.7210 528.8513 528.8513
   528.8513 529.0385 529.0385 529.0385 529.5196 529.5196 529.5196 529.5656
   529.5656 533.7839 535.2073 535.2073 535.2073 536.3561 536.3561 536.3561
   537.3539 537.3539 537.3539 537.4736 537.4736 538.6203 538.6203 538.6203
   538.6320 538.6320 538.8301 538.8301 538.8301 539.0896 539.0896 539.0896
   539.1199 539.1199 539.1199 539.2784 539.4626 539.7410 539.7410 539.7410
   540.0413 543.4608 543.4608 543.4608 543.4875 543.4875 543.5480 543.5480
   543.5480 543.5903 543.5903 543.5903 543.6389 549.4697 549.4697 549.4697
   550.0625 550.1370 550.1370 550.1370 550.1400 550.1400 550.1494 550.1494
   550.1494 551.5531 551.5747 551.5747 551.5747 551.5886 551.5886 551.5896
   551.5896 551.5896 551.7190 551.7190 551.7190 571.9771 572.0411 572.0411
   574.4198 574.4198 574.4198 574.9762 574.9762 574.9762 575.5296 575.5296
   575.5296 575.8645 575.8645 575.8645 576.3411 576.3411 576.3411 577.0158
   577.0158 577.2242 577.2242 577.2242 577.4496 582.2689 582.2689 582.2689
   582.8242 584.8370 586.1223 586.1223 586.1488 586.1488 586.1488 588.8218
   589.0817 589.0817 589.0817 589.7064 589.7064 589.7064 590.0973 590.0973
   590.0973 590.7246 590.7246 590.7246 591.1653 591.1653 592.1906 592.1906
   592.1906 592.3957 592.3957 598.1189 598.1189 598.1189 598.1803 598.1803
   598.1835 598.1835 598.1835 598.3736 598.3736 598.3736 598.7724 598.7724
   598.7724 598.9623 598.9623 598.9623 599.0005 599.0005 599.7690 600.0769
   600.0769 600.7328 600.7328 600.7328 600.8261 600.8818 600.8818 600.8818
   601.0169 601.0169 601.0169 601.0982 601.0982 601.0982 601.3278 601.3278
   601.3278 601.4331 601.4698 601.4698 601.4698 604.3914 604.3914 604.3914
   605.0414 605.9966 605.9966 605.9966 606.3211 606.4350 606.4350 606.7052
   606.7052 606.7052 606.7926 606.7926 606.7927 606.9819 606.9819 606.9819
   607.3456 607.3456 607.3456 607.5636 607.5636 609.4994 609.4994 609.6592
   609.6592 609.6592 610.0285 610.1943 610.1943 610.1943 610.3192 610.3192
   610.3192 610.3973 610.3973 610.3973 610.6218 610.6218 610.6218 610.7663
   610.7663 610.9663 610.9663 610.9663 611.1110 628.2783 628.2783 628.2783
   628.6115 628.8125 629.5962 629.5962 629.5962 638.0731 638.0740 638.0765

     the Fermi energy is    11.3613 ev
     (compare with:    11.3613 eV, computed in scf)

     Writing all to output data dir out/mp-1479.save/
 
     init_run     :      0.03s CPU      0.04s WALL (       1 calls)
     electrons    :     57.18s CPU     61.46s WALL (       1 calls)

     Called by init_run:
     wfcinit      :      0.00s CPU      0.00s WALL (       1 calls)
     potinit      :      0.01s CPU      0.02s WALL (       1 calls)
     hinit0       :      0.01s CPU      0.01s WALL (       1 calls)

     Called by electrons:
     c_bands      :     57.18s CPU     61.46s WALL (       1 calls)
     v_of_rho     :      0.01s CPU      0.01s WALL (       1 calls)

     Called by c_bands:
     init_us_2    :      0.00s CPU      0.00s WALL (       1 calls)
     init_us_2:cp :      0.00s CPU      0.00s WALL (       1 calls)
     cegterg      :     56.11s CPU     60.28s WALL (       1 calls)

     Called by *egterg:
     cdiaghg      :     53.77s CPU     57.88s WALL (      14 calls)
     h_psi        :      0.77s CPU      0.80s WALL (      15 calls)
     g_psi        :      0.01s CPU      0.01s WALL (      13 calls)

     Called by h_psi:
     h_psi:calbec :      0.01s CPU      0.01s WALL (      15 calls)
     vloc_psi     :      0.75s CPU      0.77s WALL (      15 calls)
     add_vuspsi   :      0.01s CPU      0.01s WALL (      15 calls)

     General routines
     calbec       :      0.01s CPU      0.01s WALL (      15 calls)
     fft          :      0.00s CPU      0.01s WALL (      10 calls)
     fftw         :      0.66s CPU      0.69s WALL (    9952 calls)
 
     Parallel routines
 
     PWSCF        :     57.38s CPU   1m 1.80s WALL

 
   This run was terminated on:  13:56:31   4Dec2023            

=------------------------------------------------------------------------------=
   JOB DONE.
=------------------------------------------------------------------------------=
