
     Program PWSCF v.7.1 starts on  5Apr2024 at 13:45: 8 

     This program is part of the open-source Quantum ESPRESSO suite
     for quantum simulation of materials; please cite
         "P. Giannozzi et al., J. Phys.:Condens. Matter 21 395502 (2009);
         "P. Giannozzi et al., J. Phys.:Condens. Matter 29 465901 (2017);
         "P. Giannozzi et al., J. Chem. Phys. 152 154105 (2020);
          URL http://www.quantum-espresso.org", 
     in publications or presentations arising from this work. More details at
     http://www.quantum-espresso.org/quote

     Parallel version (MPI), running on    16 processors

     MPI processes distributed on     1 nodes
     233912 MiB available memory on the printing compute node when the environment starts
 
     Reading input from pw_mp-1190_nscf_k690_E68.in
Warning: card &IONS ignored
Warning: card / ignored
Warning: card &CELL ignored
Warning: card / ignored

     Current dimensions of program PWSCF are:
     Max number of different atomic species (ntypx) = 10
     Max number of k-points (npk) =  40000
     Max angular momentum in pseudopotentials (lmaxx) =  4

     Atomic positions and unit cell read from directory:
     out/mp-1190.save/
     Atomic positions from file used, from input discarded
 
 
     R & G space division:  proc/nbgrp/npool/nimage =      16
     Subspace diagonalization in iterative solution of the eigenvalue problem:
     one sub-group per band group will be used
     scalapack distributed-memory algorithm (size of sub-group:  4*  4 procs)

 
     Parallelization info
     --------------------
     sticks:   dense  smooth     PW     G-vecs:    dense   smooth      PW
     Min          66      66     19                 1453     1453     231
     Max          67      67     20                 1457     1457     234
     Sum        1069    1069    313                23289    23289    3719
 
     Using Slab Decomposition
 


     bravais-lattice index     =            2
     lattice parameter (alat)  =      10.7051  a.u.
     unit-cell volume          =     306.6972 (a.u.)^3
     number of atoms/cell      =            2
     number of atomic types    =            2
     number of electrons       =        26.00
     number of Kohn-Sham states=         1200
     kinetic-energy cutoff     =      68.0000  Ry
     charge density cutoff     =     272.0000  Ry
     Exchange-correlation= PBE
                           (   1   4   3   4   0   0   0)

     celldm(1)=  10.705081  celldm(2)=   0.000000  celldm(3)=   0.000000
     celldm(4)=   0.000000  celldm(5)=   0.000000  celldm(6)=   0.000000

     crystal axes: (cart. coord. in units of alat)
               a(1) = (  -0.500000   0.000000   0.500000 )  
               a(2) = (   0.000000   0.500000   0.500000 )  
               a(3) = (  -0.500000   0.500000   0.000000 )  

     reciprocal axes: (cart. coord. in units 2 pi/alat)
               b(1) = ( -1.000000 -1.000000  1.000000 )  
               b(2) = (  1.000000  1.000000  1.000000 )  
               b(3) = ( -1.000000  1.000000 -1.000000 )  


     PseudoPot. # 1 for Se read from file:
     /usr/scratch4/magr4985/FGWC/FGWC/pseudo/SG15/Se.upf
     MD5 check sum: e78e48a4f5d8ce1f8dc76ec1271f249c
     Pseudo is Norm-conserving, Zval =  6.0
     Generated using ONCVPSP code by D. R. Hamann
     Using radial grid of  602 points,  6 beta functions with: 
                l(1) =   0
                l(2) =   0
                l(3) =   1
                l(4) =   1
                l(5) =   2
                l(6) =   2

     PseudoPot. # 2 for Zn read from file:
     /usr/scratch4/magr4985/FGWC/FGWC/pseudo/SG15/Zn.upf
     MD5 check sum: 732f41c0cd6489a4b50a33b4ec99a2d3
     Pseudo is Norm-conserving, Zval = 20.0
     Generated using ONCVPSP code by D. R. Hamann
     Using radial grid of  602 points,  6 beta functions with: 
                l(1) =   0
                l(2) =   0
                l(3) =   1
                l(4) =   1
                l(5) =   2
                l(6) =   2

     atomic species   valence    mass     pseudopotential
        Se             6.00    78.96000     Se( 1.00)
        Zn            20.00    65.40900     Zn( 1.00)

     24 Sym. Ops. (no inversion) found



   Cartesian axes

     site n.     atom                  positions (alat units)
         1           Zn  tau(   1) = (   0.0000000   0.0000000   0.0000000  )
         2           Se  tau(   2) = (  -0.7500000   0.7500000   0.7500000  )

     number of k points=    29  Gaussian smearing, width (Ry)=  0.0005
                       cart. coord. in units 2pi/alat
        k(    1) = (   0.0000000   0.0000000   0.0000000), wk =   0.0039062
        k(    2) = (  -0.1250000   0.1250000  -0.1250000), wk =   0.0312500
        k(    3) = (  -0.2500000   0.2500000  -0.2500000), wk =   0.0312500
        k(    4) = (  -0.3750000   0.3750000  -0.3750000), wk =   0.0312500
        k(    5) = (   0.5000000  -0.5000000   0.5000000), wk =   0.0156250
        k(    6) = (   0.0000000   0.2500000   0.0000000), wk =   0.0234375
        k(    7) = (  -0.1250000   0.3750000  -0.1250000), wk =   0.0937500
        k(    8) = (  -0.2500000   0.5000000  -0.2500000), wk =   0.0937500
        k(    9) = (   0.6250000  -0.3750000   0.6250000), wk =   0.0937500
        k(   10) = (   0.5000000  -0.2500000   0.5000000), wk =   0.0937500
        k(   11) = (   0.3750000  -0.1250000   0.3750000), wk =   0.0937500
        k(   12) = (   0.2500000   0.0000000   0.2500000), wk =   0.0468750
        k(   13) = (   0.0000000   0.5000000   0.0000000), wk =   0.0234375
        k(   14) = (  -0.1250000   0.6250000  -0.1250000), wk =   0.0937500
        k(   15) = (   0.7500000  -0.2500000   0.7500000), wk =   0.0937500
        k(   16) = (   0.6250000  -0.1250000   0.6250000), wk =   0.0937500
        k(   17) = (   0.5000000   0.0000000   0.5000000), wk =   0.0468750
        k(   18) = (   0.0000000   0.7500000   0.0000000), wk =   0.0234375
        k(   19) = (   0.8750000  -0.1250000   0.8750000), wk =   0.0937500
        k(   20) = (   0.7500000   0.0000000   0.7500000), wk =   0.0468750
        k(   21) = (   0.0000000  -1.0000000   0.0000000), wk =   0.0117188
        k(   22) = (  -0.2500000   0.5000000   0.0000000), wk =   0.0937500
        k(   23) = (   0.6250000  -0.3750000   0.8750000), wk =   0.1875000
        k(   24) = (   0.5000000  -0.2500000   0.7500000), wk =   0.0937500
        k(   25) = (   0.7500000  -0.2500000   1.0000000), wk =   0.0937500
        k(   26) = (   0.6250000  -0.1250000   0.8750000), wk =   0.1875000
        k(   27) = (   0.5000000   0.0000000   0.7500000), wk =   0.0937500
        k(   28) = (  -0.2500000  -1.0000000   0.0000000), wk =   0.0468750
        k(   29) = (  -0.5000000  -1.0000000   0.0000000), wk =   0.0234375

     Dense  grid:    23289 G-vectors     FFT dimensions: (  40,  40,  40)

     Estimated max dynamical RAM per process >     142.34 MB

     Estimated total dynamical RAM >       2.22 GB

     The potential is recalculated from file :
     out/mp-1190.save/charge-density

     Starting wfcs are random

     Band Structure Calculation
     Davidson diagonalization with overlap

     ethr =  5.00E-06,  avg # of iterations =  7.4

     total cpu time spent up to now is      545.5 secs

     End of band structure calculation

          k = 0.0000 0.0000 0.0000 (  2891 PWs)   bands (ev):

  -118.2038 -72.3730 -72.3730 -72.3730  -6.2340   0.4916   0.4916   0.4916
     0.8603   0.8603   7.0409   7.0409   7.0409   8.3230  12.8430  12.8430
    12.8430  16.9763  18.5220  18.5220  20.1078  20.1078  20.1078  22.9353
    33.2799  33.2799  33.2799  34.4780  34.4780  34.4780  35.4074  35.4074
    35.4074  36.1087  36.1087  42.8489  47.4986  47.4986  47.6013  47.6013
    47.6013  48.4523  48.7015  48.7015  48.7015  49.1617  49.1617  49.1617
    50.0215  50.0215  50.0215  51.4900  51.4900  51.4900  51.5461  51.5461
    51.5461  53.0253  53.0253  54.3549  57.5782  57.5782  57.5782  57.9733
    57.9733  57.9733  58.6886  64.4588  72.8560  72.8560  72.8560  73.5739
    73.5739  75.3239  77.8235  77.8235  77.8235  80.9046  80.9046  80.9046
    82.5361  82.5361  84.7779  84.7779  84.7779  84.7941  84.7941  84.7941
    86.5564  86.9150  86.9150  86.9150  87.7839  87.7839  89.2911  89.2911
    89.2911  90.8367  90.8367  90.8367  91.4392  91.4392  91.4392  91.5078
    91.5078  92.8389  92.8389  92.8389  93.5319  94.3677  94.8233  94.8233
    94.8233  95.2824  95.2824  95.2824  95.6237  95.6237  96.8142  96.8142
    96.8142 101.6723 105.5982 105.5982 105.5982 107.9806 107.9806 107.9806
   108.0838 108.0838 108.0838 108.9362 108.9362 108.9362 110.4731 110.6956
   110.6956 110.8185 110.8185 110.8185 111.1787 111.1787 115.2345 115.2345
   115.2345 118.2490 120.7673 120.7673 120.7673 121.3994 121.3994 122.0078
   123.1889 123.1889 123.1889 123.6056 124.8112 124.8112 124.8112 124.9496
   124.9496 124.9496 125.0400 125.0400 125.0400 126.2151 126.2151 126.2151
   126.6322 126.7869 126.7869 126.7869 127.3530 127.3530 130.6199 130.6199
   130.6199 138.1665 138.2309 138.2309 138.2309 140.7282 141.5261 141.5261
   142.0902 142.0902 142.0902 147.5394 147.5394 147.5394 149.9355 149.9355
   149.9355 150.6995 154.1853 154.1853 154.1853 154.6552 154.6552 155.5593
   155.5593 155.5593 156.8274 156.8274 156.8274 157.2869 157.2869 157.2869
   158.3732 158.3732 159.6405 159.7087 159.7087 159.7087 159.9296 159.9296
   159.9296 160.8035 160.8035 160.8035 161.0747 161.0747 161.8046 161.8046
   161.8046 162.2918 162.2918 162.2918 162.4148 162.4492 163.0078 163.0078
   163.0078 163.5134 163.5134 163.5145 163.5145 163.5145 164.0149 164.9056
   164.9056 164.9056 165.0601 165.9599 165.9599 168.0311 168.0311 168.0311
   168.3877 168.3877 168.3877 168.7072 168.7072 168.7072 169.1888 169.1888
   169.2438 169.2438 169.2438 169.9756 169.9756 169.9902 169.9902 169.9902
   174.8284 174.8284 174.8284 176.8655 181.4216 181.4216 181.4216 182.6261
   182.6261 183.7177 183.7177 183.7177 183.7934 183.7934 183.7934 184.9167
   184.9167 184.9167 185.3099 185.3099 185.3099 185.5395 187.2182 187.2182
   187.2182 187.2222 187.2222 187.2991 187.7826 192.7508 192.7508 192.7508
   193.5099 193.5099 193.5099 194.6610 194.6610 194.6610 194.9905 194.9905
   194.9905 196.1336 196.1336 196.6488 196.6488 196.6488 198.5524 198.5524
   198.5524 198.6839 199.3099 199.3099 203.2834 203.2834 203.2834 203.5620
   204.1169 204.1169 204.1169 204.1727 204.1727 204.1727 204.8753 204.8753
   204.9523 204.9523 204.9523 206.1428 206.1428 206.1428 207.1571 207.1571
   212.4662 212.4662 212.4662 217.4661 218.9583 220.0359 220.0359 220.0359
   220.3818 220.3818 220.3818 222.0625 222.0625 222.0625 222.5064 222.5064
   222.8585 224.5840 224.5840 224.5840 224.8163 224.8163 224.8163 227.7821
   228.2988 228.2988 228.9098 228.9098 228.9098 229.9212 229.9212 229.9212
   230.6234 231.7149 231.7149 232.6771 232.6771 232.6771 233.3002 235.5832
   235.5832 235.5832 235.7990 235.7990 235.7990 236.1483 236.1483 236.1483
   236.4965 236.4965 236.4965 238.6885 238.6885 238.6885 240.2819 240.2819
   240.4540 240.4540 240.4540 240.5130 240.5157 240.5157 240.5157 240.6283
   240.6283 240.6283 241.7383 241.7383 241.7383 242.0584 242.4465 242.4465
   243.3496 243.3496 243.3496 244.3207 244.3207 244.3207 244.7078 244.7078
   245.6251 245.6251 245.6251 247.0306 248.8487 251.5721 251.5721 251.5721
   251.6991 251.6991 251.6991 252.3186 252.3186 252.3186 252.5471 252.5471
   252.5471 253.8964 253.8964 256.0118 256.0118 256.0118 257.2707 257.2707
   258.4219 258.4219 258.4219 258.4825 258.4825 258.4825 258.5969 258.5969
   258.8894 258.8894 258.8894 259.4499 259.4499 259.4499 260.2707 260.6079
   260.6079 260.6079 260.7182 260.7182 261.2880 261.2880 261.2880 261.7643
   261.7643 261.7643 262.0914 264.0892 264.9058 268.3352 268.3352 268.3352
   269.0353 269.0353 269.4016 269.4016 269.4016 269.7710 269.7710 269.7710
   269.9207 269.9207 269.9207 270.9019 271.6300 271.6300 271.6300 271.7466
   271.7466 271.7466 272.3363 273.2918 273.2918 273.2918 273.7036 273.7036
   273.9505 273.9505 273.9505 274.2302 274.2302 274.2302 274.2953 274.2953
   274.2953 274.4795 274.5261 274.5261 274.8825 274.8825 274.8825 275.2496
   275.2496 275.2496 275.5543 275.5543 275.6252 275.6358 275.6358 275.6358
   275.7536 275.7536 275.7536 275.8700 275.8700 275.8700 276.2531 276.2531
   276.2865 276.2865 276.2865 283.2363 283.2363 283.2363 283.3600 283.3600
   292.6306 292.6306 292.6306 293.8909 294.9930 294.9930 295.4220 295.4220
   295.4220 300.4007 300.9405 302.9130 302.9130 302.9130 304.2398 304.2398
   304.2398 304.5040 304.5040 304.5040 304.5385 304.5385 304.7400 304.7400
   304.7400 305.8382 305.8382 305.8382 306.8564 308.7543 308.7543 308.7543
   308.8697 308.8697 309.3706 309.3706 309.3706 311.2288 312.5548 314.2030
   314.2030 314.2099 314.2099 314.2099 314.8370 314.8370 314.8370 315.0134
   315.0134 315.0134 315.0347 315.0347 315.0347 317.0582 317.0582 317.0582
   317.3741 317.3741 317.3741 317.4719 317.4719 317.4719 317.5177 317.5177
   317.6309 317.6310 317.6310 318.0346 318.0346 318.0439 318.0439 318.0439
   318.0941 319.0823 319.0823 319.0823 320.0194 320.0194 321.8345 321.8345
   321.8345 323.7525 323.7525 323.7525 324.3512 325.7574 325.7574 327.3986
   327.3986 327.3986 329.0587 329.0587 329.0587 330.8117 332.1685 332.1685
   332.1685 332.1819 332.1819 332.1819 332.5707 332.5707 332.5707 332.9779
   332.9779 333.1727 333.1727 333.1727 333.3753 333.3753 333.3753 334.4612
   334.5661 334.5661 334.5661 334.5914 334.5914 335.5724 335.5724 335.5724
   336.2457 341.8569 341.8569 341.8569 342.9079 342.9079 342.9079 342.9539
   344.7928 344.7928 344.7928 344.8405 344.8849 344.8849 345.0691 345.0691
   345.0691 345.3621 345.3621 345.3621 346.2403 346.3895 346.3895 346.6644
   346.6785 346.6785 346.6785 346.6902 346.6902 346.6902 346.6938 346.6938
   346.6938 346.7000 346.7000 348.7540 348.7540 348.7540 348.8798 348.8798
   348.8798 348.9380 348.9380 348.9380 349.0117 351.6306 351.6306 352.0385
   352.0385 352.0385 353.0455 353.0455 353.0455 353.2294 353.2294 353.2294
   353.7260 355.0347 355.0347 355.0347 355.0776 355.0776 355.1524 355.1524
   355.1524 355.2158 355.2158 355.2158 355.3705 358.8585 358.8585 362.8287
   362.8287 362.8287 367.1920 367.1920 367.1920 368.7467 369.1680 369.1680
   369.3452 369.3452 369.3452 370.0268 370.0268 370.0268 370.0539 370.0539
   370.0539 370.7679 370.7679 370.7679 370.8669 370.8725 370.8725 370.8725
   370.8969 370.8969 371.4246 371.4246 371.4246 372.0353 374.3925 374.9942
   374.9942 374.9942 376.3575 376.3575 376.3575 376.7198 376.7198 376.7198
   376.8183 376.8183 376.8183 377.5491 377.5491 377.9957 379.1560 379.1560
   379.1560 379.3743 379.3743 380.5330 380.5330 380.9166 380.9166 380.9166
   381.8776 381.8776 381.8776 382.0867 383.4780 383.4780 383.4780 383.6174
   383.6174 383.6174 383.6318 383.6318 383.6318 383.8974 383.8974 384.3348
   384.3348 384.3348 384.3854 384.3854 385.5071 385.5071 385.5071 385.9140
   386.2104 386.2104 386.2104 386.5689 386.5689 386.5689 386.6677 386.6677
   386.6677 386.9399 386.9399 386.9399 386.9737 387.0602 387.0602 387.0602
   387.2865 387.5378 387.5378 387.5378 387.9825 388.4934 388.4934 389.5508
   389.5508 389.5508 389.6948 389.6948 389.6948 389.7957 389.7957 389.7957
   389.9763 389.9763 389.9763 390.0529 390.0529 392.0858 392.0858 392.2792
   392.2792 392.2792 392.6949 392.7112 392.7112 392.7112 392.9308 392.9308
   392.9308 393.0093 393.0093 393.0093 393.3166 393.3166 393.3166 393.4165
   393.4165 393.6711 393.6711 393.6711 393.8345 398.8425 398.8425 398.8425
   401.4054 401.4054 401.4054 402.0965 402.2245 407.6867 407.6867 410.1222
   410.1222 410.1222 410.3342 410.3342 410.3342 410.3740 410.3740 410.3740
   410.3869 410.3869 410.3990 410.3990 410.3990 411.7593 411.7593 415.7120
   415.7120 415.7120 416.9922 416.9922 416.9922 417.2789 417.3816 417.3816
   418.0192 418.0192 418.0192 418.5701 418.5701 418.5701 418.5801 418.5801
   418.5801 418.7774 418.7774 418.7774 419.6022 422.6210 422.6210 422.6210
   423.6056 423.6056 423.6307 423.6307 423.6307 423.6895 424.1332 424.1332
   424.1332 424.2340 424.2340 424.2340 424.2513 424.2513 424.2513 424.9678
   424.9678 425.0189 425.0189 425.0189 425.0195 430.2439 430.2439 430.2439
   436.3517 436.3517 438.3976 438.3976 438.3976 439.2960 439.7464 441.1908
   441.1908 441.1908 441.2301 441.2301 441.2301 441.3818 441.3818 441.4435
   441.4435 441.4435 441.5855 441.5855 441.5855 442.1389 442.1389 442.1389
   444.3960 444.3960 444.6481 444.6481 444.6481 446.2784 446.2784 446.2784
   446.3837 449.3218 449.3218 449.3218 449.9744 449.9744 451.6940 451.6940
   451.6940 452.0907 453.2513 453.7881 453.7881 453.7881 454.3305 454.3305
   454.3305 454.5335 454.5335 454.5335 455.1811 456.4457 456.4457 457.5895
   457.5895 457.5895 457.8486 457.8486 458.2318 458.2318 458.2318 458.3596
   458.3596 458.3596 458.4034 458.4034 458.4034 458.9592 459.5671 459.5671
   459.5671 459.8561 459.8561 459.8561 459.9388 462.0817 462.0817 462.2505
   462.2505 462.2505 462.2675 462.2675 462.4460 462.4460 462.4460 462.4686
   462.4686 462.4686 462.5284 462.5284 462.5284 463.1050 463.1050 463.1841
   463.2544 463.2544 463.2544 464.6925 464.8454 464.8454 464.8454 464.9912
   464.9912 464.9912 464.9916 464.9916 465.1123 465.1123 465.1123 467.4334
   467.4334 467.4334 467.5255 467.5255 467.8301 467.8301 467.8301 467.8781
   467.8781 467.8781 467.9649 470.6762 470.6762 473.7992 473.7992 473.7992
   474.2637 474.2637 474.2637 474.9705 476.6474 476.6474 476.6474 476.6728
   476.6728 476.8407 476.8407 476.8407 477.4742 478.7828 478.7828 478.7828
   478.8558 478.8558 478.8558 478.8612 478.8612 478.9363 478.9363 478.9363
   479.1313 480.8007 480.8007 480.8007 481.0592 481.0592 481.0592 481.3221
   481.3221 481.3221 481.4023 481.6167 481.6167 483.1285 483.1285 483.1285
   483.6021 483.6021 483.6021 483.6422 483.6422 483.6422 483.9500 483.9500
   483.9500 484.5159 484.5159 484.5264 484.5264 484.5264 484.6194 484.6194
   484.6194 484.6878 484.6878 484.6878 484.7624 486.7199 486.7199 486.7825
   486.7825 486.7825 486.8812 488.5629 488.5629 488.5629 489.2207 489.2207
   491.9518 491.9518 491.9518 493.0259 493.9828 494.6537 494.6537 494.6537
   494.7850 494.7850 494.7850 495.0976 495.0976 495.0976 495.5456 495.5456
   495.5456 495.5731 495.5731 495.8015 495.8015 495.8015 495.9975 495.9975
   496.1640 496.1640 496.1640 496.3939 496.4677 496.4677 496.4677 496.9010
   497.2511 497.2511 497.2511 497.8202 497.8202 497.8423 497.8423 497.8423
   498.1821 498.1821 498.1821 498.3454 498.3454 498.3454 498.4560 498.4560
   498.4560 498.5700 498.5795 498.9695 498.9695 499.0137 499.0137 499.0137

          k =-0.1250 0.1250-0.1250 (  2872 PWs)   bands (ev):

  -118.2038 -72.3730 -72.3730 -72.3730  -6.1332   0.4984   0.5074   0.5074
     0.8589   0.8589   5.7203   6.8887   6.8887   9.3112  12.7851  13.0976
    13.0976  17.7293  17.7293  17.8433  19.4967  21.5870  21.5870  24.3843
    30.2771  30.6462  30.6462  34.2010  34.2010  35.3983  35.3983  35.5695
    36.8101  39.6608  39.6608  42.9073  43.7181  43.7181  44.6553  46.2931
    46.2931  46.7802  47.2229  47.2229  47.5442  48.6911  49.7485  49.7485
    50.5403  50.5403  50.5933  52.3749  52.3749  52.5969  53.4647  53.4647
    53.5139  54.4505  55.9895  55.9895  56.2367  57.0968  57.0968  58.9376
    60.4341  60.4341  63.0582  66.4331  69.0352  69.0352  69.7339  73.6721
    73.6721  77.4003  77.5997  77.7465  77.7465  78.8737  79.9525  79.9525
    81.4367  81.4367  82.6421  82.6421  82.8863  84.3067  84.3067  84.7892
    85.0044  86.3578  87.2677  87.2677  87.3466  88.1358  88.1358  88.5839
    88.5839  89.5054  89.5054  89.9038  91.1366  91.1366  91.4890  92.0037
    92.0037  92.2738  92.8320  93.9528  93.9528  96.0485  96.0485  96.0878
    97.0267  97.4787  97.4787  98.3417  98.4851  98.4851 100.2048 100.2048
   100.4764 101.2838 102.4614 102.4614 104.1598 104.2262 104.2262 104.2459
   106.2524 106.2524 109.2796 109.2796 109.2868 109.9501 111.0882 111.0882
   112.4673 112.6307 112.6307 113.3229 114.1012 115.0989 115.0989 115.1897
   116.6565 116.6565 117.8077 118.9708 118.9708 119.3891 119.4989 119.4989
   120.3098 120.4500 120.4500 121.1454 121.7246 121.7246 123.2200 124.2155
   124.2155 125.9318 126.6073 126.6073 127.1605 129.0164 129.2639 129.2639
   130.7740 131.0391 131.0391 131.6555 131.6555 132.4195 132.4195 132.6447
   134.4316 134.4316 134.5338 137.1617 138.2856 140.1081 141.7965 141.7965
   142.9322 144.2698 144.2698 144.7812 144.7812 145.8587 148.4238 148.4238
   148.4916 150.1727 150.4916 150.4916 151.1309 151.1309 151.9265 152.4023
   152.5443 152.5443 153.7213 154.2103 155.4696 155.4696 156.0846 156.0846
   156.4150 156.7974 156.7974 157.2111 157.6489 157.6489 158.2993 158.2993
   158.7865 158.9756 158.9756 158.9773 159.6472 160.3566 160.3566 161.4248
   161.4248 161.4675 161.7074 162.6907 162.6907 163.1995 163.2005 163.2005
   164.1238 164.1238 164.8921 164.8921 165.1762 166.1500 166.7606 166.8457
   166.8457 167.0398 167.7741 167.7741 168.2435 168.2435 169.3460 169.5306
   169.5306 169.6644 171.2228 171.2248 171.2248 171.2683 171.4428 171.4428
   172.3372 172.8549 172.8549 173.9615 174.1206 174.1206 175.0282 175.0282
   175.5427 175.9471 176.6859 176.6859 177.6966 177.6966 177.8985 179.3342
   179.9965 179.9965 180.9052 180.9052 181.2613 181.6458 181.7736 181.7736
   183.6876 183.6876 184.0295 186.4246 186.4246 187.6588 188.8081 189.7031
   189.7526 189.7526 190.4682 190.4832 190.4832 191.1629 191.1629 191.8595
   191.8595 192.5510 192.9091 192.9091 193.4446 194.7321 194.7321 195.6432
   195.6628 195.6628 196.3200 197.1879 197.1879 197.4930 197.8644 198.1147
   198.1147 199.2269 199.6434 199.6434 201.2249 201.8189 201.8189 203.1265
   203.3535 203.3535 204.5268 205.7806 205.7806 206.3249 207.0029 207.0029
   208.0756 209.3205 209.3205 210.8913 210.9105 211.1747 211.1747 211.3709
   211.3709 212.5525 214.5354 214.5924 214.5924 216.7137 216.7137 218.0651
   218.3889 218.3889 219.4276 219.4276 220.0118 221.4821 221.4821 221.9439
   222.4920 222.4920 222.6362 223.7030 223.8934 223.8934 225.2108 226.7566
   226.7566 227.3945 228.2023 228.2023 228.5730 228.5730 229.1208 229.3304
   229.6622 229.7558 229.7558 230.6098 230.6098 230.7892 230.9643 232.0318
   232.0318 232.5967 233.3396 233.9031 233.9031 235.4555 235.4555 235.5118
   236.3608 236.3608 237.6834 238.0524 238.0524 239.0825 239.6965 239.6965
   239.7764 240.0581 240.0581 240.2492 240.8805 240.8805 241.2686 242.5090
   242.5090 243.2729 243.7272 243.8248 243.8248 244.3432 244.3432 244.8448
   245.0638 245.0638 245.2097 245.6296 245.6296 245.9066 245.9066 245.9090
   246.1837 247.5376 247.5376 247.9652 248.4233 248.4233 249.3763 250.1229
   250.1229 250.4931 252.1791 252.2360 252.2360 252.8854 252.9696 253.0063
   253.0063 253.6160 253.6160 254.2906 254.6312 254.6312 255.1767 255.1767
   255.8393 256.5999 256.5999 256.7890 257.2296 257.2296 257.8005 258.3158
   258.3158 258.4358 259.2575 259.3399 259.9119 259.9119 260.1382 260.1382
   261.2294 261.4008 261.4008 261.6864 261.9376 261.9376 262.6718 262.6838
   262.6838 262.7128 263.3467 263.3467 264.2052 264.2052 264.6446 265.6893
   265.8523 265.8523 267.0310 267.0310 267.0601 267.4053 267.4053 267.7820
   268.0940 268.0940 268.7019 268.7019 268.7559 268.7820 269.1870 269.1870
   270.2114 271.0589 271.0589 271.6605 271.8207 271.8207 272.1083 272.3449
   272.3449 272.6798 273.2792 273.2792 273.8355 274.5307 274.5307 275.4940
   276.4947 276.7007 276.7007 277.0737 277.9641 277.9641 278.6045 278.8944
   278.8944 279.3199 279.3199 279.5338 279.8149 281.6022 281.6022 281.6263
   282.6761 282.6761 283.4096 283.4096 284.2311 284.2812 284.3387 284.3387
   284.7257 284.8655 284.8655 285.7528 286.3656 286.3656 287.8877 287.8877
   288.1544 290.2878 290.7218 290.7218 291.1398 291.1398 292.4004 295.9424
   295.9424 296.8165 297.1136 297.6277 297.6277 298.8082 299.6132 299.6132
   300.9414 300.9414 301.9273 301.9273 302.0928 303.5114 303.5114 303.5951
   304.1626 304.4589 304.4589 304.7911 305.5728 305.5728 306.4848 306.9241
   306.9241 307.3922 308.1614 308.1614 309.1318 309.6324 309.6324 310.1531
   310.3484 310.3484 310.4968 310.5965 310.6803 310.6803 312.6520 312.6520
   312.6998 314.2277 314.2277 314.3991 314.7488 314.7488 315.1018 316.5247
   316.5247 316.6919 318.0152 318.0619 318.0619 319.0519 319.7423 319.7423
   320.3534 320.3534 320.8393 321.7254 321.7254 322.2595 322.2595 322.2783
   322.5837 323.0466 323.0466 323.2558 323.9201 323.9201 323.9814 324.4446
   324.6775 324.8310 324.8310 325.1600 325.1600 325.4520 325.7671 325.7671
   325.7791 326.6851 327.5782 327.5782 328.7086 328.7086 328.7582 328.8909
   329.1142 329.1142 330.6040 330.6040 330.9248 331.5476 331.5476 332.2630
   332.2861 332.2861 332.5125 332.8437 332.8437 334.3003 334.3003 335.3067
   335.6016 335.6530 335.6530 335.7639 336.3870 336.3870 336.8600 337.6939
   337.6939 337.8892 338.6885 338.6885 338.7690 340.7558 340.7558 341.6892
   341.7773 341.7773 342.3448 342.9110 342.9170 342.9170 343.5948 343.5948
   344.0542 344.1965 344.1965 344.4610 344.9523 344.9523 345.1838 346.1343
   346.1343 346.7499 346.9014 346.9014 347.0734 347.2512 347.2512 347.7758
   348.1165 348.1165 348.6743 349.7788 349.7788 349.8478 349.9402 350.2022
   350.2022 351.6377 351.6377 352.0371 352.0458 352.0458 352.6106 352.9731
   353.6545 353.6545 356.1610 356.1610 356.3243 356.3243 356.4411 356.7358
   356.8469 356.9174 356.9174 357.2168 357.2761 357.2761 358.3808 359.3620
   359.3620 360.2488 360.2720 360.2720 360.3588 360.8976 360.8976 362.1871
   362.1871 363.1389 363.5980 363.5980 363.6924 364.2063 364.2063 364.7274
   365.4871 365.4871 365.8500 366.1081 366.3968 366.3968 366.4262 367.0565
   367.0565 368.2149 368.3889 369.2202 369.2202 369.5904 369.5904 369.7086
   370.4939 370.4939 370.7235 370.9239 370.9239 371.5671 372.2639 372.2639
   372.4058 373.2782 373.2782 374.1869 374.4493 374.4493 374.7497 374.7497
   375.1929 375.2636 375.2636 375.6288 376.1177 376.3682 376.3682 376.7044
   376.7453 376.7453 377.0815 377.2071 377.2071 377.4078 377.6635 377.6635
   378.0115 378.1115 378.1115 378.9020 379.7533 379.7533 380.0761 380.1816
   380.1816 380.9802 381.1761 381.1761 382.0083 382.6723 382.9380 382.9380
   383.3250 383.7424 383.8184 383.8184 384.4271 384.4271 384.6439 384.6439
   384.6842 384.8203 385.2510 385.2510 385.7172 385.7172 385.9107 386.6603
   386.6614 386.8716 386.8716 387.6119 387.9641 387.9641 388.7282 389.5899
   389.5899 390.2687 390.2687 390.9207 391.6725 391.6725 391.7330 391.9507
   391.9507 392.3227 392.3227 392.3888 392.7725 393.2552 393.2552 394.1769
   394.1769 394.4547 394.7956 394.7956 395.0107 395.3380 395.3380 395.5546
   395.9271 395.9271 396.6047 397.1204 397.4352 397.4352 397.8536 398.1030
   398.1030 398.5026 398.5026 398.5736 400.7054 401.0848 401.0848 401.6709
   401.6709 402.3528 402.3528 402.4142 403.1736 403.3131 403.3527 403.3527
   403.7317 403.7751 403.7751 404.3831 404.6421 404.6421 405.5716 405.5716
   405.8854 406.2733 406.2733 406.5755 406.7846 406.7846 407.3617 407.4212
   407.4212 407.7573 409.2447 409.2447 409.5286 409.6905 409.6905 410.2981
   411.7035 411.7035 412.3147 413.7183 414.2246 414.2246 414.7266 414.7266
   414.7826 415.2019 415.2019 415.3123 417.0675 418.0606 418.0606 418.6354
   418.6354 418.7379 418.8531 420.2711 421.2677 421.2677 421.9225 421.9225
   423.7486 424.3868 424.3868 425.8413 425.8413 425.8520 428.2223 428.3585
   428.3585 428.5403 429.2269 429.2269 429.2987 429.2987 430.1927 430.1927
   430.5501 430.5712 431.4539 431.4539 432.0971 432.4002 433.0149 433.0149
   433.5836 435.0427 435.0427 435.2108 435.7241 435.7241 435.8182 436.0524
   436.0524 436.8287 437.4474 437.4474 439.7118 439.7118 439.7922 440.0051
   440.1496 440.1496 440.4024 440.4024 440.8652 442.1148 442.1148 442.1428
   442.7456 443.1926 443.1926 443.8141 443.8141 445.5959 446.2371 446.2371
   446.7424 447.0697 447.0697 447.6975 447.8627 447.8627 448.7352 448.7352
   448.9100 449.2475 449.4786 449.4786 449.5039 449.8925 449.8925 450.7652
   450.9840 450.9840 451.0943 451.5606 451.6813 451.6813 452.2621 452.4515
   452.4515 454.0361 454.0361 454.1539 454.3922 454.3922 455.0941 455.8639
   455.8639 455.9025 456.3464 456.3464 457.1333 457.3046 457.3046 457.5547
   458.4660 458.9876 458.9876 459.5085 459.7723 459.7723 460.8522 460.8522
   461.2338 462.4297 462.4297 462.5377 462.5855 462.5855 463.0612 463.9468
   463.9468 464.2049 464.2875 464.2875 464.3211 464.4346 464.5551 464.5551
   464.6643 464.7280 464.7280 466.8566 466.8566 467.2076 467.2076 467.2450
   467.8143 468.0552 468.6014 468.6014 468.8525 468.8525 469.0351 469.2785
   469.3217 469.3833 469.3833 469.5108 469.5108 470.2289 470.5074 470.5074
   470.9210 470.9471 470.9471 471.1875 471.1875 471.4569 471.7226 471.7226
   471.7902 472.3382 472.8593 473.3388 473.3388 474.0737 474.0737 474.4980
   474.5503 474.7715 474.7715 475.0065 475.9080 475.9080 476.4009 476.4009
   476.4947 476.6548 476.6548 478.0554 478.2405 478.2405 478.8302 478.9850
   478.9850 479.6736 479.7441 479.7441 479.8187 479.9099 479.9099 479.9564
   480.6983 480.6983 480.9838 481.1439 481.2164 481.2164 481.3516 481.4568
   481.4568 481.4876 481.6033 481.6033 481.7112 482.2146 482.2146 482.3885
   482.3885 482.7989 484.2329 484.2329 484.3510 484.4969 484.4969 484.6202
   485.3161 485.3161 485.4502 485.4502 485.7019 486.0372 486.2963 486.2963
   486.7321 486.8480 486.9416 486.9416 487.4984 487.4984 487.6149 487.8556
   487.8556 488.7398 489.9753 489.9753 490.3135 491.1543 491.1543 491.5928
   492.0043 492.0043 492.1133 492.3600 492.5006 492.5006 492.8706 492.8706
   493.2061 493.6550 493.7991 493.7991 494.4979 494.5439 494.5439 494.7326
   494.7326 495.0075 495.0075 495.1147 495.2619 495.8076 495.9201 495.9201
   496.1162 496.1162 496.2457 496.6617 496.6617 496.7429 496.9675 497.4656
   497.4656 498.5979 498.5979 498.8929 499.1599 499.1599 499.8625 499.8625
   499.9518 500.5046 500.5490 500.9396 500.9396 501.2858 501.2858 501.4900

          k =-0.2500 0.2500-0.2500 (  2896 PWs)   bands (ev):

  -118.2038 -72.3730 -72.3730 -72.3730  -5.8712   0.5423   0.5423   0.5535
     0.8605   0.8605   3.9899   6.5634   6.5634   9.7831  13.4763  13.4763
    13.6063  17.4907  17.4907  17.7608  21.0322  24.1169  24.1169  26.6591
    27.0614  27.0614  27.4058  34.6209  34.6209  35.7088  35.7088  36.0199
    37.6993  39.2335  39.2335  39.4602  43.6866  43.8831  43.8831  44.2751
    44.2751  44.9980  45.1502  45.1502  45.7529  48.0723  49.3564  49.3732
    49.3732  50.9957  50.9957  51.9699  54.7144  54.7144  55.8020  55.9823
    55.9823  58.2257  58.2257  58.4779  59.2079  61.6433  62.2077  62.2077
    64.0259  64.0259  65.2486  65.2486  65.5722  66.9521  67.9113  67.9113
    71.8783  73.0160  74.4946  74.4946  76.5894  77.5556  77.5556  77.7783
    80.8245  80.9042  80.9042  81.3465  81.3944  81.3944  83.3604  83.3604
    83.9095  84.3308  84.3308  85.8340  86.7778  88.2152  88.2152  88.9418
    88.9418  88.9482  90.2908  90.2908  91.4431  91.4431  91.5051  91.6565
    92.6732  92.6732  94.0122  94.7906  94.7906  96.2693  98.2494  98.2494
    98.6508  98.9425  98.9425 100.3999 100.6150 100.6150 101.8205 102.2210
   102.2210 103.1058 103.1058 103.9361 104.8800 105.4364 105.4364 106.2080
   107.9419 108.0704 108.0704 108.1015 109.7599 109.7599 109.9958 110.1118
   110.1118 111.7362 111.7362 113.0730 113.6407 113.6407 114.3273 115.3212
   115.3212 115.6418 116.0313 117.4845 117.6268 117.6268 118.5457 119.9381
   119.9381 120.4779 120.4779 120.6657 122.4157 122.4157 125.1231 125.1306
   125.1306 128.4046 128.4046 129.0086 129.5741 130.9914 130.9914 131.3513
   133.7003 133.7003 133.7870 135.6739 135.6739 136.4840 136.5548 136.5548
   137.4308 138.1418 138.1418 138.1880 138.7026 139.5183 139.5183 140.5000
   141.3897 141.3897 141.8612 141.8612 142.6121 143.4014 143.5537 143.5537
   144.5106 144.9865 145.6508 145.6508 146.2927 146.2927 147.7515 147.7515
   148.2574 149.6523 150.5905 151.2146 151.5233 151.5233 153.3804 153.3804
   154.0140 154.0347 154.0347 155.6262 155.8548 155.8548 156.9420 157.8633
   157.8633 158.5458 159.0011 159.0011 159.7414 159.8756 159.8756 160.8471
   160.8471 162.3154 162.3154 162.3497 162.3559 163.6887 164.0197 164.0197
   164.8187 165.2452 165.5562 165.5562 165.9863 165.9863 167.0628 167.7613
   167.7613 167.8458 168.2297 168.2847 168.2847 169.6504 169.6504 170.9180
   170.9180 172.5739 172.8461 172.8461 174.0518 174.1252 174.1502 174.1502
   174.8806 174.8806 174.9244 176.2858 176.2858 176.3955 177.3520 177.3520
   177.5126 177.7676 177.7676 178.2852 178.8190 180.0467 180.1186 180.1186
   180.5806 180.5806 181.6269 181.6269 182.1474 183.1494 183.1494 183.2289
   184.1102 184.1102 184.9673 184.9673 185.0270 185.2595 186.7650 186.7650
   187.4284 189.5156 191.5856 191.5856 192.0922 192.2954 192.3711 192.3711
   192.9260 192.9260 193.3946 193.3946 193.8707 195.0167 195.0167 195.1796
   195.2349 196.4582 196.4582 197.9659 198.4895 198.4895 199.7901 200.7978
   200.7978 201.6317 201.6317 201.9266 203.5831 204.2041 204.2041 205.1477
   205.3300 205.3300 205.5700 207.7526 207.8630 207.8630 208.1131 208.7071
   208.7071 210.1492 210.1492 210.9502 211.2686 211.2686 211.8798 211.8798
   212.2719 214.1065 215.1764 215.1764 215.2481 216.7454 217.2883 217.9510
   217.9510 218.0392 218.3858 218.3858 219.4654 219.4654 220.2459 220.3832
   220.3832 220.7224 220.9128 220.9128 221.4535 221.5996 221.5996 222.4319
   222.4319 222.6694 223.1361 223.7342 223.7342 224.6114 224.6114 224.9912
   225.3288 225.3288 225.8621 227.9395 227.9395 229.6313 229.7183 229.7183
   230.6609 231.2825 231.2825 231.8838 231.8838 232.0601 233.8377 234.5240
   234.9641 234.9641 237.2371 238.0484 238.0484 238.7013 238.8596 238.8596
   239.0703 239.4292 239.4292 239.6656 239.8989 239.8989 242.4452 242.4700
   242.4700 243.2302 243.2302 243.4378 244.8823 244.8823 245.2911 245.8338
   245.8338 246.0924 246.2424 246.4216 246.4216 246.8086 246.9254 246.9254
   247.4182 247.4182 248.4567 248.6645 248.6645 248.6754 249.3491 249.5546
   249.5546 249.8725 249.9923 249.9923 250.9828 251.2403 251.2403 251.9427
   252.0973 252.0973 252.4375 253.5861 253.7567 253.7567 254.2247 254.2941
   254.2941 255.0208 255.0208 255.6650 256.3294 256.3295 256.8200 257.3176
   257.3176 258.3707 258.8270 258.9115 258.9115 259.5686 259.5686 259.7213
   261.2919 261.2919 261.8636 261.8636 262.0216 262.6849 263.0699 263.3409
   263.3409 264.2332 264.3327 264.3327 264.7305 264.7305 265.5235 265.5235
   265.5974 265.6081 266.1130 266.7930 266.7930 267.1680 268.5914 268.5914
   268.8756 268.8756 269.1940 269.3925 269.3925 269.4779 271.3161 271.3161
   271.3951 273.6758 274.1382 274.1382 274.7459 274.7459 275.1388 276.0441
   276.0441 276.4018 277.2909 277.6094 277.6094 278.3245 278.9030 278.9030
   279.0331 279.7034 279.7034 281.3934 281.3934 281.8348 282.2652 282.2652
   282.7102 282.9092 283.1544 283.1544 283.9070 283.9070 284.3702 285.4446
   285.5302 285.5302 286.1199 286.1659 286.1659 287.5518 287.5518 289.0492
   289.0492 289.1975 289.4629 290.0242 290.2850 290.2850 290.3312 291.1326
   291.1326 292.8559 292.8985 292.8985 294.0044 294.0044 294.3024 294.7518
   294.7761 294.7761 295.0713 295.2701 295.2701 295.9789 295.9789 296.4379
   297.7347 298.0325 298.0325 300.0121 300.2181 300.2181 300.9306 300.9990
   300.9990 301.6949 302.5295 302.5295 303.5155 303.5155 303.5873 304.0698
   304.1632 304.1632 304.4153 304.4153 304.5209 305.2713 305.2713 305.3404
   306.3665 306.4349 306.4349 308.0305 308.0305 309.7654 309.8226 309.8226
   312.3140 312.8558 312.8558 313.1435 313.9909 313.9909 314.1671 314.5342
   314.7842 314.7842 315.3324 316.4767 316.4767 317.5431 317.8707 317.8707
   318.2959 318.2959 318.3799 318.8630 319.1062 319.1062 320.6929 321.4160
   322.0828 322.0828 322.3303 322.3303 323.2014 323.2019 323.2019 323.2064
   323.4925 323.4925 324.5477 324.5885 324.6709 324.6709 325.2830 325.3755
   325.3755 325.9399 326.5288 326.5288 328.7887 328.7887 329.4035 329.4035
   329.6743 330.2520 331.1389 331.1531 331.1531 332.2753 332.2753 332.7241
   332.9736 333.0827 333.0827 333.4117 333.4117 334.8580 334.9246 335.1852
   335.1852 336.6013 337.1610 337.1610 337.3002 339.2525 339.2525 340.6140
   340.7730 340.7730 340.9969 340.9969 341.0075 341.4489 342.2999 342.2999
   342.7543 342.7543 343.1104 343.4070 343.5385 343.5385 343.7534 343.7534
   343.7556 343.8520 345.7273 345.7273 346.1410 346.1410 346.3877 346.5514
   346.5514 346.6944 348.1890 348.1890 349.0221 349.6310 350.0939 350.0939
   350.5293 350.5293 350.9087 350.9087 350.9443 351.2436 351.2436 351.5123
   352.1484 352.1484 352.2223 352.3593 352.7926 352.8482 352.8482 353.1851
   353.1851 353.5819 353.8702 353.8702 353.9778 354.6330 354.6330 355.2980
   355.6302 355.6302 355.9554 356.5425 356.5425 357.0655 357.9327 357.9327
   358.4343 358.9432 359.4620 359.4620 359.8500 359.9492 359.9492 360.4307
   360.4307 360.4604 360.9472 360.9472 361.0378 361.2993 361.2993 361.4340
   361.7346 361.7346 362.3649 362.5924 362.5924 362.8258 362.8568 362.8568
   363.0575 364.7596 364.7596 364.8812 366.6988 366.9024 366.9024 367.3431
   367.4871 367.4871 367.9975 368.9037 368.9037 369.6149 369.7452 369.7452
   369.8550 370.7958 370.8134 370.8134 372.9955 373.2096 373.2096 373.7511
   373.7511 374.0544 374.1483 374.1483 374.3946 374.3946 374.5949 375.0727
   375.0727 376.1404 376.8321 376.8321 377.7730 378.1156 378.1156 378.2528
   378.7299 378.7299 378.9164 379.0442 379.0442 379.2918 379.4771 379.8071
   379.8071 380.3926 380.3926 380.4743 380.6844 383.1841 383.1841 383.8971
   383.8971 384.4920 384.6044 384.7305 384.7305 384.8840 384.9596 384.9596
   386.2236 386.2236 387.0383 387.3918 387.3918 387.6231 388.0198 389.1722
   389.1722 390.2637 390.4937 390.4938 390.5172 391.3960 391.3960 392.5797
   393.0854 393.0854 393.6318 393.9066 393.9066 394.2654 394.2654 394.3291
   394.8478 395.5852 395.5852 396.3332 396.6089 396.6089 396.7388 397.1989
   397.1989 397.4025 397.4234 398.0520 398.0520 398.8905 398.8905 399.3975
   399.4317 399.4317 399.4743 399.9916 400.9727 400.9727 401.4828 401.4828
   402.0195 402.0215 402.1682 402.1682 402.5638 402.8292 402.8292 403.8361
   404.5720 404.7055 404.7055 405.2390 405.2390 405.7599 405.7933 405.7933
   406.2374 406.5601 406.5601 406.8044 406.8378 406.8378 406.9823 406.9823
   407.0591 408.3762 408.5902 408.5902 409.0410 409.0410 409.0445 409.5218
   410.6582 410.6582 411.4201 413.0999 413.1234 413.1234 413.2169 413.2169
   413.4339 413.4339 413.5173 415.2132 415.2132 415.2143 415.3827 415.4654
   415.4654 415.6711 416.7560 416.7560 419.0372 419.2177 419.2177 420.0859
   420.3029 420.3029 420.6962 421.5699 421.5699 421.6613 422.5186 422.5186
   423.5098 423.6763 423.6797 423.6797 423.9875 423.9875 425.2602 425.2602
   425.3734 427.0449 427.0449 427.7221 427.7221 427.8174 428.1693 428.1693
   428.4016 429.9995 432.1250 432.1250 432.5210 432.5210 432.6764 433.9052
   433.9052 433.9439 435.5356 436.2523 436.2523 436.2674 436.3774 436.3774
   436.8064 436.8064 437.0237 437.9946 438.0443 438.0443 438.2973 438.7730
   438.9900 439.3186 439.3186 439.6511 439.6511 440.3960 440.6630 440.7688
   440.7688 441.1360 441.1360 441.4993 442.4814 442.4814 442.7934 444.1707
   444.1707 445.1036 445.6751 445.6751 445.7319 446.0470 446.0470 446.5626
   446.6129 446.6129 446.9098 447.2459 447.2459 448.0358 448.2195 448.2195
   448.5591 448.5591 448.7631 448.7631 448.8215 449.3447 449.5963 449.6135
   449.6135 450.0618 450.0618 450.9330 451.4697 451.4697 451.6737 453.2699
   453.2699 453.7144 454.3908 454.3908 454.7222 454.7943 454.8311 454.8311
   455.1709 455.4955 455.4984 455.4984 455.6055 455.8725 455.8725 457.1182
   457.1182 457.6096 457.6096 457.7604 458.5257 458.5257 459.1464 460.6609
   460.6609 460.8102 461.2473 461.5068 461.5068 462.4444 462.6527 462.6527
   462.9423 463.3031 463.3418 463.3418 463.8091 463.8091 464.0504 464.0824
   464.0824 464.2187 464.5155 464.5155 465.1186 466.1310 466.1310 466.2873
   466.2873 466.4589 466.8136 467.1665 467.1665 467.2077 467.6559 467.6559
   468.3040 469.4050 469.5993 469.5993 469.8423 469.8423 470.0552 470.3051
   470.3051 470.3276 471.9783 471.9783 472.0693 472.2333 472.2333 472.4640
   472.7263 472.7263 472.8695 473.8276 473.8276 474.6637 475.0604 475.9321
   475.9321 477.4710 477.4710 477.5840 478.0876 478.0876 478.1550 478.3586
   478.3740 478.5173 478.5173 478.9352 478.9352 479.7049 479.7049 480.1854
   480.3818 480.3818 480.4802 480.7463 480.7463 480.8302 481.0467 481.0467
   481.1345 481.4580 481.7195 481.7195 481.9561 481.9561 482.0383 482.9240
   483.8363 483.8363 484.8226 485.0841 485.0841 485.8337 485.8337 486.2326
   486.4708 486.4708 486.4946 487.0643 487.2500 487.2500 487.2559 487.3159
   487.3159 487.9477 487.9477 488.1236 490.2293 490.2293 490.4686 490.4686
   490.4817 490.6498 491.5214 492.0271 492.0271 492.0583 492.4542 492.4542
   492.7102 492.9147 492.9147 493.1219 493.2036 493.2036 493.2192 493.8936
   493.8936 494.1395 494.1395 494.1733 495.6759 496.2506 496.2506 496.3085
   497.5145 498.3677 498.4284 498.4284 498.7101 498.7101 500.4515 500.4515
   501.6328 501.7163 501.7163 502.1474 502.1474 502.4705 502.4705 502.6565
   502.8822 502.8822 503.3292 503.3292 503.3657 503.4458 503.5576 503.6377
   503.6377 503.8239 504.0869 504.0869 504.6568 505.1400 505.1773 505.1773

          k =-0.3750 0.3750-0.3750 (  2908 PWs)   bands (ev):

  -118.2038 -72.3731 -72.3730 -72.3730  -5.5770   0.5701   0.5701   0.7481
     0.8713   0.8713   2.5467   6.2802   6.2802   9.6618  13.4904  13.4904
    15.0669  17.4853  18.6104  18.6104  22.5096  23.7613  23.7613  25.4882
    27.2500  27.2500  30.6086  33.9071  34.2975  34.2975  35.6028  35.6028
    36.5181  36.5181  36.6036  38.9375  40.4433  42.3729  42.3729  42.7291
    42.7291  43.1411  44.2723  47.7881  48.9592  48.9592  49.9796  49.9796
    50.6912  50.6912  51.8310  53.0318  56.3607  56.3607  57.3233  59.7618
    59.7618  61.0592  61.1394  61.1394  62.2197  62.2197  62.6560  62.6560
    62.9497  63.1867  65.8728  66.8121  66.9565  66.9565  69.3177  69.3177
    69.7423  69.7423  71.7573  72.3197  72.3197  72.8927  73.8497  76.4356
    76.4356  76.7797  78.5504  79.7235  81.1100  81.1100  82.7440  82.7440
    83.9124  84.3650  84.3650  86.2674  86.3884  87.9437  87.9437  88.4664
    88.4664  89.0364  89.0364  89.2352  91.7365  92.0805  92.1113  92.1113
    92.9387  93.3079  93.3079  96.8722  97.0344  97.0344  97.0474  98.8906
    98.8906  99.2160 100.3978 100.3978 101.8994 101.9466 101.9649 101.9649
   102.3089 102.3089 103.1777 103.1777 104.4381 107.2071 108.0962 108.1800
   108.1800 108.9680 108.9680 109.7370 109.9035 109.9035 111.0934 111.0934
   111.1532 112.6935 112.7867 112.7867 113.9243 113.9243 115.1166 115.9462
   116.4070 116.5902 116.5902 117.7111 117.7111 118.4866 118.4866 118.8701
   119.6260 119.6260 122.5277 123.7910 123.9913 123.9913 124.1395 127.3207
   127.3207 127.5172 127.5172 127.9485 130.7305 130.7305 131.2800 133.1803
   133.2879 134.3025 134.8039 134.8039 135.7233 135.8053 135.8053 137.0299
   137.0299 137.0479 137.6132 137.6132 138.4024 138.7029 138.7029 139.5829
   139.5829 140.3618 141.9500 142.3805 142.3805 142.6073 142.8145 142.8145
   144.1674 144.4568 144.8006 144.8006 146.0391 146.0969 146.0969 147.1645
   147.1645 148.8268 148.8268 149.0822 150.3690 150.6138 150.6138 152.3047
   152.4540 152.4540 153.8418 154.5572 154.5572 155.5457 156.2643 156.2643
   156.4829 157.9258 158.0700 158.0700 158.5629 159.4120 159.4120 159.6477
   159.6477 159.9379 160.4972 160.4972 160.9728 161.4771 161.4771 161.9067
   162.9726 162.9726 163.9365 165.6548 166.5813 166.5813 167.3446 167.3446
   167.8505 168.9230 168.9230 169.0537 169.3365 170.2519 170.2519 170.6189
   170.6189 172.1242 172.2271 172.2271 172.6938 173.3418 173.3418 173.8742
   174.3554 174.3554 174.4802 175.5606 176.7245 176.7245 177.6374 177.6374
   177.8171 178.1916 179.4423 179.4423 180.9851 180.9851 181.4681 182.5117
   184.1115 184.1115 184.6981 185.1107 185.1107 186.6974 186.8000 186.8000
   186.8444 187.3705 188.1673 188.1673 189.0907 189.0907 189.1890 190.2450
   190.2450 190.7500 190.7500 190.8023 192.1824 192.4558 192.4558 192.9007
   194.2210 194.2771 194.2771 195.1775 195.1775 196.2011 196.2011 196.5389
   196.8376 200.0931 200.0931 200.2020 201.0990 201.3433 201.3433 201.8295
   201.8295 202.7795 202.7923 202.7923 203.6788 204.6538 204.6538 205.0421
   206.4337 206.4337 206.9836 207.7189 207.8536 207.8536 209.3907 209.6423
   209.6423 210.3304 210.8509 210.8509 211.3143 211.3143 211.3761 211.9430
   212.4794 212.4794 212.8450 212.8450 213.6066 213.7290 214.1770 214.2507
   214.2507 214.6020 214.6020 216.0210 216.0210 216.5047 216.7108 216.7108
   218.2876 218.4137 218.4137 219.0416 219.0416 220.1402 220.9734 221.7516
   221.7516 221.7879 222.8494 223.3084 223.3084 223.9748 223.9748 224.3929
   226.0717 226.0717 226.2623 226.2762 227.7883 227.7883 228.0178 229.4305
   229.4305 229.4875 230.9072 230.9072 232.1622 232.1622 232.6246 233.3899
   233.6548 233.6548 234.2661 234.2661 234.5361 235.9857 235.9857 236.0149
   237.3568 237.3568 238.2152 238.3045 238.3045 238.7931 239.8711 239.8711
   239.9299 240.0362 240.5110 240.5110 242.1870 242.3723 242.3723 242.7890
   242.7890 243.0680 243.8647 243.8647 244.5179 244.5179 244.5872 245.0090
   246.1442 246.1442 247.6462 247.9385 247.9385 248.6007 248.6007 248.7259
   249.7216 250.2896 250.9675 250.9675 251.9908 251.9908 252.4648 253.0042
   254.1640 254.1640 254.5540 254.5540 254.8293 256.4226 256.4226 256.8197
   257.1809 257.3372 257.3372 257.4370 257.9033 257.9033 259.5943 259.5943
   259.6760 259.7139 259.8711 259.8711 260.8741 260.8741 260.8909 261.4591
   261.4649 261.4649 262.2838 262.2838 262.8904 262.9739 263.8349 264.0317
   264.0317 265.6936 266.0900 266.0900 266.9152 266.9475 266.9475 267.3403
   267.3403 267.5230 267.6988 267.6988 268.2160 268.3067 269.8253 269.8253
   270.2754 270.3888 270.3888 271.0078 271.0078 271.2148 271.7203 271.7203
   273.2655 273.2655 273.6298 275.8976 276.9091 276.9091 277.2518 277.9965
   277.9965 279.3235 279.6201 279.6201 280.5073 280.5073 280.6885 281.0940
   281.0940 281.2302 281.5869 282.4849 282.9910 282.9910 283.6547 283.6547
   283.7854 284.1332 284.1332 284.8803 285.3324 285.4791 285.4791 286.7593
   286.9003 286.9003 287.3263 287.6006 287.6006 288.4808 288.4808 288.4906
   289.1349 289.2232 289.2232 290.5822 290.5822 291.0561 291.6978 291.9561
   291.9561 292.2682 292.2682 292.3027 292.3086 292.8158 293.1641 293.1641
   295.1774 295.1774 295.1979 296.3673 296.3673 297.5658 297.5970 297.5970
   297.9935 298.4938 298.4938 299.3067 299.6395 299.6395 300.3679 302.3525
   302.3525 303.0247 303.0247 303.6258 303.6258 303.6756 304.1294 304.1294
   304.4300 304.7281 305.0232 305.5150 305.5150 305.8630 305.9059 305.9059
   306.3201 306.4624 306.4624 306.6632 306.7781 306.8175 306.8175 307.0229
   307.8533 308.3885 308.3885 309.0019 309.0019 309.9881 309.9881 311.4145
   311.4145 311.5207 312.5010 314.0987 314.0987 315.4776 315.4776 315.5693
   315.7092 316.6875 316.8291 316.8291 318.8842 318.8842 319.0919 319.9595
   320.8275 320.8275 321.7927 322.3907 322.3907 322.9525 322.9525 323.7259
   323.8421 324.0127 324.0127 324.4678 324.6453 324.6453 324.9119 324.9119
   326.8058 326.8058 327.3101 327.9685 327.9685 328.3206 329.9938 330.0800
   330.0800 330.1252 330.5026 330.5026 330.5192 331.4507 331.6306 331.6306
   332.8446 332.8446 332.9872 333.6359 333.6359 334.1877 334.1877 334.4372
   335.4575 336.1257 336.1257 336.5984 338.3910 338.3954 338.3954 339.3434
   339.4257 339.4257 340.8516 340.8516 341.1984 341.3790 342.2627 342.2627
   342.4865 342.4865 343.5721 343.5721 343.5909 343.7360 344.4071 344.4071
   345.0291 345.1855 345.1855 345.3854 345.7291 345.7291 345.8038 345.9588
   345.9588 346.1359 346.2088 346.2088 346.6484 347.1563 347.4968 347.4968
   347.9178 347.9178 348.4672 349.3299 350.5083 350.9232 350.9722 350.9722
   351.5066 351.5066 353.2769 353.3607 353.3607 353.6296 353.6296 353.6671
   353.8198 353.8198 353.9549 354.3849 354.3849 354.8388 354.8806 354.8806
   355.5084 355.5084 355.6424 356.1827 356.3194 356.3194 356.7410 356.7410
   356.9580 357.1062 357.1062 357.6316 358.3902 358.3902 358.4563 359.3551
   359.6042 359.6042 360.1669 360.1669 360.3282 360.3312 360.7699 360.7699
   361.9095 361.9095 361.9838 362.0330 362.9807 362.9807 362.9964 363.8441
   363.8441 364.3517 364.3517 364.4534 364.5870 365.2372 365.2372 365.3701
   365.5652 365.5652 366.0956 366.8389 366.8389 367.4424 368.3706 368.3706
   369.2635 369.2635 370.0211 370.8365 370.8365 372.3896 372.5398 372.5398
   372.8224 374.4553 374.5512 374.5512 375.4513 375.4513 376.4489 376.4489
   376.5172 376.8184 376.8184 376.9295 377.5547 378.9214 378.9214 379.8907
   380.3754 380.3754 380.4493 380.9109 381.3385 381.3385 383.3600 383.3600
   383.6836 383.8745 383.8745 384.3707 384.4188 384.6117 384.6117 384.7459
   385.4029 385.4029 385.6530 385.6530 386.0355 386.8787 387.3328 387.3328
   387.4077 387.5868 387.5868 388.0303 388.0303 388.0967 389.0653 389.6976
   389.6976 390.2911 390.2911 391.0157 391.4997 391.4997 392.3432 392.6938
   392.6938 392.7112 393.2756 394.2600 394.2600 395.4198 395.6503 395.6503
   396.3486 396.7168 396.7168 396.9154 397.3134 397.3134 398.0028 398.4696
   398.4696 398.7732 398.7732 398.8607 399.2474 399.4100 399.4100 399.5548
   399.5775 399.6482 399.6482 399.8274 401.0765 401.0765 401.2272 401.2272
   401.3456 402.8331 402.8331 403.1570 404.0714 404.0714 404.4645 404.4645
   404.7229 405.1779 407.0264 407.0264 408.1021 408.2161 408.2161 408.6702
   408.6702 408.7746 408.7965 409.3206 409.3206 409.8718 409.8719 410.8997
   411.8976 412.0362 412.0362 412.0403 413.2675 413.2675 413.7933 413.7933
   413.8537 414.4007 414.5965 414.6075 414.6075 415.2553 415.2925 415.2925
   415.3398 415.6539 415.6539 417.4615 417.4615 417.5610 418.3335 418.3335
   418.5192 418.6168 418.6168 418.9511 420.4335 420.4335 420.5797 420.7503
   420.8935 420.8935 421.5955 422.4499 422.4499 423.4603 423.4603 423.4858
   425.2320 425.2320 425.8975 426.0632 426.0632 426.3955 426.6856 426.6856
   427.1428 427.1428 427.3714 427.5185 427.9761 428.1211 428.1211 428.6175
   428.6175 428.9040 429.4185 429.7530 430.0133 430.0133 430.3146 430.3146
   431.3965 431.3965 431.5138 432.6634 433.8076 433.8076 436.6199 436.8311
   436.8311 436.9688 436.9688 436.9977 437.4159 437.4159 437.8936 438.4228
   438.4228 438.6159 438.7252 439.2817 439.2817 439.2971 439.6414 439.7195
   439.7195 440.1747 440.1747 441.0525 441.5617 441.5617 441.7815 442.0160
   442.0160 442.2365 442.7443 442.7509 442.7509 443.2647 443.2647 443.2910
   443.9597 443.9597 444.4705 444.4705 444.5109 444.8068 444.9311 444.9311
   445.0516 445.0516 445.5100 445.5100 445.7276 445.9100 446.3862 447.0091
   447.0091 447.1578 447.2725 447.2725 447.4708 447.6234 447.6234 447.8920
   450.0620 450.0620 450.8983 451.2547 451.2547 451.9855 452.2623 452.2623
   452.7852 453.1087 453.1087 453.7906 453.8306 453.8306 454.3193 454.5491
   454.5491 454.5870 455.0381 455.0381 455.1204 455.1939 455.2256 455.2256
   458.5998 458.9679 458.9679 458.9940 460.0457 460.0457 460.9530 461.3081
   461.3081 461.9373 462.1360 462.1360 462.4761 463.0855 463.3442 463.3442
   463.9367 463.9367 464.2880 464.3005 464.5435 464.5435 465.7083 465.7690
   465.7690 466.7471 466.7471 466.9667 467.1871 467.1871 467.4445 467.4982
   467.4982 467.6473 468.3051 468.3051 468.4818 468.4818 468.6563 468.7133
   468.7133 468.8411 470.3685 470.3685 470.7311 471.2217 471.2217 471.3583
   471.6764 471.6764 472.3299 472.4235 472.5231 472.5231 473.9534 473.9534
   474.0219 474.2827 474.3264 474.3264 474.7165 474.7165 474.8720 476.6519
   477.1332 477.1332 478.3339 478.8837 478.8837 479.6883 479.6883 480.2168
   480.3102 480.3351 480.3351 480.6725 480.6725 481.0937 481.4143 481.4143
   481.6232 481.8606 481.8606 481.8651 482.5842 482.5842 482.7778 482.7778
   483.3830 483.3830 483.4973 483.7521 483.7871 483.8626 483.8626 483.9257
   487.4435 487.4435 488.1706 488.2598 488.2598 489.1835 489.1835 489.5139
   489.7103 490.2136 490.2789 490.2789 490.4093 490.4438 490.4438 490.5432
   490.5432 490.7779 491.0206 491.0206 491.1728 491.5162 491.5162 491.9530
   492.1323 492.1323 492.6297 493.2867 493.2867 493.3566 494.1131 494.1131
   494.4260 494.7290 495.8945 495.8945 495.9094 496.7702 496.7702 497.2391
   497.2391 497.2443 497.3284 497.7679 497.7679 498.8690 499.2823 499.2823
   499.4254 499.9257 499.9257 500.6272 502.0855 502.0855 503.5024 504.3555
   504.3555 504.4045 505.5796 505.5796 505.8392 505.8859 505.8859 507.0114
   507.7498 507.7498 508.0884 508.2110 508.2110 508.3996 508.8731 508.8732

          k = 0.5000-0.5000 0.5000 (  2914 PWs)   bands (ev):

  -118.2038 -72.3731 -72.3730 -72.3730  -5.4433   0.5791   0.5791   0.8791
     0.8791   1.0203   1.8061   6.1719   6.1719   9.5772  13.4216  13.4216
    15.6144  18.0144  20.1764  20.1764  21.2700  21.5862  21.5862  27.8265
    30.3392  30.3545  30.3545  31.1107  31.1107  34.7599  35.1357  35.7549
    35.7549  36.5883  36.5883  36.9156  40.5179  41.7252  41.7252  42.0208
    42.0208  42.4033  43.5795  47.6185  49.2482  49.2482  50.0082  50.0082
    52.0935  55.0640  55.0640  55.8991  55.8991  56.6619  57.5149  58.9379
    58.9379  59.0266  59.1881  59.1881  63.4056  63.4056  63.5289  65.1756
    65.1756  65.4501  67.1197  67.1197  67.3034  67.3034  67.3653  68.3090
    68.8936  71.4501  71.4501  71.6861  71.7627  71.7627  72.5772  75.8294
    75.8294  76.8053  77.0047  77.0047  78.2044  79.4945  81.2223  81.2223
    83.3201  83.3201  85.0350  86.5651  87.3153  87.8067  87.8067  88.5053
    88.6805  88.6805  91.7551  91.7551  91.8662  92.7033  92.9922  93.8366
    93.8366  94.8716  94.8716  95.1541  95.1937  95.1937  95.2339  96.4679
    96.4679  96.6707  98.8724  98.8724 102.7583 103.4599 103.8428 103.8428
   104.4346 104.4346 105.3471 105.7044 105.7044 105.8484 106.8209 106.8209
   107.3978 107.6297 107.6297 107.8664 109.1918 109.1918 110.8965 110.8965
   111.8812 114.3572 114.3572 114.6690 115.0026 115.4515 115.4515 116.8010
   116.8010 117.4778 119.3406 119.3406 120.3345 120.3345 120.7351 121.2116
   121.8737 121.8737 122.5752 122.5752 123.7302 124.3744 124.4212 127.1234
   127.2705 127.2705 127.4559 127.4559 128.3693 129.0625 129.0625 129.4846
   130.4395 130.4395 130.6585 132.7890 132.7890 133.3627 133.3911 133.3911
   137.4144 137.6290 139.2211 139.6417 139.6417 139.8728 139.9328 140.5295
   140.5295 141.9085 141.9085 142.8199 143.5412 143.5412 144.0640 144.0640
   144.7852 144.7852 145.5674 145.9333 148.3050 148.5683 148.5934 148.5934
   148.9701 148.9701 149.6912 149.6912 150.6990 150.6990 150.7541 151.3385
   151.7321 151.7321 151.7817 152.7426 152.7426 153.5232 153.5232 154.1985
   155.0996 155.0996 155.1805 156.1280 157.4457 157.4457 158.4997 158.4997
   158.7097 159.9509 159.9509 159.9926 161.0361 161.0361 161.3741 161.3741
   161.6236 163.2704 163.2704 163.5090 165.6966 166.6504 168.3495 168.3495
   168.8078 169.4575 169.7684 169.7684 169.8651 170.2359 170.2359 170.6985
   171.2231 171.2231 171.3648 172.5683 172.5683 173.0052 173.1036 173.1036
   173.5319 173.7863 175.8611 175.8611 177.3452 177.5058 177.5058 179.9022
   179.9321 179.9321 180.3428 180.3428 180.5632 181.4166 181.4166 181.8530
   181.8530 182.0725 182.1738 182.7856 183.3352 183.3352 185.3402 185.3402
   190.0588 190.0859 190.0859 191.9415 192.4089 192.4089 193.1408 193.1408
   193.1753 193.8970 193.8970 194.1666 194.9659 194.9659 195.0187 195.7511
   195.8843 195.8843 196.9515 196.9669 198.0802 198.3768 198.3768 198.8017
   198.8017 198.9342 199.8946 200.6089 200.6089 200.9669 200.9669 202.5817
   202.5817 202.7812 202.9579 203.0948 203.0948 203.4767 203.4767 204.5793
   205.9938 206.3139 206.3139 206.4381 206.4381 206.9112 207.1392 207.3180
   207.3180 207.6238 207.6238 207.7651 207.7651 208.2275 208.8154 208.8343
   209.0670 209.0670 211.5422 211.5422 212.8187 213.9204 216.4959 216.4959
   216.6043 216.6043 216.6864 217.7808 217.8094 217.8094 218.1080 218.1868
   218.1868 219.4028 219.9410 219.9410 220.6609 220.6609 221.7058 221.7058
   221.8503 221.9252 222.4806 222.4806 222.6803 223.0702 223.0702 224.4351
   224.5544 225.0951 225.0951 226.0226 226.0226 226.8767 226.8767 227.0072
   227.1260 227.1408 227.1408 228.2254 228.2254 229.4040 231.9642 232.3844
   232.6799 232.6799 233.5750 233.5750 233.8990 233.8990 234.1961 234.3853
   234.5643 236.7224 236.7224 237.8953 237.8953 238.1054 238.7526 238.7526
   239.3983 239.7961 240.9006 241.4808 241.4808 241.8883 241.8883 242.6506
   243.1862 243.6261 243.6261 244.2839 244.2839 244.4691 246.4477 246.4477
   246.5537 246.6354 246.6354 248.8361 248.8498 248.8498 249.9698 250.1223
   250.1223 251.5252 251.5252 252.1734 252.1734 252.5658 252.7153 253.0573
   253.7680 253.8074 253.8074 254.1812 254.1819 254.1819 256.5944 256.5944
   256.6677 256.6677 257.6270 257.6270 258.1868 259.4798 259.4798 259.9701
   260.2206 260.2223 260.2223 260.4063 260.8231 260.8231 261.0239 261.2436
   261.2436 261.6457 261.6457 262.7284 262.9562 264.5702 265.5633 265.5633
   266.0322 266.0322 266.1250 266.6652 266.7399 266.7399 266.8126 266.8436
   266.8436 268.2064 269.0042 269.0042 269.4774 269.4774 271.1626 271.1626
   271.5286 272.1608 272.2639 272.9378 272.9378 273.5877 274.1139 274.1139
   274.7986 274.7986 275.5984 276.5790 277.0352 277.0352 277.3502 277.4437
   278.3765 278.3765 279.1565 279.1565 279.6348 279.6365 279.6365 279.9693
   280.3996 280.6063 280.6063 281.2780 281.5277 281.5277 283.7711 283.7711
   284.5704 285.3990 285.4963 285.4963 286.9427 287.0216 287.0216 287.1001
   289.1426 289.1426 290.2252 290.2293 290.2293 290.2297 291.1235 291.1235
   291.7079 291.8116 291.8116 291.9470 292.0468 292.0468 292.1325 292.4213
   292.4213 292.4704 292.5658 292.6799 292.6799 293.5054 294.0837 294.0837
   294.2801 294.2801 294.3441 294.3441 294.4392 294.6741 294.6741 294.6832
   296.6585 296.9749 296.9749 298.0475 298.0475 298.0519 298.0729 298.4934
   298.7121 298.7121 299.8604 299.8604 299.8655 300.4301 300.4301 300.7600
   300.8204 302.2461 302.2461 304.0845 304.0845 304.6174 304.9192 305.2034
   305.2362 305.2362 307.7418 307.7418 308.7651 308.7651 309.2312 309.4346
   310.6429 310.6429 311.1081 311.1081 312.7496 314.8072 314.8072 315.3898
   315.3898 317.0865 317.0865 317.1372 317.1372 317.1963 317.4638 317.8873
   317.9620 317.9697 318.0392 318.0392 318.7869 318.8794 318.8794 319.2031
   319.2031 319.9634 319.9634 320.1741 320.8982 320.8988 321.0693 321.0693
   322.4825 322.4825 323.9295 324.0434 324.0535 324.0535 324.3793 324.4877
   324.4877 325.5131 325.5131 325.9128 327.5943 327.5943 329.3325 329.3325
   329.3652 329.8225 329.8225 330.1679 330.1810 330.5293 330.5293 331.5533
   331.7021 331.7021 332.7671 332.9423 334.5537 334.5897 334.5897 334.8078
   335.0460 335.0460 336.5020 337.3407 337.3407 337.9821 337.9849 337.9849
   339.1913 339.1913 339.2418 339.2418 339.3144 339.3144 339.3741 340.5629
   341.2700 341.3687 341.7126 341.7126 342.1156 342.1156 342.7677 342.7677
   342.8323 343.3217 343.4474 343.4474 344.5985 344.5985 345.7172 345.7447
   345.7447 345.8401 345.9172 345.9172 346.5692 346.5692 347.2809 347.4862
   347.7857 347.7857 348.0354 348.1125 348.2360 348.2360 348.6469 348.6469
   349.3827 350.4274 350.4274 350.4795 350.5833 351.2843 351.2843 352.2088
   352.2088 352.8102 354.4942 354.4942 355.0796 355.3750 355.4933 355.4933
   356.4416 356.4416 356.7461 356.9381 357.3977 357.3977 357.7277 357.7277
   357.7487 358.8135 358.8135 359.3777 359.7274 359.7274 360.3147 360.4580
   360.7523 360.7523 360.8124 360.8124 361.0496 361.0496 361.0807 361.0916
   362.6867 362.6867 363.3326 364.7422 364.7422 365.6364 365.9659 365.9659
   366.6737 366.7546 366.7546 366.7679 366.7679 366.8276 366.8331 367.3679
   367.7402 367.8527 367.8527 367.9531 368.8187 368.8187 370.2316 370.2316
   370.9431 370.9431 370.9444 371.7987 372.0082 372.0082 372.2336 372.2336
   372.5322 372.8843 373.0481 373.0481 373.1871 373.1871 373.4741 373.4741
   373.5589 373.5800 374.0423 375.6654 375.6654 376.4369 376.4369 376.6746
   376.9195 377.1430 379.6750 379.6750 382.5255 382.5255 382.6801 383.1883
   383.5130 383.5130 384.0493 384.0518 384.0518 384.1534 384.6888 384.6888
   385.5496 385.5496 386.0868 386.0868 386.9726 386.9726 387.1335 388.8852
   388.8852 389.7840 390.2652 391.1960 391.3776 391.3776 391.5811 391.5811
   392.3350 392.3350 392.4164 392.4164 392.4308 392.4690 392.4690 392.5508
   392.7410 392.8291 392.8291 392.8666 392.8686 392.8993 392.8993 392.9665
   395.0352 395.0352 395.2495 395.2495 395.2517 395.2938 397.1890 397.1890
   398.7681 399.0444 399.0444 399.4991 402.0316 402.0316 402.4248 402.4248
   402.4775 402.4845 402.6021 402.6021 403.9431 404.2075 404.2075 404.4163
   404.5215 404.5379 404.5379 405.1664 405.1664 405.3269 405.6844 405.6844
   405.7098 406.4193 406.4193 406.7889 406.7934 406.7934 407.4338 407.4338
   407.5912 407.6136 407.7507 408.0793 408.0793 408.0962 408.0962 408.1544
   411.5064 411.5064 411.9639 411.9639 412.1483 412.1505 412.4305 414.4858
   414.4858 415.1305 415.1305 415.6794 417.4491 417.4491 417.6101 417.9243
   419.0566 419.0566 419.5119 419.5119 420.0582 420.4059 420.6179 420.6322
   420.7730 420.7730 421.2701 421.2701 421.6876 421.6876 422.6545 422.6662
   422.6662 422.9467 422.9467 423.0311 423.1052 423.8344 423.9162 423.9162
   425.5769 425.5769 425.7635 426.0409 426.5985 426.5985 426.6219 427.0843
   427.0843 427.3673 428.7471 428.7577 429.1501 429.1501 429.3870 429.3870
   429.8366 429.8928 429.8928 430.4016 430.4016 430.4067 430.9453 430.9453
   431.1091 431.1091 431.4024 431.4074 432.4663 432.4663 432.6865 432.6865
   432.7304 432.7304 432.7515 432.7630 432.7946 432.7946 432.8277 432.8785
   435.2778 435.7639 435.7639 437.4621 437.4621 437.7427 438.1888 438.1888
   439.1880 439.9071 439.9071 440.1731 440.1731 440.4274 440.4274 440.4960
   440.5548 440.8660 440.8709 441.1519 441.1912 441.1912 441.2319 441.2319
   442.1829 443.4654 443.4654 445.1406 445.1406 445.4398 445.4813 446.1185
   446.2404 446.2404 446.6672 446.6874 446.6874 446.7556 447.7010 447.7010
   448.3999 448.3999 448.5663 448.5663 449.4996 449.5048 449.5048 449.5951
   449.8111 449.8111 450.9279 450.9279 450.9519 451.0927 451.4717 451.4717
   451.6322 452.0831 452.0831 452.0896 453.3202 453.3202 453.4416 454.5916
   454.5916 455.1966 455.1966 455.3901 455.8821 455.8821 456.0907 456.0907
   456.2846 456.6122 457.1239 457.1239 457.2150 457.2437 457.3283 457.3283
   457.3955 457.4550 457.4550 457.4625 458.0161 458.0257 460.0302 460.0302
   460.4765 460.4765 463.4997 463.4997 463.5302 463.5302 464.2552 464.2552
   464.5638 464.5645 464.8140 464.9105 464.9105 465.0822 466.8618 466.8618
   467.2572 467.2572 467.2964 467.3075 469.3791 469.3791 471.6505 472.6641
   472.6641 472.9433 472.9433 473.3249 474.9654 475.5254 475.5254 475.6275
   475.7488 475.7488 476.1202 476.2173 476.2716 476.2716 476.4792 476.5144
   476.5144 476.5982 476.5982 476.6432 476.6937 476.6937 476.6994 477.0072
   477.0072 477.2474 478.0481 478.3021 478.3819 478.3819 478.6517 478.6517
   478.8719 479.3688 479.5864 479.5864 480.3818 480.3818 481.3386 481.3386
   481.3585 481.6328 481.7690 482.0639 482.1291 482.1291 482.2556 482.2904
   482.2904 482.5200 482.5200 482.7131 482.7131 482.7441 482.7661 482.7661
   482.7867 483.1269 483.1344 483.2023 483.2647 483.2647 483.3599 483.3599
   488.1600 488.1600 488.4935 488.4935 488.7085 488.7152 488.7606 488.7606
   488.8292 488.8292 489.2426 489.2426 489.4339 489.5827 489.5827 489.6749
   489.8851 489.9229 489.9229 489.9335 489.9335 490.0629 491.8170 491.8170
   493.4056 493.4056 493.4541 493.5830 497.6151 497.6151 498.1646 498.1646
   498.1836 498.2071 500.4931 500.4931 501.2906 501.2906 501.5955 501.9505
   501.9505 502.1257 502.2496 502.2633 502.2633 502.3011 503.9532 503.9532
   504.5513 504.6213 504.6213 504.9001 504.9001 504.9900 505.2519 505.2519
   505.3408 505.3783 509.0983 509.6952 509.6952 511.3548 511.3548 511.7031

          k = 0.0000 0.2500 0.0000 (  2870 PWs)   bands (ev):

  -118.2038 -72.3730 -72.3730 -72.3730  -6.0995   0.4833   0.5215   0.5215
     0.8489   0.8674   5.7187   6.6157   6.6157   9.7566  12.0967  13.5112
    13.5112  16.4937  18.2924  18.7436  20.6637  20.6637  21.2346  25.1934
    29.9989  29.9989  31.0468  31.8409  34.5602  34.7814  34.7814  37.5241
    39.0605  39.0605  40.1290  41.8629  43.4854  43.4854  43.7723  45.9333
    46.3540  46.3540  46.6351  47.1387  48.1889  48.1889  48.6478  49.6445
    50.7150  51.6367  51.6367  52.2298  52.3638  53.1703  53.1703  54.0055
    54.3406  54.3406  54.6397  56.0779  56.5894  56.5894  58.0562  59.0609
    62.5637  62.6900  62.6900  64.8354  66.7833  72.7911  72.7911  72.9604
    74.3009  74.3009  74.6149  74.6672  79.2093  79.8064  79.9954  79.9954
    80.3002  81.4377  81.4377  81.6327  82.9823  83.8716  83.8716  84.2982
    84.9940  85.4865  86.8375  87.1607  87.1607  88.0984  88.3523  88.3523
    89.2775  89.3965  90.4199  90.4199  91.3287  91.6592  91.6592  91.9661
    92.7121  92.8127  94.0017  94.3540  94.3540  95.2405  96.5029  97.1039
    97.1039  97.6665  97.8355  98.2473  98.2473  99.2986  99.5528  99.5528
   101.0206 102.5406 103.0076 103.0076 103.7495 103.7495 104.2397 104.4646
   105.4422 105.6172 107.1297 107.1297 107.6866 109.6081 111.6548 112.6114
   112.6114 113.4327 114.0771 114.0771 114.1137 114.8021 115.3852 116.5884
   116.5884 117.2702 117.7982 117.7982 117.8737 118.5177 118.5177 118.9204
   120.4870 121.3152 121.5920 121.5920 122.3898 123.9948 124.6186 124.6186
   124.6520 126.3621 126.3932 126.3932 126.5971 127.3590 128.4726 128.8815
   128.8815 129.8632 131.3259 131.8020 132.6443 133.3866 133.3866 134.1073
   134.1073 134.6584 137.1533 137.1533 137.4086 140.4026 141.8454 142.8525
   142.8525 143.7637 144.5972 144.8556 144.9569 144.9569 147.2558 147.8275
   147.8275 148.4576 150.3519 150.6393 150.6393 150.6899 151.0491 151.4402
   152.4409 152.4409 152.7943 153.3656 153.6233 153.6233 154.7373 154.7373
   154.7852 155.8225 156.3725 157.3909 158.2811 158.3642 158.3642 158.5547
   159.2356 159.2356 159.4543 159.9222 159.9446 159.9446 160.5711 160.7342
   160.7342 160.9157 161.1123 163.2039 163.2039 163.6289 164.0129 164.1194
   164.5973 164.7316 164.7316 164.9363 165.2325 165.2325 165.8633 166.7700
   166.9726 167.3775 167.3775 167.8560 168.2581 168.2581 168.3246 168.6572
   169.5564 169.5564 170.8599 170.8599 171.6172 171.8103 172.6913 173.1314
   173.1314 173.4682 173.5459 173.9006 174.7047 174.7047 175.2141 176.2993
   176.9869 176.9869 177.9475 178.7088 178.7187 178.7187 179.0984 179.7766
   180.2159 181.0373 181.0373 181.0754 183.1426 183.1426 183.6525 183.9291
   183.9820 183.9820 184.4453 184.9591 185.8919 185.8919 185.9175 187.1368
   188.1885 188.1885 189.1271 189.2690 189.8491 189.8675 189.8675 190.0719
   190.6787 190.6787 191.5273 191.8140 192.5571 193.6813 193.6813 194.6034
   197.4401 197.7214 197.8883 197.8883 198.6490 198.6490 199.1850 199.6903
   199.9520 199.9520 200.7773 201.4292 201.5946 201.5946 202.2202 202.5630
   204.3892 204.5000 204.5000 205.8057 207.2231 207.2231 207.5721 208.5811
   209.9314 210.0310 210.1014 210.1014 210.2213 210.2213 210.4215 210.7924
   211.7942 212.4385 212.7477 213.4716 213.4716 214.9693 215.6286 215.6286
   217.9647 218.7969 218.7969 218.9942 219.4406 220.6299 220.6299 221.0197
   222.0827 222.0827 222.3382 222.9303 224.8648 224.8648 226.2807 226.9043
   227.0154 227.0154 227.3595 228.8032 228.8032 228.8583 228.9743 229.7953
   230.0519 230.0519 230.8831 231.8126 231.8126 232.3658 232.6363 233.2094
   233.4093 233.4093 233.6349 233.8797 234.6629 234.6629 235.2124 235.6817
   236.3212 236.3212 236.7083 237.4126 237.5411 237.7309 237.7309 238.1398
   238.6867 238.6867 239.4892 240.0991 240.7785 240.9573 240.9940 240.9940
   241.7228 241.7228 242.2347 242.5602 243.0677 243.0677 243.3030 243.7335
   244.1244 244.1347 244.1347 244.5969 245.1916 245.7199 247.3559 247.3619
   247.3619 248.0555 248.0555 248.4487 248.5501 250.4915 250.6169 250.6169
   251.0387 251.0387 251.1259 251.8151 252.0030 252.0283 252.0283 252.2857
   253.2474 253.6129 253.6129 254.1681 254.7857 254.7945 254.7945 255.0891
   255.5995 255.9038 255.9038 256.0243 256.4864 256.5212 256.5212 257.1771
   258.3455 258.6959 258.6959 259.4652 259.4719 259.6356 259.6356 260.6201
   261.0755 261.5183 261.5183 262.2259 262.2259 262.7400 263.1120 263.5114
   264.0961 264.0961 264.1689 264.4519 265.1344 265.2285 265.2285 265.2390
   266.3264 266.3264 266.3756 266.7733 267.1730 267.2409 267.2409 267.5840
   267.5840 267.8202 267.8909 268.8449 268.8933 268.8933 269.6271 270.6030
   271.2483 271.2483 271.2599 271.4642 271.5545 271.5545 271.6654 271.7091
   272.6685 273.6518 273.6518 273.7821 274.4686 274.5643 274.5643 274.8230
   274.8231 275.1478 275.6597 277.4797 278.3680 279.3748 279.4605 279.4605
   280.1658 280.3076 280.3076 280.5393 280.7732 281.4279 281.4279 282.1345
   283.0374 283.8538 283.9064 283.9064 284.2812 286.0984 286.5498 286.9220
   286.9220 287.0377 287.4136 287.5175 287.5175 288.6771 290.0717 290.0717
   290.4025 291.0637 291.4055 291.4055 292.2518 292.9581 293.4144 293.4144
   293.8224 294.4231 295.6341 295.6341 295.6428 297.0538 297.0538 297.5363
   297.5363 297.9861 299.5253 299.6200 299.7045 300.9520 300.9520 301.1016
   302.9328 304.7448 304.7448 305.7765 306.5898 306.5898 306.6149 307.8272
   307.8658 308.6162 308.6162 308.8381 308.8678 309.4901 309.4901 309.9595
   310.1806 311.2607 311.2607 311.2945 311.5751 312.7763 313.0539 313.7731
   313.7731 313.9002 314.6073 314.6073 315.0421 315.0421 315.1873 315.3362
   315.6479 315.6951 315.8685 315.8685 316.2835 316.9301 317.3296 317.3296
   317.6755 319.7942 320.4037 320.4037 320.4990 320.8851 320.9813 320.9813
   321.8242 322.3618 323.1674 323.2991 323.6637 323.6637 326.0321 326.0321
   326.3267 326.7076 326.7076 326.7283 326.7932 326.9442 327.4284 328.6455
   328.6455 328.8440 329.3635 329.4666 329.4666 329.5660 330.2688 330.2688
   330.3663 330.3975 331.0182 331.0182 331.3252 331.6485 332.2699 332.2781
   332.3856 332.3856 333.8862 333.8862 334.0296 334.0296 334.0332 334.0756
   334.1479 334.9998 334.9998 335.2704 335.3026 335.5228 335.5228 335.7496
   336.8627 338.2069 338.2069 338.2346 338.4947 338.6103 338.6956 338.6956
   338.8464 339.2625 339.6048 339.6048 339.8302 341.6856 341.6856 341.7263
   341.7853 342.9888 342.9888 343.9168 343.9297 345.2943 345.5468 345.5468
   345.5564 345.9913 346.1392 346.1719 346.1719 347.5001 348.5017 349.4947
   350.0156 350.0156 350.3497 350.5085 350.6001 350.6001 350.6086 351.0687
   351.0687 351.3922 351.6018 351.6018 352.6484 352.9781 353.6383 353.9615
   353.9615 355.2184 355.7526 355.7526 356.1838 358.2467 358.2467 358.3101
   358.5036 358.5650 358.8963 359.0969 359.3488 359.3488 359.4937 360.0783
   360.2145 360.2145 360.9918 361.4253 361.6169 361.6225 361.6225 361.6327
   362.7581 362.9569 362.9569 363.4511 363.4511 363.4534 363.6723 365.1606
   365.4078 365.4078 366.2096 366.4560 366.4560 366.8386 366.8386 366.8928
   367.3403 367.9912 368.3629 369.0513 369.0531 369.0531 369.3266 369.5211
   369.5211 369.6103 369.8813 369.8813 369.9582 370.0878 370.3814 370.3814
   370.5775 370.7946 370.7946 370.8860 371.2741 372.2927 373.8904 374.4317
   374.5352 374.5352 375.0917 375.1128 375.1128 375.4949 375.4993 375.4993
   375.5364 376.5729 377.0323 377.0323 377.4831 377.9909 378.0521 378.1020
   378.1020 378.5930 378.5930 378.7989 380.0322 380.4710 380.6171 380.6171
   380.8075 380.9930 381.3348 381.3348 381.5347 381.6833 382.4962 382.5863
   382.5863 384.2653 384.5818 384.7897 384.7897 385.2135 385.4076 385.4076
   385.7107 386.5244 386.9133 386.9133 387.1727 387.1930 387.3973 387.4131
   387.4131 387.9822 387.9822 388.0848 388.3860 388.5179 388.6204 388.6204
   388.8019 388.9735 388.9735 389.1165 389.3620 389.6720 390.9500 390.9500
   392.0640 392.7374 392.9448 393.1160 393.1160 393.9047 394.4094 394.4778
   394.4778 394.4967 395.6900 395.6900 395.7108 395.9277 396.6012 396.6012
   396.6293 396.7038 396.7276 396.9119 396.9119 396.9705 397.0366 397.6028
   397.6028 398.6806 399.9589 400.1410 400.1410 400.2628 400.3433 400.4293
   400.4293 401.0696 401.0696 401.1222 401.3045 402.2127 402.2818 402.5862
   402.9027 403.1288 403.1288 403.2543 403.2543 403.4432 404.2155 405.0998
   405.0998 407.0248 407.1291 407.9945 408.3978 408.3978 410.1445 410.7166
   411.0706 411.0706 411.6671 411.6671 412.2119 412.3019 412.4348 412.4348
   412.4668 413.1551 413.1646 413.1646 413.9147 418.6791 418.8373 419.2082
   419.4278 419.4278 420.2606 420.2606 420.4723 420.5142 420.5156 420.5156
   420.5506 420.8539 421.9754 422.0662 422.0662 422.3049 422.4213 422.4213
   422.4573 422.7356 422.7405 422.8259 422.8259 424.6213 424.6213 424.7029
   424.7496 425.5601 425.5601 427.3033 428.4437 429.0637 429.3363 429.3363
   429.4624 429.5310 429.6385 429.8637 429.8637 430.4114 430.5504 430.5504
   430.7110 431.3299 432.0289 432.0289 432.7060 433.3989 434.4233 435.1618
   435.1618 437.0818 437.5410 437.6083 438.4164 438.4164 438.7000 439.2681
   439.5492 439.5492 440.0296 440.2121 440.2121 441.1370 442.9432 444.9504
   444.9510 444.9789 444.9789 445.4486 445.4486 445.5047 446.4172 446.4708
   446.9411 447.3350 447.3350 447.6680 447.6680 448.1678 448.1929 448.3210
   448.3210 448.5008 448.6019 449.5399 449.5399 449.6457 450.2983 450.8933
   450.8933 450.9662 451.0071 451.7686 451.7779 451.7779 452.2505 452.3276
   452.5711 452.5993 452.5993 452.6522 453.0154 453.0582 453.0582 453.7273
   454.4269 454.4727 454.4727 456.2082 456.2082 457.9177 458.5498 458.9834
   458.9834 459.3273 459.7353 459.8693 459.8693 460.2284 460.8629 460.8629
   461.2093 461.7688 462.1181 462.1181 462.1182 462.1561 462.4809 462.4809
   462.6410 463.0589 463.4848 463.9597 464.3075 464.3075 464.7728 464.8846
   464.8846 465.3051 465.4398 466.1549 466.1549 466.1878 466.5245 466.8506
   466.8506 467.1642 467.1805 467.8938 467.8938 468.0252 468.2435 468.3060
   468.3060 468.4032 468.9227 469.0584 469.0584 469.1820 469.7170 469.7170
   469.8097 469.8645 470.9594 472.1761 472.4333 472.7578 472.7578 473.0901
   473.7582 473.7582 474.0849 474.0849 474.1259 474.2195 474.3267 474.3267
   474.3357 475.9368 476.0713 476.5255 476.6684 476.6684 476.9168 477.0610
   477.0610 477.4956 478.2539 478.4936 478.5722 478.5815 478.5815 478.6463
   478.6463 478.9952 479.5269 479.7693 479.7693 479.9909 480.1563 480.2117
   480.2117 480.5256 480.6132 480.8673 481.3559 481.3559 481.4669 481.4998
   481.4998 481.5008 481.7029 481.9867 482.0324 482.0324 482.3732 482.8015
   482.8015 483.1237 483.4189 483.6940 483.6940 483.8174 484.7833 484.9108
   484.9610 484.9610 485.2089 485.2089 485.2502 485.2835 485.5608 485.9003
   485.9003 486.1250 486.4210 486.6283 486.9441 486.9441 487.0235 488.0053
   488.1190 488.1190 488.2382 488.8553 488.8613 488.8613 488.9271 490.0561
   490.2397 490.7010 490.7010 491.2643 491.8323 491.8323 492.5015 492.9713
   493.4796 493.7379 493.7379 494.1317 494.3590 494.7188 494.7188 494.7553
   494.7824 494.7824 494.9492 496.3745 496.6364 496.8484 496.8559 496.8559
   497.6564 498.0051 498.0051 498.0617 498.4395 498.4395 498.7444 499.0005
   499.0372 499.2233 499.2233 499.8219 500.0906 500.4200 500.4200 500.5238
   501.7135 501.7135 501.7927 501.9270 502.9598 502.9598 503.2919 503.4046

          k =-0.1250 0.3750-0.1250 (  2891 PWs)   bands (ev):

  -118.2038 -72.3730 -72.3730 -72.3730  -5.8904   0.5004   0.5585   0.5623
     0.8436   0.8738   4.4287   6.2348   6.2821  10.4639  12.0397  13.9443
    14.0932  16.1586  18.5968  19.1597  20.7521  22.4088  23.5727  26.8106
    26.9129  27.6309  30.1053  31.5300  32.2211  35.1683  36.4316  38.0336
    39.4625  39.6774  40.7704  40.8622  41.5496  42.2712  42.4965  43.8983
    44.5222  45.2343  45.5202  46.6294  47.6831  48.0819  48.4057  49.9983
    50.2374  51.2026  51.2948  52.3702  52.9102  53.3235  54.1235  55.8939
    56.5579  56.6066  57.6531  59.2789  59.4625  60.1087  60.8436  61.3385
    62.4877  63.5931  65.7465  67.3113  67.8758  69.0117  69.6846  70.3673
    70.8476  73.4668  74.2538  75.1209  75.7521  76.6865  77.9001  77.9523
    78.8222  79.4231  80.0895  81.1864  81.4864  81.7721  82.8658  82.9975
    84.1177  84.2075  85.3796  85.5360  86.9434  87.5981  87.7766  88.6932
    88.8050  89.6007  90.9530  91.1551  91.8263  91.9367  92.2782  93.4984
    93.7422  94.7684  95.0074  95.6578  95.8921  96.2959  96.7498  96.9529
    97.5257  97.7724  98.2832  98.9494  99.0786 100.0916 101.3973 101.5702
   102.3585 102.6414 103.4971 103.8725 104.6341 105.0221 105.1717 106.0614
   106.3502 106.8841 107.4517 108.4924 108.8873 109.4894 109.7921 110.3336
   110.8442 110.9382 111.1673 113.2238 113.5709 114.2092 115.0653 115.0800
   115.8267 116.4003 117.2522 117.9338 118.0391 119.4776 120.3771 121.1489
   121.4661 122.3793 122.4688 123.0292 123.6087 123.9213 124.5273 124.9377
   125.9102 126.0976 127.1240 127.1780 127.6251 128.6503 129.2206 130.5355
   131.9059 132.0699 133.3340 134.1432 134.2903 135.2179 135.4680 135.9803
   136.8957 137.2566 137.8816 138.2173 139.0182 139.7706 139.9222 141.1284
   141.6586 141.8261 142.5859 142.6676 143.6193 143.9025 144.3444 144.4899
   145.0914 145.6156 146.5641 146.6883 147.3101 148.6137 148.7105 148.9094
   149.6103 149.6285 149.9986 150.7331 151.4083 152.0183 152.7380 153.1077
   153.4217 153.6273 154.0134 154.9273 155.3074 155.5209 156.2359 157.1653
   157.7126 157.9385 158.6210 158.8962 159.3369 159.9980 160.2974 160.5373
   160.6086 161.6841 161.8795 162.4593 162.5597 162.8647 163.3642 163.8513
   164.5176 164.6818 164.9103 165.8038 166.4106 166.4509 167.0177 167.5145
   167.9978 168.3671 168.4873 169.3825 170.0040 170.1347 170.9238 171.6632
   171.7974 172.4412 172.5954 172.7429 173.4329 173.7811 174.2114 174.3456
   175.1314 175.5162 175.5709 176.1108 176.4316 176.8271 177.4488 178.0967
   178.2064 178.5424 178.7767 179.2204 179.2745 179.4808 180.2611 180.3421
   180.4031 180.9141 181.6084 181.9780 182.6569 183.3706 183.7542 184.2698
   184.3375 184.8401 184.9737 185.7431 185.8508 186.0774 186.6324 187.0471
   187.4782 187.5321 188.0184 188.6965 188.8751 189.7161 189.7699 190.2826
   191.2248 191.6406 192.5343 193.4191 193.5493 194.4192 194.6535 195.1252
   196.3901 196.8865 197.2122 198.3458 199.4483 199.6443 199.8450 200.1551
   200.3840 201.5025 202.0440 202.8098 203.1771 204.0711 204.4175 204.7663
   204.8173 205.4813 206.3387 206.4931 206.9829 207.2480 207.6625 208.7214
   208.9704 209.9895 210.0237 210.4941 210.9288 211.2294 211.6281 212.1409
   212.9564 213.2087 213.6677 214.3552 214.8576 215.0276 215.4074 215.9583
   216.7761 216.8445 217.1141 218.1511 218.8670 219.1078 219.4992 219.7446
   220.4972 221.7003 221.8373 222.3149 222.5499 223.0110 223.0681 223.5630
   224.4887 224.6175 225.3121 225.9848 226.8122 227.2779 227.5781 227.6888
   228.5932 228.6052 229.1998 229.8354 230.0212 230.6213 230.7661 231.2072
   231.3882 232.3964 232.8132 233.1122 233.4025 233.6512 233.8601 233.9083
   234.4351 234.7364 235.7522 236.2057 236.3640 236.6738 237.1689 237.5304
   237.8134 237.8765 239.0008 239.2321 239.5746 240.2999 240.3919 240.8202
   240.9534 241.4223 241.7497 242.9517 243.2090 243.6217 243.9986 244.5786
   244.8410 245.1081 245.2591 245.7598 245.9064 246.2287 246.4095 246.9468
   247.1353 247.5429 247.9826 248.2601 248.3365 248.6202 248.8586 249.6488
   250.0565 250.1055 250.5636 250.6025 251.0060 251.3387 251.6655 252.1310
   252.1499 252.5178 252.7122 253.0157 253.0207 253.3905 253.6021 253.7319
   254.5271 254.5426 255.3959 255.7862 255.7867 256.1620 256.7974 257.7348
   258.1894 258.2079 258.6137 258.8832 258.9252 259.7919 259.9261 260.1627
   260.8972 261.1028 261.2427 262.2140 262.4708 262.7452 262.9962 263.2373
   263.8865 263.9261 264.3063 264.3671 264.6915 265.1830 265.8622 265.9036
   266.4710 266.5233 266.8084 267.3079 267.5271 267.8103 268.4026 268.5577
   268.8169 269.0724 269.2523 270.0329 270.6044 271.0897 271.7584 272.6110
   272.7549 273.6873 273.9808 274.2432 274.8095 275.0460 275.1302 275.2592
   275.8560 276.0245 276.4332 276.6585 276.8397 277.0218 277.6537 278.1174
[...]
   271.2152 271.7545 272.4389 272.7644 273.1110 273.9349 274.3726 274.7062
   275.0667 275.8889 276.1550 276.2598 276.7826 277.0133 277.6786 278.8573
   279.4765 279.9842 280.2865 280.8794 281.3885 282.3815 283.0573 283.3395
   283.4123 283.7129 284.0403 284.0774 284.8048 284.9193 285.5647 285.6966
   286.3380 286.4420 287.0969 287.3220 287.8548 288.4958 288.6299 288.7868
   289.2683 290.7620 291.1393 291.3947 291.4661 291.5275 291.7890 291.8754
   292.6307 292.6934 293.2705 293.3618 293.4849 294.1236 294.1668 294.5224
   295.2109 295.3841 295.7544 296.0505 296.2622 296.9294 297.0183 297.3363
   297.5997 298.1620 298.4253 298.4412 299.0596 299.3609 299.5259 299.8146
   300.0072 300.4121 300.9346 301.0835 301.5960 301.7094 302.0685 302.2704
   302.6827 302.9701 303.0488 303.0841 303.4782 303.4985 303.9494 304.1054
   304.1448 304.3750 304.5073 304.7136 305.1238 306.0499 306.3621 306.8091
   307.3990 307.7154 308.1563 308.2109 308.7331 309.1240 309.7826 309.8711
   310.5973 310.6948 310.8635 310.8864 311.2421 311.4925 311.7648 312.3587
   312.5389 312.6644 312.9897 313.0831 313.2744 313.4024 313.8044 313.9022
   314.1737 314.2344 314.6497 314.8794 315.4623 315.7263 316.3451 317.2900
   317.9141 318.0812 318.2123 318.5855 318.6631 318.8164 319.2650 319.3687
   319.7957 319.8723 320.6108 321.1072 321.5031 321.7642 322.2468 322.2809
   322.6514 322.8085 323.6027 323.6954 323.9640 323.9953 325.1558 326.2028
   326.7595 327.0457 327.5289 328.1772 328.1869 328.6594 328.6720 328.7931
   329.2395 329.9554 330.0566 330.6333 331.0945 331.8566 332.6176 332.8168
   333.0571 333.4647 333.5580 333.7194 334.7132 334.9045 335.2908 335.2928
   336.1699 336.3999 336.8203 336.9727 337.1355 337.3324 337.6874 337.8146
   337.9442 338.0888 338.3055 338.6692 339.0600 339.1667 339.6649 339.7540
   340.3340 340.6785 340.8026 340.9156 341.1193 341.1804 341.6821 342.0020
   342.7543 343.0173 343.2937 343.6754 343.8877 343.9518 344.8065 345.0707
   345.2814 346.5333 347.0723 347.0893 347.3029 347.4285 347.8469 347.9223
   348.8088 349.0978 349.6134 350.0062 350.1158 350.4533 350.9173 351.5259
   351.7410 351.8973 352.1405 352.5532 353.0483 353.2707 353.8385 354.2950
   355.7721 355.8346 356.1142 356.1810 356.4207 356.8595 357.6059 357.7992
   357.9501 358.5270 358.7711 359.4539 359.6073 360.5188 360.5936 360.8149
   361.1414 361.2954 361.6612 361.8649 361.8913 362.0089 362.3262 362.6060
   363.3912 363.5718 364.5311 364.7325 365.8432 365.9795 366.2810 366.8262
   367.5669 368.0516 368.4880 369.1290 369.5353 370.5658 370.9447 371.0451
   371.0984 371.3000 371.3651 371.5020 372.2557 372.8628 373.1495 373.4411
   373.5777 374.5198 374.8049 374.9506 375.0551 375.3267 375.5438 375.7743
   376.5087 376.7720 376.9577 377.0128 377.0215 377.8818 378.1304 378.2199
   378.7584 378.8779 379.1253 379.4256 379.7220 380.2519 381.4863 381.7249
   382.1157 382.6280 383.0337 383.1946 383.6984 383.7603 384.2974 384.8123
   385.0463 385.2063 385.9460 386.0346 386.5672 386.9645 387.0157 388.1162
   388.3468 389.0974 389.3168 389.6646 389.7053 389.7410 389.7584 390.0594
   390.1466 390.2314 390.3153 391.1528 392.4510 392.5755 393.3579 393.5963
   393.6039 393.9931 394.0156 394.1236 394.2321 394.5647 394.5747 394.9959
   395.1011 395.3450 395.6650 395.7196 396.3781 396.7238 396.8665 396.9616
   397.1450 397.8162 397.9850 398.0966 398.3071 398.4300 398.5747 398.6299
   398.7333 399.4891 399.6137 399.9966 400.0085 400.4938 400.5449 400.5909
   400.8565 400.9230 401.2304 401.4072 401.4818 401.9312 402.3508 402.8247
   403.5201 404.6028 405.3244 405.5461 405.6746 405.8568 406.0316 406.3218
   406.8565 406.8719 407.4578 407.7285 407.7962 407.9342 408.1468 408.2796
   408.3952 408.3953 408.5864 408.6746 409.3959 409.6539 410.7719 410.8468
   411.0661 411.5407 411.8408 412.0984 412.3296 412.3996 412.7609 412.8727
   413.7054 414.3837 414.5756 415.0109 415.2254 415.2539 415.5454 415.5966
   415.6623 415.6994 415.8657 415.9370 416.0997 416.3519 416.5487 416.8327
   416.9223 417.1593 417.3161 417.3190 418.2131 418.2327 418.7360 419.1946
   419.9129 420.2449 420.4567 420.6626 421.9652 422.1227 422.1495 422.4555
   422.4564 422.6385 422.7386 422.9422 423.0848 423.2344 423.3147 424.1052
   424.4643 424.5267 424.8841 424.9029 425.1616 425.2349 425.6310 425.7270
   427.5938 427.9003 428.3535 428.6723 429.2596 429.2890 429.7271 429.7495
   430.0778 430.2839 430.4113 430.6355 430.9139 430.9765 432.0731 432.4703
   432.5515 432.9020 433.0207 433.1253 433.3622 433.4570 433.5044 433.6773
   433.8379 434.1315 434.2932 434.5514 434.8923 434.9760 435.1548 436.0514
   436.0716 436.3761 436.5151 437.0579 437.1702 437.4056 437.5474 438.6916
   438.9971 439.3380 439.7759 440.4099 441.2589 441.7106 442.0739 442.5487
   442.6469 443.5508 443.6399 444.1776 444.6791 444.7454 445.0316 445.3506
   446.4681 446.5956 446.8230 446.8592 447.0696 447.2199 448.3422 449.1081
   449.1131 449.6180 449.8122 450.0236 450.3568 450.5613 450.8290 451.1147
   451.4400 452.0623 452.3386 452.4852 452.6238 452.6517 452.6651 452.8301
   453.0736 453.3338 453.8615 454.5039 454.6462 455.0898 455.5289 456.3793
   456.5467 456.6239 456.8835 457.1337 457.3174 457.3857 457.6530 457.7043
   457.8950 458.2030 458.3218 458.3666 458.9836 459.2703 459.3623 459.4491
   459.8043 459.8590 460.2714 460.2965 460.4201 460.7504 460.9045 461.1326
   461.1534 461.3502 461.4076 461.7554 462.2887 462.7604 462.8556 463.0737
   464.3895 464.4260 464.7347 464.9566 465.3007 465.4152 465.5959 465.6676
   465.6971 465.7416 465.7759 466.0675 466.3455 466.5693 466.5865 467.5668
   467.5729 468.3201 468.6000 468.6889 469.9399 470.8902 471.3816 471.6249
   471.9620 472.2813 472.4202 472.4213 472.4685 472.6497 472.8481 472.8618
   473.2989 473.3729 473.6221 473.6245 475.0079 475.1544 476.0271 476.2444
   476.5624 476.7776 476.8900 477.1118 477.8233 477.9431 478.1507 478.2521
   479.1686 479.3335 479.4232 479.4831 480.3587 480.5469 480.7388 481.0789
   481.9735 481.9980 482.1631 482.2898 482.7424 482.8498 483.0824 483.0941
   483.8432 483.9325 484.0378 484.0820 484.2223 484.2351 484.8219 485.0422
   485.2792 485.5014 485.8034 485.8261 486.6843 487.1723 487.8605 488.0824
   488.1592 488.4052 488.8250 489.0169 489.2013 489.4584 489.7859 490.4693
   490.5531 491.2576 491.6995 491.8458 492.1123 492.1689 492.4738 492.5182
   492.9937 493.0829 493.2374 493.3653 493.9112 494.0194 494.2399 494.2405
   495.2230 495.3411 498.1217 498.3602 498.8054 498.9393 499.2293 499.8641
   499.9597 500.2716 500.2918 500.3499 500.7259 500.7753 500.8828 500.9139
   501.1105 501.4758 501.5187 501.5789 501.7622 501.9178 501.9306 502.0253
   502.3165 502.3424 504.5146 504.7016 504.7081 505.4736 505.9216 506.5707
   506.6435 506.6776 507.5644 507.7235 508.2224 508.5761 508.9139 508.9312

          k =-0.5000-1.0000 0.0000 (  2936 PWs)   bands (ev):

  -118.2038 -72.3731 -72.3730 -72.3730  -5.1695   0.6081   0.6989   0.8278
     0.8313   1.1619   2.3507   4.2730   4.3732  12.5172  12.5943  14.0076
    14.7461  18.7627  20.8643  21.1335  21.7472  24.7786  26.4609  26.5736
    26.8952  27.2055  29.0567  29.1766  31.6397  33.6331  33.9221  34.3593
    34.4834  34.9989  35.9449  36.0444  37.6502  42.5465  42.7940  43.3150
    43.6826  46.0505  46.5319  46.6758  49.1126  51.9334  52.2713  52.5283
    53.0129  53.3846  53.4565  54.1951  54.6737  55.4014  56.3148  56.8531
    58.1893  60.4867  61.6637  62.1231  62.3830  62.9569  63.0140  63.1642
    64.7960  67.2946  67.3716  67.3895  68.5192  68.5372  69.0108  69.0698
    69.4845  69.8035  71.0539  72.4272  72.9147  76.8901  77.1754  77.4097
    77.7795  78.2295  78.4743  78.5404  78.9233  79.5921  80.4603  80.7307
    80.9744  81.4834  81.8190  82.9025  83.3644  83.9887  84.7509  84.9849
    86.1476  86.9304  87.3850  87.9027  88.9609  90.3890  90.7863  90.9685
    91.3934  91.9403  92.4848  92.7757  93.3540  94.6654  95.4004  96.2159
    96.8382  97.3062  99.1577  99.6215 100.2276 105.0774 105.3810 105.9694
   106.0654 106.6781 107.1495 107.9618 108.7468 108.8065 109.8443 110.3416
   110.9477 111.1893 111.9298 112.0759 112.7158 113.9529 113.9701 114.0392
   114.1871 115.0554 115.5684 115.7002 117.1207 117.4575 117.5377 117.9417
   118.2173 118.9117 119.2279 119.3051 119.5610 120.0929 120.7318 120.8868
   121.6068 123.7868 124.0793 124.3464 124.3641 124.6300 125.2360 125.3093
   125.5579 126.0386 126.0798 126.5934 126.8824 128.4574 129.2752 130.0461
   130.3366 132.7577 132.9206 133.0428 133.7080 134.4493 134.5273 134.7737
   135.3831 135.7781 136.4478 136.6270 136.6410 136.7874 137.3690 138.1851
   138.2842 138.4511 139.0381 139.0898 140.2968 141.1283 142.0922 142.4092
   142.7614 142.9429 143.2149 143.7812 144.6939 144.8987 145.1579 145.1983
   145.7651 146.0320 146.1221 146.5887 147.2836 147.9602 148.0466 149.5283
   150.5964 150.7344 151.0616 151.1134 152.0401 152.6478 153.1035 153.8017
   157.1397 157.1792 158.8893 159.2945 159.6056 160.3274 160.5352 160.7428
   161.1257 161.1899 161.5494 161.5570 161.6982 162.4965 163.1111 163.1230
   163.6593 164.0862 165.1062 165.1370 165.7683 167.9926 168.1613 168.1827
   168.3429 168.6679 169.7149 170.1365 170.4899 170.5563 170.7181 171.1197
   172.6074 172.7602 174.1490 174.3367 174.4608 174.5931 174.6009 174.6503
   174.8826 175.3786 175.8959 178.5159 178.7990 179.2752 179.7166 179.7471
   180.2045 180.3794 180.4661 180.8984 181.1223 181.3643 181.5824 181.9331
   182.4619 182.4765 182.7375 184.0792 184.6700 186.7081 186.9226 187.3083
   188.0589 188.1791 188.7742 189.1158 189.6752 190.8107 191.9361 192.6064
   193.8013 193.9478 194.5357 195.2319 195.8284 196.1944 196.4591 196.5254
   197.0925 197.1725 197.3046 197.9174 198.0140 198.2613 198.4391 198.6148
   198.6282 198.7432 198.8523 199.3535 199.3985 199.5540 199.6816 200.2955
   200.7530 201.0713 201.3093 201.8170 203.0182 203.7445 203.8775 204.2819
   205.0725 205.5420 207.9607 208.3099 208.3923 208.5587 208.7373 208.9338
   209.2344 209.3629 209.4648 209.6214 210.2904 210.3438 211.7920 211.8204
   212.0129 212.1807 212.3066 213.0281 213.6332 213.8264 214.3484 214.5509
   215.2019 215.2635 216.1391 216.2696 217.2097 217.2804 217.6388 217.9656
   218.3663 218.4358 218.5224 218.5225 219.0640 219.1784 219.2457 219.8505
   220.1023 221.2457 221.5528 222.2527 222.3730 223.1472 223.3027 223.5360
   223.9132 224.6226 224.6347 225.1527 225.1810 225.5641 225.8467 225.9267
   226.6590 226.7602 226.7713 227.4751 228.8573 230.6683 230.6902 230.8337
   230.9670 231.1744 231.3606 231.4641 232.5718 232.7288 233.7736 234.1024
   234.3098 235.3673 235.4048 235.6261 235.7606 236.5071 236.7571 237.4180
   237.6990 238.2731 240.1587 240.1830 242.0368 242.4225 242.9718 243.0143
   243.7330 244.0249 244.0776 244.3209 244.7745 245.1100 245.6318 245.7444
   245.9977 246.2551 246.2889 247.5499 247.8309 248.7584 249.2750 249.4506
   249.8425 250.2825 250.6209 251.2514 252.1052 252.1552 252.3505 254.3179
   254.5633 254.6545 254.7871 254.8170 255.0064 255.0114 255.2957 255.3000
   255.8776 255.8834 256.1863 256.6930 256.7803 256.8987 257.0942 257.4233
   258.0776 259.3224 259.3225 259.3934 259.4631 260.7849 261.1328 261.4092
   261.5171 261.5453 261.7817 262.6602 263.1887 263.8825 264.3295 264.3714
   264.3948 265.6031 265.9334 266.1407 267.0946 267.6801 268.3334 269.3629
   269.4832 270.1554 270.2214 270.6496 270.8082 270.8564 270.9790 271.4210
   271.9791 272.1331 272.5871 272.6511 272.9127 274.0764 274.1951 274.5010
   275.1557 275.4676 275.8248 275.9902 277.2493 277.3341 277.3909 277.4760
   278.1025 278.6827 278.7608 280.2067 280.4600 280.7201 280.7999 281.2182
   281.2823 281.4350 281.5256 281.9577 282.2061 282.2815 282.4841 282.8592
   282.9284 283.0853 283.6130 283.6616 283.7512 287.1780 287.3850 288.0259
   288.2303 288.9029 288.9044 291.2253 291.5555 291.5872 291.6550 292.0591
   292.2577 292.5472 293.3750 293.6501 293.8485 294.5870 294.6046 294.8731
   295.7347 296.7939 296.8287 297.2413 297.5643 297.8341 297.9428 298.3137
   298.5579 299.1502 299.1770 299.2644 300.7690 301.0049 301.0313 301.0802
   301.6131 301.7250 301.9217 302.0812 302.2977 302.3203 302.8741 303.1142
   303.3168 303.4235 303.4551 303.5218 303.8148 303.8416 303.9599 304.1389
   305.7370 306.4204 306.6085 306.6961 306.8688 307.1397 307.1634 307.3258
   307.3703 307.4640 307.5801 308.1615 308.2703 308.3593 308.7982 308.9440
   309.8306 309.9389 309.9431 310.1038 310.1313 310.3079 310.5047 310.6944
   311.5040 311.9656 312.9208 313.3015 313.4130 313.4429 313.5237 313.6113
   314.1097 314.3159 314.3267 314.4779 315.7874 316.0633 316.4363 317.0778
   318.4362 318.7095 319.1225 319.8024 320.7307 320.7570 320.9187 320.9225
   321.1160 321.4819 322.1989 322.2376 323.1785 323.3280 323.4222 323.6829
   323.7291 324.2368 325.3400 325.6824 326.5072 326.5442 326.8363 327.3382
   327.3478 327.4754 327.5602 327.5738 327.8166 327.8858 327.9542 327.9978
   328.3822 328.9470 328.9805 329.1416 329.3606 329.4167 329.4736 329.5878
   332.1772 334.0895 334.2490 334.3877 334.8692 335.3722 335.7897 336.1696
   336.2478 336.6912 336.9833 337.8268 337.8295 337.8946 337.9241 338.0182
   338.6060 338.6347 338.6937 338.7155 338.8688 339.1363 339.1509 339.2038
   339.2619 339.3517 339.3628 339.3727 339.3754 339.6206 339.6539 339.8357
   340.7742 340.9752 341.4039 341.5448 342.5070 343.8029 344.2830 344.8539
   345.1864 346.0857 346.4778 347.2910 347.4181 347.5254 348.8276 349.1349
   349.3326 349.4058 349.4839 349.5012 350.0228 350.0777 350.1433 350.8557
   351.0679 351.6165 351.8099 351.8324 351.9296 353.2605 353.6212 353.6439
   354.4477 354.7223 354.9229 355.0437 356.5491 356.7297 357.1811 357.3647
   357.4217 357.4591 357.4871 357.6579 357.7437 358.4382 358.5719 358.9214
   358.9902 359.7439 359.9701 360.4894 361.1799 364.6682 364.7487 364.8827
   365.1558 365.5230 365.7140 366.1957 367.7284 368.0488 368.2707 369.2303
   369.3369 369.7908 370.0128 370.3002 370.5310 370.8586 370.9887 371.0661
   371.7419 372.6628 372.7695 373.3713 373.4497 374.0943 374.1341 374.2678
   374.3942 374.5361 374.6690 374.9967 376.2576 376.7045 376.9229 377.0568
   377.1293 377.2582 377.4018 377.4877 377.5894 378.6311 379.5826 380.1503
   380.2125 381.0230 381.2258 381.7222 382.2929 382.4361 382.4531 382.4653
   383.1786 384.1393 384.1529 384.4164 384.4413 384.4521 384.5040 384.5881
   384.6817 385.0165 385.0891 385.3623 385.6106 386.6065 386.7137 387.0823
   387.1426 388.0923 388.1356 388.4516 389.8402 390.1897 390.3873 390.4867
   391.1175 391.8422 391.8957 392.0103 392.4288 392.7082 392.8420 393.0327
   393.0556 393.3893 393.6920 393.9069 394.0422 394.0465 394.0978 394.2203
   394.8014 395.0162 395.1048 395.1539 395.2878 395.4481 395.4490 395.5668
   395.9121 396.0278 396.1472 396.2047 396.5993 396.7933 396.9499 397.1259
   397.1371 397.2050 397.2520 398.0259 398.2236 398.2839 398.3359 398.3393
   400.7233 401.5775 401.6102 401.6322 401.7995 401.8263 402.2720 402.4669
   402.9235 403.1281 403.1692 404.0562 404.2607 404.3765 404.4211 404.5696
   404.6674 404.7498 404.7785 404.9255 405.0022 405.0045 405.0111 405.0841
   405.0866 405.1409 405.1569 405.1696 409.4274 409.6423 410.4464 410.6870
   411.4364 412.7948 412.8655 413.1241 413.2216 413.2478 413.2516 413.3073
   413.7922 414.0504 414.2573 414.2824 414.5391 415.0257 415.1110 415.1418
   416.0042 416.1633 416.1990 417.0559 417.5312 417.8442 418.1286 418.2261
   418.3178 418.9809 419.1191 419.2581 419.4012 419.6016 419.8361 420.3970
   420.3990 420.4736 421.0550 421.3736 421.6782 421.6944 421.9323 422.1103
   422.2162 422.5714 423.0726 423.5100 423.6020 423.6495 423.6810 424.3018
   425.4578 425.5538 425.9861 426.1249 426.2029 426.5235 426.8667 427.0263
   427.1643 427.2955 427.5874 427.7624 427.8236 427.9892 428.0051 428.0493
   432.2193 432.2539 432.3586 432.4844 432.7549 432.9742 432.9918 433.0476
   434.2916 435.5727 436.2924 436.6628 436.9467 437.2349 437.5103 437.6312
   438.3098 439.0158 439.0415 439.2476 439.2841 439.2956 439.3820 439.5643
   439.6492 439.8018 439.8483 439.9898 440.0025 440.0256 440.0324 440.1802
   440.2526 440.5130 440.5641 440.5943 440.9417 441.1983 441.7511 442.1184
   443.0050 443.7846 443.9203 444.1458 444.7323 444.8233 445.0423 445.2410
   445.4991 445.5632 445.5805 445.7464 446.3767 446.7873 446.7913 446.7969
   447.1912 448.2223 448.6110 448.6774 448.7298 450.0870 450.1048 450.2067
   450.4091 450.6135 450.6610 450.7220 451.0264 451.2651 451.3032 451.4838
   451.5744 451.8498 451.8551 451.8937 451.9318 452.0415 452.1281 452.1755
   452.5295 452.5556 452.6382 452.7014 453.5999 453.6900 453.8468 454.0225
   454.3273 454.3278 454.4233 454.4617 458.1509 459.2940 459.6181 459.8653
   460.1364 460.5340 460.6808 460.7165 460.7959 461.0564 461.1422 461.1550
   461.4009 461.9186 462.2800 463.0706 463.2950 463.4202 463.6706 464.0280
   464.2839 464.7341 465.0231 465.1326 465.7173 466.0482 466.1817 466.2605
   466.2875 466.4251 466.4922 466.5597 466.9030 468.4145 468.5670 468.7941
   469.3881 469.4393 469.8706 469.9547 470.2553 470.6937 471.0210 471.3669
   471.6519 471.8278 472.5073 472.5982 473.9128 473.9933 474.9338 474.9994
   475.4190 475.6269 475.8384 476.0511 476.0523 476.6933 476.8353 476.8885
   476.9891 477.0155 477.1286 477.2561 477.9937 478.0049 478.0208 478.0997
   478.8883 478.9318 478.9331 478.9932 479.0598 479.1482 479.1511 479.2316
   479.6143 479.6516 479.6653 479.7298 479.9342 479.9418 479.9746 479.9855
   480.0667 480.5150 480.5514 480.5847 480.8763 481.0379 481.0685 481.0691
   485.2304 485.6604 486.4031 487.1397 488.1265 488.2163 488.2931 488.3710
   488.4769 488.5727 488.6562 489.3119 489.4045 489.4598 489.4784 489.4965
   490.7794 490.8439 490.8451 490.8457 493.9158 494.3113 494.7218 495.0501
   495.1289 495.4541 496.0567 496.1720 496.8489 496.8849 496.9347 497.0393
   497.1343 497.4620 497.6932 497.8630 498.0123 498.0287 498.1005 498.2007
   498.5784 498.6392 498.7105 498.7271 498.8517 498.9706 499.0081 499.0173
   499.9209 500.8496 501.0357 501.0820 501.2297 501.3448 501.3646 501.3904
   503.1258 503.2090 503.2508 503.2721 504.4967 504.7263 504.7509 504.8584
   506.4718 507.2277 507.4011 507.4048 507.4414 507.5596 507.5801 507.5932

     the Fermi energy is     7.2479 ev
     (compare with:     7.4077 eV, computed in scf)

     Writing all to output data dir out/mp-1190.save/
 
     init_run     :      0.05s CPU      0.08s WALL (       1 calls)
     electrons    :    508.52s CPU    545.13s WALL (       1 calls)

     Called by init_run:
     wfcinit      :      0.00s CPU      0.00s WALL (       1 calls)
     potinit      :      0.02s CPU      0.02s WALL (       1 calls)
     hinit0       :      0.02s CPU      0.04s WALL (       1 calls)

     Called by electrons:
     c_bands      :    508.52s CPU    545.12s WALL (       1 calls)
     v_of_rho     :      0.00s CPU      0.00s WALL (       1 calls)

     Called by c_bands:
     init_us_2    :      0.00s CPU      0.00s WALL (      29 calls)
     init_us_2:cp :      0.00s CPU      0.00s WALL (      29 calls)
     cegterg      :    493.53s CPU    529.12s WALL (      29 calls)

     Called by *egterg:
     cdiaghg      :    455.28s CPU    488.78s WALL (     244 calls)
     h_psi        :     16.41s CPU     17.04s WALL (     273 calls)
     g_psi        :      0.05s CPU      0.05s WALL (     215 calls)

     Called by h_psi:
     h_psi:calbec :      0.20s CPU      0.25s WALL (     273 calls)
     vloc_psi     :     15.96s CPU     16.54s WALL (     273 calls)
     add_vuspsi   :      0.17s CPU      0.17s WALL (     273 calls)

     General routines
     calbec       :      0.20s CPU      0.24s WALL (     273 calls)
     fft          :      0.00s CPU      0.02s WALL (      10 calls)
     fftw         :     14.99s CPU     15.52s WALL (  393468 calls)
 
     Parallel routines
 
     PWSCF        :   8m31.03s CPU   9m 8.75s WALL

 
   This run was terminated on:  13:54:16   5Apr2024            

=------------------------------------------------------------------------------=
   JOB DONE.
=------------------------------------------------------------------------------=
