
     Program PWSCF v.7.1 starts on  5Dec2023 at 10:57:46 

     This program is part of the open-source Quantum ESPRESSO suite
     for quantum simulation of materials; please cite
         "P. Giannozzi et al., J. Phys.:Condens. Matter 21 395502 (2009);
         "P. Giannozzi et al., J. Phys.:Condens. Matter 29 465901 (2017);
         "P. Giannozzi et al., J. Chem. Phys. 152 154105 (2020);
          URL http://www.quantum-espresso.org", 
     in publications or presentations arising from this work. More details at
     http://www.quantum-espresso.org/quote

     Parallel version (MPI), running on    24 processors

     MPI processes distributed on     1 nodes
     123851 MiB available memory on the printing compute node when the environment starts
 
     Reading input from aiida_scf.in

     Current dimensions of program PWSCF are:
     Max number of different atomic species (ntypx) = 10
     Max number of k-points (npk) =  40000
     Max angular momentum in pseudopotentials (lmaxx) =  4
     Message from routine setup:
     using ibrav=0 with symmetry is DISCOURAGED, use correct ibrav instead
 
     K-points division:     npool     =       2
     R & G space division:  proc/nbgrp/npool/nimage =      12
     Subspace diagonalization in iterative solution of the eigenvalue problem:
     a serial algorithm will be used

 
     Parallelization info
     --------------------
     sticks:   dense  smooth     PW     G-vecs:    dense   smooth      PW
     Min          86      86     26                 1839     1839     293
     Max          87      87     27                 1841     1841     295
     Sum        1039    1039    313                22075    22075    3527
 
     Using Slab Decomposition
 


     bravais-lattice index     =            0
     lattice parameter (alat)  =       7.2005  a.u.
     unit-cell volume          =     263.9777 (a.u.)^3
     number of atoms/cell      =            2
     number of atomic types    =            1
     number of electrons       =         8.00
     number of Kohn-Sham states=           40
     kinetic-energy cutoff     =      72.0000  Ry
     charge density cutoff     =     288.0000  Ry
     scf convergence threshold =      1.0E-08
     mixing beta               =       0.6000
     number of iterations used =            8  plain     mixing
     Exchange-correlation= PBE
                           (   1   4   3   4   0   0   0)

     celldm(1)=   7.200468  celldm(2)=   0.000000  celldm(3)=   0.000000
     celldm(4)=   0.000000  celldm(5)=   0.000000  celldm(6)=   0.000000

     crystal axes: (cart. coord. in units of alat)
               a(1) = (  -0.707107   0.000000   0.707107 )  
               a(2) = (   0.000000   0.707107   0.707107 )  
               a(3) = (  -0.707107   0.707107   0.000000 )  

     reciprocal axes: (cart. coord. in units 2 pi/alat)
               b(1) = ( -0.707107 -0.707107  0.707107 )  
               b(2) = (  0.707107  0.707107  0.707107 )  
               b(3) = ( -0.707107  0.707107 -0.707107 )  


     PseudoPot. # 1 for Si read from file:
     ./Si_ONCV_PBE-1.0.upf
     MD5 check sum: 89d4aa0247ed842b0114b5ec9b1e4a7e
     Pseudo is Norm-conserving, Zval =  4.0
     Generated using ONCVPSP code by D. R. Hamann
     Using radial grid of  602 points,  4 beta functions with: 
                l(1) =   0
                l(2) =   0
                l(3) =   1
                l(4) =   1

     atomic species   valence    mass     pseudopotential
        Si             4.00    28.08500     Si( 1.00)

     24 Sym. Ops. (no inversion) found


                                    s                        frac. trans.

      isym =  1     identity                                     

 cryst.   s( 1) = (     1          0          0      )
                  (     0          1          0      )
                  (     0          0          1      )

 cart.    s( 1) = (  1.0000000  0.0000000  0.0000000 )
                  (  0.0000000  1.0000000  0.0000000 )
                  (  0.0000000  0.0000000  1.0000000 )


      isym =  2     180 deg rotation - cart. axis [0,0,1]        

 cryst.   s( 2) = (     0          1         -1      )
                  (     1          0         -1      )
                  (     0          0         -1      )

 cart.    s( 2) = ( -1.0000000  0.0000000  0.0000000 )
                  (  0.0000000 -1.0000000  0.0000000 )
                  (  0.0000000  0.0000000  1.0000000 )


      isym =  3     180 deg rotation - cart. axis [0,1,0]        

 cryst.   s( 3) = (    -1          0          0      )
                  (    -1          0          1      )
                  (    -1          1          0      )

 cart.    s( 3) = ( -1.0000000  0.0000000  0.0000000 )
                  (  0.0000000  1.0000000  0.0000000 )
                  (  0.0000000  0.0000000 -1.0000000 )


      isym =  4     180 deg rotation - cart. axis [1,0,0]        

 cryst.   s( 4) = (     0         -1          1      )
                  (     0         -1          0      )
                  (     1         -1          0      )

 cart.    s( 4) = (  1.0000000  0.0000000  0.0000000 )
                  (  0.0000000 -1.0000000  0.0000000 )
                  (  0.0000000  0.0000000 -1.0000000 )


      isym =  5     120 deg rotation - cart. axis [-1,-1,-1]     

 cryst.   s( 5) = (    -1          0          1      )
                  (    -1          1          0      )
                  (    -1          0          0      )

 cart.    s( 5) = (  0.0000000  1.0000000  0.0000000 )
                  (  0.0000000  0.0000000  1.0000000 )
                  (  1.0000000  0.0000000  0.0000000 )


      isym =  6     120 deg rotation - cart. axis [-1,1,1]       

 cryst.   s( 6) = (     0          1          0      )
                  (     0          0          1      )
                  (     1          0          0      )

 cart.    s( 6) = (  0.0000000 -1.0000000  0.0000000 )
                  (  0.0000000  0.0000000  1.0000000 )
                  ( -1.0000000  0.0000000  0.0000000 )


      isym =  7     120 deg rotation - cart. axis [1,1,-1]       

 cryst.   s( 7) = (     1          0         -1      )
                  (     0          0         -1      )
                  (     0          1         -1      )

 cart.    s( 7) = (  0.0000000  1.0000000  0.0000000 )
                  (  0.0000000  0.0000000 -1.0000000 )
                  ( -1.0000000  0.0000000  0.0000000 )


      isym =  8     120 deg rotation - cart. axis [1,-1,1]       

 cryst.   s( 8) = (     0         -1          0      )
                  (     1         -1          0      )
                  (     0         -1          1      )

 cart.    s( 8) = (  0.0000000 -1.0000000  0.0000000 )
                  (  0.0000000  0.0000000 -1.0000000 )
                  (  1.0000000  0.0000000  0.0000000 )


      isym =  9     120 deg rotation - cart. axis [1,1,1]        

 cryst.   s( 9) = (     0          0         -1      )
                  (     0          1         -1      )
                  (     1          0         -1      )

 cart.    s( 9) = (  0.0000000  0.0000000  1.0000000 )
                  (  1.0000000  0.0000000  0.0000000 )
                  (  0.0000000  1.0000000  0.0000000 )


      isym = 10     120 deg rotation - cart. axis [-1,1,-1]      

 cryst.   s(10) = (    -1          1          0      )
                  (    -1          0          0      )
                  (    -1          0          1      )

 cart.    s(10) = (  0.0000000  0.0000000  1.0000000 )
                  ( -1.0000000  0.0000000  0.0000000 )
                  (  0.0000000 -1.0000000  0.0000000 )


      isym = 11     120 deg rotation - cart. axis [1,-1,-1]      

 cryst.   s(11) = (     0          0          1      )
                  (     1          0          0      )
                  (     0          1          0      )

 cart.    s(11) = (  0.0000000  0.0000000 -1.0000000 )
                  ( -1.0000000  0.0000000  0.0000000 )
                  (  0.0000000  1.0000000  0.0000000 )


      isym = 12     120 deg rotation - cart. axis [-1,-1,1]      

 cryst.   s(12) = (     1         -1          0      )
                  (     0         -1          1      )
                  (     0         -1          0      )

 cart.    s(12) = (  0.0000000  0.0000000 -1.0000000 )
                  (  1.0000000  0.0000000  0.0000000 )
                  (  0.0000000 -1.0000000  0.0000000 )


      isym = 13     inv. 180 deg rotation - cart. axis [1,1,0]   

 cryst.   s(13) = (     0          1          0      )
                  (     1          0          0      )
                  (     0          0          1      )

 cart.    s(13) = (  0.0000000 -1.0000000  0.0000000 )
                  ( -1.0000000  0.0000000  0.0000000 )
                  (  0.0000000  0.0000000  1.0000000 )


      isym = 14     inv. 180 deg rotation - cart. axis [1,-1,0]  

 cryst.   s(14) = (     1          0         -1      )
                  (     0          1         -1      )
                  (     0          0         -1      )

 cart.    s(14) = (  0.0000000  1.0000000  0.0000000 )
                  (  1.0000000  0.0000000  0.0000000 )
                  (  0.0000000  0.0000000  1.0000000 )


      isym = 15     inv.  90 deg rotation - cart. axis [0,0,-1]  

 cryst.   s(15) = (     0         -1          0      )
                  (     0         -1          1      )
                  (     1         -1          0      )

 cart.    s(15) = (  0.0000000 -1.0000000  0.0000000 )
                  (  1.0000000  0.0000000  0.0000000 )
                  (  0.0000000  0.0000000 -1.0000000 )


      isym = 16     inv.  90 deg rotation - cart. axis [0,0,1]   

 cryst.   s(16) = (    -1          0          1      )
                  (    -1          0          0      )
                  (    -1          1          0      )

 cart.    s(16) = (  0.0000000  1.0000000  0.0000000 )
                  ( -1.0000000  0.0000000  0.0000000 )
                  (  0.0000000  0.0000000 -1.0000000 )


      isym = 17     inv. 180 deg rotation - cart. axis [1,0,1]   

 cryst.   s(17) = (     1          0          0      )
                  (     0          0          1      )
                  (     0          1          0      )

 cart.    s(17) = (  0.0000000  0.0000000 -1.0000000 )
                  (  0.0000000  1.0000000  0.0000000 )
                  ( -1.0000000  0.0000000  0.0000000 )


      isym = 18     inv. 180 deg rotation - cart. axis [-1,0,1]  

 cryst.   s(18) = (    -1          0          0      )
                  (    -1          1          0      )
                  (    -1          0          1      )

 cart.    s(18) = (  0.0000000  0.0000000  1.0000000 )
                  (  0.0000000  1.0000000  0.0000000 )
                  (  1.0000000  0.0000000  0.0000000 )


      isym = 19     inv.  90 deg rotation - cart. axis [0,1,0]   

 cryst.   s(19) = (     0         -1          1      )
                  (     1         -1          0      )
                  (     0         -1          0      )

 cart.    s(19) = (  0.0000000  0.0000000 -1.0000000 )
                  (  0.0000000 -1.0000000  0.0000000 )
                  (  1.0000000  0.0000000  0.0000000 )


      isym = 20     inv.  90 deg rotation - cart. axis [0,-1,0]  

 cryst.   s(20) = (     0          1         -1      )
                  (     0          0         -1      )
                  (     1          0         -1      )

 cart.    s(20) = (  0.0000000  0.0000000  1.0000000 )
                  (  0.0000000 -1.0000000  0.0000000 )
                  ( -1.0000000  0.0000000  0.0000000 )


      isym = 21     inv. 180 deg rotation - cart. axis [0,1,1]   

 cryst.   s(21) = (     1         -1          0      )
                  (     0         -1          0      )
                  (     0         -1          1      )

 cart.    s(21) = (  1.0000000  0.0000000  0.0000000 )
                  (  0.0000000  0.0000000 -1.0000000 )
                  (  0.0000000 -1.0000000  0.0000000 )


      isym = 22     inv. 180 deg rotation - cart. axis [0,1,-1]  

 cryst.   s(22) = (     0          0          1      )
                  (     0          1          0      )
                  (     1          0          0      )

 cart.    s(22) = (  1.0000000  0.0000000  0.0000000 )
                  (  0.0000000  0.0000000  1.0000000 )
                  (  0.0000000  1.0000000  0.0000000 )


      isym = 23     inv.  90 deg rotation - cart. axis [-1,0,0]  

 cryst.   s(23) = (     0          0         -1      )
                  (     1          0         -1      )
                  (     0          1         -1      )

 cart.    s(23) = ( -1.0000000  0.0000000  0.0000000 )
                  (  0.0000000  0.0000000 -1.0000000 )
                  (  0.0000000  1.0000000  0.0000000 )


      isym = 24     inv.  90 deg rotation - cart. axis [1,0,0]   

 cryst.   s(24) = (    -1          1          0      )
                  (    -1          0          1      )
                  (    -1          0          0      )

 cart.    s(24) = ( -1.0000000  0.0000000  0.0000000 )
                  (  0.0000000  0.0000000  1.0000000 )
                  (  0.0000000 -1.0000000  0.0000000 )


   Cartesian axes

     site n.     atom                  positions (alat units)
         1           Si  tau(   1) = (   0.0000000   0.0000000   0.0000000  )
         2           Si  tau(   2) = (  -0.3535534   0.3535534   0.3535534  )

   Crystallographic axes

     site n.     atom                  positions (cryst. coord.)
         1           Si  tau(   1) = (  0.0000000  0.0000000  0.0000000  )
         2           Si  tau(   2) = (  0.2500000  0.2500000  0.2500000  )

     number of k points=    29
                       cart. coord. in units 2pi/alat
        k(    1) = (   0.0000000   0.0000000   0.0000000), wk =   0.0039062
        k(    2) = (  -0.0883883   0.0883883  -0.0883883), wk =   0.0312500
        k(    3) = (  -0.1767767   0.1767767  -0.1767767), wk =   0.0312500
        k(    4) = (  -0.2651650   0.2651650  -0.2651650), wk =   0.0312500
        k(    5) = (   0.3535534  -0.3535534   0.3535534), wk =   0.0156250
        k(    6) = (   0.0000000   0.1767767   0.0000000), wk =   0.0234375
        k(    7) = (  -0.0883883   0.2651650  -0.0883883), wk =   0.0937500
        k(    8) = (  -0.1767767   0.3535534  -0.1767767), wk =   0.0937500
        k(    9) = (   0.4419417  -0.2651650   0.4419417), wk =   0.0937500
        k(   10) = (   0.3535534  -0.1767767   0.3535534), wk =   0.0937500
        k(   11) = (   0.2651650  -0.0883883   0.2651650), wk =   0.0937500
        k(   12) = (   0.1767767   0.0000000   0.1767767), wk =   0.0468750
        k(   13) = (   0.0000000   0.3535534   0.0000000), wk =   0.0234375
        k(   14) = (  -0.0883883   0.4419417  -0.0883883), wk =   0.0937500
        k(   15) = (   0.5303301  -0.1767767   0.5303301), wk =   0.0937500
        k(   16) = (   0.4419417  -0.0883883   0.4419417), wk =   0.0937500
        k(   17) = (   0.3535534   0.0000000   0.3535534), wk =   0.0468750
        k(   18) = (   0.0000000   0.5303301   0.0000000), wk =   0.0234375
        k(   19) = (   0.6187184  -0.0883883   0.6187184), wk =   0.0937500
        k(   20) = (   0.5303301   0.0000000   0.5303301), wk =   0.0468750
        k(   21) = (   0.0000000  -0.7071068   0.0000000), wk =   0.0117188
        k(   22) = (  -0.1767767   0.3535534   0.0000000), wk =   0.0937500
        k(   23) = (   0.4419417  -0.2651650   0.6187184), wk =   0.1875000
        k(   24) = (   0.3535534  -0.1767767   0.5303301), wk =   0.0937500
        k(   25) = (   0.5303301  -0.1767767   0.7071068), wk =   0.0937500
        k(   26) = (   0.4419417  -0.0883883   0.6187184), wk =   0.1875000
        k(   27) = (   0.3535534   0.0000000   0.5303301), wk =   0.0937500
        k(   28) = (  -0.1767767  -0.7071068   0.0000000), wk =   0.0468750
        k(   29) = (  -0.3535534  -0.7071068   0.0000000), wk =   0.0234375

                       cryst. coord.
        k(    1) = (   0.0000000   0.0000000   0.0000000), wk =   0.0039062
        k(    2) = (   0.0000000   0.0000000   0.1250000), wk =   0.0312500
        k(    3) = (   0.0000000   0.0000000   0.2500000), wk =   0.0312500
        k(    4) = (   0.0000000   0.0000000   0.3750000), wk =   0.0312500
        k(    5) = (   0.0000000   0.0000000  -0.5000000), wk =   0.0156250
        k(    6) = (   0.0000000   0.1250000   0.1250000), wk =   0.0234375
        k(    7) = (   0.0000000   0.1250000   0.2500000), wk =   0.0937500
        k(    8) = (   0.0000000   0.1250000   0.3750000), wk =   0.0937500
        k(    9) = (   0.0000000   0.1250000  -0.5000000), wk =   0.0937500
        k(   10) = (   0.0000000   0.1250000  -0.3750000), wk =   0.0937500
        k(   11) = (   0.0000000   0.1250000  -0.2500000), wk =   0.0937500
        k(   12) = (   0.0000000   0.1250000  -0.1250000), wk =   0.0468750
        k(   13) = (   0.0000000   0.2500000   0.2500000), wk =   0.0234375
        k(   14) = (   0.0000000   0.2500000   0.3750000), wk =   0.0937500
        k(   15) = (   0.0000000   0.2500000  -0.5000000), wk =   0.0937500
        k(   16) = (   0.0000000   0.2500000  -0.3750000), wk =   0.0937500
        k(   17) = (   0.0000000   0.2500000  -0.2500000), wk =   0.0468750
        k(   18) = (   0.0000000   0.3750000   0.3750000), wk =   0.0234375
        k(   19) = (   0.0000000   0.3750000  -0.5000000), wk =   0.0937500
        k(   20) = (   0.0000000   0.3750000  -0.3750000), wk =   0.0468750
        k(   21) = (   0.0000000  -0.5000000  -0.5000000), wk =   0.0117188
        k(   22) = (   0.1250000   0.2500000   0.3750000), wk =   0.0937500
        k(   23) = (   0.1250000   0.2500000  -0.5000000), wk =   0.1875000
        k(   24) = (   0.1250000   0.2500000  -0.3750000), wk =   0.0937500
        k(   25) = (   0.1250000   0.3750000  -0.5000000), wk =   0.0937500
        k(   26) = (   0.1250000   0.3750000  -0.3750000), wk =   0.1875000
        k(   27) = (   0.1250000   0.3750000  -0.2500000), wk =   0.0937500
        k(   28) = (   0.1250000  -0.5000000  -0.3750000), wk =   0.0468750
        k(   29) = (   0.2500000  -0.5000000  -0.2500000), wk =   0.0234375

     Dense  grid:    22075 G-vectors     FFT dimensions: (  40,  40,  40)

     Dynamical RAM for                 wfc:       0.14 MB

     Dynamical RAM for     wfc (w. buffer):       2.21 MB

     Dynamical RAM for           str. fact:       0.03 MB

     Dynamical RAM for           local pot:       0.00 MB

     Dynamical RAM for          nlocal pot:       0.06 MB

     Dynamical RAM for                qrad:       0.39 MB

     Dynamical RAM for          rho,v,vnew:       0.23 MB

     Dynamical RAM for               rhoin:       0.08 MB

     Dynamical RAM for            rho*nmix:       0.45 MB

     Dynamical RAM for           G-vectors:       0.12 MB

     Dynamical RAM for          h,s,v(r/c):       0.29 MB

     Dynamical RAM for          <psi|beta>:       0.01 MB

     Dynamical RAM for                 psi:       0.28 MB

     Dynamical RAM for                hpsi:       0.28 MB

     Dynamical RAM for      wfcinit/wfcrot:       0.31 MB

     Estimated static dynamical RAM per process >       3.41 MB

     Estimated max dynamical RAM per process >       4.71 MB

     Estimated total dynamical RAM >     107.66 MB

     Initial potential from superposition of free atoms

     starting charge       7.9075, renormalised to       8.0000
     Starting wfcs are random

     total cpu time spent up to now is        0.4 secs

     Self-consistent Calculation

     iteration #  1     ecut=    72.00 Ry     beta= 0.60
     Davidson diagonalization with overlap

---- Real-time Memory Report at c_bands before calling an iterative solver
            39 MiB given to the printing process from OS
             0 MiB allocation reported by mallinfo(arena+hblkhd)
        123273 MiB available memory on the node where the printing process lives
------------------
     c_bands:  1 eigenvalues not converged
     c_bands:  1 eigenvalues not converged
     c_bands:  1 eigenvalues not converged
     ethr =  5.00E-06,  avg # of iterations = 17.4

     total cpu time spent up to now is        2.2 secs

     total energy              =     -15.76085420 Ry
     estimated scf accuracy    <       0.05579323 Ry

     iteration #  2     ecut=    72.00 Ry     beta= 0.60
     Davidson diagonalization with overlap

---- Real-time Memory Report at c_bands before calling an iterative solver
            44 MiB given to the printing process from OS
             0 MiB allocation reported by mallinfo(arena+hblkhd)
        123127 MiB available memory on the node where the printing process lives
------------------
     ethr =  6.97E-04,  avg # of iterations =  1.0

     total cpu time spent up to now is        2.4 secs

     total energy              =     -15.76237629 Ry
     estimated scf accuracy    <       0.00469799 Ry

     iteration #  3     ecut=    72.00 Ry     beta= 0.60
     Davidson diagonalization with overlap

---- Real-time Memory Report at c_bands before calling an iterative solver
            44 MiB given to the printing process from OS
             0 MiB allocation reported by mallinfo(arena+hblkhd)
        123127 MiB available memory on the node where the printing process lives
------------------
     ethr =  5.87E-05,  avg # of iterations =  1.9

     total cpu time spent up to now is        2.8 secs

     total energy              =     -15.76254416 Ry
     estimated scf accuracy    <       0.00009946 Ry

     iteration #  4     ecut=    72.00 Ry     beta= 0.60
     Davidson diagonalization with overlap

---- Real-time Memory Report at c_bands before calling an iterative solver
            44 MiB given to the printing process from OS
             0 MiB allocation reported by mallinfo(arena+hblkhd)
        123126 MiB available memory on the node where the printing process lives
------------------
     ethr =  1.24E-06,  avg # of iterations =  4.7

     total cpu time spent up to now is        3.3 secs

     total energy              =     -15.76254990 Ry
     estimated scf accuracy    <       0.00000015 Ry

     iteration #  5     ecut=    72.00 Ry     beta= 0.60
     Davidson diagonalization with overlap

---- Real-time Memory Report at c_bands before calling an iterative solver
            44 MiB given to the printing process from OS
             0 MiB allocation reported by mallinfo(arena+hblkhd)
        123128 MiB available memory on the node where the printing process lives
------------------
     ethr =  1.84E-09,  avg # of iterations =  7.6

     total cpu time spent up to now is        4.1 secs

     total energy              =     -15.76255012 Ry
     estimated scf accuracy    <       0.00000001 Ry

     iteration #  6     ecut=    72.00 Ry     beta= 0.60
     Davidson diagonalization with overlap

---- Real-time Memory Report at c_bands before calling an iterative solver
            44 MiB given to the printing process from OS
             0 MiB allocation reported by mallinfo(arena+hblkhd)
        123129 MiB available memory on the node where the printing process lives
------------------
     ethr =  1.29E-10,  avg # of iterations =  5.1

     total cpu time spent up to now is        4.6 secs

     End of self-consistent calculation

          k = 0.0000 0.0000 0.0000 (  2733 PWs)   bands (ev):

    -5.6475   6.4691   6.4691   6.4691   9.0412   9.0412   9.0412  10.0743
    14.1566  14.1566  14.5050  17.7803  17.7803  17.7803  22.0122  29.6452
    29.6452  29.6452  30.6885  30.6885  32.6336  32.6336  32.6336  36.0461
    36.0461  36.0461  41.3509  41.3509  41.3509  45.1620  45.1620  45.3987
    47.3406  47.3406  49.3683  49.3683  49.3683  51.0513  51.0513  51.0513

     occupation numbers 
     1.0000   1.0000   1.0000   1.0000   0.0000   0.0000   0.0000   0.0000
     0.0000   0.0000   0.0000   0.0000   0.0000   0.0000   0.0000   0.0000
     0.0000   0.0000   0.0000   0.0000   0.0000   0.0000   0.0000   0.0000
     0.0000   0.0000   0.0000   0.0000   0.0000   0.0000   0.0000   0.0000
     0.0000   0.0000   0.0000   0.0000   0.0000   0.0000   0.0000   0.0000

          k =-0.0884 0.0884-0.0884 (  2719 PWs)   bands (ev):

    -5.4394   4.8632   6.1756   6.1756   9.0242   9.4730   9.4730  11.3706
    13.6713  13.6713  15.3053  17.2155  18.9529  18.9529  23.2592  27.6748
    27.6748  28.0601  30.3707  30.3707  33.1011  33.1011  33.8936  36.2347
    38.1553  38.1553  39.1310  40.9065  40.9065  43.4302  43.4302  45.5081
    45.5081  45.9511  48.8945  48.8945  48.9714  49.2259  50.4092  50.8845

     occupation numbers 
     1.0000   1.0000   1.0000   1.0000   0.0000   0.0000   0.0000   0.0000
     0.0000   0.0000   0.0000   0.0000   0.0000   0.0000   0.0000   0.0000
     0.0000   0.0000   0.0000   0.0000   0.0000   0.0000   0.0000   0.0000
     0.0000   0.0000   0.0000   0.0000   0.0000   0.0000   0.0000   0.0000
     0.0000   0.0000   0.0000   0.0000   0.0000   0.0000   0.0000   0.0000

          k =-0.1768 0.1768-0.1768 (  2716 PWs)   bands (ev):

    -4.8318   2.5017   5.6999   5.6999   8.5608   9.9862   9.9862  13.5604
    13.6380  13.6380  15.5251  18.4404  21.1985  21.1985  24.4617  24.4617
    24.6650  26.7784  30.5452  30.5452  33.4177  33.4177  34.4192  36.2349
    36.7638  38.6236  38.6236  40.1350  40.1350  41.1286  41.1286  45.1054
    45.1054  45.3505  45.9241  46.3549  48.1959  48.1959  50.5422  50.8889

     occupation numbers 
     1.0000   1.0000   1.0000   1.0000   0.0000   0.0000   0.0000   0.0000
     0.0000   0.0000   0.0000   0.0000   0.0000   0.0000   0.0000   0.0000
     0.0000   0.0000   0.0000   0.0000   0.0000   0.0000   0.0000   0.0000
     0.0000   0.0000   0.0000   0.0000   0.0000   0.0000   0.0000   0.0000
     0.0000   0.0000   0.0000   0.0000   0.0000   0.0000   0.0000   0.0000

          k =-0.2652 0.2652-0.2652 (  2734 PWs)   bands (ev):

    -3.9172   0.4438   5.3708   5.3708   8.1969   9.9067   9.9067  14.3909
    15.0587  15.0587  16.3341  20.3157  20.3157  20.8207  23.2950  25.1488
    25.1488  29.7189  30.3930  30.3930  30.5101  33.5125  33.5125  35.1349
    35.1349  36.5577  37.4674  39.3290  39.3290  40.3186  40.3186  41.6425
    44.2329  44.5788  47.5931  47.5931  48.6367  48.6367  50.0143  50.8775

     occupation numbers 
     1.0000   1.0000   1.0000   1.0000   0.0000   0.0000   0.0000   0.0000
     0.0000   0.0000   0.0000   0.0000   0.0000   0.0000   0.0000   0.0000
     0.0000   0.0000   0.0000   0.0000   0.0000   0.0000   0.0000   0.0000
     0.0000   0.0000   0.0000   0.0000   0.0000   0.0000   0.0000   0.0000
     0.0000   0.0000   0.0000   0.0000   0.0000   0.0000   0.0000   0.0000

          k = 0.3536-0.3536 0.3536 (  2764 PWs)   bands (ev):

    -3.2589  -0.6051   5.2585   5.2585   8.0685   9.7861   9.7861  14.2165
    17.0126  17.0126  17.9223  17.9223  17.9847  19.7999  26.0077  26.6430
    28.2420  28.2420  28.4173  28.4173  32.3771  33.0657  33.0657  34.2004
    34.2004  35.1545  37.8577  39.1855  39.1855  39.6677  39.6677  40.6808
    43.3685  43.7534  47.6114  47.6114  49.6092  49.6092  49.9172  50.6817

     occupation numbers 
     1.0000   1.0000   1.0000   1.0000   0.0000   0.0000   0.0000   0.0000
     0.0000   0.0000   0.0000   0.0000   0.0000   0.0000   0.0000   0.0000
     0.0000   0.0000   0.0000   0.0000   0.0000   0.0000   0.0000   0.0000
     0.0000   0.0000   0.0000   0.0000   0.0000   0.0000   0.0000   0.0000
     0.0000   0.0000   0.0000   0.0000   0.0000   0.0000   0.0000   0.0000

          k = 0.0000 0.1768 0.0000 (  2722 PWs)   bands (ev):

    -5.3693   5.1543   5.6455   5.6455   8.4749  10.2028  10.2028  11.0423
    12.9760  14.4631  15.6130  18.2564  18.2564  18.7423  23.8491  27.2303
    27.2303  28.3684  29.3413  30.0135  33.1535  33.6551  33.6551  37.9803
    37.9803  38.4343  39.7703  39.7884  39.7884  42.1197  44.0571  44.6129
    46.8040  47.2067  47.4829  47.4829  48.8846  49.2191  49.2191  50.6313

     occupation numbers 
     1.0000   1.0000   1.0000   1.0000   0.0000   0.0000   0.0000   0.0000
     0.0000   0.0000   0.0000   0.0000   0.0000   0.0000   0.0000   0.0000
     0.0000   0.0000   0.0000   0.0000   0.0000   0.0000   0.0000   0.0000
     0.0000   0.0000   0.0000   0.0000   0.0000   0.0000   0.0000   0.0000
     0.0000   0.0000   0.0000   0.0000   0.0000   0.0000   0.0000   0.0000

          k =-0.0884 0.2652-0.0884 (  2725 PWs)   bands (ev):

    -4.8914   3.2276   5.1263   5.2138   8.6140  10.2594  10.9719  11.2065
    14.1154  14.6389  16.5893  18.1485  19.6833  20.9618  24.1997  24.7424
    25.9042  28.1355  28.2655  29.6735  32.8815  34.0009  34.8320  36.5948
    38.1646  38.5409  38.8441  39.6638  40.2134  40.8827  42.4935  42.7409
    45.2143  45.7579  47.0252  47.2933  47.5795  49.0553  50.3218  50.6055

     occupation numbers 
     1.0000   1.0000   1.0000   1.0000   0.0000   0.0000   0.0000   0.0000
     0.0000   0.0000   0.0000   0.0000   0.0000   0.0000   0.0000   0.0000
     0.0000   0.0000   0.0000   0.0000   0.0000   0.0000   0.0000   0.0000
     0.0000   0.0000   0.0000   0.0000   0.0000   0.0000   0.0000   0.0000
     0.0000   0.0000   0.0000   0.0000   0.0000   0.0000   0.0000   0.0000

          k =-0.1768 0.3536-0.1768 (  2718 PWs)   bands (ev):

    -4.0587   1.1267   4.6144   4.8566   8.7226  10.1548  10.9444  11.9461
    15.8009  15.8778  16.5886  19.9556  20.1245  21.7698  23.2747  24.2861
    25.2523  28.4549  29.2632  30.2608  31.4668  32.1610  34.1968  35.8212
    36.9577  37.0859  37.1611  38.4848  39.5082  39.9709  41.6137  43.2250
    44.5278  44.8137  45.8571  46.5061  49.1891  49.3532  49.6754  51.0193

     occupation numbers 
     1.0000   1.0000   1.0000   1.0000   0.0000   0.0000   0.0000   0.0000
     0.0000   0.0000   0.0000   0.0000   0.0000   0.0000   0.0000   0.0000
     0.0000   0.0000   0.0000   0.0000   0.0000   0.0000   0.0000   0.0000
     0.0000   0.0000   0.0000   0.0000   0.0000   0.0000   0.0000   0.0000
     0.0000   0.0000   0.0000   0.0000   0.0000   0.0000   0.0000   0.0000

          k = 0.4419-0.2652 0.4419 (  2725 PWs)   bands (ev):

    -3.1727  -0.3723   4.1602   4.8846   8.6796  10.0016  10.5629  13.8910
    15.5004  16.9653  18.1399  18.2132  19.2018  21.7233  24.9489  26.2598
    26.9601  27.6912  28.5176  28.9223  31.4249  32.7083  33.1186  34.2135
    34.7550  36.4498  36.8636  37.2178  39.4993  39.9331  40.6019  41.7494
    43.9916  44.5432  45.6957  47.4578  48.3163  50.6251  51.0155  52.5812

     occupation numbers 
     1.0000   1.0000   1.0000   1.0000   0.0000   0.0000   0.0000   0.0000
     0.0000   0.0000   0.0000   0.0000   0.0000   0.0000   0.0000   0.0000
     0.0000   0.0000   0.0000   0.0000   0.0000   0.0000   0.0000   0.0000
     0.0000   0.0000   0.0000   0.0000   0.0000   0.0000   0.0000   0.0000
     0.0000   0.0000   0.0000   0.0000   0.0000   0.0000   0.0000   0.0000

          k = 0.3536-0.1768 0.3536 (  2731 PWs)   bands (ev):

    -3.4252   0.0086   3.9716   5.1884   8.8659  10.0967  10.3303  14.4675
    14.5693  15.7380  17.7510  19.0548  20.8264  21.4417  23.4930  25.2540
    27.1234  28.8286  28.9772  29.1651  31.4316  31.8360  34.0607  34.2505
    34.5920  35.9946  37.1762  38.0502  40.0934  40.2927  40.3396  41.8313
    44.0579  44.8620  46.0230  47.3953  47.7994  48.9622  50.9450  52.3326

     occupation numbers 
     1.0000   1.0000   1.0000   1.0000   0.0000   0.0000   0.0000   0.0000
     0.0000   0.0000   0.0000   0.0000   0.0000   0.0000   0.0000   0.0000
     0.0000   0.0000   0.0000   0.0000   0.0000   0.0000   0.0000   0.0000
     0.0000   0.0000   0.0000   0.0000   0.0000   0.0000   0.0000   0.0000
     0.0000   0.0000   0.0000   0.0000   0.0000   0.0000   0.0000   0.0000

          k = 0.2652-0.0884 0.2652 (  2729 PWs)   bands (ev):

    -4.3718   1.7996   4.1185   5.6890   9.2448  10.1583  10.3337  12.8464
    12.9048  16.3981  16.6520  19.0276  20.5463  22.0464  22.9499  24.7235
    25.4622  28.4570  28.5846  29.5213  32.6617  33.1953  34.1119  36.3134
    36.3150  37.7403  37.8794  38.9376  40.0431  40.8484  41.2520  43.8783
    44.6442  45.4530  45.7133  46.8633  47.1904  48.4998  48.6322  51.0382

     occupation numbers 
     1.0000   1.0000   1.0000   1.0000   0.0000   0.0000   0.0000   0.0000
     0.0000   0.0000   0.0000   0.0000   0.0000   0.0000   0.0000   0.0000
     0.0000   0.0000   0.0000   0.0000   0.0000   0.0000   0.0000   0.0000
     0.0000   0.0000   0.0000   0.0000   0.0000   0.0000   0.0000   0.0000
     0.0000   0.0000   0.0000   0.0000   0.0000   0.0000   0.0000   0.0000

          k = 0.1768 0.0000 0.1768 (  2721 PWs)   bands (ev):

    -5.0966   3.7771   4.8046   6.1770   9.5834   9.6097   9.8480  12.1340
    12.7614  14.5450  16.3409  17.7008  18.9089  21.0363  24.3313  24.7847
    27.6615  27.7317  28.3541  29.6280  33.2285  33.4642  35.3909  37.1312
    37.4640  38.8310  39.0713  40.4387  40.5883  41.0374  42.5920  42.7917
    45.4162  46.3901  46.5943  47.9266  48.1511  49.0245  49.4959  50.7851

     occupation numbers 
     1.0000   1.0000   1.0000   1.0000   0.0000   0.0000   0.0000   0.0000
     0.0000   0.0000   0.0000   0.0000   0.0000   0.0000   0.0000   0.0000
     0.0000   0.0000   0.0000   0.0000   0.0000   0.0000   0.0000   0.0000
     0.0000   0.0000   0.0000   0.0000   0.0000   0.0000   0.0000   0.0000
     0.0000   0.0000   0.0000   0.0000   0.0000   0.0000   0.0000   0.0000

          k = 0.0000 0.3536 0.0000 (  2706 PWs)   bands (ev):

    -4.5445   2.9553   4.5446   4.5446   7.5691   9.5769  12.2855  12.2855
    14.7276  15.3809  18.0491  19.5516  19.5516  20.2637  24.0577  24.0577
    24.8860  27.1017  27.5816  31.5174  32.8450  33.9909  33.9909  36.2355
    36.3371  36.3371  37.1364  41.2719  42.0735  42.0735  42.0859  43.6195
    44.3122  44.3122  47.8067  47.8067  47.8321  48.3281  48.4669  50.9875

     occupation numbers 
     1.0000   1.0000   1.0000   1.0000   0.0000   0.0000   0.0000   0.0000
     0.0000   0.0000   0.0000   0.0000   0.0000   0.0000   0.0000   0.0000
     0.0000   0.0000   0.0000   0.0000   0.0000   0.0000   0.0000   0.0000
     0.0000   0.0000   0.0000   0.0000   0.0000   0.0000   0.0000   0.0000
     0.0000   0.0000   0.0000   0.0000   0.0000   0.0000   0.0000   0.0000

          k =-0.0884 0.4419-0.0884 (  2729 PWs)   bands (ev):

    -3.8198   1.5040   3.7473   4.2223   7.7877   9.3349  12.5480  12.7858
    16.4590  16.8616  18.2406  19.7532  20.3680  21.4129  22.4818  23.7346
    24.9942  26.6152  28.4866  30.8221  31.8459  32.9914  33.0729  34.1881
    35.7704  35.8415  37.2402  40.0391  40.1001  41.9363  43.2892  43.6531
    43.9741  44.2589  46.3678  46.9199  48.8441  48.8980  49.9579  51.1120

     occupation numbers 
     1.0000   1.0000   1.0000   1.0000   0.0000   0.0000   0.0000   0.0000
     0.0000   0.0000   0.0000   0.0000   0.0000   0.0000   0.0000   0.0000
     0.0000   0.0000   0.0000   0.0000   0.0000   0.0000   0.0000   0.0000
     0.0000   0.0000   0.0000   0.0000   0.0000   0.0000   0.0000   0.0000
     0.0000   0.0000   0.0000   0.0000   0.0000   0.0000   0.0000   0.0000

          k = 0.5303-0.1768 0.5303 (  2713 PWs)   bands (ev):

    -2.8708   0.0261   2.8665   4.2272   7.9511  10.9121  12.3105  12.4143
    16.7956  17.0389  18.6978  19.3222  19.6960  23.4611  24.3021  25.2996
    25.9890  26.2179  26.5711  29.6098  30.3439  31.8646  32.2890  34.5868
    35.8446  35.9592  36.1926  37.9853  38.8008  41.0813  42.3765  42.9300
    43.9061  44.0058  45.6332  47.6013  49.9482  51.0880  51.3358  52.0470

     occupation numbers 
     1.0000   1.0000   1.0000   1.0000   0.0000   0.0000   0.0000   0.0000
     0.0000   0.0000   0.0000   0.0000   0.0000   0.0000   0.0000   0.0000
     0.0000   0.0000   0.0000   0.0000   0.0000   0.0000   0.0000   0.0000
     0.0000   0.0000   0.0000   0.0000   0.0000   0.0000   0.0000   0.0000
     0.0000   0.0000   0.0000   0.0000   0.0000   0.0000   0.0000   0.0000

          k = 0.4419-0.0884 0.4419 (  2721 PWs)   bands (ev):

    -2.6587  -0.2416   2.3959   4.5530   8.2862  11.9738  11.9749  13.4977
    14.4499  14.6131  19.1285  21.3763  21.8592  22.6532  23.0637  24.9857
    26.0801  26.6215  28.4404  28.7312  31.3511  32.1148  32.5812  33.0455
    34.6258  35.3872  36.1619  36.8538  40.2240  40.8150  42.6831  42.7767
    43.8252  44.1430  45.0797  46.9444  48.9965  49.8482  51.4120  51.6168

     occupation numbers 
     1.0000   1.0000   1.0000   1.0000   0.0000   0.0000   0.0000   0.0000
     0.0000   0.0000   0.0000   0.0000   0.0000   0.0000   0.0000   0.0000
     0.0000   0.0000   0.0000   0.0000   0.0000   0.0000   0.0000   0.0000
     0.0000   0.0000   0.0000   0.0000   0.0000   0.0000   0.0000   0.0000
     0.0000   0.0000   0.0000   0.0000   0.0000   0.0000   0.0000   0.0000

          k = 0.3536 0.0000 0.3536 (  2720 PWs)   bands (ev):

    -3.5607   0.9483   2.6352   5.1233   8.9180  11.2990  11.6280  12.7251
    12.8680  16.2147  19.1807  19.8083  20.0359  23.2961  23.5820  24.1387
    25.3471  27.8811  28.3252  30.5409  31.5465  31.8876  33.5339  33.8598
    34.4962  36.2030  36.9544  38.0016  40.7134  40.8810  43.0202  43.6909
    44.4484  44.8668  45.3777  45.4598  45.6434  49.1350  50.8078  51.9044

     occupation numbers 
     1.0000   1.0000   1.0000   1.0000   0.0000   0.0000   0.0000   0.0000
     0.0000   0.0000   0.0000   0.0000   0.0000   0.0000   0.0000   0.0000
     0.0000   0.0000   0.0000   0.0000   0.0000   0.0000   0.0000   0.0000
     0.0000   0.0000   0.0000   0.0000   0.0000   0.0000   0.0000   0.0000
     0.0000   0.0000   0.0000   0.0000   0.0000   0.0000   0.0000   0.0000

          k = 0.0000 0.5303 0.0000 (  2730 PWs)   bands (ev):

    -3.2058   0.6915   3.8171   3.8171   7.0345   7.9513  14.5993  14.5993
    16.9038  17.4405  19.5607  19.5607  20.3397  21.7000  22.5149  23.4880
    23.4880  25.5427  30.0749  30.1741  30.7594  30.7594  32.1688  33.6702
    35.7725  35.8453  35.8453  41.9962  41.9962  42.0970  42.1482  42.8230
    46.1536  46.1536  46.4296  46.8981  46.8981  48.1765  49.2269  50.5488

     occupation numbers 
     1.0000   1.0000   1.0000   1.0000   0.0000   0.0000   0.0000   0.0000
     0.0000   0.0000   0.0000   0.0000   0.0000   0.0000   0.0000   0.0000
     0.0000   0.0000   0.0000   0.0000   0.0000   0.0000   0.0000   0.0000
     0.0000   0.0000   0.0000   0.0000   0.0000   0.0000   0.0000   0.0000
     0.0000   0.0000   0.0000   0.0000   0.0000   0.0000   0.0000   0.0000

          k = 0.6187-0.0884 0.6187 (  2724 PWs)   bands (ev):

    -2.2889  -0.4132   2.9603   3.7404   7.3097   8.4023  14.8087  14.9349
    17.3202  17.3581  18.8281  19.5921  21.4778  21.6239  22.5212  25.3510
    25.4318  26.0483  27.4850  28.9747  29.4662  30.1327  30.7514  32.4224
    36.1153  36.7870  38.6249  39.6564  39.7408  41.4739  42.1867  43.6556
    44.3980  45.7734  46.7233  46.8413  47.3942  49.0776  49.2818  50.1069

     occupation numbers 
     1.0000   1.0000   1.0000   1.0000   0.0000   0.0000   0.0000   0.0000
     0.0000   0.0000   0.0000   0.0000   0.0000   0.0000   0.0000   0.0000
     0.0000   0.0000   0.0000   0.0000   0.0000   0.0000   0.0000   0.0000
     0.0000   0.0000   0.0000   0.0000   0.0000   0.0000   0.0000   0.0000
     0.0000   0.0000   0.0000   0.0000   0.0000   0.0000   0.0000   0.0000

          k = 0.5303 0.0000 0.5303 (  2702 PWs)   bands (ev):

    -1.8331  -0.8221   2.0671   4.0033   7.6252  10.5959  14.0243  14.5522
    14.8692  14.9565  21.3943  21.4627  22.0776  22.2697  22.5317  23.7193
    26.2536  26.5776  28.1535  28.3173  29.6172  29.6644  31.8134  32.6423
    35.6993  36.2019  36.4081  37.7013  41.4516  41.7312  41.8632  42.1531
    43.4980  44.7626  45.7987  46.6568  49.7741  49.8429  50.5235  51.9404

     occupation numbers 
     1.0000   1.0000   1.0000   1.0000   0.0000   0.0000   0.0000   0.0000
     0.0000   0.0000   0.0000   0.0000   0.0000   0.0000   0.0000   0.0000
     0.0000   0.0000   0.0000   0.0000   0.0000   0.0000   0.0000   0.0000
     0.0000   0.0000   0.0000   0.0000   0.0000   0.0000   0.0000   0.0000
     0.0000   0.0000   0.0000   0.0000   0.0000   0.0000   0.0000   0.0000

          k = 0.0000-0.7071 0.0000 (  2762 PWs)   bands (ev):

    -1.4206  -1.4206   3.5679   3.5679   7.1184   7.1184  16.7702  16.7702
    17.4392  17.4392  19.0188  19.0188  19.7867  19.7867  25.4149  25.4149
    26.4191  26.4191  26.8588  26.8588  28.2877  28.2877  31.9768  31.9768
    36.2122  36.2122  41.0778  41.0778  41.1597  41.1597  42.3826  42.3826
    45.2640  45.2640  46.5832  46.5832  47.4242  47.4242  48.7817  48.7817

     occupation numbers 
     1.0000   1.0000   1.0000   1.0000   0.0000   0.0000   0.0000   0.0000
     0.0000   0.0000   0.0000   0.0000   0.0000   0.0000   0.0000   0.0000
     0.0000   0.0000   0.0000   0.0000   0.0000   0.0000   0.0000   0.0000
     0.0000   0.0000   0.0000   0.0000   0.0000   0.0000   0.0000   0.0000
     0.0000   0.0000   0.0000   0.0000   0.0000   0.0000   0.0000   0.0000

          k =-0.1768 0.3536 0.0000 (  2724 PWs)   bands (ev):

    -4.2916   2.1598   3.6991   5.0201   8.9138  10.4325  10.6393  12.0219
    14.3074  16.8512  17.6844  18.6333  20.4284  21.6989  22.4335  24.8688
    25.9501  27.1498  28.3700  30.1403  31.9341  32.6959  34.5591  35.5189
    36.2880  38.2900  38.4805  38.5962  40.6091  40.6617  42.3184  42.3656
    43.6106  46.0039  47.1422  47.1721  47.4755  48.6414  49.7051  50.4174

     occupation numbers 
     1.0000   1.0000   1.0000   1.0000   0.0000   0.0000   0.0000   0.0000
     0.0000   0.0000   0.0000   0.0000   0.0000   0.0000   0.0000   0.0000
     0.0000   0.0000   0.0000   0.0000   0.0000   0.0000   0.0000   0.0000
     0.0000   0.0000   0.0000   0.0000   0.0000   0.0000   0.0000   0.0000
     0.0000   0.0000   0.0000   0.0000   0.0000   0.0000   0.0000   0.0000

          k = 0.4419-0.2652 0.6187 (  2726 PWs)   bands (ev):

    -3.3828   0.5733   3.0870   4.5044   9.3456  10.0351  11.5154  12.4489
    15.5526  16.2962  18.5433  19.5661  20.8600  21.7186  23.8756  24.9044
    25.6011  27.6202  28.4575  29.4740  30.8964  32.4026  32.7949  33.9898
    35.4838  36.4010  37.8959  38.1331  39.1017  39.9395  41.8613  42.7616
    43.3238  45.7738  46.1214  47.6969  48.5899  49.2614  50.1266  51.8579

     occupation numbers 
     1.0000   1.0000   1.0000   1.0000   0.0000   0.0000   0.0000   0.0000
     0.0000   0.0000   0.0000   0.0000   0.0000   0.0000   0.0000   0.0000
     0.0000   0.0000   0.0000   0.0000   0.0000   0.0000   0.0000   0.0000
     0.0000   0.0000   0.0000   0.0000   0.0000   0.0000   0.0000   0.0000
     0.0000   0.0000   0.0000   0.0000   0.0000   0.0000   0.0000   0.0000

          k = 0.3536-0.1768 0.5303 (  2724 PWs)   bands (ev):

    -2.7105  -0.3993   2.9607   4.2680   9.5692   9.5703  12.4275  13.6161
    13.9482  17.0890  18.2982  18.9830  22.1456  22.2715  24.7441  25.0655
    26.0929  27.4671  27.5621  28.6312  31.6817  32.0921  32.2013  33.0222
    35.0303  36.4972  36.7114  37.9007  38.6670  39.1396  41.6272  42.1372
    43.2629  45.7032  46.6535  47.5127  49.6047  50.2750  50.9728  52.1827

     occupation numbers 
     1.0000   1.0000   1.0000   1.0000   0.0000   0.0000   0.0000   0.0000
     0.0000   0.0000   0.0000   0.0000   0.0000   0.0000   0.0000   0.0000
     0.0000   0.0000   0.0000   0.0000   0.0000   0.0000   0.0000   0.0000
     0.0000   0.0000   0.0000   0.0000   0.0000   0.0000   0.0000   0.0000
     0.0000   0.0000   0.0000   0.0000   0.0000   0.0000   0.0000   0.0000

          k = 0.5303-0.1768 0.7071 (  2719 PWs)   bands (ev):

    -3.0015   0.4689   3.0368   3.6521   8.3960   9.0832  12.2805  14.5438
    16.7339  16.7830  19.5359  19.8631  20.8369  21.2189  23.3226  23.6343
    26.1911  26.6630  28.4491  28.5546  30.1426  30.8476  33.0133  34.2253
    34.9733  35.9506  38.4734  39.3188  39.4657  39.9236  40.8288  44.3382
    45.2104  45.5508  47.1516  47.3020  48.4467  48.7723  49.6492  50.7279

     occupation numbers 
     1.0000   1.0000   1.0000   1.0000   0.0000   0.0000   0.0000   0.0000
     0.0000   0.0000   0.0000   0.0000   0.0000   0.0000   0.0000   0.0000
     0.0000   0.0000   0.0000   0.0000   0.0000   0.0000   0.0000   0.0000
     0.0000   0.0000   0.0000   0.0000   0.0000   0.0000   0.0000   0.0000
     0.0000   0.0000   0.0000   0.0000   0.0000   0.0000   0.0000   0.0000

          k = 0.4419-0.0884 0.6187 (  2720 PWs)   bands (ev):

    -2.1035  -0.5202   2.3183   3.4460   8.8355  10.7413  11.8019  13.9803
    14.9495  17.6415  18.8267  20.9271  21.9794  22.6296  24.1241  25.0002
    25.3688  26.0225  27.7376  28.4118  29.3962  30.8402  31.7591  34.2700
    34.9094  35.7873  37.3560  38.1203  38.7311  39.2480  41.3999  43.2777
    45.1323  46.0438  46.6238  47.5417  49.3015  49.7621  50.0039  51.7193

     occupation numbers 
     1.0000   1.0000   1.0000   1.0000   0.0000   0.0000   0.0000   0.0000
     0.0000   0.0000   0.0000   0.0000   0.0000   0.0000   0.0000   0.0000
     0.0000   0.0000   0.0000   0.0000   0.0000   0.0000   0.0000   0.0000
     0.0000   0.0000   0.0000   0.0000   0.0000   0.0000   0.0000   0.0000
     0.0000   0.0000   0.0000   0.0000   0.0000   0.0000   0.0000   0.0000

          k = 0.3536 0.0000 0.5303 (  2715 PWs)   bands (ev):

    -2.4618  -0.1510   2.1464   3.8318   9.3254  11.0282  11.7171  13.5431
    14.4392  15.7937  20.6321  20.9295  21.2295  22.9335  23.1655  24.9622
    25.7685  26.6658  27.7389  28.8052  29.9248  31.2152  32.6909  34.1793
    34.7412  35.9715  36.0317  37.8253  38.2810  39.7290  41.7116  44.3608
    44.5447  45.2335  46.1129  47.0154  49.3460  50.3891  50.5902  51.4759

     occupation numbers 
     1.0000   1.0000   1.0000   1.0000   0.0000   0.0000   0.0000   0.0000
     0.0000   0.0000   0.0000   0.0000   0.0000   0.0000   0.0000   0.0000
     0.0000   0.0000   0.0000   0.0000   0.0000   0.0000   0.0000   0.0000
     0.0000   0.0000   0.0000   0.0000   0.0000   0.0000   0.0000   0.0000
     0.0000   0.0000   0.0000   0.0000   0.0000   0.0000   0.0000   0.0000

          k =-0.1768-0.7071 0.0000 (  2722 PWs)   bands (ev):

    -1.3379  -1.3379   2.9795   2.9795   8.4086   8.4086  14.3943  14.3943
    17.1355  17.1355  19.4789  19.4789  22.2245  22.2245  23.9574  23.9574
    25.7503  25.7503  28.3216  28.3216  29.7980  29.7980  30.7048  30.7048
    37.0544  37.0544  38.8518  38.8518  39.2182  39.2182  43.1715  43.1715
    44.9733  44.9733  46.9618  46.9618  48.6636  48.6636  49.6065  49.6065

     occupation numbers 
     1.0000   1.0000   1.0000   1.0000   0.0000   0.0000   0.0000   0.0000
     0.0000   0.0000   0.0000   0.0000   0.0000   0.0000   0.0000   0.0000
     0.0000   0.0000   0.0000   0.0000   0.0000   0.0000   0.0000   0.0000
     0.0000   0.0000   0.0000   0.0000   0.0000   0.0000   0.0000   0.0000
     0.0000   0.0000   0.0000   0.0000   0.0000   0.0000   0.0000   0.0000

          k =-0.3536-0.7071 0.0000 (  2720 PWs)   bands (ev):

    -1.2464  -1.2464   2.5270   2.5270  10.7143  10.7143  11.5389  11.5389
    17.1469  17.1469  19.6535  19.6535  23.0196  23.0196  25.2558  25.2558
    25.5954  25.5954  26.3730  26.3730  30.3779  30.3779  34.1736  34.1736
    34.4218  34.4218  36.3546  36.3546  39.2047  39.2047  43.7222  43.7222
    44.7775  44.7775  46.9832  46.9832  50.0109  50.0109  51.1076  51.1076

     occupation numbers 
     1.0000   1.0000   1.0000   1.0000   0.0000   0.0000   0.0000   0.0000
     0.0000   0.0000   0.0000   0.0000   0.0000   0.0000   0.0000   0.0000
     0.0000   0.0000   0.0000   0.0000   0.0000   0.0000   0.0000   0.0000
     0.0000   0.0000   0.0000   0.0000   0.0000   0.0000   0.0000   0.0000
     0.0000   0.0000   0.0000   0.0000   0.0000   0.0000   0.0000   0.0000

     highest occupied, lowest unoccupied level (ev):     6.4691    7.0345

!    total energy              =     -15.76255013 Ry
     estimated scf accuracy    <          9.6E-11 Ry

     The total energy is the sum of the following terms:
     one-electron contribution =       4.92527360 Ry
     hartree contribution      =       1.08122223 Ry
     xc contribution           =      -4.84107402 Ry
     ewald contribution        =     -16.92797194 Ry

     convergence has been achieved in   6 iterations

     Writing all to output data dir ./out/aiida.save/
 
     init_run     :      0.13s CPU      0.17s WALL (       1 calls)
     electrons    :      4.01s CPU      4.28s WALL (       1 calls)

     Called by init_run:
     wfcinit      :      0.11s CPU      0.12s WALL (       1 calls)
     wfcinit:wfcr :      0.10s CPU      0.11s WALL (      15 calls)
     potinit      :      0.01s CPU      0.01s WALL (       1 calls)
     hinit0       :      0.01s CPU      0.02s WALL (       1 calls)

     Called by electrons:
     c_bands      :      3.74s CPU      3.97s WALL (       6 calls)
     sum_band     :      0.25s CPU      0.27s WALL (       6 calls)
     v_of_rho     :      0.02s CPU      0.02s WALL (       7 calls)
     v_h          :      0.00s CPU      0.00s WALL (       7 calls)
     v_xc         :      0.02s CPU      0.02s WALL (       7 calls)
     mix_rho      :      0.00s CPU      0.00s WALL (       6 calls)

     Called by c_bands:
     init_us_2    :      0.01s CPU      0.01s WALL (     195 calls)
     init_us_2:cp :      0.01s CPU      0.01s WALL (     195 calls)
     cegterg      :      3.63s CPU      3.84s WALL (      90 calls)

     Called by sum_band:
     sum_band:wei :      0.00s CPU      0.00s WALL (       6 calls)
     sum_band:loo :      0.25s CPU      0.27s WALL (       6 calls)
     sum_band:buf :      0.00s CPU      0.00s WALL (      90 calls)
     sum_band:ini :      0.00s CPU      0.00s WALL (      90 calls)

     Called by *egterg:
     cdiaghg      :      1.30s CPU      1.37s WALL (     704 calls)
     cegterg:over :      0.17s CPU      0.17s WALL (     614 calls)
     cegterg:upda :      0.07s CPU      0.07s WALL (     614 calls)
     cegterg:last :      0.10s CPU      0.11s WALL (     326 calls)
     h_psi        :      1.99s CPU      2.13s WALL (     719 calls)
     g_psi        :      0.02s CPU      0.02s WALL (     614 calls)

     Called by h_psi:
     h_psi:calbec :      0.04s CPU      0.04s WALL (     719 calls)
     vloc_psi     :      1.91s CPU      2.05s WALL (     719 calls)
     add_vuspsi   :      0.02s CPU      0.02s WALL (     719 calls)

     General routines
     calbec       :      0.04s CPU      0.04s WALL (     719 calls)
     fft          :      0.01s CPU      0.02s WALL (      69 calls)
     ffts         :      0.00s CPU      0.00s WALL (       6 calls)
     fftw         :      1.92s CPU      2.05s WALL (   34150 calls)
 
     Parallel routines
 
     PWSCF        :      4.21s CPU      5.03s WALL

 
   This run was terminated on:  10:57:51   5Dec2023            

=------------------------------------------------------------------------------=
   JOB DONE.
=------------------------------------------------------------------------------=
