
     Program PWSCF v.7.1 starts on  5Dec2023 at 10:57:52 

     This program is part of the open-source Quantum ESPRESSO suite
     for quantum simulation of materials; please cite
         "P. Giannozzi et al., J. Phys.:Condens. Matter 21 395502 (2009);
         "P. Giannozzi et al., J. Phys.:Condens. Matter 29 465901 (2017);
         "P. Giannozzi et al., J. Chem. Phys. 152 154105 (2020);
          URL http://www.quantum-espresso.org", 
     in publications or presentations arising from this work. More details at
     http://www.quantum-espresso.org/quote

     Parallel version (MPI), running on    24 processors

     MPI processes distributed on     1 nodes
     123855 MiB available memory on the printing compute node when the environment starts
 
     Reading input from aiida_nscf.in

     Current dimensions of program PWSCF are:
     Max number of different atomic species (ntypx) = 10
     Max number of k-points (npk) =  40000
     Max angular momentum in pseudopotentials (lmaxx) =  4

     Atomic positions and unit cell read from directory:
     ./out/aiida.save/
     Atomic positions from file used, from input discarded
 
     Message from routine setup:
     using ibrav=0 with symmetry is DISCOURAGED, use correct ibrav instead
 
     K-points division:     npool     =       2
     R & G space division:  proc/nbgrp/npool/nimage =      12
     Subspace diagonalization in iterative solution of the eigenvalue problem:
     one sub-group per band group will be used
     scalapack distributed-memory algorithm (size of sub-group:  3*  3 procs)

 
     Parallelization info
     --------------------
     sticks:   dense  smooth     PW     G-vecs:    dense   smooth      PW
     Min          86      86     26                 1839     1839     293
     Max          87      87     27                 1841     1841     295
     Sum        1039    1039    313                22075    22075    3527
 
     Using Slab Decomposition
 


     bravais-lattice index     =            0
     lattice parameter (alat)  =       7.2005  a.u.
     unit-cell volume          =     263.9777 (a.u.)^3
     number of atoms/cell      =            2
     number of atomic types    =            1
     number of electrons       =         8.00
     number of Kohn-Sham states=         1000
     kinetic-energy cutoff     =      72.0000  Ry
     charge density cutoff     =     288.0000  Ry
     Exchange-correlation= PBE
                           (   1   4   3   4   0   0   0)

     celldm(1)=   7.200468  celldm(2)=   0.000000  celldm(3)=   0.000000
     celldm(4)=   0.000000  celldm(5)=   0.000000  celldm(6)=   0.000000

     crystal axes: (cart. coord. in units of alat)
               a(1) = (  -0.707107   0.000000   0.707107 )  
               a(2) = (   0.000000   0.707107   0.707107 )  
               a(3) = (  -0.707107   0.707107   0.000000 )  

     reciprocal axes: (cart. coord. in units 2 pi/alat)
               b(1) = ( -0.707107 -0.707107  0.707107 )  
               b(2) = (  0.707107  0.707107  0.707107 )  
               b(3) = ( -0.707107  0.707107 -0.707107 )  


     PseudoPot. # 1 for Si read from file:
     ./Si_ONCV_PBE-1.0.upf
     MD5 check sum: 89d4aa0247ed842b0114b5ec9b1e4a7e
     Pseudo is Norm-conserving, Zval =  4.0
     Generated using ONCVPSP code by D. R. Hamann
     Using radial grid of  602 points,  4 beta functions with: 
                l(1) =   0
                l(2) =   0
                l(3) =   1
                l(4) =   1

     atomic species   valence    mass     pseudopotential
        Si             4.00    28.08500     Si( 1.00)

     24 Sym. Ops. (no inversion) found


                                    s                        frac. trans.

      isym =  1     identity                                     

 cryst.   s( 1) = (     1          0          0      )
                  (     0          1          0      )
                  (     0          0          1      )

 cart.    s( 1) = (  1.0000000  0.0000000  0.0000000 )
                  (  0.0000000  1.0000000  0.0000000 )
                  (  0.0000000  0.0000000  1.0000000 )


      isym =  2     180 deg rotation - cart. axis [0,0,1]        

 cryst.   s( 2) = (     0          1         -1      )
                  (     1          0         -1      )
                  (     0          0         -1      )

 cart.    s( 2) = ( -1.0000000  0.0000000  0.0000000 )
                  (  0.0000000 -1.0000000  0.0000000 )
                  (  0.0000000  0.0000000  1.0000000 )


      isym =  3     180 deg rotation - cart. axis [0,1,0]        

 cryst.   s( 3) = (    -1          0          0      )
                  (    -1          0          1      )
                  (    -1          1          0      )

 cart.    s( 3) = ( -1.0000000  0.0000000  0.0000000 )
                  (  0.0000000  1.0000000  0.0000000 )
                  (  0.0000000  0.0000000 -1.0000000 )


      isym =  4     180 deg rotation - cart. axis [1,0,0]        

 cryst.   s( 4) = (     0         -1          1      )
                  (     0         -1          0      )
                  (     1         -1          0      )

 cart.    s( 4) = (  1.0000000  0.0000000  0.0000000 )
                  (  0.0000000 -1.0000000  0.0000000 )
                  (  0.0000000  0.0000000 -1.0000000 )


      isym =  5     120 deg rotation - cart. axis [-1,-1,-1]     

 cryst.   s( 5) = (    -1          0          1      )
                  (    -1          1          0      )
                  (    -1          0          0      )

 cart.    s( 5) = (  0.0000000  1.0000000  0.0000000 )
                  (  0.0000000  0.0000000  1.0000000 )
                  (  1.0000000  0.0000000  0.0000000 )


      isym =  6     120 deg rotation - cart. axis [-1,1,1]       

 cryst.   s( 6) = (     0          1          0      )
                  (     0          0          1      )
                  (     1          0          0      )

 cart.    s( 6) = (  0.0000000 -1.0000000  0.0000000 )
                  (  0.0000000  0.0000000  1.0000000 )
                  ( -1.0000000  0.0000000  0.0000000 )


      isym =  7     120 deg rotation - cart. axis [1,1,-1]       

 cryst.   s( 7) = (     1          0         -1      )
                  (     0          0         -1      )
                  (     0          1         -1      )

 cart.    s( 7) = (  0.0000000  1.0000000  0.0000000 )
                  (  0.0000000  0.0000000 -1.0000000 )
                  ( -1.0000000  0.0000000  0.0000000 )


      isym =  8     120 deg rotation - cart. axis [1,-1,1]       

 cryst.   s( 8) = (     0         -1          0      )
                  (     1         -1          0      )
                  (     0         -1          1      )

 cart.    s( 8) = (  0.0000000 -1.0000000  0.0000000 )
                  (  0.0000000  0.0000000 -1.0000000 )
                  (  1.0000000  0.0000000  0.0000000 )


      isym =  9     120 deg rotation - cart. axis [1,1,1]        

 cryst.   s( 9) = (     0          0         -1      )
                  (     0          1         -1      )
                  (     1          0         -1      )

 cart.    s( 9) = (  0.0000000  0.0000000  1.0000000 )
                  (  1.0000000  0.0000000  0.0000000 )
                  (  0.0000000  1.0000000  0.0000000 )


      isym = 10     120 deg rotation - cart. axis [-1,1,-1]      

 cryst.   s(10) = (    -1          1          0      )
                  (    -1          0          0      )
                  (    -1          0          1      )

 cart.    s(10) = (  0.0000000  0.0000000  1.0000000 )
                  ( -1.0000000  0.0000000  0.0000000 )
                  (  0.0000000 -1.0000000  0.0000000 )


      isym = 11     120 deg rotation - cart. axis [1,-1,-1]      

 cryst.   s(11) = (     0          0          1      )
                  (     1          0          0      )
                  (     0          1          0      )

 cart.    s(11) = (  0.0000000  0.0000000 -1.0000000 )
                  ( -1.0000000  0.0000000  0.0000000 )
                  (  0.0000000  1.0000000  0.0000000 )


      isym = 12     120 deg rotation - cart. axis [-1,-1,1]      

 cryst.   s(12) = (     1         -1          0      )
                  (     0         -1          1      )
                  (     0         -1          0      )

 cart.    s(12) = (  0.0000000  0.0000000 -1.0000000 )
                  (  1.0000000  0.0000000  0.0000000 )
                  (  0.0000000 -1.0000000  0.0000000 )


      isym = 13     inv. 180 deg rotation - cart. axis [1,1,0]   

 cryst.   s(13) = (     0          1          0      )
                  (     1          0          0      )
                  (     0          0          1      )

 cart.    s(13) = (  0.0000000 -1.0000000  0.0000000 )
                  ( -1.0000000  0.0000000  0.0000000 )
                  (  0.0000000  0.0000000  1.0000000 )


      isym = 14     inv. 180 deg rotation - cart. axis [1,-1,0]  

 cryst.   s(14) = (     1          0         -1      )
                  (     0          1         -1      )
                  (     0          0         -1      )

 cart.    s(14) = (  0.0000000  1.0000000  0.0000000 )
                  (  1.0000000  0.0000000  0.0000000 )
                  (  0.0000000  0.0000000  1.0000000 )


      isym = 15     inv.  90 deg rotation - cart. axis [0,0,-1]  

 cryst.   s(15) = (     0         -1          0      )
                  (     0         -1          1      )
                  (     1         -1          0      )

 cart.    s(15) = (  0.0000000 -1.0000000  0.0000000 )
                  (  1.0000000  0.0000000  0.0000000 )
                  (  0.0000000  0.0000000 -1.0000000 )


      isym = 16     inv.  90 deg rotation - cart. axis [0,0,1]   

 cryst.   s(16) = (    -1          0          1      )
                  (    -1          0          0      )
                  (    -1          1          0      )

 cart.    s(16) = (  0.0000000  1.0000000  0.0000000 )
                  ( -1.0000000  0.0000000  0.0000000 )
                  (  0.0000000  0.0000000 -1.0000000 )


      isym = 17     inv. 180 deg rotation - cart. axis [1,0,1]   

 cryst.   s(17) = (     1          0          0      )
                  (     0          0          1      )
                  (     0          1          0      )

 cart.    s(17) = (  0.0000000  0.0000000 -1.0000000 )
                  (  0.0000000  1.0000000  0.0000000 )
                  ( -1.0000000  0.0000000  0.0000000 )


      isym = 18     inv. 180 deg rotation - cart. axis [-1,0,1]  

 cryst.   s(18) = (    -1          0          0      )
                  (    -1          1          0      )
                  (    -1          0          1      )

 cart.    s(18) = (  0.0000000  0.0000000  1.0000000 )
                  (  0.0000000  1.0000000  0.0000000 )
                  (  1.0000000  0.0000000  0.0000000 )


      isym = 19     inv.  90 deg rotation - cart. axis [0,1,0]   

 cryst.   s(19) = (     0         -1          1      )
                  (     1         -1          0      )
                  (     0         -1          0      )

 cart.    s(19) = (  0.0000000  0.0000000 -1.0000000 )
                  (  0.0000000 -1.0000000  0.0000000 )
                  (  1.0000000  0.0000000  0.0000000 )


      isym = 20     inv.  90 deg rotation - cart. axis [0,-1,0]  

 cryst.   s(20) = (     0          1         -1      )
                  (     0          0         -1      )
                  (     1          0         -1      )

 cart.    s(20) = (  0.0000000  0.0000000  1.0000000 )
                  (  0.0000000 -1.0000000  0.0000000 )
                  ( -1.0000000  0.0000000  0.0000000 )


      isym = 21     inv. 180 deg rotation - cart. axis [0,1,1]   

 cryst.   s(21) = (     1         -1          0      )
                  (     0         -1          0      )
                  (     0         -1          1      )

 cart.    s(21) = (  1.0000000  0.0000000  0.0000000 )
                  (  0.0000000  0.0000000 -1.0000000 )
                  (  0.0000000 -1.0000000  0.0000000 )


      isym = 22     inv. 180 deg rotation - cart. axis [0,1,-1]  

 cryst.   s(22) = (     0          0          1      )
                  (     0          1          0      )
                  (     1          0          0      )

 cart.    s(22) = (  1.0000000  0.0000000  0.0000000 )
                  (  0.0000000  0.0000000  1.0000000 )
                  (  0.0000000  1.0000000  0.0000000 )


      isym = 23     inv.  90 deg rotation - cart. axis [-1,0,0]  

 cryst.   s(23) = (     0          0         -1      )
                  (     1          0         -1      )
                  (     0          1         -1      )

 cart.    s(23) = ( -1.0000000  0.0000000  0.0000000 )
                  (  0.0000000  0.0000000 -1.0000000 )
                  (  0.0000000  1.0000000  0.0000000 )


      isym = 24     inv.  90 deg rotation - cart. axis [1,0,0]   

 cryst.   s(24) = (    -1          1          0      )
                  (    -1          0          1      )
                  (    -1          0          0      )

 cart.    s(24) = ( -1.0000000  0.0000000  0.0000000 )
                  (  0.0000000  0.0000000  1.0000000 )
                  (  0.0000000 -1.0000000  0.0000000 )


   Cartesian axes

     site n.     atom                  positions (alat units)
         1           Si  tau(   1) = (   0.0000000   0.0000000   0.0000000  )
         2           Si  tau(   2) = (  -0.3535534   0.3535534   0.3535534  )

   Crystallographic axes

     site n.     atom                  positions (cryst. coord.)
         1           Si  tau(   1) = (  0.0000000  0.0000000  0.0000000  )
         2           Si  tau(   2) = (  0.2500000  0.2500000  0.2500000  )

     number of k points=    29
                       cart. coord. in units 2pi/alat
        k(    1) = (   0.0000000   0.0000000   0.0000000), wk =   0.0039062
        k(    2) = (  -0.0883883   0.0883883  -0.0883883), wk =   0.0312500
        k(    3) = (  -0.1767767   0.1767767  -0.1767767), wk =   0.0312500
        k(    4) = (  -0.2651650   0.2651650  -0.2651650), wk =   0.0312500
        k(    5) = (   0.3535534  -0.3535534   0.3535534), wk =   0.0156250
        k(    6) = (   0.0000000   0.1767767   0.0000000), wk =   0.0234375
        k(    7) = (  -0.0883883   0.2651650  -0.0883883), wk =   0.0937500
        k(    8) = (  -0.1767767   0.3535534  -0.1767767), wk =   0.0937500
        k(    9) = (   0.4419417  -0.2651650   0.4419417), wk =   0.0937500
        k(   10) = (   0.3535534  -0.1767767   0.3535534), wk =   0.0937500
        k(   11) = (   0.2651650  -0.0883883   0.2651650), wk =   0.0937500
        k(   12) = (   0.1767767   0.0000000   0.1767767), wk =   0.0468750
        k(   13) = (   0.0000000   0.3535534   0.0000000), wk =   0.0234375
        k(   14) = (  -0.0883883   0.4419417  -0.0883883), wk =   0.0937500
        k(   15) = (   0.5303301  -0.1767767   0.5303301), wk =   0.0937500
        k(   16) = (   0.4419417  -0.0883883   0.4419417), wk =   0.0937500
        k(   17) = (   0.3535534   0.0000000   0.3535534), wk =   0.0468750
        k(   18) = (   0.0000000   0.5303301   0.0000000), wk =   0.0234375
        k(   19) = (   0.6187184  -0.0883883   0.6187184), wk =   0.0937500
        k(   20) = (   0.5303301   0.0000000   0.5303301), wk =   0.0468750
        k(   21) = (   0.0000000  -0.7071068   0.0000000), wk =   0.0117188
        k(   22) = (  -0.1767767   0.3535534   0.0000000), wk =   0.0937500
        k(   23) = (   0.4419417  -0.2651650   0.6187184), wk =   0.1875000
        k(   24) = (   0.3535534  -0.1767767   0.5303301), wk =   0.0937500
        k(   25) = (   0.5303301  -0.1767767   0.7071068), wk =   0.0937500
        k(   26) = (   0.4419417  -0.0883883   0.6187184), wk =   0.1875000
        k(   27) = (   0.3535534   0.0000000   0.5303301), wk =   0.0937500
        k(   28) = (  -0.1767767  -0.7071068   0.0000000), wk =   0.0468750
        k(   29) = (  -0.3535534  -0.7071068   0.0000000), wk =   0.0234375

                       cryst. coord.
        k(    1) = (   0.0000000   0.0000000   0.0000000), wk =   0.0039062
        k(    2) = (   0.0000000   0.0000000   0.1250000), wk =   0.0312500
        k(    3) = (   0.0000000   0.0000000   0.2500000), wk =   0.0312500
        k(    4) = (   0.0000000   0.0000000   0.3750000), wk =   0.0312500
        k(    5) = (   0.0000000   0.0000000  -0.5000000), wk =   0.0156250
        k(    6) = (   0.0000000   0.1250000   0.1250000), wk =   0.0234375
        k(    7) = (   0.0000000   0.1250000   0.2500000), wk =   0.0937500
        k(    8) = (   0.0000000   0.1250000   0.3750000), wk =   0.0937500
        k(    9) = (   0.0000000   0.1250000  -0.5000000), wk =   0.0937500
        k(   10) = (   0.0000000   0.1250000  -0.3750000), wk =   0.0937500
        k(   11) = (   0.0000000   0.1250000  -0.2500000), wk =   0.0937500
        k(   12) = (   0.0000000   0.1250000  -0.1250000), wk =   0.0468750
        k(   13) = (   0.0000000   0.2500000   0.2500000), wk =   0.0234375
        k(   14) = (   0.0000000   0.2500000   0.3750000), wk =   0.0937500
        k(   15) = (   0.0000000   0.2500000  -0.5000000), wk =   0.0937500
        k(   16) = (   0.0000000   0.2500000  -0.3750000), wk =   0.0937500
        k(   17) = (   0.0000000   0.2500000  -0.2500000), wk =   0.0468750
        k(   18) = (   0.0000000   0.3750000   0.3750000), wk =   0.0234375
        k(   19) = (   0.0000000   0.3750000  -0.5000000), wk =   0.0937500
        k(   20) = (   0.0000000   0.3750000  -0.3750000), wk =   0.0468750
        k(   21) = (   0.0000000  -0.5000000  -0.5000000), wk =   0.0117188
        k(   22) = (   0.1250000   0.2500000   0.3750000), wk =   0.0937500
        k(   23) = (   0.1250000   0.2500000  -0.5000000), wk =   0.1875000
        k(   24) = (   0.1250000   0.2500000  -0.3750000), wk =   0.0937500
        k(   25) = (   0.1250000   0.3750000  -0.5000000), wk =   0.0937500
        k(   26) = (   0.1250000   0.3750000  -0.3750000), wk =   0.1875000
        k(   27) = (   0.1250000   0.3750000  -0.2500000), wk =   0.0937500
        k(   28) = (   0.1250000  -0.5000000  -0.3750000), wk =   0.0468750
        k(   29) = (   0.2500000  -0.5000000  -0.2500000), wk =   0.0234375

     Dense  grid:    22075 G-vectors     FFT dimensions: (  40,  40,  40)

     Dynamical RAM for                 wfc:       3.45 MB

     Dynamical RAM for     wfc (w. buffer):       3.45 MB

     Dynamical RAM for           str. fact:       0.03 MB

     Dynamical RAM for           local pot:       0.00 MB

     Dynamical RAM for          nlocal pot:       0.06 MB

     Dynamical RAM for                qrad:       0.39 MB

     Dynamical RAM for          rho,v,vnew:       0.23 MB

     Dynamical RAM for           G-vectors:       0.12 MB

     Dynamical RAM for          h,s,v(r/c):      20.30 MB

     Dynamical RAM for          <psi|beta>:       0.24 MB

     Dynamical RAM for                 psi:       6.90 MB

     Dynamical RAM for                hpsi:       6.90 MB

     Dynamical RAM for      wfcinit/wfcrot:      29.79 MB

     Estimated static dynamical RAM per process >       4.57 MB

     Estimated max dynamical RAM per process >      38.91 MB

     Estimated total dynamical RAM >     933.93 MB

     The potential is recalculated from file :
     ./out/aiida.save/charge-density

     Starting wfcs are random

     Band Structure Calculation
     Davidson diagonalization with overlap

     Computing kpt #:     1  of    15 on this pool
     total cpu time spent up to now is       53.3 secs

     Computing kpt #:     2  of    15 on this pool
     total cpu time spent up to now is       96.6 secs

     Computing kpt #:     3  of    15 on this pool
     total cpu time spent up to now is      138.4 secs

     Computing kpt #:     4  of    15 on this pool
     total cpu time spent up to now is      183.2 secs

     Computing kpt #:     5  of    15 on this pool
     total cpu time spent up to now is      228.9 secs

     Computing kpt #:     6  of    15 on this pool
     total cpu time spent up to now is      274.5 secs

     Computing kpt #:     7  of    15 on this pool
     total cpu time spent up to now is      316.3 secs

     Computing kpt #:     8  of    15 on this pool
     total cpu time spent up to now is      359.7 secs

     Computing kpt #:     9  of    15 on this pool
     total cpu time spent up to now is      403.9 secs

     Computing kpt #:    10  of    15 on this pool
     total cpu time spent up to now is      445.9 secs

     Computing kpt #:    11  of    15 on this pool
     total cpu time spent up to now is      488.2 secs

     Computing kpt #:    12  of    15 on this pool
     total cpu time spent up to now is      530.6 secs

     Computing kpt #:    13  of    15 on this pool
     total cpu time spent up to now is      578.9 secs

     Computing kpt #:    14  of    15 on this pool
     total cpu time spent up to now is      619.3 secs

     Computing kpt #:    15  of    15 on this pool
     total cpu time spent up to now is      663.0 secs

     ethr =  5.00E-06,  avg # of iterations = 10.8

     total cpu time spent up to now is      663.0 secs

     End of band structure calculation

          k = 0.0000 0.0000 0.0000 (  2733 PWs)   bands (ev):

    -5.6475   6.4691   6.4691   6.4691   9.0412   9.0412   9.0412  10.0743
    14.1566  14.1566  14.5051  17.7804  17.7804  17.7804  22.0123  29.6453
    29.6453  29.6453  30.6885  30.6885  32.6336  32.6336  32.6336  36.0462
    36.0462  36.0462  41.3510  41.3510  41.3510  45.1620  45.1620  45.3989
    47.3407  47.3407  49.3684  49.3684  49.3684  51.0513  51.0513  51.0513
    51.7048  52.0801  52.0801  52.0801  52.1077  52.1077  52.1077  53.4975
    53.4975  53.4975  57.5365  58.5364  58.5364  58.5364  58.9070  58.9070
    58.9070  63.7097  64.4667  72.3950  72.6673  73.0068  73.0068  76.6558
    76.6558  76.6558  77.4704  77.4704  77.4704  77.5131  77.5131  78.1635
    78.1635  78.1635  80.5578  84.8847  84.8847  84.8847  87.1356  87.1356
    87.1356  88.7984  88.7984  88.7984  90.0388  90.0388  90.7395  90.7395
    90.7395  93.8870  93.8870  94.0239  94.6067  94.6067  94.6067  98.0221
    98.0221  98.0221  98.4983  98.4983  98.4983  99.2196  99.2196  99.2196
    99.6802  99.6802  99.6802 100.6601 101.7488 101.7488 101.7488 101.8237
   101.8237 102.2229 106.5742 106.5742 106.5742 107.0178 107.0178 107.0178
   108.7601 108.7601 110.3808 114.4608 114.4608 114.4608 116.6485 116.6485
   116.6485 117.6468 117.6468 117.6468 118.3203 118.3203 118.3203 119.0938
   119.0938 121.8612 124.1197 124.1197 124.1197 126.0975 126.0975 127.4881
   127.4881 127.4881 128.3778 129.6393 129.6393 130.2211 130.2211 130.2211
   131.5554 131.5554 131.5554 132.2443 133.9449 134.7644 134.7644 134.7644
   134.8767 134.8767 134.8767 135.0274 135.0274 135.0274 135.1882 135.1882
   135.1882 147.4052 147.4052 147.4052 147.8212 147.9603 147.9603 147.9603
   149.7265 150.1898 150.1898 150.2374 150.2374 150.2374 151.0073 151.0073
   151.0073 152.5865 152.5865 152.5865 158.5242 158.5242 162.8821 162.8821
   162.8821 164.1793 167.4467 167.4467 167.8774 167.8774 167.8774 168.6212
   168.6212 168.6212 171.0937 171.0937 171.0937 172.8342 173.2584 173.2584
   173.3932 173.3932 173.3932 173.9321 173.9321 173.9321 174.1757 174.1757
   174.1757 174.1879 174.1879 174.1879 175.2739 175.2739 175.7976 175.7976
   175.7976 176.1416 176.1416 176.1416 176.5689 176.7075 176.7075 176.7075
   177.0705 177.0705 177.0705 177.1478 177.4399 179.0276 179.1406 179.1406
   179.1406 179.3423 179.3423 181.8848 181.8848 182.3388 182.3388 182.3388
   182.8899 182.8899 182.8899 183.0234 183.0234 183.0234 183.4726 183.4726
   183.4726 183.5071 183.5071 190.6868 190.6868 191.0506 191.0506 191.0506
   192.2136 197.2728 197.2728 197.2728 198.2959 198.2959 198.2959 199.8727
   199.8727 199.8727 200.3380 200.3380 200.3380 201.0665 202.5651 202.5651
   202.5651 203.4059 203.4059 203.4628 203.4628 203.4628 203.5596 203.6733
   203.6733 203.6733 204.8870 207.2198 207.2198 209.3709 209.3709 209.3709
   212.0142 212.0142 212.0142 212.9594 212.9594 212.9594 213.0754 213.0754
   213.0754 214.2149 214.2149 215.8479 217.4035 217.4035 217.4035 219.1451
   219.1451 219.1451 220.3149 220.3149 221.0947 221.0947 221.0947 221.4512
   222.2074 222.2074 222.2074 222.2740 222.2740 222.2740 223.1769 223.1769
   223.1769 223.4174 223.4174 234.9432 234.9432 234.9432 236.1913 236.1913
   236.1913 236.4495 238.1655 241.0669 241.0669 241.0669 242.1249 242.1249
   242.1249 242.5331 242.5331 242.5945 243.1633 243.1633 243.1633 244.3404
   244.3404 245.5095 245.5095 245.5095 247.0798 248.3971 248.3971 248.3971
   248.6929 248.6929 248.6929 250.7871 250.7871 251.1502 251.1502 251.1502
   252.4635 252.4635 252.4635 253.0552 253.0552 253.1396 254.1626 257.9173
   257.9173 257.9173 257.9188 257.9188 257.9188 258.1398 258.1398 258.1398
   258.1444 258.1444 258.1444 262.7106 262.7106 262.7106 262.7350 262.7350
   262.7350 262.8364 262.8364 262.8836 262.8836 262.8836 263.0739 263.5021
   264.0707 264.0707 264.0707 264.6806 264.6806 264.6806 265.5455 265.5455
   265.5455 265.5845 265.5845 268.5199 268.5874 268.5874 268.5874 269.3847
   269.3847 269.3847 270.9555 272.9156 272.9156 274.1360 274.1360 274.1360
   274.8746 274.8746 274.8746 276.7980 276.7980 276.7980 276.8741 276.8741
   276.8741 278.9322 278.9322 281.6945 281.6945 282.5885 282.5885 282.5885
   282.9525 282.9525 282.9525 283.2476 283.2476 283.2476 283.9619 283.9619
   283.9619 284.2519 284.2519 284.6637 285.4222 285.4222 285.4222 285.8239
   285.8239 285.8239 286.1103 286.6863 286.6863 286.6863 286.9267 286.9267
   286.9267 287.1044 287.6848 291.3310 291.3310 292.7571 292.7571 292.7571
   294.5636 294.5636 294.5636 294.6129 294.6129 294.6129 294.7739 294.7739
   295.3505 295.3505 295.3505 296.6470 296.8292 297.3567 297.3567 297.3567
   297.5648 297.5648 297.5648 299.4211 299.4211 299.4211 299.4251 299.4251
   299.4618 299.4618 299.4618 299.7492 299.7492 299.7492 300.0575 300.0575
   300.0575 300.0698 300.0698 300.5388 300.5388 300.5388 300.5699 300.5699
   300.5699 300.6906 300.9223 301.3625 301.3625 301.3625 301.3797 301.3797
   301.3797 301.4278 301.4278 301.5777 301.5777 301.5777 301.7256 301.7256
   301.7479 301.7479 301.7479 321.0156 321.0156 321.1407 321.1407 321.1407
   321.2888 325.6809 325.9082 325.9082 325.9082 326.3008 326.3008 326.3008
   327.4512 328.2658 328.2658 330.1268 330.1268 330.1268 332.9662 332.9662
   332.9662 333.4914 333.4914 333.4914 334.0673 334.0673 334.0673 334.4661
   334.4661 335.9021 337.8325 337.8325 337.8325 338.6319 339.1211 339.1211
   339.1211 339.3306 339.3306 340.3552 340.3552 340.3552 341.3045 344.8926
   344.8926 344.8926 344.9777 344.9777 344.9777 345.0080 345.0080 345.0080
   345.0714 345.0714 345.0714 347.0322 347.0322 347.2609 347.2609 347.2609
   347.3651 347.3651 347.3651 347.3652 347.3652 347.3652 347.5377 347.5377
   347.6425 347.6425 347.6425 348.1510 348.1510 348.1510 348.1556 348.1556
   348.2218 353.6471 353.7876 353.7876 353.7876 353.9263 353.9263 354.0814
   354.0814 354.0814 354.1802 354.1802 354.1802 359.9258 359.9258 360.1731
   360.1731 360.1731 362.4095 363.7606 363.7606 363.7606 364.6907 364.6907
   364.6907 364.7632 364.7632 364.7632 365.0797 365.0797 365.0797 365.1076
   365.1076 365.1076 365.2169 365.2169 365.2169 365.4075 365.4075 365.7153
   366.1475 366.1475 366.1475 366.3005 366.5984 366.5984 366.5984 366.7420
   366.7420 375.0941 376.0484 376.0484 376.0484 376.3984 376.3984 376.3984
   376.4684 378.3525 378.3525 378.3525 378.4692 378.5294 378.5294 378.5294
   378.5346 378.5346 378.5346 378.6195 378.6195 380.7050 380.7050 380.7050
   380.7242 380.7242 380.7242 380.7549 380.7549 380.9396 380.9396 380.9396
   381.1698 381.3700 381.3700 381.3941 381.3941 381.3941 381.7439 381.7439
   381.7439 382.1221 382.1221 382.1221 382.4373 386.8983 386.8983 386.8983
   386.9399 386.9399 386.9483 386.9483 386.9483 387.0697 387.1208 387.1208
   387.1208 389.0078 389.0848 389.0848 389.0848 389.1031 389.1031 389.1031
   389.1411 389.1411 389.1411 389.1470 389.1470 402.3475 402.7130 402.7130
   403.1203 403.1203 403.1203 403.9478 403.9478 403.9478 404.0944 404.5450
   404.5450 404.5450 405.1219 405.1219 405.1219 405.5857 405.5857 405.5857
   406.4867 406.4867 406.4977 406.4977 406.4977 406.7067 406.7067 407.0139
   407.0139 407.0139 407.2915 408.8163 408.8163 408.8163 409.4974 409.7193
   409.7193 409.7193 412.1507 412.1507 412.1507 412.9089 412.9089 412.9089
   413.6343 413.9702 413.9702 413.9702 415.0762 415.0762 417.2550 417.2550
   417.2550 417.5985 417.5985 417.6312 417.8181 417.8181 417.8181 417.9180
   417.9180 420.2359 420.2359 420.2359 420.7965 420.7965 420.7965 421.3209
   421.3209 421.3209 421.6530 421.6530 421.9211 421.9211 421.9211 422.0940
   422.0940 422.4089 422.4089 422.4089 423.1822 423.1822 423.1822 423.6342
   423.6495 423.7582 423.7582 423.7582 424.0874 424.0874 424.0874 424.2930
   424.2930 424.2930 424.4056 424.4862 424.4862 424.4862 424.4937 424.9543
   424.9543 424.9543 425.1379 425.1379 425.1379 426.7332 426.7332 426.7332
   426.8312 426.8312 427.2584 427.2584 427.2584 427.3448 427.3448 427.3448
   427.4970 427.4970 427.4970 428.0163 428.0163 429.9746 429.9746 430.2074
   430.2074 430.2074 430.6918 430.6918 430.6918 430.7152 430.8839 430.8839
   430.8839 430.9488 430.9488 430.9488 431.2730 431.2730 431.2730 431.3201
   431.3201 431.5839 431.5839 431.5839 431.7326 439.9194 440.0941 440.0941
   440.0941 440.1520 440.3884 440.3884 440.3884 449.9695 449.9695 449.9774
   449.9774 449.9774 450.0892 450.0892 450.0892 450.2098 450.2098 450.2098
   450.2991 450.2991 450.2991 450.3208 450.3208 456.6993 456.6993 456.7890
   457.0681 457.0681 457.0681 458.2475 458.2475 458.2683 458.4728 458.4728
   458.4728 459.2384 459.2384 459.2384 459.2523 459.2523 459.2523 459.3506
   459.3506 459.3506 459.3853 459.3853 459.3853 465.1239 465.1239 465.1239
   465.1348 465.1348 465.1348 465.1962 465.1962 465.1962 465.2093 465.2093
   465.2093 465.6313 465.6313 465.6642 465.6642 465.7373 465.7373 465.7373
   465.7751 465.7751 465.7751 465.8756 465.9198 479.7499 480.5373 480.5373
   480.5373 480.5706 480.5706 480.5706 481.0774 483.8697 483.8697 483.9025
   483.9025 483.9025 484.5299 484.5299 484.5299 484.5936 484.5936 484.5936
   484.6638 484.6638 484.6638 485.1962 485.1962 486.5694 487.8883 487.8883
   487.8883 488.0159 488.0159 488.0159 489.4029 489.4029 489.4499 489.4499
   489.4499 493.7931 495.7474 495.7474 495.7474 496.7208 496.7208 496.8291
   496.8291 496.8291 496.8485 496.8485 496.8485 498.1623 498.1623 498.1623
   498.4408 498.4408 498.4408 498.6209 498.6309 501.2940 501.2940 501.5819

     occupation numbers 
     1.0000   1.0000   1.0000   1.0000   0.0000   0.0000   0.0000   0.0000
     0.0000   0.0000   0.0000   0.0000   0.0000   0.0000   0.0000   0.0000
     0.0000   0.0000   0.0000   0.0000   0.0000   0.0000   0.0000   0.0000
     0.0000   0.0000   0.0000   0.0000   0.0000   0.0000   0.0000   0.0000
     0.0000   0.0000   0.0000   0.0000   0.0000   0.0000   0.0000   0.0000
     0.0000   0.0000   0.0000   0.0000   0.0000   0.0000   0.0000   0.0000
     0.0000   0.0000   0.0000   0.0000   0.0000   0.0000   0.0000   0.0000
     0.0000   0.0000   0.0000   0.0000   0.0000   0.0000   0.0000   0.0000
     0.0000   0.0000   0.0000   0.0000   0.0000   0.0000   0.0000   0.0000
     0.0000   0.0000   0.0000   0.0000   0.0000   0.0000   0.0000   0.0000
     0.0000   0.0000   0.0000   0.0000   0.0000   0.0000   0.0000   0.0000
     0.0000   0.0000   0.0000   0.0000   0.0000   0.0000   0.0000   0.0000
     0.0000   0.0000   0.0000   0.0000   0.0000   0.0000   0.0000   0.0000
     0.0000   0.0000   0.0000   0.0000   0.0000   0.0000   0.0000   0.0000
     0.0000   0.0000   0.0000   0.0000   0.0000   0.0000   0.0000   0.0000
     0.0000   0.0000   0.0000   0.0000   0.0000   0.0000   0.0000   0.0000
     0.0000   0.0000   0.0000   0.0000   0.0000   0.0000   0.0000   0.0000
     0.0000   0.0000   0.0000   0.0000   0.0000   0.0000   0.0000   0.0000
     0.0000   0.0000   0.0000   0.0000   0.0000   0.0000   0.0000   0.0000
     0.0000   0.0000   0.0000   0.0000   0.0000   0.0000   0.0000   0.0000
     0.0000   0.0000   0.0000   0.0000   0.0000   0.0000   0.0000   0.0000
     0.0000   0.0000   0.0000   0.0000   0.0000   0.0000   0.0000   0.0000
     0.0000   0.0000   0.0000   0.0000   0.0000   0.0000   0.0000   0.0000
     0.0000   0.0000   0.0000   0.0000   0.0000   0.0000   0.0000   0.0000
     0.0000   0.0000   0.0000   0.0000   0.0000   0.0000   0.0000   0.0000
     0.0000   0.0000   0.0000   0.0000   0.0000   0.0000   0.0000   0.0000
     0.0000   0.0000   0.0000   0.0000   0.0000   0.0000   0.0000   0.0000
     0.0000   0.0000   0.0000   0.0000   0.0000   0.0000   0.0000   0.0000
     0.0000   0.0000   0.0000   0.0000   0.0000   0.0000   0.0000   0.0000
     0.0000   0.0000   0.0000   0.0000   0.0000   0.0000   0.0000   0.0000
     0.0000   0.0000   0.0000   0.0000   0.0000   0.0000   0.0000   0.0000
     0.0000   0.0000   0.0000   0.0000   0.0000   0.0000   0.0000   0.0000
     0.0000   0.0000   0.0000   0.0000   0.0000   0.0000   0.0000   0.0000
     0.0000   0.0000   0.0000   0.0000   0.0000   0.0000   0.0000   0.0000
     0.0000   0.0000   0.0000   0.0000   0.0000   0.0000   0.0000   0.0000
     0.0000   0.0000   0.0000   0.0000   0.0000   0.0000   0.0000   0.0000
     0.0000   0.0000   0.0000   0.0000   0.0000   0.0000   0.0000   0.0000
     0.0000   0.0000   0.0000   0.0000   0.0000   0.0000   0.0000   0.0000
     0.0000   0.0000   0.0000   0.0000   0.0000   0.0000   0.0000   0.0000
     0.0000   0.0000   0.0000   0.0000   0.0000   0.0000   0.0000   0.0000
     0.0000   0.0000   0.0000   0.0000   0.0000   0.0000   0.0000   0.0000
     0.0000   0.0000   0.0000   0.0000   0.0000   0.0000   0.0000   0.0000
     0.0000   0.0000   0.0000   0.0000   0.0000   0.0000   0.0000   0.0000
     0.0000   0.0000   0.0000   0.0000   0.0000   0.0000   0.0000   0.0000
     0.0000   0.0000   0.0000   0.0000   0.0000   0.0000   0.0000   0.0000
     0.0000   0.0000   0.0000   0.0000   0.0000   0.0000   0.0000   0.0000
     0.0000   0.0000   0.0000   0.0000   0.0000   0.0000   0.0000   0.0000
     0.0000   0.0000   0.0000   0.0000   0.0000   0.0000   0.0000   0.0000
     0.0000   0.0000   0.0000   0.0000   0.0000   0.0000   0.0000   0.0000
     0.0000   0.0000   0.0000   0.0000   0.0000   0.0000   0.0000   0.0000
     0.0000   0.0000   0.0000   0.0000   0.0000   0.0000   0.0000   0.0000
     0.0000   0.0000   0.0000   0.0000   0.0000   0.0000   0.0000   0.0000
     0.0000   0.0000   0.0000   0.0000   0.0000   0.0000   0.0000   0.0000
     0.0000   0.0000   0.0000   0.0000   0.0000   0.0000   0.0000   0.0000
     0.0000   0.0000   0.0000   0.0000   0.0000   0.0000   0.0000   0.0000
     0.0000   0.0000   0.0000   0.0000   0.0000   0.0000   0.0000   0.0000
     0.0000   0.0000   0.0000   0.0000   0.0000   0.0000   0.0000   0.0000
     0.0000   0.0000   0.0000   0.0000   0.0000   0.0000   0.0000   0.0000
     0.0000   0.0000   0.0000   0.0000   0.0000   0.0000   0.0000   0.0000
     0.0000   0.0000   0.0000   0.0000   0.0000   0.0000   0.0000   0.0000
     0.0000   0.0000   0.0000   0.0000   0.0000   0.0000   0.0000   0.0000
     0.0000   0.0000   0.0000   0.0000   0.0000   0.0000   0.0000   0.0000
     0.0000   0.0000   0.0000   0.0000   0.0000   0.0000   0.0000   0.0000
     0.0000   0.0000   0.0000   0.0000   0.0000   0.0000   0.0000   0.0000
     0.0000   0.0000   0.0000   0.0000   0.0000   0.0000   0.0000   0.0000
     0.0000   0.0000   0.0000   0.0000   0.0000   0.0000   0.0000   0.0000
     0.0000   0.0000   0.0000   0.0000   0.0000   0.0000   0.0000   0.0000
     0.0000   0.0000   0.0000   0.0000   0.0000   0.0000   0.0000   0.0000
     0.0000   0.0000   0.0000   0.0000   0.0000   0.0000   0.0000   0.0000
     0.0000   0.0000   0.0000   0.0000   0.0000   0.0000   0.0000   0.0000
     0.0000   0.0000   0.0000   0.0000   0.0000   0.0000   0.0000   0.0000
     0.0000   0.0000   0.0000   0.0000   0.0000   0.0000   0.0000   0.0000
     0.0000   0.0000   0.0000   0.0000   0.0000   0.0000   0.0000   0.0000
     0.0000   0.0000   0.0000   0.0000   0.0000   0.0000   0.0000   0.0000
     0.0000   0.0000   0.0000   0.0000   0.0000   0.0000   0.0000   0.0000
     0.0000   0.0000   0.0000   0.0000   0.0000   0.0000   0.0000   0.0000
     0.0000   0.0000   0.0000   0.0000   0.0000   0.0000   0.0000   0.0000
     0.0000   0.0000   0.0000   0.0000   0.0000   0.0000   0.0000   0.0000
     0.0000   0.0000   0.0000   0.0000   0.0000   0.0000   0.0000   0.0000
     0.0000   0.0000   0.0000   0.0000   0.0000   0.0000   0.0000   0.0000
     0.0000   0.0000   0.0000   0.0000   0.0000   0.0000   0.0000   0.0000
     0.0000   0.0000   0.0000   0.0000   0.0000   0.0000   0.0000   0.0000
     0.0000   0.0000   0.0000   0.0000   0.0000   0.0000   0.0000   0.0000
     0.0000   0.0000   0.0000   0.0000   0.0000   0.0000   0.0000   0.0000
     0.0000   0.0000   0.0000   0.0000   0.0000   0.0000   0.0000   0.0000
     0.0000   0.0000   0.0000   0.0000   0.0000   0.0000   0.0000   0.0000
     0.0000   0.0000   0.0000   0.0000   0.0000   0.0000   0.0000   0.0000
     0.0000   0.0000   0.0000   0.0000   0.0000   0.0000   0.0000   0.0000
     0.0000   0.0000   0.0000   0.0000   0.0000   0.0000   0.0000   0.0000
     0.0000   0.0000   0.0000   0.0000   0.0000   0.0000   0.0000   0.0000
     0.0000   0.0000   0.0000   0.0000   0.0000   0.0000   0.0000   0.0000
     0.0000   0.0000   0.0000   0.0000   0.0000   0.0000   0.0000   0.0000
     0.0000   0.0000   0.0000   0.0000   0.0000   0.0000   0.0000   0.0000
     0.0000   0.0000   0.0000   0.0000   0.0000   0.0000   0.0000   0.0000
     0.0000   0.0000   0.0000   0.0000   0.0000   0.0000   0.0000   0.0000
     0.0000   0.0000   0.0000   0.0000   0.0000   0.0000   0.0000   0.0000
     0.0000   0.0000   0.0000   0.0000   0.0000   0.0000   0.0000   0.0000
     0.0000   0.0000   0.0000   0.0000   0.0000   0.0000   0.0000   0.0000
     0.0000   0.0000   0.0000   0.0000   0.0000   0.0000   0.0000   0.0000
     0.0000   0.0000   0.0000   0.0000   0.0000   0.0000   0.0000   0.0000
     0.0000   0.0000   0.0000   0.0000   0.0000   0.0000   0.0000   0.0000
     0.0000   0.0000   0.0000   0.0000   0.0000   0.0000   0.0000   0.0000
     0.0000   0.0000   0.0000   0.0000   0.0000   0.0000   0.0000   0.0000
     0.0000   0.0000   0.0000   0.0000   0.0000   0.0000   0.0000   0.0000
     0.0000   0.0000   0.0000   0.0000   0.0000   0.0000   0.0000   0.0000
     0.0000   0.0000   0.0000   0.0000   0.0000   0.0000   0.0000   0.0000
     0.0000   0.0000   0.0000   0.0000   0.0000   0.0000   0.0000   0.0000
     0.0000   0.0000   0.0000   0.0000   0.0000   0.0000   0.0000   0.0000
     0.0000   0.0000   0.0000   0.0000   0.0000   0.0000   0.0000   0.0000
     0.0000   0.0000   0.0000   0.0000   0.0000   0.0000   0.0000   0.0000
     0.0000   0.0000   0.0000   0.0000   0.0000   0.0000   0.0000   0.0000
     0.0000   0.0000   0.0000   0.0000   0.0000   0.0000   0.0000   0.0000
     0.0000   0.0000   0.0000   0.0000   0.0000   0.0000   0.0000   0.0000
     0.0000   0.0000   0.0000   0.0000   0.0000   0.0000   0.0000   0.0000
     0.0000   0.0000   0.0000   0.0000   0.0000   0.0000   0.0000   0.0000
     0.0000   0.0000   0.0000   0.0000   0.0000   0.0000   0.0000   0.0000
     0.0000   0.0000   0.0000   0.0000   0.0000   0.0000   0.0000   0.0000
     0.0000   0.0000   0.0000   0.0000   0.0000   0.0000   0.0000   0.0000
     0.0000   0.0000   0.0000   0.0000   0.0000   0.0000   0.0000   0.0000
     0.0000   0.0000   0.0000   0.0000   0.0000   0.0000   0.0000   0.0000
     0.0000   0.0000   0.0000   0.0000   0.0000   0.0000   0.0000   0.0000
     0.0000   0.0000   0.0000   0.0000   0.0000   0.0000   0.0000   0.0000
     0.0000   0.0000   0.0000   0.0000   0.0000   0.0000   0.0000   0.0000
     0.0000   0.0000   0.0000   0.0000   0.0000   0.0000   0.0000   0.0000
     0.0000   0.0000   0.0000   0.0000   0.0000   0.0000   0.0000   0.0000

          k =-0.0884 0.0884-0.0884 (  2719 PWs)   bands (ev):

    -5.4394   4.8633   6.1756   6.1756   9.0242   9.4730   9.4730  11.3706
    13.6713  13.6713  15.3054  17.2155  18.9529  18.9529  23.2593  27.6748
    27.6748  28.0601  30.3707  30.3707  33.1011  33.1011  33.8937  36.2347
    38.1553  38.1553  39.1311  40.9066  40.9066  43.4302  43.4302  45.5081
    45.5081  45.9512  48.8945  48.8945  48.9714  49.2259  50.4092  50.8845
    50.8845  51.5612  51.7399  51.7399  53.3534  54.2048  54.3465  54.3465
    56.6864  56.6864  56.8821  58.2269  58.2269  58.4185  61.3649  61.3649
    62.3957  65.2210  66.6362  70.3228  70.3228  71.8042  72.1135  73.7120
    74.3497  74.3497  76.0995  76.1841  76.1841  77.9365  77.9365  79.2627
    80.0873  80.0873  83.1229  84.5738  84.6857  84.6857  85.6336  85.6336
    87.0565  88.7515  88.7515  89.2726  89.2726  90.0966  90.0966  90.1441
    91.0791  91.9400  92.0261  93.4877  93.4877  95.1531  95.2851  95.2851
    96.2671  96.2671  97.1743  97.8643  97.8643  98.2669  98.5786  99.9194
    99.9194 101.8945 101.8945 102.6134 102.8238 102.9107 102.9107 104.7745
   104.7745 105.6852 105.7517 105.7517 107.5955 108.1985 108.1985 109.6605
   109.6605 110.0564 111.8413 111.8413 112.2963 113.7100 114.0027 114.0027
   115.4818 115.9123 118.3842 118.3842 119.9020 119.9020 120.3506 120.9240
   120.9240 121.3297 122.4999 123.3471 123.4013 123.4013 125.0056 125.0056
   127.2478 127.2478 127.3547 128.4616 128.4616 128.7247 129.0962 129.4472
   129.4472 130.9173 131.7916 131.7916 134.6785 134.6785 134.9365 135.8941
   135.8941 136.9821 137.8199 138.8584 139.9692 139.9692 140.6506 141.2054
   141.2054 141.3798 142.3426 142.3426 144.5002 145.6592 145.6592 148.1482
   148.4790 148.4790 149.7730 149.7730 150.3253 151.0807 153.1989 153.1989
   155.4163 155.4163 157.9987 158.9197 159.4215 159.4215 160.3539 160.3539
   161.4618 161.5011 163.0614 163.0614 163.4507 163.9346 163.9346 165.2867
   166.3983 166.8130 166.8130 167.2020 169.4825 169.4825 169.5248 169.7623
   169.7623 170.5663 170.8247 170.8247 171.7115 171.7115 171.8626 171.8626
   172.2447 172.3185 172.3185 172.6188 174.0284 175.0816 175.0816 176.2519
   176.2962 176.2962 176.7872 176.8258 176.8258 176.9143 177.8998 177.8998
   178.9741 178.9741 180.0448 181.1539 181.3283 181.3850 181.3850 181.5294
   181.5294 182.8139 183.2835 183.2835 183.5268 183.5268 184.5410 185.5965
   185.5965 185.7400 185.9004 185.9925 185.9925 186.8927 187.9443 187.9443
   188.5750 188.7761 189.8390 189.8390 190.4388 190.4388 190.7016 191.4138
   193.2577 193.2577 193.7652 195.3028 195.3028 195.6699 195.6699 196.8605
   197.3473 197.4956 197.4956 197.8521 197.8521 198.8998 199.2230 199.2230
   203.1460 203.1460 204.1155 204.7259 204.7259 205.8691 206.4809 206.5305
   207.6568 207.8115 207.8115 208.1247 208.1247 208.9901 208.9901 209.8249
   210.2630 210.2630 212.2051 212.2051 212.7863 212.7863 212.8874 212.9636
   214.0396 214.0396 214.6458 215.2570 215.9001 215.9001 216.9123 217.7039
   217.7039 219.5308 220.2681 220.3347 220.3347 221.5386 222.3487 222.9469
   222.9469 225.0373 225.0373 227.0496 227.9751 227.9751 229.2962 229.2962
   229.3811 229.6986 229.9112 229.9112 230.9334 230.9334 231.2984 232.4018
   235.3438 235.7605 235.7605 236.1403 236.1403 238.6729 238.6729 239.2305
   239.2305 240.6903 241.0438 241.9458 241.9458 242.6444 242.6444 243.0100
   243.4246 244.3375 244.3375 244.3530 246.7660 246.7660 247.5120 248.8516
   249.4714 249.4714 249.6968 249.6968 249.7818 250.4659 250.4659 250.6212
   250.8134 251.3849 251.6631 251.7604 251.7604 252.9194 252.9194 254.3274
   254.7720 254.7720 254.9101 256.8827 256.8827 257.8513 258.6691 258.6691
   259.3528 259.7171 259.7171 261.5622 261.5898 261.5898 262.0210 262.0210
   262.1382 262.2578 262.2578 263.0699 263.0699 263.1677 264.0755 265.7403
   265.7749 265.7749 266.8016 266.8681 266.8681 267.2677 267.2677 267.9306
   268.1073 268.1073 268.4509 268.4509 268.6648 268.8294 269.4196 269.4196
   270.7127 271.0250 271.8179 271.8458 271.8458 272.8717 272.8717 273.3675
   275.7286 275.7286 275.8763 276.1827 276.7731 276.7731 276.9823 277.8091
   277.8091 278.1874 278.5894 278.5894 279.1451 279.1451 280.3329 280.3329
   280.6091 280.6533 281.0378 281.0378 281.5860 281.8672 281.8672 282.7906
   283.5620 283.5620 283.7117 284.2681 284.2681 284.6579 284.9120 284.9120
   285.7960 285.7960 285.8053 286.1661 286.7279 286.7279 286.7789 287.4253
   288.0990 288.0990 288.8882 288.8882 289.5489 289.8569 289.8569 290.7083
   291.6121 291.6121 292.3435 292.3435 292.3542 292.5930 292.5930 292.6052
   293.8909 294.0371 294.0566 294.0566 294.4027 294.4027 295.6842 295.7306
   295.7306 296.6122 296.8043 296.8043 297.2837 297.2837 297.4053 298.7436
   298.7436 299.0917 299.0917 299.1909 301.1384 301.5260 301.5260 302.2869
   302.4194 303.3771 303.9805 303.9805 304.5630 304.5921 304.5921 305.5093
   305.5093 305.7592 307.6803 307.6803 308.0856 308.8874 308.8874 309.0684
   310.7505 310.7505 311.0098 311.0098 311.1369 311.1496 311.4608 311.4608
   311.5859 312.6141 314.5496 314.5496 315.1139 315.8031 315.8031 317.9980
   317.9980 318.9194 319.5009 319.5009 321.8784 321.8784 322.2607 324.7144
   325.1209 327.6350 327.6350 329.1522 329.1522 329.5054 330.0506 330.0506
   330.3465 330.3465 330.6835 331.6303 331.6303 331.9277 333.3903 333.3903
   333.7118 334.7616 334.8020 334.8020 335.8576 335.8576 335.9915 337.8426
   337.8426 337.9710 339.2080 339.2116 339.3370 339.3370 339.5013 339.5013
   339.8456 339.8456 339.8493 340.4201 340.4201 342.1234 342.5138 344.4390
   344.4390 344.5548 344.7454 344.7454 344.8784 346.9069 346.9069 347.1311
   347.1311 347.6156 348.7584 350.1333 350.3204 350.3204 350.7457 350.7457
   351.9151 351.9251 352.0894 352.0894 352.5762 352.5762 352.7698 352.8394
   352.8394 353.9962 354.0415 354.0415 355.2829 355.2879 355.2879 356.0145
   356.1838 356.4043 356.4043 356.6767 356.6767 356.9522 357.0466 357.0466
   357.2863 358.1457 360.0101 360.0101 360.1143 360.2256 360.3436 360.3436
   362.9027 363.1772 363.1772 364.5852 364.5852 364.8033 364.9624 364.9624
   365.0203 365.1183 365.1855 365.1855 365.5897 365.5897 367.3272 367.3272
   367.3912 367.6209 367.6209 367.6486 368.9960 368.9960 369.4695 369.8004
   369.8004 369.8065 370.8761 371.0851 371.0851 373.8116 373.8116 374.3592
   375.5266 375.7109 375.7109 375.8625 375.8694 375.8694 377.1945 377.3106
   377.3106 377.7478 377.7478 377.7775 379.8467 379.8467 379.9681 380.2351
   380.2351 380.5187 380.5210 380.5210 380.9133 380.9984 380.9984 381.1920
   382.6270 382.6617 382.6617 383.3411 383.3493 383.3493 383.9504 383.9625
   383.9625 386.0073 386.0073 386.1516 386.1847 386.4141 386.4141 386.4779
   388.7085 388.7085 390.7590 390.7697 390.7697 391.0001 391.0001 391.0043
   391.2990 391.3263 391.3533 391.3533 393.0386 393.0386 393.2684 394.3447
   394.3447 395.6020 395.6020 395.7263 395.9127 397.2802 398.1019 398.1019
   398.4574 398.4574 398.7456 399.0871 399.1816 399.1816 399.5737 399.5737
   400.9153 401.1541 401.1541 401.3156 402.0016 402.0016 402.0541 403.2427
   403.2427 403.5387 405.4469 405.6402 406.1267 406.1267 406.1826 406.1826
   406.3635 406.4790 406.5425 406.5425 407.6575 407.8238 407.8238 408.5787
   408.5787 410.0380 410.5693 410.5693 410.9634 410.9634 411.2328 411.3400
   411.3400 411.6766 411.8110 411.8110 412.6769 412.7467 412.7467 413.0733
   413.4570 413.8807 413.8807 413.9345 414.0570 414.0570 414.4118 414.4550
   414.4550 415.2640 415.3368 415.3368 416.4121 416.6426 416.6426 418.4478
   418.4478 418.5925 418.8366 418.8366 419.3229 419.9065 419.9065 419.9250
   420.2964 421.0165 421.0649 421.2526 421.2526 421.7236 421.7236 422.2548
   422.2548 422.4126 422.6890 422.6890 423.0894 423.0894 423.1480 423.7368
   424.2940 425.1672 425.1672 425.7241 426.2497 426.2497 426.7788 427.9677
   427.9677 428.9556 429.2331 429.2331 429.4454 429.7017 429.7599 429.7599
   429.7796 429.7796 430.6247 430.6247 431.0049 432.2837 432.2837 432.4563
   432.4563 432.5576 433.3954 433.4237 433.6341 433.6341 433.7472 433.7472
   434.6021 434.6021 434.8061 435.7939 436.2313 436.2313 436.7508 436.8003
   436.8003 436.9419 437.5102 437.5102 440.5586 440.5586 440.8982 441.5856
   441.5856 441.6744 441.6744 441.8512 442.3473 442.6140 442.6140 442.6283
   442.7632 442.9461 442.9461 443.6740 444.8494 444.8494 445.0038 445.5913
   445.8969 445.8969 445.9841 445.9841 446.7857 446.9337 446.9337 447.1436
   447.1436 447.3197 448.8401 448.8401 449.0455 449.3508 449.3508 449.9850
   452.4740 452.5534 452.5534 454.6332 454.7065 454.7065 455.2186 455.2186
   455.2407 455.6481 455.6502 455.6502 459.2623 459.2748 459.2748 459.5552
   459.5588 459.5588 460.2151 460.7257 464.2636 464.2636 464.6262 464.7749
   464.7749 468.5867 468.5867 468.5995 469.1291 469.9964 470.1431 470.1431
   470.9876 470.9876 471.2135 471.2135 471.4308 471.4553 471.4553 472.1181
   472.1292 472.1292 474.4339 474.5938 474.5938 475.4851 475.4851 475.6783
   476.5031 477.8257 477.8834 477.8834 478.4421 478.4421 478.6180 479.3775
   479.3775 479.9650 482.4167 482.4167 482.6282 482.7888 482.9589 482.9589
   483.0694 483.0694 483.3992 483.4377 483.4377 485.6728 485.7139 486.1401
   486.1401 486.5928 486.5928 487.9234 487.9234 488.4344 490.6942 490.9059
   490.9059 491.6869 491.6869 491.9213 492.4272 492.5282 492.5282 492.6872
   493.2807 493.3404 493.3404 493.6439 493.6439 494.1526 494.2566 494.2566
   495.3913 495.4279 495.4279 495.9598 495.9598 496.0739 497.2573 497.2573

     occupation numbers 
     1.0000   1.0000   1.0000   1.0000   0.0000   0.0000   0.0000   0.0000
     0.0000   0.0000   0.0000   0.0000   0.0000   0.0000   0.0000   0.0000
     0.0000   0.0000   0.0000   0.0000   0.0000   0.0000   0.0000   0.0000
     0.0000   0.0000   0.0000   0.0000   0.0000   0.0000   0.0000   0.0000
     0.0000   0.0000   0.0000   0.0000   0.0000   0.0000   0.0000   0.0000
     0.0000   0.0000   0.0000   0.0000   0.0000   0.0000   0.0000   0.0000
     0.0000   0.0000   0.0000   0.0000   0.0000   0.0000   0.0000   0.0000
     0.0000   0.0000   0.0000   0.0000   0.0000   0.0000   0.0000   0.0000
     0.0000   0.0000   0.0000   0.0000   0.0000   0.0000   0.0000   0.0000
     0.0000   0.0000   0.0000   0.0000   0.0000   0.0000   0.0000   0.0000
     0.0000   0.0000   0.0000   0.0000   0.0000   0.0000   0.0000   0.0000
     0.0000   0.0000   0.0000   0.0000   0.0000   0.0000   0.0000   0.0000
     0.0000   0.0000   0.0000   0.0000   0.0000   0.0000   0.0000   0.0000
     0.0000   0.0000   0.0000   0.0000   0.0000   0.0000   0.0000   0.0000
     0.0000   0.0000   0.0000   0.0000   0.0000   0.0000   0.0000   0.0000
     0.0000   0.0000   0.0000   0.0000   0.0000   0.0000   0.0000   0.0000
     0.0000   0.0000   0.0000   0.0000   0.0000   0.0000   0.0000   0.0000
     0.0000   0.0000   0.0000   0.0000   0.0000   0.0000   0.0000   0.0000
     0.0000   0.0000   0.0000   0.0000   0.0000   0.0000   0.0000   0.0000
     0.0000   0.0000   0.0000   0.0000   0.0000   0.0000   0.0000   0.0000
     0.0000   0.0000   0.0000   0.0000   0.0000   0.0000   0.0000   0.0000
     0.0000   0.0000   0.0000   0.0000   0.0000   0.0000   0.0000   0.0000
     0.0000   0.0000   0.0000   0.0000   0.0000   0.0000   0.0000   0.0000
     0.0000   0.0000   0.0000   0.0000   0.0000   0.0000   0.0000   0.0000
     0.0000   0.0000   0.0000   0.0000   0.0000   0.0000   0.0000   0.0000
     0.0000   0.0000   0.0000   0.0000   0.0000   0.0000   0.0000   0.0000
     0.0000   0.0000   0.0000   0.0000   0.0000   0.0000   0.0000   0.0000
     0.0000   0.0000   0.0000   0.0000   0.0000   0.0000   0.0000   0.0000
     0.0000   0.0000   0.0000   0.0000   0.0000   0.0000   0.0000   0.0000
     0.0000   0.0000   0.0000   0.0000   0.0000   0.0000   0.0000   0.0000
     0.0000   0.0000   0.0000   0.0000   0.0000   0.0000   0.0000   0.0000
     0.0000   0.0000   0.0000   0.0000   0.0000   0.0000   0.0000   0.0000
     0.0000   0.0000   0.0000   0.0000   0.0000   0.0000   0.0000   0.0000
     0.0000   0.0000   0.0000   0.0000   0.0000   0.0000   0.0000   0.0000
     0.0000   0.0000   0.0000   0.0000   0.0000   0.0000   0.0000   0.0000
     0.0000   0.0000   0.0000   0.0000   0.0000   0.0000   0.0000   0.0000
     0.0000   0.0000   0.0000   0.0000   0.0000   0.0000   0.0000   0.0000
     0.0000   0.0000   0.0000   0.0000   0.0000   0.0000   0.0000   0.0000
     0.0000   0.0000   0.0000   0.0000   0.0000   0.0000   0.0000   0.0000
     0.0000   0.0000   0.0000   0.0000   0.0000   0.0000   0.0000   0.0000
     0.0000   0.0000   0.0000   0.0000   0.0000   0.0000   0.0000   0.0000
     0.0000   0.0000   0.0000   0.0000   0.0000   0.0000   0.0000   0.0000
     0.0000   0.0000   0.0000   0.0000   0.0000   0.0000   0.0000   0.0000
     0.0000   0.0000   0.0000   0.0000   0.0000   0.0000   0.0000   0.0000
     0.0000   0.0000   0.0000   0.0000   0.0000   0.0000   0.0000   0.0000
     0.0000   0.0000   0.0000   0.0000   0.0000   0.0000   0.0000   0.0000
     0.0000   0.0000   0.0000   0.0000   0.0000   0.0000   0.0000   0.0000
     0.0000   0.0000   0.0000   0.0000   0.0000   0.0000   0.0000   0.0000
     0.0000   0.0000   0.0000   0.0000   0.0000   0.0000   0.0000   0.0000
     0.0000   0.0000   0.0000   0.0000   0.0000   0.0000   0.0000   0.0000
     0.0000   0.0000   0.0000   0.0000   0.0000   0.0000   0.0000   0.0000
     0.0000   0.0000   0.0000   0.0000   0.0000   0.0000   0.0000   0.0000
     0.0000   0.0000   0.0000   0.0000   0.0000   0.0000   0.0000   0.0000
     0.0000   0.0000   0.0000   0.0000   0.0000   0.0000   0.0000   0.0000
     0.0000   0.0000   0.0000   0.0000   0.0000   0.0000   0.0000   0.0000
     0.0000   0.0000   0.0000   0.0000   0.0000   0.0000   0.0000   0.0000
     0.0000   0.0000   0.0000   0.0000   0.0000   0.0000   0.0000   0.0000
     0.0000   0.0000   0.0000   0.0000   0.0000   0.0000   0.0000   0.0000
     0.0000   0.0000   0.0000   0.0000   0.0000   0.0000   0.0000   0.0000
     0.0000   0.0000   0.0000   0.0000   0.0000   0.0000   0.0000   0.0000
     0.0000   0.0000   0.0000   0.0000   0.0000   0.0000   0.0000   0.0000
     0.0000   0.0000   0.0000   0.0000   0.0000   0.0000   0.0000   0.0000
     0.0000   0.0000   0.0000   0.0000   0.0000   0.0000   0.0000   0.0000
     0.0000   0.0000   0.0000   0.0000   0.0000   0.0000   0.0000   0.0000
     0.0000   0.0000   0.0000   0.0000   0.0000   0.0000   0.0000   0.0000
     0.0000   0.0000   0.0000   0.0000   0.0000   0.0000   0.0000   0.0000
     0.0000   0.0000   0.0000   0.0000   0.0000   0.0000   0.0000   0.0000
     0.0000   0.0000   0.0000   0.0000   0.0000   0.0000   0.0000   0.0000
     0.0000   0.0000   0.0000   0.0000   0.0000   0.0000   0.0000   0.0000
     0.0000   0.0000   0.0000   0.0000   0.0000   0.0000   0.0000   0.0000
     0.0000   0.0000   0.0000   0.0000   0.0000   0.0000   0.0000   0.0000
     0.0000   0.0000   0.0000   0.0000   0.0000   0.0000   0.0000   0.0000
     0.0000   0.0000   0.0000   0.0000   0.0000   0.0000   0.0000   0.0000
     0.0000   0.0000   0.0000   0.0000   0.0000   0.0000   0.0000   0.0000
     0.0000   0.0000   0.0000   0.0000   0.0000   0.0000   0.0000   0.0000
     0.0000   0.0000   0.0000   0.0000   0.0000   0.0000   0.0000   0.0000
     0.0000   0.0000   0.0000   0.0000   0.0000   0.0000   0.0000   0.0000
     0.0000   0.0000   0.0000   0.0000   0.0000   0.0000   0.0000   0.0000
     0.0000   0.0000   0.0000   0.0000   0.0000   0.0000   0.0000   0.0000
     0.0000   0.0000   0.0000   0.0000   0.0000   0.0000   0.0000   0.0000
     0.0000   0.0000   0.0000   0.0000   0.0000   0.0000   0.0000   0.0000
     0.0000   0.0000   0.0000   0.0000   0.0000   0.0000   0.0000   0.0000
     0.0000   0.0000   0.0000   0.0000   0.0000   0.0000   0.0000   0.0000
     0.0000   0.0000   0.0000   0.0000   0.0000   0.0000   0.0000   0.0000
     0.0000   0.0000   0.0000   0.0000   0.0000   0.0000   0.0000   0.0000
     0.0000   0.0000   0.0000   0.0000   0.0000   0.0000   0.0000   0.0000
     0.0000   0.0000   0.0000   0.0000   0.0000   0.0000   0.0000   0.0000
     0.0000   0.0000   0.0000   0.0000   0.0000   0.0000   0.0000   0.0000
     0.0000   0.0000   0.0000   0.0000   0.0000   0.0000   0.0000   0.0000
     0.0000   0.0000   0.0000   0.0000   0.0000   0.0000   0.0000   0.0000
     0.0000   0.0000   0.0000   0.0000   0.0000   0.0000   0.0000   0.0000
     0.0000   0.0000   0.0000   0.0000   0.0000   0.0000   0.0000   0.0000
     0.0000   0.0000   0.0000   0.0000   0.0000   0.0000   0.0000   0.0000
     0.0000   0.0000   0.0000   0.0000   0.0000   0.0000   0.0000   0.0000
     0.0000   0.0000   0.0000   0.0000   0.0000   0.0000   0.0000   0.0000
     0.0000   0.0000   0.0000   0.0000   0.0000   0.0000   0.0000   0.0000
     0.0000   0.0000   0.0000   0.0000   0.0000   0.0000   0.0000   0.0000
     0.0000   0.0000   0.0000   0.0000   0.0000   0.0000   0.0000   0.0000
     0.0000   0.0000   0.0000   0.0000   0.0000   0.0000   0.0000   0.0000
     0.0000   0.0000   0.0000   0.0000   0.0000   0.0000   0.0000   0.0000
     0.0000   0.0000   0.0000   0.0000   0.0000   0.0000   0.0000   0.0000
     0.0000   0.0000   0.0000   0.0000   0.0000   0.0000   0.0000   0.0000
     0.0000   0.0000   0.0000   0.0000   0.0000   0.0000   0.0000   0.0000
     0.0000   0.0000   0.0000   0.0000   0.0000   0.0000   0.0000   0.0000
     0.0000   0.0000   0.0000   0.0000   0.0000   0.0000   0.0000   0.0000
     0.0000   0.0000   0.0000   0.0000   0.0000   0.0000   0.0000   0.0000
     0.0000   0.0000   0.0000   0.0000   0.0000   0.0000   0.0000   0.0000
     0.0000   0.0000   0.0000   0.0000   0.0000   0.0000   0.0000   0.0000
     0.0000   0.0000   0.0000   0.0000   0.0000   0.0000   0.0000   0.0000
     0.0000   0.0000   0.0000   0.0000   0.0000   0.0000   0.0000   0.0000
     0.0000   0.0000   0.0000   0.0000   0.0000   0.0000   0.0000   0.0000
     0.0000   0.0000   0.0000   0.0000   0.0000   0.0000   0.0000   0.0000
     0.0000   0.0000   0.0000   0.0000   0.0000   0.0000   0.0000   0.0000
     0.0000   0.0000   0.0000   0.0000   0.0000   0.0000   0.0000   0.0000
     0.0000   0.0000   0.0000   0.0000   0.0000   0.0000   0.0000   0.0000
     0.0000   0.0000   0.0000   0.0000   0.0000   0.0000   0.0000   0.0000
     0.0000   0.0000   0.0000   0.0000   0.0000   0.0000   0.0000   0.0000
     0.0000   0.0000   0.0000   0.0000   0.0000   0.0000   0.0000   0.0000
     0.0000   0.0000   0.0000   0.0000   0.0000   0.0000   0.0000   0.0000
     0.0000   0.0000   0.0000   0.0000   0.0000   0.0000   0.0000   0.0000
     0.0000   0.0000   0.0000   0.0000   0.0000   0.0000   0.0000   0.0000
     0.0000   0.0000   0.0000   0.0000   0.0000   0.0000   0.0000   0.0000
     0.0000   0.0000   0.0000   0.0000   0.0000   0.0000   0.0000   0.0000
     0.0000   0.0000   0.0000   0.0000   0.0000   0.0000   0.0000   0.0000
     0.0000   0.0000   0.0000   0.0000   0.0000   0.0000   0.0000   0.0000

          k =-0.1768 0.1768-0.1768 (  2716 PWs)   bands (ev):

    -4.8318   2.5017   5.6999   5.6999   8.5608   9.9862   9.9862  13.5604
    13.6380  13.6380  15.5251  18.4405  21.1985  21.1985  24.4617  24.4617
    24.6650  26.7784  30.5452  30.5452  33.4177  33.4177  34.4192  36.2349
    36.7638  38.6236  38.6236  40.1350  40.1350  41.1286  41.1286  45.1054
    45.1054  45.3506  45.9242  46.3549  48.1959  48.1959  50.5422  50.8889
    50.8889  51.2125  51.7809  53.7681  53.7681  56.6582  56.6582  57.7910
    57.9105  57.9105  59.7006  61.3789  64.0153  64.0153  64.5933  64.7105
    64.7105  66.9649  66.9649  67.2961  68.4157  69.5467  69.5467  70.3767
    71.9344  73.0505  73.0505  73.1844  75.2711  76.4131  76.4131  78.4616
    81.4492  81.4492  82.9283  83.1398  83.1398  83.8370  85.4223  85.4223
    86.3323  86.3323  86.3685  87.3344  87.5872  87.5872  89.3836  90.5117
    90.5117  91.8935  91.9417  92.2019  92.2019  94.2328  95.8112  95.8112
    96.6660  96.6660  97.9629  98.4872  98.5090  98.5090  99.2977  99.8901
    99.8901 101.5035 102.8048 102.8048 103.7801 103.7801 105.3332 105.3332
   105.7115 106.2056 106.2056 107.1461 108.0614 111.1817 112.4031 112.4031
   112.7375 112.7375 112.7562 113.3034 113.3034 113.6990 113.6990 113.8491
   114.2579 115.9183 117.4383 117.4383 117.7498 118.0777 118.0777 120.7334
   120.7334 120.8741 121.9030 121.9030 123.1044 124.6598 124.9588 124.9588
   126.1592 126.1592 126.3634 126.7752 126.7752 128.1470 128.3036 128.3291
   131.1485 131.1485 131.2784 135.7566 136.2418 136.2418 136.7367 136.7367
   138.6213 138.6213 139.5092 139.5092 139.9112 142.0258 142.0258 142.7670
   145.4573 146.3486 146.3486 147.8833 147.8833 148.1160 148.3323 149.6215
   149.6215 149.6658 150.5611 150.5611 151.2402 151.4873 151.4873 151.6027
   151.6027 151.6926 153.1920 153.1920 154.5524 155.3844 156.1186 156.1186
   156.2664 156.7301 158.9032 158.9032 159.0335 159.0335 161.9862 163.1959
   164.0373 164.0373 164.2050 165.0238 165.0238 166.8330 167.1180 167.1180
   168.6584 169.4122 169.4122 170.1734 170.1734 170.4879 171.1010 171.9134
   171.9134 172.0223 172.5662 173.2272 173.2272 174.9252 174.9252 176.0082
   176.0082 176.1619 176.2320 176.3575 176.3575 177.5661 178.0633 178.0633
   179.2476 179.6092 181.0806 181.0806 181.1246 181.7908 181.7908 182.2929
   183.3954 183.7911 183.7911 184.0281 184.0281 185.3689 185.3689 188.5068
   188.5068 188.6697 188.9048 188.9048 188.9734 190.4063 190.6639 190.6639
   190.9110 191.4636 191.4636 192.4636 192.4636 192.8568 193.4195 193.4195
   193.9348 194.1287 194.9023 195.2092 195.2092 196.1371 196.1371 196.7310
   198.1431 198.1431 199.1452 199.1452 199.2669 199.2669 199.7413 201.0713
   201.2605 202.8706 202.8706 203.0725 205.2650 205.2650 205.3560 206.9116
   206.9116 207.5137 208.4962 208.8643 209.0552 209.0552 209.3350 209.3350
   211.1527 211.1527 211.6715 212.4053 212.4053 212.5719 216.4398 216.4398
   216.5413 217.2375 218.0014 218.0014 218.4399 218.8800 218.8800 220.9492
   221.0685 221.0685 222.6727 222.6727 223.1296 223.1582 223.1582 223.6327
   224.9406 224.9406 225.2989 226.9499 227.7300 227.7300 229.2284 229.4002
   229.4002 230.2557 230.4722 230.4722 231.4762 231.4762 232.6060 233.8226
   234.1163 234.1163 235.2621 236.4679 236.4679 237.2031 237.6507 238.0295
   238.2306 238.2306 239.7425 239.7425 240.1060 240.1060 240.8932 241.2354
   241.2354 241.3766 241.7696 241.7696 241.9061 243.1540 243.1540 243.4201
   244.9081 245.2026 245.2026 245.9594 246.2856 246.2856 246.5937 246.5937
   246.9630 248.1105 248.1105 249.8863 249.8863 250.0134 250.9698 252.3025
   252.3025 252.7925 252.7925 254.8879 255.2120 255.3008 255.3008 256.8519
   260.6578 260.7906 260.7906 260.9378 260.9378 261.1970 261.6083 261.6083
   261.8703 263.8018 264.4815 264.4815 265.2163 265.5424 265.5424 265.7535
   265.7535 266.2346 267.5486 267.5486 268.3926 268.4283 268.4283 268.9643
   268.9825 268.9825 269.2040 269.5123 269.5580 269.5580 270.1723 270.1723
   271.1063 271.2621 271.4400 271.4400 271.7767 271.7767 272.5291 273.0405
   273.0680 273.0680 273.3800 273.3800 274.2228 274.7638 274.7638 275.5892
   275.5892 275.7928 277.1039 277.2518 277.7138 277.7138 277.9225 278.5967
   278.5967 279.5844 279.5844 279.9838 280.0982 280.0982 280.8134 282.6288
   282.9938 282.9938 283.8743 283.8743 284.0810 284.4741 284.4741 284.6727
   286.3341 286.5835 286.5835 286.7745 286.7745 286.8970 289.1892 289.1892
   289.3834 289.6572 289.6714 289.6714 290.4324 290.4468 290.4468 290.4813
   290.7319 290.7319 291.8810 292.5223 292.5223 292.6925 293.8387 294.0424
   294.0424 294.3682 294.3682 294.4972 298.1297 298.7927 298.7927 299.6384
   299.6384 300.3887 300.8016 300.8016 301.7193 302.1479 302.5888 302.5888
   302.8515 302.8515 303.1784 303.6935 303.6935 304.6118 306.1766 307.9576
   307.9576 307.9891 308.0721 308.0721 309.0391 309.0391 309.2195 309.8760
   310.3939 310.3939 310.4197 310.8245 310.8245 311.6588 311.6588 311.9713
   312.4058 312.4058 313.1249 313.1249 314.9076 314.9076 316.2403 316.4011
   317.1932 317.2591 317.3170 317.3170 318.7994 318.7994 318.8824 321.2977
   321.2977 321.7262 321.7262 321.9232 321.9292 321.9292 322.0817 322.7541
   323.0619 323.1130 323.1130 324.2261 324.2261 325.5219 325.6932 325.6932
   326.1771 326.8546 326.8546 328.7035 329.5910 329.5910 330.1001 331.6828
   331.6828 332.0190 332.2651 332.2651 332.7120 333.0025 333.2119 333.3324
   333.3324 333.4304 333.4304 333.6004 333.6004 334.2645 335.1510 335.2930
   335.2930 335.9558 335.9558 340.3087 341.6812 341.6812 341.7230 342.2145
   342.2145 342.3718 343.6375 343.7745 343.7745 344.2009 344.2009 344.2031
   344.8232 344.8232 345.0067 348.6129 348.6129 348.9171 349.1808 349.2182
   349.2182 349.3692 349.3692 350.1460 350.7593 350.7785 350.7785 353.2841
   353.5417 353.5417 353.9718 353.9718 354.0205 354.0565 354.5416 354.5416
   355.0937 355.0937 355.3117 355.8415 356.7836 356.7836 356.8914 357.1113
   357.1113 360.4126 360.4173 360.4173 361.0972 361.1311 361.1311 361.7149
   362.3692 362.5121 362.5121 363.8283 363.8283 364.2224 364.4389 364.5866
   364.5866 365.2646 365.2646 365.5179 366.0630 366.0630 367.3383 367.7375
   367.7375 368.7761 369.8589 371.4867 371.4867 373.1075 373.1075 373.4342
   373.4342 373.4626 373.6417 373.6664 373.6664 374.6229 375.8066 375.9579
   375.9579 376.3588 376.5283 376.5283 376.6615 376.9007 376.9007 377.0758
   377.0758 377.0967 379.4331 379.7637 379.7637 380.3761 380.3761 380.6158
   382.0601 382.0601 383.0401 383.5698 383.5698 383.7453 383.7453 384.0439
   384.4442 384.7928 384.7928 384.8778 384.8778 384.9403 385.4715 385.4715
   385.8275 386.1339 386.3701 386.3701 386.6873 387.1244 387.1244 387.3876
   387.3876 387.5786 388.4374 388.8431 388.8431 389.2112 389.5944 389.5944
   389.9213 389.9805 389.9805 391.6739 391.6739 391.6992 392.7134 392.7134
   392.8193 393.8307 394.2375 394.2375 394.2899 394.9737 394.9737 395.0711
   395.0711 395.3279 395.7581 396.1692 396.1692 396.5525 396.5525 396.7739
   396.8712 396.8712 397.6328 397.6734 397.6734 397.7026 397.7686 397.8813
   397.8813 400.7589 400.9554 400.9554 402.1223 402.2242 402.8697 402.8697
   403.3790 403.6684 403.6684 404.8944 404.8944 405.2570 405.2984 405.4300
   405.4300 406.6077 406.8124 406.8124 409.8879 409.8879 410.1379 410.5122
   410.5122 410.6540 410.7003 410.9198 410.9198 411.0782 411.0782 412.5117
   412.5117 412.8097 414.5499 414.5601 414.8747 414.8747 415.1103 415.1103
   415.2003 415.2960 415.2960 415.6464 415.6464 416.0492 416.1515 417.1093
   417.1093 417.2345 417.2692 417.3586 417.3586 421.5124 421.6662 421.6662
   422.2131 422.2131 422.3750 422.5389 422.8507 422.8507 423.4678 423.5960
   423.5960 424.4555 424.4555 425.0910 425.7084 425.7084 425.7931 427.1214
   427.1214 427.8120 428.0507 428.9633 428.9633 429.9904 429.9904 430.6643
   431.4042 431.9480 431.9480 432.7068 432.7068 432.7647 432.7647 432.8195
   432.9176 434.2680 434.2680 434.2811 435.3067 435.3067 435.5271 435.7525
   435.7525 435.9661 436.8427 436.8995 436.8995 437.9976 437.9976 438.4774
   438.4862 438.4862 438.6469 440.3118 440.5295 440.9156 440.9156 440.9399
   441.0036 441.0036 441.4515 441.8211 441.8211 442.0978 442.0978 442.7138
   443.9917 444.5140 444.5140 444.7815 444.7815 445.4006 445.5625 445.5625
   446.3993 446.4146 446.4146 446.5127 446.6630 446.6630 446.8161 446.8709
   446.9284 446.9284 448.7066 448.7066 448.8305 449.0742 449.0742 450.2354
   451.2020 452.2867 452.2867 452.3928 453.4832 453.4832 453.5103 453.8713
   453.8713 454.0114 454.0114 455.6072 455.6072 455.6444 455.8381 456.1362
   456.1362 457.3799 459.0339 459.0339 459.8331 460.5752 460.5752 461.1418
   461.5773 461.5800 461.5800 462.9853 463.3877 463.3877 464.8398 464.9323
   464.9323 464.9827 465.0140 465.0140 465.2165 465.2165 466.7484 466.7484
   467.1200 468.5432 468.5432 469.3082 470.0109 470.0252 470.0252 471.3984
   471.5486 471.5486 475.0792 475.0792 475.2160 476.6070 477.0093 477.0093
   478.6377 478.6850 478.6850 478.8361 478.9307 478.9307 479.2052 479.2104
   479.2104 479.9001 479.9001 480.1405 480.4355 480.4355 481.1520 481.3400
   481.7803 482.5082 482.5082 482.5701 482.8522 482.8522 483.5952 484.0137
   484.0137 484.5513 484.5513 484.7586 486.0454 486.1950 486.1950 488.8798
   488.8798 489.4416 489.5914 489.8498 489.8498 490.2305 490.2305 490.6097
   490.6097 490.7228 490.9071 491.4805 491.4805 491.8572 492.4692 492.4692
   492.6967 492.6967 492.8851 492.9044 493.4236 493.5314 493.5314 493.6717

     occupation numbers 
     1.0000   1.0000   1.0000   1.0000   0.0000   0.0000   0.0000   0.0000
     0.0000   0.0000   0.0000   0.0000   0.0000   0.0000   0.0000   0.0000
     0.0000   0.0000   0.0000   0.0000   0.0000   0.0000   0.0000   0.0000
     0.0000   0.0000   0.0000   0.0000   0.0000   0.0000   0.0000   0.0000
     0.0000   0.0000   0.0000   0.0000   0.0000   0.0000   0.0000   0.0000
     0.0000   0.0000   0.0000   0.0000   0.0000   0.0000   0.0000   0.0000
     0.0000   0.0000   0.0000   0.0000   0.0000   0.0000   0.0000   0.0000
     0.0000   0.0000   0.0000   0.0000   0.0000   0.0000   0.0000   0.0000
     0.0000   0.0000   0.0000   0.0000   0.0000   0.0000   0.0000   0.0000
     0.0000   0.0000   0.0000   0.0000   0.0000   0.0000   0.0000   0.0000
     0.0000   0.0000   0.0000   0.0000   0.0000   0.0000   0.0000   0.0000
     0.0000   0.0000   0.0000   0.0000   0.0000   0.0000   0.0000   0.0000
     0.0000   0.0000   0.0000   0.0000   0.0000   0.0000   0.0000   0.0000
     0.0000   0.0000   0.0000   0.0000   0.0000   0.0000   0.0000   0.0000
     0.0000   0.0000   0.0000   0.0000   0.0000   0.0000   0.0000   0.0000
     0.0000   0.0000   0.0000   0.0000   0.0000   0.0000   0.0000   0.0000
     0.0000   0.0000   0.0000   0.0000   0.0000   0.0000   0.0000   0.0000
     0.0000   0.0000   0.0000   0.0000   0.0000   0.0000   0.0000   0.0000
     0.0000   0.0000   0.0000   0.0000   0.0000   0.0000   0.0000   0.0000
     0.0000   0.0000   0.0000   0.0000   0.0000   0.0000   0.0000   0.0000
     0.0000   0.0000   0.0000   0.0000   0.0000   0.0000   0.0000   0.0000
     0.0000   0.0000   0.0000   0.0000   0.0000   0.0000   0.0000   0.0000
     0.0000   0.0000   0.0000   0.0000   0.0000   0.0000   0.0000   0.0000
     0.0000   0.0000   0.0000   0.0000   0.0000   0.0000   0.0000   0.0000
     0.0000   0.0000   0.0000   0.0000   0.0000   0.0000   0.0000   0.0000
     0.0000   0.0000   0.0000   0.0000   0.0000   0.0000   0.0000   0.0000
     0.0000   0.0000   0.0000   0.0000   0.0000   0.0000   0.0000   0.0000
     0.0000   0.0000   0.0000   0.0000   0.0000   0.0000   0.0000   0.0000
     0.0000   0.0000   0.0000   0.0000   0.0000   0.0000   0.0000   0.0000
     0.0000   0.0000   0.0000   0.0000   0.0000   0.0000   0.0000   0.0000
     0.0000   0.0000   0.0000   0.0000   0.0000   0.0000   0.0000   0.0000
     0.0000   0.0000   0.0000   0.0000   0.0000   0.0000   0.0000   0.0000
     0.0000   0.0000   0.0000   0.0000   0.0000   0.0000   0.0000   0.0000
     0.0000   0.0000   0.0000   0.0000   0.0000   0.0000   0.0000   0.0000
     0.0000   0.0000   0.0000   0.0000   0.0000   0.0000   0.0000   0.0000
     0.0000   0.0000   0.0000   0.0000   0.0000   0.0000   0.0000   0.0000
     0.0000   0.0000   0.0000   0.0000   0.0000   0.0000   0.0000   0.0000
     0.0000   0.0000   0.0000   0.0000   0.0000   0.0000   0.0000   0.0000
     0.0000   0.0000   0.0000   0.0000   0.0000   0.0000   0.0000   0.0000
     0.0000   0.0000   0.0000   0.0000   0.0000   0.0000   0.0000   0.0000
     0.0000   0.0000   0.0000   0.0000   0.0000   0.0000   0.0000   0.0000
     0.0000   0.0000   0.0000   0.0000   0.0000   0.0000   0.0000   0.0000
     0.0000   0.0000   0.0000   0.0000   0.0000   0.0000   0.0000   0.0000
     0.0000   0.0000   0.0000   0.0000   0.0000   0.0000   0.0000   0.0000
     0.0000   0.0000   0.0000   0.0000   0.0000   0.0000   0.0000   0.0000
     0.0000   0.0000   0.0000   0.0000   0.0000   0.0000   0.0000   0.0000
     0.0000   0.0000   0.0000   0.0000   0.0000   0.0000   0.0000   0.0000
     0.0000   0.0000   0.0000   0.0000   0.0000   0.0000   0.0000   0.0000
     0.0000   0.0000   0.0000   0.0000   0.0000   0.0000   0.0000   0.0000
     0.0000   0.0000   0.0000   0.0000   0.0000   0.0000   0.0000   0.0000
     0.0000   0.0000   0.0000   0.0000   0.0000   0.0000   0.0000   0.0000
     0.0000   0.0000   0.0000   0.0000   0.0000   0.0000   0.0000   0.0000
     0.0000   0.0000   0.0000   0.0000   0.0000   0.0000   0.0000   0.0000
     0.0000   0.0000   0.0000   0.0000   0.0000   0.0000   0.0000   0.0000
     0.0000   0.0000   0.0000   0.0000   0.0000   0.0000   0.0000   0.0000
     0.0000   0.0000   0.0000   0.0000   0.0000   0.0000   0.0000   0.0000
     0.0000   0.0000   0.0000   0.0000   0.0000   0.0000   0.0000   0.0000
     0.0000   0.0000   0.0000   0.0000   0.0000   0.0000   0.0000   0.0000
     0.0000   0.0000   0.0000   0.0000   0.0000   0.0000   0.0000   0.0000
     0.0000   0.0000   0.0000   0.0000   0.0000   0.0000   0.0000   0.0000
     0.0000   0.0000   0.0000   0.0000   0.0000   0.0000   0.0000   0.0000
     0.0000   0.0000   0.0000   0.0000   0.0000   0.0000   0.0000   0.0000
     0.0000   0.0000   0.0000   0.0000   0.0000   0.0000   0.0000   0.0000
     0.0000   0.0000   0.0000   0.0000   0.0000   0.0000   0.0000   0.0000
     0.0000   0.0000   0.0000   0.0000   0.0000   0.0000   0.0000   0.0000
     0.0000   0.0000   0.0000   0.0000   0.0000   0.0000   0.0000   0.0000
     0.0000   0.0000   0.0000   0.0000   0.0000   0.0000   0.0000   0.0000
     0.0000   0.0000   0.0000   0.0000   0.0000   0.0000   0.0000   0.0000
     0.0000   0.0000   0.0000   0.0000   0.0000   0.0000   0.0000   0.0000
     0.0000   0.0000   0.0000   0.0000   0.0000   0.0000   0.0000   0.0000
     0.0000   0.0000   0.0000   0.0000   0.0000   0.0000   0.0000   0.0000
     0.0000   0.0000   0.0000   0.0000   0.0000   0.0000   0.0000   0.0000
     0.0000   0.0000   0.0000   0.0000   0.0000   0.0000   0.0000   0.0000
     0.0000   0.0000   0.0000   0.0000   0.0000   0.0000   0.0000   0.0000
     0.0000   0.0000   0.0000   0.0000   0.0000   0.0000   0.0000   0.0000
     0.0000   0.0000   0.0000   0.0000   0.0000   0.0000   0.0000   0.0000
     0.0000   0.0000   0.0000   0.0000   0.0000   0.0000   0.0000   0.0000
     0.0000   0.0000   0.0000   0.0000   0.0000   0.0000   0.0000   0.0000
     0.0000   0.0000   0.0000   0.0000   0.0000   0.0000   0.0000   0.0000
     0.0000   0.0000   0.0000   0.0000   0.0000   0.0000   0.0000   0.0000
     0.0000   0.0000   0.0000   0.0000   0.0000   0.0000   0.0000   0.0000
     0.0000   0.0000   0.0000   0.0000   0.0000   0.0000   0.0000   0.0000
     0.0000   0.0000   0.0000   0.0000   0.0000   0.0000   0.0000   0.0000
     0.0000   0.0000   0.0000   0.0000   0.0000   0.0000   0.0000   0.0000
     0.0000   0.0000   0.0000   0.0000   0.0000   0.0000   0.0000   0.0000
     0.0000   0.0000   0.0000   0.0000   0.0000   0.0000   0.0000   0.0000
     0.0000   0.0000   0.0000   0.0000   0.0000   0.0000   0.0000   0.0000
     0.0000   0.0000   0.0000   0.0000   0.0000   0.0000   0.0000   0.0000
     0.0000   0.0000   0.0000   0.0000   0.0000   0.0000   0.0000   0.0000
     0.0000   0.0000   0.0000   0.0000   0.0000   0.0000   0.0000   0.0000
     0.0000   0.0000   0.0000   0.0000   0.0000   0.0000   0.0000   0.0000
     0.0000   0.0000   0.0000   0.0000   0.0000   0.0000   0.0000   0.0000
     0.0000   0.0000   0.0000   0.0000   0.0000   0.0000   0.0000   0.0000
     0.0000   0.0000   0.0000   0.0000   0.0000   0.0000   0.0000   0.0000
     0.0000   0.0000   0.0000   0.0000   0.0000   0.0000   0.0000   0.0000
     0.0000   0.0000   0.0000   0.0000   0.0000   0.0000   0.0000   0.0000
     0.0000   0.0000   0.0000   0.0000   0.0000   0.0000   0.0000   0.0000
     0.0000   0.0000   0.0000   0.0000   0.0000   0.0000   0.0000   0.0000
     0.0000   0.0000   0.0000   0.0000   0.0000   0.0000   0.0000   0.0000
     0.0000   0.0000   0.0000   0.0000   0.0000   0.0000   0.0000   0.0000
     0.0000   0.0000   0.0000   0.0000   0.0000   0.0000   0.0000   0.0000
     0.0000   0.0000   0.0000   0.0000   0.0000   0.0000   0.0000   0.0000
     0.0000   0.0000   0.0000   0.0000   0.0000   0.0000   0.0000   0.0000
     0.0000   0.0000   0.0000   0.0000   0.0000   0.0000   0.0000   0.0000
     0.0000   0.0000   0.0000   0.0000   0.0000   0.0000   0.0000   0.0000
     0.0000   0.0000   0.0000   0.0000   0.0000   0.0000   0.0000   0.0000
     0.0000   0.0000   0.0000   0.0000   0.0000   0.0000   0.0000   0.0000
     0.0000   0.0000   0.0000   0.0000   0.0000   0.0000   0.0000   0.0000
     0.0000   0.0000   0.0000   0.0000   0.0000   0.0000   0.0000   0.0000
     0.0000   0.0000   0.0000   0.0000   0.0000   0.0000   0.0000   0.0000
     0.0000   0.0000   0.0000   0.0000   0.0000   0.0000   0.0000   0.0000
     0.0000   0.0000   0.0000   0.0000   0.0000   0.0000   0.0000   0.0000
     0.0000   0.0000   0.0000   0.0000   0.0000   0.0000   0.0000   0.0000
     0.0000   0.0000   0.0000   0.0000   0.0000   0.0000   0.0000   0.0000
     0.0000   0.0000   0.0000   0.0000   0.0000   0.0000   0.0000   0.0000
     0.0000   0.0000   0.0000   0.0000   0.0000   0.0000   0.0000   0.0000
     0.0000   0.0000   0.0000   0.0000   0.0000   0.0000   0.0000   0.0000
     0.0000   0.0000   0.0000   0.0000   0.0000   0.0000   0.0000   0.0000
     0.0000   0.0000   0.0000   0.0000   0.0000   0.0000   0.0000   0.0000
     0.0000   0.0000   0.0000   0.0000   0.0000   0.0000   0.0000   0.0000
     0.0000   0.0000   0.0000   0.0000   0.0000   0.0000   0.0000   0.0000
     0.0000   0.0000   0.0000   0.0000   0.0000   0.0000   0.0000   0.0000
     0.0000   0.0000   0.0000   0.0000   0.0000   0.0000   0.0000   0.0000
     0.0000   0.0000   0.0000   0.0000   0.0000   0.0000   0.0000   0.0000
     0.0000   0.0000   0.0000   0.0000   0.0000   0.0000   0.0000   0.0000

          k =-0.2652 0.2652-0.2652 (  2734 PWs)   bands (ev):

    -3.9172   0.4438   5.3708   5.3708   8.1969   9.9067   9.9067  14.3910
    15.0587  15.0587  16.3341  20.3157  20.3157  20.8208  23.2950  25.1488
    25.1488  29.7189  30.3931  30.3931  30.5102  33.5125  33.5125  35.1349
    35.1349  36.5578  37.4674  39.3290  39.3290  40.3186  40.3186  41.6426
    44.2329  44.5789  47.5932  47.5932  48.6367  48.6367  50.0143  50.8775
    51.0919  51.0919  54.0075  55.4639  55.4639  58.2069  58.2069  60.0924
    61.3489  61.5943  61.5943  63.3451  63.3451  64.8422  64.8422  66.0085
    66.3783  67.2188  67.8870  68.0022  68.0022  69.8402  69.8402  70.7047
    71.4134  71.4533  71.4533  73.3362  73.3362  74.8268  75.1919  77.6815
    78.9815  78.9815  79.0354  80.8795  80.8795  81.6464  82.9319  82.9319
    83.4174  84.8701  86.9717  86.9717  87.3622  87.3622  89.9029  89.9029
    92.0610  92.0610  92.1448  92.5141  93.7213  93.8560  93.8560  96.4889
    96.4889  96.6951  96.9899  98.6249  98.6347  98.6347  99.8903 101.7554
   101.7554 102.9437 102.9437 104.3005 104.8490 105.3312 106.6365 106.6365
   106.7120 106.7120 106.9000 107.6913 107.6913 109.3411 109.5873 110.5198
   110.5198 112.1697 112.1697 112.7626 114.5214 114.5214 115.8837 115.8837
   116.1058 117.1339 117.1339 118.0064 118.9815 120.3520 120.5222 120.5222
   121.4386 121.4386 122.2774 123.0792 123.2600 123.2600 123.6543 123.6543
   124.7732 124.8164 127.0583 127.0583 128.3344 128.6692 128.6692 131.2146
   131.2146 132.2718 132.2718 134.5286 137.8777 138.8869 139.1938 139.1938
   140.7175 140.7175 141.4251 141.9612 142.6847 142.6847 143.0766 143.0766
   144.1037 144.2035 144.2035 144.9647 146.6218 146.6218 147.3419 147.4594
   147.4594 147.6286 149.3183 149.3183 151.0177 151.0177 151.6341 152.3429
   152.3429 152.8077 152.8435 153.4842 153.4842 154.5015 154.5015 156.0677
   156.3162 156.3162 156.4986 158.4307 160.2164 160.2164 160.2164 160.8498
   160.8498 161.0919 161.5265 161.9663 161.9663 163.9899 163.9899 165.7381
   167.7843 168.2873 168.2873 168.6225 168.6879 168.6879 169.6881 171.3999
   172.4561 172.4561 173.0274 173.0274 173.5126 173.5457 173.5457 175.1822
[...]
   132.8522 132.8522 132.9189 132.9189 134.2467 134.2467 135.1073 135.1073
   137.7106 137.7106 138.0282 138.0282 141.6399 141.6399 141.8125 141.8125
   144.1172 144.1172 145.1505 145.1505 145.4188 145.4188 145.7058 145.7058
   146.7926 146.7926 147.1170 147.1170 148.5250 148.5250 149.4754 149.4754
   151.1323 151.1323 151.2398 151.2398 153.5183 153.5183 154.0428 154.0428
   155.4831 155.4831 155.9548 155.9548 156.8131 156.8131 157.0375 157.0375
   160.3206 160.3206 160.4023 160.4023 162.6509 162.6509 162.6773 162.6773
   166.9739 166.9739 167.4437 167.4437 170.3486 170.3486 170.6338 170.6338
   172.2523 172.2523 172.6929 172.6929 173.7365 173.7365 174.8014 174.8014
   175.0720 175.0720 175.7469 175.7469 176.7271 176.7271 176.8396 176.8396
   180.7748 180.7748 181.0076 181.0076 182.5197 182.5197 182.8338 182.8338
   183.6811 183.6811 184.5803 184.5803 185.2432 185.2432 185.4147 185.4147
   189.7467 189.7467 189.7672 189.7672 190.7972 190.7972 191.8384 191.8384
   194.5835 194.5835 194.7855 194.7855 196.1101 196.1101 196.2985 196.2985
   196.8434 196.8434 197.4825 197.4825 198.0924 198.0924 198.1165 198.1165
   200.0014 200.0014 202.1804 202.1804 204.5528 204.5528 205.9137 205.9137
   206.4228 206.4228 206.7647 206.7647 210.9372 210.9372 211.0422 211.0422
   213.1267 213.1267 213.1513 213.1513 214.0264 214.0264 215.0148 215.0148
   215.1387 215.1387 215.4345 215.4345 216.3100 216.3100 216.5390 216.5390
   217.0826 217.0826 217.1977 217.1977 217.5178 217.5178 217.9436 217.9436
   220.6744 220.6744 221.6029 221.6029 222.9867 222.9867 223.5949 223.5949
   227.1108 227.1108 227.2069 227.2069 227.5434 227.5434 227.6693 227.6693
   228.1863 228.1863 228.8034 228.8034 230.8662 230.8662 231.1949 231.1949
   232.3533 232.3533 233.0213 233.0213 233.7467 233.7467 233.7894 233.7894
   237.4244 237.4244 237.4573 237.4573 238.1063 238.1063 238.1753 238.1753
   238.4491 238.4491 238.7429 238.7429 239.3418 239.3418 239.7454 239.7454
   242.9760 242.9760 243.1155 243.1155 244.9769 244.9769 245.0085 245.0085
   246.2794 246.2794 246.2816 246.2816 248.4028 248.4028 248.5756 248.5756
   248.9095 248.9095 250.1374 250.1374 251.4817 251.4817 251.5935 251.5935
   252.7976 252.7976 252.9190 252.9190 256.9867 256.9867 257.0639 257.0639
   257.7035 257.7035 257.9201 257.9201 261.6927 261.6927 262.1977 262.1977
   262.8889 262.8889 263.7081 263.7081 265.7022 265.7022 265.7947 265.7947
   266.5362 266.5362 266.6548 266.6548 268.3633 268.3633 268.4368 268.4368
   270.1535 270.1535 270.1793 270.1793 273.2542 273.2542 273.2812 273.2812
   275.0578 275.0578 275.5079 275.5079 277.8067 277.8067 277.8516 277.8516
   278.5442 278.5442 278.8612 278.8612 279.3733 279.3733 279.5831 279.5831
   279.8211 279.8211 279.9264 279.9264 281.2656 281.2656 281.3392 281.3392
   284.3736 284.3736 284.5742 284.5742 285.8914 285.8914 285.9689 285.9689
   286.7482 286.7482 286.7704 286.7704 289.0823 289.0823 289.0888 289.0888
   293.8191 293.8191 293.9735 293.9735 295.3498 295.3498 295.5154 295.5154
   295.5615 295.5615 296.0080 296.0080 296.4174 296.4174 298.2191 298.2191
   298.9297 298.9297 299.0079 299.0079 300.4004 300.4004 300.9827 300.9827
   301.3815 301.3815 301.9625 301.9625 303.2789 303.2789 304.0425 304.0425
   306.6414 306.6414 306.8129 306.8129 307.2643 307.2643 307.3219 307.3219
   307.9249 307.9249 308.3740 308.3740 309.4218 309.4218 309.4867 309.4867
   309.7546 309.7546 309.9270 309.9270 316.3283 316.3283 316.3600 316.3600
   317.1259 317.1259 319.0534 319.0534 319.6226 319.6226 319.6643 319.6643
   322.2076 322.2076 323.1245 323.1245 324.7834 324.7834 324.8801 324.8801
   326.0221 326.0221 326.5938 326.5938 326.6925 326.6925 326.7317 326.7317
   328.1884 328.1884 328.6704 328.6704 329.0855 329.0855 329.5008 329.5008
   330.1736 330.1736 330.9599 330.9599 331.3179 331.3179 331.7574 331.7574
   331.9052 331.9052 332.5024 332.5024 332.8665 332.8665 332.8682 332.8682
   335.5438 335.5438 335.5932 335.5932 336.3816 336.3816 336.5827 336.5827
   336.9279 336.9279 337.0717 337.0717 338.0907 338.0907 338.2784 338.2784
   339.7020 339.7020 339.9209 339.9209 339.9508 339.9508 340.0755 340.0755
   342.7916 342.7916 343.1699 343.1699 343.5172 343.5172 343.6606 343.6606
   344.2354 344.2354 344.3455 344.3455 347.9505 347.9505 348.1009 348.1009
   350.8303 350.8303 351.0252 351.0252 351.4971 351.4971 351.5806 351.5806
   352.9094 352.9094 353.3186 353.3186 354.6773 354.6773 354.7333 354.7333
   357.3781 357.3781 357.4120 357.4120 357.6569 357.6569 358.1936 358.1936
   358.9996 358.9996 359.1851 359.1851 359.6830 359.6830 359.8865 359.8865
   360.1312 360.1312 360.2668 360.2668 361.2150 361.2150 361.2155 361.2155
   367.3250 367.3250 367.4148 367.4148 368.7119 368.7119 368.8208 368.8208
   369.8990 369.8990 369.9476 369.9476 370.1027 370.1027 370.5437 370.5437
   370.8990 370.8990 371.3881 371.3881 371.5501 371.5501 371.5835 371.5835
   371.9550 371.9550 372.0736 372.0736 372.1214 372.1214 372.2137 372.2137
   373.8059 373.8059 373.8134 373.8134 379.6436 379.6436 379.7165 379.7165
   380.1543 380.1543 380.1884 380.1884 382.6747 382.6747 382.7143 382.7143
   382.7635 382.7635 382.7750 382.7750 385.4952 385.4952 385.8585 385.8585
   385.9050 385.9050 386.0571 386.0571 387.7137 387.7137 387.8380 387.8380
   388.7723 388.7723 388.8032 388.8032 392.1011 392.1011 392.1141 392.1141
   392.1246 392.1246 392.1584 392.1584 392.6744 392.6744 392.7014 392.7014
   395.7531 395.7531 395.9160 395.9160 400.6900 400.6900 400.7445 400.7445
   400.7989 400.7989 401.0138 401.0138 405.0910 405.0910 405.1920 405.1920
   406.1251 406.1251 406.1442 406.1442 406.7391 406.7391 406.8610 406.8610
   409.8872 409.8872 409.9965 409.9965 410.3071 410.3071 410.4179 410.4179
   410.9217 410.9217 411.0516 411.0516 413.7109 413.7109 413.7495 413.7495
   414.0435 414.0435 414.0597 414.0597 416.5819 416.5819 416.9712 416.9712
   418.9782 418.9782 419.3511 419.3511 419.9080 419.9080 419.9945 419.9945
   421.7014 421.7014 421.7748 421.7748 422.0057 422.0057 422.0101 422.0101
   422.1522 422.1522 422.2951 422.2951 423.7550 423.7550 424.2253 424.2253
   425.8214 425.8214 426.0008 426.0008 428.4682 428.4682 428.6441 428.6441
   430.3225 430.3225 430.5401 430.5401 430.8277 430.8277 430.8292 430.8292
   431.7014 431.7014 431.7368 431.7368 432.3210 432.3210 432.3672 432.3672
   433.5885 433.5885 433.5998 433.5998 434.0584 434.0584 434.3680 434.3680
   434.7138 434.7138 434.7309 434.7309 435.3306 435.3306 435.3539 435.3539
   435.7525 435.7525 436.1185 436.1185 436.5824 436.5824 436.9090 436.9090
   440.4855 440.4855 440.7533 440.7533 441.3080 441.3080 441.6796 441.6796
   443.1469 443.1469 443.2400 443.2400 443.7056 443.7056 443.9875 443.9875
   444.1596 444.1596 444.1906 444.1906 444.3528 444.3528 444.3768 444.3768
   444.5623 444.5623 444.6111 444.6111 452.6345 452.6345 452.8565 452.8565
   453.2060 453.2060 453.3309 453.3309 453.4003 453.4003 453.4676 453.4676
   454.2235 454.2235 454.2318 454.2318 455.4153 455.4153 455.4834 455.4834
   457.7928 457.7928 458.0917 458.0917 459.3209 459.3209 459.4178 459.4178
   460.1015 460.1015 460.1407 460.1407 460.6007 460.6007 460.7580 460.7580
   461.9851 461.9851 462.0946 462.0946 462.6479 462.6479 462.6715 462.6715
   463.6423 463.6423 463.6552 463.6552 465.2525 465.2525 465.3046 465.3046
   467.2124 467.2124 467.4338 467.4338 468.4776 468.4776 468.7239 468.7239
   469.1794 469.1794 469.2922 469.2922 469.6914 469.6914 470.0478 470.0478
   474.8795 474.8795 474.8990 474.8990 475.5104 475.5104 475.5431 475.5431
   479.8506 479.8506 479.9882 479.9882 480.9136 480.9136 480.9237 480.9237
   481.3243 481.3243 481.3846 481.3846 482.4838 482.4838 482.5806 482.5806
   482.8598 482.8598 482.9008 482.9008 483.1953 483.1953 483.2233 483.2233
   483.5705 483.5705 483.5716 483.5716 484.7905 484.7905 484.8090 484.8090
   487.1411 487.1411 487.1575 487.1575 488.9661 488.9661 489.0047 489.0047
   489.4596 489.4596 489.5196 489.5196 490.6163 490.6163 490.6312 490.6312

     occupation numbers 
     1.0000   1.0000   1.0000   1.0000   0.0000   0.0000   0.0000   0.0000
     0.0000   0.0000   0.0000   0.0000   0.0000   0.0000   0.0000   0.0000
     0.0000   0.0000   0.0000   0.0000   0.0000   0.0000   0.0000   0.0000
     0.0000   0.0000   0.0000   0.0000   0.0000   0.0000   0.0000   0.0000
     0.0000   0.0000   0.0000   0.0000   0.0000   0.0000   0.0000   0.0000
     0.0000   0.0000   0.0000   0.0000   0.0000   0.0000   0.0000   0.0000
     0.0000   0.0000   0.0000   0.0000   0.0000   0.0000   0.0000   0.0000
     0.0000   0.0000   0.0000   0.0000   0.0000   0.0000   0.0000   0.0000
     0.0000   0.0000   0.0000   0.0000   0.0000   0.0000   0.0000   0.0000
     0.0000   0.0000   0.0000   0.0000   0.0000   0.0000   0.0000   0.0000
     0.0000   0.0000   0.0000   0.0000   0.0000   0.0000   0.0000   0.0000
     0.0000   0.0000   0.0000   0.0000   0.0000   0.0000   0.0000   0.0000
     0.0000   0.0000   0.0000   0.0000   0.0000   0.0000   0.0000   0.0000
     0.0000   0.0000   0.0000   0.0000   0.0000   0.0000   0.0000   0.0000
     0.0000   0.0000   0.0000   0.0000   0.0000   0.0000   0.0000   0.0000
     0.0000   0.0000   0.0000   0.0000   0.0000   0.0000   0.0000   0.0000
     0.0000   0.0000   0.0000   0.0000   0.0000   0.0000   0.0000   0.0000
     0.0000   0.0000   0.0000   0.0000   0.0000   0.0000   0.0000   0.0000
     0.0000   0.0000   0.0000   0.0000   0.0000   0.0000   0.0000   0.0000
     0.0000   0.0000   0.0000   0.0000   0.0000   0.0000   0.0000   0.0000
     0.0000   0.0000   0.0000   0.0000   0.0000   0.0000   0.0000   0.0000
     0.0000   0.0000   0.0000   0.0000   0.0000   0.0000   0.0000   0.0000
     0.0000   0.0000   0.0000   0.0000   0.0000   0.0000   0.0000   0.0000
     0.0000   0.0000   0.0000   0.0000   0.0000   0.0000   0.0000   0.0000
     0.0000   0.0000   0.0000   0.0000   0.0000   0.0000   0.0000   0.0000
     0.0000   0.0000   0.0000   0.0000   0.0000   0.0000   0.0000   0.0000
     0.0000   0.0000   0.0000   0.0000   0.0000   0.0000   0.0000   0.0000
     0.0000   0.0000   0.0000   0.0000   0.0000   0.0000   0.0000   0.0000
     0.0000   0.0000   0.0000   0.0000   0.0000   0.0000   0.0000   0.0000
     0.0000   0.0000   0.0000   0.0000   0.0000   0.0000   0.0000   0.0000
     0.0000   0.0000   0.0000   0.0000   0.0000   0.0000   0.0000   0.0000
     0.0000   0.0000   0.0000   0.0000   0.0000   0.0000   0.0000   0.0000
     0.0000   0.0000   0.0000   0.0000   0.0000   0.0000   0.0000   0.0000
     0.0000   0.0000   0.0000   0.0000   0.0000   0.0000   0.0000   0.0000
     0.0000   0.0000   0.0000   0.0000   0.0000   0.0000   0.0000   0.0000
     0.0000   0.0000   0.0000   0.0000   0.0000   0.0000   0.0000   0.0000
     0.0000   0.0000   0.0000   0.0000   0.0000   0.0000   0.0000   0.0000
     0.0000   0.0000   0.0000   0.0000   0.0000   0.0000   0.0000   0.0000
     0.0000   0.0000   0.0000   0.0000   0.0000   0.0000   0.0000   0.0000
     0.0000   0.0000   0.0000   0.0000   0.0000   0.0000   0.0000   0.0000
     0.0000   0.0000   0.0000   0.0000   0.0000   0.0000   0.0000   0.0000
     0.0000   0.0000   0.0000   0.0000   0.0000   0.0000   0.0000   0.0000
     0.0000   0.0000   0.0000   0.0000   0.0000   0.0000   0.0000   0.0000
     0.0000   0.0000   0.0000   0.0000   0.0000   0.0000   0.0000   0.0000
     0.0000   0.0000   0.0000   0.0000   0.0000   0.0000   0.0000   0.0000
     0.0000   0.0000   0.0000   0.0000   0.0000   0.0000   0.0000   0.0000
     0.0000   0.0000   0.0000   0.0000   0.0000   0.0000   0.0000   0.0000
     0.0000   0.0000   0.0000   0.0000   0.0000   0.0000   0.0000   0.0000
     0.0000   0.0000   0.0000   0.0000   0.0000   0.0000   0.0000   0.0000
     0.0000   0.0000   0.0000   0.0000   0.0000   0.0000   0.0000   0.0000
     0.0000   0.0000   0.0000   0.0000   0.0000   0.0000   0.0000   0.0000
     0.0000   0.0000   0.0000   0.0000   0.0000   0.0000   0.0000   0.0000
     0.0000   0.0000   0.0000   0.0000   0.0000   0.0000   0.0000   0.0000
     0.0000   0.0000   0.0000   0.0000   0.0000   0.0000   0.0000   0.0000
     0.0000   0.0000   0.0000   0.0000   0.0000   0.0000   0.0000   0.0000
     0.0000   0.0000   0.0000   0.0000   0.0000   0.0000   0.0000   0.0000
     0.0000   0.0000   0.0000   0.0000   0.0000   0.0000   0.0000   0.0000
     0.0000   0.0000   0.0000   0.0000   0.0000   0.0000   0.0000   0.0000
     0.0000   0.0000   0.0000   0.0000   0.0000   0.0000   0.0000   0.0000
     0.0000   0.0000   0.0000   0.0000   0.0000   0.0000   0.0000   0.0000
     0.0000   0.0000   0.0000   0.0000   0.0000   0.0000   0.0000   0.0000
     0.0000   0.0000   0.0000   0.0000   0.0000   0.0000   0.0000   0.0000
     0.0000   0.0000   0.0000   0.0000   0.0000   0.0000   0.0000   0.0000
     0.0000   0.0000   0.0000   0.0000   0.0000   0.0000   0.0000   0.0000
     0.0000   0.0000   0.0000   0.0000   0.0000   0.0000   0.0000   0.0000
     0.0000   0.0000   0.0000   0.0000   0.0000   0.0000   0.0000   0.0000
     0.0000   0.0000   0.0000   0.0000   0.0000   0.0000   0.0000   0.0000
     0.0000   0.0000   0.0000   0.0000   0.0000   0.0000   0.0000   0.0000
     0.0000   0.0000   0.0000   0.0000   0.0000   0.0000   0.0000   0.0000
     0.0000   0.0000   0.0000   0.0000   0.0000   0.0000   0.0000   0.0000
     0.0000   0.0000   0.0000   0.0000   0.0000   0.0000   0.0000   0.0000
     0.0000   0.0000   0.0000   0.0000   0.0000   0.0000   0.0000   0.0000
     0.0000   0.0000   0.0000   0.0000   0.0000   0.0000   0.0000   0.0000
     0.0000   0.0000   0.0000   0.0000   0.0000   0.0000   0.0000   0.0000
     0.0000   0.0000   0.0000   0.0000   0.0000   0.0000   0.0000   0.0000
     0.0000   0.0000   0.0000   0.0000   0.0000   0.0000   0.0000   0.0000
     0.0000   0.0000   0.0000   0.0000   0.0000   0.0000   0.0000   0.0000
     0.0000   0.0000   0.0000   0.0000   0.0000   0.0000   0.0000   0.0000
     0.0000   0.0000   0.0000   0.0000   0.0000   0.0000   0.0000   0.0000
     0.0000   0.0000   0.0000   0.0000   0.0000   0.0000   0.0000   0.0000
     0.0000   0.0000   0.0000   0.0000   0.0000   0.0000   0.0000   0.0000
     0.0000   0.0000   0.0000   0.0000   0.0000   0.0000   0.0000   0.0000
     0.0000   0.0000   0.0000   0.0000   0.0000   0.0000   0.0000   0.0000
     0.0000   0.0000   0.0000   0.0000   0.0000   0.0000   0.0000   0.0000
     0.0000   0.0000   0.0000   0.0000   0.0000   0.0000   0.0000   0.0000
     0.0000   0.0000   0.0000   0.0000   0.0000   0.0000   0.0000   0.0000
     0.0000   0.0000   0.0000   0.0000   0.0000   0.0000   0.0000   0.0000
     0.0000   0.0000   0.0000   0.0000   0.0000   0.0000   0.0000   0.0000
     0.0000   0.0000   0.0000   0.0000   0.0000   0.0000   0.0000   0.0000
     0.0000   0.0000   0.0000   0.0000   0.0000   0.0000   0.0000   0.0000
     0.0000   0.0000   0.0000   0.0000   0.0000   0.0000   0.0000   0.0000
     0.0000   0.0000   0.0000   0.0000   0.0000   0.0000   0.0000   0.0000
     0.0000   0.0000   0.0000   0.0000   0.0000   0.0000   0.0000   0.0000
     0.0000   0.0000   0.0000   0.0000   0.0000   0.0000   0.0000   0.0000
     0.0000   0.0000   0.0000   0.0000   0.0000   0.0000   0.0000   0.0000
     0.0000   0.0000   0.0000   0.0000   0.0000   0.0000   0.0000   0.0000
     0.0000   0.0000   0.0000   0.0000   0.0000   0.0000   0.0000   0.0000
     0.0000   0.0000   0.0000   0.0000   0.0000   0.0000   0.0000   0.0000
     0.0000   0.0000   0.0000   0.0000   0.0000   0.0000   0.0000   0.0000
     0.0000   0.0000   0.0000   0.0000   0.0000   0.0000   0.0000   0.0000
     0.0000   0.0000   0.0000   0.0000   0.0000   0.0000   0.0000   0.0000
     0.0000   0.0000   0.0000   0.0000   0.0000   0.0000   0.0000   0.0000
     0.0000   0.0000   0.0000   0.0000   0.0000   0.0000   0.0000   0.0000
     0.0000   0.0000   0.0000   0.0000   0.0000   0.0000   0.0000   0.0000
     0.0000   0.0000   0.0000   0.0000   0.0000   0.0000   0.0000   0.0000
     0.0000   0.0000   0.0000   0.0000   0.0000   0.0000   0.0000   0.0000
     0.0000   0.0000   0.0000   0.0000   0.0000   0.0000   0.0000   0.0000
     0.0000   0.0000   0.0000   0.0000   0.0000   0.0000   0.0000   0.0000
     0.0000   0.0000   0.0000   0.0000   0.0000   0.0000   0.0000   0.0000
     0.0000   0.0000   0.0000   0.0000   0.0000   0.0000   0.0000   0.0000
     0.0000   0.0000   0.0000   0.0000   0.0000   0.0000   0.0000   0.0000
     0.0000   0.0000   0.0000   0.0000   0.0000   0.0000   0.0000   0.0000
     0.0000   0.0000   0.0000   0.0000   0.0000   0.0000   0.0000   0.0000
     0.0000   0.0000   0.0000   0.0000   0.0000   0.0000   0.0000   0.0000
     0.0000   0.0000   0.0000   0.0000   0.0000   0.0000   0.0000   0.0000
     0.0000   0.0000   0.0000   0.0000   0.0000   0.0000   0.0000   0.0000
     0.0000   0.0000   0.0000   0.0000   0.0000   0.0000   0.0000   0.0000
     0.0000   0.0000   0.0000   0.0000   0.0000   0.0000   0.0000   0.0000
     0.0000   0.0000   0.0000   0.0000   0.0000   0.0000   0.0000   0.0000
     0.0000   0.0000   0.0000   0.0000   0.0000   0.0000   0.0000   0.0000
     0.0000   0.0000   0.0000   0.0000   0.0000   0.0000   0.0000   0.0000
     0.0000   0.0000   0.0000   0.0000   0.0000   0.0000   0.0000   0.0000
     0.0000   0.0000   0.0000   0.0000   0.0000   0.0000   0.0000   0.0000
     0.0000   0.0000   0.0000   0.0000   0.0000   0.0000   0.0000   0.0000
     0.0000   0.0000   0.0000   0.0000   0.0000   0.0000   0.0000   0.0000

     highest occupied, lowest unoccupied level (ev):     6.4691    7.0345

     Writing all to output data dir ./out/aiida.save/
 
     init_run     :      0.03s CPU      0.13s WALL (       1 calls)
     electrons    :    620.80s CPU    662.23s WALL (       1 calls)

     Called by init_run:
     wfcinit      :      0.00s CPU      0.03s WALL (       1 calls)
     wfcinit:wfcr :     13.97s CPU     15.01s WALL (      15 calls)
     potinit      :      0.01s CPU      0.03s WALL (       1 calls)
     hinit0       :      0.01s CPU      0.05s WALL (       1 calls)

     Called by electrons:
     c_bands      :    620.79s CPU    662.18s WALL (       1 calls)
     v_of_rho     :      0.00s CPU      0.00s WALL (       1 calls)
     v_h          :      0.00s CPU      0.00s WALL (       1 calls)
     v_xc         :      0.00s CPU      0.00s WALL (       1 calls)

     Called by c_bands:
     init_us_2    :      0.00s CPU      0.00s WALL (      15 calls)
     init_us_2:cp :      0.00s CPU      0.00s WALL (      15 calls)
     cegterg      :    577.20s CPU    615.12s WALL (      15 calls)

     Called by sum_band:

     Called by *egterg:
     cdiaghg      :    534.02s CPU    570.36s WALL (     168 calls)
     cegterg:over :     16.66s CPU     17.09s WALL (     153 calls)
     cegterg:upda :      7.85s CPU      8.13s WALL (     153 calls)
     cegterg:last :     16.62s CPU     17.74s WALL (      75 calls)
     cdiaghg:chol :     17.21s CPU     19.39s WALL (     168 calls)
     cdiaghg:inve :     25.72s CPU     27.50s WALL (     168 calls)
     cdiaghg:para :     62.60s CPU     69.39s WALL (     336 calls)
     h_psi        :     12.12s CPU     12.82s WALL (     183 calls)
     g_psi        :      0.10s CPU      0.10s WALL (     153 calls)

     Called by h_psi:
     h_psi:calbec :      0.19s CPU      0.20s WALL (     183 calls)
     vloc_psi     :     11.59s CPU     12.27s WALL (     183 calls)
     add_vuspsi   :      0.14s CPU      0.14s WALL (     183 calls)

     General routines
     calbec       :      0.19s CPU      0.20s WALL (     183 calls)
     fft          :      0.00s CPU      0.04s WALL (      10 calls)
     fftw         :     10.35s CPU     10.97s WALL (  185058 calls)
     davcio       :      0.02s CPU      1.45s WALL (      30 calls)
 
     Parallel routines
 
     PWSCF        :  10m21.86s CPU  11m 6.64s WALL

 
   This run was terminated on:  11: 8:58   5Dec2023            

=------------------------------------------------------------------------------=
   JOB DONE.
=------------------------------------------------------------------------------=
