
     Program PWSCF v.7.1 starts on 18Nov2023 at  2:32:24 

     This program is part of the open-source Quantum ESPRESSO suite
     for quantum simulation of materials; please cite
         "P. Giannozzi et al., J. Phys.:Condens. Matter 21 395502 (2009);
         "P. Giannozzi et al., J. Phys.:Condens. Matter 29 465901 (2017);
         "P. Giannozzi et al., J. Chem. Phys. 152 154105 (2020);
          URL http://www.quantum-espresso.org", 
     in publications or presentations arising from this work. More details at
     http://www.quantum-espresso.org/quote

     Parallel version (MPI), running on     8 processors

     MPI processes distributed on     1 nodes
     123384 MiB available memory on the printing compute node when the environment starts
 
     Reading input from pw_mp-2605_scf_k3000_E125.in
Warning: card &CELL ignored
Warning: card / ignored

     Current dimensions of program PWSCF are:
     Max number of different atomic species (ntypx) = 10
     Max number of k-points (npk) =  40000
     Max angular momentum in pseudopotentials (lmaxx) =  4
 
     R & G space division:  proc/nbgrp/npool/nimage =       8
     Subspace diagonalization in iterative solution of the eigenvalue problem:
     a serial algorithm will be used

 
     Parallelization info
     --------------------
     sticks:   dense  smooth     PW     G-vecs:    dense   smooth      PW
     Min         177     177     52                 4444     4444     698
     Max         178     178     53                 4448     4448     701
     Sum        1417    1417    421                35557    35557    5601
 
     Using Slab Decomposition
 


     bravais-lattice index     =            2
     lattice parameter (alat)  =       9.0841  a.u.
     unit-cell volume          =     187.4084 (a.u.)^3
     number of atoms/cell      =            2
     number of atomic types    =            2
     number of electrons       =        16.00
     number of Kohn-Sham states=           16
     kinetic-energy cutoff     =     125.0000  Ry
     charge density cutoff     =     500.0000  Ry
     scf convergence threshold =      1.0E-10
     mixing beta               =       0.7000
     number of iterations used =            8  plain     mixing
     Exchange-correlation= PBE
                           (   1   4   3   4   0   0   0)

     celldm(1)=   9.084123  celldm(2)=   0.000000  celldm(3)=   0.000000
     celldm(4)=   0.000000  celldm(5)=   0.000000  celldm(6)=   0.000000

     crystal axes: (cart. coord. in units of alat)
               a(1) = (  -0.500000   0.000000   0.500000 )  
               a(2) = (   0.000000   0.500000   0.500000 )  
               a(3) = (  -0.500000   0.500000   0.000000 )  

     reciprocal axes: (cart. coord. in units 2 pi/alat)
               b(1) = ( -1.000000 -1.000000  1.000000 )  
               b(2) = (  1.000000  1.000000  1.000000 )  
               b(3) = ( -1.000000  1.000000 -1.000000 )  


     PseudoPot. # 1 for Ca read from file:
     /usr/scratch4/magr4985/MG/HTDF/pseudo/SG15/Ca.upf
     MD5 check sum: b43c970dc090f2312d256360aabdb6f1
     Pseudo is Norm-conserving, Zval = 10.0
     Generated using ONCVPSP code by D. R. Hamann
     Using radial grid of  602 points,  6 beta functions with: 
                l(1) =   0
                l(2) =   0
                l(3) =   1
                l(4) =   1
                l(5) =   2
                l(6) =   2

     PseudoPot. # 2 for O  read from file:
     /usr/scratch4/magr4985/MG/HTDF/pseudo/SG15/O.upf
     MD5 check sum: e36c48deb68f4e355fffe4602be2c42c
     Pseudo is Norm-conserving, Zval =  6.0
     Generated using ONCVPSP code by D. R. Hamann
     Using radial grid of  602 points,  4 beta functions with: 
                l(1) =   0
                l(2) =   0
                l(3) =   1
                l(4) =   1

     atomic species   valence    mass     pseudopotential
        Ca            10.00    40.07800     Ca( 1.00)
        O              6.00    15.99940     O ( 1.00)

     48 Sym. Ops., with inversion, found



   Cartesian axes

     site n.     atom                  positions (alat units)
         1           Ca  tau(   1) = (   0.0000000   0.0000000   0.0000000  )
         2           O   tau(   2) = (  -0.5000000   0.5000000   0.5000000  )

     number of k points=    72  Gaussian smearing, width (Ry)=  0.0005
                       cart. coord. in units 2pi/alat
        k(    1) = (   0.0000000   0.0000000   0.0000000), wk =   0.0011574
        k(    2) = (  -0.0833333   0.0833333  -0.0833333), wk =   0.0092593
        k(    3) = (  -0.1666667   0.1666667  -0.1666667), wk =   0.0092593
        k(    4) = (  -0.2500000   0.2500000  -0.2500000), wk =   0.0092593
        k(    5) = (  -0.3333333   0.3333333  -0.3333333), wk =   0.0092593
        k(    6) = (  -0.4166667   0.4166667  -0.4166667), wk =   0.0092593
        k(    7) = (   0.5000000  -0.5000000   0.5000000), wk =   0.0046296
        k(    8) = (   0.0000000   0.1666667   0.0000000), wk =   0.0069444
        k(    9) = (  -0.0833333   0.2500000  -0.0833333), wk =   0.0277778
        k(   10) = (  -0.1666667   0.3333333  -0.1666667), wk =   0.0277778
        k(   11) = (  -0.2500000   0.4166667  -0.2500000), wk =   0.0277778
        k(   12) = (  -0.3333333   0.5000000  -0.3333333), wk =   0.0277778
        k(   13) = (   0.5833333  -0.4166667   0.5833333), wk =   0.0277778
        k(   14) = (   0.5000000  -0.3333333   0.5000000), wk =   0.0277778
        k(   15) = (   0.4166667  -0.2500000   0.4166667), wk =   0.0277778
        k(   16) = (   0.3333333  -0.1666667   0.3333333), wk =   0.0277778
        k(   17) = (   0.2500000  -0.0833333   0.2500000), wk =   0.0277778
        k(   18) = (   0.1666667  -0.0000000   0.1666667), wk =   0.0138889
        k(   19) = (   0.0000000   0.3333333   0.0000000), wk =   0.0069444
        k(   20) = (  -0.0833333   0.4166667  -0.0833333), wk =   0.0277778
        k(   21) = (  -0.1666667   0.5000000  -0.1666667), wk =   0.0277778
        k(   22) = (  -0.2500000   0.5833333  -0.2500000), wk =   0.0277778
        k(   23) = (   0.6666667  -0.3333333   0.6666667), wk =   0.0277778
        k(   24) = (   0.5833333  -0.2500000   0.5833333), wk =   0.0277778
        k(   25) = (   0.5000000  -0.1666667   0.5000000), wk =   0.0277778
        k(   26) = (   0.4166667  -0.0833333   0.4166667), wk =   0.0277778
        k(   27) = (   0.3333333   0.0000000   0.3333333), wk =   0.0138889
        k(   28) = (   0.0000000   0.5000000   0.0000000), wk =   0.0069444
        k(   29) = (  -0.0833333   0.5833333  -0.0833333), wk =   0.0277778
        k(   30) = (  -0.1666667   0.6666667  -0.1666667), wk =   0.0277778
        k(   31) = (   0.7500000  -0.2500000   0.7500000), wk =   0.0277778
        k(   32) = (   0.6666667  -0.1666667   0.6666667), wk =   0.0277778
        k(   33) = (   0.5833333  -0.0833333   0.5833333), wk =   0.0277778
        k(   34) = (   0.5000000   0.0000000   0.5000000), wk =   0.0138889
        k(   35) = (   0.0000000   0.6666667   0.0000000), wk =   0.0069444
        k(   36) = (  -0.0833333   0.7500000  -0.0833333), wk =   0.0277778
        k(   37) = (   0.8333333  -0.1666667   0.8333333), wk =   0.0277778
        k(   38) = (   0.7500000  -0.0833333   0.7500000), wk =   0.0277778
        k(   39) = (   0.6666667  -0.0000000   0.6666667), wk =   0.0138889
        k(   40) = (   0.0000000   0.8333333   0.0000000), wk =   0.0069444
        k(   41) = (   0.9166667  -0.0833333   0.9166667), wk =   0.0277778
        k(   42) = (   0.8333333   0.0000000   0.8333333), wk =   0.0138889
        k(   43) = (   0.0000000  -1.0000000   0.0000000), wk =   0.0034722
        k(   44) = (  -0.1666667   0.3333333   0.0000000), wk =   0.0277778
        k(   45) = (  -0.2500000   0.4166667  -0.0833333), wk =   0.0555556
        k(   46) = (  -0.3333333   0.5000000  -0.1666667), wk =   0.0555556
        k(   47) = (   0.5833333  -0.4166667   0.7500000), wk =   0.0555556
        k(   48) = (   0.5000000  -0.3333333   0.6666667), wk =   0.0277778
        k(   49) = (  -0.1666667   0.5000000   0.0000000), wk =   0.0277778
        k(   50) = (  -0.2500000   0.5833333  -0.0833333), wk =   0.0555556
        k(   51) = (   0.6666667  -0.3333333   0.8333333), wk =   0.0555556
        k(   52) = (   0.5833333  -0.2500000   0.7500000), wk =   0.0555556
        k(   53) = (   0.5000000  -0.1666667   0.6666667), wk =   0.0555556
        k(   54) = (   0.4166667  -0.0833333   0.5833333), wk =   0.0555556
        k(   55) = (   0.3333333   0.0000000   0.5000000), wk =   0.0277778
        k(   56) = (  -0.1666667   0.6666667  -0.0000000), wk =   0.0277778
        k(   57) = (   0.7500000  -0.2500000   0.9166667), wk =   0.0555556
        k(   58) = (   0.6666667  -0.1666667   0.8333333), wk =   0.0555556
        k(   59) = (   0.5833333  -0.0833333   0.7500000), wk =   0.0555556
        k(   60) = (   0.5000000   0.0000000   0.6666667), wk =   0.0277778
        k(   61) = (   0.8333333  -0.1666667   1.0000000), wk =   0.0277778
        k(   62) = (   0.7500000  -0.0833333   0.9166667), wk =   0.0555556
        k(   63) = (   0.6666667   0.0000000   0.8333333), wk =   0.0277778
        k(   64) = (  -0.1666667  -1.0000000  -0.0000000), wk =   0.0138889
        k(   65) = (   0.6666667  -0.3333333   1.0000000), wk =   0.0277778
        k(   66) = (   0.5833333  -0.2500000   0.9166667), wk =   0.0555556
        k(   67) = (   0.5000000  -0.1666667   0.8333333), wk =   0.0277778
        k(   68) = (   0.6666667  -0.1666667   1.0000000), wk =   0.0277778
        k(   69) = (   0.5833333  -0.0833333   0.9166667), wk =   0.0555556
        k(   70) = (   0.5000000   0.0000000   0.8333333), wk =   0.0277778
        k(   71) = (  -0.3333333  -1.0000000   0.0000000), wk =   0.0138889
        k(   72) = (  -0.5000000  -1.0000000   0.0000000), wk =   0.0069444

     Dense  grid:    35557 G-vectors     FFT dimensions: (  45,  45,  45)

     Estimated max dynamical RAM per process >       7.35 MB

     Estimated total dynamical RAM >      58.84 MB

     Initial potential from superposition of free atoms

     starting charge      15.7951, renormalised to      16.0000
     Starting wfcs are random

     total cpu time spent up to now is        1.7 secs

     Self-consistent Calculation

     iteration #  1     ecut=   125.00 Ry     beta= 0.70
     Davidson diagonalization with overlap
     ethr =  1.00E-02,  avg # of iterations =  9.1

     total cpu time spent up to now is        5.8 secs

     total energy              =    -105.81640804 Ry
     estimated scf accuracy    <       0.35080685 Ry

     iteration #  2     ecut=   125.00 Ry     beta= 0.70
     Davidson diagonalization with overlap
     ethr =  2.19E-03,  avg # of iterations =  2.2

     total cpu time spent up to now is        7.5 secs

     total energy              =    -105.80862822 Ry
     estimated scf accuracy    <       0.88383385 Ry

     iteration #  3     ecut=   125.00 Ry     beta= 0.70
     Davidson diagonalization with overlap
     ethr =  2.19E-03,  avg # of iterations =  2.0

     total cpu time spent up to now is        9.1 secs

     total energy              =    -105.98523945 Ry
     estimated scf accuracy    <       0.00927336 Ry

     iteration #  4     ecut=   125.00 Ry     beta= 0.70
     Davidson diagonalization with overlap
     ethr =  5.80E-05,  avg # of iterations =  2.2

     total cpu time spent up to now is       10.4 secs

     total energy              =    -105.98705835 Ry
     estimated scf accuracy    <       0.00031134 Ry

     iteration #  5     ecut=   125.00 Ry     beta= 0.70
     Davidson diagonalization with overlap
     ethr =  1.95E-06,  avg # of iterations =  3.4

     total cpu time spent up to now is       11.9 secs

     total energy              =    -105.98710742 Ry
     estimated scf accuracy    <       0.00000311 Ry

     iteration #  6     ecut=   125.00 Ry     beta= 0.70
     Davidson diagonalization with overlap
     ethr =  1.94E-08,  avg # of iterations =  2.2

     total cpu time spent up to now is       13.5 secs

     total energy              =    -105.98710841 Ry
     estimated scf accuracy    <       0.00000014 Ry

     iteration #  7     ecut=   125.00 Ry     beta= 0.70
     Davidson diagonalization with overlap
     ethr =  8.78E-10,  avg # of iterations =  2.0

     total cpu time spent up to now is       15.0 secs

     total energy              =    -105.98710843 Ry
     estimated scf accuracy    <       0.00000001 Ry

     iteration #  8     ecut=   125.00 Ry     beta= 0.70
     Davidson diagonalization with overlap
     ethr =  8.12E-11,  avg # of iterations =  2.0

     total cpu time spent up to now is       16.5 secs

     total energy              =    -105.98710844 Ry
     estimated scf accuracy    <          1.3E-10 Ry

     iteration #  9     ecut=   125.00 Ry     beta= 0.70
     Davidson diagonalization with overlap
     ethr =  8.39E-13,  avg # of iterations =  2.1

     total cpu time spent up to now is       18.1 secs

     End of self-consistent calculation

          k = 0.0000 0.0000 0.0000 (  4477 PWs)   bands (ev):

   -29.8980 -10.6674 -10.6674 -10.6674  -7.7092   7.7795   7.7795   7.7795
    12.5114  13.9961  13.9961  13.9961  15.4923  15.4923  22.8660  30.1844

          k =-0.0833 0.0833-0.0833 (  4441 PWs)   bands (ev):

   -29.8913 -10.7645 -10.6710 -10.6710  -7.6075   7.5230   7.6818   7.6818
    12.8356  13.9706  14.1146  14.1146  15.6596  15.6596  23.1481  29.6737

          k =-0.1667 0.1667-0.1667 (  4429 PWs)   bands (ev):

   -29.8728 -11.0032 -10.6808 -10.6808  -7.3557   6.9267   7.4318   7.4318
    13.6104  13.9784  14.4504  14.4504  16.1121  16.1121  23.6991  28.7928

          k =-0.2500 0.2500-0.2500 (  4432 PWs)   bands (ev):

   -29.8475 -11.2857 -10.6942 -10.6942  -7.0540   6.2541   7.1226   7.1226
    14.0287  14.6425  14.9447  14.9447  16.7333  16.7333  23.7091  27.6934

          k =-0.3333 0.3333-0.3333 (  4419 PWs)   bands (ev):

   -29.8220 -11.5346 -10.7074 -10.7074  -6.7843   5.6746   6.8424   6.8424
    14.3066  15.4917  15.4917  15.5286  17.3899  17.3899  22.9840  26.2743

          k =-0.4167 0.4167-0.4167 (  4419 PWs)   bands (ev):

   -29.8033 -11.7015 -10.7170 -10.7170  -6.6009   5.2886   6.6520   6.6520
    14.6440  15.9328  15.9328  16.1121  17.9333  17.9333  22.2630  25.1692

          k = 0.5000-0.5000 0.5000 (  4446 PWs)   bands (ev):

   -29.7964 -11.7600 -10.7205 -10.7205  -6.5362   5.1536   6.5850   6.5850
    14.8125  16.1039  16.1039  16.2927  18.1590  18.1590  21.9918  24.7363

          k = 0.0000 0.1667 0.0000 (  4436 PWs)   bands (ev):

   -29.8890 -10.7719 -10.6825 -10.6825  -7.5811   7.3440   7.7208   7.7208
    12.9000  13.7471  14.2579  14.2579  15.5610  15.8695  23.2494  29.4847

          k =-0.0833 0.2500-0.0833 (  4442 PWs)   bands (ev):

   -29.8745 -10.9448 -10.6992 -10.6890  -7.3990   6.8905   7.5345   7.5825
    13.4474  13.6025  14.5542  14.6051  15.7891  16.3469  23.7461  28.5721

          k =-0.1667 0.3333-0.1667 (  4431 PWs)   bands (ev):

   -29.8516 -11.1973 -10.7165 -10.6982  -7.1400   6.3569   7.1995   7.3240
    13.6197  14.3323  14.9434  15.0944  16.2834  16.9559  23.9662  27.5470

          k =-0.2500 0.4167-0.2500 (  4425 PWs)   bands (ev):

   -29.8262 -11.4434 -10.7298 -10.7144  -6.8846   5.8502   6.8794   7.0334
    13.8736  15.1461  15.5011  15.6199  16.9309  17.5641  23.3288  26.3332

          k =-0.3333 0.5000-0.3333 (  4431 PWs)   bands (ev):

   -29.8052 -11.6279 -10.7355 -10.7333  -6.6901   5.4636   6.6648   6.7872
    14.2982  15.4718  16.0278  16.2852  17.5905  18.0639  22.4526  25.3089

          k = 0.5833-0.4167 0.5833 (  4424 PWs)   bands (ev):

   -29.7944 -11.7182 -10.7498 -10.7323  -6.5922   5.2681   6.5896   6.6367
    14.7126  15.4947  16.1676  16.7552  18.0525  18.3287  21.9557  24.6299

          k = 0.5000-0.3333 0.5000 (  4430 PWs)   bands (ev):

   -29.7967 -11.7006 -10.7591 -10.7209  -6.6078   5.3008   6.6085   6.6580
    14.6920  15.5239  15.9755  16.6786  18.1163  18.1705  22.0579  24.5373

          k = 0.4167-0.2500 0.4167 (  4438 PWs)   bands (ev):

   -29.8114 -11.5781 -10.7582 -10.7045  -6.7347   5.5602   6.7074   6.8542
    14.3124  15.4578  15.5261  16.1566  17.5969  17.8004  22.7150  25.1301

          k = 0.3333-0.1667 0.3333 (  4432 PWs)   bands (ev):

   -29.8346 -11.3713 -10.7467 -10.6872  -6.9517   6.0071   6.9173   7.1398
    13.9738  14.9129  14.9857  15.5441  16.8806  17.2577  23.5874  26.0805

          k = 0.2500-0.0833 0.2500 (  4430 PWs)   bands (ev):

   -29.8600 -11.1204 -10.7260 -10.6738  -7.2167   6.5683   7.1977   7.4434
    13.8077  14.0610  14.5105  15.0014  16.2370  16.6299  23.9351  27.2480

          k = 0.1667-0.0000 0.1667 (  4435 PWs)   bands (ev):

   -29.8806 -10.8909 -10.6983 -10.6678  -7.4639   7.1340   7.4818   7.6540
    13.2708  13.8523  14.2025  14.4995  15.7939  16.0521  23.5330  28.6485

          k = 0.0000 0.3333 0.0000 (  4452 PWs)   bands (ev):

   -29.8647 -10.9887 -10.7237 -10.7237  -7.3326   6.5794   7.5934   7.5934
    13.1544  13.6322  14.9438  14.9438  15.7540  16.8142  24.1622  28.1557

          k =-0.0833 0.4167-0.0833 (  4441 PWs)   bands (ev):

   -29.8458 -11.1454 -10.7479 -10.7413  -7.1878   6.2483   7.4022   7.4595
    12.9628  14.1942  15.3597  15.4045  16.0245  17.3588  24.5016  27.0535

          k =-0.1667 0.5000-0.1667 (  4431 PWs)   bands (ev):

   -29.8228 -11.3375 -10.7652 -10.7616  -7.0146   5.9670   7.0625   7.2318
    13.0762  14.9621  15.7785  15.8833  16.5426  17.8801  23.8919  26.0410

          k =-0.2500 0.5833-0.2500 (  4423 PWs)   bands (ev):

   -29.8020 -11.5016 -10.7926 -10.7712  -6.8576   5.7442   6.7577   6.9837
    13.4680  15.4433  16.2394  16.3197  17.1894  18.3713  22.7623  25.1859

          k = 0.6667-0.3333 0.6667 (  4430 PWs)   bands (ev):

   -29.7889 -11.6014 -10.8268 -10.7642  -6.7488   5.5814   6.6142   6.7800
    14.0546  15.3549  16.3489  16.8030  17.7688  18.8596  21.9416  24.3260

          k = 0.5833-0.2500 0.5833 (  4423 PWs)   bands (ev):

   -29.7872 -11.6201 -10.8526 -10.7461  -6.7093   5.5146   6.6530   6.6637
    14.6458  14.9800  16.1544  16.7922  18.0817  19.0432  21.7832  23.8183

          k = 0.5000-0.1667 0.5000 (  4425 PWs)   bands (ev):

   -29.7972 -11.5585 -10.8589 -10.7217  -6.7488   5.5863   6.6563   6.8306
    14.3985  15.1627  15.7245  16.3934  18.0513  18.4945  22.3906  23.9178

          k = 0.4167-0.0833 0.4167 (  4426 PWs)   bands (ev):

   -29.8163 -11.4328 -10.8381 -10.6975  -6.8640   5.8065   6.7591   7.0824
    14.0124  15.0724  15.2175  15.9790  17.5724  17.7280  23.3899  24.4547

          k = 0.3333 0.0000 0.3333 (  4419 PWs)   bands (ev):

   -29.8393 -11.2740 -10.7897 -10.6799  -7.0338   6.1517   6.9530   7.3208
    13.8149  14.5664  14.7812  15.5755  16.7413  17.2132  24.0125  25.5708

          k = 0.0000 0.5000 0.0000 (  4432 PWs)   bands (ev):

   -29.8316 -11.1731 -10.7800 -10.7800  -7.1888   6.1058   7.4797   7.4797
    12.4844  14.3982  15.8182  15.8182  16.0316  17.7765  25.1365  26.6115

          k =-0.0833 0.5833-0.0833 (  4438 PWs)   bands (ev):

   -29.8128 -11.2664 -10.8097 -10.8042  -7.1453   6.0214   7.3117   7.3769
    12.3535  14.9206  16.2030  16.2184  16.3405  18.1561  24.6373  25.4091

          k =-0.1667 0.6667-0.1667 (  4424 PWs)   bands (ev):

   -29.7944 -11.3672 -10.8570 -10.8142  -7.0674   6.0030   6.9863   7.1903
    12.5901  15.5010  16.4282  16.5134  16.8516  18.6193  23.1695  24.8020

          k = 0.7500-0.2500 0.7500 (  4427 PWs)   bands (ev):

   -29.7814 -11.4385 -10.9207 -10.8074  -6.9728   5.9931   6.6983   6.9806
    13.1242  15.6189  16.5890  16.6148  17.3961  19.3345  22.1178  23.9381

          k = 0.6667-0.1667 0.6667 (  4420 PWs)   bands (ev):

   -29.7773 -11.4714 -10.9741 -10.7856  -6.8845   5.8923   6.6329   6.8031
    13.8428  15.2198  16.4411  16.6151  17.8421  20.1077  21.5789  23.0987

          k = 0.5833-0.0833 0.5833 (  4424 PWs)   bands (ev):

   -29.7832 -11.4767 -10.9826 -10.7544  -6.8269   5.7630   6.6964   6.7554
    14.5668  14.6992  16.0551  16.3923  18.0705  19.8210  22.0064  22.8273

          k = 0.5000 0.0000 0.5000 (  4403 PWs)   bands (ev):

   -29.7975 -11.4654 -10.9305 -10.7221  -6.8183   5.7222   6.6807   6.9340
    14.2625  15.0345  15.6023  16.1440  18.0261  18.6911  23.0153  23.1475

          k = 0.0000 0.6667 0.0000 (  4424 PWs)   bands (ev):

   -29.7988 -11.2613 -10.8362 -10.8362  -7.2405   6.0857   7.4193   7.4193
    11.9189  15.1376  16.3277  16.6086  16.6086  18.3422  24.1100  26.1546

          k =-0.0833 0.7500-0.0833 (  4415 PWs)   bands (ev):

   -29.7845 -11.2870 -10.8796 -10.8529  -7.2667   6.1867   7.2704   7.3464
    11.8964  15.5433  16.5667  16.7658  16.8884  18.6703  22.9495  25.0919

          k = 0.8333-0.1667 0.8333 (  4403 PWs)   bands (ev):

   -29.7738 -11.2957 -10.9742 -10.8501  -7.2120   6.3082   6.9319   7.1876
    12.2704  15.9060  16.5203  16.8735  17.0692  19.4198  22.0583  24.0838

          k = 0.7500-0.0833 0.7500 (  4412 PWs)   bands (ev):

   -29.7696 -11.2861 -11.0886 -10.8284  -7.0947   6.3499   6.6146   6.9943
    12.9372  15.7303  16.3773  16.7731  17.4708  20.4766  21.6334  22.8504

          k = 0.6667-0.0000 0.6667 (  4426 PWs)   bands (ev):

   -29.7731 -11.3567 -11.0883 -10.7934  -6.9528   6.0579   6.6512   6.8174
    13.7637  15.1733  16.4000  16.4440  17.8547  21.1939  21.5507  21.9676

          k = 0.0000 0.8333 0.0000 (  4416 PWs)   bands (ev):

   -29.7749 -11.2705 -10.8772 -10.8772  -7.3934   6.3265   7.4030   7.4030
    11.5516  15.6580  16.5580  17.1100  17.1100  18.7106  22.1561  25.8189

          k = 0.9167-0.0833 0.9167 (  4405 PWs)   bands (ev):

   -29.7683 -11.2565 -10.9315 -10.8810  -7.4004   6.4371   7.2546   7.3439
    11.6554  15.8635  16.7370  16.9524  17.1821  19.2214  21.5139  24.9840

          k = 0.8333 0.0000 0.8333 (  4400 PWs)   bands (ev):

   -29.7663 -11.2137 -11.0629 -10.8632  -7.2864   6.5094   6.8835   7.1920
    12.1601  16.1109  16.3785  17.0540  17.0688  20.0310  21.3317  23.8447

          k = 0.0000-1.0000 0.0000 (  4432 PWs)   bands (ev):

   -29.7662 -11.2616 -10.8923 -10.8923  -7.4730   6.4704   7.4023   7.4023
    11.4251  15.8080  16.6455  17.2712  17.2712  19.0363  21.2370  25.7525

          k =-0.1667 0.3333 0.0000 (  4439 PWs)   bands (ev):

   -29.8578 -11.0951 -10.7414 -10.6925  -7.2333   6.4811   7.3153   7.5078
    13.4110  13.9711  14.8198  15.1266  16.0412  16.8900  24.1372  27.1071

          k =-0.2500 0.4167-0.0833 (  4439 PWs)   bands (ev):

   -29.8349 -11.2943 -10.7791 -10.7024  -7.0287   6.0793   7.0216   7.2862
    13.4710  14.6867  15.1968  15.6484  16.5801  17.4770  23.9992  25.7433

          k =-0.3333 0.5000-0.1667 (  4421 PWs)   bands (ev):

   -29.8118 -11.4811 -10.8021 -10.7209  -6.8434   5.7441   6.7712   7.0107
    13.7757  15.2603  15.6827  16.1067  17.2904  18.0254  23.0708  24.8910

          k = 0.5833-0.4167 0.7500 (  4428 PWs)   bands (ev):

   -29.7949 -11.6102 -10.8114 -10.7405  -6.7174   5.5179   6.6339   6.7778
    14.2661  15.2918  16.1036  16.6168  17.8688  18.5341  22.1651  24.3291

          k = 0.5000-0.3333 0.6667 (  4422 PWs)   bands (ev):

   -29.7886 -11.6561 -10.8127 -10.7495  -6.6730   5.4373   6.6197   6.6610
    14.6912  15.0244  16.2547  16.8797  18.0563  18.8057  21.7978  24.1366

          k =-0.1667 0.5000 0.0000 (  4453 PWs)   bands (ev):

   -29.8269 -11.2531 -10.8003 -10.7499  -7.0992   6.0472   7.2227   7.3728
    12.8009  14.6743  15.7264  15.8856  16.3319  17.8387  24.5789  25.4630

          k =-0.2500 0.5833-0.0833 (  4436 PWs)   bands (ev):

   -29.8063 -11.3750 -10.8438 -10.7685  -6.9945   5.9183   6.9516   7.1752
    12.9672  15.2269  16.0967  16.1927  16.9233  18.3325  23.6105  24.5730

          k = 0.6667-0.3333 0.8333 (  4427 PWs)   bands (ev):

   -29.7894 -11.4731 -10.8767 -10.7896  -6.8991   5.8411   6.7185   6.9528
    13.4146  15.4025  16.4251  16.4448  17.5074  18.9557  22.4257  24.0795

          k = 0.5833-0.2500 0.7500 (  4415 PWs)   bands (ev):

   -29.7809 -11.5244 -10.9062 -10.7920  -6.8331   5.7746   6.6367   6.7786
    14.0507  15.0252  16.5100  16.6883  17.8638  19.6171  21.7035  23.6102

          k = 0.5000-0.1667 0.6667 (  4418 PWs)   bands (ev):

   -29.7831 -11.5218 -10.9226 -10.7726  -6.8111   5.7286   6.6710   6.7477
    14.4405  14.7243  16.3278  16.5598  17.9929  19.5861  21.8273  23.3736

          k = 0.4167-0.0833 0.5833 (  4421 PWs)   bands (ev):

   -29.7953 -11.4722 -10.9079 -10.7432  -6.8406   5.7509   6.7015   6.9327
    13.9190  15.1410  15.9498  16.2283  17.8300  18.7861  22.7316  23.5630

          k = 0.3333 0.0000 0.5000 (  4430 PWs)   bands (ev):

   -29.8143 -11.3909 -10.8555 -10.7166  -6.9187   5.8673   6.8276   7.1449
    13.5742  15.0422  15.5326  16.0028  17.2475  18.0341  23.7541  24.1810

          k =-0.1667 0.6667-0.0000 (  4433 PWs)   bands (ev):

   -29.7963 -11.3073 -10.8590 -10.8244  -7.1514   6.0547   7.1825   7.2933
    12.2762  15.3220  16.4035  16.5603  16.6875  18.5156  23.7248  24.6607

          k = 0.7500-0.2500 0.9167 (  4421 PWs)   bands (ev):

   -29.7818 -11.3408 -10.9178 -10.8497  -7.1121   6.1367   6.9191   7.1278
    12.5708  15.6363  16.3701  16.8031  17.1334  19.1438  22.6210  24.0241

          k = 0.6667-0.1667 0.8333 (  4411 PWs)   bands (ev):

   -29.7733 -11.3552 -10.9985 -10.8470  -7.0383   6.1893   6.6745   6.9484
    13.1541  15.4156  16.3989  16.8513  17.5447  20.0733  21.8784  23.2211

          k = 0.5833-0.0833 0.7500 (  4421 PWs)   bands (ev):

   -29.7731 -11.3745 -11.0448 -10.8195  -6.9524   6.0609   6.6655   6.7985
    13.9080  14.8446  16.4141  16.6649  17.8426  20.8702  21.5169  22.4849

          k = 0.5000 0.0000 0.6667 (  4419 PWs)   bands (ev):

   -29.7811 -11.4250 -11.0050 -10.7803  -6.8799   5.8699   6.7092   6.7988
    14.2978  14.6533  16.3029  16.3194  17.9751  19.9663  22.4186  22.4290

          k = 0.8333-0.1667 1.0000 (  4407 PWs)   bands (ev):

   -29.7741 -11.2740 -10.9019 -10.9018  -7.2997   6.3256   7.1691   7.2631
    11.9340  15.7882  16.6132  16.8530  17.0977  19.1352  22.1282  24.6319

          k = 0.7500-0.0833 0.9167 (  4410 PWs)   bands (ev):

   -29.7678 -11.2344 -11.0214 -10.8966  -7.2390   6.4578   6.8663   7.1184
    12.3591  15.9271  16.2081  17.1335  17.2008  19.9939  21.6088  23.7557

          k = 0.6667 0.0000 0.8333 (  4412 PWs)   bands (ev):

   -29.7675 -11.2004 -11.1488 -10.8658  -7.1090   6.4558   6.5813   6.9529
    13.0621  15.4165  16.2643  16.9802  17.5457  20.9256  21.5289  22.5988

          k =-0.1667-1.0000-0.0000 (  4400 PWs)   bands (ev):

   -29.7660 -11.2374 -10.9435 -10.9175  -7.3765   6.4900   7.1601   7.2573
    11.8161  15.9456  16.6326  16.8864  17.2726  19.6173  21.2839  24.6316

          k = 0.6667-0.3333 1.0000 (  4418 PWs)   bands (ev):

   -29.7897 -11.3922 -10.9210 -10.7991  -6.9736   5.9490   6.8117   7.0327
    13.1799  15.3203  16.2170  16.4371  17.4586  19.0141  23.0438  23.4636

          k = 0.5833-0.2500 0.9167 (  4424 PWs)   bands (ev):

   -29.7775 -11.3923 -10.9739 -10.8388  -6.9578   6.0222   6.7118   6.8625
    13.6581  14.9631  16.3274  16.7265  17.7548  19.9557  22.1423  23.0354

          k = 0.5000-0.1667 0.8333 (  4418 PWs)   bands (ev):

   -29.7731 -11.3895 -10.9919 -10.8579  -6.9520   6.0640   6.6858   6.7735
    14.3057  14.3092  16.4283  16.8392  17.8333  20.6501  21.5212  22.9112

          k = 0.6667-0.1667 1.0000 (  4413 PWs)   bands (ev):

   -29.7720 -11.2872 -10.9688 -10.9244  -7.1152   6.2947   6.7957   6.9813
    12.9012  15.4076  16.1978  17.0631  17.4517  19.9966  22.1250  23.2892

          k = 0.5833-0.0833 0.9167 (  4410 PWs)   bands (ev):

   -29.7674 -11.2291 -11.0579 -10.9436  -7.0805   6.3905   6.6687   6.8446
    13.4987  14.7963  16.2106  17.1489  17.6750  21.0200  21.7663  22.5444

          k = 0.5000 0.0000 0.8333 (  4417 PWs)   bands (ev):

   -29.7695 -11.2788 -11.0593 -10.9018  -7.0227   6.2435   6.7346   6.7551
    14.1502  14.2461  16.2592  17.0154  17.7821  21.0975  22.0363  22.0688

          k =-0.3333-1.0000 0.0000 (  4416 PWs)   bands (ev):

   -29.7655 -11.1709 -11.0394 -10.9862  -7.1875   6.5624   6.7112   6.9680
    12.8031  15.4306  16.0959  17.2754  17.4442  20.6816  21.4921  23.2455

          k =-0.5000-1.0000 0.0000 (  4420 PWs)   bands (ev):

   -29.7653 -11.0845 -11.0791 -11.0791  -7.0947   6.5009   6.7172   6.7172
    14.0863  14.0863  16.1438  17.2768  17.7208  21.6934  21.9094  21.9094

     the Fermi energy is     9.5506 ev

!    total energy              =    -105.98710844 Ry
     estimated scf accuracy    <          3.0E-11 Ry
     smearing contrib. (-TS)   =      -0.00000000 Ry
     internal energy E=F+TS    =    -105.98710844 Ry

     The total energy is F=E-TS. E is the sum of the following terms:
     one-electron contribution =     -26.32170748 Ry
     hartree contribution      =      20.83957780 Ry
     xc contribution           =     -17.46898716 Ry
     ewald contribution        =     -83.03599159 Ry

     convergence has been achieved in   9 iterations

     Writing all to output data dir out/mp-2605.save/
 
     init_run     :      1.20s CPU      1.63s WALL (       1 calls)
     electrons    :     14.67s CPU     16.38s WALL (       1 calls)

     Called by init_run:
     wfcinit      :      1.12s CPU      1.52s WALL (       1 calls)
     potinit      :      0.02s CPU      0.02s WALL (       1 calls)
     hinit0       :      0.03s CPU      0.05s WALL (       1 calls)

     Called by electrons:
     c_bands      :     12.71s CPU     14.08s WALL (       9 calls)
     sum_band     :      1.89s CPU      2.21s WALL (       9 calls)
     v_of_rho     :      0.06s CPU      0.06s WALL (      10 calls)
     mix_rho      :      0.01s CPU      0.02s WALL (       9 calls)

     Called by c_bands:
     init_us_2    :      0.21s CPU      0.23s WALL (    1368 calls)
     init_us_2:cp :      0.21s CPU      0.23s WALL (    1368 calls)
     cegterg      :     11.90s CPU     12.36s WALL (     648 calls)

     Called by *egterg:
     cdiaghg      :      0.74s CPU      0.78s WALL (    2613 calls)
     h_psi        :     11.17s CPU     11.66s WALL (    2685 calls)
     g_psi        :      0.07s CPU      0.07s WALL (    1965 calls)

     Called by h_psi:
     h_psi:calbec :      0.25s CPU      0.26s WALL (    2685 calls)
     vloc_psi     :     10.71s CPU     11.18s WALL (    2685 calls)
     add_vuspsi   :      0.17s CPU      0.17s WALL (    2685 calls)

     General routines
     calbec       :      0.25s CPU      0.26s WALL (    2685 calls)
     fft          :      0.03s CPU      0.05s WALL (      99 calls)
     ffts         :      0.00s CPU      0.00s WALL (       9 calls)
     fftw         :     11.37s CPU     11.88s WALL (   71376 calls)
     davcio       :      0.13s CPU      1.47s WALL (    2174 calls)
 
     Parallel routines
 
     PWSCF        :     16.04s CPU     18.64s WALL

 
   This run was terminated on:   2:32:43  18Nov2023            

=------------------------------------------------------------------------------=
   JOB DONE.
=------------------------------------------------------------------------------=
