
     Program PWSCF v.7.1 starts on  6Dec2023 at  0:42:46 

     This program is part of the open-source Quantum ESPRESSO suite
     for quantum simulation of materials; please cite
         "P. Giannozzi et al., J. Phys.:Condens. Matter 21 395502 (2009);
         "P. Giannozzi et al., J. Phys.:Condens. Matter 29 465901 (2017);
         "P. Giannozzi et al., J. Chem. Phys. 152 154105 (2020);
          URL http://www.quantum-espresso.org", 
     in publications or presentations arising from this work. More details at
     http://www.quantum-espresso.org/quote

     Parallel version (MPI), running on    24 processors

     MPI processes distributed on     1 nodes
     122550 MiB available memory on the printing compute node when the environment starts
 
     Reading input from pw_mp-5967_scf_k3000_E72.in
Warning: card &CELL ignored
Warning: card / ignored

     Current dimensions of program PWSCF are:
     Max number of different atomic species (ntypx) = 10
     Max number of k-points (npk) =  40000
     Max angular momentum in pseudopotentials (lmaxx) =  4
 
     K-points division:     npool     =       2
     R & G space division:  proc/nbgrp/npool/nimage =      12
     Subspace diagonalization in iterative solution of the eigenvalue problem:
     a serial algorithm will be used

 
     Parallelization info
     --------------------
     sticks:   dense  smooth     PW     G-vecs:    dense   smooth      PW
     Min         101     101     30                 2328     2328     372
     Max         102     102     31                 2331     2331     375
     Sum        1213    1213    361                27941    27941    4477
 
     Using Slab Decomposition
 


     bravais-lattice index     =            2
     lattice parameter (alat)  =      11.0675  a.u.
     unit-cell volume          =     338.9178 (a.u.)^3
     number of atoms/cell      =            3
     number of atomic types    =            3
     number of electrons       =        44.00
     number of Kohn-Sham states=           44
     kinetic-energy cutoff     =      72.0000  Ry
     charge density cutoff     =     288.0000  Ry
     scf convergence threshold =      1.0E-10
     mixing beta               =       0.7000
     number of iterations used =            8  plain     mixing
     Exchange-correlation= PBE
                           (   1   4   3   4   0   0   0)

     celldm(1)=  11.067549  celldm(2)=   0.000000  celldm(3)=   0.000000
     celldm(4)=   0.000000  celldm(5)=   0.000000  celldm(6)=   0.000000

     crystal axes: (cart. coord. in units of alat)
               a(1) = (  -0.500000   0.000000   0.500000 )  
               a(2) = (   0.000000   0.500000   0.500000 )  
               a(3) = (  -0.500000   0.500000   0.000000 )  

     reciprocal axes: (cart. coord. in units 2 pi/alat)
               b(1) = ( -1.000000 -1.000000  1.000000 )  
               b(2) = (  1.000000  1.000000  1.000000 )  
               b(3) = ( -1.000000  1.000000 -1.000000 )  


     PseudoPot. # 1 for Co read from file:
     /usr/scratch4/magr4985/MG/HTDF/pseudo/SG15/Co.upf
     MD5 check sum: 04640e31e65e5bce9f0417487be359f7
     Pseudo is Norm-conserving, Zval = 17.0
     Generated using ONCVPSP code by D. R. Hamann
     Using radial grid of  602 points,  6 beta functions with: 
                l(1) =   0
                l(2) =   0
                l(3) =   1
                l(4) =   1
                l(5) =   2
                l(6) =   2

     PseudoPot. # 2 for Sb read from file:
     /usr/scratch4/magr4985/MG/HTDF/pseudo/SG15/Sb.upf
     MD5 check sum: 0417cd6c0fe8ce4611e2b23135f1abd9
     Pseudo is Norm-conserving, Zval = 15.0
     Generated using ONCVPSP code by D. R. Hamann
     Using radial grid of  602 points,  6 beta functions with: 
                l(1) =   0
                l(2) =   0
                l(3) =   1
                l(4) =   1
                l(5) =   2
                l(6) =   2

     PseudoPot. # 3 for Ti read from file:
     /usr/scratch4/magr4985/MG/HTDF/pseudo/SG15/Ti.upf
     MD5 check sum: 1aea57736bd12dcfee93c97d0b9b5968
     Pseudo is Norm-conserving, Zval = 12.0
     Generated using ONCVPSP code by D. R. Hamann
     Using radial grid of  602 points,  6 beta functions with: 
                l(1) =   0
                l(2) =   0
                l(3) =   1
                l(4) =   1
                l(5) =   2
                l(6) =   2

     atomic species   valence    mass     pseudopotential
        Co            17.00    58.93320     Co( 1.00)
        Sb            15.00   121.76000     Sb( 1.00)
        Ti            12.00    47.86700     Ti( 1.00)

     24 Sym. Ops. (no inversion) found



   Cartesian axes

     site n.     atom                  positions (alat units)
         1           Ti  tau(   1) = (   0.0000000   0.0000000   0.0000000  )
         2           Co  tau(   2) = (  -0.2500000   0.2500000   0.2500001  )
         3           Sb  tau(   3) = (  -0.5000000   0.5000000   0.5000000  )

     number of k points=    47  Gaussian smearing, width (Ry)=  0.0005
                       cart. coord. in units 2pi/alat
        k(    1) = (   0.0000000   0.0000000   0.0000000), wk =   0.0020000
        k(    2) = (  -0.1000000   0.1000000  -0.1000000), wk =   0.0160000
        k(    3) = (  -0.2000000   0.2000000  -0.2000000), wk =   0.0160000
        k(    4) = (  -0.3000000   0.3000000  -0.3000000), wk =   0.0160000
        k(    5) = (  -0.4000000   0.4000000  -0.4000000), wk =   0.0160000
        k(    6) = (   0.5000000  -0.5000000   0.5000000), wk =   0.0080000
        k(    7) = (   0.0000000   0.2000000   0.0000000), wk =   0.0120000
        k(    8) = (  -0.1000000   0.3000000  -0.1000000), wk =   0.0480000
        k(    9) = (  -0.2000000   0.4000000  -0.2000000), wk =   0.0480000
        k(   10) = (  -0.3000000   0.5000000  -0.3000000), wk =   0.0480000
        k(   11) = (   0.6000000  -0.4000000   0.6000000), wk =   0.0480000
        k(   12) = (   0.5000000  -0.3000000   0.5000000), wk =   0.0480000
        k(   13) = (   0.4000000  -0.2000000   0.4000000), wk =   0.0480000
        k(   14) = (   0.3000000  -0.1000000   0.3000000), wk =   0.0480000
        k(   15) = (   0.2000000   0.0000000   0.2000000), wk =   0.0240000
        k(   16) = (   0.0000000   0.4000000   0.0000000), wk =   0.0120000
        k(   17) = (  -0.1000000   0.5000000  -0.1000000), wk =   0.0480000
        k(   18) = (  -0.2000000   0.6000000  -0.2000000), wk =   0.0480000
        k(   19) = (   0.7000000  -0.3000000   0.7000000), wk =   0.0480000
        k(   20) = (   0.6000000  -0.2000000   0.6000000), wk =   0.0480000
        k(   21) = (   0.5000000  -0.1000000   0.5000000), wk =   0.0480000
        k(   22) = (   0.4000000   0.0000000   0.4000000), wk =   0.0240000
        k(   23) = (   0.0000000   0.6000000   0.0000000), wk =   0.0120000
        k(   24) = (  -0.1000000   0.7000000  -0.1000000), wk =   0.0480000
        k(   25) = (   0.8000000  -0.2000000   0.8000000), wk =   0.0480000
        k(   26) = (   0.7000000  -0.1000000   0.7000000), wk =   0.0480000
        k(   27) = (   0.6000000  -0.0000000   0.6000000), wk =   0.0240000
        k(   28) = (   0.0000000   0.8000000   0.0000000), wk =   0.0120000
        k(   29) = (   0.9000000  -0.1000000   0.9000000), wk =   0.0480000
        k(   30) = (   0.8000000   0.0000000   0.8000000), wk =   0.0240000
        k(   31) = (   0.0000000  -1.0000000   0.0000000), wk =   0.0060000
        k(   32) = (  -0.2000000   0.4000000   0.0000000), wk =   0.0480000
        k(   33) = (  -0.3000000   0.5000000  -0.1000000), wk =   0.0960000
        k(   34) = (   0.6000000  -0.4000000   0.8000000), wk =   0.0960000
        k(   35) = (   0.5000000  -0.3000000   0.7000000), wk =   0.0480000
        k(   36) = (  -0.2000000   0.6000000   0.0000000), wk =   0.0480000
        k(   37) = (   0.7000000  -0.3000000   0.9000000), wk =   0.0960000
        k(   38) = (   0.6000000  -0.2000000   0.8000000), wk =   0.0960000
        k(   39) = (   0.5000000  -0.1000000   0.7000000), wk =   0.0960000
        k(   40) = (   0.4000000   0.0000000   0.6000000), wk =   0.0480000
        k(   41) = (   0.8000000  -0.2000000   1.0000000), wk =   0.0480000
        k(   42) = (   0.7000000  -0.1000000   0.9000000), wk =   0.0960000
        k(   43) = (   0.6000000   0.0000000   0.8000000), wk =   0.0480000
        k(   44) = (  -0.2000000  -1.0000000   0.0000000), wk =   0.0240000
        k(   45) = (   0.6000000  -0.2000000   1.0000000), wk =   0.0480000
        k(   46) = (   0.5000000  -0.1000000   0.9000000), wk =   0.0480000
        k(   47) = (  -0.4000000  -1.0000000   0.0000000), wk =   0.0240000

     Dense  grid:    27941 G-vectors     FFT dimensions: (  45,  45,  45)

     Estimated max dynamical RAM per process >       7.36 MB

     Estimated total dynamical RAM >     169.87 MB

     Initial potential from superposition of free atoms

     starting charge      43.7930, renormalised to      44.0000
     Starting wfcs are random

     total cpu time spent up to now is        0.4 secs

     Self-consistent Calculation

     iteration #  1     ecut=    72.00 Ry     beta= 0.70
     Davidson diagonalization with overlap
     ethr =  1.00E-02,  avg # of iterations =  9.5

     total cpu time spent up to now is        3.5 secs

     total energy              =    -526.88778230 Ry
     estimated scf accuracy    <       1.03758465 Ry

     iteration #  2     ecut=    72.00 Ry     beta= 0.70
     Davidson diagonalization with overlap
     ethr =  2.36E-03,  avg # of iterations =  2.0

     total cpu time spent up to now is        4.6 secs

     total energy              =    -524.98643285 Ry
     estimated scf accuracy    <      48.12692350 Ry

     iteration #  3     ecut=    72.00 Ry     beta= 0.70
     Davidson diagonalization with overlap
     ethr =  2.36E-03,  avg # of iterations =  2.0

     total cpu time spent up to now is        5.6 secs

     total energy              =    -527.59581952 Ry
     estimated scf accuracy    <       0.19535039 Ry

     iteration #  4     ecut=    72.00 Ry     beta= 0.70
     Davidson diagonalization with overlap
     ethr =  4.44E-04,  avg # of iterations =  1.3

     total cpu time spent up to now is        6.6 secs

     total energy              =    -527.60584478 Ry
     estimated scf accuracy    <       0.10707321 Ry

     iteration #  5     ecut=    72.00 Ry     beta= 0.70
     Davidson diagonalization with overlap
     ethr =  2.43E-04,  avg # of iterations =  1.0

     total cpu time spent up to now is        7.4 secs

     total energy              =    -527.61268882 Ry
     estimated scf accuracy    <       0.00478056 Ry

     iteration #  6     ecut=    72.00 Ry     beta= 0.70
     Davidson diagonalization with overlap
     ethr =  1.09E-05,  avg # of iterations =  3.6

     total cpu time spent up to now is        8.5 secs

     total energy              =    -527.61293440 Ry
     estimated scf accuracy    <       0.00062538 Ry

     iteration #  7     ecut=    72.00 Ry     beta= 0.70
     Davidson diagonalization with overlap
     ethr =  1.42E-06,  avg # of iterations =  3.7

     total cpu time spent up to now is        9.7 secs

     total energy              =    -527.61302010 Ry
     estimated scf accuracy    <       0.00015448 Ry

     iteration #  8     ecut=    72.00 Ry     beta= 0.70
     Davidson diagonalization with overlap
     ethr =  3.51E-07,  avg # of iterations =  1.0

     total cpu time spent up to now is       10.6 secs

     total energy              =    -527.61304408 Ry
     estimated scf accuracy    <       0.00000193 Ry

     iteration #  9     ecut=    72.00 Ry     beta= 0.70
     Davidson diagonalization with overlap
     ethr =  4.40E-09,  avg # of iterations =  2.1

     total cpu time spent up to now is       11.7 secs

     total energy              =    -527.61304464 Ry
     estimated scf accuracy    <       0.00000049 Ry

     iteration # 10     ecut=    72.00 Ry     beta= 0.70
     Davidson diagonalization with overlap
     ethr =  1.10E-09,  avg # of iterations =  1.0

     total cpu time spent up to now is       12.6 secs

     total energy              =    -527.61304463 Ry
     estimated scf accuracy    <       0.00000009 Ry

     iteration # 11     ecut=    72.00 Ry     beta= 0.70
     Davidson diagonalization with overlap
     ethr =  2.13E-10,  avg # of iterations =  1.7

     total cpu time spent up to now is       13.6 secs

     total energy              =    -527.61304464 Ry
     estimated scf accuracy    <          1.5E-09 Ry

     iteration # 12     ecut=    72.00 Ry     beta= 0.70
     Davidson diagonalization with overlap
     ethr =  3.50E-12,  avg # of iterations =  2.0

     total cpu time spent up to now is       14.6 secs

     End of self-consistent calculation

          k = 0.0000 0.0000 0.0000 (  3479 PWs)   bands (ev):

   -77.8724 -41.1546 -41.1546 -41.1546 -40.2781 -16.5389 -16.5389 -16.5389
   -12.0675 -12.0675 -12.0580 -12.0580 -12.0580   5.1225  13.9094  13.9094
    13.9094  14.7385  14.7385  16.3592  16.3592  16.3592  18.2292  18.2292
    19.4251  19.4251  19.4251  20.7889  24.3209  24.6589  24.6589  24.6589
    26.6062  26.6063  26.6063  29.5426  29.5426  34.7460  38.2746  38.2746
    38.2746  42.9317  42.9317  44.1446

          k =-0.1000 0.1000-0.1000 (  3506 PWs)   bands (ev):

   -77.8724 -41.1553 -41.1547 -41.1547 -40.2772 -16.5408 -16.5396 -16.5396
   -12.0663 -12.0663 -12.0579 -12.0575 -12.0575   5.2390  13.7283  13.8153
    13.8153  14.8272  14.8272  16.0010  16.3111  16.3111  18.1525  18.1525
    19.0541  19.6740  19.6740  21.5697  23.6934  24.4476  24.4476  25.0639
    26.4678  26.4678  27.2487  30.1519  30.1519  35.2261  37.5071  37.5071
    38.3936  41.7726  42.5092  42.5092

          k =-0.2000 0.2000-0.2000 (  3503 PWs)   bands (ev):

   -77.8724 -41.1572 -41.1547 -41.1547 -40.2751 -16.5458 -16.5415 -16.5415
   -12.0633 -12.0633 -12.0576 -12.0562 -12.0562   5.5738  13.0984  13.6261
    13.6261  14.9799  14.9799  15.4080  16.2259  16.2259  18.0755  18.0755
    18.7758  20.1894  20.1894  21.7302  23.8174  23.8174  23.9823  25.6251
    26.5549  26.5549  28.7074  31.5181  31.5182  35.7109  35.7109  36.4809
    38.7451  39.0181  42.7120  42.7121

          k =-0.3000 0.3000-0.3000 (  3494 PWs)   bands (ev):

   -77.8724 -41.1594 -41.1547 -41.1547 -40.2725 -16.5520 -16.5438 -16.5438
   -12.0598 -12.0598 -12.0571 -12.0542 -12.0542   6.0730  12.0954  13.4459
    13.4459  15.0566  15.0566  15.1143  16.2114  16.2114  18.0969  18.0969
    18.6217  20.6895  20.6895  20.8785  23.0439  23.0439  25.5065  26.1673
    27.1140  27.1140  30.7810  33.2108  33.2108  33.6995  33.6995  35.8834
    38.7458  39.3047  42.3940  42.3941

          k =-0.4000 0.4000-0.4000 (  3483 PWs)   bands (ev):

   -77.8724 -41.1612 -41.1547 -41.1547 -40.2704 -16.5570 -16.5457 -16.5457
   -12.0573 -12.0573 -12.0567 -12.0523 -12.0523   6.6006  11.1515  13.3230
    13.3230  15.0486  15.0486  15.0512  16.2676  16.2676  18.1826  18.1826
    18.4696  20.2543  21.0091  21.0091  22.4491  22.4491  26.1166  27.7201
    28.0505  28.0505  31.7859  31.7859  32.4056  34.3254  35.1903  35.1903
    39.9222  39.9222  39.9800  40.0319

          k = 0.5000-0.5000 0.5000 (  3498 PWs)   bands (ev):

   -77.8724 -41.1619 -41.1547 -41.1547 -40.2696 -16.5589 -16.5464 -16.5464
   -12.0565 -12.0565 -12.0565 -12.0514 -12.0514   6.8574  10.7420  13.2797
    13.2797  15.0335  15.0335  15.0538  16.3009  16.3009  18.2336  18.2336
    18.3863  20.0502  21.1033  21.1033  22.2338  22.2338  26.1971  28.8137
    28.8137  29.1937  30.7046  30.7046  31.1684  35.9792  36.8844  36.8844
    38.0273  38.0273  38.2068  40.3804

          k = 0.0000 0.2000 0.0000 (  3511 PWs)   bands (ev):

   -77.8724 -41.1556 -41.1547 -41.1547 -40.2770 -16.5421 -16.5394 -16.5394
   -12.0669 -12.0651 -12.0586 -12.0570 -12.0570   5.2767  13.4696  13.9259
    13.9259  14.7967  14.8620  16.0916  16.1927  16.1927  18.0483  18.1810
    19.2156  19.5503  19.5503  21.9643  23.7458  24.3370  24.3370  24.7008
    26.2314  27.4061  27.4061  29.5803  30.6330  35.4419  37.0898  38.0093
    38.0093  40.8922  42.3915  42.3915

          k =-0.1000 0.3000-0.1000 (  3516 PWs)   bands (ev):

   -77.8724 -41.1570 -41.1547 -41.1547 -40.2753 -16.5460 -16.5409 -16.5406
   -12.0653 -12.0626 -12.0587 -12.0559 -12.0557   5.5355  13.0302  13.7759
    13.8479  14.9193  14.9469  15.5785  16.0643  16.1601  17.9667  18.1006
    18.9885  19.7520  19.9144  22.5774  23.3315  23.7588  24.1249  25.1985
    26.5847  27.6937  28.4663  30.3461  31.6171  35.5803  36.4467  36.8262
    38.0208  40.3850  40.5857  42.1232

          k =-0.2000 0.4000-0.2000 (  3506 PWs)   bands (ev):

   -77.8724 -41.1591 -41.1547 -41.1547 -40.2729 -16.5510 -16.5435 -16.5426
   -12.0622 -12.0598 -12.0580 -12.0545 -12.0540   5.9757  12.3417  13.4298
    13.6655  15.0038  15.0342  15.2221  16.0564  16.1155  17.9934  18.0619
    18.8062  20.0014  20.2082  22.0189  22.6857  23.8056  24.5705  26.3756
    26.9511  27.9488  30.1573  31.8867  33.0977  33.6246  34.5595  37.5082
    38.3896  38.7163  41.1011  42.4598

          k =-0.3000 0.5000-0.3000 (  3502 PWs)   bands (ev):

   -77.8724 -41.1610 -41.1548 -41.1547 -40.2706 -16.5555 -16.5458 -16.5447
   -12.0589 -12.0581 -12.0568 -12.0532 -12.0524   6.4958  11.4753  13.2027
    13.4797  15.0017  15.0548  15.1344  16.1253  16.1575  18.0515  18.1282
    18.6080  20.0961  20.1850  21.4969  22.4709  23.4369  25.7112  26.8284
    28.2905  28.6112  31.6064  31.6541  32.9716  33.8773  35.1268  35.3503
    38.9038  39.4666  40.6301  41.5317

          k = 0.6000-0.4000 0.6000 (  3509 PWs)   bands (ev):

   -77.8724 -41.1621 -41.1548 -41.1547 -40.2694 -16.5579 -16.5469 -16.5462
   -12.0575 -12.0567 -12.0563 -12.0523 -12.0515   6.8640  10.9000  13.1354
    13.3443  15.0251  15.0594  15.0819  16.1670  16.2241  18.1217  18.2288
    18.4036  19.9635  20.4116  20.9495  22.7191  23.0876  26.6328  27.3251
    28.9221  29.5125  30.6766  30.7259  32.8424  35.2483  35.9194  37.0407
    37.7575  38.9146  38.9725  39.6327

          k = 0.5000-0.3000 0.5000 (  3504 PWs)   bands (ev):

   -77.8724 -41.1619 -41.1548 -41.1547 -40.2697 -16.5574 -16.5463 -16.5463
   -12.0584 -12.0563 -12.0562 -12.0524 -12.0519   6.7807  11.0290  13.2019
    13.2864  15.0095  15.0810  15.0934  16.1497  16.2142  18.1162  18.2322
    18.4336  19.9393  20.6972  20.8030  22.8045  22.9918  26.6249  27.5246
    27.7465  29.3879  30.7389  31.9634  32.7129  34.5099  35.4714  36.7033
    38.4417  39.2056  39.3519  40.0015

          k = 0.4000-0.2000 0.4000 (  3487 PWs)   bands (ev):

   -77.8724 -41.1604 -41.1548 -41.1547 -40.2713 -16.5541 -16.5452 -16.5443
   -12.0606 -12.0573 -12.0569 -12.0536 -12.0533   6.3263  11.7687  13.3164
    13.3948  14.9806  15.1236  15.1280  16.0430  16.1945  18.0576  18.1436
    18.6705  19.8835  20.9524  21.0629  22.8371  23.2096  25.7289  26.6103
    26.8802  28.9650  31.2071  31.9369  33.1232  33.7483  34.8533  35.7561
    38.7420  39.6998  40.8490  41.9834

          k = 0.3000-0.1000 0.3000 (  3510 PWs)   bands (ev):

   -77.8724 -41.1584 -41.1547 -41.1547 -40.2737 -16.5490 -16.5432 -16.5418
   -12.0634 -12.0601 -12.0576 -12.0557 -12.0546   5.8149  12.6655  13.4314
    13.6911  14.9524  15.0805  15.2770  15.9540  16.2418  18.0600  18.0604
    18.8787  19.7126  20.7434  21.7016  23.3295  23.4922  24.4785  25.8716
    26.4609  27.9189  29.6620  31.1614  32.9467  33.7917  35.8749  37.4590
    38.2099  38.6902  41.5021  41.9233

          k = 0.2000 0.0000 0.2000 (  3525 PWs)   bands (ev):

   -77.8724 -41.1564 -41.1547 -41.1547 -40.2760 -16.5439 -16.5410 -16.5400
   -12.0656 -12.0636 -12.0580 -12.0571 -12.0562   5.4273  13.3418  13.6134
    13.8995  14.8664  14.9584  15.6855  16.0499  16.3194  18.0620  18.1090
    19.0056  19.5666  20.1570  22.1882  23.3677  23.9276  24.2582  25.7011
    25.7200  27.1775  28.2602  30.1649  31.3917  35.7689  36.1535  37.5536
    37.9293  41.0849  41.3814  41.6232

          k = 0.0000 0.4000 0.0000 (  3523 PWs)   bands (ev):

   -77.8724 -41.1580 -41.1547 -41.1547 -40.2742 -16.5490 -16.5408 -16.5408
   -12.0654 -12.0618 -12.0597 -12.0545 -12.0545   5.7060  12.6383  13.9753
    13.9753  14.8647  14.9596  15.6452  15.8664  15.8664  17.7916  18.0441
    19.1938  19.5512  19.5512  22.3590  23.5545  24.4340  24.4383  24.4383
    27.7551  28.9263  28.9263  29.7020  31.7331  35.2034  36.7517  36.7517
    37.6060  38.3865  41.7304  41.7304

          k =-0.1000 0.5000-0.1000 (  3508 PWs)   bands (ev):

   -77.8724 -41.1597 -41.1548 -41.1547 -40.2722 -16.5524 -16.5425 -16.5421
   -12.0637 -12.0612 -12.0595 -12.0532 -12.0530   6.0562  12.2006  13.7434
    13.9108  14.8513  15.0739  15.3287  15.8004  15.8366  17.7780  17.9732
    19.0480  19.4791  19.5887  21.7024  23.3120  24.2848  24.6785  26.3949
    28.3621  29.0390  30.0724  30.8510  32.6167  33.6667  34.9028  36.4998
    38.1906  39.1409  40.6328  41.9660

          k =-0.2000 0.6000-0.2000 (  3517 PWs)   bands (ev):

   -77.8724 -41.1614 -41.1548 -41.1548 -40.2701 -16.5548 -16.5454 -16.5439
   -12.0607 -12.0605 -12.0587 -12.0524 -12.0517   6.5075  11.7195  13.2170
    13.7268  14.9364  15.1140  15.1571  15.8218  15.9226  17.8376  18.0195
    18.7595  19.4418  19.5374  21.4192  23.2884  24.5962  24.6935  28.0554
    28.7880  29.3686  31.3286  31.4076  32.8582  32.9504  34.6918  36.8103
    37.5053  39.0131  39.9827  41.2339

          k = 0.7000-0.3000 0.7000 (  3502 PWs)   bands (ev):

   -77.8724 -41.1626 -41.1549 -41.1548 -40.2687 -16.5559 -16.5478 -16.5456
   -12.0602 -12.0577 -12.0574 -12.0526 -12.0511   6.8931  11.2847  12.8656
    13.5265  14.9753  15.1315  15.1324  15.8442  16.0283  17.8997  18.1942
    18.4630  19.3832  19.5162  21.1953  23.6160  24.4798  25.4046  28.1633
    29.2084  29.5040  30.8050  31.0923  34.2770  34.7941  35.4160  36.2597
    37.1872  37.8548  40.2418  40.3311

          k = 0.6000-0.2000 0.6000 (  3503 PWs)   bands (ev):

   -77.8724 -41.1627 -41.1549 -41.1548 -40.2686 -16.5560 -16.5481 -16.5465
   -12.0608 -12.0558 -12.0557 -12.0534 -12.0514   6.9676  11.2131  12.7848
    13.3722  14.9657  15.1546  15.1811  15.8714  16.0376  18.0019  18.2898
    18.3495  19.2430  19.8992  21.0289  23.8272  24.1341  26.4875  27.6426
    27.6994  28.8429  32.1227  32.4255  33.5692  34.2694  36.2453  36.7794
    37.3892  38.4923  39.0401  40.0006

          k = 0.5000-0.1000 0.5000 (  3498 PWs)   bands (ev):

   -77.8724 -41.1617 -41.1549 -41.1547 -40.2697 -16.5551 -16.5463 -16.5462
   -12.0618 -12.0558 -12.0555 -12.0536 -12.0527   6.6679  11.6012  12.9650
    13.2970  14.9631  15.1688  15.2174  15.8248  16.0467  18.0186  18.2297
    18.6364  19.1821  20.5230  21.0269  23.7071  23.7766  25.7368  26.4747
    28.2733  29.3999  31.1822  31.9023  33.7762  33.8781  35.9401  36.4781
    37.3928  39.4383  39.7810  40.5020

          k = 0.4000 0.0000 0.4000 (  3489 PWs)   bands (ev):

   -77.8724 -41.1601 -41.1548 -41.1547 -40.2716 -16.5526 -16.5450 -16.5436
   -12.0628 -12.0571 -12.0570 -12.0544 -12.0536   6.2149  12.1503  13.3163
    13.3836  14.9491  15.1775  15.1988  15.7812  16.1378  18.0346  18.1244
    19.0127  19.2192  20.9592  21.3213  23.3702  23.4282  24.9683  25.8374
    27.7698  29.4337  30.9007  31.0059  32.1098  34.4174  35.7183  37.1884
    37.9592  39.1062  40.1200  41.6026

          k = 0.0000 0.6000 0.0000 (  3495 PWs)   bands (ev):

   -77.8724 -41.1609 -41.1548 -41.1548 -40.2707 -16.5545 -16.5424 -16.5424
   -12.0636 -12.0628 -12.0608 -12.0516 -12.0516   6.2964  11.8964  14.0503
    14.0503  14.5991  15.1889  15.3244  15.5927  15.5928  17.6074  17.8465
    19.1558  19.1558  19.2268  20.8008  23.3730  25.5071  25.5071  26.6729
    29.9057  29.9307  30.6260  30.6260  32.5598  33.5488  34.6343  34.6343
    36.2886  40.4536  41.0869  41.0869

          k =-0.1000 0.7000-0.1000 (  3493 PWs)   bands (ev):

   -77.8724 -41.1623 -41.1548 -41.1548 -40.2691 -16.5557 -16.5441 -16.5435
   -12.0634 -12.0620 -12.0616 -12.0507 -12.0505   6.6343  11.6439  13.6396
    13.9870  14.7346  15.0951  15.2343  15.5514  15.6482  17.6090  17.8237
    18.8035  18.9558  19.1872  20.6271  23.3939  25.6417  26.0256  28.3049
    30.0587  30.3963  31.3814  31.6272  32.5110  32.8859  33.9873  34.4970
    36.2549  39.1683  39.9500  41.2775

          k = 0.8000-0.2000 0.8000 (  3481 PWs)   bands (ev):

   -77.8724 -41.1633 -41.1549 -41.1548 -40.2679 -16.5553 -16.5471 -16.5449
   -12.0639 -12.0605 -12.0594 -12.0509 -12.0501   6.9524  11.5405  12.9231
    13.7865  14.8902  15.0582  15.2384  15.5191  15.7901  17.6714  18.0517
    18.5063  18.8459  18.9915  20.9855  23.7908  25.5430  26.0443  28.8900
    29.5607  30.5063  30.9901  31.5482  33.8537  33.9126  34.9768  35.0112
    36.6186  37.9260  39.1249  39.8617

          k = 0.7000-0.1000 0.7000 (  3501 PWs)   bands (ev):

   -77.8724 -41.1635 -41.1550 -41.1548 -40.2676 -16.5537 -16.5500 -16.5461
   -12.0639 -12.0580 -12.0568 -12.0521 -12.0505   7.0952  11.6269  12.3668
    13.5615  14.8534  15.2483  15.2837  15.5413  15.8301  17.7963  18.3387
    18.3585  18.8073  19.0239  21.2175  24.6798  25.5142  25.6794  27.5111
    27.8941  30.5756  32.2029  32.5211  33.7935  35.0281  35.7049  36.1542
    36.2301  38.7024  38.8075  39.1218

          k = 0.6000-0.0000 0.6000 (  3500 PWs)   bands (ev):

   -77.8724 -41.1629 -41.1550 -41.1548 -40.2682 -16.5544 -16.5489 -16.5466
   -12.0631 -12.0554 -12.0552 -12.0540 -12.0517   6.9754  11.6374  12.4226
    13.3852  14.9073  15.2467  15.2916  15.6697  15.8909  17.9570  18.3259
    18.4468  18.7801  19.7093  21.1870  24.6713  24.8735  25.7486  26.8072
    27.3161  30.3963  31.2519  33.3374  33.9463  34.9994  35.7535  35.7844
    37.9351  38.6818  38.8556  39.2673

          k = 0.0000 0.8000 0.0000 (  3495 PWs)   bands (ev):

   -77.8724 -41.1633 -41.1548 -41.1548 -40.2680 -16.5565 -16.5437 -16.5437
   -12.0659 -12.0633 -12.0622 -12.0494 -12.0494   6.8314  11.4837  14.1234
    14.1234  14.3330  14.9491  15.4084  15.4429  15.4429  17.4826  17.6522
    18.6974  18.6974  19.0186  20.1218  23.2870  27.1842  27.1842  28.3068
    30.2795  32.0264  32.0264  32.2760  32.3038  32.5767  32.5767  33.8594
    34.9569  38.8428  38.8428  39.9804

          k = 0.9000-0.1000 0.9000 (  3478 PWs)   bands (ev):

   -77.8724 -41.1639 -41.1549 -41.1548 -40.2672 -16.5562 -16.5451 -16.5443
   -12.0670 -12.0630 -12.0610 -12.0493 -12.0490   7.0194  11.4563  13.5183
    14.0405  14.6773  14.8214  15.3480  15.4066  15.5888  17.4978  17.7397
    18.5156  18.5618  18.8631  20.3677  23.3711  27.2980  27.6276  28.8198
    29.8996  31.2672  31.4260  32.4170  32.5562  33.5349  33.6721  34.6296
    35.2059  38.0443  38.1356  39.2641

          k = 0.8000 0.0000 0.8000 (  3472 PWs)   bands (ev):

   -77.8724 -41.1640 -41.1550 -41.1548 -40.2671 -16.5546 -16.5480 -16.5453
   -12.0663 -12.0610 -12.0589 -12.0503 -12.0495   7.1183  11.6206  12.7186
    13.8113  14.7402  15.1408  15.3421  15.3619  15.6849  17.6019  18.1655
    18.4136  18.5182  18.7445  20.9364  23.8226  26.7264  27.0994  27.8147
    28.4826  32.0429  32.0725  32.7041  33.0213  33.3096  34.9074  35.4579
    35.8400  38.0436  38.8957  39.3820

          k = 0.0000-1.0000 0.0000 (  3490 PWs)   bands (ev):

   -77.8724 -41.1642 -41.1548 -41.1548 -40.2670 -16.5567 -16.5441 -16.5441
   -12.0683 -12.0640 -12.0616 -12.0486 -12.0486   7.0498  11.3830  14.1541
    14.1541  14.2383  14.7156  15.4012  15.4012  15.5044  17.4362  17.5657
    18.5051  18.5051  18.8403  20.0527  23.2622  28.5017  28.5017  28.8080
    30.5566  30.7593  30.7593  31.7222  33.1940  33.1940  33.6914  34.6508
    34.9724  37.7661  37.7661  38.3909

          k =-0.2000 0.4000 0.0000 (  3498 PWs)   bands (ev):

   -77.8724 -41.1586 -41.1547 -41.1547 -40.2735 -16.5498 -16.5426 -16.5416
   -12.0641 -12.0604 -12.0587 -12.0547 -12.0542   5.8436  12.5575  13.6099
    13.8033  14.9216  15.0504  15.3563  15.8242  16.1173  17.9382  18.0471
    19.0527  19.4581  20.1623  22.7048  22.7988  23.3433  24.8525  25.5508
    27.3502  28.3085  29.8258  30.5014  32.6690  33.8700  36.2999  36.9169
    37.9769  40.0891  40.3238  40.9028

          k =-0.3000 0.5000-0.1000 (  3496 PWs)   bands (ev):

   -77.8724 -41.1605 -41.1548 -41.1547 -40.2712 -16.5535 -16.5448 -16.5437
   -12.0622 -12.0587 -12.0573 -12.0535 -12.0530   6.2932  11.9790  13.3068
    13.5407  14.9525  15.1263  15.1976  15.8286  16.0637  17.9840  18.0516
    18.8666  19.4186  20.1215  22.1330  22.6484  23.6716  25.1766  26.6021
    27.9191  29.4442  30.8073  31.4974  32.3687  34.0383  34.8377  36.8309
    38.1232  39.7462  40.6210  41.2153

          k = 0.6000-0.4000 0.8000 (  3493 PWs)   bands (ev):

   -77.8724 -41.1620 -41.1549 -41.1547 -40.2694 -16.5559 -16.5469 -16.5457
   -12.0604 -12.0574 -12.0560 -12.0532 -12.0517   6.7491  11.3636  13.0076
    13.4087  14.9792  15.1177  15.1594  15.9100  16.0849  18.0126  18.1560
    18.5412  19.4748  19.8816  21.5353  22.9437  24.0332  25.7457  27.5453
    28.2938  29.4610  30.9527  31.9772  33.1722  34.4533  35.3150  36.5392
    37.7495  38.3840  40.3159  41.2167

          k = 0.5000-0.3000 0.7000 (  3498 PWs)   bands (ev):

   -77.8724 -41.1626 -41.1549 -41.1548 -40.2687 -16.5567 -16.5477 -16.5465
   -12.0596 -12.0566 -12.0555 -12.0534 -12.0512   6.9601  11.0751  12.9095
    13.3681  14.9908  15.1027  15.1495  15.9411  16.1158  18.0627  18.1897
    18.3855  19.5587  19.7035  21.3057  23.0855  24.1181  26.6750  27.3154
    28.2185  29.5850  30.4830  32.6048  33.4252  34.8418  35.6083  37.2484
    37.7886  38.3721  38.7891  39.5808

          k =-0.2000 0.6000 0.0000 (  3489 PWs)   bands (ev):

   -77.8724 -41.1612 -41.1548 -41.1548 -40.2704 -16.5545 -16.5440 -16.5434
   -12.0628 -12.0611 -12.0595 -12.0521 -12.0517   6.4067  11.8605  13.5648
    13.7507  14.8708  15.1366  15.2202  15.6476  15.8273  17.7741  17.9285
    18.9809  19.0926  19.4761  21.3627  23.4419  24.0816  25.7513  27.2809
    29.3167  29.7580  30.9093  31.2692  32.2378  33.7791  34.7090  34.8941
    38.0558  39.8577  40.4620  40.9972

          k = 0.7000-0.3000 0.9000 (  3491 PWs)   bands (ev):

   -77.8724 -41.1625 -41.1549 -41.1548 -40.2687 -16.5552 -16.5464 -16.5452
   -12.0628 -12.0596 -12.0581 -12.0521 -12.0506   6.7932  11.6018  13.0200
    13.5951  14.9475  15.1006  15.2031  15.6134  15.9008  17.8328  18.0181
    18.6218  18.9681  19.2583  21.5820  23.6745  24.1037  26.1337  28.1199
    29.5069  29.8919  30.9441  31.9556  32.8961  33.8302  34.8493  35.8565
    38.0049  38.2162  39.5218  39.8027

          k = 0.6000-0.2000 0.8000 (  3493 PWs)   bands (ev):

   -77.8724 -41.1632 -41.1550 -41.1548 -40.2679 -16.5546 -16.5489 -16.5464
   -12.0629 -12.0576 -12.0563 -12.0533 -12.0502   7.0431  11.4740  12.6040
    13.4727  14.9012  15.1533  15.2486  15.5969  15.9722  17.9051  18.1774
    18.4021  18.9864  19.0357  21.7327  23.8318  24.8662  25.9454  27.3501
    29.4044  29.9070  30.7062  33.0465  34.2015  34.3924  35.0822  36.5605
    36.9528  38.6147  39.0235  39.9037

          k = 0.5000-0.1000 0.7000 (  3495 PWs)   bands (ev):

   -77.8724 -41.1630 -41.1550 -41.1548 -40.2681 -16.5546 -16.5485 -16.5468
   -12.0629 -12.0563 -12.0551 -12.0545 -12.0507   6.9952  11.5326  12.5703
    13.3862  14.9122  15.1973  15.2566  15.6281  15.9733  18.0036  18.1726
    18.4311  18.8778  19.3578  21.8180  23.6995  24.7591  26.1443  27.0056
    28.2356  29.8792  31.7406  32.8626  33.6845  34.4308  35.5478  36.6875
    37.5349  38.4338  38.9134  39.7804

          k = 0.4000 0.0000 0.6000 (  3497 PWs)   bands (ev):

   -77.8724 -41.1619 -41.1549 -41.1547 -40.2694 -16.5548 -16.5462 -16.5459
   -12.0626 -12.0575 -12.0559 -12.0533 -12.0520   6.6841  11.7120  12.9420
    13.3689  14.9574  15.1993  15.2065  15.6972  15.9796  18.0055  18.1088
    18.7508  18.9374  19.7968  22.0007  23.1990  23.8744  26.1076  26.5854
    28.8867  29.7459  30.7737  31.8904  33.5385  34.1120  35.1168  36.4666
    38.1932  39.1388  39.4828  39.9780

          k = 0.8000-0.2000 1.0000 (  3488 PWs)   bands (ev):

   -77.8724 -41.1633 -41.1549 -41.1548 -40.2679 -16.5558 -16.5451 -16.5448
   -12.0652 -12.0619 -12.0604 -12.0505 -12.0495   6.8998  11.5422  13.3884
    13.8019  14.8605  14.9212  15.2803  15.4559  15.7108  17.6089  17.8379
    18.5975  18.6871  18.9921  20.7948  23.4622  25.6312  27.2862  28.4988
    29.9317  31.0411  31.4660  32.1819  32.5124  33.1560  33.8289  34.8673
    36.3887  38.2356  38.5613  40.8955

          k = 0.7000-0.1000 0.9000 (  3485 PWs)   bands (ev):

   -77.8724 -41.1638 -41.1550 -41.1548 -40.2672 -16.5544 -16.5478 -16.5460
   -12.0659 -12.0602 -12.0582 -12.0516 -12.0491   7.0960  11.6445  12.7581
    13.6030  14.7937  15.0984  15.3004  15.3812  15.8380  17.6926  18.0863
    18.3780  18.5768  18.7859  21.4213  23.8669  25.4133  26.8321  28.1006
    29.5469  31.0708  31.6361  32.3803  33.5416  33.7871  34.4988  35.3446
    36.9277  38.2010  38.8037  40.0539

          k = 0.6000 0.0000 0.8000 (  3488 PWs)   bands (ev):

   -77.8724 -41.1637 -41.1550 -41.1548 -40.2673 -16.5527 -16.5504 -16.5467
   -12.0651 -12.0576 -12.0563 -12.0535 -12.0496   7.1325  11.8605  12.2105
    13.4698  14.8096  15.2825  15.3098  15.3620  15.9043  17.8480  18.2561
    18.3645  18.6685  18.7740  21.8182  24.7555  25.1573  25.3488  27.7496
    28.3092  31.7327  31.7809  32.5224  32.8023  35.0896  35.5783  36.1582
    36.9409  38.6996  38.9443  39.2182

          k =-0.2000-1.0000 0.0000 (  3478 PWs)   bands (ev):

   -77.8724 -41.1641 -41.1549 -41.1548 -40.2670 -16.5556 -16.5456 -16.5453
   -12.0675 -12.0624 -12.0600 -12.0500 -12.0486   7.0934  11.5063  13.3178
    13.7774  14.7537  14.8671  15.3514  15.3618  15.6899  17.5405  17.8113
    18.4406  18.5003  18.7810  20.7103  23.4563  27.1992  27.2414  28.8992
    29.9259  30.5522  31.7514  32.9320  33.2345  33.2818  34.1084  34.4259
    35.5944  38.1990  38.5295  38.9020

          k = 0.6000-0.2000 1.0000 (  3495 PWs)   bands (ev):

   -77.8724 -41.1634 -41.1550 -41.1548 -40.2676 -16.5540 -16.5478 -16.5471
   -12.0648 -12.0582 -12.0567 -12.0534 -12.0495   7.0444  11.6928  12.6395
    13.3995  14.8563  15.1618  15.2655  15.4358  15.9547  17.9368  18.0528
    18.3667  18.6742  18.9282  22.3874  23.7744  24.1001  26.6606  27.6700
    28.9735  31.1969  31.5016  32.5700  32.7617  33.9358  35.0697  36.4910
    37.8580  38.3897  39.0105  39.4159

          k = 0.5000-0.1000 0.9000 (  3486 PWs)   bands (ev):

   -77.8724 -41.1638 -41.1550 -41.1548 -40.2672 -16.5525 -16.5497 -16.5476
   -12.0656 -12.0566 -12.0556 -12.0555 -12.0491   7.1459  11.8611  12.3382
    13.3310  14.8016  15.1960  15.3125  15.3361  15.9990  18.0015  18.0741
    18.2992  18.5840  18.7236  22.7939  23.7817  24.9660  25.1479  28.0780
    29.6022  30.9094  31.4326  32.5649  33.5916  33.7904  35.1300  37.0230
    37.4837  38.8753  39.0370  39.9828

          k =-0.4000-1.0000 0.0000 (  3464 PWs)   bands (ev):

   -77.8724 -41.1640 -41.1550 -41.1548 -40.2670 -16.5528 -16.5483 -16.5480
   -12.0667 -12.0584 -12.0568 -12.0536 -12.0486   7.1675  11.8615  12.5346
    13.2901  14.7690  15.1418  15.2690  15.3380  15.9807  17.8482  18.1132
    18.2335  18.4564  18.6763  22.4400  24.1175  24.8923  25.3866  29.1938
    29.8073  30.4740  31.7123  33.0293  33.3767  33.4235  34.1847  36.3064
    37.7013  39.3023  39.3556  39.8612

     the Fermi energy is    16.5343 ev

!    total energy              =    -527.61304464 Ry
     estimated scf accuracy    <          2.0E-11 Ry
     smearing contrib. (-TS)   =      -0.00000000 Ry
     internal energy E=F+TS    =    -527.61304464 Ry

     The total energy is F=E-TS. E is the sum of the following terms:
     one-electron contribution =    -231.90748088 Ry
     hartree contribution      =     136.93095116 Ry
     xc contribution           =     -58.08923074 Ry
     ewald contribution        =    -374.54728418 Ry

     convergence has been achieved in  12 iterations

     Writing all to output data dir out/mp-5967.save/
 
     init_run     :      0.31s CPU      0.36s WALL (       1 calls)
     electrons    :     12.63s CPU     14.24s WALL (       1 calls)

     Called by init_run:
     wfcinit      :      0.28s CPU      0.31s WALL (       1 calls)
     potinit      :      0.01s CPU      0.01s WALL (       1 calls)
     hinit0       :      0.01s CPU      0.03s WALL (       1 calls)

     Called by electrons:
     c_bands      :     10.95s CPU     12.26s WALL (      12 calls)
     sum_band     :      1.63s CPU      1.87s WALL (      12 calls)
     v_of_rho     :      0.04s CPU      0.05s WALL (      13 calls)
     mix_rho      :      0.01s CPU      0.03s WALL (      12 calls)

     Called by c_bands:
     init_us_2    :      0.07s CPU      0.09s WALL (     600 calls)
     init_us_2:cp :      0.07s CPU      0.09s WALL (     600 calls)
     cegterg      :     10.00s CPU     10.66s WALL (     288 calls)

     Called by *egterg:
     cdiaghg      :      2.15s CPU      2.44s WALL (    1031 calls)
     h_psi        :      6.97s CPU      7.30s WALL (    1055 calls)
     g_psi        :      0.04s CPU      0.04s WALL (     743 calls)

     Called by h_psi:
     h_psi:calbec :      0.22s CPU      0.23s WALL (    1055 calls)
     vloc_psi     :      6.52s CPU      6.82s WALL (    1055 calls)
     add_vuspsi   :      0.16s CPU      0.16s WALL (    1055 calls)

     General routines
     calbec       :      0.22s CPU      0.23s WALL (    1055 calls)
     fft          :      0.02s CPU      0.04s WALL (     129 calls)
     ffts         :      0.00s CPU      0.00s WALL (      12 calls)
     fftw         :      7.32s CPU      7.68s WALL (   79760 calls)
     davcio       :      0.10s CPU      0.73s WALL (    1058 calls)
 
     Parallel routines
 
     PWSCF        :     13.07s CPU     14.97s WALL

 
   This run was terminated on:   0:43: 1   6Dec2023            

=------------------------------------------------------------------------------=
   JOB DONE.
=------------------------------------------------------------------------------=
