
     Program PWSCF v.7.1 starts on  5Dec2023 at 21: 2: 2 

     This program is part of the open-source Quantum ESPRESSO suite
     for quantum simulation of materials; please cite
         "P. Giannozzi et al., J. Phys.:Condens. Matter 21 395502 (2009);
         "P. Giannozzi et al., J. Phys.:Condens. Matter 29 465901 (2017);
         "P. Giannozzi et al., J. Chem. Phys. 152 154105 (2020);
          URL http://www.quantum-espresso.org", 
     in publications or presentations arising from this work. More details at
     http://www.quantum-espresso.org/quote

     Parallel version (MPI), running on     8 processors

     MPI processes distributed on     1 nodes
     122775 MiB available memory on the printing compute node when the environment starts
 
     Reading input from pw_mp-5967_nscf_k10_E71.in
Warning: card &IONS ignored
Warning: card / ignored
Warning: card &CELL ignored
Warning: card / ignored

     Current dimensions of program PWSCF are:
     Max number of different atomic species (ntypx) = 10
     Max number of k-points (npk) =  40000
     Max angular momentum in pseudopotentials (lmaxx) =  4

     Atomic positions and unit cell read from directory:
     out/mp-5967.save/
     Atomic positions from file used, from input discarded
 
 
     R & G space division:  proc/nbgrp/npool/nimage =       8
     Subspace diagonalization in iterative solution of the eigenvalue problem:
     one sub-group per band group will be used
     scalapack distributed-memory algorithm (size of sub-group:  2*  2 procs)

 
     Parallelization info
     --------------------
     sticks:   dense  smooth     PW     G-vecs:    dense   smooth      PW
     Min         148     148     43                 3413     3413     513
     Max         149     149     44                 3416     3416     514
     Sum        1189    1189    349                27317    27317    4111
 
     Using Slab Decomposition
 


     bravais-lattice index     =            2
     lattice parameter (alat)  =      11.0675  a.u.
     unit-cell volume          =     338.9178 (a.u.)^3
     number of atoms/cell      =            3
     number of atomic types    =            3
     number of electrons       =        44.00
     number of Kohn-Sham states=         1704
     kinetic-energy cutoff     =      71.0000  Ry
     charge density cutoff     =     284.0000  Ry
     Exchange-correlation= PBE
                           (   1   4   3   4   0   0   0)

     celldm(1)=  11.067549  celldm(2)=   0.000000  celldm(3)=   0.000000
     celldm(4)=   0.000000  celldm(5)=   0.000000  celldm(6)=   0.000000

     crystal axes: (cart. coord. in units of alat)
               a(1) = (  -0.500000   0.000000   0.500000 )  
               a(2) = (   0.000000   0.500000   0.500000 )  
               a(3) = (  -0.500000   0.500000   0.000000 )  

     reciprocal axes: (cart. coord. in units 2 pi/alat)
               b(1) = ( -1.000000 -1.000000  1.000000 )  
               b(2) = (  1.000000  1.000000  1.000000 )  
               b(3) = ( -1.000000  1.000000 -1.000000 )  


     PseudoPot. # 1 for Co read from file:
     /usr/scratch4/magr4985/MG/HTDF/pseudo/SG15/Co.upf
     MD5 check sum: 04640e31e65e5bce9f0417487be359f7
     Pseudo is Norm-conserving, Zval = 17.0
     Generated using ONCVPSP code by D. R. Hamann
     Using radial grid of  602 points,  6 beta functions with: 
                l(1) =   0
                l(2) =   0
                l(3) =   1
                l(4) =   1
                l(5) =   2
                l(6) =   2

     PseudoPot. # 2 for Sb read from file:
     /usr/scratch4/magr4985/MG/HTDF/pseudo/SG15/Sb.upf
     MD5 check sum: 0417cd6c0fe8ce4611e2b23135f1abd9
     Pseudo is Norm-conserving, Zval = 15.0
     Generated using ONCVPSP code by D. R. Hamann
     Using radial grid of  602 points,  6 beta functions with: 
                l(1) =   0
                l(2) =   0
                l(3) =   1
                l(4) =   1
                l(5) =   2
                l(6) =   2

     PseudoPot. # 3 for Ti read from file:
     /usr/scratch4/magr4985/MG/HTDF/pseudo/SG15/Ti.upf
     MD5 check sum: 1aea57736bd12dcfee93c97d0b9b5968
     Pseudo is Norm-conserving, Zval = 12.0
     Generated using ONCVPSP code by D. R. Hamann
     Using radial grid of  602 points,  6 beta functions with: 
                l(1) =   0
                l(2) =   0
                l(3) =   1
                l(4) =   1
                l(5) =   2
                l(6) =   2

     atomic species   valence    mass     pseudopotential
        Co            17.00    58.93320     Co( 1.00)
        Sb            15.00   121.76000     Sb( 1.00)
        Ti            12.00    47.86700     Ti( 1.00)

     24 Sym. Ops. (no inversion) found



   Cartesian axes

     site n.     atom                  positions (alat units)
         1           Ti  tau(   1) = (   0.0000000   0.0000000   0.0000000  )
         2           Co  tau(   2) = (  -0.2500000   0.2500000   0.2500001  )
         3           Sb  tau(   3) = (  -0.5000000   0.5000000   0.5000000  )

     number of k points=     3  Gaussian smearing, width (Ry)=  0.0005
                       cart. coord. in units 2pi/alat
        k(    1) = (   0.0000000   0.0000000   0.0000000), wk =   0.2500000
        k(    2) = (   0.5000000  -0.5000000   0.5000000), wk =   1.0000000
        k(    3) = (   0.0000000  -1.0000000   0.0000000), wk =   0.7500000

     Dense  grid:    27317 G-vectors     FFT dimensions: (  45,  45,  45)

     Estimated max dynamical RAM per process >     139.14 MB

     Estimated total dynamical RAM >       1.09 GB

     The potential is recalculated from file :
     out/mp-5967.save/charge-density

     Starting wfcs are random

     Band Structure Calculation
     ParO style diagonalization

     ethr =  5.00E-06,  avg # of iterations =  5.8

     total cpu time spent up to now is      794.2 secs

     End of band structure calculation

          k = 0.0000 0.0000 0.0000 (  3479 PWs)   bands (ev):

   -77.8723 -41.1547 -41.1547 -41.1547 -40.2781 -16.5389 -16.5389 -16.5389
   -12.0675 -12.0675 -12.0580 -12.0580 -12.0580   5.1225  13.9093  13.9093
    13.9093  14.7385  14.7385  16.3592  16.3592  16.3592  18.2292  18.2292
    19.4251  19.4251  19.4251  20.7889  24.3209  24.6589  24.6589  24.6589
    26.6062  26.6062  26.6063  29.5426  29.5426  34.7460  38.2746  38.2746
    38.2746  42.9317  42.9317  44.1446  44.1446  44.1446  44.7436  44.7436
    44.7436  49.2911  49.2911  49.2911  50.5908  50.5908  50.5908  51.0198
    52.6737  52.6737  52.6737  53.3348  54.8003  54.8003  54.8003  57.7736
    57.7736  57.7736  57.8992  57.8992  58.2467  58.2467  58.8942  58.8942
    58.8942  61.1746  62.5268  62.5268  62.5268  63.2479  63.2479  63.2479
    67.0797  71.8269  74.9868  74.9868  74.9868  77.4415  77.4415  77.4415
    78.6460  78.6460  81.8894  81.8894  81.8894  82.0382  85.3282  85.3282
    85.7535  85.7535  85.7535  87.7087  87.7087  87.7087  87.7731  87.7731
    87.7732  88.5887  88.5887  88.7689  88.7689  88.7689  88.8381  88.8381
    88.8381  91.2526  91.2526  91.2526  92.0431  92.1707  92.1707  92.7308
    92.7308  92.7308  93.8031  94.7980  94.7980  94.7980  94.9424  96.9671
    96.9671  96.9671 101.1003 101.1003 102.7819 102.7819 102.7819 105.0213
   105.5095 105.5095 105.5095 105.6023 105.6023 105.6023 106.7696 106.7696
   106.7696 106.8662 106.8662 106.8662 107.9209 107.9209 111.8033 111.8033
   111.8033 113.5144 115.0634 115.0634 115.1544 115.1544 115.1544 115.4748
   117.4272 117.4272 117.4272 117.7666 117.7666 117.7666 118.6340 118.6340
   118.6340 118.9418 119.2703 119.2703 119.2703 119.9117 122.2049 122.2049
   122.2049 126.3280 126.3280 127.5256 127.5256 127.5256 127.9448 127.9448
   129.2640 129.2640 129.2640 131.5663 131.5663 131.5663 133.7051 133.7051
   133.7051 135.8905 137.8142 137.8142 137.8142 139.3678 139.3678 140.0417
   141.0071 141.0071 141.0071 142.3222 145.1360 145.1360 145.1360 146.3598
   146.8758 146.8758 146.8758 146.9886 146.9886 146.9886 148.9238 148.9238
   148.9238 149.6792 150.0974 150.0974 150.0974 150.6752 150.6752 152.5463
   153.1786 153.1786 153.1786 153.3907 153.3907 153.3907 154.6813 154.6813
   154.6813 155.1868 155.1868 155.3328 156.6380 156.6380 156.6380 158.1799
   158.1799 158.2247 158.2247 158.2247 159.0581 159.0581 159.0581 159.1882
   159.1882 159.1882 159.4890 159.4890 159.4890 159.5264 159.5264 159.5264
   159.8414 159.8414 160.0937 160.4788 160.4788 160.4788 160.8644 160.8644
   160.8644 160.9101 160.9101 167.6406 167.7748 167.7748 167.7748 168.1826
   168.1826 169.6092 169.6092 169.6092 171.1407 171.1407 171.1407 171.2766
   171.2766 171.6172 171.6172 171.6172 172.0603 172.0603 172.0603 174.9770
   177.4150 178.8461 178.8461 179.0814 179.0814 179.0814 179.2861 179.8750
   179.8750 179.8750 181.3356 181.3356 181.3356 184.7761 184.7761 184.7761
   187.0873 187.0873 187.0873 187.1405 187.1405 187.1405 188.9329 188.9329
   188.9329 189.2761 189.2761 189.2761 189.4034 189.4034 190.2000 191.6293
   191.6293 191.6293 191.7443 191.8115 191.8115 192.4409 192.4409 192.4409
   192.5762 192.5762 192.5762 192.9267 192.9267 192.9267 193.5915 193.5915
   194.9332 194.9332 194.9333 196.7647 196.7647 200.9316 200.9316 200.9316
   202.6478 202.9139 202.9139 202.9139 204.8387 205.2820 205.2820 205.2820
   206.0159 209.4691 209.4691 212.1056 212.1056 212.1056 212.3742 212.3742
   212.3742 213.5752 213.5752 214.2362 214.2362 214.2362 214.6133 214.6133
   214.6133 216.5771 217.5276 217.5276 217.5277 219.2887 219.7489 219.7489
   219.7489 222.4783 222.4783 222.4783 222.7651 222.7651 223.2000 223.2000
   223.2000 223.2082 223.2082 223.2082 223.3936 223.3936 223.3936 223.7338
   223.7338 223.7338 224.0740 224.4624 224.4624 224.4624 224.9942 226.8440
   226.8440 227.7884 227.7884 227.7884 227.9449 227.9449 227.9449 228.0468
   228.0468 228.0468 228.3195 228.3195 228.3195 228.5697 230.4620 230.4620
   230.4620 232.5515 232.5515 234.5299 236.1548 236.1548 236.1548 236.2272
   238.4409 238.4409 238.4409 238.7319 238.7319 238.7319 238.8495 238.8495
   238.8495 239.1441 239.1441 239.3161 239.3161 239.3850 239.3850 239.3850
   240.9452 240.9452 240.9452 244.9030 245.3157 245.3157 246.1496 246.1496
   246.1496 246.1605 246.2291 246.2291 246.2291 246.3947 246.3947 246.5717
   246.5717 246.5717 246.5751 246.5751 246.5751 247.8543 247.8543 247.8543
   248.1814 248.1814 249.0672 249.0672 249.0672 249.2481 249.6889 249.6889
   249.6889 249.7423 249.7423 249.7423 249.8325 249.8325 249.8325 250.1735
   250.1735 250.1735 250.2777 250.2777 250.2777 250.3927 251.4699 253.7448
   253.7448 253.7448 255.2614 255.2614 255.8383 255.8383 255.8383 256.3368
   256.3368 256.3392 257.2200 258.0697 258.0697 258.0697 258.9415 258.9415
   259.5703 259.5703 259.5703 259.6700 259.6700 259.6700 259.8713 259.8713
   259.8713 260.4965 260.4965 260.4965 260.6730 260.6730 261.7146 261.7146
   261.7146 261.9775 261.9775 261.9775 262.1474 262.1474 262.1474 263.6703
   263.6703 263.8474 263.8596 263.8596 263.8596 266.1879 266.1879 266.1879
   267.1311 267.1335 267.1335 267.1335 270.5019 270.5019 277.2340 277.2340
   277.2340 280.5178 280.5178 280.5178 283.1726 283.7513 286.3172 286.3172
   286.8625 286.8625 286.8625 288.3375 288.3375 288.3375 289.1131 289.2487
   289.2487 289.2487 289.3504 289.3504 289.3504 289.8019 289.8019 289.8019
   290.0026 290.0026 291.0178 291.0178 291.0178 291.2323 291.9771 292.0795
   292.0795 292.0795 293.0573 293.0573 293.0573 293.2297 293.2297 293.2297
   293.4216 293.4216 293.4216 296.3666 296.3666 296.5093 296.5093 296.5093
   298.4506 298.4506 298.8291 298.8291 298.8291 299.0361 299.0361 299.0361
   299.2806 299.2806 299.2806 299.3789 299.3789 299.3789 299.5238 299.5238
   301.4154 301.4154 301.4774 301.4774 301.4774 301.5788 303.4060 303.4060
   303.4060 307.8539 307.8539 307.8539 308.1320 308.3074 308.3074 308.3074
   308.6730 308.6730 310.0458 310.0458 310.0458 310.8825 310.8825 311.2923
   311.2923 311.2923 312.8480 313.4763 313.4763 313.4763 313.5337 313.5337
   313.5337 313.6535 313.6535 313.6535 314.8420 314.8420 314.8420 314.8874
   315.0152 315.0152 315.0152 315.0674 315.0674 315.2489 315.2489 315.2489
   315.4855 315.4855 315.4855 315.9706 317.3164 317.3164 319.0066 319.0066
   319.0066 321.3488 321.3488 321.3488 321.5165 322.0818 322.0818 322.0818
   322.8272 322.8272 322.8272 323.0967 323.9357 324.2246 324.2246 326.2299
   326.2299 326.2299 326.3874 326.4185 326.4185 326.4185 326.4384 326.4384
   326.4384 329.8667 329.8667 330.1977 330.1977 330.1977 330.7738 330.7738
   330.7738 330.9168 330.9168 330.9168 331.2449 331.4070 331.4070 332.4588
   332.4589 332.4589 332.5006 332.5192 332.5192 332.5192 332.5283 332.5283
   332.5283 332.9076 332.9076 332.9189 332.9189 332.9189 333.5024 333.5024
   333.5024 333.6600 333.6600 333.6600 333.9166 334.8650 334.8650 339.9662
   339.9662 340.0451 340.0451 340.0451 341.0822 341.0822 341.0822 341.4027
   345.3023 345.3023 345.3023 345.3262 345.3262 346.4115 346.4115 346.4115
   346.5232 346.5232 346.5232 346.6309 346.6309 346.6309 346.7465 347.3212
   347.3212 347.3212 347.4205 347.4515 347.4515 347.4515 347.6699 347.6699
   349.0776 349.0776 349.0776 352.2862 353.2711 353.6713 353.6713 353.6713
   355.1670 355.1671 355.1671 355.4462 355.4462 355.4462 355.5473 355.5473
   355.5473 355.7527 355.7527 358.9207 358.9207 359.3172 359.3172 359.3172
   360.4269 360.4269 360.4269 361.3836 361.3836 361.3836 361.5298 361.7239
   361.7239 361.7239 361.9366 361.9366 361.9366 362.0526 362.2168 362.2168
   362.2242 362.2242 362.2242 363.0137 363.0137 363.0137 363.2973 363.2973
   363.2973 363.4477 363.4477 363.4477 363.4906 363.4906 363.4906 364.5433
   364.5433 364.5791 364.5791 364.5791 365.3606 365.3606 365.3606 365.5386
   365.5386 365.5386 365.6470 365.6470 365.8864 365.8864 365.8864 365.9530
   365.9530 366.4012 366.4012 366.4012 366.4442 366.5231 366.5231 366.5231
   366.8104 367.2044 367.2044 367.2044 367.4913 367.4913 367.4913 367.6845
   369.8613 369.8613 369.9605 369.9605 369.9605 370.0886 370.0886 370.0886
   370.5869 370.5869 370.5869 370.6505 370.7650 370.7650 370.7650 371.0771
   371.0771 371.0771 371.0950 371.0950 371.0950 371.1397 371.1397 371.4777
   371.4777 371.4777 371.6935 372.8410 373.0057 382.6767 382.6767 385.5516
   385.5516 385.9510 385.9510 385.9510 386.3674 386.3674 386.3674 386.4511
   386.4511 386.4511 386.5604 386.5604 386.5604 386.9118 386.9118 388.0535
   388.0535 388.0535 388.4992 388.4992 388.4992 388.8929 389.1223 389.1223
   389.1223 389.7716 389.7716 389.7716 389.8171 389.8171 389.8171 389.8280
   389.8280 394.7300 394.7300 394.7300 395.9866 395.9866 396.0434 396.0434
   396.0434 396.0469 396.3182 398.4920 398.4920 398.4920 401.7277 401.7277
   401.7277 401.8583 401.8583 401.8583 401.8720 401.8720 401.8720 403.8094
   403.8094 403.8259 403.8545 403.8545 403.8545 406.8338 406.8338 406.8338
   410.4507 410.4507 411.6544 411.6544 411.6544 414.9227 414.9228 414.9228
   415.8626 416.0269 416.3693 416.3693 416.4814 416.4814 416.4814 416.4849
   416.4849 416.4849 416.5726 416.5726 416.6359 416.6359 416.6359 416.6404
   416.6404 416.6404 418.1961 418.1961 418.1961 419.3091 419.7572 420.5661
   420.5661 420.5661 421.1754 421.1754 422.1161 422.1161 422.1161 422.1244
   422.1244 422.1244 423.3265 423.3265 423.3265 423.5843 423.8594 424.2010
   424.2010 424.2010 424.3871 424.3871 425.6921 425.6921 425.6921 427.0932
   427.0932 427.0932 427.4739 427.4739 427.5242 429.0363 429.0363 429.0363
   429.7753 429.7753 429.7753 430.0173 430.0173 430.0173 430.4392 430.4392
   430.5387 430.5387 430.5388 431.0669 431.0669 431.0669 431.1738 431.1738
   431.1738 431.2288 432.2649 433.0398 433.0398 433.0398 433.0812 433.0812
   433.7245 433.7245 433.7245 434.1134 434.1134 434.1134 434.1271 434.1271
   434.7866 435.1562 435.1562 435.1562 435.2345 435.2345 435.2345 435.3401
   435.3401 435.3401 435.3813 435.3813 435.3845 435.3845 435.3845 437.9988
   438.0371 438.0371 438.0371 438.0778 438.0778 438.0778 438.2221 438.2221
   438.2702 438.2702 438.2702 443.1662 443.1662 445.9786 445.9786 445.9786
   446.6323 446.6323 446.6323 447.4437 448.9807 448.9807 449.0841 449.0841
   449.0841 449.2358 449.2358 449.2358 449.9791 450.0307 450.0307 450.0307
   450.1166 450.1166 450.1212 450.1212 450.1212 450.1861 450.1861 450.1861
   450.8048 450.8804 450.8804 450.8804 451.1331 451.1331 451.1331 451.1605
   451.1605 451.1605 451.2390 451.2390 451.2390 455.7308 455.8010 455.8010
   456.1669 456.1669 456.1669 456.4909 456.4909 456.4909 456.5843 456.5843
   456.5843 457.5503 457.5503 457.5898 457.5898 457.5898 457.6504 457.6504
   457.6504 457.6648 457.6648 457.6648 457.6857 458.0865 458.0865 458.0865
   459.5504 459.5504 459.6692 459.6692 459.6692 459.8378 459.8673 459.8673
   460.2980 460.2980 460.2980 461.1593 461.1593 461.1593 461.4280 461.4280
   461.4883 461.4883 461.4883 461.7265 461.7342 461.9012 461.9012 461.9012
   461.9265 461.9265 462.0197 462.0197 462.0197 462.1340 462.1340 462.1340
   463.4988 463.4988 463.4988 464.9324 465.4594 465.8138 465.8138 465.8138
   465.9368 465.9368 466.1806 466.1806 466.1806 466.4198 466.4198 466.4198
   467.6167 467.6605 467.6605 467.6679 467.6679 467.6679 467.7130 467.7130
   467.7130 468.4787 468.4787 468.4787 468.6686 468.6686 468.6687 468.9497
   469.2602 469.5014 469.5014 469.5014 469.9108 469.9108 469.9108 469.9783
   469.9783 469.9783 469.9930 469.9930 469.9930 471.0772 471.2751 471.2751
   471.3018 471.3018 471.3018 471.9944 471.9944 472.0848 472.0848 472.0848
   472.3521 472.3521 472.3521 472.4652 472.4947 472.4947 472.4947 472.5212
   472.5212 472.5212 472.5767 472.5767 472.5767 472.6931 472.6931 472.7122
   472.7122 472.7122 472.7703 490.4051 490.4051 490.4051 491.7238 491.7238
   493.8930 493.8930 493.8930 495.2735 495.2735 495.3195 495.3225 495.3225
   495.3225 495.4786 495.5937 495.5937 495.5937 495.6442 495.6442 495.6442
   495.7271 495.7271 495.7271 497.9698 497.9698 497.9698 499.1788 499.1788
   499.1788 499.2731 499.6659 499.9938 499.9938 501.3652 501.3652 501.3652
   501.4791 501.4791 501.4791 501.5163 501.5163 501.5163 501.6408 501.6408
   501.6408 501.6598 501.6598 503.3480 503.3480 503.6616 503.6676 503.6676
   503.6676 503.7257 503.7257 503.7257 503.7850 503.7850 503.7850 504.4113
   504.4113 504.4113 504.5413 504.5870 504.5870 504.5870 504.6113 504.6113
   504.6352 504.6352 504.6352 505.1715 505.1715 505.1715 505.3074 505.3074
   505.3384 505.3384 505.3384 505.3683 505.4005 505.4005 505.4005 505.7266
   505.7266 505.7266 505.7591 505.7591 505.7623 505.7623 505.7623 505.7884
   505.8222 505.8222 505.8222 510.3772 510.3772 510.4053 510.4053 510.4053
   510.5016 510.5016 510.5016 510.5420 510.5420 510.5420 510.5880 510.5880
   510.6191 510.6191 510.6191 513.2988 513.3442 513.3442 513.3442 513.3901
   513.3901 513.3901 513.4362 513.8936 513.8936 515.4335 515.4335 516.0759
   516.0759 516.0759 516.2672 516.2934 516.2934 516.2934 518.5894 518.5894
   518.5894 519.8945 520.1771 520.2091 520.2091 520.2091 520.3518 520.3518
   520.3518 520.3664 520.3664 520.3664 520.4766 520.4766 520.4766 520.5383
   520.5383 524.0925 524.0925 524.0925 524.5690 524.5690 524.5690 525.3925
   525.4983 527.0174 527.0174 527.0621 527.0670 527.0670 527.0670 527.8868
   527.8868 527.8868 527.9752 527.9752 527.9752 527.9867 527.9867 527.9867
   527.9944 527.9944 527.9944 528.7748 528.7945 528.7945 528.7945 528.8035
   528.8035 538.1282 538.1282 538.1282 538.2409 538.2409 538.2409 538.2451
   538.2451 538.2451 538.2488 538.2488 538.2488 538.6368 538.6368 539.6654
   539.6654 539.6948 539.6948 539.6948 539.7105 539.7105 539.7105 539.7285
   539.7285 539.7285 539.8077 539.8077 539.8077 539.9527 539.9527 540.6472
   540.6472 540.6472 540.8539 551.9866 551.9866 551.9866 552.4692 552.4692
   552.5541 552.5541 552.5541 552.6720 552.7219 552.7219 552.7219 557.9946
   557.9946 557.9946 558.6563 558.6563 559.1679 559.1679 559.1679 559.3142
   559.4996 559.4996 559.4996 561.2655 561.2655 561.2655 562.4259 562.4259
   563.1116 563.1116 563.4133 563.4133 563.4133 564.0447 564.0447 564.0447
   564.1942 564.4669 564.4669 564.4669 564.7668 564.7668 564.7668 565.4290
   565.4290 565.4290 566.4366 566.4366 566.4366 567.5049 567.7974 567.7974
   567.7974 568.1246 568.1246 568.2659 568.2659 568.2659 568.5856 569.3163
   569.3163 569.3163 569.5836 569.6316 569.6316 569.6316 569.6605 569.6605
   569.7169 569.7169 569.7169 569.7328 569.7328 569.7328 569.8012 569.8012
   569.8012 570.0943 570.3467 570.3467 570.3467 570.8368 570.8368 571.8760
   571.8760 571.8760 571.8848 571.8848 571.9150 571.9150 571.9150 572.3044
   572.3044 572.3044 572.3251 572.6272 572.6272 572.8915 572.8915 572.8915
   573.3523 573.6854 573.6854 573.6854 573.8450 574.4152 574.4152 574.4152
   575.1045 575.1045 575.1045 575.1336 575.1336 575.4605 575.4605 575.5635
   575.5873 575.5873 575.5873 575.7612 575.7612 575.7612 575.8413 575.8414
   575.8414 576.3006 576.3006 576.3006 576.5277 576.5277 576.5277 576.5704
   576.5704 576.9623 576.9623 576.9623 577.3950 577.3950 577.3950 577.4009
   577.4009 577.4009 577.4634 577.4634 577.4634 577.5119 577.5119 577.5119
   577.5780 577.7432 577.8775 577.8775 577.8775 577.9113 577.9113 578.0122
   578.0122 578.0122 578.0789 578.0789 578.0789 578.7940 578.7940 578.7940
   578.8088 578.8088 578.8387 578.8387 578.8387 578.9581 578.9581 578.9581
   579.0796 579.1331 579.1331 579.1729 579.1729 579.1729 579.2142 581.3968
   581.3968 581.3968 582.6405 582.6405 582.6405 582.8440 582.9848 591.4336
   591.5643 591.5643 591.5643 591.5660 591.5660 591.7020 591.7020 591.7020
   591.8137 591.8137 591.8137 592.1743 592.1743 592.1743 592.1939 592.1939
   592.5487 592.5487 592.5487 592.6236 592.6236 592.6236 592.8316 596.5346
   596.5346 596.6877 596.6877 596.6877 596.7314 596.7314 596.7428 596.7428
   596.7428 596.7527 596.7527 596.7527 596.7720 596.7720 596.7720 601.2321
   601.2321 601.2321 601.4028 601.4028 601.9212 601.9212 601.9212 602.0840
   602.0841 602.0841 602.5384 602.5398 602.5398 602.6125 602.6125 602.6125

          k = 0.5000-0.5000 0.5000 (  3426 PWs)   bands (ev):

   -77.8723 -41.1619 -41.1547 -41.1547 -40.2697 -16.5589 -16.5464 -16.5464
   -12.0565 -12.0565 -12.0565 -12.0514 -12.0514   6.8574  10.7420  13.2797
    13.2797  15.0334  15.0334  15.0537  16.3009  16.3009  18.2336  18.2336
    18.3863  20.0502  21.1033  21.1033  22.2338  22.2338  26.1971  28.8137
    28.8137  29.1937  30.7046  30.7046  31.1685  35.9792  36.8844  36.8844
    38.0273  38.0273  38.2068  40.3803  42.4453  43.0486  44.3921  44.3921
    45.4513  45.4513  46.4921  47.2254  47.2254  48.7921  49.2529  49.2529
    50.3616  51.7808  54.6620  54.6620  55.0275  55.1144  55.1144  59.3118
    59.3118  60.1765  60.1765  62.3352  63.6669  63.6669  64.4028  64.4028
    65.2768  65.9620  65.9620  66.9914  67.5806  67.5806  67.9129  67.9412
    68.5864  70.1786  70.1786  71.3281  71.3281  71.8579  73.8490  73.8547
    73.8547  74.8491  74.8491  76.2642  76.2642  77.1547  78.1067  78.1067
    78.4890  79.3793  82.3461  82.6690  84.3895  85.3803  85.4957  85.4957
    86.9230  86.9230  88.9890  90.0337  90.0337  90.5099  91.1831  91.7992
    91.7992  92.2867  92.2867  93.3712  93.3785  93.3785  94.3232  95.6300
    95.6300  96.0590  96.0590  96.5155  98.4981  98.4981  99.4241  99.4241
    99.7291  99.7979 100.6151 101.5490 102.4578 102.4578 102.8688 103.9035
   103.9035 104.0822 104.3891 104.3891 106.1254 106.1254 107.9123 107.9123
   108.7140 109.4940 110.3730 110.3730 111.7287 111.7287 112.3723 112.4956
   112.4956 114.3518 114.3518 114.4429 116.4248 116.4248 117.0986 117.6250
   117.6869 117.6869 118.5495 118.5496 118.9751 119.3665 119.3665 120.4237
   120.5121 120.8530 120.8530 121.4613 122.2654 122.2654 122.3848 124.3336
   125.5901 125.5901 125.7915 126.1265 126.7854 127.3899 127.4616 127.4616
   128.1953 128.1953 129.2211 129.2211 130.2864 133.8202 133.9670 133.9670
   135.0549 135.0549 135.5836 135.8928 135.9474 135.9474 136.3586 136.3586
   138.9824 140.1938 140.5993 141.2236 141.2236 141.4970 141.4970 142.0059
   142.0059 142.7048 142.7048 143.2325 143.5900 143.6112 143.6112 144.1489
   144.1489 144.9015 147.0787 147.3525 148.3646 148.3646 148.4503 149.1460
   149.1460 149.8990 149.8990 150.0952 150.2628 150.3372 150.3372 151.1482
   151.1482 153.6605 153.6605 154.3038 154.3038 154.6406 155.1752 155.1839
   155.1839 155.3619 156.4987 156.4987 157.0650 158.0553 158.0553 159.0663
   159.9718 159.9718 160.3193 160.3193 160.5674 161.9719 162.9782 163.9092
   163.9092 165.1192 165.1192 165.1535 165.9476 166.2682 166.2682 166.6651
   166.6651 166.8940 167.2081 167.6361 167.9277 171.0552 171.0552 171.3157
   171.5203 171.5203 172.1970 172.3449 172.3449 172.3597 172.6162 173.0872
   173.3930 173.3930 173.6976 173.6976 175.4090 175.4090 176.0821 176.1653
   176.1653 178.4623 178.7447 178.7447 182.6259 182.6259 182.9783 183.1348
   183.1348 184.5055 184.7581 186.1536 186.1536 186.2278 186.4612 186.5521
   186.5521 187.2150 187.2150 187.5197 187.5197 187.9453 188.0765 188.0901
   189.4881 189.4881 191.4385 191.4385 191.7514 191.7514 192.1861 192.4838
   192.9744 192.9744 193.4665 194.0736 194.2013 194.2013 194.8791 194.9510
   195.0263 195.0263 196.8198 196.8198 197.6454 198.0939 198.0939 198.1605
   198.2941 198.2941 199.0939 199.0940 200.4126 200.4126 200.8279 200.8312
   202.2909 203.0207 203.0207 203.6573 203.6573 205.3852 205.3852 205.6944
   206.7726 206.7726 207.1528 207.1528 207.6546 207.7836 207.7836 207.9192
   208.6080 208.6080 210.1309 210.1309 210.2659 210.3092 211.2921 211.5216
   211.5216 211.8151 212.1233 212.1233 212.6700 212.6700 213.0032 213.0241
   213.4028 214.4635 214.7187 214.7187 215.3325 215.3325 215.8797 215.8797
   216.7578 216.7578 216.7805 217.7272 219.0099 219.0099 220.3126 221.5030
   221.5030 221.5505 221.5505 221.7033 221.7049 222.0594 222.0594 222.2132
   222.8775 224.2701 224.7792 224.7792 225.8532 225.8532 226.1662 226.5384
   228.3323 228.3323 229.6776 229.6776 230.2813 230.2813 230.3878 231.4245
   231.4245 231.8113 232.2390 233.1638 234.0778 234.0778 234.1417 234.7854
   235.1368 235.1368 235.5057 235.5222 235.5222 235.7962 235.7962 236.6762
   237.2673 237.3857 237.3857 237.5305 237.5305 237.9920 238.1425 238.8486
   238.8486 239.1893 239.1893 240.8413 241.3757 241.3757 241.5971 241.5971
   243.5305 243.5305 244.3796 244.5906 244.5906 245.7246 246.8951 246.8951
   247.6074 247.7505 247.7505 248.0983 248.1684 248.1684 249.0229 249.6721
   250.4387 250.4387 251.5652 251.5652 251.6762 251.7300 251.7300 251.7851
   252.3228 252.3400 252.3400 252.9008 253.8673 253.8673 254.8152 255.8309
   255.8309 256.1183 256.2333 256.5576 256.5576 257.7528 257.7528 257.8506
   258.4071 258.4071 258.9690 259.4629 259.4629 260.6773 261.1741 261.1741
   262.1499 262.1499 262.2924 262.7972 262.8275 262.8275 263.0571 263.1548
   263.7902 264.5739 264.5739 264.9199 265.0535 265.0535 265.2053 265.7397
   265.7397 266.1897 266.7989 266.7989 267.9269 267.9269 268.0685 268.6567
   269.5250 269.5250 269.8250 269.9944 270.8414 270.8414 272.7015 272.7015
   273.2449 273.4923 273.5971 273.5971 273.8897 273.8897 274.4123 274.4123
   275.0207 275.0263 275.1910 275.1910 275.8741 275.8741 276.0736 276.0736
   276.5367 276.7310 276.8975 277.9162 277.9162 278.5687 278.5687 279.3518
   280.2024 280.2024 280.7926 281.1914 281.1914 281.3208 281.8970 281.8970
   282.5400 282.5509 282.5986 284.7131 284.7131 285.5628 285.5628 285.8774
   285.8925 285.9681 285.9681 286.3663 286.4447 286.4447 287.9384 287.9384
   288.0459 288.7467 289.2743 289.2743 290.6802 290.6802 290.9728 291.1280
   291.1280 291.3392 293.0241 293.0241 293.0707 293.8208 293.8208 294.2989
   294.2989 296.3730 296.3730 296.3993 296.7483 296.7483 297.4331 297.4331
   297.5698 297.9378 297.9574 297.9693 298.4638 298.4638 298.6049 298.8665
   298.8665 299.6231 299.6231 300.9311 300.9965 300.9965 301.4015 301.4015
   302.3141 302.5255 302.5255 302.6819 303.5715 303.5715 303.5883 303.6908
   304.8622 305.0723 305.5262 305.5269 306.0115 306.0115 306.7057 306.7057
   308.1786 308.8892 308.8892 308.9918 308.9918 309.4231 310.2321 310.2321
   311.1939 311.1939 311.7574 312.4665 312.4665 312.5563 312.7014 312.7014
   312.8474 312.8642 314.3079 314.3079 316.2182 316.2182 316.7185 318.8291
   319.4223 319.4223 319.9627 320.0184 320.0184 320.2777 320.2777 320.6017
   321.7593 321.9356 321.9356 322.6932 322.6932 322.9528 323.4374 323.4374
   323.5305 323.6141 323.6141 323.9686 324.1887 324.1887 324.9515 325.2310
   325.2310 325.3979 326.2480 326.4327 326.4327 326.5290 326.5290 326.7068
   326.9411 326.9411 327.5024 327.5024 327.5899 327.6489 328.0187 328.0187
   328.4676 328.4676 329.1367 329.1664 329.4458 329.4458 330.4657 330.4704
   330.4704 331.0364 331.8504 331.8504 331.9122 332.1741 332.1741 332.4319
   332.8588 332.8588 333.5854 333.5854 333.7299 333.7910 334.0266 334.0266
   334.0620 336.5973 336.5973 337.9879 338.0574 338.0574 339.3951 339.3951
   339.5199 340.4707 340.4707 341.3324 341.4812 341.4812 341.5457 341.9578
   341.9578 342.3405 342.7552 343.1202 343.4431 343.4431 343.9950 343.9950
   344.0611 344.0611 344.1125 344.1298 344.1967 344.4152 344.4152 344.9223
   345.5217 345.5217 345.7724 345.7724 345.9362 346.0518 346.5525 346.5922
   346.5922 347.3672 347.3672 347.5519 349.0374 349.5370 349.5370 350.5999
   350.9179 350.9179 351.0727 351.0727 352.0020 352.0822 352.0822 352.1088
   352.5676 352.5676 352.6040 352.6555 354.5573 354.5573 354.9745 355.7434
   355.7434 356.1623 359.8399 360.0380 360.0380 360.2793 360.2793 361.0511
   361.6338 361.6338 362.5265 362.5265 363.4166 363.4460 363.4460 363.9219
   363.9219 364.1059 364.1059 364.1383 364.2692 364.4069 364.4069 364.6582
   364.6582 364.6890 365.3116 365.3116 366.4414 366.5820 366.8016 366.8016
   366.9744 366.9744 367.5505 367.8474 367.8474 367.8944 367.9730 367.9730
   367.9951 368.0245 368.8946 368.8946 369.2578 369.2578 369.7374 369.8611
   370.6010 370.6010 371.2751 371.2751 371.6092 371.6093 371.7045 372.1850
   372.8780 372.8781 373.0041 373.4169 373.4169 374.0715 375.3123 375.3123
   376.1606 376.1606 376.1686 376.1838 378.8168 378.8168 379.6310 379.6356
   380.4894 380.4894 380.6831 380.6831 381.0383 381.1543 381.4545 381.4545
   382.4408 382.4408 382.5887 382.5887 382.5950 382.6665 382.7537 383.6815
   383.6815 383.7826 384.0389 384.0389 384.4339 384.4421 384.4421 384.8764
   384.8764 385.3294 385.4114 385.4115 385.4283 385.4458 385.9684 389.0744
   389.3613 389.3613 389.7572 389.7572 390.5459 390.5459 390.6173 390.6197
   391.3696 391.3696 392.0103 392.6498 392.6498 392.7369 393.0944 393.0944
   393.5258 393.5258 394.3101 394.3562 394.6444 395.0410 395.0410 395.2316
   395.2316 395.5387 395.5387 395.8525 396.1868 396.3615 397.9614 397.9614
   400.0747 400.2019 400.3803 400.3803 400.8146 400.8146 401.8540 401.8540
   402.0925 402.1374 402.1475 402.1634 402.1634 402.2633 402.3812 402.3812
   402.9667 402.9667 403.0340 403.2840 403.2840 403.2904 404.9982 404.9982
   405.0456 405.0534 405.2812 405.2812 406.2355 406.2355 407.2549 407.2549
   407.4009 407.4349 407.8294 407.8294 407.8859 407.8859 408.1422 408.1524
   408.5119 408.5119 409.9889 410.8188 411.3785 411.3785 412.2970 412.5238
   412.5238 414.3147 414.3147 414.3701 414.6655 414.6655 415.1426 415.1426
   415.2371 415.2527 415.3486 415.8988 415.8988 416.1494 416.1494 416.7469
   417.3832 417.3832 417.4634 418.1117 418.1117 418.4477 419.0507 419.0507
   419.2107 419.8033 420.6105 420.6105 421.0215 421.0215 421.1254 421.3797
   421.3797 421.3890 421.9629 421.9629 422.0142 422.5234 422.5824 422.5824
   422.5841 423.0001 423.1448 423.1448 423.2840 423.2840 423.3843 423.3843
   423.5857 423.7123 423.7123 424.0589 425.2801 425.2801 425.5746 426.8229
   426.8536 426.8536 427.1535 427.2865 427.3115 427.3115 427.7603 427.7603
   428.8301 428.8301 429.6392 429.6392 430.1615 430.1615 430.3523 430.6152
   431.2268 431.2268 431.3164 431.3507 432.4826 432.5841 432.5841 433.0375
   433.0375 433.0822 433.0822 433.7790 433.7803 434.7023 434.7023 435.4853
   435.9412 435.9412 435.9751 435.9751 437.7238 437.7238 438.1098 438.1102
   439.8526 440.3156 440.3157 440.4312 441.0250 441.0250 441.1958 441.7921
   441.7921 442.3754 442.9142 444.0566 444.0566 444.0616 444.7946 444.7946
   445.2488 445.2488 445.3183 445.3403 445.4668 445.4668 445.5204 445.7683
   446.0544 446.0544 446.6236 446.6236 446.6519 446.6730 446.6730 446.7402
   446.8251 446.8251 447.0447 447.0577 447.0636 447.0636 447.3473 447.3473
   447.5535 447.7384 450.0738 450.0738 451.4054 451.4054 452.9352 452.9352
   453.4342 453.5134 453.6047 454.0132 454.0132 454.0709 454.2949 454.6367
   454.6367 454.8213 454.8213 455.1799 455.4734 455.4796 455.4796 455.5897
   455.5897 455.7479 455.9383 455.9383 456.0135 456.0135 456.0449 456.0646
   459.2624 459.2624 459.3634 459.3634 459.5695 459.5695 459.5862 459.5926
   459.6210 459.6670 459.6670 459.7321 459.8035 459.8035 459.8492 459.8492
   460.8979 460.8979 461.3743 461.3743 461.5023 461.5047 461.5148 461.5148
   461.8596 461.8596 461.9398 462.0352 465.3883 465.3883 467.5325 467.5325
   467.5779 467.6031 467.6864 467.6864 468.2956 468.2956 468.6860 468.7176
   470.5259 470.5259 471.6985 471.6985 472.4977 472.4977 472.7302 473.2956
   473.3861 473.3861 473.6201 473.6708 474.0643 474.7252 474.7252 474.7949
   474.7949 475.1012 475.1263 475.1432 475.1432 475.1857 475.1857 475.2778
   478.7949 478.7949 479.2419 480.3420 480.3420 480.5130 480.5130 480.7276
   480.7887 480.9044 480.9044 481.0719 481.7329 481.7329 481.9968 482.5115
   482.5309 482.5309 483.0220 483.3692 483.3692 483.5350 483.5350 483.6996
   484.3481 484.8363 484.8363 485.0188 485.1487 485.1487 485.8857 486.4025
   486.4025 488.2741 488.5393 488.5393 488.8333 489.2345 489.2345 489.4014
   489.4014 489.4487 489.4687 489.4687 490.0281 490.4581 490.4581 491.0141
   491.3329 491.3329 492.3886 492.3886 492.5519 492.6889 492.6889 492.7716
   492.7947 493.0530 493.0530 493.4332 493.4332 493.4703 493.7622 493.7622
   493.9905 494.0310 494.1246 494.6121 494.6121 494.9293 495.0111 495.0111
   495.2165 495.2935 495.3780 495.3780 495.7419 495.7419 495.8585 496.0747
   496.6781 496.6781 497.8270 497.8270 498.3084 498.8440 499.7134 499.7134
   499.9632 499.9632 500.1325 500.1325 500.4343 500.4343 500.7283 500.7369
   501.4016 501.5340 502.1203 502.1203 502.2003 502.2054 502.2679 502.2679
   504.3485 504.3485 504.3542 504.3645 504.3645 504.4399 504.6422 504.8085
   504.8085 504.9372 504.9372 504.9833 505.6503 505.6503 505.9228 505.9625
   505.9680 505.9680 506.5163 506.5163 507.3745 507.3745 507.5961 507.7264
   510.6365 510.6365 510.6390 510.6452 510.7376 510.7376 512.3526 512.3526
   512.5745 512.5745 513.1730 513.1730 513.3579 513.3579 513.5018 513.5025
   513.5025 513.5419 513.5506 513.5506 513.5751 513.6011 514.0927 514.0927
   514.3443 514.5698 514.5698 514.9059 515.5756 515.5756 517.1324 517.1324
   517.1398 517.3232 517.3232 517.5172 517.7858 517.7858 518.0783 518.1440
   518.4820 518.4820 518.7354 518.7354 518.7901 518.7948 520.5705 520.5705
   520.6452 520.6452 520.6636 520.7061 521.8638 521.9612 521.9612 522.4683
   522.4683 522.7183 524.0722 524.0815 524.1386 524.1386 524.2828 524.2828
   525.3908 525.3908 525.5953 525.5953 525.6945 525.8497 529.9369 529.9369
   530.0574 530.0574 530.0975 530.0990 530.2470 530.2470 530.9899 530.9899
   531.4418 531.5723 531.5723 531.8010 531.9747 532.0139 532.0139 532.0497
   532.6572 532.6572 532.8836 532.8836 532.9009 533.2733 534.0143 534.2153
   534.2153 534.3210 534.3210 534.4323 534.4358 534.4358 534.4446 534.6361
   534.8292 534.8292 535.9419 535.9419 536.2154 536.2154 536.2871 536.4094
   536.7717 536.7717 536.8885 536.8885 536.8913 536.9203 537.1892 537.1892
   537.2249 537.2249 537.5697 537.6167 537.7743 537.7769 538.1529 538.1529
   538.1750 538.1750 541.0631 541.0631 541.2004 542.1706 542.1706 542.3883
   543.0301 543.5737 544.1113 544.1113 544.4290 544.4290 547.2832 547.2832
   548.7299 548.7833 548.7833 548.8581 548.8793 548.8793 548.9883 549.0026
   549.0359 549.0359 549.0780 549.3682 550.4510 550.4510 551.4258 551.6738
   551.6738 552.1730 552.6664 552.6664 552.8574 552.8585 552.8585 552.9081
   553.5200 553.5200 553.5316 553.5462 553.5462 553.6899 554.5509 554.5509
   554.8331 554.8331 554.8729 555.0348 557.0188 557.0188 557.6657 557.7986
   557.7986 557.8974 557.9135 557.9228 557.9228 557.9490 557.9490 558.0631
   560.1687 560.1687 560.8751 560.8751 560.9973 561.0318 561.0318 561.1255
   561.1759 561.2197 561.2197 561.3210 563.8127 563.8127 564.6338 564.6338
   564.6391 564.7813 564.7813 564.9498 564.9548 565.1023 565.1023 565.1300
   565.1901 565.3132 565.3132 566.3413 566.3413 567.1768 568.3105 568.3538
   568.3538 568.4941 568.4941 568.5809 568.5809 568.6169 568.6274 568.6521
   568.6521 568.6827 568.6880 568.6880 568.7295 568.7295 568.7365 568.8351
   572.6641 572.7203 572.7204 572.7476 572.7476 572.7960 573.0045 573.1348
   573.1348 573.7057 573.7057 573.8873 576.8095 576.8095 576.8818 577.0424
   577.0424 577.0732 578.0430 578.0430 578.1851 578.2930 578.2930 578.4196
   578.4992 578.7085 578.7085 578.9047 578.9047 579.0381 579.7210 579.8418
   579.8418 580.1754 580.4137 580.4137 580.5167 580.5724 580.8512 580.8512
   581.2696 581.2737 581.2831 581.2831 581.3071 581.3071 581.3860 581.3860
   581.4501 581.4831 582.5576 582.5576 582.5737 582.5737 583.2454 583.2461
   584.0540 584.0540 584.1041 584.1041 584.7078 584.7078 585.7479 585.7479
   585.7932 585.9831 585.9951 585.9951 586.0934 586.0990 586.0990 586.1644
   586.6648 586.6648 586.7867 586.8431 586.8431 586.9097 587.6335 587.6772
   587.6772 587.7694 587.7694 587.9013 589.2801 589.2801 589.3025 589.3175
   589.3175 589.3358 590.8038 590.8038 590.8513 590.8513 590.8743 590.9024
   590.9697 590.9697 591.0542 591.0703 591.0856 591.0856 591.4973 591.4973
   591.7274 591.7274 592.5289 592.8893 593.5311 593.5311 594.0153 594.0153
   595.3494 595.3494 596.7047 596.7047 597.0697 597.0830 597.0830 597.1190
   601.1937 601.1937 601.2600 601.2605 601.2634 601.2634 601.5330 601.5330
   601.5861 601.6251 601.6251 601.6722 605.1452 605.1452 605.5602 605.6868

          k = 0.0000-1.0000 0.0000 (  3378 PWs)   bands (ev):

   -77.8723 -41.1642 -41.1549 -41.1549 -40.2670 -16.5567 -16.5441 -16.5441
   -12.0683 -12.0640 -12.0616 -12.0486 -12.0486   7.0498  11.3830  14.1541
    14.1541  14.2383  14.7156  15.4012  15.4012  15.5044  17.4362  17.5657
    18.5051  18.5051  18.8403  20.0527  23.2622  28.5017  28.5017  28.8080
    30.5566  30.7593  30.7593  31.7223  33.1940  33.1940  33.6914  34.6508
    34.9724  37.7662  37.7662  38.3909  39.7426  44.1158  44.1158  45.3573
    46.8234  46.9685  46.9685  47.9817  47.9817  48.4958  48.7410  50.4703
    51.0632  51.9687  52.1962  53.8315  53.8315  57.0552  57.9421  58.6094
    58.6094  60.0987  60.8802  61.2039  61.4740  63.2447  63.2447  63.6409
    65.6714  65.6714  66.5591  66.5591  66.6113  69.1341  69.2879  69.5078
    70.4529  70.4529  71.5786  71.5786  72.6650  74.1058  74.5987  74.7932
    74.7932  75.2166  77.0318  77.6630  77.6630  78.0089  80.1757  80.1757
    80.4202  80.6998  81.2222  81.2222  82.0765  82.0765  83.1484  83.4373
    84.9990  85.2697  85.2697  86.1630  86.2194  86.2194  86.8908  88.8496
    89.7885  90.7469  90.9917  90.9917  92.9371  94.5147  94.5450  94.5450
    96.6218  97.6270  97.9462  98.0685  98.0685  98.6220  98.8936  99.1018
    99.6425  99.6425 100.8470 100.8470 102.0410 102.3841 102.3841 102.9085
   104.4682 104.5960 106.5150 106.5150 107.0899 108.8883 109.3522 109.5654
   110.1730 110.3795 110.3795 112.1425 112.7841 114.5282 114.5282 114.8431
   115.8964 116.8385 116.8385 117.1884 117.9968 117.9968 118.9233 119.3478
   119.5637 119.5946 119.5946 120.2345 120.5376 120.6858 120.6858 121.1921
   121.8614 121.8614 122.2211 122.8325 123.1345 124.5947 125.1841 125.1841
   125.3300 125.3433 125.5962 125.5962 126.9357 126.9357 128.6049 128.6049
   129.0013 129.1316 129.2337 129.6463 129.9233 129.9233 130.2319 131.4029
   131.7892 131.8930 133.0327 133.0327 133.2539 133.2539 133.7769 135.6108
   135.8862 136.1520 136.2922 136.2922 138.0242 138.5307 138.5307 139.3779
   139.3779 139.6715 140.1694 140.1694 141.3158 141.3502 143.9699 143.9953
   144.1126 144.1126 144.6437 145.0401 145.0635 145.0635 146.0091 146.0092
   146.2564 146.3674 147.1834 148.6857 149.2133 150.0128 150.0283 150.0283
   150.7416 150.7416 151.3836 154.3585 155.2738 155.7215 155.7215 156.5769
   156.9175 156.9175 159.3921 161.8724 162.2706 162.3996 162.5736 162.5736
   163.5027 164.3770 164.3770 164.8435 164.8435 165.4603 166.1326 166.1779
   166.5308 166.5308 166.9573 166.9573 167.1614 168.1673 168.2760 168.6976
   168.6976 169.5171 170.1493 170.1493 171.3841 171.3841 171.4493 171.8248
   171.8529 172.2079 172.7671 172.7671 172.9992 173.9613 174.0502 174.6514
   174.6514 175.2867 175.7013 175.8624 176.3640 176.4233 176.6944 176.6944
   177.3926 177.7772 177.7772 179.9836 180.5681 180.7040 180.7040 181.3875
   181.6243 181.6243 182.2169 182.5715 182.8051 182.8051 183.0377 183.8508
   186.0170 186.7414 186.7414 186.9632 188.0363 188.2911 189.2630 189.2630
   190.3030 190.4035 190.7205 190.7205 190.7260 191.1788 192.1277 192.3960
   193.1636 193.1636 193.9765 193.9765 194.1760 194.1760 194.1969 194.3075
   195.8275 196.0287 196.0287 196.3368 196.6267 196.6267 198.0103 198.6033
   198.9732 199.2036 199.2552 199.2552 199.3803 199.7477 199.7477 199.9586
   200.1172 200.3399 200.7782 201.3459 201.3459 201.7172 203.7437 204.1494
   204.8016 204.8016 204.9306 204.9306 206.7092 207.1439 207.3820 207.3820
   207.5267 208.4950 208.9332 208.9332 210.2110 210.9975 210.9975 211.6219
   211.7023 211.9810 211.9810 212.4089 212.4236 212.4673 212.4673 213.8295
   214.6849 215.3018 215.3018 217.3775 217.6299 218.6966 218.7067 218.7322
   218.7322 219.3240 219.8055 220.3516 220.3637 220.3637 220.7767 220.7767
   220.8290 221.0934 221.3327 221.3327 221.3621 222.9828 222.9828 223.1476
   225.7248 225.9693 225.9693 227.3342 227.6762 227.6762 227.8886 228.3334
   228.3334 228.9940 229.0489 229.6221 229.8268 230.0255 230.3655 230.3655
   230.7086 230.8224 230.8224 232.1024 232.1024 232.8114 232.8114 232.8303
   233.5289 233.5803 233.9088 234.0802 234.0802 234.8147 234.8147 235.0062
   235.2715 235.2715 235.7497 235.8897 235.9902 236.3674 236.7452 236.7452
   236.7981 236.9831 238.0453 238.8784 238.9174 239.1613 239.1614 239.4029
   240.1695 240.1695 240.5721 240.6910 241.9752 242.1461 242.4826 244.7566
   244.7566 245.1390 246.5933 246.5933 247.6464 248.7707 249.5118 249.7862
   250.9838 251.4284 251.4284 251.4928 251.8786 251.8786 252.3964 252.3964
   252.6601 252.7586 252.7586 254.0392 255.8441 255.8441 255.9753 256.7129
   256.8012 256.8012 257.6872 257.9109 258.6794 258.8744 258.8744 259.4999
   259.6100 260.7103 260.7103 261.2465 262.2576 262.4510 262.9862 262.9862
   263.0897 263.2720 263.5587 263.5587 265.0092 265.6925 265.9684 266.1977
   266.5150 266.7018 267.0332 267.0332 267.5696 267.7909 267.7909 267.9192
   268.0681 268.0681 268.9930 268.9930 269.7528 269.8242 269.8356 270.0125
   270.2792 270.2792 270.5411 270.6563 270.6563 271.2072 271.2072 271.3211
   271.3627 271.5935 273.0376 273.6557 273.6557 275.6621 276.0727 276.8632
   276.8632 277.0190 277.1237 278.0681 278.0681 279.1334 279.7545 279.8626
   280.1357 280.1357 281.0354 281.4534 281.7404 282.1212 282.2832 282.2832
   282.5161 282.5161 282.7510 283.0173 283.1861 283.5070 283.5070 283.6502
   283.6502 283.8941 284.1374 284.1625 284.3265 284.3265 284.3932 284.6723
   284.8419 285.0794 285.0794 285.7007 285.9469 285.9469 286.7812 287.8045
   288.0949 288.0949 288.4353 288.4353 288.8376 290.4747 290.4747 290.7372
   291.0077 291.0077 291.5853 291.6762 291.9126 293.2427 293.2427 293.4006
   294.0494 294.4082 294.5037 294.5037 294.6190 295.2295 295.3564 295.3564
   295.9039 296.4208 296.6721 297.0905 297.1127 297.1127 297.8362 297.8362
   298.5426 299.7261 299.7261 300.1052 300.8210 301.3913 301.4352 301.4352
   301.5581 302.8199 302.8199 302.9981 303.0496 303.8839 303.8839 304.2095
   304.5089 304.5089 304.6310 304.7959 305.2310 306.2761 306.2761 306.4171
   306.8656 307.1471 307.6810 307.6810 307.7256 307.7944 307.9928 308.2550
   308.9122 308.9122 309.0568 309.6901 309.6901 309.7944 312.4501 312.4501
   313.4879 313.4879 313.6136 314.3484 314.4976 314.7783 315.1061 315.1061
   316.0158 316.1827 316.1827 316.5709 316.5709 317.0313 317.0644 317.5554
   317.6346 317.6346 318.3847 319.3837 319.9246 319.9246 320.1616 320.3584
   320.3584 320.6297 320.7182 320.9612 320.9612 320.9865 321.5583 321.6790
   321.6964 321.8867 322.4570 322.4570 323.2973 324.2907 324.2907 324.4519
   324.4860 324.5666 324.5666 324.6868 326.0544 326.2194 327.4492 327.4492
   327.5189 327.5189 328.3828 328.8223 329.4311 329.5626 330.8613 331.5802
   331.5802 331.7302 332.4639 332.4639 332.5409 334.1442 334.3330 334.3750
   334.3750 334.5612 334.6814 334.6814 335.3513 335.6313 335.9673 336.3246
   336.3246 336.5670 337.1445 337.1445 337.1977 337.2655 337.4699 338.7691
   338.7691 338.9292 338.9292 338.9964 339.0924 339.2356 339.9963 340.4278
   340.4609 340.4609 342.2976 343.0071 343.0071 343.0698 343.1152 344.0493
   344.0493 344.0576 344.0604 345.8070 345.8070 346.5053 347.3521 348.0248
   348.0248 348.5367 348.8321 349.0772 349.0772 349.1387 349.1663 349.1663
   350.1010 350.7114 350.9635 351.1225 351.4798 351.4798 352.6904 352.7722
   352.7722 353.7152 353.7152 353.8824 353.9039 354.4078 354.7024 355.7426
   355.7426 355.8686 356.0888 356.3542 356.3542 356.6910 356.9914 356.9914
   357.1387 357.2690 357.3175 357.3175 358.7723 359.2702 359.9170 359.9170
   361.5995 361.5995 362.1050 362.6621 362.6626 362.7823 362.7823 362.8085
   363.1068 363.3212 363.8199 363.9125 364.1550 364.1550 364.3820 365.6930
   366.3448 366.3448 366.6326 366.7524 367.0560 367.7905 367.7905 368.5379
   368.5379 368.7445 368.8720 368.8720 369.4842 370.1060 370.1060 370.1506
   370.6454 371.5360 371.8058 371.9941 371.9941 372.0439 372.6062 372.6062
   372.8117 372.8117 374.1908 374.7037 374.9337 375.1792 375.1792 375.7409
   376.4881 376.4973 378.7069 378.7069 378.7799 378.8290 379.8303 380.0724
   381.4911 381.8491 381.8491 382.4087 382.5392 382.7735 382.7735 382.8931
   383.6905 384.3191 384.3191 384.4353 384.5833 384.5981 384.5981 384.6428
   385.6787 385.6787 385.8086 386.1715 386.1752 386.2644 386.2644 386.7147
   386.7341 386.8708 386.8708 386.9855 387.0374 387.1210 387.1210 387.1302
   387.1778 387.2813 387.2813 387.2897 387.5127 387.5127 387.9924 388.2063
   388.2063 388.4548 388.4960 388.4960 388.4984 388.6108 388.7689 388.7689
   388.9001 388.9760 389.1169 389.1169 389.2303 389.2509 389.4757 389.4757
   389.7277 389.7656 389.7656 389.8601 390.1518 390.2024 390.4427 391.2121
   391.2757 391.2757 391.7365 391.7876 391.8874 391.8874 394.7907 394.8199
   394.8561 394.8561 395.0512 395.1290 395.1952 395.1952 396.5149 396.6525
   396.6525 396.8323 396.9439 396.9860 396.9860 396.9970 400.3798 400.8406
   401.1705 401.1705 403.3294 404.0075 404.0075 404.3024 404.7921 405.1051
   406.1649 406.1649 406.3223 406.3812 406.4677 406.4677 406.4729 406.5251
   406.7037 406.8150 406.8150 406.9703 407.3631 407.3631 408.1999 408.1999
   408.3589 408.3589 408.7005 408.7356 408.8242 408.9863 408.9863 409.0707
   409.2852 409.2853 409.2937 409.5294 409.7302 409.7469 410.2672 410.5011
   410.5011 410.5065 410.8221 410.8334 410.8334 410.8354 414.4565 415.0000
   415.0000 415.5895 416.0331 416.0343 416.0343 417.0176 417.5652 417.8208
   418.8974 420.7137 420.7137 420.7710 420.9106 420.9106 420.9534 421.1204
   421.1929 421.2733 421.3336 421.4227 421.4228 421.8227 421.8535 421.8535
   421.9405 422.6468 422.6468 423.1627 423.3075 423.4153 423.4153 423.5739
   423.5739 423.6573 423.6657 423.6657 423.6759 423.8180 424.8127 425.1701
   426.0572 427.5595 428.1866 428.4041 428.4041 429.3989 429.9626 430.2887
   430.2887 430.9630 430.9630 430.9769 431.0270 431.1897 431.1944 431.1944
   431.2077 431.2294 431.2294 431.4761 431.6097 431.8370 434.0711 434.0711
   434.2490 434.4770 434.8416 434.9195 434.9195 435.2970 435.3367 435.3367
   436.3453 436.3453 437.3017 437.6646 438.7960 438.7960 439.1495 439.2647
   439.6872 439.7860 439.9320 439.9415 439.9415 442.3234 442.3783 442.3783
   442.4919 442.4938 442.4938 442.5281 442.5945 442.8587 442.8659 442.8659
   443.8226 443.9429 443.9502 443.9502 444.0982 444.3746 444.9412 444.9412
   445.0532 445.0532 445.7787 445.7988 445.8747 446.2168 446.2168 446.3379
   446.3379 446.3457 446.3457 446.3675 446.7436 446.9038 446.9038 446.9585
   447.5171 448.6690 449.2277 451.3225 451.5052 451.8505 451.8506 452.1700
   452.5228 452.5228 452.8641 452.8641 453.2040 453.5278 454.1616 455.3618
   455.4719 455.4719 455.9211 455.9211 455.9605 456.2867 456.6589 456.6589
   456.7429 456.9175 458.0419 458.0747 458.3456 458.3852 458.4589 458.4589
   459.2554 459.2554 459.2640 459.2641 459.7028 459.7028 460.2856 460.2856
   460.8975 461.4938 461.4938 461.5143 461.5483 461.6467 461.9165 461.9165
   461.9639 461.9804 462.6485 462.6960 462.8616 462.8616 463.6228 463.6429
   463.6436 463.6436 464.9984 464.9984 466.3932 469.1328 469.1328 469.4006
   469.4252 470.1556 470.2887 470.6169 471.5427 471.5758 471.5758 471.8230
   471.9366 472.1328 472.1328 472.1910 472.6178 472.6178 472.6868 472.6868
   474.0452 474.3802 474.3802 474.5375 474.6485 474.7227 474.7227 474.7415
   475.6115 476.8022 477.4802 477.4943 477.4943 478.3295 478.3729 478.3766
   478.3766 478.3844 478.9575 479.0143 479.8797 480.5153 480.6545 480.6545
   481.1790 481.2410 481.2410 481.6312 481.6493 481.6953 481.8448 481.8448
   482.1186 482.1186 482.1445 482.3072 482.3299 482.5963 482.5963 482.8083
   482.9484 482.9484 483.0376 483.2016 483.8180 483.8180 484.8346 484.8346
   485.0222 485.0968 485.0968 485.4433 485.4739 485.4739 485.4932 485.6403
   487.0971 487.1065 488.0840 488.0840 488.2984 488.4650 488.4650 488.8272
   489.2099 489.3898 489.7309 490.1528 490.2841 490.2841 490.3916 490.3916
   490.3957 490.4764 491.2386 491.5205 491.7107 491.8796 491.8796 491.9621
   492.0034 492.0034 492.3011 492.3414 492.6919 492.6919 492.7734 493.0084
   493.0084 493.0690 495.4841 495.4841 496.0802 496.3771 496.4198 496.4198
   496.5736 496.8313 497.0818 497.0818 497.1142 497.6294 497.7991 497.8868
   497.8868 498.1091 498.3430 498.3966 498.3966 498.5887 498.6587 498.6734
   498.6734 499.1078 505.9051 506.2116 506.3586 506.4363 506.4363 506.6722
   506.7038 506.7038 506.7644 506.7644 506.8126 507.0914 507.0946 507.2216
   507.2216 507.2253 508.9089 508.9089 509.0513 509.1372 509.2316 509.3089
   509.3092 509.3092 510.0482 510.4498 510.4498 510.5559 510.6005 510.6434
   510.6434 510.6563 511.0256 511.0256 511.1357 511.3031 511.3266 511.6497
   511.7878 511.7878 512.2899 513.0898 513.5279 513.6806 513.6806 514.0014
   514.0926 514.1911 514.1911 514.5553 514.5594 514.5617 514.5617 514.6272
   514.7841 514.7841 514.8000 514.8657 515.5687 515.7148 515.8564 515.8564
   518.7399 518.7399 519.0565 519.1754 519.2047 519.2047 519.3146 519.3569
   519.5905 519.9263 519.9263 521.3091 521.3091 521.7192 521.8359 522.3245
   525.8124 526.2655 526.2655 526.3315 527.0815 527.1135 527.1135 527.1369
   528.1298 528.3599 528.3601 528.4180 528.4180 528.5732 528.6159 528.6159
   528.8549 529.0807 529.4306 529.4306 529.4932 529.5020 529.5020 529.5924
   529.6051 529.6102 529.9286 529.9286 530.1814 530.1814 530.2800 530.3784
   532.6826 532.6826 532.7349 532.7890 532.8153 532.8533 532.8533 532.9419
   532.9477 532.9525 532.9940 532.9940 533.0194 533.0669 533.0669 533.1223
   534.1030 534.6016 534.9924 534.9924 538.3502 539.1006 540.1457 540.3032
   540.3032 540.3645 540.5455 540.6131 540.6131 540.7977 541.3136 541.4207
   542.2691 542.2691 542.5046 542.5046 542.9451 543.0474 543.1222 543.1222
   543.1455 543.1560 543.1560 543.2795 543.4836 543.6964 544.0945 544.0945
   544.3133 544.3133 544.3400 544.4762 544.6950 544.6950 544.7176 544.9827
   544.9827 545.0051 545.0356 545.0425 545.0425 545.3104 545.3141 545.3582
   545.3582 545.4188 545.4188 545.5682 545.6547 546.0051 547.4622 547.5209
   547.7929 547.7929 547.8229 548.5402 548.5402 548.6598 548.6598 548.6785
   548.7413 548.7690 549.6506 549.8142 550.0105 550.0105 550.2479 550.2479
   550.3458 550.5762 550.6862 550.7777 550.7777 550.8867 550.8969 550.9365
   551.0105 551.0105 551.0963 551.0963 551.1222 551.1588 551.4338 551.4344
   552.4974 553.4307 553.4307 553.4429 553.6120 553.6646 553.7365 553.7365
   553.9413 553.9413 554.2568 554.2827 554.6552 554.6552 554.6668 554.6764
   557.4214 557.7302 558.6128 558.6128 560.3009 561.0389 561.0674 561.0674
   561.3444 561.5021 561.5021 561.6647 561.9645 562.0627 562.1507 562.1882
   562.2211 562.2211 562.2947 562.3078 562.3078 562.3484 563.0540 563.0540
   563.2155 563.2155 563.6103 563.8000 563.9152 563.9152 564.0420 564.3134
   564.3212 564.3212 564.5489 564.5545 564.7041 564.7701 564.7943 564.7943
   565.3677 565.4929 565.5418 565.5418 565.6074 565.6074 565.6254 565.6608
   566.1974 566.3936 566.3936 566.4392 567.2919 567.3167 567.3167 567.3259
   569.9831 570.1008 570.1008 570.1206 574.5296 574.6740 574.6740 575.1161
   575.3718 575.4305 575.4305 575.5552 577.6188 577.8180 577.8180 578.5617
   578.6798 578.7232 578.8704 578.8704 579.6775 580.3278 580.7651 580.7651
   581.3188 581.3327 581.5583 581.5583 581.6000 581.6000 581.7967 581.9292
   582.0240 582.0240 582.0349 582.0887 582.4356 583.3080 583.4650 583.4943
   583.6142 583.6142 583.7630 583.7630 584.0404 584.0404 584.0426 584.0487
   584.0684 584.0684 584.0770 584.0838 584.5927 584.6043 584.6043 584.7369
   584.8379 584.8379 584.8678 585.0147 587.5181 587.6789 587.6808 587.6808
   589.0866 589.0892 589.0892 589.0918 589.2655 589.2717 589.3702 589.3702
   589.3945 589.3945 589.5088 589.5165 592.1770 592.4050 592.5084 592.5084
   593.0594 593.1669 593.1670 593.1670 596.0616 596.2139 596.2377 596.2377
   596.3194 596.3194 596.4512 596.4538 596.8706 596.9012 596.9727 596.9727
   598.2479 598.2982 598.2982 598.3751 598.3751 598.3808 598.5220 598.6614
   598.6698 598.6698 598.6935 598.7580 598.9466 598.9744 598.9744 599.0048
   599.1960 599.1960 599.3559 599.4681 602.3770 602.3858 602.5084 602.5084

     the Fermi energy is    16.8729 ev
     (compare with:    16.5344 eV, computed in scf)

     Writing all to output data dir out/mp-5967.save/
 
     init_run     :      0.06s CPU      0.07s WALL (       1 calls)
     electrons    :    736.69s CPU    793.87s WALL (       1 calls)

     Called by init_run:
     wfcinit      :      0.00s CPU      0.00s WALL (       1 calls)
     potinit      :      0.01s CPU      0.02s WALL (       1 calls)
     hinit0       :      0.02s CPU      0.03s WALL (       1 calls)

     Called by electrons:
     c_bands      :    736.69s CPU    793.86s WALL (       1 calls)
     v_of_rho     :      0.01s CPU      0.01s WALL (       1 calls)

     Called by c_bands:
     init_us_2    :      0.00s CPU      0.00s WALL (       3 calls)
     init_us_2:cp :      0.00s CPU      0.00s WALL (       3 calls)
     paro_k       :    715.73s CPU    771.38s WALL (       3 calls)

     Called by paro_*:
     h_psi        :     10.17s CPU     10.46s WALL (     418 calls)
     g_psi        :      0.15s CPU      0.17s WALL (   42400 calls)

     Called by h_psi:
     h_psi:calbec :      0.26s CPU      0.27s WALL (     418 calls)
     vloc_psi     :      9.67s CPU      9.93s WALL (     418 calls)
     add_vuspsi   :      0.21s CPU      0.21s WALL (     418 calls)

     General routines
     calbec       :      0.26s CPU      0.27s WALL (     418 calls)
     fft          :      0.01s CPU      0.01s WALL (      10 calls)
     fftw         :      8.77s CPU      9.01s WALL (   69370 calls)
 
     Parallel routines
 
     PWSCF        :  12m17.26s CPU  13m14.69s WALL

 
   This run was terminated on:  21:15:17   5Dec2023            

=------------------------------------------------------------------------------=
   JOB DONE.
=------------------------------------------------------------------------------=
