
     Program PWSCF v.7.1 starts on  5Dec2023 at  2:34:29 

     This program is part of the open-source Quantum ESPRESSO suite
     for quantum simulation of materials; please cite
         "P. Giannozzi et al., J. Phys.:Condens. Matter 21 395502 (2009);
         "P. Giannozzi et al., J. Phys.:Condens. Matter 29 465901 (2017);
         "P. Giannozzi et al., J. Chem. Phys. 152 154105 (2020);
          URL http://www.quantum-espresso.org", 
     in publications or presentations arising from this work. More details at
     http://www.quantum-espresso.org/quote

     Parallel version (MPI), running on    24 processors

     MPI processes distributed on     1 nodes
     121586 MiB available memory on the printing compute node when the environment starts
 
     Reading input from pw_mp-661_nscf_k320_E67.in
Warning: card &IONS ignored
Warning: card / ignored
Warning: card &CELL ignored
Warning: card / ignored

     Current dimensions of program PWSCF are:
     Max number of different atomic species (ntypx) = 10
     Max number of k-points (npk) =  40000
     Max angular momentum in pseudopotentials (lmaxx) =  4

     Atomic positions and unit cell read from directory:
     out/mp-661.save/
     Atomic positions from file used, from input discarded
 
 
     R & G space division:  proc/nbgrp/npool/nimage =      24
     Subspace diagonalization in iterative solution of the eigenvalue problem:
     one sub-group per band group will be used
     scalapack distributed-memory algorithm (size of sub-group:  4*  4 procs)

 
     Parallelization info
     --------------------
     sticks:   dense  smooth     PW     G-vecs:    dense   smooth      PW
     Min          27      27      8                  887      887     144
     Max          28      28      9                  894      894     149
     Sum         649     649    199                21337    21337    3501
 
     Using Slab Decomposition
 


     bravais-lattice index     =            4
     lattice parameter (alat)  =       5.9122  a.u.
     unit-cell volume          =     286.9883 (a.u.)^3
     number of atoms/cell      =            4
     number of atomic types    =            2
     number of electrons       =        32.00
     number of Kohn-Sham states=         1200
     kinetic-energy cutoff     =      67.0000  Ry
     charge density cutoff     =     268.0000  Ry
     Exchange-correlation= PBE
                           (   1   4   3   4   0   0   0)

     celldm(1)=   5.912174  celldm(2)=   0.000000  celldm(3)=   1.603584
     celldm(4)=   0.000000  celldm(5)=   0.000000  celldm(6)=   0.000000

     crystal axes: (cart. coord. in units of alat)
               a(1) = (   1.000000   0.000000   0.000000 )  
               a(2) = (  -0.500000   0.866025   0.000000 )  
               a(3) = (   0.000000   0.000000   1.603584 )  

     reciprocal axes: (cart. coord. in units 2 pi/alat)
               b(1) = (  1.000000  0.577350  0.000000 )  
               b(2) = (  0.000000  1.154701  0.000000 )  
               b(3) = (  0.000000  0.000000  0.623603 )  


     PseudoPot. # 1 for Al read from file:
     /usr/scratch4/magr4985/MG/HTDF/pseudo/SG15/Al.upf
     MD5 check sum: 2d9e7bc02555220d62fad08c3c4858e7
     Pseudo is Norm-conserving, Zval = 11.0
     Generated using ONCVPSP code by D. R. Hamann
     Using radial grid of  602 points,  4 beta functions with: 
                l(1) =   0
                l(2) =   0
                l(3) =   1
                l(4) =   1

     PseudoPot. # 2 for N  read from file:
     /usr/scratch4/magr4985/MG/HTDF/pseudo/SG15/N.upf
     MD5 check sum: c233fa8df51455e992258b7c3dee8a9f
     Pseudo is Norm-conserving, Zval =  5.0
     Generated using ONCVPSP code by D. R. Hamann
     Using radial grid of  602 points,  4 beta functions with: 
                l(1) =   0
                l(2) =   0
                l(3) =   1
                l(4) =   1

     atomic species   valence    mass     pseudopotential
        Al            11.00    26.98150     Al( 1.00)
        N              5.00    14.00670     N ( 1.00)

      6 Sym. Ops. (no inversion) found



   Cartesian axes

     site n.     atom                  positions (alat units)
         1           Al  tau(   1) = (   0.0000000   0.5773502   0.8006489  )
         2           Al  tau(   2) = (   0.5000000   0.2886752   1.6024411  )
         3           N   tau(   3) = (   0.0000000   0.5773502   1.4122977  )
         4           N   tau(   4) = (   0.5000000   0.2886752   0.6105055  )

     number of k points=    24  Gaussian smearing, width (Ry)=  0.0005
                       cart. coord. in units 2pi/alat
        k(    1) = (   0.0000000   0.0000000   0.0000000), wk =   0.0138889
        k(    2) = (   0.0000000   0.0000000   0.1559007), wk =   0.0277778
        k(    3) = (   0.0000000   0.0000000  -0.3118015), wk =   0.0138889
        k(    4) = (   0.0000000   0.1924501   0.0000000), wk =   0.0833333
        k(    5) = (   0.0000000   0.1924501   0.1559007), wk =   0.0833333
        k(    6) = (   0.0000000   0.1924501  -0.3118015), wk =   0.0833333
        k(    7) = (   0.0000000   0.3849002   0.0000000), wk =   0.0833333
        k(    8) = (   0.0000000   0.3849002   0.1559007), wk =   0.0833333
        k(    9) = (   0.0000000   0.3849002  -0.3118015), wk =   0.0833333
        k(   10) = (   0.0000000  -0.5773503   0.0000000), wk =   0.0416667
        k(   11) = (   0.0000000  -0.5773503   0.1559007), wk =   0.0833333
        k(   12) = (   0.0000000  -0.5773503  -0.3118015), wk =   0.0416667
        k(   13) = (   0.1666667   0.2886751   0.0000000), wk =   0.0833333
        k(   14) = (   0.1666667   0.2886751   0.1559007), wk =   0.1666667
        k(   15) = (   0.1666667   0.2886751  -0.3118015), wk =   0.0833333
        k(   16) = (   0.1666667   0.4811252   0.0000000), wk =   0.1666667
        k(   17) = (   0.1666667   0.4811252   0.1559007), wk =   0.1666667
        k(   18) = (   0.1666667   0.4811252  -0.3118015), wk =   0.1666667
        k(   19) = (   0.3333333   0.5773503   0.0000000), wk =   0.0277778
        k(   20) = (   0.3333333   0.5773503   0.1559007), wk =   0.0555556
        k(   21) = (   0.3333333   0.5773503  -0.3118015), wk =   0.0277778
        k(   22) = (   0.0000000  -0.1924501   0.1559007), wk =   0.0833333
        k(   23) = (   0.0000000  -0.3849002   0.1559007), wk =   0.0833333
        k(   24) = (  -0.1666667  -0.4811252   0.1559007), wk =   0.1666667

     Dense  grid:    21337 G-vectors     FFT dimensions: (  32,  32,  50)

     Estimated max dynamical RAM per process >      88.51 MB

     Estimated total dynamical RAM >       2.07 GB

     The potential is recalculated from file :
     out/mp-661.save/charge-density

     Starting wfcs are random

     Band Structure Calculation
     Davidson diagonalization with overlap

     ethr =  5.00E-06,  avg # of iterations =  5.2

     total cpu time spent up to now is      754.8 secs

     End of band structure calculation

          k = 0.0000 0.0000 0.0000 (  2683 PWs)   bands (ev):

   -91.4185 -91.4173 -52.9479 -52.9380 -52.9242 -52.9242 -52.9225 -52.9225
    -5.7772  -3.6814   3.3616   8.4315   8.4315   9.0774   9.0774   9.2758
    13.3381  15.8180  19.7270  20.3531  20.3531  22.2067  22.2940  22.2940
    23.7673  23.7673  23.9846  26.5675  26.5675  28.5347  31.3723  31.9497
    31.9497  33.1433  36.2154  36.2154  38.4588  40.3783  40.4330  40.4330
    43.3526  43.3526  45.6599  45.6599  46.2818  47.5742  47.6667  47.6667
    49.3360  51.3996  54.0473  54.0473  56.6246  56.6246  58.0789  61.1418
    61.5782  63.4350  63.4350  63.7908  64.7685  64.7685  65.3620  65.3620
    66.1983  66.1983  67.6358  69.2785  70.5234  70.9441  71.0507  71.0507
    72.3004  72.3004  72.4369  72.4369  74.3832  74.3832  74.8982  76.0275
    76.7083  76.7083  77.4652  77.4652  77.7043  80.5769  80.9606  80.9606
    81.4296  81.4296  81.5869  81.5869  82.4702  82.5837  83.1870  83.3069
    83.4298  83.4298  86.2876  86.2876  86.3807  87.0097  87.8251  90.0426
    90.1843  90.1843  90.8187  90.8187  93.4578  98.0193  98.0193  99.6657
    99.6657  99.7538 100.3445 100.3445 101.5261 101.5261 101.6301 103.1338
   103.3372 108.3481 108.7220 108.7220 109.1926 109.1926 109.5423 109.5423
   110.8637 110.9380 110.9380 111.3120 111.3529 111.3529 112.3171 112.7931
   112.8905 112.8905 113.3313 113.3313 116.3956 116.3956 118.3923 121.3407
   121.4535 121.4535 122.4791 126.9124 127.1166 127.1166 129.0751 129.0751
   129.4597 129.4597 129.8697 129.8697 132.0997 132.3451 132.7117 132.9020
   133.0075 133.0075 134.1941 134.1941 134.5397 135.1236 135.5544 138.1423
   138.1922 138.9738 138.9738 140.4558 140.4558 140.9306 140.9565 140.9565
   142.9806 143.4056 143.4056 143.8894 144.6561 144.6561 144.6925 145.3142
   145.3142 146.8600 146.9687 147.5954 147.5954 148.0322 148.0322 150.1312
   150.1312 150.2958 150.4710 150.4710 150.8766 151.2084 151.8357 151.8357
   152.3014 152.3014 153.7608 153.8768 153.8768 154.4193 154.4193 154.5493
   154.6126 158.6132 158.6132 159.0234 159.6942 161.0810 161.2570 161.2570
   161.8100 162.8751 162.8751 163.0042 163.1591 163.1591 163.1733 163.1733
   163.9307 164.3390 164.7419 164.7419 165.3124 165.3124 165.8193 165.8193
   166.1391 166.4118 167.4558 167.4558 168.0716 168.0716 168.6700 168.6700
   171.6728 171.9312 171.9312 172.1103 172.1103 172.1888 172.8198 173.0016
   173.0016 174.5098 174.5098 175.2070 176.1527 177.4896 177.9134 177.9134
   178.4889 179.4739 179.4739 179.5711 180.8662 181.7079 181.7079 183.1619
   183.1619 184.8163 186.2368 186.2368 187.5177 187.5177 187.6490 187.7529
   187.7529 188.3818 189.1563 189.6034 189.6034 190.0305 190.8174 190.8174
   191.5666 191.8357 191.8357 191.9560 194.1790 194.7567 194.7567 195.0001
   195.0001 195.6524 195.8601 196.0371 197.2882 197.4692 197.4692 198.2199
   198.3789 198.3789 199.9014 199.9014 201.0924 201.0924 201.5906 201.6487
   202.9421 202.9421 203.5430 205.4465 205.4465 205.4672 205.4672 207.1428
   207.7147 207.7147 208.3040 208.3253 213.0790 214.7606 214.7606 214.8709
   215.3958 215.3958 216.5664 219.3732 219.3732 220.6605 221.3285 221.3285
   221.4957 221.4957 221.9493 223.0964 224.5341 224.5341 224.9744 224.9744
   225.5043 225.5043 225.8452 225.9375 225.9375 228.6870 228.6870 228.9856
   229.1138 229.1138 229.2628 229.7327 230.2633 230.2633 230.3748 231.2602
   231.2602 231.2670 231.7913 231.8908 231.9347 231.9347 232.2152 232.2152
   232.8050 232.8050 232.9195 232.9195 233.1070 234.1018 234.4481 234.4846
   234.4846 234.6076 234.6076 235.7896 235.8870 235.8870 236.5041 236.5041
   236.6952 236.6952 236.8123 236.8123 237.3774 237.3835 237.7196 238.2150
   239.9895 240.7282 240.7282 242.4564 242.4564 246.6979 246.6979 247.3466
   248.1564 249.6710 250.2784 250.2784 252.0579 252.0579 252.7772 252.9796
   252.9796 254.2030 255.5367 255.6001 256.0323 257.9290 257.9290 258.0908
   258.3241 258.3241 260.0073 260.2486 260.2486 260.7220 260.7220 261.0175
   261.1587 261.2712 261.2712 261.9303 261.9303 263.0343 263.4007 263.4007
   263.4812 263.4812 263.8935 264.5152 265.8051 265.8051 265.9893 265.9893
   266.3649 266.3649 266.6254 266.6254 266.7316 266.9715 267.7898 267.7898
   268.0226 268.0526 268.5603 269.2261 269.7760 269.7760 270.2292 270.2292
   270.6569 270.6569 271.3086 271.3957 271.3957 271.6658 271.6658 272.1757
   272.1757 272.2724 272.5462 272.5462 273.3347 273.7473 273.7864 273.8580
   274.1444 275.0084 275.2613 275.2613 276.0085 276.0085 276.3800 278.6579
   278.6579 278.9611 278.9611 280.1780 280.4320 280.4320 280.5102 280.5102
   281.0710 281.3587 281.3587 281.3750 282.7526 282.7526 283.2854 283.6750
   283.7800 284.1185 284.1185 284.8122 284.8122 284.9304 284.9304 285.2890
   285.3968 285.9129 285.9129 286.2994 287.2766 287.2766 287.7737 287.7955
   287.9370 288.0130 288.0130 288.4253 289.1153 289.1153 289.1192 289.3900
   289.3900 289.8785 289.8785 290.5879 290.5879 290.7703 290.8165 291.0831
   291.7165 291.7165 292.1628 292.1870 292.1870 292.1950 292.8204 292.8204
   292.8537 292.8537 293.3014 293.3014 293.5986 293.5986 293.7593 293.9071
   294.2489 294.5812 298.6149 299.5536 299.5536 304.1861 304.1861 305.2958
   305.2958 305.5243 305.7237 305.7237 306.1089 306.1089 307.4730 308.8225
   308.8225 308.8568 310.6517 310.6517 310.7262 310.7262 311.0827 311.9313
   312.7193 313.7200 314.2303 314.5244 314.5244 315.6705 315.6705 316.1221
   316.1221 316.6670 316.6670 316.8073 316.8073 317.4163 317.4341 317.4341
   317.6280 318.5469 319.0122 319.0122 319.3052 319.4557 319.4557 320.1060
   322.3090 322.5444 322.5444 322.6379 323.0603 323.1382 323.1382 325.5269
   325.5269 325.9977 325.9977 326.5214 326.8555 327.2644 328.9813 328.9813
   329.4315 329.5536 329.5536 330.0645 330.0645 331.7757 331.9837 331.9960
   331.9960 332.1564 332.1564 332.8986 332.8986 333.1670 333.1834 333.1834
   333.4498 337.0885 337.0885 337.5162 337.6752 339.9753 341.1552 341.1552
   341.2612 341.2612 342.8686 342.8686 343.1328 343.2918 343.9682 343.9682
   344.4108 344.4109 345.0919 345.0919 345.1122 345.3621 346.1395 346.1395
   347.1675 347.1675 347.3453 348.2962 348.4076 348.6132 350.6657 350.8211
   350.8211 351.0150 351.0150 351.4049 351.4049 351.4188 351.4188 351.5875
   352.0012 352.0012 352.0110 352.0110 353.3339 353.3802 353.3810 354.1506
   354.1506 354.1684 354.2427 354.2427 356.1201 356.3168 356.3514 356.3514
   356.4056 356.4056 356.5283 356.9867 356.9867 357.0493 357.4221 357.4391
   357.4729 357.4729 358.5952 358.5952 358.7999 358.7999 359.1564 359.3553
   361.5368 361.5368 363.0433 364.6094 364.6094 365.2921 365.2921 366.7749
   366.7749 367.7561 369.1021 369.3660 369.3660 369.6094 369.6094 369.6250
   369.6250 370.1998 370.6938 370.7633 370.7633 371.1555 371.2334 371.2334
   371.5256 372.6910 372.8970 372.8970 372.9497 373.0237 374.0498 374.1971
   374.4924 374.4924 374.8518 374.8518 375.0292 378.4727 378.9315 378.9315
   379.5729 380.0624 380.0624 382.2194 382.2194 382.2213 384.1728 384.4890
   384.4890 384.9474 385.1528 385.1528 385.2731 385.3057 385.3057 385.9628
   386.2755 386.2755 386.6260 386.6559 386.6559 386.8864 387.1898 388.7502
   388.7502 389.0200 389.0773 389.0773 390.8741 390.8868 390.8868 391.0426
   391.0426 391.1169 391.5643 391.5643 391.7277 391.7277 392.3695 392.6074
   392.6405 394.7033 394.7033 394.8813 394.8813 394.9863 394.9863 395.0171
   395.0171 395.2420 395.2572 395.6360 395.6360 396.6164 397.6861 397.6862
   398.7207 398.7207 399.5577 400.2221 400.4667 400.4667 400.5281 400.5281
   401.8677 401.8677 402.0702 402.1513 402.1513 402.3909 403.6858 403.9529
   403.9529 404.3285 404.3285 404.5543 404.5687 404.5687 406.3478 406.5805
   406.8180 407.6553 407.8383 408.0643 408.0781 408.0781 408.9141 408.9141
   408.9258 408.9258 409.5015 409.5015 409.8105 410.8337 410.8337 411.3302
   411.5025 411.5025 411.5541 412.4077 412.4077 412.5308 412.5308 412.6293
   412.6293 413.2210 413.2450 413.6813 413.6813 413.8530 414.3930 415.0895
   415.0895 415.2602 415.2602 416.1345 416.1345 416.2272 416.5117 416.5117
   416.6255 416.9624 418.8106 418.8763 419.8132 419.8132 419.9815 420.2092
   420.2092 420.6022 420.6022 421.0064 421.0064 421.0522 422.1568 423.6386
   423.6386 423.7735 423.9210 423.9210 424.2981 424.2981 424.9354 424.9354
   425.2819 425.4517 426.3286 427.1459 427.6470 427.6470 427.6474 427.6474
   428.0408 428.0930 428.1554 428.6075 428.6075 428.9935 429.4071 429.4071
   430.4055 430.5673 430.5673 430.8082 430.8082 431.0281 431.0281 431.0293
   431.6025 431.6025 431.9266 431.9691 431.9691 432.2882 432.2931 432.2931
   432.4972 433.0677 433.0677 433.4006 433.4006 433.7601 433.9460 433.9460
   434.0200 434.0200 434.1352 434.8315 434.8315 434.9995 435.0474 435.5343
   435.5343 435.8643 435.8878 437.1004 438.1115 438.1115 438.3606 438.3606
   438.6232 438.6232 439.2515 439.2515 439.3198 439.3198 439.4483 439.4483
   439.4885 439.8460 439.8766 439.8766 439.8914 441.7487 441.7503 442.8185
   442.8185 443.6887 444.9108 445.4072 445.4072 445.6980 446.2212 446.2212
   446.8691 447.7072 449.2552 449.6033 449.6033 450.1279 450.1279 450.3351
   450.4693 450.6039 450.6039 451.0962 451.0962 451.1752 451.3944 451.4374
   451.6353 451.6354 451.8418 451.8418 452.0206 452.0206 452.4059 452.4059
   453.4572 453.5507 453.7505 453.7505 454.0658 454.0658 455.7571 456.8602
   458.7561 458.7561 458.7806 458.7806 459.5547 459.5547 460.4222 460.6488
   461.1170 461.1170 462.8180 463.9087 463.9087 464.0219 464.0219 464.3045
   464.3045 464.6758 465.5419 466.2535 467.5669 467.5669 468.0497 468.0497
   468.2604 468.2604 469.4508 469.7168 469.7746 469.8630 470.0571 470.1322
   471.3153 471.3153 471.3365 471.3526 471.3526 471.5223 471.5223 471.6045
   471.6046 472.5458 473.2469 473.5907 473.5907 473.6056 473.7335 473.7335
   473.9064 474.2851 474.5434 474.6894 474.6894 475.1423 475.1423 475.6758
   475.6961 475.6961 476.0277 476.0277 476.3846 476.3846 476.5089 476.5089
   477.0646 477.1341 477.4466 477.6213 477.6710 477.9903 477.9903 478.0401
   478.0401 478.1060 478.1060 478.1733 478.2861 478.4020 478.4020 479.2395
   479.2574 479.2574 479.4536 479.4536 479.5915 479.6670 479.6670 479.7021
   479.7861 479.7861 480.0381 480.4406 480.6836 481.0001 481.0001 481.5719
   481.5719 482.1236 482.1236 482.1811 482.2843 482.2843 482.4040 482.5320
   483.7575 496.0641 496.0642 496.3815 496.3815 498.1742 498.1742 499.1213
   500.5745 500.5909 500.5909 501.5096 501.5096 501.5875 501.5875 501.6705
   501.6705 502.0141 502.0303 502.0303 502.1818 502.8799 504.8222 504.9053
   508.1441 508.1441 508.9072 509.2502 509.2502 510.5634 510.5634 511.0292
   511.7185 511.7185 511.7784 511.7784 511.8673 512.0305 512.0305 512.3675
   513.1480 513.1480 514.0576 514.0576 515.2353 515.2353 515.3652 515.8788
   516.5503 516.8797 516.8797 517.2734 517.3085 517.3310 519.0088 519.3675
   519.4390 519.4390 519.5626 519.8940 519.8940 520.2166 520.2166 520.2690
   520.2690 520.9259 521.3136 521.3136 521.4441 521.4441 521.8389 521.9218
   522.1606 522.1606 523.1850 523.1850 523.4713 523.4713 524.3110 524.3110
   524.3905 524.3942 525.2945 525.9465 525.9465 526.5987 526.5988 527.1738
   527.1738 527.4235 527.4704 527.4704 527.7412 527.7682 527.7682 527.8761
   528.0215 528.3639 528.3639 528.6831 528.6831 528.8131 529.3032 529.3244
   529.3244 529.4408 529.4409 529.8242 529.9768 530.0571 530.1150 530.3100

          k = 0.0000 0.0000 0.1559 (  2695 PWs)   bands (ev):

   -91.4184 -91.4176 -52.9465 -52.9395 -52.9240 -52.9240 -52.9228 -52.9228
    -5.5449  -4.1016   4.1429   8.0749   8.5215   8.5215   8.9782   8.9782
    14.3005  15.9266  19.4019  20.3257  20.3258  20.8329  21.5766  21.5766
    24.7512  24.7512  25.2722  27.8931  27.8931  28.3993  30.3058  30.3058
    32.6502  32.9446  34.4004  34.4004  38.8440  39.7381  41.8080  41.8080
    43.2202  43.2202  43.4464  45.2467  46.7393  46.7393  50.0124  50.0124
    51.6487  54.2900  54.2900  55.4909  56.2005  56.2005  57.8950  57.8950
    58.4059  60.7086  61.8434  63.0399  63.7937  63.7937  66.3132  66.3132
    66.9453  66.9453  67.0296  68.5060  68.5060  69.2448  69.9646  71.3073
    72.4570  72.4570  73.3450  73.3450  74.2026  75.7823  75.7823  77.2167
    77.2167  77.4508  77.5369  77.7266  79.1832  80.0560  80.0560  80.1723
    80.9237  80.9237  81.4268  81.4268  83.2003  84.0629  84.0630  85.5137
    85.5137  87.4570  88.1466  88.6026  88.6026  88.7818  89.2271  89.9133
    89.9133  90.4983  90.4983  91.2012  94.0044  94.0044  95.0903  95.0903
    96.5789  96.6881  97.8134 100.5471 100.5471 101.2647 101.2647 103.0952
   103.0952 103.5444 104.0364 104.9199 104.9199 106.0306 106.0306 106.2514
   108.0476 111.9466 111.9466 112.1537 112.9890 114.1551 114.1551 118.3420
   118.3420 118.9047 119.1087 119.1087 120.4384 121.4747 121.7540 121.8169
   121.8169 124.1383 124.1383 125.0656 125.4255 125.4255 125.9151 125.9151
   126.0746 130.0516 130.0516 130.7164 130.7164 131.2318 132.1418 132.6840
   132.6840 133.2043 134.0263 134.3400 136.8953 136.8953 139.0380 139.0829
   139.0829 140.1344 140.1766 140.1766 140.5545 140.7477 140.7477 141.2847
   141.4396 141.4396 143.1551 143.8103 143.8896 143.8896 144.7847 144.8621
   145.1177 145.1177 146.2026 146.2026 147.2835 147.2835 148.1637 148.5929
   148.5929 149.6419 149.6634 150.2104 150.2104 151.0140 151.0140 151.7252
   151.7252 152.3685 152.3685 152.4579 153.0298 153.5297 154.1830 154.1830
   154.3631 155.1734 155.9190 155.9190 158.1246 158.1246 159.5954 159.5954
   160.5601 160.5601 160.7545 160.7861 161.3865 161.3865 161.8520 162.1806
   163.5042 163.5042 163.8697 163.8697 166.4058 166.5166 166.6947 168.1530
   168.1530 169.7914 170.5111 170.5111 170.7154 170.7154 171.7684 172.6517
   173.0098 173.0098 173.3488 175.6948 175.8883 175.8883 176.3157 176.3157
   177.3983 177.3983 177.9718 178.0434 178.1560 178.1560 178.8528 179.4603
   179.4604 180.0735 180.0735 181.1235 181.2190 182.3535 182.8603 182.8603
   183.0608 183.0608 184.6792 185.4183 185.8146 185.8146 186.5427 186.5427
   187.1207 187.2130 187.2130 187.7902 187.7902 188.2216 189.1655 189.2649
   189.2649 189.5615 190.9639 190.9639 191.6673 191.6673 193.8708 193.8808
   195.0284 195.0284 196.0024 196.0024 196.8693 196.9357 198.8203 199.0563
   199.0563 200.1205 201.7909 201.7909 202.1810 202.1810 202.4095 204.1164
   204.1164 205.0628 205.0813 205.1248 205.7529 205.7529 207.6179 207.6179
   208.5565 209.9150 210.1647 210.1647 211.0007 211.0007 212.2064 212.2064
   212.8969 213.6098 213.7594 213.7594 216.8958 216.8958 216.9561 216.9561
   217.3978 218.9584 218.9584 219.3206 220.2469 220.3563 220.3615 220.3615
   222.7717 222.7717 222.9233 222.9233 223.5412 224.2001 224.8587 224.8587
   224.9109 224.9109 225.8710 228.2067 228.7569 229.5351 229.5351 230.8173
   231.6725 231.6725 232.6183 233.0533 233.0533 233.4608 233.4608 233.6026
   234.5982 235.6847 235.6847 236.3384 236.8030 236.8030 237.7509 238.7068
   238.7068 239.7763 241.5903 241.7907 241.7907 242.6535 242.9930 242.9930
   243.6319 244.4069 244.4069 245.0608 245.0608 245.0698 247.1404 247.1404
   247.1691 247.1691 247.8536 247.8536 248.2679 248.2679 248.7835 249.1308
   249.1656 249.4538 249.8953 249.8953 251.1526 252.2202 252.2202 252.6909
   252.6909 253.0072 253.0072 253.3764 253.3764 253.6294 253.6516 255.3274
   255.6999 256.2990 256.5431 256.5431 256.6277 257.7441 257.7441 258.2116
   259.7632 259.7632 260.0470 260.0470 260.3049 260.9950 261.2832 261.5347
   261.7187 261.7187 262.2132 262.2226 262.2226 263.3151 263.3151 263.8275
   263.8275 264.0367 264.2586 265.0073 265.0073 265.0468 265.0468 265.7110
   265.7937 266.7947 266.7947 266.9832 266.9832 267.9259 267.9259 268.9398
   269.0188 269.0188 269.5903 270.0610 270.0610 270.2522 270.8406 270.8406
   271.1860 272.2768 272.7435 272.7435 272.9522 273.3473 273.3697 273.3697
   273.7382 273.7382 273.8939 274.9237 274.9237 275.4906 275.8340 275.8340
   276.2955 276.3655 277.0336 277.0336 277.0931 277.7896 277.7896 278.3032
   278.3032 278.3895 279.6031 280.3590 280.3590 280.6545 281.7046 281.7046
   282.3642 282.9425 282.9425 283.0430 283.0430 284.4308 284.4308 284.9032
   284.9604 285.4103 285.4206 285.4206 285.4831 285.4831 287.0274 287.8469
   287.8469 288.7864 289.1427 289.1427 289.3521 290.2097 290.2097 290.2457
   290.6782 291.5784 291.5784 291.8495 292.4589 292.8691 292.8691 293.1683
   293.1683 294.0300 294.5157 294.5157 295.6002 295.6002 297.9550 298.2603
   298.2603 299.6155 299.6155 300.2200 300.2200 301.0395 301.2208 302.6710
   303.0713 303.4552 303.7780 303.7780 305.3429 306.2528 306.2528 306.3248
   306.5027 306.5027 307.1599 307.1599 307.4755 307.8028 307.8028 307.9461
   308.7216 308.7216 308.9496 309.1130 309.1130 309.5068 310.8439 310.8439
   311.5379 311.5379 312.3778 312.5398 313.3763 313.3763 314.7694 315.5114
   315.5749 315.5749 315.7144 315.7144 317.7480 318.4277 319.1686 319.1686
   319.6831 319.6831 320.8940 320.8954 320.8954 321.4938 321.8645 321.8942
   321.8942 322.1949 322.1949 322.7661 323.3692 324.3150 324.5074 324.9919
   324.9919 325.5470 325.5470 326.3597 326.3597 326.8007 326.8007 326.8430
   327.2702 327.2702 329.6430 331.2263 331.2874 331.2874 331.4199 331.4199
   331.4720 331.6076 331.6076 331.9675 331.9675 332.6558 332.7757 333.9007
   333.9007 334.5072 335.5184 335.5184 336.9809 336.9809 337.2401 337.8549
   337.8549 337.9238 338.6692 338.8059 338.8059 339.9511 340.0425 340.3406
   340.3406 341.4212 341.4212 341.7079 341.7079 341.8566 341.9084 342.3707
   342.6708 342.6708 344.4030 344.8093 344.8093 344.9239 344.9239 345.4595
   345.8585 345.9455 345.9455 347.1150 347.1150 347.6655 347.6655 347.7205
   349.1964 349.3103 349.3226 349.3226 350.0539 350.0539 351.3277 351.9517
   352.4837 354.2115 354.2115 356.7419 358.6687 358.6687 360.6427 360.6427
   360.8965 360.8965 361.0489 363.0552 363.1570 363.1570 364.8132 364.8722
   364.8722 365.3360 365.6177 366.6800 366.6800 366.9248 367.1954 368.0562
   368.0563 368.4324 368.4324 369.4204 369.5345 369.5367 369.5367 370.4247
   370.4247 370.5299 370.5299 370.5420 371.0717 371.3984 371.3984 371.5133
   371.5133 372.1388 372.1388 372.1543 372.4931 372.4931 372.7850 372.7850
   373.0388 373.0388 373.1563 373.7948 373.7948 373.9372 374.3002 374.3196
   374.5122 374.5122 374.6239 374.6239 374.6352 374.6352 374.9566 375.7092
   375.8004 376.3887 377.2287 377.2287 378.8972 378.8972 380.0080 381.4319
   381.4319 382.1547 382.5141 382.6838 383.1761 383.1761 383.5626 383.5626
   384.4871 384.4871 384.7946 384.9544 385.9635 385.9635 386.4801 386.4801
   388.6759 389.0785 389.2218 389.2218 390.7195 390.7195 391.5786 391.7840
   391.7840 391.8538 391.9306 391.9516 391.9516 392.3924 394.1481 394.4945
   394.4945 395.3019 395.7381 395.7381 395.9568 396.1012 396.1012 396.3619
   396.5672 396.5672 397.2947 397.2947 397.3702 397.4571 397.7375 398.8077
   398.8077 399.2480 399.2480 399.3968 399.7468 399.7468 399.7513 400.6513
   400.9103 400.9103 401.2658 401.2658 401.5437 402.2151 402.2151 402.4799
   403.8213 403.8366 403.8366 403.9574 403.9574 404.3665 404.6772 404.6772
   405.2338 405.5756 406.0403 406.0403 407.5608 407.6883 407.7437 407.7437
   407.7673 408.0726 408.0726 409.4940 409.4940 409.6815 409.6815 409.9302
   410.2704 410.4294 410.4294 410.5424 410.5424 410.9912 412.5887 412.5887
   413.4351 413.4351 414.2653 414.3385 414.4914 415.3155 415.3155 415.4436
   415.4436 416.0745 416.0745 416.1121 416.3916 417.4966 417.4966 418.3031
   418.3031 418.3078 419.1342 419.1342 419.6145 420.0402 420.0402 420.1835
   420.7681 420.7681 421.5691 421.6038 422.0039 422.0129 422.0129 422.3812
   422.3812 423.2731 424.1492 424.1493 424.6090 424.6090 424.7024 425.1896
   425.1896 425.2468 425.8195 425.9378 426.1640 426.1640 426.3459 426.5176
   426.5937 426.5937 426.6812 426.6812 427.4284 427.4284 427.8085 427.8085
   428.2927 428.3794 428.3794 428.4958 429.1153 429.6604 429.6604 429.7473
   430.8726 430.8726 431.0315 431.2747 431.2747 431.3690 433.0858 433.0858
   433.3580 433.3580 433.3972 433.8671 433.8671 434.2350 434.5846 435.5351
   435.5351 435.7682 435.7682 436.0993 436.4517 436.6552 436.6552 437.0102
   437.0102 437.1592 437.1592 437.2259 437.3479 438.1258 438.7138 438.7138
   439.1191 439.8593 439.8593 440.3869 440.5922 440.9036 440.9036 441.2099
   441.2927 441.2927 443.3774 443.3774 443.8114 444.4112 444.6957 444.6957
   444.8789 444.9010 444.9010 445.1405 445.1405 445.3921 446.6987 446.6987
   446.9008 446.9008 446.9395 447.7493 447.9324 447.9324 448.5305 448.5708
   448.8046 449.3776 449.4494 449.4494 449.5597 449.5597 451.3805 451.3805
   451.6334 451.6522 451.6522 451.8818 452.3092 452.3092 452.6755 453.4890
   455.1579 455.1579 455.8492 456.2543 456.2723 456.3312 456.3312 456.5345
   456.5345 456.5729 456.5729 456.7370 456.7370 456.9992 457.0821 457.0821
   457.3059 457.6722 459.6406 459.6406 460.2410 460.6777 460.6777 461.2675
   461.5825 461.5825 461.7019 462.4620 462.4620 463.0611 463.0611 463.1149
   464.1399 464.1399 464.9864 465.0256 465.0256 465.8166 466.1924 468.6392
   468.6392 468.6509 468.6509 468.7138 469.0295 469.8502 469.8502 470.1095
   470.1095 471.0365 471.0365 471.3575 471.6909 471.7785 471.7785 471.8316
   472.4155 472.4155 472.7102 472.8155 472.8295 472.8295 474.0460 475.2016
   475.2016 476.9442 476.9442 478.1737 478.8935 479.0497 479.0497 481.0777
   481.0777 481.8206 482.6970 482.8155 482.8155 483.4055 483.4055 484.5412
   485.4156 485.5788 485.5788 485.9411 485.9663 485.9663 486.0189 486.0189
   488.0853 488.4287 488.4287 488.6009 488.6009 488.9799 489.3871 489.3871
   489.4602 489.4970 489.7985 489.7985 489.9035 489.9035 489.9937 491.3257
   491.3257 492.3594 493.2211 493.5666 493.5666 493.5932 493.9900 494.0621
   494.3574 494.3574 494.9069 494.9069 495.0148 495.4404 495.4404 495.5923
   496.2038 496.2039 496.7046 496.7046 496.9201 496.9201 497.2403 497.2737
   498.2652 498.2652 499.1814 499.2394 499.9117 499.9117 500.9809 501.3974
   501.3974 501.7211 501.7211 502.4677 502.7294 504.0288 504.1212 504.2631
   504.2631 504.8217 504.8217 505.2165 505.2165 505.8143 506.6546 507.2140
   508.1394 508.1394 508.5668 508.5668 509.0073 509.0073 509.6424 509.9773
   510.4276 510.8963 510.8963 511.0441 511.0441 512.8180 513.2564 513.2564
   513.6722 514.8642 514.8642 515.4076 515.4377 515.4377 515.6302 515.6302
   516.0696 516.7136 516.7136 516.7542 516.7542 516.9929 517.1711 517.2644
   519.4334 519.4334 520.2665 520.5709 520.5709 520.8292 521.9292 522.6129
   522.6129 522.6591 522.6591 523.5338 523.5338 523.8255 524.0961 524.2536
   524.2536 525.3955 525.3955 525.8710 525.8710 526.4715 526.8088 527.4608
   528.1651 528.1651 528.6970 528.7455 528.7455 529.7334 530.1074 530.1074
   531.7944 531.8772 531.8772 532.1729 532.8946 532.8946 533.0451 533.0451

          k = 0.0000 0.0000-0.3118 (  2652 PWs)   bands (ev):

   -91.4177 -91.4177 -52.9430 -52.9430 -52.9234 -52.9234 -52.9234 -52.9234
    -4.9077  -4.9077   5.9768   5.9768   8.7459   8.7459   8.7459   8.7459
    15.5992  15.5992  19.4587  19.4587  20.6707  20.6708  20.6708  20.6708
    27.0769  27.0769  27.0802  27.0802  27.0802  27.0802  31.1490  31.1490
    31.1490  31.1490  33.8523  33.8523  38.5202  38.5203  42.9119  42.9119
    42.9119  42.9119  42.9608  42.9608  50.3972  50.3972  50.3972  50.3972
    54.9229  54.9229  54.9229  54.9229  55.5617  55.5617  57.5023  57.5023
    57.5023  57.5023  59.3496  59.3496  63.4775  63.4776  66.3727  66.3727
    67.8408  67.8408  67.8409  67.8409  69.3168  69.3168  69.3168  69.3168
    72.2400  72.2400  72.8203  72.8203  75.0116  75.0116  75.0116  75.0116
    77.9086  77.9086  78.7809  78.7809  78.7809  78.7809  79.1293  79.1293
    84.5565  84.5565  84.5565  84.5565  85.3505  85.3505  87.1191  87.1191
    87.1191  87.1191  89.8908  89.8908  89.8908  89.8908  90.5382  90.5382
    91.1097  91.1097  91.1097  91.1097  92.3834  92.3834  94.5309  94.5309
    94.5309  94.5309  96.2557  96.2557  96.4960  96.4960  96.4960  96.4960
    97.4754  97.4754 104.9528 104.9528 107.9049 107.9049 107.9049 107.9049
   111.9346 111.9346 113.6043 113.6043 113.6043 113.6043 115.0987 115.0988
   119.7654 119.7654 119.7654 119.7654 121.3630 121.3630 123.3821 123.3821
   125.4735 125.4735 125.4735 125.4735 127.8586 127.8586 127.8586 127.8586
   129.4960 129.4960 130.9865 130.9865 131.4572 131.4572 131.4572 131.4572
   134.6263 134.6263 135.2352 135.2352 135.2352 135.2352 137.7147 137.7147
   137.7147 137.7147 138.2128 138.2128 139.5329 139.5329 139.5329 139.5329
   141.9908 141.9908 142.3984 142.3984 143.7967 143.7967 143.7967 143.7967
   146.6282 146.6282 146.6470 146.6470 146.6470 146.6470 149.1672 149.1672
   149.1672 149.1672 149.9735 149.9735 149.9735 149.9735 150.4113 150.4113
   150.9553 150.9553 151.6994 151.6994 151.6994 151.6994 152.6972 152.6972
   154.4029 154.4029 154.6510 154.6510 154.6510 154.6510 156.1118 156.1118
   156.7519 156.7519 156.7519 156.7519 164.8296 164.8296 165.2220 165.2220
   165.2220 165.2220 167.5059 167.5060 169.7488 169.7488 169.7488 169.7488
   172.6732 172.6732 172.8846 172.8846 172.8846 172.8846 173.3936 173.3936
   174.8938 174.8938 174.8939 174.8939 174.9365 174.9365 176.5803 176.5803
   176.5803 176.5803 177.3705 177.3705 178.6050 178.6050 179.0627 179.0627
   179.0627 179.0627 180.1118 180.1118 180.1118 180.1118 180.2585 180.2585
   180.8380 180.8380 184.2694 184.2694 184.2694 184.2694 186.9387 186.9387
   190.2759 190.2759 190.2759 190.2759 191.6897 191.6897 191.6897 191.6897
   192.2587 192.2587 193.0806 193.0806 193.0806 193.0806 194.0829 194.0829
   195.8266 195.8266 197.0305 197.0305 197.0305 197.0305 198.5738 198.5738
   198.5738 198.5738 198.8549 198.8549 199.9624 199.9624 199.9624 199.9624
   203.5791 203.5791 204.0371 204.0371 204.0371 204.0371 207.3440 207.3440
   207.3440 207.3440 207.4452 207.4452 208.7488 208.7488 212.1668 212.1668
   212.1668 212.1668 214.1964 214.1964 214.1964 214.1964 214.6474 214.6474
   215.1333 215.1333 215.2657 215.2657 215.2657 215.2657 217.3176 217.3176
   221.0417 221.0417 222.4881 222.4881 222.4881 222.4881 227.8041 227.8041
   227.8041 227.8041 229.3527 229.3527 232.0257 232.0257 232.0257 232.0257
   233.0269 233.0269 234.1058 234.1058 234.1411 234.1411 234.1411 234.1411
   236.3094 236.3094 236.3094 236.3094 239.5715 239.5715 239.7504 239.7504
   243.2627 243.2627 243.4693 243.4693 243.4693 243.4693 246.0797 246.0797
   246.0797 246.0797 247.2640 247.2640 249.6278 249.6278 249.6278 249.6278
   249.8656 249.8656 250.1005 250.1005 252.2636 252.2636 252.2636 252.2636
   252.6650 252.6650 252.6650 252.6650 253.2253 253.2253 253.9541 253.9541
   253.9541 253.9541 255.1204 255.1204 255.7295 255.7295 255.7295 255.7295
   257.0090 257.0090 257.3441 257.3441 257.5797 257.5797 257.5797 257.5797
   258.3732 258.3732 258.4387 258.4387 258.4387 258.4387 260.0274 260.0274
   260.0274 260.0274 260.5729 260.5729 260.8541 260.8541 261.6692 261.6692
   261.6692 261.6692 262.9593 262.9593 262.9593 262.9593 263.2168 263.2168
   263.9709 263.9709 263.9709 263.9709 264.3471 264.3471 264.4834 264.4834
   266.0478 266.0478 266.0478 266.0478 268.2523 268.2523 268.2523 268.2523
   269.2130 269.2130 270.1432 270.1432 270.1432 270.1432 270.3427 270.3427
   270.8175 270.8175 270.8175 270.8175 273.4076 273.4076 273.6396 273.6396
   273.8074 273.8074 273.8074 273.8074 274.9180 274.9180 274.9180 274.9180
   277.4260 277.4260 277.4260 277.4260 277.5847 277.5847 277.9838 277.9838
   277.9838 277.9838 278.3161 278.3161 278.7796 278.7796 286.3111 286.3111
   286.3111 286.3111 287.8748 287.8748 289.6017 289.6017 289.6017 289.6017
   289.9850 289.9850 294.7435 294.7435 294.7435 294.7435 295.7331 295.7331
   297.4316 297.4316 297.5454 297.5454 297.5454 297.5454 298.5659 298.5659
   298.8600 298.8600 298.8600 298.8600 299.8698 299.8698 300.5920 300.5920
   300.5920 300.5920 300.9225 300.9225 300.9225 300.9225 301.1195 301.1195
   304.6285 304.6285 304.7765 304.7765 304.7765 304.7765 307.4204 307.4204
   307.4204 307.4204 309.7491 309.7491 309.7491 309.7492 310.2048 310.2048
   310.2687 310.2687 310.2687 310.2687 310.5949 310.5949 311.2036 311.2036
   314.1757 314.1757 314.1757 314.1757 315.3736 315.3736 316.7667 316.7667
   316.7667 316.7667 317.1803 317.1803 317.1980 317.1980 317.4914 317.4914
   317.4914 317.4914 319.2276 319.2276 319.2536 319.2536 319.2536 319.2536
   322.1601 322.1601 322.1601 322.1601 323.0415 323.0415 323.2583 323.2583
   324.9539 324.9539 324.9539 324.9539 325.2616 325.2616 326.4390 326.4390
   326.4390 326.4390 328.8373 328.8373 328.9276 328.9276 328.9276 328.9276
   329.5988 329.5988 329.5988 329.5988 330.1517 330.1517 331.4077 331.4077
   333.4823 333.4823 333.5938 333.5938 334.7502 334.7502 334.7502 334.7502
   335.0314 335.0314 335.0314 335.0314 335.7705 335.7705 335.7705 335.7705
   335.7971 335.7971 336.4476 336.4476 336.4476 336.4476 336.9092 336.9092
   338.5537 338.5537 347.7929 347.7929 347.7929 347.7929 349.1772 349.1772
   349.1772 349.1772 350.1849 350.1849 353.0177 353.0177 353.0177 353.0177
   354.3324 354.3324 354.3324 354.3324 354.3623 354.3623 355.9310 355.9310
   355.9310 355.9310 356.2991 356.2991 357.1997 357.1997 357.4950 357.4950
   357.4950 357.4950 358.2638 358.2638 358.3833 358.3833 358.3833 358.3833
   359.6795 359.6795 359.6795 359.6795 359.9817 359.9817 360.7750 360.7750
   366.7192 366.7192 366.7192 366.7192 369.8169 369.8169 370.4846 370.4846
   370.4846 370.4846 371.5965 371.5965 371.5965 371.5965 372.0940 372.0940
   373.6464 373.6464 375.5682 375.5682 375.5682 375.5682 378.2628 378.2628
   378.2628 378.2628 378.6222 378.6222 379.5621 379.5622 379.7385 379.7385
   381.0414 381.0414 381.0414 381.0414 382.1485 382.1485 382.1485 382.1485
   382.7809 382.7809 383.1917 383.1917 383.1917 383.1917 383.8584 383.8584
   384.3330 384.3330 384.3330 384.3330 384.8888 384.8888 384.9027 384.9027
   384.9027 384.9027 384.9032 384.9032 388.0809 388.0809 388.0809 388.0809
   388.1569 388.1569 388.9264 388.9264 389.8494 389.8494 389.8494 389.8494
   391.1510 391.1510 391.1510 391.1510 392.0274 392.0274 392.0274 392.0274
   392.3168 392.3168 393.5318 393.5318 393.5318 393.5318 393.8014 393.8014
   393.8014 393.8014 394.0544 394.0544 394.3348 394.3348 394.8099 394.8099
   394.8099 394.8099 394.8537 394.8537 395.2181 395.2181 395.2181 395.2181
   395.7556 395.7556 397.3001 397.3001 399.2187 399.2187 399.2187 399.2187
   399.6760 399.6760 399.6760 399.6760 399.7642 399.7642 399.9085 399.9085
   403.8693 403.8693 406.3182 406.3182 406.3182 406.3182 408.9303 408.9303
   408.9303 408.9303 411.9881 411.9881 412.1065 412.1065 412.1065 412.1065
   412.8215 412.8215 412.8215 412.8215 413.5019 413.5019 413.9723 413.9723
   415.0624 415.0624 415.1030 415.1030 415.1030 415.1030 416.2303 416.2303
   416.2303 416.2303 416.6942 416.6942 419.2574 419.2575 419.5887 419.5887
   419.5887 419.5887 419.9719 419.9719 420.4378 420.4378 420.4378 420.4378
   421.4253 421.4253 421.7266 421.7266 421.7266 421.7266 422.0614 422.0614
   422.3453 422.3453 422.3453 422.3453 423.3119 423.3119 424.4537 424.4537
   425.5521 425.5521 425.5521 425.5521 426.6750 426.6750 426.8018 426.8018
   426.8018 426.8018 427.2409 427.2409 427.2409 427.2409 427.5160 427.5160
   427.9007 427.9007 428.2720 428.2720 428.2720 428.2720 429.4036 429.4036
   430.9874 430.9874 430.9874 430.9874 433.0507 433.0507 433.4060 433.4060
   433.4060 433.4060 434.6396 434.6396 434.9650 434.9650 434.9650 434.9650
   436.3489 436.3489 436.3489 436.3489 437.2925 437.2925 439.7582 439.7582
   440.0295 440.0295 440.0616 440.0616 440.0616 440.0616 440.2832 440.2832
   440.5125 440.5125 440.5125 440.5125 440.7985 440.7985 441.4580 441.4580
   441.4580 441.4580 442.4906 442.4906 442.4906 442.4906 443.2357 443.2357
   443.8620 443.8620 443.8620 443.8620 444.3547 444.3547 444.3547 444.3547
   444.4118 444.4118 444.4118 444.4118 444.5081 444.5081 445.0692 445.0692
   448.1947 448.1947 449.5219 449.5219 449.5219 449.5219 450.1264 450.1264
   450.1264 450.1264 451.0108 451.0108 451.0108 451.0108 451.2908 451.2908
   451.4188 451.4188 454.7628 454.7628 454.7628 454.7628 455.5305 455.5305
   456.4571 456.4571 456.4571 456.4571 458.3170 458.3170 458.3669 458.3669
   458.3669 458.3669 458.8831 458.8831 459.3738 459.3738 459.3738 459.3738
   460.4185 460.4185 462.6549 462.6549 463.2028 463.2028 463.2028 463.2028
   463.3783 463.3783 463.7037 463.7037 463.7037 463.7037 464.2659 464.2659
   464.2659 464.2659 464.5053 464.5053 467.0025 467.0025 467.0025 467.0025
   470.3336 470.3336 471.3450 471.3450 474.1270 474.1270 474.1270 474.1270
   476.0921 476.0922 477.1411 477.1411 477.1411 477.1411 478.2761 478.2761
   480.2754 480.2754 480.2754 480.2754 484.2400 484.2400 484.2400 484.2400
   487.3013 487.3013 487.3294 487.3294 487.3294 487.3294 488.6037 488.6037
   488.6037 488.6037 489.4553 489.4553 489.4675 489.4675 489.7903 489.7903
   489.7903 489.7903 491.1674 491.1674 491.1674 491.1674 491.7208 491.7208
   491.9723 491.9723 494.4022 494.4022 494.4022 494.4022 495.0284 495.0284
   495.7504 495.7504 495.7504 495.7504 496.5044 496.5044 498.2544 498.2544
   499.1168 499.1168 499.1168 499.1168 499.3306 499.3306 499.3754 499.3754
   499.3754 499.3754 500.2035 500.2035 500.2035 500.2035 500.5349 500.5349
   500.5349 500.5349 501.0851 501.0851 501.3791 501.3791 502.3410 502.3410
   502.7569 502.7569 502.7569 502.7569 503.3655 503.3655 503.3655 503.3655
   503.4867 503.4867 503.8473 503.8473 503.8473 503.8473 504.8925 504.8925
   506.3146 506.3146 506.3146 506.3146 506.3445 506.3445 506.8247 506.8247
   506.8247 506.8247 506.9592 506.9592 507.5111 507.5111 507.5111 507.5111
   507.6702 507.6702 508.0083 508.0083 508.0083 508.0083 509.5422 509.5422
   509.6258 509.6258 509.6258 509.6258 510.8149 510.8149 513.6683 513.6683
   514.1721 514.1721 514.5118 514.5118 514.5118 514.5118 514.9242 514.9242
   514.9242 514.9242 515.9743 515.9743 515.9743 515.9743 516.1376 516.1376
   516.1376 516.1376 516.2408 516.2408 516.5824 516.5824 518.1218 518.1218
   518.1218 518.1218 519.1064 519.1064 519.1064 519.1064 519.1484 519.1484
   520.1460 520.1460 524.9040 524.9040 532.2626 532.2626 533.5673 533.5673

          k = 0.0000 0.1925 0.0000 (  2669 PWs)   bands (ev):

   -91.4182 -91.4172 -52.9472 -52.9384 -52.9259 -52.9248 -52.9243 -52.9229
    -5.4360  -3.4966   3.7717   7.0282   7.7924   8.0447   8.9937   9.1044
    14.6131  16.8827  18.3950  18.9629  21.2548  21.4701  21.5704  22.0448
    23.0652  23.6148  26.1055  28.5018  28.9638  30.3698  31.2763  31.6349
    32.6635  34.9678  35.6916  36.6859  38.2045  39.0706  39.5243  41.1037
    42.6079  44.3154  44.4796  45.4644  45.6688  46.5066  48.5990  49.2508
    50.3313  51.4375  52.0666  52.1273  54.1919  56.8321  57.9090  58.4811
    60.3805  62.3974  62.5229  63.0327  64.0753  65.4409  65.7789  66.4799
    66.8238  67.7937  67.9370  68.3632  69.0742  70.1178  70.1560  70.5981
    71.2872  71.5278  71.9526  72.6489  72.8645  74.0385  74.1725  74.6230
    75.3941  75.8208  76.6998  77.0510  77.8303  78.4142  78.7466  79.7929
    80.7477  82.2848  82.3164  83.4508  83.8423  84.1472  84.3916  85.8534
    87.4966  87.9274  88.5386  88.7884  88.9809  90.1604  91.5680  91.8355
    92.2582  92.4744  92.9365  93.6634  94.5395  95.5950  96.2356  96.3567
    97.2269  98.3370  99.5913 100.5734 100.7772 102.4641 104.2860 104.9680
   105.6316 106.4447 106.7246 107.7470 107.9295 108.2381 109.0290 109.9478
   110.7598 111.0510 111.3700 111.7502 112.4994 112.8196 113.8890 114.4635
   115.0637 115.7244 117.1132 118.1155 118.3013 118.7400 119.4078 119.6230
   121.0098 121.1261 121.7047 122.4398 123.1688 123.2008 124.1336 124.5369
   124.9525 126.1519 126.1885 126.6642 128.8894 129.9586 130.6041 131.1432
   131.8454 132.3962 132.7576 133.6699 134.7846 135.1731 135.4744 136.1600
   137.5816 137.8613 138.5207 138.7107 139.4921 139.9267 140.4239 141.2316
   141.3860 142.0296 142.2492 142.4793 143.2595 143.8771 144.7560 144.8245
   145.2813 146.0970 146.3323 147.1660 147.2556 147.7869 148.4499 148.7682
   149.4627 149.5958 149.9693 150.5505 151.8941 152.6348 153.3654 154.0025
   154.0112 154.1861 154.4470 155.2487 156.3057 156.4528 156.5572 157.4904
   157.6156 158.2576 159.1139 159.9451 160.1040 160.4690 160.7565 161.4869
   161.5732 161.9924 162.2371 162.5302 162.9190 162.9948 163.0796 163.5485
   163.6014 163.6706 164.6449 165.5768 165.9169 166.0156 166.5763 167.0747
   167.2505 167.6950 167.7767 167.9969 168.8059 169.5411 169.6287 169.9049
   171.6024 172.0564 172.4463 172.8825 173.0036 173.2070 173.7717 174.0072
   175.1162 175.1675 175.3186 176.2586 176.7094 177.9575 178.1919 178.6711
   179.0605 179.5829 179.8819 180.2638 180.5941 181.2868 181.9975 182.9160
   183.1411 183.8343 183.9290 184.7718 185.2462 185.3928 185.6227 185.9385
   186.5822 187.2349 187.6573 188.8784 189.3038 191.1367 191.1989 191.9628
   192.3371 192.5284 193.8312 194.4736 194.9625 195.0519 195.6896 196.0883
   196.3054 197.3995 198.7141 198.8353 199.0422 199.7492 200.8410 201.1759
   201.8225 201.8934 202.6142 202.8037 203.2761 203.5165 204.5330 205.2798
   206.3173 207.4640 207.7111 209.1259 209.4118 209.6272 209.9892 210.0374
   210.9867 211.1733 211.2020 211.4759 211.8052 212.5400 212.6062 213.3718
   214.2060 214.6007 215.4061 215.4779 216.0914 216.3270 216.3361 216.4118
   217.3796 217.7920 217.8581 218.5296 219.1498 219.8935 220.3423 220.8896
   221.0727 222.2315 223.2182 223.6112 223.9870 224.7451 224.9425 225.2352
   225.4576 226.1498 227.2917 227.4269 227.5619 227.5864 228.2416 228.4417
   228.8311 228.9692 229.0159 230.1147 230.6141 230.8035 231.5127 231.5271
   232.0912 233.0162 233.5987 233.7605 233.7864 234.9582 235.3093 235.6876
   237.2987 237.4158 237.7036 238.1461 238.2352 238.4781 238.9715 239.4093
   239.9163 240.0222 240.9301 241.0354 241.6100 242.3572 242.6688 242.9857
   243.2983 244.1845 244.2470 244.4987 244.9530 245.3246 245.5631 246.5918
   247.0169 247.3483 247.5722 247.7060 248.4629 249.1268 249.7412 250.4000
   250.5488 251.4227 251.6110 252.1482 252.7079 252.8279 253.0288 253.5229
   253.5720 253.8685 254.1929 255.0654 255.6974 256.0566 256.4138 256.4215
   257.3944 257.9689 258.5905 258.6031 258.9952 260.1384 260.1447 260.4378
   261.0116 261.9044 262.3156 262.5178 263.1398 263.2289 263.6696 263.8194
   264.3627 264.9125 265.3761 265.4230 266.1577 266.2997 266.6431 266.8865
   267.0633 267.2584 267.7244 268.2184 268.4262 268.4961 269.0135 269.4219
   269.5034 270.1581 270.3426 271.5892 271.7714 272.5997 272.8397 273.7731
   274.0191 274.2534 274.3074 274.8219 275.1969 275.4108 275.6703 275.8247
   276.1849 276.5811 276.6889 277.1232 277.3034 278.2364 278.3025 278.3361
   278.8894 279.3725 279.3857 279.9398 280.3613 280.9012 281.1886 281.6347
   282.1288 282.4160 282.4836 282.6744 282.7913 283.2407 283.4995 284.1816
   284.2951 284.4051 284.5570 285.1898 286.1110 286.1394 286.9329 286.9467
   287.4649 287.4683 287.6940 287.9134 288.7936 289.0675 289.5468 289.8602
   290.3554 290.3699 290.8742 291.1401 291.3690 291.8345 291.9940 292.0042
   292.3977 292.6124 293.2220 293.3484 293.3912 294.3672 294.4448 294.6127
   294.8400 295.5642 296.0530 296.4548 296.8708 297.0393 297.1319 297.2805
   298.1083 299.0515 299.3106 299.3454 300.5391 300.6158 300.9812 302.1122
   302.9528 302.9887 303.2809 303.4621 303.5576 303.6750 304.2708 304.5771
   304.7247 305.0883 305.6238 305.7613 306.3440 306.4630 306.6090 306.7892
   307.0143 307.3751 307.3807 307.7348 308.0416 308.3952 308.9030 309.6223
   310.5181 310.7629 310.9589 311.2758 311.3948 312.0335 312.3977 312.8813
   312.9931 313.0519 313.1846 313.6063 314.1785 314.8106 315.0026 315.0179
   315.6744 316.2131 316.4127 316.7607 317.1346 317.7489 317.9555 318.2381
   318.5796 320.3388 321.4197 322.8974 324.4355 326.0459 327.6227 327.9955
   328.2711 328.6564 329.0711 329.4117 329.6000 330.1860 330.3606 330.9027
   331.2043 331.5123 331.6102 331.7983 332.0634 332.9954 333.2219 333.8734
   334.0471 334.3409 334.4478 334.5562 334.7600 335.2855 335.3611 335.5371
   335.6496 335.7361 336.0758 337.7310 338.0472 338.5311 338.6325 338.9228
   339.0916 339.1299 340.3028 340.5468 340.6588 340.7678 340.9662 342.1220
   342.2366 343.1261 343.5653 344.0404 344.2319 344.6413 344.7434 345.1594
   345.3713 346.1375 346.4022 347.2302 347.3560 347.8823 347.9501 348.5226
   348.6407 348.8218 349.2987 349.6473 350.1501 350.2405 350.4459 351.1118
   351.2328 351.5427 351.8869 352.8905 353.1940 353.3064 353.4484 353.7893
   354.5945 354.8705 355.0818 355.6334 355.6519 357.2836 357.2887 357.8638
   358.5278 358.7513 358.8999 359.2477 359.3420 359.4128 359.5046 360.0608
   360.3759 360.4481 360.9190 361.3140 361.4038 362.2755 362.4623 362.5713
   362.7387 363.1854 364.0353 364.8528 365.0857 365.2838 365.2905 365.4996
   365.6343 366.2080 366.4302 366.4953 367.2741 367.8424 367.8940 368.7396
   369.6044 370.1453 370.2609 370.7093 370.7191 370.8650 370.9154 371.9659
   372.1693 372.3235 372.6432 372.9496 373.2715 373.3918 373.4401 373.5363
   373.8402 374.3837 374.5855 375.3470 375.6281 376.0276 376.5638 376.9618
   377.2147 377.4852 378.4246 379.0609 379.0712 379.4386 379.7850 379.9650
   380.9437 380.9472 381.3656 382.0613 382.3512 382.5971 382.8294 382.8683
   383.4723 383.6645 384.1846 384.6130 384.8257 385.0048 385.4952 385.7853
   386.2905 386.8578 387.1037 387.4971 387.9529 388.1576 388.2916 388.5635
   388.5790 389.9983 390.3647 390.5134 390.9322 391.1044 391.6298 392.4298
   393.0418 393.7104 393.8318 393.8846 394.1042 394.6461 394.7623 395.3683
   395.6336 396.4383 396.6629 396.8878 397.2728 397.3315 397.4103 397.6672
   398.1104 398.2450 398.4726 399.2355 399.4897 399.6650 400.0689 400.6783
   400.8927 400.9745 401.3152 401.5092 401.5281 401.8859 402.1280 402.7902
   402.8423 403.0134 403.1853 403.9138 403.9758 404.4665 404.5456 404.8378
   404.9008 405.1358 405.5362 405.7273 405.9218 406.1376 406.2244 406.2707
   406.3453 406.6066 407.0906 407.3629 407.5851 407.6026 408.5829 408.9307
   409.4039 409.6029 409.8791 410.3767 410.3971 410.4124 410.7127 411.6566
   411.9119 412.0472 412.2575 412.8504 413.0619 413.2721 413.6792 414.1702
   414.3248 414.5755 414.8435 415.1520 415.2219 415.6922 415.8092 415.9405
   416.3373 416.4363 416.7481 417.0703 417.1641 417.4980 417.6240 419.4653
   419.6969 420.3791 420.8450 421.4169 421.5368 421.8006 422.6730 422.9810
   423.4869 423.7220 423.7346 423.7756 424.0027 424.0545 424.4833 424.5236
   425.3276 425.8986 425.9650 426.4525 426.8512 427.5820 427.8532 427.8556
   428.2699 428.4106 428.7906 429.1758 429.5599 429.8991 430.0378 430.3661
   430.6532 430.7817 431.1142 431.3729 431.3985 431.6135 431.7254 432.0591
   432.2728 432.2858 432.8577 433.6450 433.6632 433.9917 434.1647 434.4004
   434.5639 434.6449 434.8513 435.0829 435.8491 436.3231 436.4540 436.9516
   436.9868 437.2514 437.3481 437.6276 437.8763 438.1126 438.1945 439.2054
   439.5732 439.6022 439.7570 440.5755 440.8438 440.8610 441.2264 441.6341
   441.6858 442.0681 442.0886 443.0912 443.1909 443.3455 443.6242 443.6627
   444.4679 444.7025 444.9644 445.0652 445.3530 445.6302 445.9278 446.0923
   446.3899 446.4126 446.8727 447.4668 447.6882 448.3298 448.3482 449.1860
   449.7790 449.9289 450.0505 450.2383 450.4332 450.5578 450.7526 450.9774
   451.3470 451.5657 451.8810 452.0850 452.1507 452.5318 452.8570 452.9289
   453.3269 453.7278 453.8828 454.1328 454.3587 454.5198 454.6518 454.8253
   454.8600 455.1169 455.3037 455.7042 455.7378 456.0539 456.1562 456.4277
   456.9349 457.2494 457.2808 457.4204 457.6645 457.9638 458.5889 458.7724
   458.8933 458.9265 459.0569 459.1084 460.3170 460.7525 461.5132 461.6448
   461.9985 462.2209 462.5196 463.2622 463.8251 463.9287 464.6075 464.7206
   465.3971 465.4038 465.5556 465.7675 466.1156 466.3144 467.0328 467.6866
   468.0782 468.3237 468.4840 469.3907 469.4236 469.4977 469.6871 469.8322
   469.9250 470.0458 470.7952 471.5546 471.8018 472.2013 472.7068 472.9973
   473.0266 473.4046 473.7375 473.7579 473.9250 474.4247 474.7188 476.0820
   476.5518 476.6972 476.8430 477.1549 478.7178 478.8843 479.5698 479.6777
   479.9542 481.0099 481.1163 481.2991 482.1661 482.3874 482.5787 482.6857
   484.1314 484.6252 484.7139 484.7693 485.1697 485.5691 485.7422 485.7647
   485.9881 486.1599 486.6680 486.9643 487.5967 488.0983 488.3077 488.3359
   490.2617 490.4187 490.5908 490.6291 491.2041 491.3710 492.1095 493.2824
   493.7967 494.2043 494.3748 494.4260 494.7426 495.0622 495.1678 495.3152
   495.6851 495.9248 495.9802 496.4762 497.1905 497.3434 497.4665 497.6023
   497.7840 498.3704 498.6700 498.6816 498.7297 498.9534 499.6261 499.8111
   499.8425 500.2412 500.4307 500.8060 501.4760 501.5873 501.7789 501.9302
   502.6278 502.7925 503.4020 503.7957 503.9261 504.1137 504.5964 504.8640
   505.3926 506.4043 506.4236 506.6442 506.9342 506.9752 507.0915 507.2055
   507.2371 507.4706 507.4711 507.8098 508.0798 508.1646 508.2252 508.6569
   508.6627 509.0900 509.3620 509.6918 509.8002 510.2373 511.5198 511.8447
   511.8823 512.0120 512.3381 512.4267 512.6313 512.6665 512.9075 513.0266
   513.3304 513.6010 513.7034 514.2082 516.9750 517.8307 518.5057 518.6928
   519.0705 519.4426 520.0911 520.1466 521.0150 521.2379 521.3576 521.4128
   522.3574 522.5220 522.8117 523.3335 523.6809 523.8120 524.0027 524.5514
   524.8727 525.0513 525.0580 525.1308 526.0893 526.5552 526.7094 527.1564
   527.4006 527.7381 527.7734 527.8371 528.8819 528.9119 529.9140 530.1318
   530.7828 530.8487 530.8598 531.0275 531.1931 531.2674 531.3064 532.0003

          k = 0.0000 0.1925 0.1559 (  2656 PWs)   bands (ev):

   -91.4179 -91.4172 -52.9459 -52.9398 -52.9256 -52.9245 -52.9244 -52.9231
    -5.2151  -3.8726   4.4020   7.0376   7.4363   8.1694   8.7398   8.8385
    15.0641  16.9044  18.0808  19.0114  20.7582  21.1063  21.5921  22.0274
    23.7644  24.2591  26.8072  28.5308  29.3647  29.6212  30.4548  31.2078
    32.8935  34.7849  35.4267  35.4943  38.6577  39.5298  40.8111  41.1971
    42.6026  43.3997  44.0640  45.4615  45.6849  46.8208  48.6879  48.8868
    50.6058  52.6869  52.8190  54.2825  55.5153  56.4268  57.2884  58.5527
    59.0388  60.3145  60.8866  63.0181  63.5236  65.3232  65.5196  66.0328
    66.3611  66.8197  67.2084  67.9812  68.0733  69.3740  69.8929  70.2605
    70.7976  71.7941  72.3100  73.1644  73.4127  73.6334  74.9058  75.8421
    75.8790  77.3394  77.4594  77.9677  78.4998  79.6502  80.5302  81.1192
    81.4535  82.1897  83.1831  83.3241  84.1584  85.2723  85.2867  86.0513
    86.6616  87.5990  88.0234  88.9828  89.1837  89.4594  89.9406  91.4675
    91.7602  92.9281  93.5229  93.9291  94.4039  95.1766  95.6184  96.9879
    97.6004  98.5679  98.6193  99.1727 100.9837 101.1553 102.0622 103.2971
   103.4831 104.5767 104.7077 106.2009 106.9241 107.3841 108.0590 108.4770
   109.1663 110.8187 112.8147 112.8388 113.0746 113.1778 114.3195 114.3417
   116.2990 117.7910 117.8741 118.7195 119.4300 119.8448 119.9170 121.0923
   121.1413 121.7367 123.4312 123.9748 124.9245 125.5312 125.9827 126.9057
   127.7510 128.0462 128.5057 128.7151 129.4740 130.0831 130.1142 131.1868
   131.5255 131.5401 131.9164 132.9233 133.0468 134.4498 134.7077 135.3474
   136.3642 136.5027 137.5009 137.7148 138.1600 138.6736 139.6497 140.4707
   141.5100 142.1361 142.3657 142.9600 143.4496 144.5192 144.7766 145.2619
   145.6632 146.0267 146.3368 146.4213 147.4512 147.7222 148.3583 148.3936
   148.9648 149.6674 149.8596 150.5987 150.8454 151.6113 151.6197 152.5271
   153.0889 153.6946 153.7524 154.3187 155.0413 155.0580 155.5647 155.6859
   156.2317 156.4342 156.6765 157.3561 158.3257 159.5364 159.6540 160.1759
   160.2129 160.9476 161.5806 161.6451 162.5226 162.7426 163.4997 164.2237
   164.7844 165.2129 165.9160 166.5531 166.5600 166.8794 167.4016 168.2466
   168.7828 169.1086 169.5433 169.7385 170.2957 170.5773 170.8038 171.8639
   171.9150 172.6910 173.1673 173.2432 174.0413 174.9308 174.9999 175.5149
   175.7851 176.5626 176.5736 176.9109 177.5892 178.6636 179.0123 179.3106
   179.5850 180.5496 180.9418 181.3892 181.4816 182.0693 182.7290 183.0696
   183.6059 184.2711 185.2123 185.2171 185.4313 186.0750 186.5877 187.4440
   188.1095 188.4269 188.7465 189.1424 189.7697 189.8410 190.1749 190.9822
   192.2008 193.2732 193.2759 194.3353 194.6444 194.9706 195.1448 195.5468
   196.2810 196.6794 197.3873 197.5964 197.7476 198.3706 199.5217 199.8574
   200.6602 201.4694 201.8471 202.1499 202.3652 203.2711 203.7819 204.0011
   204.4164 205.8683 206.3031 206.5750 207.3824 207.5737 207.8512 209.3345
   209.5835 209.6965 209.9429 211.3443 211.4705 212.2059 212.3086 212.6174
   212.7409 213.7267 213.8918 213.9783 215.0372 215.5528 216.0091 216.0675
   216.3907 216.8664 217.5704 218.1970 218.2748 218.8681 220.5047 220.8740
   221.2338 221.8423 221.9454 222.8744 223.8667 223.8961 224.7024 225.4125
   226.0815 226.8493 227.4825 228.0923 228.2528 228.9575 229.0176 229.4301
   229.4438 230.4827 231.1472 231.7872 232.0133 232.3414 232.4102 233.1820
   233.3603 233.4603 234.4482 235.3793 235.5294 236.3645 236.5276 237.2434
   237.4766 238.1569 239.1220 239.7205 239.9816 240.3021 240.6535 241.1881
   241.4057 241.8836 241.9606 242.7294 243.1677 243.2853 244.1656 244.2043
   244.5367 245.4111 245.6611 246.1541 246.2338 246.7985 247.3461 247.8919
   248.2988 248.5991 249.4792 249.7864 250.0739 250.2526 250.3483 250.8818
   251.0501 251.3101 251.5983 252.1798 252.4008 252.8430 253.1737 253.6147
   253.6873 253.8982 254.5290 254.5874 254.7627 255.2277 255.3568 255.6909
   256.0403 256.9546 257.4990 257.6662 258.2562 258.6433 258.7037 259.1800
   259.8809 260.3153 260.4769 260.8430 261.1946 262.0476 262.3460 262.5662
   263.2104 263.5367 263.8729 264.1134 264.4950 264.6447 265.1413 265.3416
   265.7739 266.0110 266.3784 267.0901 267.1240 267.7457 268.2763 268.3398
   268.8487 269.0757 269.3030 269.6950 270.3009 270.8549 271.2316 271.9889
   272.1524 272.7778 273.1012 273.3937 274.0403 274.1167 274.8353 275.3131
   275.6729 276.6725 276.8385 277.0898 277.6981 277.9066 278.1063 279.1252
   279.4704 279.7906 279.8505 280.2820 280.5124 280.9435 281.1104 282.0290
   282.4060 282.4462 282.9068 282.9804 283.5962 283.8745 283.8805 284.0784
   284.3976 284.6191 285.0364 285.1541 285.5668 285.8849 286.0608 286.3176
   286.6136 286.9296 287.1522 287.5536 288.2347 288.6658 289.0869 289.1652
   289.8598 290.4329 290.5265 290.9610 291.2192 291.5108 291.8636 292.3413
   292.8683 293.1381 293.5416 294.4705 294.5254 295.1199 295.6758 295.8511
   296.2749 296.3787 296.8266 297.3849 297.4316 297.8161 297.8165 298.3001
   298.3460 298.9669 299.3804 299.6062 300.0155 300.6262 300.9155 301.2820
   301.4698 301.8292 302.5942 302.7194 303.1264 303.4369 303.4513 304.3119
   304.7906 305.0653 305.8469 305.9351 306.2348 306.2363 306.8057 307.3900
   307.5636 307.7192 307.7888 308.5384 308.8851 310.0579 310.9145 311.0756
   311.6223 312.3084 313.0849 313.9094 314.6132 315.4470 315.4775 315.9872
   316.9129 317.0542 317.7260 317.9515 318.0152 318.2586 318.7977 319.0728
   319.2382 319.3195 319.9499 320.5701 320.7376 321.2625 321.2794 322.0293
   322.0688 322.7678 323.1381 323.6537 323.6908 324.0674 324.3453 324.6393
   324.7040 325.0419 325.2266 325.2963 325.5234 325.8910 325.9439 327.0091
   327.9130 328.1311 328.4977 328.6881 329.3069 330.3814 330.7556 331.4263
   331.5095 332.0104 332.0641 332.3398 333.4338 333.6535 334.2040 334.4528
   334.9618 335.2503 336.2793 336.4587 336.7636 337.6773 337.6921 337.8933
   338.0362 338.7941 339.4738 339.5753 339.8210 340.6664 340.6937 341.8892
   342.0353 342.3410 342.8315 343.4273 343.8528 344.5187 344.5671 345.0023
   345.6097 345.6611 346.2446 346.4537 346.6156 346.9092 347.5535 348.1849
   348.2037 348.7172 349.2715 349.3621 349.4657 349.8665 350.3195 350.6337
   350.7127 351.3845 351.8467 352.3690 352.7595 352.7688 353.0624 353.2382
   353.3596 354.1908 354.3991 354.6601 355.8122 356.1546 356.5273 356.5932
   356.9324 356.9522 358.0186 358.8847 359.3981 359.6878 359.8308 360.5783
   360.7177 361.2534 361.8500 362.2931 362.6181 362.6674 363.0281 363.2453
   363.8001 364.1398 364.3912 365.3523 365.3905 365.8897 365.9528 366.3095
   366.7031 367.5163 367.7950 368.2027 368.9876 369.3963 369.6896 369.7077
   370.2525 370.4561 370.7038 370.7742 371.1480 371.3934 371.8534 371.9858
   372.0926 372.5419 372.5824 373.1874 373.2623 373.7409 374.1299 374.1601
   374.6777 375.2157 375.4575 375.6763 376.7797 376.8655 377.1251 377.7893
   378.4127 378.8671 378.9685 379.2157 379.7204 380.1166 380.6382 380.6608
   381.0117 381.8254 382.4326 382.6989 382.9643 383.7483 383.8688 383.9777
   384.5515 384.6194 385.0093 385.3022 385.6688 385.8921 385.8940 386.6753
   386.9239 387.2788 387.8302 388.2405 388.2988 388.8914 389.6052 389.7289
   390.3409 390.7592 390.8466 391.1089 391.1155 391.1753 391.3915 391.5083
   392.4287 393.7041 393.7674 394.1791 394.2892 394.7642 395.3740 395.7286
   395.7331 396.1522 396.4880 396.4992 396.7497 396.9158 397.0444 397.1510
   397.2237 397.5207 397.6170 397.7715 398.0975 398.1925 398.4635 398.6381
   398.9645 399.0310 399.3814 400.0947 400.3647 400.5108 400.6432 401.1233
   401.1930 401.5508 402.1207 402.7719 403.2652 403.6021 403.7627 404.2434
   404.9465 405.4580 405.5876 405.6870 405.9341 406.3451 406.5361 407.0903
   407.3295 407.6905 407.7270 408.5126 408.6313 408.9479 409.4204 410.0483
   410.3446 410.7380 411.1706 411.3607 411.7847 412.0577 412.1179 413.0953
   413.8055 413.9874 414.3110 414.4146 414.5296 414.7622 415.0239 415.3203
   415.6839 415.7276 415.9961 416.1316 416.7469 416.8615 417.2443 417.2809
   417.6477 417.7154 417.9738 418.0297 418.0764 418.6112 418.7815 419.1295
   419.7940 419.9498 420.0246 420.2426 420.5948 420.7793 421.2791 421.3622
   421.7012 421.9612 422.1975 422.3752 422.5089 422.8987 423.0987 423.4913
   423.5135 423.8482 424.1683 424.3889 424.5578 424.8925 425.6274 425.7356
   426.1936 426.6086 426.7621 426.7624 427.1415 427.5536 427.9538 428.0958
   428.7059 428.7908 429.6301 430.0531 430.1000 430.1890 430.8370 430.8870
   431.0299 431.2730 431.5981 431.9520 432.0615 432.5785 432.8707 432.8753
   433.2831 433.6257 433.8100 434.3976 434.9008 435.1590 435.2196 435.4293
   435.4556 436.5695 437.1386 437.7315 437.7679 437.9822 438.3182 438.5966
   438.7131 439.0436 439.2396 439.7288 440.2974 440.8446 441.3040 441.4437
   441.7370 442.1649 442.5594 442.9644 443.4535 443.6835 443.7644 443.9407
   444.0646 444.4374 444.6121 444.8515 444.8578 445.0995 445.1806 445.6165
   445.6885 445.8639 446.1366 446.4113 446.7026 447.7542 447.8268 448.1518
   448.1579 448.5230 449.1248 449.4690 449.5854 450.0479 450.1517 450.3228
   450.4084 450.7788 451.1576 451.3307 451.3738 452.8407 452.9307 453.5671
   454.0558 454.1115 454.4943 455.5839 455.7345 456.1340 456.3307 456.5878
   456.6210 456.8612 457.4390 457.7860 457.8910 458.2114 458.3517 458.5280
   459.4638 459.6297 460.0938 460.3629 460.5632 461.3400 461.4454 462.1627
   462.3537 462.5109 462.7952 463.0356 463.2020 463.3548 463.9663 464.1613
   464.2553 465.1448 465.6520 466.3613 466.4256 466.9668 467.2938 467.8985
   467.9253 468.4671 468.5171 468.7253 468.7341 468.9121 469.2214 469.4251
   469.5570 469.8834 470.0523 470.3903 470.4561 470.6301 471.2444 471.6092
   471.7493 472.1452 472.4743 472.6516 473.3100 473.6759 473.8105 474.0562
   474.2628 474.4489 474.4955 474.9136 475.1035 475.3161 475.6111 475.8040
   475.9940 476.1668 476.2543 476.5877 476.8693 477.6709 477.8043 477.9249
   478.4241 479.1418 479.5519 480.3237 480.6268 481.0379 481.5203 481.6743
   482.2933 482.9101 482.9701 483.5606 483.9814 484.0535 484.3349 485.1299
   485.2909 486.3146 486.3150 486.5218 486.8790 487.2306 487.3319 487.5014
   487.9317 488.4730 488.5140 489.1072 489.1455 489.6149 489.6960 489.8462
   490.0069 490.3129 490.7007 490.8605 491.1951 491.3836 492.1739 492.1773
   493.3555 494.9228 495.0705 495.2034 495.5917 495.6199 496.0913 496.1948
   496.4615 496.5759 497.0458 497.1684 497.4270 497.5198 497.6538 498.3670
   498.8789 498.9757 499.7689 500.0139 500.2083 501.6791 501.9291 502.1094
   502.6696 502.6980 502.9904 503.4986 503.8268 503.9636 504.0457 504.5909
   505.0542 505.4190 506.0449 506.3234 506.9961 507.1436 507.3924 507.4982
   508.0412 508.0969 508.7114 508.7695 509.0905 509.2861 509.8807 510.4082
   510.5393 510.7640 510.8233 511.5450 512.1896 512.2499 512.3605 512.9230
   513.2961 513.3641 513.5320 514.2969 514.8168 514.8442 515.0340 515.4726
   516.1135 516.4414 516.7000 516.7906 517.6157 518.2069 518.2887 518.5399
   518.8717 519.0157 519.5464 520.0615 520.4864 520.5966 520.9418 521.1927
   521.1952 521.7238 521.9303 522.0129 522.2674 522.4832 522.7855 522.8437
   523.0372 523.1479 523.2090 523.8182 524.1404 524.4353 524.7068 524.9420
   525.5760 525.7330 525.8513 525.9041 526.6910 526.7268 527.3047 527.5470
   528.1586 529.4862 529.5119 529.7349 529.7721 530.0560 530.3688 530.5008

          k = 0.0000 0.1925-0.3118 (  2656 PWs)   bands (ev):

   -91.4176 -91.4176 -52.9429 -52.9429 -52.9250 -52.9249 -52.9238 -52.9238
    -4.6149  -4.6149   5.7954   5.7954   7.9720   7.9720   8.4886   8.4886
    16.0836  16.0836  18.5124  18.5124  20.8762  20.8762  21.4019  21.4019
    25.5874  25.5874  26.5554  26.5554  29.6813  29.6813  31.0185  31.0185
    32.7673  32.7673  35.9765  35.9765  38.9557  38.9557  41.3575  41.3575
    42.2903  42.2903  44.0153  44.0153  48.6326  48.6326  49.6789  49.6789
    50.9606  50.9606  52.9899  52.9899  55.5387  55.5387  58.7342  58.7342
    60.5409  60.5409  62.0016  62.0016  62.4015  62.4015  64.9341  64.9341
    65.7637  65.7637  67.0721  67.0721  67.8447  67.8447  69.3638  69.3638
    71.6077  71.6077  73.3089  73.3089  73.7190  73.7190  75.3781  75.3781
    77.8938  77.8938  78.4571  78.4571  81.3672  81.3672  81.5327  81.5327
    82.9786  82.9786  83.4434  83.4434  85.1440  85.1440  86.5265  86.5265
    87.0715  87.0715  88.3474  88.3474  88.8340  88.8340  90.6933  90.6933
    91.4671  91.4671  92.4216  92.4216  93.7679  93.7679  95.8481  95.8481
    98.0116  98.0116  98.8101  98.8101  99.8876  99.8876 102.0098 102.0098
   104.1490 104.1491 104.3992 104.3992 106.1912 106.1912 106.8447 106.8447
   109.3658 109.3658 112.3179 112.3180 113.4606 113.4606 115.7034 115.7034
   117.5510 117.5510 117.8817 117.8817 120.0945 120.0945 122.4154 122.4154
   123.6117 123.6117 124.6770 124.6770 125.7929 125.7929 127.3126 127.3126
   128.1407 128.1407 129.8300 129.8300 130.3653 130.3653 132.0977 132.0977
   133.5691 133.5691 133.8030 133.8030 134.5369 134.5369 134.8596 134.8596
   137.0078 137.0078 138.0699 138.0699 138.4256 138.4256 139.2922 139.2922
   140.2706 140.2706 140.7649 140.7649 141.4323 141.4323 143.1534 143.1534
   143.3617 143.3617 144.5886 144.5886 145.6436 145.6436 147.6867 147.6867
   147.7069 147.7069 148.9577 148.9577 150.1488 150.1488 151.8224 151.8224
   152.3183 152.3184 153.8217 153.8217 156.2120 156.2120 156.3212 156.3212
   157.8420 157.8420 158.0642 158.0642 159.2539 159.2539 159.3248 159.3248
   161.8644 161.8644 162.5252 162.5252 163.2900 163.2900 164.8115 164.8115
   164.9937 164.9937 166.2592 166.2592 166.4362 166.4362 167.0519 167.0519
   168.5187 168.5187 169.0080 169.0080 169.9793 169.9793 170.8625 170.8625
   171.3950 171.3950 172.3680 172.3680 174.0203 174.0203 176.1766 176.1766
   176.8512 176.8512 177.9590 177.9590 178.3322 178.3322 180.4621 180.4621
   182.0452 182.0452 183.4434 183.4434 183.8857 183.8857 185.0737 185.0737
   186.4824 186.4824 187.2453 187.2453 187.5292 187.5292 188.4532 188.4532
   188.5581 188.5581 189.5990 189.5990 189.9527 189.9527 192.2102 192.2102
   192.8286 192.8286 193.3918 193.3918 194.5129 194.5129 195.0123 195.0123
   196.1513 196.1513 197.0559 197.0559 197.8103 197.8103 198.1471 198.1471
   199.2639 199.2639 199.9184 199.9184 201.6828 201.6828 202.2312 202.2312
   203.2383 203.2383 204.1678 204.1678 204.5462 204.5462 205.5167 205.5167
   206.0043 206.0043 207.8331 207.8331 209.6474 209.6474 210.4589 210.4590
   212.0020 212.0020 213.0026 213.0026 213.3441 213.3441 215.3441 215.3441
   217.1847 217.1847 218.8008 218.8008 219.7665 219.7665 221.7835 221.7835
   222.7055 222.7055 224.5475 224.5475 225.7960 225.7960 225.8100 225.8100
   228.5143 228.5143 229.2525 229.2525 229.8193 229.8193 230.4272 230.4273
   232.0346 232.0346 232.9615 232.9615 233.6557 233.6557 233.6593 233.6593
   234.6241 234.6241 235.1100 235.1100 235.9542 235.9542 237.5792 237.5792
   237.7331 237.7331 240.2399 240.2399 240.7648 240.7648 241.1788 241.1788
   242.4164 242.4164 242.5248 242.5248 244.4329 244.4329 244.7468 244.7468
   245.1087 245.1087 245.9731 245.9731 247.1893 247.1893 247.8429 247.8429
   248.7580 248.7580 249.4100 249.4100 249.8828 249.8828 250.6515 250.6515
   251.0684 251.0684 252.3430 252.3430 253.0988 253.0988 253.2037 253.2037
   254.1285 254.1285 255.3230 255.3230 255.8074 255.8074 255.9461 255.9461
   257.0891 257.0891 257.2059 257.2059 257.6990 257.6990 257.9943 257.9943
   259.4579 259.4579 259.4590 259.4591 261.7124 261.7124 263.2156 263.2156
   263.3496 263.3496 264.5705 264.5705 264.6484 264.6484 265.4993 265.4993
   265.6982 265.6982 266.4819 266.4819 267.8753 267.8753 268.0620 268.0620
   268.4615 268.4615 268.8278 268.8278 270.1331 270.1331 271.3358 271.3358
   271.7610 271.7610 272.5021 272.5021 273.1799 273.1799 273.6526 273.6527
   274.1580 274.1580 275.3314 275.3314 275.4019 275.4019 276.9778 276.9778
   277.3068 277.3068 277.4942 277.4942 278.3675 278.3675 278.7272 278.7272
   279.4605 279.4605 279.6064 279.6064 280.6291 280.6291 280.9268 280.9268
   281.6470 281.6470 284.9312 284.9312 286.0140 286.0140 286.5958 286.5958
   286.9715 286.9715 288.5955 288.5955 289.3504 289.3504 290.1816 290.1816
   290.7505 290.7505 291.2966 291.2966 291.5717 291.5717 292.2485 292.2485
   293.9204 293.9204 294.4564 294.4564 295.9654 295.9654 296.0803 296.0803
   297.1289 297.1289 299.5071 299.5071 299.5997 299.5997 300.8810 300.8810
   301.4115 301.4115 301.5907 301.5907 302.3085 302.3085 302.7589 302.7589
   304.0671 304.0671 304.2602 304.2602 305.7603 305.7603 305.9774 305.9774
   307.8429 307.8429 308.5648 308.5648 309.3596 309.3596 309.9691 309.9691
   310.1711 310.1711 310.8375 310.8375 311.1213 311.1213 311.7580 311.7580
   312.3944 312.3944 312.9633 312.9633 314.1003 314.1003 314.4689 314.4689
   315.5640 315.5640 315.5980 315.5980 316.5707 316.5707 317.8482 317.8482
   318.1005 318.1005 320.3862 320.3862 320.5333 320.5333 321.0825 321.0825
   321.2088 321.2088 322.1506 322.1506 322.6944 322.6944 323.6733 323.6733
   324.0845 324.0845 325.6736 325.6736 326.2980 326.2980 326.4318 326.4318
   327.3157 327.3157 328.3681 328.3681 329.9226 329.9226 330.0466 330.0466
   331.1268 331.1268 332.6333 332.6333 332.6861 332.6861 333.9378 333.9378
   335.0729 335.0729 335.9268 335.9268 336.9200 336.9200 336.9898 336.9898
   338.1358 338.1358 338.5650 338.5650 339.2548 339.2548 339.3956 339.3956
   340.5093 340.5093 341.9662 341.9662 343.0006 343.0006 343.9567 343.9567
   346.3196 346.3196 346.6081 346.6081 347.2018 347.2018 347.2318 347.2318
   347.8392 347.8392 347.9822 347.9822 348.3824 348.3824 348.6486 348.6486
   350.4301 350.4301 351.0264 351.0264 351.6846 351.6846 352.8855 352.8855
   354.1658 354.1658 354.3352 354.3352 356.0988 356.0988 356.3067 356.3067
   357.3553 357.3553 357.8331 357.8331 359.4068 359.4068 359.8441 359.8441
   359.9294 359.9294 361.5305 361.5305 362.2326 362.2326 363.3418 363.3418
   364.1256 364.1256 364.9074 364.9074 365.7961 365.7961 367.0464 367.0464
   368.5678 368.5678 369.2760 369.2760 369.3498 369.3498 370.0550 370.0550
   370.4796 370.4796 371.2556 371.2556 371.5799 371.5799 372.6737 372.6737
   373.3544 373.3545 374.1427 374.1427 374.5209 374.5209 374.7369 374.7369
   375.4758 375.4758 376.1450 376.1450 376.5928 376.5928 377.9282 377.9282
   377.9887 377.9887 378.8959 378.8959 380.3152 380.3152 381.2297 381.2297
   382.4466 382.4466 382.6285 382.6285 383.2850 383.2850 383.7552 383.7552
   384.5679 384.5679 386.5786 386.5786 387.1820 387.1820 387.4801 387.4801
   388.3849 388.3849 388.4284 388.4284 389.6247 389.6247 389.9522 389.9522
   390.9186 390.9186 392.4966 392.4966 392.7975 392.7975 393.3511 393.3511
   393.7324 393.7324 394.2803 394.2803 395.1568 395.1568 395.2914 395.2914
   396.1425 396.1425 396.7694 396.7694 397.1195 397.1195 397.8978 397.8978
   397.9750 397.9750 399.0888 399.0888 399.3027 399.3027 400.1188 400.1188
   400.6033 400.6033 401.1375 401.1375 401.2014 401.2014 401.8782 401.8782
   401.8850 401.8851 402.7925 402.7925 403.4226 403.4226 403.6461 403.6461
   404.5887 404.5887 405.2891 405.2891 405.3411 405.3411 405.6412 405.6412
   406.1116 406.1116 407.5823 407.5823 408.2533 408.2533 409.4048 409.4048
   409.8511 409.8511 410.1757 410.1757 410.3376 410.3376 410.8075 410.8075
   410.8591 410.8591 412.3358 412.3358 413.8073 413.8073 413.8651 413.8651
   415.0415 415.0415 415.3951 415.3951 416.0766 416.0766 416.2486 416.2487
   417.2074 417.2074 417.9213 417.9213 418.1723 418.1723 419.2918 419.2918
   419.4076 419.4076 419.4540 419.4540 419.9733 419.9733 420.2051 420.2051
   420.5148 420.5148 421.0780 421.0780 421.5971 421.5971 422.2349 422.2349
   423.4491 423.4491 423.5597 423.5597 424.6562 424.6562 425.3338 425.3338
   425.6567 425.6567 426.1056 426.1056 426.1378 426.1378 426.3758 426.3758
   427.6251 427.6251 428.0265 428.0265 429.3008 429.3008 430.2547 430.2547
   430.3530 430.3530 430.7320 430.7320 432.0881 432.0881 432.8622 432.8622
   433.0845 433.0845 433.8543 433.8543 434.2058 434.2058 434.4068 434.4068
   436.1502 436.1502 436.3316 436.3316 438.1052 438.1052 438.2191 438.2191
   439.7260 439.7260 439.7711 439.7711 441.3855 441.3855 441.4916 441.4916
   442.9247 442.9247 443.0500 443.0500 443.9034 443.9034 444.3944 444.3944
   445.3324 445.3324 445.4282 445.4282 445.9763 445.9764 446.5455 446.5455
   446.6553 446.6553 447.4840 447.4840 448.3597 448.3597 448.9568 448.9568
   449.1446 449.1446 449.5625 449.5625 449.7064 449.7064 451.2356 451.2356
   451.4220 451.4220 452.2558 452.2558 453.2043 453.2043 453.5545 453.5545
   454.5218 454.5218 455.4249 455.4249 455.5045 455.5045 456.3656 456.3656
   457.3247 457.3247 457.7573 457.7573 458.1694 458.1694 458.9182 458.9182
   459.5661 459.5661 459.8785 459.8785 460.1281 460.1281 460.5492 460.5492
   460.7715 460.7715 461.6402 461.6402 463.8291 463.8291 466.0484 466.0484
   466.4910 466.4910 467.1195 467.1195 467.1666 467.1666 467.4243 467.4243
   469.0250 469.0250 469.2236 469.2236 469.9600 469.9600 470.3236 470.3236
   470.8880 470.8880 471.1251 471.1251 471.4997 471.4997 471.7190 471.7190
   472.8643 472.8643 473.8845 473.8845 473.9602 473.9602 474.3000 474.3000
   474.9049 474.9049 475.3235 475.3235 476.2837 476.2837 476.8134 476.8134
   477.9275 477.9275 480.4718 480.4718 481.1231 481.1231 481.5164 481.5164
   481.9987 481.9987 482.3726 482.3726 482.7395 482.7395 483.7860 483.7861
   484.0197 484.0198 484.4475 484.4475 484.7995 484.7995 485.0211 485.0211
   485.3616 485.3616 485.4500 485.4500 485.9777 485.9777 486.5819 486.5819
   486.8356 486.8356 488.1439 488.1439 488.1591 488.1591 488.7994 488.7994
   489.3955 489.3955 490.5843 490.5843 490.6010 490.6010 491.1347 491.1347
   491.5521 491.5521 493.3705 493.3705 493.5655 493.5655 493.8534 493.8534
   495.0051 495.0051 495.0835 495.0835 496.3948 496.3948 496.5815 496.5815
   497.3151 497.3151 498.3863 498.3863 499.9748 499.9748 500.0079 500.0079
   501.1437 501.1437 501.5992 501.5992 502.4540 502.4540 503.4182 503.4182
   504.1568 504.1568 504.4018 504.4018 505.0490 505.0490 507.5741 507.5741
   507.6804 507.6804 508.1733 508.1733 508.2045 508.2045 508.8153 508.8153
   509.0430 509.0430 509.8946 509.8946 510.4341 510.4341 510.8597 510.8597
   511.9992 511.9992 512.5832 512.5832 514.4140 514.4140 514.9677 514.9677
   515.6334 515.6334 515.8696 515.8696 516.4352 516.4352 517.6086 517.6086
   517.8440 517.8440 518.5365 518.5365 519.6768 519.6768 520.2230 520.2230
   520.9640 520.9640 521.3356 521.3356 521.8739 521.8739 522.5844 522.5844
   523.5025 523.5025 524.3045 524.3045 524.8409 524.8409 525.3038 525.3039
   525.6605 525.6605 526.0509 526.0509 526.2843 526.2843 526.4772 526.4772
   528.5253 528.5253 529.9032 529.9032 530.4979 530.4979 531.0351 531.0352

          k = 0.0000 0.3849 0.0000 (  2656 PWs)   bands (ev):

   -91.4176 -91.4170 -52.9453 -52.9396 -52.9291 -52.9277 -52.9258 -52.9236
    -4.5573  -3.1683   4.8171   4.9208   5.9866   7.4598   8.4162   8.7324
    15.4491  15.9585  17.1049  19.4702  20.6074  20.9396  21.2078  23.5399
    24.2810  25.9520  26.7177  28.5553  31.8979  32.5174  32.9102  33.3740
    33.9385  35.4449  35.7182  37.7700  38.1124  38.6048  40.0671  40.3151
    40.5105  42.7685  42.9377  45.0319  46.1966  47.4342  47.9473  49.7317
    50.5297  51.4725  52.6116  53.4772  54.0376  54.5198  54.8569  55.7618
    58.8028  59.7495  59.9035  60.9730  62.0939  62.3342  62.8558  64.3703
    64.4371  65.9997  66.2051  67.0726  67.1657  68.4077  68.5041  69.5852
    70.0668  70.1654  71.6980  72.9931  73.7581  75.0411  75.7394  76.0530
    77.0154  77.0446  78.0449  78.8186  79.4484  79.7633  80.2843  82.0998
    82.3938  83.3267  84.5856  85.4770  85.6083  85.8410  86.5864  87.5461
    88.0645  89.9561  90.5093  91.0556  91.1902  91.3574  92.5413  93.2449
    93.4780  93.6769  95.8064  96.6986  97.5458  98.6176  99.0347  99.3702
    99.8408 100.8254 101.0776 102.7617 102.8096 103.0245 103.9461 104.6983
   105.2514 105.4798 106.2218 106.5937 107.1959 108.1287 108.4498 108.5641
   109.2586 110.5796 111.4567 112.4494 112.9776 114.0053 114.4258 115.1474
   115.5126 115.9373 116.6808 117.1246 117.1947 118.2190 118.4703 119.7066
   119.9375 119.9671 120.4264 120.6227 121.8036 122.1718 122.2034 123.0514
   124.2709 125.4650 126.0240 126.3537 126.9358 127.2064 127.5281 127.7470
   129.2822 130.1144 130.3730 130.5909 130.9738 132.3441 132.6104 132.9191
   133.2520 133.8415 134.7245 135.6343 136.3190 137.5151 137.6891 138.1036
   139.0242 139.2444 140.3139 141.6490 142.1089 142.4045 143.6300 143.8897
   144.7914 145.4697 146.2645 146.7925 146.8537 147.7445 148.4717 148.9717
   149.5986 149.9551 151.2630 151.7333 151.7757 151.9402 152.3410 153.6346
   153.6577 154.3555 155.2620 155.3860 156.3790 157.0515 157.2678 157.7104
   158.2483 158.5720 158.6678 158.9233 159.1389 159.5253 159.7450 160.0002
   160.2674 160.6802 161.3414 161.7841 162.0731 163.5636 163.7533 163.9115
   163.9228 165.1833 165.2804 166.0398 167.1446 167.1841 167.8515 167.9256
   168.4105 169.7044 169.9003 170.4104 170.5890 171.0657 171.1442 171.8898
   172.0209 173.3373 174.8161 175.0670 175.5126 175.7755 176.2663 177.0599
   177.5790 178.5526 178.5981 179.0729 179.5251 179.5573 180.3993 181.0732
   181.8172 182.6461 183.1659 183.6685 183.8358 184.5711 184.6291 185.3944
   185.4499 186.1898 186.5508 186.6465 186.7965 187.4895 188.4979 188.8510
   189.5473 189.9419 190.4355 190.4941 191.1643 192.3213 193.0274 193.8705
   194.0228 194.8118 195.7568 195.9969 196.8655 197.1875 197.8297 198.5818
   199.2465 199.3062 199.7634 199.8751 199.9568 200.7679 201.3145 201.4845
   201.5365 201.9783 202.4312 202.7408 203.0348 203.5028 203.9429 204.0737
   205.0190 205.1263 206.3813 207.2214 207.9332 208.6501 209.2760 209.4959
   209.7282 210.4837 210.7982 211.4139 211.8669 212.1450 212.3629 212.8205
   213.0530 213.4276 214.2186 214.3994 215.4904 216.2576 216.6669 216.7597
   217.4777 218.1251 218.4017 219.1493 219.2505 219.7016 220.2659 220.6952
   220.8392 221.9181 222.2228 223.1133 223.1962 223.3399 224.1662 224.4722
   224.5021 225.1996 225.3070 226.1456 226.1934 226.4169 226.6114 226.7570
   227.0228 227.0827 227.4648 227.7972 228.0874 228.7312 229.0773 230.1910
   230.4736 230.7231 231.0460 231.5355 231.5508 232.2855 233.2163 233.7935
   234.8904 235.2285 235.3961 235.6702 235.7360 236.6544 236.8094 237.2609
   237.7905 237.9578 239.4187 239.8357 239.9716 240.2118 240.5270 241.0769
   241.1446 241.6036 242.3371 242.5216 243.5455 243.6588 244.5380 244.7237
   244.9651 245.0252 245.8688 246.9707 247.8163 248.1952 248.6389 249.3172
   249.6971 249.9743 250.2268 250.5019 251.2108 252.0194 252.1517 252.3785
   252.4014 252.4981 252.7457 253.0063 253.1584 253.7178 254.6334 254.7306
   255.1409 255.4783 255.6512 256.5571 257.1618 257.3226 257.8375 258.6057
   258.6562 259.1108 259.1294 259.4706 260.1477 260.1556 260.6668 261.1528
   261.3764 261.9566 262.2231 262.6976 262.7629 263.2938 264.2800 265.8783
   266.6384 267.0211 267.1634 267.5046 268.1574 268.3634 268.8362 269.1179
   269.7860 270.0005 270.0076 270.3678 270.6746 271.2739 271.5058 271.8113
   272.0789 272.3306 273.4635 273.7820 273.8510 274.3585 275.2431 275.4071
   275.6487 276.4005 276.5632 277.0832 277.0868 277.8835 277.9902 278.3265
   278.6086 279.0388 279.6236 280.0230 280.6488 281.1469 281.4860 282.9119
   283.4140 283.5491 284.1188 284.6979 285.1807 285.4278 285.7641 285.8674
   286.4730 286.6801 287.9418 288.5047 288.7957 289.3063 289.3820 290.4937
   290.5092 291.5031 291.8946 292.0119 292.6086 292.6618 292.9307 293.4726
   294.1578 294.1917 294.3815 294.5993 294.9913 295.1357 295.5228 295.8534
   296.0024 296.7743 297.0930 297.3791 297.8035 298.1732 298.9918 299.2934
   299.4997 300.1474 300.5452 300.8469 301.3082 301.4884 301.8349 302.3234
   302.4562 302.7604 302.8603 303.0280 303.3062 303.3842 304.1040 304.3375
[...]
   282.7246 283.0310 283.4829 284.1404 284.6544 285.2799 285.5022 285.9557
   286.3374 286.3470 287.1812 287.3044 287.7007 288.1131 288.7746 288.9629
   289.3144 289.8958 289.9719 291.0295 291.4764 291.5604 292.2127 292.3849
   293.5389 293.6236 293.9691 294.1868 294.5540 294.6807 294.9125 295.4875
   295.7162 295.8586 296.0608 296.5031 296.5959 296.9185 297.4385 298.3185
   298.3203 299.0492 299.2614 299.6993 299.8257 300.4941 301.0130 301.6834
   302.2204 302.5099 302.6858 302.7126 303.0030 303.3690 303.6106 304.1200
   304.7333 304.8574 305.4636 305.6887 305.7923 306.2287 306.7168 306.9805
   307.9410 308.0137 308.0859 308.5155 308.9761 309.2501 309.4022 309.7976
   309.9853 310.8010 310.9118 311.1696 311.7644 312.0289 312.0460 312.4597
   312.6527 312.7804 313.2331 313.5022 313.5449 314.8046 315.0546 315.1901
   316.1066 316.1199 317.1079 317.6273 317.7503 319.0971 320.1212 320.5259
   321.1243 321.3109 321.5608 322.0371 322.5705 322.5958 322.6699 323.0009
   323.0018 323.5962 323.6093 323.9670 324.1287 324.3762 324.9261 325.0850
   325.1628 325.9427 326.1076 326.3207 327.3286 327.9004 328.8264 328.9472
   329.4676 329.6658 330.6592 331.1787 331.2815 331.6930 331.8240 332.3807
   332.6600 332.8549 333.3606 333.5431 333.9555 334.0540 334.2558 334.4841
   334.6397 335.2311 335.7751 335.9298 336.0802 336.2375 336.8684 337.8652
   338.3481 338.6692 338.7431 339.0795 339.4697 339.5662 340.0595 340.8754
   341.3891 341.8888 341.9739 342.3234 342.4417 342.5770 342.9862 343.0582
   343.7911 343.9760 344.3730 345.2465 345.5808 346.1046 346.3399 346.4660
   347.0162 347.5311 347.6887 348.1245 348.1694 348.3768 348.8968 349.2169
   349.2653 350.0670 350.6014 351.3756 351.9521 352.2351 353.1679 353.3178
   354.0313 354.4239 354.6762 354.9413 355.2602 355.8255 356.1994 356.5996
   356.6890 357.2163 357.3063 357.5990 357.9161 358.3508 358.8330 360.0107
   360.0353 360.3478 360.5984 360.6341 361.2201 361.8504 361.8590 362.4468
   362.4479 363.0006 363.2165 363.3421 363.7771 364.0119 364.5164 365.1527
   365.1607 365.4213 366.1649 366.5046 366.6933 367.3932 367.6471 368.0010
   368.1771 368.6215 368.6458 369.1058 369.4420 369.6621 370.0275 370.0957
   370.2459 370.3442 371.4286 371.9388 372.1192 372.7701 373.1983 373.6632
   373.9605 374.0989 374.2145 374.9394 374.9787 375.2696 375.2955 375.9620
   376.0374 376.5758 376.8984 376.9793 377.5992 377.8116 378.0532 378.5631
   378.8689 379.6740 379.6833 379.9539 380.0193 380.1083 380.4349 380.6888
   381.0831 381.4569 382.2769 382.3516 382.8969 383.0164 383.4963 383.8438
   384.1109 384.3957 384.5832 384.9111 385.4536 385.7324 385.9638 386.1212
   386.9561 387.4005 387.4222 387.9683 388.2341 388.2856 388.5405 388.9212
   389.8515 390.2149 390.3059 391.2358 391.4013 391.6606 391.8474 392.0464
   392.1806 392.5150 393.0638 393.0772 394.2003 394.4588 395.0156 395.1675
   395.5346 395.9695 396.2914 396.5434 396.6544 397.3727 397.4988 397.7953
   397.8326 397.9689 398.1946 398.6614 399.2919 399.4137 400.1482 400.1747
   400.7253 401.2207 401.2671 401.6083 401.6759 402.0224 402.0795 402.8016
   402.8134 403.5384 403.6253 404.1711 404.3987 404.4351 404.8433 404.9898
   405.7229 405.9515 406.1858 406.5364 406.7441 407.0683 407.7666 408.1620
   408.9573 409.3792 409.7493 409.9721 410.1577 410.8578 411.4755 411.6555
   411.9260 412.2433 412.8043 412.8972 413.0644 413.2520 413.4569 413.7167
   414.0518 414.3310 414.6851 414.7658 414.9247 415.0371 415.0476 415.7119
   415.8846 416.5735 416.7440 416.9955 417.3484 418.0037 418.4548 418.6518
   419.0749 419.6380 419.9163 420.3912 420.5853 420.9745 421.1170 421.5131
   421.8776 422.0446 422.6501 423.2640 423.6405 423.7945 424.2384 424.2785
   424.6961 424.9219 424.9395 425.4036 425.8467 426.9047 427.0520 427.9099
   428.2441 428.9000 428.9990 429.5863 429.9645 430.7264 430.8057 430.9768
   431.4515 431.7584 431.8289 432.2257 432.3611 432.9264 432.9383 433.2748
   433.8423 434.3290 434.3773 434.7031 434.9096 435.0837 435.3131 435.6986
   435.9154 436.3923 436.8188 437.4057 437.4823 437.6707 437.8495 438.1110
   438.3669 438.6092 439.3813 439.5134 439.8820 439.9800 440.0884 440.8765
   441.7761 441.9265 442.2248 443.0054 443.0150 443.1564 443.6437 443.8863
   444.0511 444.0755 444.3386 444.4919 444.5911 444.7785 444.7877 445.2748
   445.5148 445.5942 446.2303 446.7120 447.1427 447.9320 448.0563 448.6384
   449.4824 449.8790 450.0473 450.1845 450.2821 450.3639 450.4200 450.6168
   450.7056 451.1640 451.3999 451.8255 452.0285 452.6140 452.9745 454.2168
   454.7252 455.0176 455.7986 455.8266 456.0103 456.6897 456.9232 457.5199
   457.7066 458.1696 458.3240 458.4702 458.8197 459.2284 459.9547 460.4825
   460.7732 460.8580 461.2426 461.4104 461.4331 461.6308 461.7324 461.7410
   462.3137 462.3877 462.7604 463.1688 463.4204 464.0563 464.2642 464.6302
   465.2189 465.3527 466.0542 466.1146 466.4722 466.7867 466.8839 467.1695
   467.4260 467.6667 468.2697 468.3312 468.5875 469.3567 469.5058 469.7252
   470.0646 470.3857 470.6734 470.6957 470.7465 470.9732 471.3224 471.6650
   471.8317 472.0622 472.5001 472.6766 472.7763 473.4697 473.8053 474.0788
   474.1707 474.2720 474.5743 474.7789 475.3382 475.4606 475.7738 475.8186
   476.1306 476.1745 476.4182 477.3084 477.5072 477.7197 478.5088 478.5847
   479.0073 479.7315 479.7918 479.9697 480.2349 480.7304 480.9535 481.0796
   481.5654 482.0348 482.4513 482.6647 482.8827 483.3743 483.3893 483.7255
   484.4108 484.6288 485.1422 485.3245 485.7532 486.2949 486.4357 486.4521
   486.7680 486.8510 487.0516 487.5935 488.0537 488.3954 488.7607 489.0722
   489.2215 489.3214 489.5687 489.9958 490.2183 490.2215 490.8772 491.1555
   491.2152 491.2858 491.5196 491.9525 492.0740 492.4539 492.5024 492.7923
   493.2729 493.5377 493.6258 493.9310 494.5662 495.2132 495.5109 495.5673
   496.2641 496.4476 496.6579 496.8261 496.9084 497.5020 498.0300 498.1480
   498.3274 498.9516 499.0551 499.3329 499.8860 499.9761 500.3547 500.7365
   501.1423 501.4039 501.8805 501.9806 502.2721 502.2856 502.7929 502.8111
   503.0275 503.2529 503.4700 503.9849 505.0324 505.2268 505.4289 506.0688
   506.1470 507.6300 507.9047 508.3065 508.5322 508.5934 508.8800 508.9544
   509.4141 509.5192 510.0888 510.3567 510.6991 510.9866 511.3899 511.3913
   511.8468 511.8534 512.4255 512.4351 512.6306 512.9040 512.9406 513.0668
   513.3722 513.8899 514.0583 514.3119 514.3357 514.4120 514.6340 514.9549
   515.1925 515.2044 515.9023 515.9674 516.1932 516.3469 516.4015 516.7315
   517.1723 517.4671 517.9443 518.2620 518.3596 519.2860 519.5810 519.8163
   519.9425 520.3701 520.4280 520.4865 521.0237 521.2929 521.9024 522.1559
   522.6057 522.7177 522.9286 523.8739 523.9986 524.2198 524.3299 524.6266
   524.7253 525.1574 525.2442 525.5215 526.1445 526.4901 527.0835 527.2914

          k =-0.1667-0.4811 0.1559 (  2659 PWs)   bands (ev):

   -91.4173 -91.4170 -52.9437 -52.9414 -52.9295 -52.9287 -52.9266 -52.9252
    -3.7987  -3.2215   4.1490   4.7748   6.2255   7.0531   7.4673   8.3500
    15.0722  16.2929  17.9025  18.9111  20.0337  20.7959  21.8586  23.7802
    24.9740  25.8114  28.0053  29.1785  30.8969  32.1118  33.2761  34.1689
    35.0577  35.8598  36.5429  37.3806  38.6089  39.5913  40.7668  41.3912
    41.7933  42.7998  44.0990  45.0278  45.7475  47.1807  47.6011  48.6825
    50.1923  50.7956  51.4651  52.4985  52.8925  53.4818  54.5591  55.2704
    56.4909  57.3732  57.9525  59.5189  60.0841  60.8364  61.9482  63.6368
    64.3685  64.9149  65.7483  66.6288  67.1669  67.9983  69.1347  69.6378
    70.2926  70.7449  71.8672  73.5988  74.0131  75.0152  75.6002  76.0906
    76.8067  78.4957  79.3431  79.6720  80.9654  81.3646  81.9834  82.4540
    83.9908  84.6167  85.1569  85.8087  86.3231  86.7087  87.6187  88.7085
    89.4423  90.1971  90.8941  92.2226  92.6410  92.9426  93.5301  94.1550
    94.3324  95.4769  95.8347  96.5704  97.2303  98.1729  98.9241  99.5626
   100.0004 100.5435 101.4129 102.1677 102.7255 103.0946 103.6778 104.3350
   105.2226 105.7081 106.3854 106.8779 107.5449 108.5329 109.1625 109.6818
   110.2367 110.4742 111.3514 111.9860 112.9278 113.1607 113.8973 114.4060
   114.6278 115.4852 115.8282 116.3148 117.0303 117.6873 118.1036 118.5965
   119.0439 119.9717 120.4490 121.0974 121.8637 122.2952 122.6657 123.2749
   123.5751 124.9071 125.3047 126.1145 126.5335 127.0259 127.9290 128.6468
   128.9472 129.7515 130.2091 131.4210 131.5934 132.2176 133.1386 133.4836
   133.7263 134.3562 134.7065 135.1138 135.7716 136.2081 137.0621 137.3445
   138.1379 138.6485 139.1085 139.7244 140.6652 141.2162 141.4142 142.2138
   142.6245 143.3183 144.0482 144.6624 145.0992 145.7479 146.1854 146.6715
   147.5716 147.8259 148.2833 148.6578 149.1751 149.7274 150.6009 151.0203
   151.7151 152.6448 152.9024 154.2357 154.4380 155.0905 155.8711 156.2578
   157.0926 158.0689 158.4043 158.8284 159.2788 159.9228 160.3595 160.7105
   161.2588 161.8408 162.4909 163.1893 163.7513 164.1168 164.4413 165.6702
   166.4310 167.1284 167.8300 168.0927 168.8876 169.4594 169.6310 170.5723
   171.0143 171.3256 171.8511 172.2011 172.4743 173.7714 174.2282 174.4036
   174.8080 175.3614 175.7793 176.2146 176.9445 177.4150 177.9606 178.8545
   179.1773 179.8192 179.9757 180.4044 181.1638 181.7915 182.3013 182.7611
   182.9643 183.4883 183.8042 183.9879 184.9154 185.2762 185.7557 186.2103
   186.9493 187.3613 187.6835 188.2772 188.9042 189.4463 190.1750 190.6883
   191.0538 191.4460 192.1432 192.3025 192.9103 193.1299 193.6946 194.3307
   194.6514 195.3143 195.7449 196.4150 196.8031 197.1352 197.6445 198.2365
   198.3960 198.9071 199.1557 199.4801 200.1017 200.3764 201.1387 201.3282
   202.1241 202.2045 202.6793 203.1501 203.9766 204.1752 204.4189 204.8747
   205.7296 206.0399 206.7571 207.0201 207.3822 207.5768 208.3665 208.7859
   209.0112 209.5076 209.9092 210.1501 210.7759 211.1077 211.4152 211.8761
   212.7031 213.1312 213.5012 213.9421 214.3118 214.8613 215.3087 215.6419
   216.0915 216.8550 217.2757 217.7507 218.2848 218.6597 218.9708 219.7340
   219.8434 220.2110 220.5233 220.8787 221.0116 221.5285 221.7811 222.4762
   222.9103 223.3899 223.9801 224.5683 225.0639 225.1981 225.8710 226.1041
   226.5900 226.9780 227.2327 228.1105 228.1670 229.2174 229.5248 230.0539
   230.2368 230.9189 231.1197 231.4003 231.8972 232.4122 232.9928 233.4661
   233.9774 234.4976 235.0751 235.3167 235.7569 236.2076 236.3967 236.8231
   237.3643 237.7124 238.1291 238.5729 239.1482 239.7004 239.9895 240.2625
   240.6311 240.9683 241.5504 241.8280 242.4360 243.0132 243.2545 243.8806
   244.5765 244.9892 245.5289 245.7350 246.0815 246.7125 246.9416 247.5763
   248.0405 248.6151 249.1251 249.3900 250.0495 250.1660 250.4975 250.8644
   251.0849 251.8100 251.9517 252.5226 252.9558 253.4496 253.7524 254.7886
   255.2894 255.6200 255.8861 256.2675 257.0706 257.4963 257.9501 258.0349
   258.8298 258.9326 259.9729 260.1273 260.4539 260.8338 261.3402 261.6407
   262.1174 262.9242 263.0895 263.5271 263.7483 264.1372 265.0528 265.3023
   265.4403 266.3065 266.8341 267.1928 267.4602 268.1113 268.3066 268.8089
   269.5728 270.0679 270.2344 270.8178 271.0522 272.0275 272.1652 272.5776
   272.8637 273.1534 273.6049 273.8907 274.3549 274.6235 274.8964 275.2896
   275.7582 276.2288 276.5576 276.9555 277.4426 278.0603 278.5876 278.7094
   279.0022 279.3655 279.7813 280.1225 281.0583 281.3354 281.6296 281.9239
   282.5085 282.8319 283.5232 283.7520 284.2192 284.4943 285.0766 285.6977
   285.9602 286.2980 286.8513 287.4151 287.6190 288.3713 288.9865 289.6532
   289.7439 290.0486 290.3593 290.8934 292.0891 292.2063 292.5361 293.0450
   293.5663 294.2896 294.5660 295.0253 295.4845 295.8327 296.0707 296.4310
   296.9114 297.2345 297.5747 298.0031 298.4232 298.6152 298.9895 299.2639
   299.4730 299.8445 300.2479 300.7242 301.0468 301.5455 301.9985 302.3795
   302.6173 303.0476 303.4318 303.9255 304.4027 304.8693 305.2161 305.6362
   306.0609 306.8133 307.1182 307.5141 307.7751 308.1620 308.4744 308.8734
   309.1483 309.5200 309.7465 310.1017 310.6452 311.1455 311.6978 311.8353
   312.0488 312.6242 313.0119 313.7681 313.9539 314.2293 314.6500 315.0060
   315.4003 315.6844 316.2495 316.3364 317.1989 317.3884 317.8328 318.1607
   318.5788 318.8568 319.1910 319.3561 319.5953 320.0929 320.4965 320.6058
   321.3257 321.4846 321.7055 322.1185 322.3317 322.6485 323.1825 323.4612
   323.7840 324.1297 324.5190 325.0968 325.3725 325.6881 326.4372 326.7485
   326.8982 327.5075 327.7112 328.1261 328.4395 328.6779 328.9510 329.7305
   329.9269 330.3701 330.9655 331.2310 331.5976 331.7532 332.4405 332.7758
   332.8739 333.1065 333.5599 333.8642 334.2756 334.4715 334.5546 335.1411
   335.4147 335.6813 336.0393 336.1349 336.5819 337.4201 337.8813 338.2732
   338.5113 339.2689 339.3808 339.5674 339.8044 339.8539 340.4553 341.0850
   341.4121 341.9160 342.4665 342.8218 343.1764 343.4921 343.6363 343.9873
   344.2422 344.6241 344.8729 345.2010 345.5146 345.6717 346.0856 346.2027
   346.5386 346.9636 347.0907 347.4834 347.6671 347.8700 348.0821 348.6638
   348.7665 349.1053 349.2265 349.6568 349.9618 350.7453 351.0408 351.4780
   352.0126 352.6286 352.8894 353.2867 353.5983 354.1497 354.6113 354.8604
   355.1255 355.4959 355.5849 355.7296 356.0359 356.3932 356.7484 357.5033
   358.0683 358.1361 358.6304 358.8156 358.9847 359.5494 359.6468 359.9280
   360.1841 360.5153 361.0586 361.7542 361.9187 362.2525 362.4348 362.8842
   363.3378 363.7678 364.6197 364.7461 365.3975 365.6237 365.7193 365.8742
   366.1306 366.2624 366.5619 366.9188 367.1222 367.2883 368.0279 368.4184
   368.7888 368.9741 369.7130 369.8565 370.2278 370.6453 371.4276 371.6614
   371.9114 372.2694 372.5649 373.1855 373.4646 373.9408 374.3454 374.4478
   374.6790 374.9664 375.0398 375.3183 375.7279 376.0075 376.1382 376.2315
   376.4747 376.8290 377.3953 377.7468 378.1310 378.6362 379.0108 379.5591
   380.1396 380.5134 380.9612 381.7646 382.8085 383.0668 383.7960 383.9460
   384.3559 384.6971 384.8717 385.3194 385.4928 385.6835 385.8818 386.1162
   386.3080 386.7740 387.0454 387.2889 387.6793 387.8959 388.1585 388.3499
   388.6718 389.2327 389.6620 389.9151 390.0766 390.3544 390.6970 391.3258
   391.6081 391.7904 392.0808 392.8687 393.0300 393.6512 394.2346 394.6317
   394.7733 395.1603 395.3857 395.9590 396.1952 396.3477 396.4220 396.9224
   397.2919 397.5249 397.9199 398.2436 398.5351 398.6339 398.8362 399.4756
   399.6086 399.6860 400.1194 400.5509 400.8525 401.2487 401.6642 401.8928
   402.3502 402.9774 403.1102 403.4798 404.2159 404.5596 404.5813 404.9471
   405.2951 405.6700 405.9177 406.1639 406.4253 407.9108 408.0904 408.3867
   408.7449 409.6851 409.9736 410.4240 410.8943 411.1166 411.3567 411.7806
   412.0038 412.1196 412.8119 413.2684 413.6866 413.7904 414.1065 414.6967
   414.7362 415.1208 415.1675 415.5902 416.4047 416.9871 417.1680 417.3825
   417.7919 418.4923 418.8821 419.3848 419.6422 419.7650 420.1487 420.4156
   420.7471 420.9722 421.5608 421.6481 422.1098 422.5328 423.1883 423.3103
   423.5844 423.9986 424.1951 424.4374 425.0850 425.1500 425.4434 425.6330
   425.7883 426.1503 426.5132 426.8056 427.1136 427.3264 427.6716 427.9428
   428.2441 428.5133 428.6864 428.8338 429.2656 429.7864 430.6895 431.2005
   431.5281 431.9533 432.2086 432.5286 432.9679 433.2594 433.4722 433.9526
   434.3158 434.5518 434.9022 435.2488 435.5195 435.8403 436.2782 436.5201
   436.7827 436.9644 437.2505 437.5877 437.9032 438.5104 438.6027 438.8462
   439.2924 439.6579 439.8425 440.1099 440.6521 440.9657 441.3643 441.6618
   441.9517 442.4680 442.5879 442.7480 442.9874 443.3103 443.6819 444.1637
   444.5543 444.7026 444.9305 445.1556 445.6271 445.8483 446.5233 446.9574
   447.5598 447.9348 448.1017 448.4007 449.0016 449.2980 449.4392 449.8157
   449.8577 450.5404 450.6365 451.1426 451.3605 451.6081 451.8665 452.1408
   452.2979 452.5260 452.9951 453.5156 453.6402 453.8574 453.9942 454.4768
   454.9260 455.0823 455.6223 455.8628 456.1470 456.3998 456.6201 456.6978
   457.1969 457.6561 457.9448 458.0865 458.3243 458.6158 458.8450 459.4154
   459.9803 460.0751 460.3359 460.7291 461.0514 461.4991 461.9984 462.2121
   462.4923 462.9721 463.1914 463.3470 463.4396 463.8051 463.9490 464.0244
   464.2445 464.3662 465.0312 465.6290 465.8392 466.0324 466.6121 466.9701
   467.0585 467.5399 468.0077 468.7881 468.9199 469.5311 470.0336 470.3871
   470.6250 471.2110 471.4553 471.8274 472.0205 472.2388 472.5087 472.8465
   473.1064 473.4771 473.8344 474.1312 474.5531 474.8159 474.9731 475.3410
   475.6672 475.8143 475.9602 476.1851 476.5818 476.7586 477.3124 477.5056
   477.5310 477.9066 478.5593 478.7745 479.0337 479.5820 480.2969 480.4957
   480.5993 480.8648 481.1753 481.8139 482.1722 482.2936 482.5031 482.7751
   483.2139 483.5173 483.8904 483.9964 484.4704 484.6318 484.9773 485.1595
   485.9734 486.1484 486.5305 486.6862 487.1233 487.4190 487.8082 488.1227
   488.3155 488.6263 488.9956 489.2389 489.4336 489.6743 489.7662 490.0473
   490.3679 490.4179 490.6543 490.8624 491.0404 491.4709 491.7075 491.9883
   492.2036 492.5863 492.7782 493.0815 493.3882 493.5596 493.6536 494.2552
   494.4418 494.5471 494.8463 495.0203 495.3850 495.9088 496.0441 496.3739
   497.1229 497.6805 497.9150 498.1687 498.4370 498.7836 499.0282 499.5671
   499.8785 500.0619 500.2158 500.4856 500.7727 501.0919 501.3457 501.4050
   501.6743 501.9497 502.0988 502.5729 502.7455 502.8819 503.3245 503.5674
   503.7137 503.9230 504.2573 504.6627 504.9074 505.1383 505.4349 505.5280
   505.6652 505.7654 505.9489 506.4078 506.8421 507.2616 507.4224 507.6678
   508.2593 508.5494 508.7882 509.1204 509.2406 509.4426 509.6515 509.9382
   510.1543 510.2989 510.5060 510.7590 511.2204 511.3533 511.5181 511.8763
   511.9246 512.1214 512.4508 512.7530 513.4511 514.2096 514.2507 514.7466
   515.0540 515.1922 515.9684 516.6712 517.1060 517.6895 517.7657 517.9967
   518.3163 518.6957 518.9365 519.1143 519.5641 519.8871 520.2403 520.4845
   520.5892 520.6418 520.8451 521.0134 521.1959 521.3182 521.7153 521.8939
   522.7789 523.0410 523.3137 523.4365 523.6568 524.0407 524.2190 524.7193
   525.1596 525.3182 525.8170 526.0782 526.2104 526.3310 526.7170 527.1859

     the Fermi energy is    11.0762 ev
     (compare with:    11.2492 eV, computed in scf)

     Writing all to output data dir out/mp-661.save/
 
     init_run     :      0.02s CPU      0.02s WALL (       1 calls)
     electrons    :    698.03s CPU    754.58s WALL (       1 calls)

     Called by init_run:
     wfcinit      :      0.00s CPU      0.00s WALL (       1 calls)
     potinit      :      0.00s CPU      0.01s WALL (       1 calls)
     hinit0       :      0.01s CPU      0.01s WALL (       1 calls)

     Called by electrons:
     c_bands      :    698.02s CPU    754.54s WALL (       1 calls)
     v_of_rho     :      0.00s CPU      0.00s WALL (       1 calls)

     Called by c_bands:
     init_us_2    :      0.00s CPU      0.00s WALL (      24 calls)
     init_us_2:cp :      0.00s CPU      0.00s WALL (      24 calls)
     cegterg      :    675.58s CPU    730.28s WALL (      24 calls)

     Called by *egterg:
     cdiaghg      :    635.48s CPU    687.18s WALL (     148 calls)
     h_psi        :     13.20s CPU     14.28s WALL (     172 calls)
     g_psi        :      0.07s CPU      0.08s WALL (     124 calls)

     Called by h_psi:
     h_psi:calbec :      0.28s CPU      0.30s WALL (     172 calls)
     vloc_psi     :     12.56s CPU     13.62s WALL (     172 calls)
     add_vuspsi   :      0.20s CPU      0.20s WALL (     172 calls)

     General routines
     calbec       :      0.28s CPU      0.30s WALL (     172 calls)
     fft          :      0.00s CPU      0.00s WALL (      10 calls)
     fftw         :     11.41s CPU     12.37s WALL (  311794 calls)
 
     Parallel routines
 
     PWSCF        :  11m40.68s CPU  12m40.16s WALL

 
   This run was terminated on:   2:47: 9   5Dec2023            

=------------------------------------------------------------------------------=
   JOB DONE.
=------------------------------------------------------------------------------=
