
     Program PWSCF v.7.1 starts on  5Dec2023 at  1:32:15 

     This program is part of the open-source Quantum ESPRESSO suite
     for quantum simulation of materials; please cite
         "P. Giannozzi et al., J. Phys.:Condens. Matter 21 395502 (2009);
         "P. Giannozzi et al., J. Phys.:Condens. Matter 29 465901 (2017);
         "P. Giannozzi et al., J. Chem. Phys. 152 154105 (2020);
          URL http://www.quantum-espresso.org", 
     in publications or presentations arising from this work. More details at
     http://www.quantum-espresso.org/quote

     Parallel version (MPI), running on     8 processors

     MPI processes distributed on     1 nodes
     122102 MiB available memory on the printing compute node when the environment starts
 
     Reading input from pw_mp-661_nscf_k0_E67.in
Warning: card &IONS ignored
Warning: card / ignored
Warning: card &CELL ignored
Warning: card / ignored

     Current dimensions of program PWSCF are:
     Max number of different atomic species (ntypx) = 10
     Max number of k-points (npk) =  40000
     Max angular momentum in pseudopotentials (lmaxx) =  4

     Atomic positions and unit cell read from directory:
     out/mp-661.save/
     Atomic positions from file used, from input discarded
 
 
     R & G space division:  proc/nbgrp/npool/nimage =       8
     Subspace diagonalization in iterative solution of the eigenvalue problem:
     one sub-group per band group will be used
     scalapack distributed-memory algorithm (size of sub-group:  2*  2 procs)

 
     Parallelization info
     --------------------
     sticks:   dense  smooth     PW     G-vecs:    dense   smooth      PW
     Min          81      81     20                 2665     2665     334
     Max          82      82     21                 2672     2672     339
     Sum         649     649    163                21337    21337    2683
 
     Using Slab Decomposition
 


     bravais-lattice index     =            4
     lattice parameter (alat)  =       5.9122  a.u.
     unit-cell volume          =     286.9883 (a.u.)^3
     number of atoms/cell      =            4
     number of atomic types    =            2
     number of electrons       =        32.00
     number of Kohn-Sham states=         1008
     kinetic-energy cutoff     =      67.0000  Ry
     charge density cutoff     =     268.0000  Ry
     Exchange-correlation= PBE
                           (   1   4   3   4   0   0   0)

     celldm(1)=   5.912174  celldm(2)=   0.000000  celldm(3)=   1.603584
     celldm(4)=   0.000000  celldm(5)=   0.000000  celldm(6)=   0.000000

     crystal axes: (cart. coord. in units of alat)
               a(1) = (   1.000000   0.000000   0.000000 )  
               a(2) = (  -0.500000   0.866025   0.000000 )  
               a(3) = (   0.000000   0.000000   1.603584 )  

     reciprocal axes: (cart. coord. in units 2 pi/alat)
               b(1) = (  1.000000  0.577350  0.000000 )  
               b(2) = (  0.000000  1.154701  0.000000 )  
               b(3) = (  0.000000  0.000000  0.623603 )  


     PseudoPot. # 1 for Al read from file:
     /usr/scratch4/magr4985/MG/HTDF/pseudo/SG15/Al.upf
     MD5 check sum: 2d9e7bc02555220d62fad08c3c4858e7
     Pseudo is Norm-conserving, Zval = 11.0
     Generated using ONCVPSP code by D. R. Hamann
     Using radial grid of  602 points,  4 beta functions with: 
                l(1) =   0
                l(2) =   0
                l(3) =   1
                l(4) =   1

     PseudoPot. # 2 for N  read from file:
     /usr/scratch4/magr4985/MG/HTDF/pseudo/SG15/N.upf
     MD5 check sum: c233fa8df51455e992258b7c3dee8a9f
     Pseudo is Norm-conserving, Zval =  5.0
     Generated using ONCVPSP code by D. R. Hamann
     Using radial grid of  602 points,  4 beta functions with: 
                l(1) =   0
                l(2) =   0
                l(3) =   1
                l(4) =   1

     atomic species   valence    mass     pseudopotential
        Al            11.00    26.98150     Al( 1.00)
        N              5.00    14.00670     N ( 1.00)

      6 Sym. Ops. (no inversion) found



   Cartesian axes

     site n.     atom                  positions (alat units)
         1           Al  tau(   1) = (   0.0000000   0.5773502   0.8006489  )
         2           Al  tau(   2) = (   0.5000000   0.2886752   1.6024411  )
         3           N   tau(   3) = (   0.0000000   0.5773502   1.4122977  )
         4           N   tau(   4) = (   0.5000000   0.2886752   0.6105055  )

     number of k points=     1  Gaussian smearing, width (Ry)=  0.0005
                       cart. coord. in units 2pi/alat
        k(    1) = (   0.0000000   0.0000000   0.0000000), wk =   2.0000000

     Dense  grid:    21337 G-vectors     FFT dimensions: (  32,  32,  50)

     Estimated max dynamical RAM per process >      74.39 MB

     Estimated total dynamical RAM >     595.08 MB

     The potential is recalculated from file :
     out/mp-661.save/charge-density

     Starting wfcs are random

     Band Structure Calculation
     Davidson diagonalization with overlap

     ethr =  5.00E-06,  avg # of iterations =  7.0

     total cpu time spent up to now is       70.6 secs

     End of band structure calculation

          k = 0.0000 0.0000 0.0000 (  2683 PWs)   bands (ev):

   -91.4185 -91.4173 -52.9479 -52.9380 -52.9242 -52.9242 -52.9225 -52.9225
    -5.7772  -3.6814   3.3616   8.4315   8.4315   9.0774   9.0774   9.2758
    13.3381  15.8180  19.7270  20.3531  20.3531  22.2067  22.2940  22.2940
    23.7673  23.7673  23.9846  26.5675  26.5675  28.5347  31.3723  31.9497
    31.9497  33.1433  36.2154  36.2154  38.4588  40.3783  40.4330  40.4330
    43.3526  43.3526  45.6599  45.6599  46.2818  47.5742  47.6667  47.6667
    49.3360  51.3996  54.0473  54.0473  56.6246  56.6246  58.0789  61.1418
    61.5782  63.4350  63.4350  63.7908  64.7685  64.7685  65.3620  65.3620
    66.1983  66.1983  67.6358  69.2785  70.5234  70.9441  71.0507  71.0507
    72.3004  72.3004  72.4369  72.4369  74.3832  74.3832  74.8982  76.0274
    76.7083  76.7083  77.4652  77.4652  77.7043  80.5769  80.9606  80.9606
    81.4296  81.4296  81.5869  81.5869  82.4702  82.5837  83.1870  83.3069
    83.4298  83.4298  86.2876  86.2876  86.3807  87.0097  87.8251  90.0426
    90.1843  90.1843  90.8187  90.8187  93.4578  98.0193  98.0193  99.6657
    99.6657  99.7538 100.3445 100.3445 101.5261 101.5261 101.6301 103.1338
   103.3372 108.3481 108.7220 108.7220 109.1926 109.1926 109.5423 109.5423
   110.8637 110.9380 110.9380 111.3120 111.3529 111.3529 112.3171 112.7931
   112.8905 112.8905 113.3313 113.3313 116.3956 116.3956 118.3923 121.3407
   121.4535 121.4535 122.4791 126.9124 127.1166 127.1166 129.0751 129.0751
   129.4597 129.4597 129.8697 129.8697 132.0997 132.3451 132.7117 132.9020
   133.0075 133.0075 134.1941 134.1941 134.5397 135.1236 135.5544 138.1423
   138.1922 138.9738 138.9738 140.4558 140.4558 140.9306 140.9565 140.9565
   142.9806 143.4056 143.4056 143.8894 144.6561 144.6561 144.6925 145.3142
   145.3142 146.8600 146.9687 147.5954 147.5954 148.0322 148.0322 150.1312
   150.1312 150.2958 150.4710 150.4710 150.8766 151.2084 151.8357 151.8357
   152.3014 152.3014 153.7608 153.8768 153.8768 154.4193 154.4193 154.5493
   154.6126 158.6132 158.6132 159.0234 159.6942 161.0810 161.2570 161.2570
   161.8100 162.8751 162.8751 163.0042 163.1591 163.1591 163.1733 163.1733
   163.9307 164.3390 164.7418 164.7419 165.3124 165.3124 165.8193 165.8193
   166.1391 166.4118 167.4558 167.4558 168.0716 168.0716 168.6700 168.6700
   171.6728 171.9312 171.9312 172.1103 172.1103 172.1888 172.8198 173.0016
   173.0016 174.5098 174.5098 175.2070 176.1527 177.4896 177.9134 177.9134
   178.4889 179.4739 179.4739 179.5711 180.8662 181.7079 181.7079 183.1619
   183.1619 184.8163 186.2368 186.2368 187.5177 187.5177 187.6490 187.7529
   187.7529 188.3818 189.1563 189.6034 189.6034 190.0305 190.8174 190.8174
   191.5665 191.8357 191.8357 191.9560 194.1790 194.7567 194.7567 195.0001
   195.0001 195.6524 195.8601 196.0371 197.2882 197.4692 197.4692 198.2199
   198.3789 198.3789 199.9014 199.9014 201.0924 201.0924 201.5906 201.6487
   202.9421 202.9421 203.5430 205.4465 205.4465 205.4672 205.4672 207.1428
   207.7147 207.7147 208.3040 208.3253 213.0790 214.7606 214.7606 214.8709
   215.3958 215.3958 216.5664 219.3732 219.3732 220.6605 221.3285 221.3285
   221.4957 221.4957 221.9493 223.0964 224.5341 224.5341 224.9744 224.9744
   225.5043 225.5043 225.8452 225.9375 225.9375 228.6870 228.6870 228.9856
   229.1138 229.1138 229.2628 229.7327 230.2633 230.2633 230.3748 231.2602
   231.2602 231.2670 231.7913 231.8908 231.9347 231.9347 232.2152 232.2152
   232.8050 232.8050 232.9195 232.9195 233.1070 234.1018 234.4481 234.4846
   234.4846 234.6076 234.6076 235.7896 235.8870 235.8870 236.5041 236.5041
   236.6952 236.6952 236.8123 236.8123 237.3774 237.3835 237.7196 238.2150
   239.9895 240.7282 240.7282 242.4564 242.4564 246.6979 246.6979 247.3466
   248.1564 249.6710 250.2784 250.2784 252.0579 252.0579 252.7772 252.9796
   252.9796 254.2030 255.5367 255.6001 256.0323 257.9290 257.9290 258.0908
   258.3241 258.3241 260.0073 260.2486 260.2486 260.7220 260.7220 261.0175
   261.1587 261.2712 261.2712 261.9303 261.9303 263.0343 263.4007 263.4007
   263.4812 263.4812 263.8935 264.5152 265.8051 265.8051 265.9893 265.9893
   266.3649 266.3649 266.6254 266.6254 266.7316 266.9715 267.7898 267.7898
   268.0226 268.0526 268.5603 269.2261 269.7760 269.7760 270.2292 270.2292
   270.6569 270.6569 271.3086 271.3957 271.3957 271.6658 271.6658 272.1757
   272.1757 272.2724 272.5462 272.5462 273.3347 273.7473 273.7864 273.8580
   274.1444 275.0084 275.2613 275.2613 276.0085 276.0085 276.3800 278.6579
   278.6579 278.9611 278.9611 280.1780 280.4320 280.4320 280.5102 280.5102
   281.0710 281.3587 281.3587 281.3750 282.7526 282.7526 283.2854 283.6750
   283.7800 284.1185 284.1185 284.8122 284.8122 284.9304 284.9304 285.2890
   285.3968 285.9129 285.9129 286.2994 287.2766 287.2766 287.7737 287.7955
   287.9370 288.0130 288.0130 288.4253 289.1153 289.1153 289.1192 289.3900
   289.3900 289.8785 289.8785 290.5879 290.5879 290.7703 290.8165 291.0831
   291.7165 291.7165 292.1628 292.1870 292.1870 292.1950 292.8204 292.8204
   292.8537 292.8537 293.3014 293.3014 293.5986 293.5986 293.7593 293.9071
   294.2489 294.5812 298.6149 299.5536 299.5536 304.1861 304.1861 305.2958
   305.2958 305.5243 305.7237 305.7237 306.1089 306.1089 307.4730 308.8225
   308.8225 308.8568 310.6517 310.6517 310.7262 310.7262 311.0827 311.9313
   312.7193 313.7200 314.2303 314.5244 314.5244 315.6705 315.6705 316.1221
   316.1221 316.6670 316.6670 316.8073 316.8073 317.4163 317.4341 317.4341
   317.6280 318.5469 319.0122 319.0122 319.3052 319.4557 319.4557 320.1060
   322.3090 322.5444 322.5444 322.6379 323.0603 323.1382 323.1382 325.5269
   325.5269 325.9977 325.9977 326.5214 326.8555 327.2643 328.9813 328.9813
   329.4315 329.5536 329.5536 330.0645 330.0645 331.7757 331.9837 331.9960
   331.9960 332.1564 332.1564 332.8986 332.8986 333.1670 333.1834 333.1834
   333.4498 337.0885 337.0885 337.5162 337.6752 339.9753 341.1552 341.1552
   341.2612 341.2612 342.8686 342.8686 343.1328 343.2918 343.9682 343.9682
   344.4108 344.4109 345.0919 345.0919 345.1122 345.3621 346.1395 346.1395
   347.1675 347.1675 347.3453 348.2962 348.4076 348.6132 350.6657 350.8211
   350.8211 351.0150 351.0150 351.4049 351.4049 351.4188 351.4188 351.5875
   352.0012 352.0012 352.0110 352.0110 353.3339 353.3802 353.3810 354.1506
   354.1506 354.1684 354.2427 354.2427 356.1201 356.3168 356.3514 356.3514
   356.4056 356.4056 356.5283 356.9867 356.9867 357.0493 357.4221 357.4391
   357.4729 357.4729 358.5952 358.5952 358.7999 358.7999 359.1564 359.3553
   361.5368 361.5368 363.0433 364.6094 364.6094 365.2921 365.2921 366.7749
   366.7749 367.7561 369.1021 369.3660 369.3660 369.6094 369.6094 369.6250
   369.6250 370.1998 370.6938 370.7633 370.7633 371.1555 371.2334 371.2334
   371.5256 372.6910 372.8970 372.8970 372.9497 373.0237 374.0498 374.1971
   374.4924 374.4924 374.8518 374.8518 375.0292 378.4727 378.9315 378.9315
   379.5728 380.0624 380.0624 382.2194 382.2194 382.2213 384.1728 384.4890
   384.4890 384.9474 385.1528 385.1528 385.2731 385.3057 385.3057 385.9628
   386.2755 386.2755 386.6260 386.6559 386.6559 386.8864 387.1898 388.7502
   388.7502 389.0200 389.0773 389.0773 390.8741 390.8868 390.8868 391.0426
   391.0426 391.1169 391.5643 391.5643 391.7277 391.7277 392.3695 392.6074
   392.6405 394.7033 394.7033 394.8813 394.8813 394.9863 394.9863 395.0171
   395.0171 395.2420 395.2572 395.6360 395.6360 396.6164 397.6861 397.6862
   398.7207 398.7207 399.5577 400.2221 400.4667 400.4667 400.5281 400.5281
   401.8677 401.8677 402.0702 402.1513 402.1513 402.3909 403.6858 403.9529
   403.9529 404.3285 404.3285 404.5543 404.5687 404.5687 406.3478 406.5805
   406.8180 407.6553 407.8383 408.0643 408.0781 408.0781 408.9141 408.9141
   408.9258 408.9258 409.5015 409.5015 409.8105 410.8337 410.8337 411.3302
   411.5025 411.5025 411.5541 412.4077 412.4077 412.5308 412.5308 412.6293
   412.6293 413.2210 413.2450 413.6813 413.6813 413.8530 414.3930 415.0895
   415.0895 415.2602 415.2602 416.1345 416.1345 416.2272 416.5117 416.5117
   416.6255 416.9624 418.8106 418.8763 419.8132 419.8132 419.9815 420.2092
   420.2092 420.6022 420.6022 421.0064 421.0064 421.0522 422.1568 423.6386
   423.6386 423.7735 423.9210 423.9210 424.2981 424.2981 424.9354 424.9354
   425.2819 425.4517 426.3286 427.1459 427.6470 427.6470 427.6474 427.6474
   428.0408 428.0930 428.1554 428.6075 428.6075 428.9935 429.4071 429.4071
   430.4055 430.5673 430.5673 430.8082 430.8082 431.0281 431.0281 431.0293
   431.6025 431.6025 431.9266 431.9691 431.9691 432.2882 432.2931 432.2931
   432.4972 433.0677 433.0677 433.4006 433.4006 433.7601 433.9460 433.9460
   434.0200 434.0200 434.1352 434.8315 434.8315 434.9995 435.0474 435.5343
   435.5343 435.8643 435.8878 437.1004 438.1115 438.1115 438.3606 438.3606
   438.6232 438.6232 439.2515 439.2515 439.3198 439.3198 439.4483 439.4483
   439.4885 439.8460 439.8766 439.8766 439.8914 441.7487 441.7503 442.8185
   442.8185 443.6887 444.9108 445.4072 445.4072 445.6980 446.2212 446.2212
   446.8691 447.7072 449.2552 449.6033 449.6033 450.1279 450.1279 450.3351
   450.4693 450.6039 450.6039 451.0962 451.0962 451.1752 451.3944 451.4374
   451.6353 451.6354 451.8418 451.8418 452.0206 452.0206 452.4059 452.4059
   453.4572 453.5507 453.7505 453.7505 454.0658 454.0658 455.7571 456.8602
   458.7561 458.7561 458.7806 458.7806 459.5547 459.5547 460.4222 460.6488
   461.1170 461.1170 462.8180 463.9087 463.9087 464.0219 464.0219 464.3045
   464.3045 464.6758 465.5419 466.2535 467.5669 467.5669 468.0497 468.0497

     the Fermi energy is    11.2568 ev
     (compare with:    11.2568 eV, computed in scf)

     Writing all to output data dir out/mp-661.save/
 
     init_run     :      0.03s CPU      0.04s WALL (       1 calls)
     electrons    :     65.32s CPU     70.43s WALL (       1 calls)

     Called by init_run:
     wfcinit      :      0.00s CPU      0.00s WALL (       1 calls)
     potinit      :      0.01s CPU      0.01s WALL (       1 calls)
     hinit0       :      0.01s CPU      0.01s WALL (       1 calls)

     Called by electrons:
     c_bands      :     65.31s CPU     70.43s WALL (       1 calls)
     v_of_rho     :      0.00s CPU      0.01s WALL (       1 calls)

     Called by c_bands:
     init_us_2    :      0.00s CPU      0.00s WALL (       1 calls)
     init_us_2:cp :      0.00s CPU      0.00s WALL (       1 calls)
     cegterg      :     63.82s CPU     68.82s WALL (       1 calls)

     Called by *egterg:
     cdiaghg      :     60.91s CPU     65.82s WALL (       8 calls)
     h_psi        :      0.72s CPU      0.76s WALL (       9 calls)
     g_psi        :      0.01s CPU      0.01s WALL (       7 calls)

     Called by h_psi:
     h_psi:calbec :      0.02s CPU      0.03s WALL (       9 calls)
     vloc_psi     :      0.67s CPU      0.71s WALL (       9 calls)
     add_vuspsi   :      0.02s CPU      0.02s WALL (       9 calls)

     General routines
     calbec       :      0.02s CPU      0.03s WALL (       9 calls)
     fft          :      0.00s CPU      0.01s WALL (      10 calls)
     fftw         :      0.58s CPU      0.61s WALL (   11650 calls)
 
     Parallel routines
 
     PWSCF        :   1m 5.53s CPU   1m10.71s WALL

 
   This run was terminated on:   1:33:26   5Dec2023            

=------------------------------------------------------------------------------=
   JOB DONE.
=------------------------------------------------------------------------------=
