
     Program PWSCF v.7.1 starts on  7Dec2023 at 22:10:46 

     This program is part of the open-source Quantum ESPRESSO suite
     for quantum simulation of materials; please cite
         "P. Giannozzi et al., J. Phys.:Condens. Matter 21 395502 (2009);
         "P. Giannozzi et al., J. Phys.:Condens. Matter 29 465901 (2017);
         "P. Giannozzi et al., J. Chem. Phys. 152 154105 (2020);
          URL http://www.quantum-espresso.org", 
     in publications or presentations arising from this work. More details at
     http://www.quantum-espresso.org/quote

     Parallel version (MPI), running on    24 processors

     MPI processes distributed on     1 nodes
     121834 MiB available memory on the printing compute node when the environment starts
 
     Reading input from pw_mp-422_scf_k3000_E107.in
Warning: card &CELL ignored
Warning: card / ignored

     Current dimensions of program PWSCF are:
     Max number of different atomic species (ntypx) = 10
     Max number of k-points (npk) =  40000
     Max angular momentum in pseudopotentials (lmaxx) =  4
 
     K-points division:     npool     =       2
     R & G space division:  proc/nbgrp/npool/nimage =      12
     Subspace diagonalization in iterative solution of the eigenvalue problem:
     a serial algorithm will be used

 
     Parallelization info
     --------------------
     sticks:   dense  smooth     PW     G-vecs:    dense   smooth      PW
     Min         104     104     30                 2426     2426     386
     Max         106     106     31                 2428     2428     389
     Sum        1261    1261    367                29123    29123    4645
 
     Using Slab Decomposition
 


     bravais-lattice index     =            2
     lattice parameter (alat)  =       9.2035  a.u.
     unit-cell volume          =     194.8967 (a.u.)^3
     number of atoms/cell      =            2
     number of atomic types    =            2
     number of electrons       =        10.00
     number of Kohn-Sham states=           10
     kinetic-energy cutoff     =     107.0000  Ry
     charge density cutoff     =     428.0000  Ry
     scf convergence threshold =      1.0E-10
     mixing beta               =       0.7000
     number of iterations used =            8  plain     mixing
     Exchange-correlation= PBE
                           (   1   4   3   4   0   0   0)

     celldm(1)=   9.203539  celldm(2)=   0.000000  celldm(3)=   0.000000
     celldm(4)=   0.000000  celldm(5)=   0.000000  celldm(6)=   0.000000

     crystal axes: (cart. coord. in units of alat)
               a(1) = (  -0.500000   0.000000   0.500000 )  
               a(2) = (   0.000000   0.500000   0.500000 )  
               a(3) = (  -0.500000   0.500000   0.000000 )  

     reciprocal axes: (cart. coord. in units 2 pi/alat)
               b(1) = ( -1.000000 -1.000000  1.000000 )  
               b(2) = (  1.000000  1.000000  1.000000 )  
               b(3) = ( -1.000000  1.000000 -1.000000 )  


     PseudoPot. # 1 for Be read from file:
     /usr/scratch4/magr4985/MG/HTDF/pseudo/SG15/Be.upf
     MD5 check sum: dc1f98d164da9dc61a6fd2fad64b4ce2
     Pseudo is Norm-conserving, Zval =  4.0
     Generated using ONCVPSP code by D. R. Hamann
     Using radial grid of  602 points,  4 beta functions with: 
                l(1) =   0
                l(2) =   0
                l(3) =   1
                l(4) =   1

     PseudoPot. # 2 for S  read from file:
     /usr/scratch4/magr4985/MG/HTDF/pseudo/SG15/S.upf
     MD5 check sum: f9d020296ee6110346977bfd66d424f6
     Pseudo is Norm-conserving, Zval =  6.0
     Generated using ONCVPSP code by D. R. Hamann
     Using radial grid of  602 points,  4 beta functions with: 
                l(1) =   0
                l(2) =   0
                l(3) =   1
                l(4) =   1

     atomic species   valence    mass     pseudopotential
        Be             4.00     9.01220     Be( 1.00)
        S              6.00    32.06500     S ( 1.00)

     24 Sym. Ops. (no inversion) found



   Cartesian axes

     site n.     atom                  positions (alat units)
         1           Be  tau(   1) = (   0.0000000   0.0000000   0.0000000  )
         2           S   tau(   2) = (  -0.7500000   0.7500000   0.7500000  )

     number of k points=    72  Gaussian smearing, width (Ry)=  0.0005
                       cart. coord. in units 2pi/alat
        k(    1) = (   0.0000000   0.0000000   0.0000000), wk =   0.0011574
        k(    2) = (  -0.0833333   0.0833333  -0.0833333), wk =   0.0092593
        k(    3) = (  -0.1666667   0.1666667  -0.1666667), wk =   0.0092593
        k(    4) = (  -0.2500000   0.2500000  -0.2500000), wk =   0.0092593
        k(    5) = (  -0.3333333   0.3333333  -0.3333333), wk =   0.0092593
        k(    6) = (  -0.4166667   0.4166667  -0.4166667), wk =   0.0092593
        k(    7) = (   0.5000000  -0.5000000   0.5000000), wk =   0.0046296
        k(    8) = (   0.0000000   0.1666667   0.0000000), wk =   0.0069444
        k(    9) = (  -0.0833333   0.2500000  -0.0833333), wk =   0.0277778
        k(   10) = (  -0.1666667   0.3333333  -0.1666667), wk =   0.0277778
        k(   11) = (  -0.2500000   0.4166667  -0.2500000), wk =   0.0277778
        k(   12) = (  -0.3333333   0.5000000  -0.3333333), wk =   0.0277778
        k(   13) = (   0.5833333  -0.4166667   0.5833333), wk =   0.0277778
        k(   14) = (   0.5000000  -0.3333333   0.5000000), wk =   0.0277778
        k(   15) = (   0.4166667  -0.2500000   0.4166667), wk =   0.0277778
        k(   16) = (   0.3333333  -0.1666667   0.3333333), wk =   0.0277778
        k(   17) = (   0.2500000  -0.0833333   0.2500000), wk =   0.0277778
        k(   18) = (   0.1666667  -0.0000000   0.1666667), wk =   0.0138889
        k(   19) = (   0.0000000   0.3333333   0.0000000), wk =   0.0069444
        k(   20) = (  -0.0833333   0.4166667  -0.0833333), wk =   0.0277778
        k(   21) = (  -0.1666667   0.5000000  -0.1666667), wk =   0.0277778
        k(   22) = (  -0.2500000   0.5833333  -0.2500000), wk =   0.0277778
        k(   23) = (   0.6666667  -0.3333333   0.6666667), wk =   0.0277778
        k(   24) = (   0.5833333  -0.2500000   0.5833333), wk =   0.0277778
        k(   25) = (   0.5000000  -0.1666667   0.5000000), wk =   0.0277778
        k(   26) = (   0.4166667  -0.0833333   0.4166667), wk =   0.0277778
        k(   27) = (   0.3333333   0.0000000   0.3333333), wk =   0.0138889
        k(   28) = (   0.0000000   0.5000000   0.0000000), wk =   0.0069444
        k(   29) = (  -0.0833333   0.5833333  -0.0833333), wk =   0.0277778
        k(   30) = (  -0.1666667   0.6666667  -0.1666667), wk =   0.0277778
        k(   31) = (   0.7500000  -0.2500000   0.7500000), wk =   0.0277778
        k(   32) = (   0.6666667  -0.1666667   0.6666667), wk =   0.0277778
        k(   33) = (   0.5833333  -0.0833333   0.5833333), wk =   0.0277778
        k(   34) = (   0.5000000   0.0000000   0.5000000), wk =   0.0138889
        k(   35) = (   0.0000000   0.6666667   0.0000000), wk =   0.0069444
        k(   36) = (  -0.0833333   0.7500000  -0.0833333), wk =   0.0277778
        k(   37) = (   0.8333333  -0.1666667   0.8333333), wk =   0.0277778
        k(   38) = (   0.7500000  -0.0833333   0.7500000), wk =   0.0277778
        k(   39) = (   0.6666667  -0.0000000   0.6666667), wk =   0.0138889
        k(   40) = (   0.0000000   0.8333333   0.0000000), wk =   0.0069444
        k(   41) = (   0.9166667  -0.0833333   0.9166667), wk =   0.0277778
        k(   42) = (   0.8333333   0.0000000   0.8333333), wk =   0.0138889
        k(   43) = (   0.0000000  -1.0000000   0.0000000), wk =   0.0034722
        k(   44) = (  -0.1666667   0.3333333   0.0000000), wk =   0.0277778
        k(   45) = (  -0.2500000   0.4166667  -0.0833333), wk =   0.0555556
        k(   46) = (  -0.3333333   0.5000000  -0.1666667), wk =   0.0555556
        k(   47) = (   0.5833333  -0.4166667   0.7500000), wk =   0.0555556
        k(   48) = (   0.5000000  -0.3333333   0.6666667), wk =   0.0277778
        k(   49) = (  -0.1666667   0.5000000   0.0000000), wk =   0.0277778
        k(   50) = (  -0.2500000   0.5833333  -0.0833333), wk =   0.0555556
        k(   51) = (   0.6666667  -0.3333333   0.8333333), wk =   0.0555556
        k(   52) = (   0.5833333  -0.2500000   0.7500000), wk =   0.0555556
        k(   53) = (   0.5000000  -0.1666667   0.6666667), wk =   0.0555556
        k(   54) = (   0.4166667  -0.0833333   0.5833333), wk =   0.0555556
        k(   55) = (   0.3333333   0.0000000   0.5000000), wk =   0.0277778
        k(   56) = (  -0.1666667   0.6666667  -0.0000000), wk =   0.0277778
        k(   57) = (   0.7500000  -0.2500000   0.9166667), wk =   0.0555556
        k(   58) = (   0.6666667  -0.1666667   0.8333333), wk =   0.0555556
        k(   59) = (   0.5833333  -0.0833333   0.7500000), wk =   0.0555556
        k(   60) = (   0.5000000   0.0000000   0.6666667), wk =   0.0277778
        k(   61) = (   0.8333333  -0.1666667   1.0000000), wk =   0.0277778
        k(   62) = (   0.7500000  -0.0833333   0.9166667), wk =   0.0555556
        k(   63) = (   0.6666667   0.0000000   0.8333333), wk =   0.0277778
        k(   64) = (  -0.1666667  -1.0000000  -0.0000000), wk =   0.0138889
        k(   65) = (   0.6666667  -0.3333333   1.0000000), wk =   0.0277778
        k(   66) = (   0.5833333  -0.2500000   0.9166667), wk =   0.0555556
        k(   67) = (   0.5000000  -0.1666667   0.8333333), wk =   0.0277778
        k(   68) = (   0.6666667  -0.1666667   1.0000000), wk =   0.0277778
        k(   69) = (   0.5833333  -0.0833333   0.9166667), wk =   0.0555556
        k(   70) = (   0.5000000   0.0000000   0.8333333), wk =   0.0277778
        k(   71) = (  -0.3333333  -1.0000000   0.0000000), wk =   0.0138889
        k(   72) = (  -0.5000000  -1.0000000   0.0000000), wk =   0.0069444

     Dense  grid:    29123 G-vectors     FFT dimensions: (  45,  45,  45)

     Estimated max dynamical RAM per process >       2.91 MB

     Estimated total dynamical RAM >      62.82 MB

     Initial potential from superposition of free atoms

     starting charge       9.9648, renormalised to      10.0000
     Starting wfcs are random

     total cpu time spent up to now is        0.3 secs

     Self-consistent Calculation

     iteration #  1     ecut=   107.00 Ry     beta= 0.70
     Davidson diagonalization with overlap
     ethr =  1.00E-02,  avg # of iterations =  8.2

     Threshold (ethr) on eigenvalues was too large:
     Diagonalizing with lowered threshold

     Davidson diagonalization with overlap
     ethr =  4.09E-04,  avg # of iterations =  2.1

     total cpu time spent up to now is        1.4 secs

     total energy              =     -47.21477516 Ry
     estimated scf accuracy    <       0.04215257 Ry

     iteration #  2     ecut=   107.00 Ry     beta= 0.70
     Davidson diagonalization with overlap
     ethr =  4.22E-04,  avg # of iterations =  1.0

     total cpu time spent up to now is        1.8 secs

     total energy              =     -47.21819855 Ry
     estimated scf accuracy    <       0.00247227 Ry

     iteration #  3     ecut=   107.00 Ry     beta= 0.70
     Davidson diagonalization with overlap
     ethr =  2.47E-05,  avg # of iterations =  4.1

     total cpu time spent up to now is        2.3 secs

     total energy              =     -47.21863728 Ry
     estimated scf accuracy    <       0.00026793 Ry

     iteration #  4     ecut=   107.00 Ry     beta= 0.70
     Davidson diagonalization with overlap
     ethr =  2.68E-06,  avg # of iterations =  3.4

     total cpu time spent up to now is        2.8 secs

     total energy              =     -47.21868537 Ry
     estimated scf accuracy    <       0.00000421 Ry

     iteration #  5     ecut=   107.00 Ry     beta= 0.70
     Davidson diagonalization with overlap
     ethr =  4.21E-08,  avg # of iterations =  2.6

     total cpu time spent up to now is        3.2 secs

     total energy              =     -47.21868705 Ry
     estimated scf accuracy    <       0.00000007 Ry

     iteration #  6     ecut=   107.00 Ry     beta= 0.70
     Davidson diagonalization with overlap
     ethr =  6.79E-10,  avg # of iterations =  3.8

     total cpu time spent up to now is        3.5 secs

     total energy              =     -47.21868712 Ry
     estimated scf accuracy    <          4.1E-09 Ry

     iteration #  7     ecut=   107.00 Ry     beta= 0.70
     Davidson diagonalization with overlap
     ethr =  4.12E-11,  avg # of iterations =  2.0

     total cpu time spent up to now is        3.9 secs

     End of self-consistent calculation

          k = 0.0000 0.0000 0.0000 (  3695 PWs)   bands (ev):

   -93.6687  -8.1265   5.4807   5.4807   5.4807  11.1833  11.1833  11.1833
    11.2609  18.2749

          k =-0.0833 0.0833-0.0833 (  3662 PWs)   bands (ev):

   -93.6687  -8.0485   4.8920   5.3883   5.3883  11.0938  11.3514  11.3514
    11.9479  17.8974

          k =-0.1667 0.1667-0.1667 (  3656 PWs)   bands (ev):

   -93.6687  -7.8221   3.6149   5.1606   5.1606  11.0585  11.7394  11.7394
    13.2690  17.3770

          k =-0.2500 0.2500-0.2500 (  3647 PWs)   bands (ev):

   -93.6687  -7.4745   2.2177   4.8940   4.8940  11.0215  12.0731  12.0731
    14.6675  17.3660

          k =-0.3333 0.3333-0.3333 (  3651 PWs)   bands (ev):

   -93.6687  -7.0648   0.9802   4.6641   4.6641  10.9831  12.1674  12.1674
    15.8030  18.0905

          k =-0.4167 0.4167-0.4167 (  3639 PWs)   bands (ev):

   -93.6687  -6.7050   0.1006   4.5134   4.5134  10.9533  12.1148  12.1148
    16.4544  19.3592

          k = 0.5000-0.5000 0.5000 (  3648 PWs)   bands (ev):

   -93.6687  -6.5550  -0.2259   4.4614   4.4614  10.9420  12.0772  12.0772
    16.6395  20.3223

          k = 0.0000 0.1667 0.0000 (  3655 PWs)   bands (ev):

   -93.6687  -8.0225   5.0085   5.1989   5.1989  10.9105  11.6251  11.6251
    11.8999  17.1890

          k =-0.0833 0.2500-0.0833 (  3653 PWs)   bands (ev):

   -93.6687  -7.8455   4.0049   4.9093   5.0916  10.9205  11.7678  12.1119
    12.8981  16.5190

          k =-0.1667 0.3333-0.1667 (  3647 PWs)   bands (ev):

   -93.6687  -7.5374   2.6714   4.6232   4.8701  11.0820  11.9288  12.5402
    13.9128  16.6037

          k =-0.2500 0.4167-0.2500 (  3649 PWs)   bands (ev):

   -93.6687  -7.1447   1.4002   4.4100   4.5840  11.1586  12.0515  12.6813
    14.7491  17.5334

          k =-0.3333 0.5000-0.3333 (  3650 PWs)   bands (ev):

   -93.6687  -6.7590   0.4065   4.3041   4.3187  11.1780  12.0332  12.5783
    15.7393  18.5452

          k = 0.5833-0.4167 0.5833 (  3658 PWs)   bands (ev):

   -93.6687  -6.5272  -0.1099   4.1272   4.3162  11.2037  12.0168  12.4190
    16.5281  19.2213

          k = 0.5000-0.3333 0.5000 (  3652 PWs)   bands (ev):

   -93.6687  -6.5777  -0.0015   4.0398   4.4412  11.2528  12.0957  12.3128
    16.5200  19.0069

          k = 0.4167-0.2500 0.4167 (  3653 PWs)   bands (ev):

   -93.6687  -6.8796   0.6959   4.0727   4.6599  11.3068  12.2475  12.2582
    15.7680  17.5844

          k = 0.3333-0.1667 0.3333 (  3646 PWs)   bands (ev):

   -93.6687  -7.2815   1.7996   4.2307   4.9364  11.3436  12.0974  12.3481
    14.7510  16.6962

          k = 0.2500-0.0833 0.2500 (  3654 PWs)   bands (ev):

   -93.6687  -7.6533   3.0957   4.5094   5.2097  11.3372  11.7660  12.1179
    13.7382  16.5669

          k = 0.1667-0.0000 0.1667 (  3657 PWs)   bands (ev):

   -93.6687  -7.9209   4.2770   4.9227   5.3895  11.2163  11.4269  11.6979
    12.6891  17.0833

          k = 0.0000 0.3333 0.0000 (  3651 PWs)   bands (ev):

   -93.6687  -7.7209   3.9568   4.5683   4.5683  10.4994  12.6871  12.7300
    12.7300  15.8931

          k =-0.0833 0.4167-0.0833 (  3638 PWs)   bands (ev):

   -93.6687  -7.4622   2.9916   4.2495   4.3504  10.4711  12.6515  13.2590
    13.3281  16.3030

          k =-0.1667 0.5000-0.1667 (  3627 PWs)   bands (ev):

   -93.6687  -7.1062   1.8406   4.0231   4.0518  10.6636  12.9190  13.2771
    13.6261  17.6180

          k =-0.2500 0.5833-0.2500 (  3634 PWs)   bands (ev):

   -93.6687  -6.7263   0.8446   3.6916   3.9237  10.7922  12.9734  13.5719
    14.0045  18.8922

          k = 0.6667-0.3333 0.6667 (  3646 PWs)   bands (ev):

   -93.6687  -6.4465   0.2159   3.3727   3.9616  10.9080  12.8768  13.3529
    15.3184  18.8721

          k = 0.5833-0.2500 0.5833 (  3651 PWs)   bands (ev):

   -93.6687  -6.4032   0.1261   3.1622   4.1294  11.1165  12.8189  13.1243
    16.3591  18.2889

          k = 0.5000-0.1667 0.5000 (  3647 PWs)   bands (ev):

   -93.6687  -6.6218   0.5973   3.1048   4.4019  11.4191  12.8054  12.9084
    15.6722  17.3188

          k = 0.4167-0.0833 0.4167 (  3641 PWs)   bands (ev):

   -93.6687  -6.9859   1.4570   3.2499   4.7310  11.7082  12.6014  12.7792
    14.5531  16.3512

          k = 0.3333 0.0000 0.3333 (  3653 PWs)   bands (ev):

   -93.6687  -7.3591   2.3945   3.7039   5.0371  11.7588  12.1438  12.4684
    13.9777  16.1410

          k = 0.0000 0.5000 0.0000 (  3615 PWs)   bands (ev):

   -93.6687  -7.2578   2.7690   3.8961   3.8961   9.9657  12.1077  14.1767
    14.1767  16.6028

          k =-0.0833 0.5833-0.0833 (  3627 PWs)   bands (ev):

   -93.6687  -6.9536   2.0137   3.5650   3.6399   9.9069  11.8295  14.5871
    14.7630  17.7877

          k =-0.1667 0.6667-0.1667 (  3631 PWs)   bands (ev):

   -93.6687  -6.6092   1.2217   3.0994   3.5196  10.0807  12.2243  14.6163
    14.8882  19.2326

          k = 0.7500-0.2500 0.7500 (  3637 PWs)   bands (ev):

   -93.6687  -6.3243   0.6507   2.6150   3.5489  10.2575  13.2679  14.6274
    14.6880  19.2153

          k = 0.6667-0.1667 0.6667 (  3639 PWs)   bands (ev):

   -93.6687  -6.2189   0.4690   2.2537   3.7228  10.5146  14.1001  14.3620
    15.2270  17.7779

          k = 0.5833-0.0833 0.5833 (  3642 PWs)   bands (ev):

   -93.6687  -6.3478   0.7045   2.1317   4.0173  10.9024  13.9457  14.1642
    15.5849  17.3860

          k = 0.5000 0.0000 0.5000 (  3651 PWs)   bands (ev):

   -93.6687  -6.6433   1.1197   2.4355   4.3826  11.3734  13.3339  13.8184
    14.6071  16.5123

          k = 0.0000 0.6667 0.0000 (  3631 PWs)   bands (ev):

   -93.6687  -6.7112   1.6696   3.3480   3.3480   9.3653  11.1557  15.7723
    15.7723  18.3383

          k =-0.0833 0.7500-0.0833 (  3641 PWs)   bands (ev):

   -93.6687  -6.4288   1.1748   2.9662   3.1930   9.3323  11.0851  16.2079
    16.2757  19.4894

          k = 0.8333-0.1667 0.8333 (  3652 PWs)   bands (ev):

   -93.6687  -6.1856   0.8565   2.3288   3.1933   9.5976  11.7401  16.2073
    16.2441  19.6265

          k = 0.7500-0.0833 0.7500 (  3645 PWs)   bands (ev):

   -93.6687  -6.0723   0.8563   1.6757   3.3481   9.9305  13.0424  15.7757
    16.1982  17.9332

          k = 0.6667-0.0000 0.6667 (  3627 PWs)   bands (ev):

   -93.6687  -6.1373   0.9650   1.4421   3.6378  10.3633  14.5351  15.0137
    15.9829  16.5015

          k = 0.0000 0.8333 0.0000 (  3631 PWs)   bands (ev):

   -93.6687  -6.2289   0.8461   2.9983   2.9983   8.8479  10.6149  17.3255
    17.3255  20.0205

          k = 0.9167-0.0833 0.9167 (  3635 PWs)   bands (ev):

   -93.6687  -6.0714   0.6543   2.6526   2.9596   8.9609  10.7541  17.5733
    17.6503  20.2448

          k = 0.8333 0.0000 0.8333 (  3642 PWs)   bands (ev):

   -93.6687  -6.0134   0.7419   2.0231   3.0810   9.4143  11.5920  16.9873
    17.4169  18.7416

          k = 0.0000-1.0000 0.0000 (  3612 PWs)   bands (ev):

   -93.6687  -6.0264   0.5282   2.8787   2.8787   8.6440  10.4533  18.1676
    18.1676  20.8874

          k =-0.1667 0.3333 0.0000 (  3652 PWs)   bands (ev):

   -93.6687  -7.6272   3.2888   4.3030   4.9718  10.9571  12.1364  12.6228
    13.3715  16.2213

          k =-0.2500 0.4167-0.0833 (  3645 PWs)   bands (ev):

   -93.6687  -7.2937   2.2018   3.8602   4.7467  11.2293  12.2772  13.0814
    13.6963  16.6622

          k =-0.3333 0.5000-0.1667 (  3645 PWs)   bands (ev):

   -93.6687  -6.9038   1.1126   3.6254   4.4516  11.4184  12.1759  13.2384
    14.4450  17.5505

          k = 0.5833-0.4167 0.7500 (  3645 PWs)   bands (ev):

   -93.6687  -6.5653   0.3118   3.5270   4.2024  11.5051  11.9555  13.2464
    15.6027  18.4113

          k = 0.5000-0.3333 0.6667 (  3658 PWs)   bands (ev):

   -93.6687  -6.4255   0.0122   3.5072   4.1013  11.5484  11.8398  13.2301
    16.4232  18.1990

          k =-0.1667 0.5000 0.0000 (  3629 PWs)   bands (ev):

   -93.6687  -7.1792   2.3327   3.6408   4.1951  10.4617  12.5136  13.3955
    14.1081  17.0457

          k =-0.2500 0.5833-0.0833 (  3639 PWs)   bands (ev):

   -93.6687  -6.8253   1.4882   3.2148   3.9321  10.7274  12.6963  13.3053
    14.6343  18.0080

          k = 0.6667-0.3333 0.8333 (  3631 PWs)   bands (ev):

   -93.6687  -6.4873   0.7408   2.9399   3.7023  10.9199  12.8877  13.8007
    14.7907  18.6602

          k = 0.5833-0.2500 0.7500 (  3641 PWs)   bands (ev):

   -93.6687  -6.2918   0.3449   2.7226   3.6692  11.1031  12.6891  14.5417
    15.3632  17.5662

          k = 0.5000-0.1667 0.6667 (  3643 PWs)   bands (ev):

   -93.6687  -6.3390   0.4410   2.5968   3.8417  11.3922  12.4761  14.4672
    15.6909  17.2251

          k = 0.4167-0.0833 0.5833 (  3642 PWs)   bands (ev):

   -93.6687  -6.6021   0.9665   2.6610   4.1480  11.7913  12.2175  14.0821
    14.6387  17.3680

          k = 0.3333 0.0000 0.5000 (  3643 PWs)   bands (ev):

   -93.6687  -6.9585   1.6456   3.0609   4.4926  11.7447  12.1977  13.5804
    13.9117  16.7848

          k =-0.1667 0.6667-0.0000 (  3637 PWs)   bands (ev):

   -93.6687  -6.6559   1.4988   3.1007   3.4215   9.8938  11.6043  14.7394
    15.7637  18.6303

          k = 0.7500-0.2500 0.9167 (  3639 PWs)   bands (ev):

   -93.6687  -6.3559   1.0220   2.6131   3.2063  10.1899  12.0391  14.5712
    16.2578  19.0894

          k = 0.6667-0.1667 0.8333 (  3642 PWs)   bands (ev):

   -93.6687  -6.1534   0.7592   2.0988   3.2136  10.4766  13.1262  14.3908
    16.2199  17.8766

          k = 0.5833-0.0833 0.7500 (  3639 PWs)   bands (ev):

   -93.6687  -6.1371   0.7900   1.7670   3.4179  10.8210  13.6991  14.9045
    15.8289  16.5950

          k = 0.5000 0.0000 0.6667 (  3637 PWs)   bands (ev):

   -93.6687  -6.3135   0.9127   1.9262   3.7578  11.2786  13.1842  14.5124
    15.6777  16.8836

          k = 0.8333-0.1667 1.0000 (  3637 PWs)   bands (ev):

   -93.6687  -6.2014   0.8780   2.7580   2.8796   9.4087  11.0856  16.2128
    17.2979  19.7980

          k = 0.7500-0.0833 0.9167 (  3649 PWs)   bands (ev):

   -93.6687  -6.0474   0.8154   2.1443   2.8607   9.8520  11.7445  15.9650
    17.1486  18.9366

          k = 0.6667 0.0000 0.8333 (  3649 PWs)   bands (ev):

   -93.6687  -6.0243   1.0308   1.4971   3.0667  10.3123  13.0566  15.4029
    16.1178  17.9394

          k =-0.1667-1.0000-0.0000 (  3634 PWs)   bands (ev):

   -93.6687  -6.0134   0.6356   2.6470   2.6828   9.2192  10.9307  17.4357
    17.5659  20.2123

          k = 0.6667-0.3333 1.0000 (  3650 PWs)   bands (ev):

   -93.6687  -6.5072   1.1512   2.5364   3.6024  11.2611  12.5468  13.2758
    15.7355  18.0442

          k = 0.5833-0.2500 0.9167 (  3648 PWs)   bands (ev):

   -93.6687  -6.2426   0.8308   2.1788   3.2721  11.6234  12.5448  13.8667
    16.2669  17.2755

          k = 0.5000-0.1667 0.8333 (  3630 PWs)   bands (ev):

   -93.6687  -6.1370   0.6856   2.0881   3.1348  11.6883  12.5140  14.9090
    15.7333  16.6678

          k = 0.6667-0.1667 1.0000 (  3652 PWs)   bands (ev):

   -93.6687  -6.1347   0.9522   2.2089   2.7457  10.8222  12.2916  14.2884
    16.9324  18.2451

          k = 0.5833-0.0833 0.9167 (  3652 PWs)   bands (ev):

   -93.6687  -6.0229   1.0510   1.7487   2.6092  11.3517  13.1518  14.1421
    15.5252  18.3783

          k = 0.5000 0.0000 0.8333 (  3640 PWs)   bands (ev):

   -93.6687  -6.0654   1.0741   1.6262   2.8436  11.7110  13.0862  14.2394
    15.3122  17.8085

          k =-0.3333-1.0000 0.0000 (  3652 PWs)   bands (ev):

   -93.6687  -5.9872   0.9424   2.1155   2.3433  10.6542  12.1845  15.4603
    15.9308  19.8564

          k =-0.5000-1.0000 0.0000 (  3676 PWs)   bands (ev):

   -93.6687  -5.9739   1.2782   1.6770   2.1927  11.9651  13.6182  13.8925
    14.3110  19.7814

     the Fermi energy is     6.6147 ev

!    total energy              =     -47.21868712 Ry
     estimated scf accuracy    <          4.4E-11 Ry
     smearing contrib. (-TS)   =      -0.00000000 Ry
     internal energy E=F+TS    =     -47.21868712 Ry

     The total energy is F=E-TS. E is the sum of the following terms:
     one-electron contribution =     -14.55361195 Ry
     hartree contribution      =       6.16612857 Ry
     xc contribution           =      -8.74432488 Ry
     ewald contribution        =     -30.08687886 Ry

     convergence has been achieved in   7 iterations

     Writing all to output data dir out/mp-422.save/
 
     init_run     :      0.15s CPU      0.19s WALL (       1 calls)
     electrons    :      2.71s CPU      3.57s WALL (       1 calls)

     Called by init_run:
     wfcinit      :      0.09s CPU      0.10s WALL (       1 calls)
     potinit      :      0.01s CPU      0.01s WALL (       1 calls)
     hinit0       :      0.03s CPU      0.05s WALL (       1 calls)

     Called by electrons:
     c_bands      :      2.28s CPU      2.99s WALL (       8 calls)
     sum_band     :      0.38s CPU      0.50s WALL (       8 calls)
     v_of_rho     :      0.03s CPU      0.03s WALL (       8 calls)
     mix_rho      :      0.01s CPU      0.02s WALL (       8 calls)

     Called by c_bands:
     init_us_2    :      0.04s CPU      0.04s WALL (     612 calls)
     init_us_2:cp :      0.03s CPU      0.04s WALL (     612 calls)
     cegterg      :      2.03s CPU      2.16s WALL (     288 calls)

     Called by *egterg:
     cdiaghg      :      0.16s CPU      0.17s WALL (    1243 calls)
     h_psi        :      1.80s CPU      1.91s WALL (    1315 calls)
     g_psi        :      0.01s CPU      0.01s WALL (     991 calls)

     Called by h_psi:
     h_psi:calbec :      0.04s CPU      0.04s WALL (    1315 calls)
     vloc_psi     :      1.73s CPU      1.83s WALL (    1315 calls)
     add_vuspsi   :      0.02s CPU      0.03s WALL (    1315 calls)

     General routines
     calbec       :      0.03s CPU      0.04s WALL (    1315 calls)
     fft          :      0.01s CPU      0.04s WALL (      80 calls)
     ffts         :      0.00s CPU      0.00s WALL (       8 calls)
     fftw         :      1.88s CPU      1.99s WALL (   20710 calls)
     davcio       :      0.04s CPU      0.48s WALL (     988 calls)
 
     Parallel routines
 
     PWSCF        :      2.93s CPU      4.09s WALL

 
   This run was terminated on:  22:10:50   7Dec2023            

=------------------------------------------------------------------------------=
   JOB DONE.
=------------------------------------------------------------------------------=
