
     Program PWSCF v.7.1 starts on  1Dec2023 at 21:15:36 

     This program is part of the open-source Quantum ESPRESSO suite
     for quantum simulation of materials; please cite
         "P. Giannozzi et al., J. Phys.:Condens. Matter 21 395502 (2009);
         "P. Giannozzi et al., J. Phys.:Condens. Matter 29 465901 (2017);
         "P. Giannozzi et al., J. Chem. Phys. 152 154105 (2020);
          URL http://www.quantum-espresso.org", 
     in publications or presentations arising from this work. More details at
     http://www.quantum-espresso.org/quote

     Parallel version (MPI), running on    24 processors

     MPI processes distributed on     1 nodes
     122870 MiB available memory on the printing compute node when the environment starts
 
     Reading input from pw_mp-19717_nscf_k690_E55.in
Warning: card &IONS ignored
Warning: card / ignored
Warning: card &CELL ignored
Warning: card / ignored

     Current dimensions of program PWSCF are:
     Max number of different atomic species (ntypx) = 10
     Max number of k-points (npk) =  40000
     Max angular momentum in pseudopotentials (lmaxx) =  4

     Atomic positions and unit cell read from directory:
     out/mp-19717.save/
     Atomic positions from file used, from input discarded
 
 
     K-points division:     npool     =       2
     R & G space division:  proc/nbgrp/npool/nimage =      12
     Subspace diagonalization in iterative solution of the eigenvalue problem:
     one sub-group per band group will be used
     scalapack distributed-memory algorithm (size of sub-group:  3*  3 procs)

 
     Parallelization info
     --------------------
     sticks:   dense  smooth     PW     G-vecs:    dense   smooth      PW
     Min          96      96     29                 2176     2176     356
     Max          97      97     30                 2179     2179     359
     Sum        1159    1159    349                26133    26133    4279
 
     Using Slab Decomposition
 


     bravais-lattice index     =            2
     lattice parameter (alat)  =      12.3622  a.u.
     unit-cell volume          =     472.3099 (a.u.)^3
     number of atoms/cell      =            2
     number of atomic types    =            2
     number of electrons       =        30.00
     number of Kohn-Sham states=         1200
     kinetic-energy cutoff     =      55.0000  Ry
     charge density cutoff     =     220.0000  Ry
     Exchange-correlation= PBE
                           (   1   4   3   4   0   0   0)

     celldm(1)=  12.362197  celldm(2)=   0.000000  celldm(3)=   0.000000
     celldm(4)=   0.000000  celldm(5)=   0.000000  celldm(6)=   0.000000

     crystal axes: (cart. coord. in units of alat)
               a(1) = (  -0.500000   0.000000   0.500000 )  
               a(2) = (   0.000000   0.500000   0.500000 )  
               a(3) = (  -0.500000   0.500000   0.000000 )  

     reciprocal axes: (cart. coord. in units 2 pi/alat)
               b(1) = ( -1.000000 -1.000000  1.000000 )  
               b(2) = (  1.000000  1.000000  1.000000 )  
               b(3) = ( -1.000000  1.000000 -1.000000 )  


     PseudoPot. # 1 for Pb read from file:
     /usr/scratch4/magr4985/MG/HTDF/pseudo/SG15/Pb.upf
     MD5 check sum: 7f27c247474026287e0dbe0f3167d60b
     Pseudo is Norm-conserving, Zval = 14.0
     Generated using ONCVPSP code by D. R. Hamann
     Using radial grid of  602 points,  8 beta functions with: 
                l(1) =   0
                l(2) =   0
                l(3) =   1
                l(4) =   1
                l(5) =   2
                l(6) =   2
                l(7) =   3
                l(8) =   3

     PseudoPot. # 2 for Te read from file:
     /usr/scratch4/magr4985/MG/HTDF/pseudo/SG15/Te.upf
     MD5 check sum: dd4de4dac1e38587f63aaf3700bb29d3
     Pseudo is Norm-conserving, Zval = 16.0
     Generated using ONCVPSP code by D. R. Hamann
     Using radial grid of  602 points,  6 beta functions with: 
                l(1) =   0
                l(2) =   0
                l(3) =   1
                l(4) =   1
                l(5) =   2
                l(6) =   2

     atomic species   valence    mass     pseudopotential
        Pb            14.00   207.20000     Pb( 1.00)
        Te            16.00   127.60000     Te( 1.00)

     48 Sym. Ops., with inversion, found



   Cartesian axes

     site n.     atom                  positions (alat units)
         1           Te  tau(   1) = (   0.0000000   0.0000000   0.0000000  )
         2           Pb  tau(   2) = (  -0.5000000   0.5000000   0.5000000  )

     number of k points=    29  Gaussian smearing, width (Ry)=  0.0005
                       cart. coord. in units 2pi/alat
        k(    1) = (   0.0000000   0.0000000   0.0000000), wk =   0.0039062
        k(    2) = (  -0.1250000   0.1250000  -0.1250000), wk =   0.0312500
        k(    3) = (  -0.2500000   0.2500000  -0.2500000), wk =   0.0312500
        k(    4) = (  -0.3750000   0.3750000  -0.3750000), wk =   0.0312500
        k(    5) = (   0.5000000  -0.5000000   0.5000000), wk =   0.0156250
        k(    6) = (   0.0000000   0.2500000   0.0000000), wk =   0.0234375
        k(    7) = (  -0.1250000   0.3750000  -0.1250000), wk =   0.0937500
        k(    8) = (  -0.2500000   0.5000000  -0.2500000), wk =   0.0937500
        k(    9) = (   0.6250000  -0.3750000   0.6250000), wk =   0.0937500
        k(   10) = (   0.5000000  -0.2500000   0.5000000), wk =   0.0937500
        k(   11) = (   0.3750000  -0.1250000   0.3750000), wk =   0.0937500
        k(   12) = (   0.2500000   0.0000000   0.2500000), wk =   0.0468750
        k(   13) = (   0.0000000   0.5000000   0.0000000), wk =   0.0234375
        k(   14) = (  -0.1250000   0.6250000  -0.1250000), wk =   0.0937500
        k(   15) = (   0.7500000  -0.2500000   0.7500000), wk =   0.0937500
        k(   16) = (   0.6250000  -0.1250000   0.6250000), wk =   0.0937500
        k(   17) = (   0.5000000   0.0000000   0.5000000), wk =   0.0468750
        k(   18) = (   0.0000000   0.7500000   0.0000000), wk =   0.0234375
        k(   19) = (   0.8750000  -0.1250000   0.8750000), wk =   0.0937500
        k(   20) = (   0.7500000   0.0000000   0.7500000), wk =   0.0468750
        k(   21) = (   0.0000000  -1.0000000   0.0000000), wk =   0.0117188
        k(   22) = (  -0.2500000   0.5000000   0.0000000), wk =   0.0937500
        k(   23) = (   0.6250000  -0.3750000   0.8750000), wk =   0.1875000
        k(   24) = (   0.5000000  -0.2500000   0.7500000), wk =   0.0937500
        k(   25) = (   0.7500000  -0.2500000   1.0000000), wk =   0.0937500
        k(   26) = (   0.6250000  -0.1250000   0.8750000), wk =   0.1875000
        k(   27) = (   0.5000000   0.0000000   0.7500000), wk =   0.0937500
        k(   28) = (  -0.2500000  -1.0000000   0.0000000), wk =   0.0468750
        k(   29) = (  -0.5000000  -1.0000000   0.0000000), wk =   0.0234375

     Dense  grid:    26133 G-vectors     FFT dimensions: (  45,  45,  45)

     Estimated max dynamical RAM per process >     136.28 MB

     Estimated total dynamical RAM >       3.19 GB

     The potential is recalculated from file :
     out/mp-19717.save/charge-density

     Starting wfcs are random

     Band Structure Calculation
     Davidson diagonalization with overlap

     ethr =  5.00E-06,  avg # of iterations = 10.7

     total cpu time spent up to now is     1220.1 secs

     End of band structure calculation

          k = 0.0000 0.0000 0.0000 (  3287 PWs)   bands (ev):

   -26.8832 -26.8832 -26.8781 -26.8781 -26.8781  -7.4947  -7.4947  -7.4896
    -7.4896  -7.4896  -2.5446   3.4828   7.9708   7.9708   7.9708  13.2292
    13.2292  13.2292  15.0871  15.0871  15.0871  16.6369  16.7322  17.2257
    17.2257  27.8491  27.8491  27.8491  28.4093  28.4093  28.4093  30.3532
    30.3532  30.3532  31.1639  31.1639  33.7839  33.7839  33.7839  34.2375
    36.0844  36.0844  36.0844  36.2095  39.2114  39.5302  39.5302  40.1327
    40.1327  40.1327  40.4590  40.4590  40.4590  41.5871  41.5871  41.5871
    42.4758  42.4758  42.4758  43.6185  43.6185  43.6185  44.3768  44.3768
    45.9737  45.9737  45.9737  46.3920  47.8502  52.2183  52.2183  52.2183
    54.4073  54.4073  54.4073  58.4298  59.3600  59.3600  59.9518  59.9518
    59.9518  60.8483  63.3684  63.3684  63.3684  65.1938  65.1938  66.4446
    66.4446  66.4446  67.3031  67.3031  67.3031  68.5428  68.5428  68.5428
    69.4346  69.4613  69.4613  69.4613  70.0934  70.0934  70.0934  70.7159
    70.7159  70.7375  70.7375  70.7375  71.1946  71.1946  72.1953  72.1953
    72.1953  73.1855  74.4342  75.0613  75.0613  75.0613  75.6971  75.6971
    75.6971  76.5854  76.5854  78.9971  78.9971  78.9971  79.7541  83.5190
    83.5190  83.5190  84.1006  84.1006  84.1006  84.3540  84.3540  84.3540
    84.5352  84.5352  85.3201  85.3201  85.3201  86.3752  86.9506  87.6858
    87.6858  87.6858  88.6739  88.6739  89.7246  90.2107  90.2107  90.2107
    90.5320  90.5320  90.5320  92.9919  92.9919  92.9919  93.4942  94.6314
    94.6314  94.6314  94.8321  94.8321  94.8321  99.5389  99.5389  99.6500
    99.6500  99.6500  99.7056  99.7056  99.7056  99.7205 100.4135 100.4135
   100.4135 100.5713 100.5713 101.3760 101.3760 101.3760 104.2500 105.1051
   105.1051 105.1051 106.7733 106.7733 106.7733 109.2983 109.3892 109.3892
   112.8846 113.5047 113.5047 113.5047 114.2875 114.2875 114.2875 115.9402
   115.9402 115.9402 116.5869 117.6324 118.3693 118.3693 118.3693 118.6036
   118.6036 119.5328 119.5328 119.5328 120.3737 120.3737 120.3737 121.4141
   121.4949 121.4949 121.4949 123.0082 123.4292 123.4292 123.7275 123.7275
   123.7275 125.0274 125.0274 125.0274 125.1301 125.1301 125.1301 125.2364
   125.2364 125.2364 125.8739 125.8739 125.8739 126.1806 126.1806 126.1806
   126.6504 126.6504 126.6504 126.6688 126.6688 126.6688 126.6949 126.6949
   126.8810 126.8810 126.8934 126.8934 127.3892 127.3892 127.3892 127.4694
   127.4694 127.4694 127.8103 130.0309 130.0309 130.4541 130.4541 130.4541
   133.2050 133.2050 133.2050 133.2525 133.2525 133.2525 134.9551 134.9551
   134.9551 135.2450 135.2450 135.2450 135.5440 135.5440 136.5588 136.5588
   136.5588 136.8842 139.5314 141.5110 141.5110 141.5110 141.5439 141.5439
   141.6878 142.9569 142.9569 142.9569 145.4369 147.0715 147.0715 147.0715
   148.7571 148.7571 148.7571 149.4368 149.4583 149.4583 149.4583 150.3974
   150.3974 150.3974 151.0266 151.0266 151.1022 151.1022 151.1022 151.6128
   151.6128 152.3214 152.3214 152.3214 152.7343 152.7343 152.7343 152.9362
   152.9362 153.0418 153.0418 153.0418 153.3397 153.3397 154.1739 154.1739
   154.1739 154.2544 154.2544 154.2544 155.0143 157.4556 157.4556 157.4556
   157.5045 157.5045 157.5045 162.5541 162.5541 162.5541 163.4449 163.4472
   164.6263 164.6263 164.7917 164.7917 164.7917 164.9779 164.9779 164.9779
   166.0257 168.3888 168.3888 168.3888 169.0884 169.0884 169.0884 170.8082
   170.8082 170.8082 171.3332 171.3332 171.7073 176.2003 176.2003 176.2003
   176.5405 176.5405 176.5405 176.8078 176.8078 176.8078 176.8112 176.8112
   176.8112 176.8848 176.8848 176.8848 178.6628 178.9392 179.5869 179.5869
   179.8058 179.8058 179.8058 179.8176 179.8176 179.8176 180.9434 180.9434
   180.9434 181.0971 181.0971 181.1170 181.1170 181.1170 181.3212 181.3212
   181.3212 181.4506 181.5315 181.5315 181.5315 183.8373 183.8373 183.8424
   183.8424 183.8424 183.8714 185.9817 185.9817 185.9817 186.6147 187.8743
   187.8743 189.9949 189.9949 189.9949 191.5118 191.5118 191.5118 192.5738
   192.5738 192.6311 192.6311 192.6311 193.0342 193.0342 193.0342 193.4053
   193.4053 193.4053 193.4716 193.5352 193.5352 193.5352 193.9172 193.9172
   195.7806 196.1958 196.1958 196.1958 197.1691 197.1691 197.2777 197.2777
   197.2777 197.2866 197.2866 197.2866 197.3849 197.3849 197.3849 197.5663
   197.5663 197.5663 197.7857 197.7857 197.7857 197.8264 197.8264 198.7912
   198.8625 198.8625 198.8625 198.8985 198.8985 198.8985 199.2381 199.2381
   199.2381 199.3711 200.2324 200.2324 200.2324 200.7365 201.7259 201.7259
   201.7259 202.1886 202.1886 202.1886 202.2285 202.2285 202.4380 202.4380
   202.4380 202.5707 202.6666 203.4328 203.4328 206.2401 206.2401 206.8261
   206.8261 206.8261 207.1943 207.1943 207.1943 207.2624 207.2624 207.2624
   207.7533 207.7533 207.7533 207.8150 207.8150 208.0554 208.3940 208.3940
   208.3940 208.4403 208.4403 209.9202 209.9202 209.9202 210.0460 210.0460
   210.0460 210.2082 210.2082 210.2082 210.3194 210.3194 210.3194 211.3619
   211.3891 211.3891 211.3891 211.4429 211.4429 211.4429 211.4690 211.4690
   215.2187 218.8286 218.8286 218.8286 227.6915 227.6915 228.6109 228.6109
   228.6109 228.8643 230.8860 230.8860 230.8860 231.4587 231.4587 231.4587
   231.6817 231.6817 231.6817 231.8857 231.8857 231.8857 231.9092 232.3427
   232.3427 232.3427 233.1759 233.1759 233.3750 233.3838 233.3838 233.6843
   233.6843 233.6843 234.0050 234.0050 234.0050 234.0417 234.0417 234.0417
   234.3764 234.3764 234.3764 234.5077 235.0245 235.0245 235.0245 235.9764
   235.9764 235.9764 236.2477 238.2467 238.2467 238.5593 238.5593 238.5593
   238.7182 238.7182 238.7182 238.9396 238.9396 238.9396 238.9986 238.9986
   239.0802 239.0802 239.0802 239.6475 239.6475 239.7785 239.7785 239.7785
   239.9638 241.8608 241.8608 241.8608 242.8400 242.8400 244.3919 244.3919
   244.3919 245.0699 245.0699 245.0699 247.3672 249.8262 249.8262 249.8262
   250.5885 250.5885 250.7888 250.8828 250.8828 250.8828 250.9654 250.9654
   252.1545 252.1545 252.1545 252.1611 252.1611 252.1611 252.1807 252.1807
   252.1872 252.1872 252.1872 252.2458 252.2458 252.2458 252.2992 252.2992
   252.2992 252.7419 252.7419 252.7419 253.4637 254.8618 254.8618 254.8618
   255.3167 258.1889 258.1889 258.3578 258.3578 258.3578 258.3677 259.1671
   259.1671 259.1671 259.3875 259.3875 259.3875 259.4036 259.4036 259.4036
   259.4360 259.9070 259.9070 259.9070 260.8580 263.2287 263.2287 263.2511
   263.2511 263.2511 263.6852 263.6852 263.6852 263.7716 263.7716 263.7716
   264.1390 264.7982 264.7982 264.7982 265.3461 265.6290 265.6290 265.6290
   265.6573 265.6573 265.6619 265.6619 265.6619 265.6986 265.6986 265.8936
   265.8936 265.8936 266.2471 266.2471 266.2471 266.5592 266.5592 266.7526
   266.7526 266.7526 266.7681 266.7681 266.7803 266.7803 266.7803 266.8298
   266.8298 266.8298 266.8574 266.8574 266.8574 266.8815 267.0872 271.3601
   271.3601 271.3601 273.5887 275.0617 275.0617 275.0617 275.4982 275.4982
   275.9172 275.9172 275.9172 276.1051 276.1051 276.1051 276.1702 276.1702
   276.1702 276.7731 277.1075 277.1075 277.1075 277.1369 277.1369 278.1580
   278.1580 278.1580 278.5309 281.6246 281.6246 281.6246 283.6464 284.5647
   284.5647 284.5647 286.1331 286.5485 286.5485 286.5485 286.6871 286.6871
   286.7943 286.7943 286.7943 286.8469 286.8469 286.8469 286.8786 286.8786
   287.3048 287.3048 287.3048 289.3608 289.3608 289.3608 289.3723 289.3723
   289.3723 289.4558 289.4558 289.4558 289.4899 289.4899 289.4899 291.0331
   291.0331 291.0331 291.3053 291.3053 291.3660 291.3660 291.3660 291.4822
   291.7662 291.7662 291.8041 291.8041 291.8041 291.9670 291.9670 291.9670
   291.9785 291.9785 291.9785 292.3383 292.3383 292.4077 292.4077 292.4077
   292.5868 292.5868 292.5868 292.6057 292.6057 292.6877 292.6877 292.6877
   292.7019 292.7019 292.7019 293.5326 293.5326 293.5326 293.6688 293.6758
   293.6766 293.6766 293.6766 293.6790 293.6790 293.6790 293.7293 295.5524
   295.5613 295.5613 295.5628 295.5628 295.5628 295.9888 295.9888 295.9888
   296.1728 296.1728 296.1728 296.1812 296.1812 296.1812 296.1987 296.1987
   296.1987 296.3264 296.3371 296.3371 296.3371 296.3447 296.3447 296.4953
   296.4953 296.5456 296.5456 296.5456 296.5956 301.5309 301.5309 301.5309
   302.4833 302.6520 302.6520 302.6520 302.8859 307.4373 307.4373 309.1574
   309.1574 309.1574 309.2064 309.2064 309.2064 309.2488 309.2488 309.2488
   309.2626 309.2626 309.3111 309.3111 309.3111 309.3203 309.3203 310.2597
   310.2597 310.2597 310.9727 310.9727 310.9727 311.2466 312.0810 312.0810
   312.0810 312.1011 312.1011 312.1011 312.1189 312.1189 312.1189 314.7890
   314.7890 314.8504 314.8504 314.8504 314.9005 319.6411 319.6411 319.6411
   319.6555 319.6555 319.6809 322.3051 322.3051 322.3051 322.3296 322.3296
   322.3296 322.3375 322.3375 322.3375 322.3420 322.3420 322.3420 323.7978
   323.7978 323.8033 323.8033 323.8033 323.8170 329.1698 329.1698 329.1698
   330.9496 330.9496 331.9728 331.9728 331.9728 333.3688 333.3688 333.3688
   333.6010 333.8742 334.5147 334.5147 334.5147 334.5582 334.5582 334.5582
   334.7733 334.7733 334.7733 334.8662 334.8662 335.9286 335.9286 336.2081
   336.2081 336.2081 336.3802 336.3802 336.3802 337.0814 337.0814 337.0814
   337.3352 337.3352 337.7043 338.7716 338.7716 338.7716 339.4576 340.2475
   340.2475 340.2475 340.6462 341.0791 341.0791 341.0791 341.4334 344.6019
   344.6019 344.6019 344.9807 344.9807 344.9807 344.9910 344.9910 344.9910
   345.0228 345.0228 345.1963 345.1963 345.1963 345.2282 345.2282 345.2852
   345.2852 345.2852 345.3362 345.3362 345.3818 345.5236 345.5236 345.5236
   345.5583 345.5583 345.5583 346.2881 346.2881 346.2881 346.4179 346.7220
   346.7220 346.7220 346.9399 348.1798 348.1798 348.1798 348.2785 348.2785
   348.3359 348.3359 348.3359 348.4048 348.4048 348.4048 348.4266 348.4266
   348.4266 348.5061 348.5061 349.3490 349.4995 349.4995 349.4995 349.5781
   349.5781 349.5781 349.6609 349.6609 349.6609 349.6621 349.6621 349.7455
   349.7455 349.8012 349.8012 349.8012 349.8048 349.8048 349.8048 349.8417
   349.8618 349.8618 349.8618 359.2418 359.2418 359.2418 359.5854 359.5854
   359.5854 359.5867 359.5867 359.5867 359.5977 359.5977 359.5977 359.8964
   359.8964 360.4882 360.4882 360.4882 360.8217 360.8217 360.8217 360.8547
   360.8706 360.9494 360.9494 360.9494 360.9500 360.9500 360.9544 360.9544
   360.9544 362.9535 362.9535 362.9535 363.0052 363.0052 363.1365 363.1365
   363.1365 363.1749 363.1749 363.1749 363.4982 365.4103 365.5494 365.5494
   365.5509 365.5509 365.5509 365.5851 365.5851 365.5851 365.6240 365.6240
   365.6240 365.6567 365.7084 365.7084 365.7084 365.7517 365.7517 366.0678
   366.0678 366.0678 366.1263 366.1263 366.1263 366.5376 366.5376 366.6889
   366.6889 366.6889 366.8382 368.7543 368.7543 368.7543 368.7886 368.7886
   369.0252 369.0252 369.0252 369.0338 369.0338 369.0338 369.0451 369.0644
   369.0644 369.0644 369.0988 369.0988 369.0988 369.1275 369.1275 369.2831
   369.2831 369.2831 369.6050 372.7571 372.7891 372.7891 372.7891 373.2110
   373.2110 373.2110 373.6424 373.6424 373.6585 373.6585 373.6585 374.0069
   374.3028 374.3028 374.3028 374.4780 374.4780 374.4780 374.6901 374.6901
   374.6901 374.6972 374.6972 376.8763 376.8867 376.8867 376.8867 376.9336
   376.9336 377.0482 377.0482 377.0482 377.0586 377.0586 377.0586 377.1066

          k =-0.1250 0.1250-0.1250 (  3257 PWs)   bands (ev):

   -26.8831 -26.8831 -26.8780 -26.8780 -26.8780  -7.4964  -7.4964  -7.4893
    -7.4877  -7.4877  -2.4178   3.0998   8.0087   8.0087   8.1742  12.4776
    12.6622  12.6622  14.9407  15.3757  15.3757  17.5673  17.8389  18.0466
    18.0466  26.1670  26.1670  26.4697  28.0024  28.4204  28.4204  30.6303
    30.6303  31.1752  32.8679  32.8679  32.9062  32.9062  33.7224  35.1057
    35.4347  35.7654  35.7654  35.9389  37.0507  37.6979  37.6979  38.6987
    40.3201  40.3201  40.3528  41.3773  41.3773  41.7065  42.0163  42.0163
    42.5025  42.5025  43.3126  43.3126  43.5004  45.0967  45.9675  45.9675
    46.0580  47.1742  47.1742  48.1725  49.0107  52.0364  52.0364  52.7218
    54.3164  54.3232  54.3232  58.0743  58.1986  58.1986  59.0396  59.0396
    59.7073  60.6028  62.8986  63.1789  63.1789  64.5387  64.5387  64.9336
    64.9336  64.9747  66.4568  66.4817  66.4817  66.8026  68.1799  69.0804
    69.0804  69.3447  69.3447  69.7788  69.9793  69.9793  70.2463  70.2463
    70.7877  71.0225  71.0225  71.0533  72.0037  72.5974  73.0188  73.0188
    74.3904  74.3904  75.2573  75.2573  75.7037  75.7037  75.7568  76.5299
    77.2482  77.6243  77.6243  79.2699  79.2699  80.1593  80.1593  80.3981
    81.4148  82.2257  82.2318  82.2318  82.5602  84.2208  84.2208  85.1376
    85.1849  85.6216  85.8621  85.8621  86.2689  86.6163  86.6163  87.2282
    87.2282  87.7920  88.6625  88.7192  90.2327  90.2327  90.7440  90.7440
    90.9292  90.9471  90.9471  93.5224  93.5224  93.5823  94.3158  94.3676
    94.6444  94.6444  95.8851  95.8851  95.9565  95.9565  95.9684  96.3739
    98.2198  98.2198  99.3602  99.3602 100.1769 100.9430 100.9430 101.0019
   101.9320 102.6801 102.6801 104.2947 104.2947 104.5677 104.9321 105.5891
   105.5891 105.8227 106.6541 107.3519 107.3519 108.3472 110.2864 110.2864
   110.2902 112.3446 112.3446 112.5718 112.5718 112.6817 113.7835 113.8584
   115.3287 116.4439 116.4439 116.5235 116.5235 117.7016 117.7624 117.7624
   118.2478 118.2478 118.7874 119.3958 119.4407 119.4407 119.5682 119.6429
   119.6429 120.2945 120.2945 120.6254 120.8139 121.8768 121.8768 122.3690
   122.9739 122.9739 123.2721 123.6851 123.6851 123.9973 124.0559 124.0559
   124.7583 125.0158 125.0158 125.0635 125.0635 125.2868 126.4842 126.8876
   126.8876 127.2600 127.3874 127.5845 127.5845 128.1028 128.1028 128.3324
   128.3324 128.6924 128.7073 128.7073 128.9216 129.2521 129.5612 129.5612
   129.9963 130.5815 130.9973 130.9973 131.5852 131.5852 131.6801 132.3619
   132.5108 132.5108 133.5698 133.5698 133.8723 133.8723 134.7626 135.0115
   135.0115 136.5444 136.7118 136.7722 136.7722 137.9485 137.9485 138.8783
   138.9436 138.9436 139.1915 140.3416 140.3416 140.6320 141.7421 141.7421
   142.8027 143.5091 143.5091 143.6148 144.5211 144.5211 145.5848 145.5848
   145.8961 146.2420 146.8585 146.8585 147.1765 147.1765 147.4480 148.1689
   148.1689 148.3864 148.4258 149.4357 149.4357 150.1319 150.6314 150.6314
   151.1217 151.5635 152.6285 152.6285 152.7451 152.9772 152.9772 153.5235
   153.5235 154.5500 154.8257 155.1633 155.1633 155.3730 156.4099 157.1708
   157.1708 157.8707 157.8707 157.9331 158.0102 158.0102 158.5768 159.6048
   159.6048 160.1524 161.3871 161.3871 161.7917 161.7917 161.9438 162.4558
   162.4558 163.7164 163.7164 164.6888 164.7257 165.1779 165.9558 165.9558
   167.1064 168.5051 168.5051 168.9318 169.0885 169.0885 169.2449 170.9708
   170.9708 171.0408 171.0624 171.1385 171.1385 171.6711 172.3266 172.3266
   172.7105 172.7105 172.8292 173.2787 173.5264 173.5264 174.0530 174.0530
   175.2216 177.2492 177.8224 177.8989 177.8989 178.7366 178.9927 178.9927
   180.1533 180.1840 180.1840 180.3664 180.3664 180.4036 180.9349 181.0347
   181.0347 181.7173 181.7260 181.7260 182.3382 182.3382 182.8381 183.0950
   183.0950 183.1259 183.4759 183.4759 184.0266 184.0266 184.0584 185.5354
   185.5354 185.5988 186.1614 187.2244 187.2244 187.6371 187.6371 188.3916
   188.4029 188.5518 188.5518 188.9192 189.4295 189.4295 189.6046 189.6046
   189.6649 190.0613 190.2069 190.2069 190.4729 190.4729 190.6194 191.5894
   191.5894 191.6534 191.7952 192.2215 192.5322 192.5322 192.9573 193.8069
   193.8069 194.3906 194.5173 194.5173 194.8787 194.9614 194.9614 195.3886
   195.5878 195.5878 196.0002 196.4004 196.4004 196.7831 196.8022 196.8639
   196.8639 197.9998 197.9998 198.2523 198.2707 198.2707 198.8973 198.8973
   199.3664 199.4465 199.4465 199.6621 199.8991 199.8991 200.2127 200.4993
   200.4993 201.0632 201.2729 201.2729 202.0648 202.1709 202.1709 202.2252
   202.2252 202.2434 202.6494 203.4168 203.4840 203.4840 204.0294 204.0294
   204.2508 204.3514 204.3514 205.0455 205.0691 205.0691 205.4929 205.7340
   205.7340 205.9058 206.0078 206.0589 206.0589 206.6969 206.6969 207.5546
   207.5546 207.6222 208.0637 208.0644 208.0644 209.3867 209.3867 209.4348
   210.0191 210.3554 210.3554 210.6490 210.8779 212.7978 212.7978 212.9955
   213.2645 213.2645 213.2822 213.6273 214.3668 214.3668 214.4735 214.5401
   214.5401 216.6195 216.6195 217.4153 217.4153 218.1985 219.0348 219.0348
   219.8825 220.2316 220.3206 220.3206 221.2283 221.2283 222.3207 224.2239
   224.4256 224.4256 224.6189 225.1637 225.1637 225.1760 226.6068 226.6068
   227.0910 227.0910 227.1441 227.1441 227.6845 228.0393 228.4860 228.4860
   228.9018 230.3083 230.3083 230.3707 231.9220 231.9220 232.6247 232.9401
   232.9401 232.9830 233.4190 233.4190 233.8833 233.8833 233.9815 234.3497
   234.3497 234.4452 235.3940 236.4782 236.6306 236.6306 237.1214 237.1214
   237.4286 237.7297 237.8309 237.8309 239.2988 239.2988 239.4156 240.2757
   240.2757 240.5015 240.8363 240.8363 241.0380 241.5869 241.5869 241.7132
   241.8714 241.8714 242.1928 242.2982 242.2982 242.5715 242.5715 242.5771
   243.5084 243.5601 244.0918 244.0918 244.6900 244.6900 244.8614 245.0587
   245.0587 245.2047 245.2377 245.2377 245.5007 245.6751 245.8054 245.8054
   246.5431 246.8862 247.2368 247.2368 247.6058 248.2838 248.2838 248.8475
   248.8475 248.9157 249.0352 250.4212 250.4212 250.9889 250.9889 251.9756
   252.2400 252.2400 252.2437 252.4703 253.0364 253.0364 253.8417 253.8417
   254.1724 254.4196 254.4196 255.4280 255.4698 255.4698 256.0155 256.0633
   256.0633 256.1390 256.5220 256.5220 256.5769 257.0413 257.0413 257.4989
   257.6931 257.6931 258.6979 258.8877 258.8877 259.0479 259.5741 259.5741
   259.9741 260.0352 260.0352 260.2236 261.0032 261.0032 261.6403 261.6403
   262.0176 262.5898 262.5898 262.7419 262.7419 262.7554 262.7865 263.0434
   263.0434 263.7778 264.1876 264.1876 264.4313 264.5174 264.6189 264.6189
   264.7316 265.2246 265.2246 265.2783 266.0886 266.1870 266.1870 266.2317
   266.2317 266.8467 267.1200 267.1200 267.3402 267.7908 267.7908 267.8533
   268.1070 268.1070 268.1650 268.2072 268.2487 268.2487 269.6815 269.6815
   269.9145 270.5165 271.8645 272.6707 272.6707 272.9419 272.9419 273.2185
   273.2862 273.6159 273.6159 274.2242 274.2242 274.7959 275.3796 275.3796
   275.8654 276.1422 276.1422 276.8548 276.8548 277.5687 277.5687 277.6618
   277.6738 278.1273 278.1273 278.2962 278.8464 278.8464 279.0732 279.9670
   279.9670 280.0384 280.0603 280.0603 280.3125 280.4733 280.7270 280.9654
   280.9654 281.2986 281.2986 281.3441 281.7319 281.7319 282.0238 282.2034
   282.2034 282.6956 283.6823 283.6823 283.8400 283.8400 283.8513 284.1887
   284.7931 284.7931 284.9862 285.0798 285.0798 285.3887 285.9373 285.9373
   286.4773 286.4773 286.5151 286.5253 286.7249 286.7249 286.7863 287.2068
   287.2068 287.6928 288.4799 288.5046 288.5046 288.6093 288.8484 288.8484
   288.8760 289.7347 289.7347 289.7897 289.8859 289.8859 289.9526 290.8709
   290.8709 291.0704 291.1283 291.1283 291.1802 291.8536 291.8536 291.8575
   292.2824 292.2824 292.7275 293.7517 293.7517 293.8956 294.3860 294.4478
   294.4478 294.7961 294.8525 294.8525 295.3802 295.3802 296.3319 296.8959
   296.8959 297.1206 297.1206 297.2060 297.4228 297.4228 297.4290 297.5941
   297.5941 297.6265 297.8061 297.8061 297.8275 298.1218 298.6686 298.6686
   299.0043 299.1327 299.1327 299.4031 299.4787 299.4787 300.3635 300.3635
   300.6493 300.6493 300.6553 300.7042 302.6739 302.6739 303.0533 303.5868
   303.6244 303.6244 303.8501 303.8501 303.9794 304.0412 304.0909 304.0909
   304.5018 304.5018 304.5790 304.9680 304.9680 305.1789 305.4061 305.4061
   305.6288 305.6288 305.8573 305.9280 306.0168 306.0168 306.6933 306.6933
   306.9789 307.0310 308.0150 308.0150 308.1602 308.4794 308.4794 308.5219
   310.8221 310.8221 310.8410 312.7147 312.7147 312.7326 312.9242 312.9242
   312.9670 315.3645 315.3645 315.5713 315.5768 315.5768 315.8608 316.0390
   316.0390 316.0588 316.5131 318.2470 318.2470 318.2650 318.3700 318.3811
   318.3811 318.7757 319.6941 319.6941 321.2939 321.2939 321.6101 322.2666
   322.2666 323.4249 323.4249 323.7456 323.8602 323.8602 323.9212 326.0826
   326.5743 326.5743 326.6102 326.7483 326.7483 327.2768 327.2768 327.8188
   327.8498 328.5365 328.5365 328.5513 329.0777 329.0777 330.2495 331.7508
   331.7508 331.7781 331.8263 331.8263 332.0700 332.0700 332.3825 332.7086
   332.7086 333.0617 333.0617 333.2040 333.6805 334.0650 334.0650 334.0823
   334.2060 334.3250 334.3250 334.5949 335.3351 335.3351 335.7200 335.7200
   336.0596 336.4759 336.4759 336.8210 336.8789 337.1767 337.1767 337.8001
   337.8001 337.8566 338.3727 338.4121 338.4121 338.7300 338.7300 338.9721
   340.3208 340.3208 341.1695 341.9248 341.9248 342.0274 342.2484 342.2484
   342.2794 343.0198 343.0198 343.0494 344.2195 344.2195 344.2700 344.4819
   344.4819 344.6774 344.8925 345.0875 345.0875 345.6582 345.7881 345.7881
   345.9321 345.9321 346.0802 346.9895 346.9895 347.3529 347.7760 348.0437
   348.0437 349.1762 349.1762 349.4146 349.4444 349.4444 349.6190 349.6379
   349.6585 349.6585 349.7054 349.7054 349.8793 349.9164 349.9164 349.9908
   350.0159 350.0159 350.0590 350.2838 350.2838 350.4990 350.6043 350.6043
   350.6307 352.0215 352.0215 352.0424 352.1098 352.1098 352.1986 352.2027
   352.2027 352.2132 352.9258 352.9945 352.9945 353.0554 353.0554 353.2829
   354.5807 354.5807 354.8023 355.2207 355.2240 355.2240 355.2684 355.3846
   355.3846 355.5203 356.6438 356.6438 356.7543 357.0006 357.0234 357.0234
   357.4363 357.4363 357.6158 358.0913 358.0913 358.1324 358.6989 358.6989
   358.8235 359.5154 359.5154 359.6218 359.6523 359.6523 359.6936 359.8138
   359.8176 359.8176 361.6426 361.8177 361.8967 361.8967 362.1549 362.1549
   362.3386 362.8356 362.8356 363.0855 363.0855 363.0952 363.1169 363.3989
   363.3989 364.0463 364.0463 364.0673 364.8090 364.8090 364.8566 365.0971
   365.0971 365.1126 365.6528 365.6528 365.7605 365.7767 365.7767 365.7907
   365.8073 365.8073 366.0465 366.4413 366.6834 366.6834 366.9133 366.9133
   366.9895 367.2163 367.2163 367.3277 367.5609 367.5609 367.6677 368.7032
   368.7032 368.7086 368.9596 368.9596 368.9697 369.8234 369.8234 369.9135
   370.1364 370.1364 370.2626 370.3664 370.3665 370.3665 370.4719 370.4719
   370.7238 371.2906 371.2978 371.2978 372.2117 372.2155 372.2155 372.4543
   372.4543 372.5353 372.9558 372.9558 373.0407 373.1978 373.2445 373.2445
   373.5267 373.5267 373.5995 374.7888 374.7888 374.7983 374.8232 374.8309
   374.8309 375.4934 375.5019 375.5019 376.3189 376.4376 376.4376 376.6861
   376.6862 376.7740 376.9557 376.9557 376.9838 377.2682 377.2682 377.2747

          k =-0.2500 0.2500-0.2500 (  3263 PWs)   bands (ev):

   -26.8831 -26.8831 -26.8780 -26.8779 -26.8779  -7.5011  -7.5011  -7.4885
    -7.4825  -7.4825  -2.0545   2.2176   8.1262   8.1262   8.5684  11.3258
    11.6732  11.6732  15.2378  16.1659  16.1659  19.3279  19.8391  19.8391
    20.0990  23.6657  23.6657  24.0203  28.4572  28.8709  28.8709  30.3531
    30.3531  31.1902  31.1902  31.3999  32.4834  33.4318  33.6744  34.4880
    34.4880  34.8599  35.4370  35.4370  36.7886  36.7886  36.9388  38.1990
    39.8830  39.9299  39.9299  40.7196  40.7196  42.9961  42.9961  43.7124
    43.7124  44.1611  44.3874  45.4812  45.4812  46.0265  46.3047  46.3047
    47.5717  50.0699  50.8271  50.8271  51.7986  51.7986  51.8247  53.9112
    53.9704  53.9704  54.2814  54.9754  54.9754  57.1923  57.7630  57.7630
    59.0429  59.0631  60.2053  60.2053  61.8754  63.0439  63.0439  63.3969
    63.6950  64.6888  64.6888  65.3531  66.7891  66.7940  66.7940  68.7549
    68.7549  69.2752  69.2752  69.6532  70.3973  70.3973  70.5826  70.5826
    70.9602  71.6076  71.8710  71.9827  71.9827  72.6240  72.6240  73.6837
    73.6837  74.7046  74.7046  74.7460  77.3458  78.3183  78.3183  78.3379
    78.7552  78.8269  79.2052  79.2052  80.4516  80.4516  81.2162  81.2162
    81.6136  82.0758  82.0758  82.0963  82.8146  82.9868  82.9868  83.0999
    84.4406  85.2580  85.2580  86.0873  86.6928  87.4216  87.4216  87.6698
    87.8507  87.8507  88.2778  88.9681  88.9681  90.6564  90.8603  90.8603
    91.4386  91.5166  91.5166  91.8139  92.7852  92.7852  93.2281  94.4664
    94.4664  95.7790  96.2243  96.5310  96.5310  97.4984  97.4984  98.4833
    98.7573  98.7573  99.3896 100.7363 100.7363 102.2091 102.2091 102.4933
   102.8132 102.9783 102.9783 105.2090 105.6295 105.7637 105.8197 105.8197
   106.6067 106.6067 107.4355 108.4693 109.5065 109.5441 109.5441 110.0175
   110.0175 110.3385 110.3385 110.8268 111.1549 111.1549 111.4884 111.8864
   112.9180 112.9180 113.4662 113.4662 114.0905 114.0985 114.0985 115.6440
   115.9925 115.9925 115.9931 117.7503 117.7503 119.1850 119.6920 119.7208
   119.7208 120.2004 120.3159 120.3159 120.8076 120.8076 120.8957 121.2817
   121.2817 122.1394 122.1394 122.2724 122.5778 122.9585 122.9585 123.5123
   123.9505 123.9505 124.1678 124.5615 124.5615 125.0473 125.2416 127.1145
   127.1145 127.3990 127.9466 127.9466 128.6231 128.7047 128.7047 129.5279
   129.5279 129.6470 129.8756 129.9586 130.1784 130.1784 130.6917 130.6917
   131.5706 131.5706 132.3417 132.7118 132.7118 133.0631 133.0831 133.0831
   134.5089 134.8231 135.0729 135.0729 135.5219 136.0867 136.0867 136.5407
   136.8644 136.8644 137.7180 138.7624 138.7624 139.4293 139.4293 140.9419
   141.4853 141.4853 141.7551 141.7551 141.8031 142.0155 142.7079 142.7079
   142.7252 143.0433 143.0485 143.0485 143.5484 144.1560 144.1560 144.2614
   144.2614 144.5440 144.5440 144.7668 144.8628 146.5815 147.8015 147.8015
   148.3043 148.3043 148.6067 149.4382 149.4382 149.6209 149.6669 149.6669
   150.2456 150.8468 152.3900 152.3900 153.4077 153.4077 153.7643 153.7643
   153.9830 155.0959 156.0434 156.0434 157.1311 157.3375 157.3375 157.6047
   158.1039 158.6867 159.7566 159.7566 160.0734 160.4933 160.4933 161.7823
   161.7823 162.0719 162.5802 162.6122 162.6122 162.6733 162.6733 163.6723
   163.8410 164.1437 164.1437 164.4926 164.9648 164.9754 164.9754 165.3256
   165.3256 166.5806 166.5870 166.5870 168.1760 168.1760 168.5528 168.7139
   169.3582 169.3962 169.7575 169.7575 170.5713 170.5713 171.4458 171.4458
   171.8047 172.3499 172.3499 172.8348 172.8348 172.8660 173.2254 173.6095
   173.6095 173.9260 173.9260 174.2136 176.1602 176.1602 176.8227 177.3269
   177.3269 178.7853 178.7853 178.8087 179.3974 179.7685 179.7685 180.4591
   180.8412 180.9876 180.9876 181.7758 181.9098 181.9098 182.2112 182.2112
   182.3759 182.3759 182.6481 182.7560 182.9522 182.9693 182.9693 183.1362
   183.5054 183.5054 184.8711 185.7066 185.7066 186.5945 186.5945 186.8777
   187.5122 187.5122 188.1133 188.1133 188.3074 189.0959 189.2065 189.2065
   189.3579 189.5448 189.5448 189.7339 189.8718 189.8718 190.2934 190.6824
   190.6824 191.1146 191.9155 192.1552 192.1552 192.2667 193.3723 193.3723
   193.6128 193.8741 193.8741 194.0256 194.1864 194.1864 195.0398 195.0398
   195.1512 195.5100 195.6772 195.6772 196.2679 197.0846 197.3672 197.3672
   197.5456 197.5456 198.3604 198.3604 198.4608 198.6762 198.6762 198.6858
   198.7165 199.0120 199.0120 199.2469 199.4196 199.4196 199.4279 201.0887
   201.0887 201.4351 201.8459 201.8459 202.0973 202.5268 202.5268 202.7231
   203.0526 203.0526 203.0592 203.5761 204.5045 204.5045 204.9381 205.0468
   205.0468 205.2697 205.2697 206.0891 207.3467 208.2253 208.5590 208.8581
   208.8581 209.4173 209.4173 209.7677 209.7677 210.6834 211.3614 211.7824
   211.7824 212.3248 212.3248 212.5173 212.9636 212.9636 213.3955 213.7434
   213.7434 214.7488 214.7488 215.0974 215.0974 215.6974 216.3352 216.3352
   216.6684 216.9012 216.9012 217.0152 217.6743 217.7485 218.0625 218.0625
   218.6399 218.6399 219.0375 219.0375 219.1358 219.5215 219.5215 219.8528
   219.8528 219.8903 220.3271 220.5929 220.5929 220.8410 221.5970 221.5970
   221.8499 222.0171 222.0440 222.0440 222.6199 223.6509 223.9997 224.1219
   224.1219 224.8559 224.8559 226.5837 226.5837 227.3053 227.5576 227.5576
   227.5734 228.2765 229.0359 229.0359 229.1635 229.2326 229.2326 229.5024
   230.1421 230.1421 230.6586 230.7743 230.7743 231.3601 231.3601 232.1071
   232.1071 232.1278 232.9712 233.1959 233.1959 233.4616 234.8180 235.3498
   235.3498 236.0251 236.0251 236.2398 237.2455 237.3231 237.3231 238.1638
   238.7898 238.8303 238.8303 238.9605 238.9605 239.3728 240.5807 240.5807
   241.0630 241.6648 241.6648 242.2153 242.7920 242.8195 242.8195 243.6862
   243.8572 243.8572 243.9417 243.9417 244.6512 245.7801 245.7801 246.0937
   246.1103 246.1855 246.1855 246.4664 246.4664 246.6152 246.7679 246.7679
   246.8301 247.0328 247.0328 247.5851 247.6461 247.6461 248.0504 248.0504
   248.1061 248.7716 249.3759 249.3759 249.7014 249.7014 250.2346 250.7147
   250.7147 250.8810 251.2445 251.6613 251.6934 251.6934 252.6439 252.9728
   252.9728 253.3555 253.3555 253.9347 254.9354 255.4421 255.4421 255.9017
   256.1098 256.1098 256.1167 256.3803 256.3803 257.0111 257.0111 257.6156
   258.2001 259.4544 259.4544 259.5793 260.1369 260.6303 260.6303 260.9024
   261.1622 261.1622 261.4168 261.5275 261.5275 261.9148 261.9187 261.9187
   262.0414 262.0414 262.0818 262.9773 262.9773 263.2119 263.3151 263.3151
   263.4804 263.5320 263.5320 264.6990 264.6990 265.7534 266.2699 266.2699
   266.3441 266.3441 266.6513 267.0474 267.3305 267.3305 267.5806 267.5870
   267.5870 268.0383 268.3679 268.3679 268.5490 268.5490 268.6374 268.7174
   269.2177 269.2177 269.8592 269.8592 269.8872 270.0438 270.6020 270.6020
   270.7062 270.8256 270.8256 270.8861 270.8861 270.9575 271.0747 271.3900
   271.3900 271.7937 272.2518 272.2518 272.3024 273.2804 273.2804 273.6200
   273.7174 273.7417 273.9867 273.9867 274.0804 274.0804 274.4508 274.4508
   275.0456 275.1808 275.1808 275.5232 275.7669 276.6684 276.6684 277.0716
   277.2546 277.2546 277.3919 279.5383 279.5383 280.4887 280.4887 280.5576
   280.6102 281.7937 281.7937 281.8336 281.8508 281.8508 281.9606 281.9606
   281.9649 282.2195 282.2195 282.7326 283.2810 283.3138 283.3138 284.2551
   284.2551 284.3530 284.8438 284.8916 284.8916 284.9644 284.9644 285.0763
   285.1760 286.0640 286.0640 286.6310 286.6310 287.0872 287.1658 287.1658
   287.2670 287.3166 287.3166 288.0751 288.9298 288.9298 289.0025 289.4769
   289.7971 289.7971 290.3463 290.6056 290.6056 290.8473 290.8473 290.8965
   291.2540 291.3066 291.3070 291.3070 291.5727 291.5727 292.0892 292.5684
   292.5684 292.6578 293.0522 293.0522 293.3428 293.7980 293.7980 293.8209
   295.9948 295.9948 296.0308 296.6805 296.6805 297.1606 297.2876 297.2876
   298.0399 298.8699 298.8699 298.8873 299.2238 299.2238 299.4221 299.4594
   299.4594 299.5840 300.2161 300.2161 300.2379 300.3363 300.3450 300.3450
   301.0869 301.0869 301.2035 302.5998 302.5998 302.6510 303.0096 303.0096
   303.0447 303.9427 303.9427 304.0856 304.2162 304.2162 304.2721 304.3140
   304.4986 304.4986 305.0434 305.2304 305.2304 305.4767 305.5650 305.5650
   305.5879 306.1994 306.1994 306.3927 306.8571 306.8571 308.7831 308.7831
   308.8185 309.9598 309.9598 310.0161 310.8470 310.8470 310.9710 311.2462
   311.2462 311.3341 311.5012 312.4776 312.4776 312.7734 313.0762 313.0972
   313.0972 313.1088 313.3873 313.3873 313.6643 313.8220 313.8220 313.8221
   314.1613 314.1613 316.9015 316.9015 316.9780 317.4759 317.4759 317.6539
   317.8313 317.8313 318.9253 318.9253 319.1766 319.1766 319.8919 319.8919
   320.0800 320.5642 320.6466 321.0665 321.0665 321.2021 321.2021 321.2150
   321.2150 321.2638 321.2806 321.4112 321.4112 321.4533 321.8687 322.1684
   322.1684 322.6819 322.7371 322.7371 322.8205 324.4858 324.4858 324.7608
   325.4490 325.6514 325.6514 325.8557 325.8557 325.9972 328.5052 328.5052
   329.1364 330.2640 330.2640 330.3706 330.7244 330.9698 330.9698 331.2234
   331.5505 331.5505 331.8582 332.5863 332.5863 332.7834 332.9834 332.9834
   333.0990 334.0595 334.0595 334.1961 334.1961 334.3762 334.7979 334.8470
   334.9581 334.9581 335.4352 335.7667 335.7667 335.8788 335.8899 335.8899
   336.5882 336.5882 336.6809 337.0958 337.0958 337.1799 337.9772 337.9772
   338.4054 338.4054 338.7255 339.9694 339.9694 340.0551 340.6019 340.6019
   341.0832 341.2441 341.2441 341.3127 341.7047 341.9194 341.9194 342.0703
   342.0703 342.0993 342.6169 342.6582 342.6582 343.3496 343.8609 343.8609
   344.0741 344.0741 344.1286 344.2025 344.3468 344.3468 344.4817 344.4817
   344.5492 345.4049 345.4049 345.4461 345.5845 345.9193 345.9193 346.0014
   346.1599 346.1599 346.3858 346.3858 346.3868 347.0006 347.0006 347.0064
   347.6638 348.8764 348.8764 349.0485 350.3514 350.3514 350.4676 350.5383
   350.5383 350.6182 350.7027 350.7027 350.7374 350.9555 351.0115 351.0115
   351.1870 351.1870 351.3181 351.8364 351.8364 351.8400 352.7674 352.7764
   352.7764 353.6300 353.6458 353.6458 354.3125 354.3125 354.5096 355.2996
   355.2996 355.3202 355.9971 355.9971 356.3495 356.3495 356.3652 356.8802
   357.0815 357.0815 357.2469 357.2469 357.3268 357.3399 357.3399 357.3482
   357.5102 359.0835 359.7604 359.7604 360.0297 360.0553 360.0553 361.1365
   361.1365 361.3093 361.3093 361.3481 361.4464 361.8946 361.8946 361.9447
   362.4588 362.4588 362.4755 362.7310 362.7310 362.8802 363.0014 363.2218
   363.2218 363.7259 363.7259 363.7882 364.3849 364.3849 364.4274 364.5290
   364.5290 364.5897 365.0020 365.0020 365.0301 365.5234 365.5234 365.5438
   366.5346 366.5346 366.5788 367.3888 368.4648 368.4648 368.5309 369.2209
   369.2209 369.5139 369.5469 369.5469 369.8338 369.8338 369.8649 370.0201
   370.0201 370.0782 370.6131 371.7331 371.7331 371.7806 371.7806 371.8065
   371.8685 372.2066 372.2066 372.2125 372.2125 372.2138 372.2527 372.2958
   372.2958 372.8444 373.4504 373.4504 373.5047 374.3950 374.6079 374.6079
   374.7422 374.7422 374.7962 375.1532 375.1532 375.2689 375.2730 375.2730
   375.4318 375.4318 375.4622 375.5091 376.9980 376.9980 377.4228 377.4228
   377.4259 377.6974 377.6974 377.7179 378.1656 378.1656 378.4396 378.4512
   378.6127 378.6127 378.8278 378.8278 379.1202 379.8433 379.8433 379.9236

          k =-0.3750 0.3750-0.3750 (  3260 PWs)   bands (ev):

   -26.8830 -26.8830 -26.8779 -26.8778 -26.8778  -7.5060  -7.5060  -7.4878
    -7.4770  -7.4770  -1.5376   1.2696   8.3013   8.3013   8.9416  10.4114
    10.8652  10.8652  16.2791  17.3804  17.3804  19.7638  21.1394  21.1394
    22.2792  22.2792  22.5984  23.9522  27.5819  27.5819  28.8670  29.1839
    30.2542  30.2542  30.4597  31.1025  31.1025  31.8191  31.8780  33.4311
    33.4311  34.2641  34.2641  34.5979  36.1665  38.0517  39.2755  39.2755
    39.4806  39.4806  41.0053  41.0053  43.1291  43.1291  43.3107  44.3780
    45.4727  45.4727  46.4575  46.4575  46.7922  46.8885  48.0100  48.0100
    49.6577  50.6298  51.2037  51.2037  51.8420  51.8420  51.9193  52.7923
    53.1405  53.1405  55.5314  55.5314  55.9970  55.9970  56.1001  57.2543
    57.2543  57.3159  58.2161  58.3485  59.9147  61.7220  62.4118  62.4118
    62.4797  65.2839  65.2839  65.3757  65.5167  65.5167  66.5435  66.9464
    66.9464  68.2663  68.2663  68.4872  69.5396  69.5396  70.9869  70.9869
    71.9616  72.0419  72.0419  72.6818  73.0918  73.0918  73.5334  74.3033
    75.5587  75.5587  76.3582  76.5656  76.5656  76.6297  77.1145  77.1813
    77.1813  78.5572  78.5572  79.6004  79.7760  79.7760  80.2205  81.3019
    82.3956  83.4588  83.4588  84.3243  84.3243  84.8233  84.8776  84.8776
    85.4242  85.7923  85.7923  86.9830  87.2651  87.2651  87.4997  87.4997
    88.0620  88.4429  88.7212  88.8670  88.8670  90.5927  90.5927  90.9265
    90.9265  91.1216  91.9014  92.5704  92.5704  93.7603  94.3380  95.1998
    95.1998  95.6439  96.6078  96.6078  97.7852  97.7852  98.1782  98.5166
    98.6568 100.0996 100.0996 100.9575 101.3613 101.3613 101.6569 102.6436
   102.6436 103.6047 104.5327 104.7795 104.7795 105.1794 105.4845 105.4845
   106.5966 106.5966 106.8812 106.8812 107.4908 107.5542 107.8033 107.8033
   109.0167 109.0167 109.7750 110.1442 110.9209 110.9209 111.1769 111.5357
   113.3911 113.3911 114.5309 114.5309 114.8939 115.1321 115.1321 115.9329
   115.9686 115.9686 116.0750 116.0750 116.7254 116.8307 116.8307 117.3113
   118.2394 118.5908 118.6444 118.6444 119.4007 119.4007 120.5320 121.3035
   121.4832 121.4832 122.0820 122.0820 122.2194 123.1016 123.1016 123.5791
   123.7715 123.7715 124.3532 124.3532 124.5469 125.0196 125.0196 125.1147
   125.6738 126.3081 126.3081 128.1064 128.7196 128.9130 128.9130 129.1961
   129.1961 129.6302 129.6302 129.9701 130.1096 130.1096 131.0187 131.4567
   131.4567 132.0533 132.5682 133.0253 133.0253 133.3392 133.9452 133.9452
   134.2718 134.3887 134.3887 134.8344 136.7202 136.7202 138.0538 138.6110
   138.6110 138.8724 138.8822 139.5108 139.5108 139.6594 139.6903 139.6903
   140.8266 140.8645 140.8645 141.4184 141.9500 142.7316 142.7316 142.8585
   143.7671 143.7671 143.8825 144.5050 144.5050 146.3307 146.3307 147.6449
   147.6449 147.8335 147.8860 147.9047 147.9047 147.9918 148.4725 148.9679
   148.9679 149.9382 149.9382 150.3540 150.3540 150.4455 151.1551 151.1571
   152.0882 152.0882 153.0666 153.0666 153.7886 154.7950 154.9697 154.9697
   155.7273 155.7273 156.0235 156.0235 156.1786 157.2954 157.2954 157.3482
   157.5129 157.8993 158.2223 158.2223 159.6067 159.8063 159.8063 160.2676
   160.2676 160.9152 160.9152 161.0221 161.6804 161.8468 161.8468 162.4093
   162.8215 163.8703 163.8703 163.9998 163.9998 164.2449 166.3951 166.5823
   166.5823 166.8330 167.3171 167.3171 167.8027 167.8027 167.8949 167.8949
   168.1713 168.7641 168.9117 169.1834 169.1834 169.2311 169.9747 169.9747
   171.0451 171.0451 171.4168 171.4168 171.6972 172.1125 172.7737 172.7839
   172.7839 173.8227 174.1941 174.1941 174.6127 174.6127 175.1889 175.9254
   176.2102 176.2102 176.4336 176.4336 177.0498 177.5387 177.8020 177.8020
   177.8973 179.9864 179.9864 180.1084 180.2258 180.2258 181.0543 181.7050
   181.7050 181.9913 181.9913 182.8803 182.8803 183.0511 183.1488 183.4243
   183.4243 183.9202 183.9202 183.9228 184.3764 184.7580 184.7580 185.2678
   186.0288 186.0288 186.6355 186.6355 186.6708 187.2277 187.3559 187.3559
   187.3891 187.5807 187.5807 187.6545 189.0234 189.0234 189.5000 189.5000
   190.5494 190.9378 191.2785 191.2785 192.2795 192.8426 193.5378 193.5378
   194.2851 194.7963 194.7963 195.6415 195.6415 195.9258 196.0894 196.2387
   196.4093 196.4093 197.2322 197.9270 197.9270 198.1718 198.2804 198.2804
   198.6256 199.1127 199.1127 199.2931 199.5774 199.5774 199.6197 199.9824
   199.9824 200.2032 200.2032 201.0222 201.1930 201.1930 201.2558 202.7191
   202.7191 202.7675 203.0864 203.0864 203.7016 204.0891 204.6214 204.6214
   204.9231 204.9231 205.2398 205.2398 206.3784 206.5339 206.9846 206.9846
   207.9160 207.9160 208.1509 208.7212 208.8206 208.8206 209.0319 209.0319
   209.1768 209.6856 209.6856 209.8755 209.8755 210.1504 210.2714 211.4652
   212.6620 213.0053 213.0053 213.5366 213.5366 213.9766 214.6810 214.9044
   214.9044 215.8739 215.8739 216.4567 216.5549 216.5549 216.6284 216.6284
   216.6671 216.8921 216.9359 216.9359 217.8401 218.3515 218.3515 218.7124
   219.8919 219.8919 220.2131 220.3966 220.5326 220.5326 221.2311 221.2311
   221.3593 221.8894 221.8894 221.9724 222.0903 222.4869 222.5163 222.5163
   222.6256 222.6256 223.2377 223.7770 223.7770 223.8696 224.5125 224.5125
   224.7155 225.2634 225.2634 225.7427 226.9620 226.9620 227.2840 227.7068
   227.7068 228.0960 228.4416 228.6015 228.6015 228.7727 228.7727 230.1053
   230.5199 230.5199 230.6544 230.6544 230.7767 230.7767 231.4671 232.0938
   232.2859 232.2945 232.2945 232.6529 232.6529 232.8170 233.0592 233.2233
   233.2233 233.6684 234.3117 234.4418 234.4418 235.2603 236.2772 236.2772
   236.8184 236.8184 237.3079 237.4806 237.4806 237.6156 237.6371 237.6371
   238.2943 239.1783 239.4370 239.4370 239.5993 239.9700 239.9700 241.0214
   241.5179 241.5179 242.1012 242.1012 242.9839 243.3197 243.3231 243.3767
   243.3767 243.9084 243.9084 244.9823 244.9823 246.4390 246.4390 246.4493
   246.4708 246.7675 246.9739 246.9739 247.8815 247.8815 248.3773 249.7831
   249.7831 250.0795 250.0795 250.6744 250.8179 250.9557 250.9557 251.2983
   251.8152 251.9337 251.9337 252.0153 252.4125 252.6778 252.6778 252.7786
   252.7786 253.9549 253.9549 254.1140 254.1140 254.4519 254.4519 254.5495
   254.6407 255.7206 255.9759 256.2985 256.2985 256.4229 257.2852 257.2852
   259.1167 259.1167 259.7956 260.3152 260.3152 260.9272 260.9272 261.0025
   261.0966 261.2675 261.2675 261.5469 261.6544 261.6544 261.8597 261.9654
   261.9654 262.1564 262.2293 262.6038 262.6038 263.0778 263.1699 263.1699
   263.2484 263.7048 263.7048 264.3336 264.4473 264.4473 264.8015 264.9088
   264.9088 265.0564 265.3050 265.4115 265.4115 265.4727 266.0600 266.0600
   266.3353 267.4120 267.4120 267.8128 267.8128 267.8914 268.0763 268.3561
   268.3561 268.6595 268.6595 268.7007 268.8534 268.8534 269.1446 269.1446
   269.2331 269.8429 269.8429 269.9183 270.9313 270.9313 271.1238 271.6174
   271.7870 271.7870 271.9719 273.4085 273.4085 273.4605 273.5275 273.5275
   273.6169 273.8116 273.8116 274.6737 274.6737 274.7647 275.1372 275.1372
   275.2057 275.3365 275.6479 275.7069 275.7069 276.0990 276.0990 276.8312
   277.3006 277.3006 277.8037 277.8037 278.0657 278.1037 278.1037 278.2168
   279.1249 279.1249 280.2200 280.6289 280.6289 280.7108 280.7108 280.7379
   280.7747 283.2249 283.2249 283.6510 283.7556 283.7556 284.6292 284.6292
   284.6319 285.2223 285.5279 285.5279 286.1483 286.1622 286.1622 286.5794
   286.5794 286.5813 286.8619 288.2754 288.2754 288.5640 288.6156 288.6156
   288.6644 290.6909 290.7380 290.7380 291.2503 291.2503 291.2603 291.3988
   291.4382 291.4382 291.6933 291.6933 291.7901 291.8909 291.9278 291.9278
   292.3722 292.4931 292.4931 292.5332 293.4476 293.4476 293.6590 293.9432
   293.9432 295.1757 295.1757 295.5269 295.5669 295.5669 296.0993 296.0993
   296.1081 296.4309 297.0927 297.2353 297.2353 297.6005 297.6005 297.6479
   298.0785 298.3070 298.3070 298.4481 298.4638 298.4638 299.9640 299.9640
   300.0276 300.1154 300.1154 300.1447 300.6646 300.7139 300.7139 300.8142
   301.3416 302.8054 302.8054 303.2523 303.3719 303.3719 303.6652 303.6652
   303.8358 303.9174 303.9860 303.9860 304.0670 304.2817 304.2817 306.7168
   306.7168 306.7680 307.4340 307.4340 308.1803 308.2038 308.2038 308.3139
   308.3139 308.3427 309.1219 309.1219 309.2165 309.3893 309.8703 309.8745
   309.8745 310.8795 310.9099 310.9099 311.1793 311.1793 311.1928 311.8222
   311.8222 313.2134 313.2134 313.4293 313.4929 313.7575 313.7575 313.8605
   314.0037 314.0037 314.0276 314.1800 314.1800 314.2283 314.5851 314.5851
   314.7675 315.4356 315.4356 315.6094 315.7043 315.7043 315.8331 316.0638
   316.0638 316.1912 317.4199 317.4199 317.4665 321.2300 321.2300 321.2848
   321.3210 322.0425 322.0425 322.1794 322.3940 322.3940 322.4570 322.4570
   322.6710 322.6710 322.7788 322.9451 323.1555 323.1555 323.3592 323.4346
   323.4358 323.4358 324.5231 325.3423 325.3423 325.5639 325.5639 325.7297
   325.7856 326.5992 326.5992 327.3693 327.3756 327.3756 328.8383 329.5566
   329.5566 330.1535 330.1535 330.1840 330.3537 330.3537 330.4219 330.4219
   330.4365 330.5262 330.7954 330.9028 330.9028 331.0369 331.0369 331.0399
   331.1434 331.3738 331.3738 331.8996 332.1190 332.3538 332.3538 332.9533
   332.9533 333.2038 333.2038 333.3300 333.3300 333.5415 333.9225 334.0744
   334.1629 334.1629 334.3216 334.3216 334.3631 334.3631 334.5039 334.7677
   335.2993 335.7921 335.9521 335.9521 336.0163 336.4730 336.4730 337.2997
   337.2997 337.5697 338.6823 338.6823 338.8758 339.1067 339.1067 339.2329
   339.8120 339.8120 339.8648 340.1560 340.1560 340.2296 340.5943 340.5943
   340.6433 342.9748 342.9748 342.9975 343.2655 343.2655 343.2933 343.3540
   343.3540 343.5816 343.8183 343.9832 343.9832 344.1944 344.1944 344.3115
   344.3115 344.3228 344.3575 344.3575 344.3576 344.6231 345.6595 345.6595
   345.6912 345.7748 347.1352 347.1352 347.2068 350.5063 350.5063 350.7783
   351.3283 351.3283 351.3505 352.5359 352.7834 352.7834 352.8911 352.8911
   353.2526 353.2526 353.3579 353.3579 353.3647 353.4126 353.4647 353.5163
   353.5163 353.6530 353.9900 353.9900 354.0604 354.1520 354.1520 354.2140
   355.0097 355.0097 355.3352 355.3352 355.3663 355.4573 355.4591 355.4591
   355.8922 355.8922 355.9097 357.1973 357.1973 357.2261 357.4969 357.4969
   357.6397 357.6397 357.6421 357.7253 358.4341 358.7880 358.7880 358.8626
   358.8626 358.9984 358.9984 359.0246 359.0412 361.1026 361.1026 361.2453
   361.3391 361.3391 361.5145 362.1882 362.1882 363.6250 363.6250 363.6300
   363.7110 363.8905 363.8905 364.1135 364.8895 364.9245 364.9245 364.9647
   364.9647 365.2783 365.2860 365.2860 365.9478 366.2588 366.2588 366.2725
   366.3287 366.3745 366.3745 366.6990 366.6990 367.0080 367.3504 367.3866
   367.3866 367.5197 367.5197 367.6005 368.0492 368.0492 368.0563 368.1851
   368.1851 368.1902 369.9230 369.9245 369.9245 369.9484 369.9498 369.9498
   370.8125 370.8125 371.3571 371.4016 371.6666 371.6666 372.3845 372.7319
   372.7319 373.4193 373.4193 373.6100 374.0056 374.0056 374.1043 376.0838
   376.0838 376.1359 376.1359 376.1399 376.1592 376.3462 377.9497 378.2996
   378.2996 378.5074 378.5185 378.5185 378.7579 378.7579 378.9516 379.6497
   379.6497 379.7773 379.9601 379.9601 379.9690 381.9276 381.9276 381.9443
   382.2501 382.2501 382.3881 382.7991 382.7991 382.9961 383.1561 383.1562

          k = 0.5000-0.5000 0.5000 (  3274 PWs)   bands (ev):

   -26.8830 -26.8830 -26.8779 -26.8777 -26.8777  -7.5080  -7.5080  -7.4875
    -7.4747  -7.4747  -1.2091   0.7800   8.4043   8.4043   9.1740   9.9798
    10.5380  10.5380  17.5677  18.3818  18.5284  18.5284  19.7628  19.7628
    23.9255  23.9255  25.3243  25.6746  25.7188  25.7188  26.1009  27.9418
    29.8340  30.9430  31.1366  31.1366  31.2585  31.2585  31.7040  32.0626
    32.0626  34.0707  34.0707  34.6403  35.9421  37.9377  39.1800  39.1800
    40.6618  40.6618  40.9592  40.9592  44.1079  44.3100  44.3100  45.2890
    45.2890  46.6390  46.6390  47.1794  47.2915  47.4723  48.7277  49.1146
    49.1146  50.8255  50.8255  50.9097  50.9097  50.9397  51.4874  52.3212
    53.2381  53.2381  54.0041  54.0041  55.4560  56.5708  56.5708  56.9562
    57.8471  58.5152  59.4836  59.4836  60.4831  60.4831  61.1425  62.0017
    62.0879  63.3921  63.3921  64.5834  65.4812  66.1342  66.1342  66.3965
    66.3965  67.4463  67.4463  68.5560  68.5560  68.8938  72.1770  72.1770
    72.7021  72.8938  72.8938  73.0135  73.6469  74.4672  74.9131  74.9131
    75.0119  75.0119  75.4087  75.4087  75.6755  76.4412  76.4412  76.5797
    77.1068  77.7699  77.9036  80.0847  80.0847  80.8230  80.8230  81.1589
    81.6960  81.6960  83.5860  83.9443  83.9443  85.5131  85.5131  85.6506
    85.6506  86.2777  86.5962  86.8484  87.0838  87.0838  88.4782  88.4782
    88.5769  88.5975  88.9807  90.6536  90.6536  90.7050  90.7050  92.2778
    92.6885  92.6885  92.8116  93.4188  93.6942  93.6942  94.1748  95.2389
    95.2389  95.3742  95.3742  96.5516  96.9319  96.9319  97.4081  98.1104
    98.5410  98.5410 100.9763 101.1762 101.2164 101.6105 101.6105 101.6577
   101.6577 102.4397 102.9940 103.1814 103.1814 103.4868 103.8565 103.8565
   106.1478 106.2472 107.5843 107.5843 108.4392 108.4392 109.4153 109.7600
   109.7600 110.3378 110.3378 111.3529 111.3529 112.2697 112.2697 112.4451
   112.4673 112.9981 112.9981 113.4888 113.7535 113.8561 115.2076 115.2076
   115.2844 115.2844 115.3966 115.9583 116.4868 116.4868 116.8497 116.8497
   118.0239 118.7050 119.2347 119.2347 120.0531 120.0531 121.0472 121.0472
   122.0373 122.0373 122.2653 122.2653 122.2964 122.4404 122.9337 122.9337
   123.1666 123.3917 123.3917 123.9901 124.2744 124.2744 124.9266 124.9516
   124.9516 125.7161 126.5184 126.7430 126.8809 127.2525 127.2525 127.3620
   127.3620 128.7202 128.7202 129.6823 130.5535 132.4263 132.9145 132.9145
   133.2420 133.2420 133.5101 133.8089 133.8089 134.9395 135.1565 135.3366
   135.3366 135.6708 135.8797 135.9869 135.9869 136.4383 136.7906 136.7906
   136.8613 137.0795 137.0795 137.3562 137.3798 137.3798 137.9149 137.9149
   140.1374 140.1374 140.5474 142.1124 142.4048 142.4048 145.7159 146.3449
   146.3449 146.7710 146.7710 147.5905 148.0118 148.0118 148.1843 148.1843
   148.3229 148.6222 148.6528 148.6929 148.7257 148.7257 148.9376 149.3393
   150.6077 150.6077 150.9116 150.9116 151.3184 151.4366 152.4255 153.0400
   153.0400 153.3214 153.4879 153.4879 154.1642 154.1642 154.3064 154.6531
   154.6531 154.8981 154.9512 154.9512 155.5001 155.5001 156.5614 156.6308
   156.9201 156.9201 158.6979 158.6979 158.7255 158.7255 159.9983 159.9987
   160.0012 160.0012 161.4945 161.4945 162.5323 163.7197 163.7197 164.0609
   164.3742 164.3742 164.7777 164.7777 164.8597 164.8597 164.9328 165.3953
   165.4444 165.4444 165.6125 165.7992 165.7992 166.0367 166.0367 166.3893
   166.6260 167.9597 167.9597 167.9674 167.9674 168.0209 168.1027 168.4991
   168.9681 170.1819 170.1819 170.5046 170.5046 172.2573 172.2573 172.2615
   172.4755 172.6184 172.7234 172.7234 174.0032 174.0032 175.8549 176.1425
   176.1425 176.6762 176.8310 176.8310 177.4570 177.4570 177.9013 178.1740
   178.1740 178.4922 178.5566 179.6621 179.6621 180.4388 180.4388 180.8409
   181.2126 181.7541 181.8937 182.1973 182.1973 183.6066 183.6066 184.3050
   184.5334 184.7010 184.7010 184.8682 184.8682 184.9954 185.0360 185.0360
   185.3133 185.4613 186.7658 186.7658 187.0516 187.1150 187.2156 187.2156
   187.8359 188.1740 188.1740 188.2478 188.2478 188.6855 189.1222 189.1222
   190.1176 190.1176 190.8058 191.5089 191.5089 191.8798 192.5626 192.5626
   193.0260 193.0260 194.2074 194.3381 194.9146 194.9146 196.0869 196.0869
   196.5002 197.1518 197.1518 197.9318 197.9318 198.0202 199.1196 199.4445
   199.4445 199.4534 199.4534 199.6197 200.1495 200.1495 200.3251 200.9706
   200.9706 200.9978 201.0151 201.1200 201.1200 201.2177 201.9262 201.9262
   202.7897 202.8906 202.8906 203.5709 204.5894 204.5894 204.7803 204.8789
   205.3598 205.3598 207.7855 207.7855 208.0168 208.0168 208.3023 208.3023
   208.4286 208.6560 209.9280 211.0023 211.0614 211.0614 211.1470 211.2730
   211.2730 211.3646 211.3646 211.6289 212.3050 212.5118 212.5118 212.9557
   212.9653 212.9653 213.5893 213.6811 213.6811 213.6926 214.2269 214.2269
   214.3537 214.7196 214.7196 214.7422 214.9825 214.9825 215.1393 216.3511
   216.7357 217.6966 217.7231 217.7231 217.9578 217.9578 218.0282 218.0282
   218.2746 218.2746 218.5752 218.6422 219.7170 219.7914 219.9681 219.9681
   219.9874 219.9874 220.3862 220.3862 220.4897 220.4897 220.4936 220.7319
   224.5561 224.5561 224.9879 225.1718 225.3701 225.3701 225.6260 225.6260
   226.3889 226.3889 226.6859 227.0716 227.1143 227.1143 227.2826 227.2826
   227.3221 227.4312 228.5088 228.6603 228.6603 228.8027 228.8027 228.8832
   228.9579 229.2996 229.2996 231.0989 231.0989 231.6031 231.6031 231.9406
   232.3274 232.3274 232.9499 233.0764 233.0764 233.1810 233.3073 233.9434
   234.7937 234.7937 236.0492 236.1624 236.1624 237.0545 237.0678 237.0678
   237.1224 237.1678 237.1678 237.2526 237.3414 237.3414 238.2381 238.2381
   238.7154 238.7154 239.0673 239.0673 239.0764 239.2834 241.3250 241.3250
   241.5066 241.5066 242.2194 242.2194 242.2593 242.2593 242.3508 243.4934
   243.5621 243.6376 243.6376 243.7346 243.7385 244.0887 244.3851 245.2685
   245.3725 245.4491 245.4491 246.1617 246.1617 246.5373 246.5373 246.6107
   246.6107 247.1931 249.6272 249.8091 250.0035 250.0035 250.0196 250.0196
   250.1180 250.1274 250.6751 250.6943 250.6943 251.9068 252.2949 252.2949
   254.4192 254.4192 255.8763 255.8763 255.8990 255.8990 256.8558 256.8558
   257.1236 257.7653 257.8285 257.8285 258.2024 258.4789 258.4997 258.6086
   258.7097 258.7097 258.9494 258.9494 259.2373 259.2373 260.2523 260.2523
   260.4034 260.4034 260.6058 260.6058 260.7318 261.2713 261.2713 261.4372
   261.5201 261.5302 261.8648 261.8648 261.8874 261.9592 261.9592 262.0098
   262.0606 262.2722 262.2722 262.2923 262.2923 262.3179 262.8012 262.8012
   262.9671 262.9844 262.9844 263.0062 264.6470 264.6470 264.8199 265.0524
   265.0797 265.1315 265.1315 265.5064 265.5064 265.6228 265.6228 265.6906
   268.1914 268.1914 269.1195 269.1195 269.1573 269.2272 270.5197 270.5197
   270.7058 270.7058 271.0708 271.1869 272.7038 272.7038 273.6320 273.6320
   273.7638 273.9080 273.9672 273.9672 274.0717 274.3144 274.3144 274.3605
   274.5958 274.9424 274.9424 274.9910 274.9910 275.2736 276.5443 276.5443
   276.5591 276.7569 276.7569 276.8785 277.0085 277.0085 277.1390 277.1408
   277.3174 277.3174 277.6496 279.2961 279.6330 279.6330 279.9902 279.9902
   280.4473 280.6686 281.0029 281.0029 281.2083 281.2083 282.2326 282.2326
   282.7237 282.9016 282.9016 283.1080 283.4756 283.4756 283.5314 283.5314
   283.6610 283.7164 283.8356 284.6259 285.5978 285.5978 286.1779 286.1779
   286.1904 286.3345 286.3983 286.3983 287.6951 287.6951 288.9144 289.0807
   290.7454 290.7454 290.7833 290.7833 291.0836 291.0836 291.2204 291.2340
   291.2340 291.2738 291.5871 291.5871 291.8826 291.8826 292.0339 292.9701
   293.1994 293.1994 293.3925 293.3925 293.4600 293.4794 294.0095 294.1267
   294.1267 294.1597 294.1597 294.3151 296.0370 296.0370 296.2983 296.2983
   296.3645 296.3759 296.5265 296.5265 297.2291 297.4016 297.4016 297.6133
   297.6181 297.6181 297.7324 297.7324 297.8076 298.2678 301.7143 301.7143
   301.9249 301.9249 302.3916 302.3987 302.8269 302.8269 302.8683 302.8683
   302.9058 303.0099 303.6866 303.6866 303.8625 303.8625 303.9307 303.9395
   304.3832 304.3832 304.5129 304.5129 305.4254 306.2057 306.3445 306.3490
   306.3490 306.3652 306.3652 306.3742 307.9677 308.2258 308.2258 308.5923
   308.7781 308.7781 309.4674 309.4674 309.4821 309.4888 309.5702 309.5702
   309.7727 309.8244 309.8244 310.0123 310.0123 310.2174 312.9592 312.9592
   312.9746 312.9746 313.0814 313.0815 314.7780 315.1870 315.5696 315.5696
   315.8173 315.8173 316.4194 316.4322 316.5128 316.5128 316.6126 316.6126
   316.6733 317.0889 317.0889 317.0897 317.0989 317.0989 317.3385 317.8011
   319.6969 319.6969 320.0047 320.0047 320.0263 320.0263 320.1006 320.1139
   320.1139 320.2259 320.5675 320.5819 320.6576 320.7011 320.9273 320.9273
   320.9931 320.9931 322.7856 322.9283 323.0258 323.0258 323.0574 323.0574
   323.0594 323.0594 323.5387 323.5387 323.6222 323.7018 323.7018 323.7855
   323.7856 323.7928 323.8346 323.8346 325.7920 325.7920 325.8794 325.8880
   325.8880 325.9055 326.5570 326.5570 326.5650 326.5650 326.5894 326.6184
   330.3799 330.3799 331.0865 331.4627 331.4627 331.9251 332.4746 332.4772
   332.4772 332.5042 332.5042 332.7316 332.7575 332.7575 332.7893 332.7893
   332.8788 332.8811 333.3011 333.3011 333.5711 333.5711 333.8246 333.8745
   334.1541 334.4961 334.4961 335.3815 335.3815 335.4416 336.7376 336.8092
   336.8092 336.9954 336.9954 337.1586 337.9570 338.0534 338.0534 338.0831
   338.0831 338.1330 338.4857 338.4857 338.5405 338.5684 338.5684 338.5778
   338.7209 338.8184 339.2351 339.2351 339.3084 339.3863 339.4212 339.4212
   340.8462 340.8462 341.1010 341.1010 343.5181 343.5181 343.5546 343.7715
   343.8629 343.8629 344.3863 344.6264 344.6264 344.6470 344.6775 344.6775
   345.8941 345.8941 346.0555 346.0580 346.0580 346.2357 346.7181 346.7181
   346.7795 346.7795 346.7972 346.8393 347.0753 347.0753 347.0967 347.0967
   347.5473 347.5510 347.9105 347.9105 347.9119 347.9119 349.0130 349.0131
   352.1251 352.1251 352.2611 352.4368 352.4368 352.5455 353.2157 353.2157
   353.2790 353.2984 353.2984 353.3932 354.8472 354.8472 355.3710 355.4648
   355.4648 355.6941 355.7704 355.7704 355.7870 355.8443 355.8443 355.9245
   356.1341 356.1341 356.4337 356.4337 356.5004 356.5321 356.5719 356.5719
   356.6340 356.6340 356.6517 356.7509 357.3666 357.3666 357.4313 357.4313
   357.4448 357.4845 359.6508 359.6508 359.6685 359.7092 359.7092 359.7243
   360.8023 360.8758 364.6705 364.6705 364.8175 364.8269 364.8269 364.9021
   365.0299 365.0299 365.1201 365.1346 365.1346 365.4089 365.8707 365.9205
   365.9205 366.0764 366.0764 366.1678 366.1678 366.2996 366.3269 366.3271
   366.3271 366.3303 366.4979 366.5661 366.5661 366.5731 366.5731 366.5787
   368.0268 368.0268 368.0360 368.0360 368.1191 368.1191 368.1215 368.1215
   368.1323 368.1342 368.4817 368.4852 368.4852 368.5550 368.5550 368.5553
   369.5808 369.5808 369.5817 369.5817 369.5991 369.5997 371.1280 371.1280
   371.1828 371.1828 371.2859 371.3237 373.7103 373.7103 374.3806 374.3806
   374.5847 374.6046 374.7685 374.7685 374.8046 374.8460 374.8460 375.2966
   379.2825 379.2825 379.4370 379.4370 379.5404 379.6806 379.9930 380.0557
   380.0557 380.1009 380.1009 380.1181 381.1564 381.1728 381.1728 381.1762
   381.1762 381.2200 381.2640 381.3158 381.3257 381.3257 381.3325 381.3325

          k = 0.0000 0.2500 0.0000 (  3255 PWs)   bands (ev):

   -26.8831 -26.8831 -26.8781 -26.8780 -26.8780  -7.5002  -7.4934  -7.4908
    -7.4866  -7.4866  -2.3760   3.0403   7.7249   7.7249   8.7069  11.4502
    13.2679  13.2679  14.3031  15.8688  15.8688  17.0035  17.3914  17.9324
    19.4390  26.1896  26.3059  26.3059  26.5357  28.2636  28.2636  30.4287
    31.6852  31.6852  31.8731  32.5634  33.1435  33.7316  33.7316  34.8860
    34.8860  35.6949  35.8329  36.3350  37.3530  37.6928  38.1210  38.1210
    39.5201  39.9930  40.5845  40.6338  40.8380  40.8380  42.1197  42.1197
    42.4327  42.9170  44.2557  44.2557  44.9686  44.9686  45.2776  46.3293
    46.3293  46.4098  48.1553  48.9648  49.4488  50.5511  53.0870  53.0870
    53.6953  54.7613  54.7613  57.9735  58.0035  58.0361  58.6572  58.6572
    60.1540  60.6969  62.1773  62.5552  62.5552  64.1558  64.1558  65.0146
    65.0146  65.6739  65.8289  65.9295  65.9742  67.3542  67.5008  68.2222
    68.5590  68.5590  68.7069  69.7799  69.7799  69.8643  70.5045  70.6566
    70.6566  70.7991  71.7358  71.7358  72.5421  73.1220  73.5021  74.5257
    74.5257  74.6417  74.6417  75.4606  76.0209  76.1888  76.2173  77.1359
    77.9347  77.9347  78.9852  79.0251  79.6600  79.6600  79.7915  80.4692
    80.4692  81.1643  81.5808  81.5808  81.8433  83.4972  84.0101  84.3561
    84.3561  85.2961  85.7865  86.1882  86.1882  86.7555  87.0938  87.8622
    87.8622  88.5157  90.1856  90.2588  90.2588  90.3693  90.4421  91.1877
    91.2304  91.3682  91.3682  91.5255  92.7630  92.9827  92.9827  94.6695
    94.7102  94.7102  95.1048  95.2650  96.0801  96.0801  97.3162  97.9682
    98.9900  98.9900 100.2075 100.3583 100.6794 100.8237 100.8237 100.8924
   101.5063 101.9748 101.9748 103.0684 103.3793 103.3793 105.5221 105.5221
   106.3362 106.6508 108.1242 108.3721 108.3721 108.9645 109.7312 110.3631
   110.3631 111.4537 111.4537 111.4702 112.0882 112.9251 112.9819 113.0821
   115.4240 116.1746 116.1746 116.5214 116.9531 117.3765 117.3765 117.7843
   118.3629 118.3629 118.6204 118.6393 119.3519 119.3519 119.3522 119.4591
   119.7841 119.7841 119.9862 120.4709 120.7996 121.3064 121.3064 121.3175
   121.9912 121.9912 122.2635 122.3880 122.5686 123.0165 123.3946 123.3946
   124.3066 124.3066 124.8808 124.8808 125.4017 125.8083 126.3815 126.5219
   126.5219 127.0871 127.4008 127.4008 128.3384 128.6550 128.7141 128.9655
   128.9655 129.2835 130.0081 130.2264 130.5932 130.5932 130.9112 131.4114
   131.4912 131.7708 131.8093 131.8093 132.4691 132.4691 132.5338 132.7462
   133.2292 133.2292 133.2559 133.4712 133.6718 134.2849 134.8516 134.8516
   135.3237 135.3237 135.5168 136.1497 136.7035 136.7035 137.1382 137.4998
   137.8916 140.5412 140.7951 140.7951 141.5519 142.2465 142.3418 142.4278
   142.4278 143.2769 143.2769 143.4951 143.4951 143.6209 144.2540 144.2540
   144.8773 145.3273 145.6988 146.2374 146.5800 146.7608 146.7608 147.2922
   147.7876 148.6801 148.6801 149.2620 149.8053 149.8053 150.3933 150.7624
   151.2522 152.1845 152.8281 152.8281 153.2913 153.9201 153.9201 154.8648
   154.8648 155.4864 155.9986 156.2464 156.3635 156.3635 156.4365 156.7804
   156.9570 156.9570 157.6222 158.4914 158.5245 158.7471 158.7471 159.4640
   159.5642 159.5642 159.6000 160.1087 160.6983 161.2686 162.2058 162.2058
   162.6261 163.0129 163.1777 163.1777 165.3609 165.3609 166.3870 166.5192
   166.5192 166.9378 167.7837 168.5649 168.5649 169.6522 170.8179 171.1436
   171.1531 171.5700 171.5700 172.1106 172.3421 172.3421 172.5712 172.6645
   172.6645 173.1458 173.1597 173.2056 173.4178 173.4178 174.7542 175.2298
   175.9323 176.0923 176.5579 176.5579 176.8690 177.9260 177.9260 178.9622
   179.3219 179.5269 179.5546 179.5546 180.4980 180.4980 180.6502 180.7515
   180.7515 180.7839 181.4405 181.4679 181.6861 181.9117 181.9117 184.3500
   184.4213 184.4213 184.4259 184.6628 184.6628 184.8228 185.1256 185.3699
   185.5261 185.6283 186.0639 186.0639 186.8230 186.8230 186.9399 187.1190
   188.1223 188.1711 188.2468 188.2468 188.7528 188.9771 189.0899 189.0899
   189.4051 189.7139 189.7139 190.1224 190.4914 190.4914 190.7163 191.1136
   191.7025 191.7025 191.7236 192.0955 192.1760 192.2177 192.2177 192.7304
   193.7974 193.7974 194.4419 194.5435 194.5435 194.6849 194.7270 194.8322
   194.8322 195.1658 195.2715 195.9052 196.2871 196.8302 196.9558 197.7197
   197.7197 197.8054 197.9465 197.9465 198.1867 198.1867 198.5293 199.1138
   199.3272 199.5431 199.5892 199.5892 199.6148 200.2960 200.2960 200.4465
   200.5515 200.6504 200.6504 201.7999 201.8458 201.8458 201.8943 202.4764
   202.8788 203.1528 203.1634 203.1634 203.5788 203.9931 203.9931 204.2317
   204.3821 204.7517 204.8438 204.8438 204.9296 205.1001 205.2061 205.2061
   205.6714 205.8838 206.9077 206.9077 208.4043 208.7024 208.7024 208.7546
   209.1408 209.6091 209.6098 209.7294 209.7294 210.3962 210.3962 210.4741
   210.7677 210.8470 211.0839 211.1681 211.1681 211.8639 211.8639 213.8573
   213.8573 214.0859 214.5029 214.6941 214.6941 214.9418 215.0945 215.6201
   215.6201 215.6661 216.1578 216.8544 216.8544 216.9640 217.0124 218.4677
   220.1795 220.6217 220.6217 221.0522 221.4861 221.6021 221.6021 222.5231
   222.5231 223.7624 223.9065 223.9265 224.5185 225.3296 226.1411 226.5599
   226.5599 227.7280 227.7280 227.9202 228.0686 228.9433 229.5632 229.6412
   229.6412 230.1819 230.3523 230.3523 230.8060 231.4486 232.1753 232.1753
   232.2091 232.3799 232.7123 232.7485 232.7485 233.0108 233.0203 233.0203
   233.5461 234.3807 234.8402 234.8402 235.6726 236.3527 236.5474 236.5474
   237.1584 237.9998 238.0739 238.4462 238.4462 238.7479 238.7479 238.9014
   238.9452 239.0647 239.1270 239.1270 240.1897 240.6868 240.6868 240.6983
   240.8407 241.2491 241.3223 241.3223 242.1466 242.2431 243.6594 243.7298
   243.7298 245.0085 245.0085 245.4634 245.6293 245.9892 245.9892 246.0221
   246.1462 247.5933 247.5933 247.7982 247.9440 248.1979 248.4086 248.4086
   248.4506 248.5502 248.5649 248.6132 248.6132 249.1559 249.2582 249.2582
   249.3056 249.8691 249.9988 250.0076 250.0076 250.2512 250.2512 251.4250
   251.7850 252.1810 252.3381 252.5638 253.0141 253.0141 253.3696 253.3696
   253.6682 253.6682 253.6783 254.3738 254.6729 254.8648 254.8648 254.8881
   255.0106 255.1205 255.1631 255.1631 255.1979 255.7074 255.7074 255.8327
   256.2611 256.4148 256.6456 256.6456 256.6856 256.7334 257.4443 257.4641
   257.4641 257.4768 258.0434 259.1683 259.1683 259.2452 261.8892 261.9582
   261.9582 261.9585 262.0404 262.2539 262.2539 262.3914 262.3914 263.0047
   263.3233 263.9531 264.4719 264.5567 264.5567 264.7849 265.0612 265.9847
   266.3085 266.3085 266.3537 267.4219 267.4227 267.4227 267.4563 267.4580
   268.2021 268.2021 268.5838 268.7741 268.7741 268.9487 269.2201 269.5667
   269.5667 270.0198 270.2148 270.3022 270.5356 270.5356 270.8015 271.8078
   271.8078 272.3101 272.3685 272.8505 272.8505 273.3009 273.6334 273.6334
   273.8204 274.4566 274.4566 275.0593 275.1610 275.7905 275.8533 275.8533
   275.9258 275.9641 276.0358 276.0516 276.0516 276.6076 276.6076 276.8902
   277.1299 277.4637 277.4637 277.6785 277.7773 278.0202 278.1222 278.1222
   278.1536 278.4471 278.5176 278.5176 278.5748 278.6997 278.6997 279.4953
   279.5539 279.7306 279.7306 279.9306 280.7668 281.7359 281.8370 281.8370
   281.8483 281.8625 282.3203 282.3203 282.7401 283.2659 283.4330 283.4330
   283.5426 284.4211 284.4682 284.5471 284.5471 285.4798 285.7487 285.7837
   285.8105 285.8105 286.5213 286.8182 286.8182 287.1323 287.5749 287.6082
   287.6148 287.6148 288.1671 289.0747 289.0747 289.2174 289.5741 289.5741
   289.9139 289.9218 289.9218 290.0512 290.3626 291.0136 291.0136 291.1886
   291.3112 291.4190 291.7628 291.8008 291.8008 291.8559 291.8559 291.8919
   291.9492 292.2658 292.8576 292.8576 292.9625 293.4998 294.1003 294.1369
   294.4333 294.4333 294.4617 296.1204 296.1204 296.2952 296.8155 296.8155
   297.0181 297.0513 297.0836 297.0836 297.2371 297.3828 297.4336 297.4734
   297.4734 297.6860 297.6961 297.6961 297.8265 298.7859 298.9817 298.9817
   299.0437 299.3706 299.6361 299.6464 299.6464 299.6681 301.2826 301.3764
   301.3764 301.6132 301.6234 301.6773 301.6845 301.6845 301.8166 301.8723
   301.8723 301.8917 302.6876 302.7113 302.7113 302.8670 304.1062 304.9123
   304.9123 305.0481 305.0508 305.1006 305.1006 305.2717 305.6479 306.6406
   306.6406 306.7475 306.7475 306.7748 306.7748 306.8070 307.4160 308.2105
   309.7986 310.3362 310.3362 310.3894 310.7728 311.1992 311.2553 311.2553
   311.6591 311.6591 311.6902 311.7895 312.0551 312.2988 312.3596 312.6150
   312.6150 317.0868 317.0868 317.1347 317.1649 317.1854 317.1854 317.2075
   317.5451 318.0801 318.0801 318.1017 318.1978 318.7890 318.7890 319.0263
   319.9620 320.0149 320.0149 320.0339 320.5456 321.3606 321.6414 322.0097
   322.0374 322.0374 322.0623 322.7362 322.7362 323.1512 323.1808 323.1884
   323.1884 324.1263 325.3326 325.3962 326.8022 326.8022 327.5476 327.8374
   327.8374 327.8711 327.8831 327.8831 327.8833 328.0579 328.1095 328.2298
   328.2298 329.7183 329.7337 329.7337 330.1949 330.8169 331.4980 331.4980
   331.5296 331.7748 332.5196 332.5752 332.5752 332.9062 333.0808 334.6411
   334.6411 334.7826 335.4785 335.6489 337.0307 337.1054 337.1054 337.1584
   337.3535 337.3535 337.4118 337.6764 337.6867 337.6867 337.6980 338.0853
   338.3517 338.3517 338.6737 338.6737 338.7444 338.9093 338.9337 339.0870
   339.0870 339.8367 340.6384 340.6384 341.3067 341.3655 341.4844 341.5197
   341.5513 341.5513 341.6102 341.8957 341.8957 341.9958 342.0200 342.1000
   342.1132 342.1132 342.4107 342.4107 343.2017 344.7279 345.0164 345.2462
   345.2462 345.7008 345.7008 346.5197 346.9650 347.8521 348.1968 348.2796
   348.2796 348.3770 348.7881 349.1760 349.1760 349.3648 349.4309 349.4325
   349.4325 349.5401 349.5431 349.6209 349.6209 349.9375 349.9843 349.9843
   350.1979 350.2881 350.8370 350.9236 350.9236 351.1296 351.3668 351.4575
   351.5285 351.5285 352.2806 352.3057 352.3057 352.3468 353.5111 353.5111
   353.5378 353.5931 354.0662 354.1094 354.1094 354.1117 354.7316 354.7544
   354.7544 354.9097 355.7514 356.9476 357.0369 357.0369 357.1171 357.1214
   357.1214 357.2083 357.3543 357.6504 357.7472 357.7472 357.8737 358.4657
   358.7558 358.7558 358.9251 358.9368 358.9783 358.9783 359.2266 359.6703
   359.6939 359.8080 359.8080 359.8520 360.3761 360.3831 360.3831 360.5414
   360.8118 360.8118 360.9932 361.2276 361.5680 361.6855 361.6855 361.7038
   361.7038 361.8275 362.0895 362.0914 362.0914 362.1972 362.2148 362.2148
   362.2532 362.4536 362.4898 362.5777 362.6850 362.7117 362.7117 362.8739
   362.9209 362.9209 362.9257 362.9815 363.1428 363.1428 363.2017 363.2982
   363.2982 363.3223 363.4266 365.2160 365.5052 365.5052 365.5490 366.1071
   366.1071 366.1882 366.2157 367.1232 367.2186 367.2186 367.3240 368.0523
   368.1506 368.1806 368.1827 368.1827 368.3777 368.3914 368.3914 369.6106
   369.6107 369.6107 369.6143 370.0867 370.1008 370.1008 370.1103 370.4824
   370.5297 370.5297 370.5440 372.7380 372.7665 372.7665 372.7899 374.4307
   374.4307 374.5107 374.6955 375.1053 375.1231 375.1231 375.1307 376.0440
   376.1112 376.1112 376.1271 376.9730 376.9730 377.5902 377.7539 377.8153
   377.8153 377.8915 377.9607 378.1721 378.1721 378.3844 378.5098 378.5436
   378.5436 378.5870 378.5917 378.7028 378.7028 378.7541 379.5234 379.7765

          k =-0.1250 0.3750-0.1250 (  3252 PWs)   bands (ev):

   -26.8831 -26.8831 -26.8781 -26.8779 -26.8778  -7.5063  -7.4950  -7.4908
    -7.4832  -7.4816  -2.0930   2.4425   7.5884   7.6499   8.8299  10.8471
    12.7323  12.8520  14.2512  16.4983  16.7154  18.0876  18.3876  19.5557
    21.3065  23.6713  23.8575  26.3184  26.6159  27.0857  28.5993  29.8566
    30.8912  31.0269  31.6113  33.1158  33.4100  33.6567  33.8805  34.2720
    34.5520  35.1981  35.6075  36.2868  36.4002  36.9208  37.3663  37.7705
    39.0581  39.2772  40.2640  40.8352  40.9285  41.3682  42.7155  43.0274
    43.4499  44.0287  44.2840  45.5307  46.1002  46.2753  46.4457  47.2943
    47.6030  48.3601  48.5457  51.1307  51.7873  52.0064  53.0401  53.4704
    53.7920  54.9278  55.0354  55.3400  55.9730  57.1329  57.7816  57.8215
    59.6677  59.7097  60.1103  61.3831  61.7669  62.1683  62.4902  63.5387
    63.5641  65.0577  65.1036  65.5288  65.8634  66.3624  66.6343  66.8181
    68.2050  68.2951  68.9032  69.2746  69.6719  70.0387  70.4602  70.7360
    70.9845  71.5214  71.7069  73.3861  73.4919  73.5044  74.1702  74.6017
    74.8523  75.4149  75.6629  75.8440  76.5576  77.2049  77.6962  77.8844
    78.1269  78.2317  78.9613  79.4633  79.7356  80.0018  80.5233  80.9405
    81.0930  81.4473  82.3383  82.6560  82.6731  82.7480  83.3008  83.3153
    83.6269  84.6159  85.0809  86.0178  86.6697  87.0437  87.0803  87.5759
    87.6635  88.2396  88.6073  88.8403  89.4249  90.6977  90.8121  91.1699
    91.5626  91.9820  92.6203  92.9038  93.1878  93.6835  94.1169  94.7765
    95.1008  95.2320  95.9975  96.0948  96.7160  97.0225  97.6945  98.3639
    98.7117  98.9279  99.3627 100.1863 101.0497 101.0915 101.2530 101.7085
   102.3343 103.1557 104.3056 104.3749 105.2500 105.7240 105.9625 106.0392
   106.8062 106.8432 107.2859 108.0057 108.0875 109.0137 109.1458 109.2333
   109.3694 110.5343 110.7574 111.7557 111.9849 112.0300 112.5716 112.7236
   113.3471 113.4049 113.8490 114.0168 114.4022 114.7185 114.9450 115.0708
   116.2339 116.3390 116.6044 116.6397 117.1131 117.6822 117.9675 118.1498
   118.6059 119.0380 119.3033 119.5376 120.3836 120.7409 120.8300 120.8716
   121.3320 121.7394 121.9910 122.3389 122.3861 122.6205 122.7249 123.9751
   124.0934 124.3249 124.9780 125.6300 125.6499 126.5403 126.7361 127.2100
   127.5190 127.7730 127.8519 128.1665 128.2095 128.5258 128.7801 128.7949
   129.7236 129.7980 129.9831 130.2792 130.3941 130.5631 131.0140 131.4810
   132.5336 132.6698 133.4061 133.5878 133.7336 133.8288 133.9024 134.4573
   134.9549 134.9798 135.3486 135.4993 135.8109 136.7462 136.8213 137.2840
   137.5101 137.5765 137.7009 137.9015 138.1183 138.5400 138.8343 138.9483
   139.2951 139.3681 139.9065 140.4321 140.5921 140.6857 140.7280 141.1725
   141.7758 142.1380 142.4181 143.0044 143.1672 143.4908 143.7091 143.9893
   144.4447 145.0579 145.1202 145.4871 146.8072 147.5320 148.0822 148.2384
   148.2664 148.9842 149.1107 149.1824 149.6917 150.3106 150.5343 151.1846
   151.4633 151.6147 151.9615 152.2989 152.4190 153.0576 154.0632 154.5606
   154.5638 154.8848 155.3069 155.8281 156.0078 156.3447 156.8041 157.2310
   157.3680 157.9044 158.3123 158.9306 159.2392 159.5733 159.9131 160.2155
   160.6809 161.4481 162.0983 162.1515 162.5782 162.8180 163.2064 163.5130
   164.1427 164.2623 164.4900 164.6536 164.7021 165.1278 165.3201 165.8128
   166.1769 166.2140 167.0823 167.2521 167.7891 168.5422 168.9222 169.0044
   169.6822 169.8845 170.4074 170.9367 171.1167 171.3898 171.9700 172.2278
   172.3177 172.4198 173.0432 173.1174 173.2262 173.7402 173.9269 174.0167
   175.2918 175.4018 175.5193 175.8958 176.2975 176.5048 177.1829 177.2734
   177.5827 178.3789 178.7799 178.9544 179.2440 179.2708 179.2960 179.7960
   179.9468 180.7601 181.1687 181.2044 181.7163 181.9175 182.0514 182.0557
   182.3150 182.4770 182.6048 182.6585 182.6780 182.9800 183.5974 184.1255
   184.2075 184.7331 184.9481 185.3340 185.4503 186.2883 186.5494 186.6750
   186.7663 187.1296 187.4274 187.8003 188.1397 188.5091 188.8881 189.2809
   189.6415 189.6646 189.6877 189.8895 189.9565 190.1630 190.1819 190.4889
   190.5262 190.7778 191.4784 191.5304 191.7157 191.9962 192.0738 192.1254
   192.6899 193.0715 193.3139 193.6545 193.6751 194.2544 194.4300 194.6277
   194.6912 195.2366 195.4430 195.6963 195.8395 196.0807 196.1512 196.8602
   197.2410 197.8281 197.9257 198.0695 198.1358 198.1924 198.6620 198.9462
   199.0833 199.3071 199.4616 199.4718 199.8775 200.0537 200.4554 201.6416
   201.6968 201.7882 202.1113 202.3755 202.4774 202.6676 203.1011 203.2605
   203.4045 203.6793 204.1097 204.1440 204.2938 205.0251 205.7005 205.8049
[...]
   204.6395 204.9872 205.0854 206.1285 206.5039 206.6914 206.7667 207.2675
   207.9348 208.1443 208.4504 209.8336 210.3300 210.3364 210.3654 210.6947
   210.8322 210.8347 210.9748 211.1603 211.6500 212.0453 212.5887 212.8321
   213.1242 213.6500 213.9434 214.6879 214.6965 215.3256 215.4739 216.2761
   216.3590 216.8768 217.3513 217.8454 217.8640 218.1465 218.5001 218.5121
   218.8088 219.2296 219.2339 219.5709 219.9697 220.0077 220.4837 220.5299
   220.7019 220.8860 221.1585 221.2800 221.3336 222.0387 222.3079 222.3208
   222.6547 223.0667 223.2332 223.2812 223.3265 223.5333 223.8318 224.0707
   224.2041 224.2611 224.5717 224.6159 224.9658 225.2244 225.2843 225.6578
   225.7729 227.3207 227.3393 227.3852 228.3481 228.4559 228.5801 228.5995
   228.8977 229.1057 229.2571 229.2761 229.5412 229.6789 229.8062 230.4751
   230.5362 230.5773 230.7461 230.9311 231.0498 231.5340 231.7329 231.9289
   232.1332 232.4367 233.0414 233.8027 234.3761 234.3940 234.4657 234.5860
   234.6142 234.8393 235.2021 235.2060 235.2463 235.6835 235.9199 236.1216
   236.6857 237.1425 237.1751 237.3940 237.4450 237.4812 237.8016 237.8674
   238.3084 238.5963 238.6887 238.8184 238.8302 239.0603 239.0612 239.2634
   239.6212 239.8815 240.0610 240.2030 240.2194 240.9484 241.1532 241.1673
   242.1853 242.6965 242.8548 243.3062 243.3749 243.4915 244.8840 244.9982
   245.1387 245.6667 245.8044 246.1951 246.4620 246.8966 246.9366 247.0473
   247.3216 247.6430 247.7591 247.7931 247.8451 247.9132 248.5537 248.6993
   248.7235 249.0862 249.2489 249.7774 249.8987 250.1240 250.7710 251.2112
   251.5257 251.5307 251.8197 251.8481 252.2854 252.3174 253.0331 253.1315
   253.1847 253.3922 253.4181 253.5841 253.6211 253.7488 253.8532 253.9570
   253.9908 254.0602 254.1465 255.2297 256.1579 256.3879 256.4406 256.9386
   257.3851 257.5031 257.5278 257.8689 257.8752 258.0652 258.5623 259.2904
   259.3283 260.3387 260.9441 261.7528 261.8093 261.8726 262.1170 262.2709
   262.3050 262.3745 262.4306 262.5205 262.7308 263.4658 263.4801 263.7056
   263.7761 264.0786 264.2260 264.5197 264.7308 264.7571 264.7598 265.5263
   265.6382 266.1924 266.3570 266.4991 266.5535 267.6329 267.9003 268.1661
   268.1666 268.2164 268.3022 268.6290 269.9725 270.0620 270.1582 270.1910
   270.4932 270.9280 270.9870 270.9912 271.2482 271.4558 271.6339 271.7963
   272.1882 272.6332 272.6726 272.9929 273.3568 273.5428 273.7655 273.7956
   273.8554 273.9999 274.1454 274.3385 274.6489 274.6492 275.0709 275.1336
   276.1860 277.0833 278.9522 279.4625 279.4749 279.5140 279.5658 279.8986
   280.1618 280.1799 280.1964 280.3742 280.4754 280.9869 281.4444 281.5608
   281.7188 282.2037 282.6808 282.7735 283.2309 283.4396 284.1778 284.5187
   284.8400 284.8876 285.1140 285.8344 285.8530 286.3608 286.5183 286.6694
   286.7558 287.2094 287.3200 288.0465 288.1384 288.4885 288.5994 288.8155
   288.8434 288.8721 289.0150 289.8945 289.9910 290.0586 290.2694 291.0716
   291.2685 291.3490 291.9419 292.0614 292.0676 292.1220 292.1337 292.2229
   292.2588 292.5968 292.6101 292.6626 293.5795 293.6626 293.7808 293.9248
   294.0357 294.3464 294.5652 294.8898 294.8976 294.9706 295.0536 295.5223
   295.7263 295.7656 296.1517 296.3061 296.3445 296.5466 296.9008 297.0329
   297.3264 297.8258 297.8723 297.9396 299.1766 299.8675 299.9055 299.9423
   299.9673 300.3533 300.8081 300.9489 301.1119 301.1122 301.2049 301.2307
   301.2541 302.5351 302.6077 302.7470 302.9122 303.0251 303.1076 303.9729
   304.0035 304.1152 304.1966 304.2646 304.6259 304.6348 304.7749 304.7919
   306.4952 306.6384 306.6987 306.7879 306.9653 307.0073 307.1419 307.2198
   307.2656 307.3167 307.5098 307.6814 307.9772 307.9988 308.0854 308.1310
   308.1494 308.3095 308.3721 308.5933 308.9073 309.0959 309.4703 309.5637
   309.5688 309.6116 309.7183 309.7210 309.7814 309.8678 310.0004 311.1810
   311.3144 311.4059 311.8328 313.0891 313.2295 313.2893 313.8070 313.9130
   314.3498 314.5767 314.8283 314.8671 315.1322 315.2594 315.2615 315.6873
   315.8000 316.1036 316.1175 316.1810 316.3487 316.5703 316.5998 316.6317
   317.2748 317.3208 318.5824 318.5977 318.7294 318.7852 318.8773 318.8916
   318.9003 318.9313 319.2400 319.8745 320.0795 320.5933 320.8201 320.9380
   321.0434 321.2699 321.3352 321.6335 321.9297 321.9929 322.0117 322.1242
   322.2576 322.3375 322.3535 322.4547 323.5755 323.6834 323.6998 323.9012
   323.9286 324.0150 324.0628 324.0987 324.1093 324.4086 324.6929 324.6929
   324.8514 324.8707 325.1675 326.8002 326.8795 327.2863 327.3270 327.3659
   327.4956 327.6677 327.7148 327.7290 327.7817 328.1830 328.4991 328.5156
   328.8996 329.1359 329.2906 329.3267 329.3635 330.9423 331.0037 332.1021
   332.2087 332.4425 332.5343 332.8965 333.0075 333.1667 333.3915 333.6624
   333.6830 334.1095 334.1621 334.1695 334.4479 335.1408 335.3714 335.8062
   336.1090 336.9263 337.1758 337.4031 337.5181 337.5475 338.5038 338.6237
   338.6735 338.6769 338.7304 338.7378 338.7855 338.8406 339.1897 339.3002
   339.6110 339.9845 340.1096 340.6528 341.1736 341.1885 341.1952 341.2194
   341.3407 341.5571 341.5983 341.6266 341.6450 341.6624 342.7490 343.3331
   343.3387 344.1759 344.3912 344.3924 344.4814 344.7911 344.8889 345.4915
   345.5377 345.8040 345.8153 346.0664 346.1083 346.3301 346.4168 346.5256
   346.5815 346.6040 346.6861 346.9296 346.9970 347.0074 347.0225 347.1164
   347.2118 347.2171 347.2208 347.2290 347.3328 347.3668 348.3492 348.4122
   349.0378 349.1278 351.0566 351.4727 351.5870 351.6128 351.6218 351.6767
   351.7187 351.7229 352.6392 352.6465 352.6820 352.7316 353.0087 353.1929
   353.2220 353.4007 353.6919 353.7813 354.8992 355.0114 355.1666 355.2307
   355.5341 355.5872 355.6177 355.7214 355.8449 355.8664 356.5389 356.6484
   356.7226 356.8217 356.9952 357.0794 357.1838 357.3482 357.5934 358.9136
   359.0721 359.7997 359.8380 359.8975 359.9070 359.9374 359.9999 360.7116
   360.7401 361.2013 361.2039 361.4627 362.0129 362.1909 362.1926 362.4882
   362.5710 363.1905 363.2198 363.7359 363.7393 364.6668 364.6846 364.6939
   364.7004 364.9795 365.0760 365.5576 365.5845 365.9273 365.9345 366.0272
   366.0642 366.1193 366.1554 366.3835 366.4087 367.9761 367.9838 368.9538
   368.9546 369.4566 369.5757 369.6703 369.8538 369.9054 370.0491 370.1362
   370.1973 370.7868 370.7901 371.5007 371.5287 371.8672 371.8907 371.9997
   372.0830 372.1606 372.1729 372.3251 372.3715 372.6655 373.0016 373.1184
   374.0576 374.1932 374.5249 374.5295 376.1594 376.2115 376.2937 376.3866
   376.5444 376.6018 376.6407 376.6965 376.7689 376.8554 377.1486 377.3999
   377.5592 377.6668 377.7633 377.8051 377.8080 377.8690 378.0525 378.4699
   378.9002 379.0019 379.0228 379.0402 379.1722 379.5870 379.6483 379.8508
   380.0271 380.2149 380.5899 381.7406 381.8081 381.9098 383.7496 383.7610

          k =-0.5000-1.0000 0.0000 (  3248 PWs)   bands (ev):

   -26.8832 -26.8829 -26.8778 -26.8778 -26.8774  -7.5309  -7.4964  -7.4833
    -7.4833  -7.4677  -0.8508   1.3232   5.6511   5.6511   8.8756  10.8897
    14.3914  14.3914  15.9741  15.9741  20.2300  20.2501  20.9809  21.2265
    21.2265  23.5564  24.6320  25.5506  25.8540  25.8540  26.7007  27.1528
    27.6458  28.2416  28.2416  28.9491  29.7144  29.7144  32.1372  32.1372
    34.4959  35.6175  37.0567  37.0567  38.4661  38.5361  39.9391  40.1570
    40.1570  40.7937  41.4363  41.7770  42.1302  42.1302  43.2709  43.2709
    45.4227  45.4227  45.8937  46.8938  47.1812  49.2186  49.2186  49.6773
    49.8910  50.0096  50.4721  51.6840  51.8261  51.8261  52.6579  53.9452
    53.9452  54.2295  54.9878  54.9878  56.8242  57.3148  57.3148  58.2507
    58.3564  58.3564  59.1478  59.3351  61.1130  62.0061  62.0543  62.0543
    62.0800  62.3903  62.9040  63.0036  63.0036  63.5586  65.0135  66.3818
    66.5075  67.2699  67.2699  68.1122  68.2737  68.2737  69.1184  69.1933
    69.1933  69.2133  69.7802  69.7802  71.0065  72.3579  72.6615  72.6615
    74.4093  74.5453  75.5978  75.5978  76.7327  76.7327  77.2946  77.6381
    78.9111  78.9111  78.9535  80.9959  80.9959  81.2674  82.2998  82.3601
    83.6704  84.9899  84.9899  85.2313  85.2619  85.3002  85.3002  86.5190
    86.7119  87.6036  88.3005  88.3005  89.1418  89.3968  90.0309  90.5256
    91.0104  91.0699  91.0699  91.5720  91.7525  92.4727  92.4727  92.5257
    93.1617  93.1617  93.2533  93.3083  93.6641  93.6641  94.3765  95.0967
    95.2587  95.2587  95.4040  96.4892  96.4892  96.8856  96.9879  97.4766
    98.7001  98.7001  99.1949 100.3091 100.3091 101.3818 101.8367 101.8367
   102.0137 103.2344 103.3085 103.4467 104.3926 104.7566 104.7971 104.7971
   105.4253 105.6918 105.6918 105.7113 106.6907 106.8696 106.8696 107.5588
   107.5588 108.3040 108.6966 108.8097 109.1834 109.1834 110.6367 110.6367
   110.7430 110.9717 111.5886 111.5886 112.0909 112.4844 112.9206 112.9206
   114.4028 114.4028 114.4109 114.7453 114.9772 117.1913 117.1913 117.2134
   117.6714 117.7076 117.7076 118.0561 118.7247 118.7247 119.3733 120.0940
   121.3207 121.5921 122.3651 122.3651 122.4646 122.6281 123.4243 123.5714
   123.5714 123.7682 125.1691 125.2000 125.2000 126.1192 126.2310 126.4277
   126.4277 127.3513 127.4863 127.5198 127.5198 128.0739 129.0821 129.5121
   130.2964 130.2964 131.8506 131.8506 131.9085 132.0183 132.0183 132.1129
   132.1965 132.7795 133.3290 133.3445 133.6942 133.6942 134.7226 135.0625
   135.0915 135.0915 135.1923 135.6958 135.6958 135.8050 138.3757 138.3757
   140.2608 140.2608 140.3904 140.5070 140.6432 140.6432 140.8290 141.1056
   141.4749 141.9752 143.1712 143.5024 143.5024 143.6003 144.1808 144.1808
   145.7389 145.9905 146.1949 147.4284 147.4284 148.2713 148.2713 148.7979
   148.9572 149.2601 149.2601 149.5199 149.8136 150.1450 150.5361 150.5505
   150.5505 150.7923 150.9674 151.3925 151.3925 151.4706 151.6851 151.6851
   152.6516 152.6516 152.7309 153.0088 153.7089 154.2232 154.2232 154.6751
   154.7558 154.7558 154.8099 155.1492 155.2174 155.5859 155.6796 155.6796
   155.9220 156.3691 156.7980 156.7980 158.2940 158.2940 158.5994 158.8374
   158.8374 159.1841 160.3441 161.5975 161.7093 162.0439 162.2437 162.2437
   162.8939 163.4027 163.9838 163.9838 164.0093 164.0653 164.0653 164.5599
   164.5967 164.8151 165.7415 165.7415 166.5609 166.5609 167.4535 167.5085
   167.6007 167.6007 168.0650 168.1197 168.1439 168.1879 168.1879 168.2689
   169.8158 169.8158 170.0158 170.6530 170.9407 171.3254 171.3254 171.4604
   171.5202 172.8597 172.8597 173.0727 173.5450 175.0460 175.1456 175.4845
   175.4845 175.5170 176.0167 176.4204 176.4204 176.5183 176.5183 177.0356
   177.1493 177.4557 177.6739 177.6739 177.8564 178.9014 179.1679 179.1906
   179.1906 179.5103 179.8298 179.8298 181.5099 181.5231 181.5231 182.0821
   182.2437 182.6894 183.0969 183.4301 183.7173 183.7173 185.1986 185.1986
   186.9590 187.3107 188.3962 188.3962 189.2768 189.7273 189.7273 189.9799
   190.2171 190.2912 190.6577 190.6577 190.8972 191.3374 191.3374 191.5415
   192.1110 192.3682 192.5073 192.6758 192.6908 192.6908 192.9303 192.9339
   193.2871 193.2871 193.7525 193.8446 193.8446 194.1438 194.2096 194.2380
   194.5934 194.7248 194.7248 197.7009 198.0264 198.2872 198.2872 198.8733
   198.8859 198.8859 200.2332 200.2332 200.3534 200.6131 201.4394 201.6716
   201.9865 201.9865 202.1253 202.1253 202.6542 202.8318 203.2998 203.2998
   203.5299 203.8569 204.1089 204.1089 205.2429 205.2429 205.6165 205.7954
   205.9261 205.9261 206.0833 206.1060 206.7181 206.7181 206.8569 207.2586
   207.2586 207.5010 208.0346 208.2631 208.8873 209.4919 209.7632 209.7632
   209.8790 210.0638 210.0638 210.2202 210.4549 210.4549 210.5754 211.0979
   211.0979 211.6028 211.7253 211.7807 211.9864 211.9864 212.4772 212.5191
   212.7817 213.0248 213.0248 213.1098 216.5265 216.5265 217.0812 217.1618
   218.6926 218.6926 219.6825 220.1161 220.6625 220.7516 221.1784 221.1784
   221.3998 221.3998 222.2760 222.5635 222.6117 223.0280 223.2501 223.2501
   223.3142 224.1047 224.4200 224.4200 224.6167 224.9551 224.9551 225.2260
   225.4120 225.6462 225.6462 225.8610 225.8968 225.8968 226.1386 226.5604
   227.5356 227.5356 227.5523 227.8920 228.4342 228.5251 228.5251 228.5323
   228.8391 228.8391 228.9792 229.3093 230.2208 230.2208 230.4373 230.9454
   231.4990 231.4990 231.7541 232.1962 232.7916 233.5625 233.6259 233.6259
   233.6374 233.7993 234.1092 234.1092 234.3343 234.4466 234.5604 234.5604
   234.8723 235.1657 235.1657 235.5464 236.2801 236.4410 236.4709 236.4709
   236.4716 236.8161 236.8324 236.8857 236.8857 237.2602 237.4845 237.4845
   237.6704 238.1005 238.8968 238.8998 238.8998 238.9120 239.0744 239.0744
   239.6511 239.8144 239.8238 239.8238 240.8068 241.1378 241.3085 241.6442
   241.6442 242.6927 242.9348 242.9348 243.0262 243.5863 244.1182 245.0445
   245.0445 245.4964 245.8383 245.8383 246.2940 247.0919 247.2398 247.4444
   247.5434 247.5434 248.0899 248.4352 248.4875 248.4954 248.4954 248.6630
   248.7623 248.7623 248.8902 248.8902 249.1737 249.3679 249.9710 250.3735
   250.4022 250.4022 250.9466 250.9466 251.0091 251.7814 251.8314 252.1901
   252.7892 252.7892 253.7379 253.8970 254.1699 254.1699 254.9675 254.9675
   255.2398 255.3218 255.4732 255.4732 255.4747 255.5022 256.4779 256.4964
   256.5394 256.5394 257.0165 257.1907 257.1907 257.3224 257.4838 257.4838
   259.0447 259.0447 259.3327 259.3621 259.8426 259.8426 260.1637 261.3019
   261.8784 261.8784 262.8382 262.9726 263.0632 263.0632 263.0640 263.1314
   263.4881 263.5191 263.5191 264.0793 264.1006 264.1006 264.1054 264.4440
   264.4716 264.4716 266.3096 266.4028 266.4028 266.4327 266.9397 267.0188
   267.2866 268.7314 268.8577 268.8602 268.8602 269.0997 269.5855 269.5855
   270.5810 270.7467 272.3207 272.3207 272.5582 272.5582 273.1854 273.2378
   273.6594 273.6594 273.8024 273.8815 273.8889 273.8889 274.1783 274.7126
   274.9199 275.9243 276.1332 276.2832 276.2832 276.8301 276.9139 276.9139
   278.6383 278.6383 278.9695 279.3681 279.4181 279.9989 280.1751 280.1751
   280.7234 280.9555 280.9555 281.2731 281.5187 281.5187 281.5565 281.6769
   281.9918 282.0275 282.0275 282.3656 283.3362 283.3596 283.8171 283.8171
   284.0824 284.0824 284.2821 284.3903 285.0313 287.2988 287.4769 287.4769
   288.4559 288.4559 288.6504 288.9727 289.6844 289.7185 289.7206 289.7206
   290.1208 290.1430 290.1430 290.1984 290.2762 290.2762 290.4745 290.7578
   291.2580 291.4934 291.4934 291.6873 292.2760 293.0329 293.0329 293.1998
   293.3846 293.4715 293.4715 293.6991 293.8316 294.7811 294.7811 295.0855
   295.4828 296.1269 296.2633 296.3470 296.3470 296.5439 296.6472 296.6472
   297.0169 297.0169 297.3394 297.3560 297.4243 297.4474 297.4737 297.4737
   297.6488 297.8037 297.9736 297.9736 298.6330 298.6352 298.8143 298.8966
   298.8966 298.9158 298.9777 299.0673 299.0679 299.0679 299.1491 299.1491
   299.5095 299.5095 299.6340 299.7397 301.2897 301.3228 301.3395 301.3395
   302.9653 302.9653 303.0402 303.1472 303.8273 304.1735 304.1735 304.1774
   304.4658 304.9068 304.9179 304.9620 304.9620 305.0613 305.1599 305.2175
   305.2628 305.2628 305.5141 305.7760 305.7760 306.1150 306.2293 306.3578
   306.3578 306.4149 306.6228 307.0589 307.0589 307.1077 307.2029 307.2029
   307.6235 308.3294 308.4278 308.7864 308.9656 308.9656 309.0747 309.2212
   309.3899 309.3899 309.8219 309.8219 310.6079 311.6202 315.6763 315.7356
   315.7356 315.8552 315.9301 315.9301 316.0112 316.2154 316.4478 316.6022
   316.6022 317.2820 318.0826 318.5526 318.5526 318.5919 318.6475 318.8592
   318.8592 319.0391 319.3308 319.3409 319.3409 319.4673 319.6971 319.8645
   319.8645 319.9681 320.1052 320.1052 320.1593 320.2136 320.6742 320.6742
   320.7258 320.7538 320.7538 320.7944 320.9943 321.1370 321.1843 321.1843
   321.7036 322.0491 322.0491 322.5625 324.5719 324.8259 324.8327 324.8327
   325.6878 325.6878 325.7414 325.7467 325.9066 325.9066 327.8345 327.9814
   328.3029 328.3029 328.6866 328.7131 328.7131 328.7628 329.7272 329.9750
   331.2177 331.2692 331.2692 331.4557 331.5169 331.5934 331.5934 331.9182
   332.3715 332.3837 332.3837 332.4166 333.0093 333.1385 333.3079 333.3079
   333.4669 333.4676 333.5409 333.5409 333.6721 333.6721 333.8472 334.0317
   335.0477 335.5936 335.6154 335.6154 335.8122 335.8122 336.1329 336.1984
   336.2612 336.3108 336.4570 336.4570 336.8930 336.9370 336.9375 336.9375
   337.1093 337.1093 337.1094 337.3145 338.4241 338.4288 338.4288 338.4581
   338.6876 338.8778 338.9935 338.9935 339.4087 339.4229 339.8700 339.8700
   339.8809 340.0009 340.0009 340.0170 340.0217 340.1570 340.1570 340.1728
   340.2398 340.4338 340.4338 340.5131 341.0593 341.0593 341.0816 341.1517
   341.1826 341.2072 341.2072 341.2140 341.3739 341.5643 341.5722 341.5722
   344.6562 344.6629 345.2121 345.2121 348.7515 348.7515 348.7764 348.8492
   348.8763 348.8963 348.8963 348.9255 349.9372 349.9372 349.9774 350.4089
   351.2111 351.6306 351.6306 351.7014 352.4372 352.4372 352.5678 352.7313
   353.3521 353.3661 353.4115 353.4115 353.7307 353.8620 353.8656 353.8656
   355.0561 355.0629 355.0801 355.0801 355.4535 355.4923 355.4978 355.4978
   355.8644 355.8644 355.9357 355.9683 357.3666 357.3666 357.7085 357.7252
   358.0500 358.0500 358.1963 358.6531 358.7765 358.8160 358.8160 358.8535
   359.9831 359.9937 359.9937 360.1228 360.4192 360.4311 360.5057 360.5057
   360.7009 360.7009 360.9207 360.9344 361.0278 361.0278 361.0951 361.2071
   361.7145 361.8025 362.1378 362.1378 362.1630 362.1640 362.1640 362.1653
   362.1718 362.2072 362.4087 362.4087 365.4574 365.4590 365.4635 365.4635
   367.7333 367.8332 367.8393 367.8393 367.8774 367.8774 367.9051 367.9458
   368.4340 368.5764 368.5764 368.5980 368.6176 368.6363 368.6363 368.6586
   369.4709 369.5890 369.7460 369.7460 369.7524 369.7943 369.8430 369.8430
   370.0824 370.1352 370.1352 370.1707 375.2815 375.3172 375.3461 375.3461
   375.3868 375.4156 375.4157 375.4157 375.4263 375.5518 375.5899 376.0348
   376.0348 376.0983 377.2713 377.2713 377.4759 377.4828 377.8490 377.8490
   377.8652 377.8693 378.3726 378.4885 378.4885 378.6058 379.0369 379.0369
   379.0639 379.0673 380.0546 380.2286 380.2286 380.3509 380.3537 380.4198
   380.4198 380.5224 380.8731 380.8848 380.8848 380.9091 381.7857 381.8050

     the Fermi energy is     9.2068 ev
     (compare with:     9.7249 eV, computed in scf)

     Writing all to output data dir out/mp-19717.save/
 
     init_run     :      0.03s CPU      0.07s WALL (       1 calls)
     electrons    :   1149.54s CPU   1219.67s WALL (       1 calls)

     Called by init_run:
     wfcinit      :      0.00s CPU      0.00s WALL (       1 calls)
     potinit      :      0.01s CPU      0.02s WALL (       1 calls)
     hinit0       :      0.01s CPU      0.03s WALL (       1 calls)

     Called by electrons:
     c_bands      :   1149.53s CPU   1219.62s WALL (       1 calls)
     v_of_rho     :      0.00s CPU      0.00s WALL (       1 calls)

     Called by c_bands:
     init_us_2    :      0.00s CPU      0.00s WALL (      15 calls)
     init_us_2:cp :      0.00s CPU      0.00s WALL (      15 calls)
     cegterg      :   1078.95s CPU   1143.83s WALL (      15 calls)

     Called by *egterg:
     cdiaghg      :   1004.47s CPU   1066.91s WALL (     169 calls)
     h_psi        :     22.73s CPU     23.62s WALL (     184 calls)
     g_psi        :      0.14s CPU      0.14s WALL (     154 calls)

     Called by h_psi:
     h_psi:calbec :      0.54s CPU      0.59s WALL (     184 calls)
     vloc_psi     :     21.44s CPU     22.29s WALL (     184 calls)
     add_vuspsi   :      0.45s CPU      0.45s WALL (     184 calls)

     General routines
     calbec       :      0.54s CPU      0.59s WALL (     184 calls)
     fft          :      0.00s CPU      0.02s WALL (      10 calls)
     fftw         :     19.57s CPU     20.34s WALL (  220614 calls)
 
     Parallel routines
 
     PWSCF        :  19m10.84s CPU  20m22.55s WALL

 
   This run was terminated on:  21:35:59   1Dec2023            

=------------------------------------------------------------------------------=
   JOB DONE.
=------------------------------------------------------------------------------=
