
     Program PWSCF v.7.1 starts on  1Dec2023 at 21:15:24 

     This program is part of the open-source Quantum ESPRESSO suite
     for quantum simulation of materials; please cite
         "P. Giannozzi et al., J. Phys.:Condens. Matter 21 395502 (2009);
         "P. Giannozzi et al., J. Phys.:Condens. Matter 29 465901 (2017);
         "P. Giannozzi et al., J. Chem. Phys. 152 154105 (2020);
          URL http://www.quantum-espresso.org", 
     in publications or presentations arising from this work. More details at
     http://www.quantum-espresso.org/quote

     Parallel version (MPI), running on    24 processors

     MPI processes distributed on     1 nodes
     122865 MiB available memory on the printing compute node when the environment starts
 
     Reading input from pw_mp-19717_scf_k3000_E55.in
Warning: card &CELL ignored
Warning: card / ignored

     Current dimensions of program PWSCF are:
     Max number of different atomic species (ntypx) = 10
     Max number of k-points (npk) =  40000
     Max angular momentum in pseudopotentials (lmaxx) =  4
 
     K-points division:     npool     =       2
     R & G space division:  proc/nbgrp/npool/nimage =      12
     Subspace diagonalization in iterative solution of the eigenvalue problem:
     a serial algorithm will be used

 
     Parallelization info
     --------------------
     sticks:   dense  smooth     PW     G-vecs:    dense   smooth      PW
     Min          96      96     29                 2176     2176     356
     Max          97      97     30                 2179     2179     359
     Sum        1159    1159    349                26133    26133    4279
 
     Using Slab Decomposition
 


     bravais-lattice index     =            2
     lattice parameter (alat)  =      12.3622  a.u.
     unit-cell volume          =     472.3099 (a.u.)^3
     number of atoms/cell      =            2
     number of atomic types    =            2
     number of electrons       =        30.00
     number of Kohn-Sham states=           30
     kinetic-energy cutoff     =      55.0000  Ry
     charge density cutoff     =     220.0000  Ry
     scf convergence threshold =      1.0E-10
     mixing beta               =       0.7000
     number of iterations used =            8  plain     mixing
     Exchange-correlation= PBE
                           (   1   4   3   4   0   0   0)

     celldm(1)=  12.362197  celldm(2)=   0.000000  celldm(3)=   0.000000
     celldm(4)=   0.000000  celldm(5)=   0.000000  celldm(6)=   0.000000

     crystal axes: (cart. coord. in units of alat)
               a(1) = (  -0.500000   0.000000   0.500000 )  
               a(2) = (   0.000000   0.500000   0.500000 )  
               a(3) = (  -0.500000   0.500000   0.000000 )  

     reciprocal axes: (cart. coord. in units 2 pi/alat)
               b(1) = ( -1.000000 -1.000000  1.000000 )  
               b(2) = (  1.000000  1.000000  1.000000 )  
               b(3) = ( -1.000000  1.000000 -1.000000 )  


     PseudoPot. # 1 for Pb read from file:
     /usr/scratch4/magr4985/MG/HTDF/pseudo/SG15/Pb.upf
     MD5 check sum: 7f27c247474026287e0dbe0f3167d60b
     Pseudo is Norm-conserving, Zval = 14.0
     Generated using ONCVPSP code by D. R. Hamann
     Using radial grid of  602 points,  8 beta functions with: 
                l(1) =   0
                l(2) =   0
                l(3) =   1
                l(4) =   1
                l(5) =   2
                l(6) =   2
                l(7) =   3
                l(8) =   3

     PseudoPot. # 2 for Te read from file:
     /usr/scratch4/magr4985/MG/HTDF/pseudo/SG15/Te.upf
     MD5 check sum: dd4de4dac1e38587f63aaf3700bb29d3
     Pseudo is Norm-conserving, Zval = 16.0
     Generated using ONCVPSP code by D. R. Hamann
     Using radial grid of  602 points,  6 beta functions with: 
                l(1) =   0
                l(2) =   0
                l(3) =   1
                l(4) =   1
                l(5) =   2
                l(6) =   2

     atomic species   valence    mass     pseudopotential
        Pb            14.00   207.20000     Pb( 1.00)
        Te            16.00   127.60000     Te( 1.00)

     48 Sym. Ops., with inversion, found



   Cartesian axes

     site n.     atom                  positions (alat units)
         1           Te  tau(   1) = (   0.0000000   0.0000000   0.0000000  )
         2           Pb  tau(   2) = (  -0.5000000   0.5000000   0.5000000  )

     number of k points=    72  Gaussian smearing, width (Ry)=  0.0005
                       cart. coord. in units 2pi/alat
        k(    1) = (   0.0000000   0.0000000   0.0000000), wk =   0.0011574
        k(    2) = (  -0.0833333   0.0833333  -0.0833333), wk =   0.0092593
        k(    3) = (  -0.1666667   0.1666667  -0.1666667), wk =   0.0092593
        k(    4) = (  -0.2500000   0.2500000  -0.2500000), wk =   0.0092593
        k(    5) = (  -0.3333333   0.3333333  -0.3333333), wk =   0.0092593
        k(    6) = (  -0.4166667   0.4166667  -0.4166667), wk =   0.0092593
        k(    7) = (   0.5000000  -0.5000000   0.5000000), wk =   0.0046296
        k(    8) = (   0.0000000   0.1666667   0.0000000), wk =   0.0069444
        k(    9) = (  -0.0833333   0.2500000  -0.0833333), wk =   0.0277778
        k(   10) = (  -0.1666667   0.3333333  -0.1666667), wk =   0.0277778
        k(   11) = (  -0.2500000   0.4166667  -0.2500000), wk =   0.0277778
        k(   12) = (  -0.3333333   0.5000000  -0.3333333), wk =   0.0277778
        k(   13) = (   0.5833333  -0.4166667   0.5833333), wk =   0.0277778
        k(   14) = (   0.5000000  -0.3333333   0.5000000), wk =   0.0277778
        k(   15) = (   0.4166667  -0.2500000   0.4166667), wk =   0.0277778
        k(   16) = (   0.3333333  -0.1666667   0.3333333), wk =   0.0277778
        k(   17) = (   0.2500000  -0.0833333   0.2500000), wk =   0.0277778
        k(   18) = (   0.1666667  -0.0000000   0.1666667), wk =   0.0138889
        k(   19) = (   0.0000000   0.3333333   0.0000000), wk =   0.0069444
        k(   20) = (  -0.0833333   0.4166667  -0.0833333), wk =   0.0277778
        k(   21) = (  -0.1666667   0.5000000  -0.1666667), wk =   0.0277778
        k(   22) = (  -0.2500000   0.5833333  -0.2500000), wk =   0.0277778
        k(   23) = (   0.6666667  -0.3333333   0.6666667), wk =   0.0277778
        k(   24) = (   0.5833333  -0.2500000   0.5833333), wk =   0.0277778
        k(   25) = (   0.5000000  -0.1666667   0.5000000), wk =   0.0277778
        k(   26) = (   0.4166667  -0.0833333   0.4166667), wk =   0.0277778
        k(   27) = (   0.3333333   0.0000000   0.3333333), wk =   0.0138889
        k(   28) = (   0.0000000   0.5000000   0.0000000), wk =   0.0069444
        k(   29) = (  -0.0833333   0.5833333  -0.0833333), wk =   0.0277778
        k(   30) = (  -0.1666667   0.6666667  -0.1666667), wk =   0.0277778
        k(   31) = (   0.7500000  -0.2500000   0.7500000), wk =   0.0277778
        k(   32) = (   0.6666667  -0.1666667   0.6666667), wk =   0.0277778
        k(   33) = (   0.5833333  -0.0833333   0.5833333), wk =   0.0277778
        k(   34) = (   0.5000000   0.0000000   0.5000000), wk =   0.0138889
        k(   35) = (   0.0000000   0.6666667   0.0000000), wk =   0.0069444
        k(   36) = (  -0.0833333   0.7500000  -0.0833333), wk =   0.0277778
        k(   37) = (   0.8333333  -0.1666667   0.8333333), wk =   0.0277778
        k(   38) = (   0.7500000  -0.0833333   0.7500000), wk =   0.0277778
        k(   39) = (   0.6666667  -0.0000000   0.6666667), wk =   0.0138889
        k(   40) = (   0.0000000   0.8333333   0.0000000), wk =   0.0069444
        k(   41) = (   0.9166667  -0.0833333   0.9166667), wk =   0.0277778
        k(   42) = (   0.8333333   0.0000000   0.8333333), wk =   0.0138889
        k(   43) = (   0.0000000  -1.0000000   0.0000000), wk =   0.0034722
        k(   44) = (  -0.1666667   0.3333333   0.0000000), wk =   0.0277778
        k(   45) = (  -0.2500000   0.4166667  -0.0833333), wk =   0.0555556
        k(   46) = (  -0.3333333   0.5000000  -0.1666667), wk =   0.0555556
        k(   47) = (   0.5833333  -0.4166667   0.7500000), wk =   0.0555556
        k(   48) = (   0.5000000  -0.3333333   0.6666667), wk =   0.0277778
        k(   49) = (  -0.1666667   0.5000000   0.0000000), wk =   0.0277778
        k(   50) = (  -0.2500000   0.5833333  -0.0833333), wk =   0.0555556
        k(   51) = (   0.6666667  -0.3333333   0.8333333), wk =   0.0555556
        k(   52) = (   0.5833333  -0.2500000   0.7500000), wk =   0.0555556
        k(   53) = (   0.5000000  -0.1666667   0.6666667), wk =   0.0555556
        k(   54) = (   0.4166667  -0.0833333   0.5833333), wk =   0.0555556
        k(   55) = (   0.3333333   0.0000000   0.5000000), wk =   0.0277778
        k(   56) = (  -0.1666667   0.6666667  -0.0000000), wk =   0.0277778
        k(   57) = (   0.7500000  -0.2500000   0.9166667), wk =   0.0555556
        k(   58) = (   0.6666667  -0.1666667   0.8333333), wk =   0.0555556
        k(   59) = (   0.5833333  -0.0833333   0.7500000), wk =   0.0555556
        k(   60) = (   0.5000000   0.0000000   0.6666667), wk =   0.0277778
        k(   61) = (   0.8333333  -0.1666667   1.0000000), wk =   0.0277778
        k(   62) = (   0.7500000  -0.0833333   0.9166667), wk =   0.0555556
        k(   63) = (   0.6666667   0.0000000   0.8333333), wk =   0.0277778
        k(   64) = (  -0.1666667  -1.0000000  -0.0000000), wk =   0.0138889
        k(   65) = (   0.6666667  -0.3333333   1.0000000), wk =   0.0277778
        k(   66) = (   0.5833333  -0.2500000   0.9166667), wk =   0.0555556
        k(   67) = (   0.5000000  -0.1666667   0.8333333), wk =   0.0277778
        k(   68) = (   0.6666667  -0.1666667   1.0000000), wk =   0.0277778
        k(   69) = (   0.5833333  -0.0833333   0.9166667), wk =   0.0555556
        k(   70) = (   0.5000000   0.0000000   0.8333333), wk =   0.0277778
        k(   71) = (  -0.3333333  -1.0000000   0.0000000), wk =   0.0138889
        k(   72) = (  -0.5000000  -1.0000000   0.0000000), wk =   0.0069444

     Dense  grid:    26133 G-vectors     FFT dimensions: (  45,  45,  45)

     Estimated max dynamical RAM per process >       8.26 MB

     Estimated total dynamical RAM >     191.86 MB

     Initial potential from superposition of free atoms

     starting charge      29.8591, renormalised to      30.0000
     Starting wfcs are random

     total cpu time spent up to now is        0.5 secs

     Self-consistent Calculation

     iteration #  1     ecut=    55.00 Ry     beta= 0.70
     Davidson diagonalization with overlap
     ethr =  1.00E-02,  avg # of iterations =  8.6

     Threshold (ethr) on eigenvalues was too large:
     Diagonalizing with lowered threshold

     Davidson diagonalization with overlap
     ethr =  1.26E-04,  avg # of iterations =  4.9

     total cpu time spent up to now is        4.4 secs

     total energy              =    -287.72454701 Ry
     estimated scf accuracy    <       0.03409461 Ry

     iteration #  2     ecut=    55.00 Ry     beta= 0.70
     Davidson diagonalization with overlap
     ethr =  1.14E-04,  avg # of iterations =  2.2

     total cpu time spent up to now is        5.6 secs

     total energy              =    -287.73213087 Ry
     estimated scf accuracy    <       0.01301236 Ry

     iteration #  3     ecut=    55.00 Ry     beta= 0.70
     Davidson diagonalization with overlap
     ethr =  4.34E-05,  avg # of iterations =  1.8

     total cpu time spent up to now is        6.5 secs

     total energy              =    -287.73560505 Ry
     estimated scf accuracy    <       0.00054289 Ry

     iteration #  4     ecut=    55.00 Ry     beta= 0.70
     Davidson diagonalization with overlap
     ethr =  1.81E-06,  avg # of iterations =  6.3

     total cpu time spent up to now is        7.7 secs

     total energy              =    -287.73570107 Ry
     estimated scf accuracy    <       0.00001321 Ry

     iteration #  5     ecut=    55.00 Ry     beta= 0.70
     Davidson diagonalization with overlap
     ethr =  4.40E-08,  avg # of iterations =  2.0

     total cpu time spent up to now is        8.7 secs

     total energy              =    -287.73570259 Ry
     estimated scf accuracy    <       0.00000040 Ry

     iteration #  6     ecut=    55.00 Ry     beta= 0.70
     Davidson diagonalization with overlap
     ethr =  1.35E-09,  avg # of iterations =  2.0

     total cpu time spent up to now is        9.6 secs

     total energy              =    -287.73570266 Ry
     estimated scf accuracy    <          8.6E-09 Ry

     iteration #  7     ecut=    55.00 Ry     beta= 0.70
     Davidson diagonalization with overlap
     ethr =  2.88E-11,  avg # of iterations =  2.6

     total cpu time spent up to now is       10.6 secs

     total energy              =    -287.73570266 Ry
     estimated scf accuracy    <          1.6E-10 Ry

     iteration #  8     ecut=    55.00 Ry     beta= 0.70
     Davidson diagonalization with overlap
     ethr =  5.32E-13,  avg # of iterations =  2.7

     total cpu time spent up to now is       11.8 secs

     End of self-consistent calculation

          k = 0.0000 0.0000 0.0000 (  3287 PWs)   bands (ev):

   -26.8832 -26.8832 -26.8781 -26.8781 -26.8781  -7.4948  -7.4948  -7.4896
    -7.4896  -7.4896  -2.5446   3.4828   7.9708   7.9708   7.9708  13.2292
    13.2292  13.2292  15.0871  15.0871  15.0871  16.6369  16.7322  17.2257
    17.2257  27.8491  27.8491  27.8491  28.4093  28.4093

          k =-0.0833 0.0833-0.0833 (  3254 PWs)   bands (ev):

   -26.8832 -26.8832 -26.8781 -26.8781 -26.8781  -7.4955  -7.4955  -7.4895
    -7.4888  -7.4888  -2.4879   3.3050   7.9875   7.9875   8.0681  12.8424
    12.9485  12.9485  14.9854  15.2193  15.2193  17.0984  17.2686  17.6159
    17.6159  26.9737  26.9737  27.3298  27.9173  28.3349

          k =-0.1667 0.1667-0.1667 (  3278 PWs)   bands (ev):

   -26.8831 -26.8831 -26.8780 -26.8780 -26.8780  -7.4978  -7.4978  -7.4890
    -7.4862  -7.4862  -2.3210   2.8387   8.0389   8.0389   8.3005  12.0847
    12.3365  12.3365  14.9574  15.5870  15.5870  18.1202  18.5270  18.5793
    18.5793  25.3226  25.3226  25.5913  28.1212  28.5551

          k =-0.2500 0.2500-0.2500 (  3263 PWs)   bands (ev):

   -26.8831 -26.8831 -26.8780 -26.8779 -26.8779  -7.5011  -7.5011  -7.4885
    -7.4825  -7.4825  -2.0545   2.2176   8.1262   8.1262   8.5684  11.3258
    11.6732  11.6732  15.2378  16.1659  16.1659  19.3279  19.8391  19.8391
    20.0990  23.6657  23.6657  24.0203  28.4573  28.8709

          k =-0.3333 0.3333-0.3333 (  3257 PWs)   bands (ev):

   -26.8831 -26.8831 -26.8779 -26.8778 -26.8778  -7.5046  -7.5046  -7.4880
    -7.4786  -7.4786  -1.7155   1.5670   8.2415   8.2415   8.8226  10.6784
    11.0952  11.0952  15.8576  16.9358  16.9358  20.0082  21.1441  21.1441
    21.7480  22.2413  22.2413  23.4735  28.3362  28.3363

          k =-0.4167 0.4167-0.4167 (  3248 PWs)   bands (ev):

   -26.8830 -26.8830 -26.8779 -26.8777 -26.8777  -7.5071  -7.5071  -7.4876
    -7.4758  -7.4758  -1.3749   1.0185   8.3540   8.3540   9.0514  10.1922
    10.6887  10.6887  16.7567  17.8482  17.8482  19.2690  20.5741  20.5741
    22.9298  22.9298  23.5060  24.7334  26.7890  26.7890

          k = 0.5000-0.5000 0.5000 (  3274 PWs)   bands (ev):

   -26.8830 -26.8830 -26.8779 -26.8777 -26.8777  -7.5080  -7.5080  -7.4875
    -7.4747  -7.4747  -1.2091   0.7800   8.4042   8.4042   9.1740   9.9798
    10.5380  10.5380  17.5676  18.3818  18.5284  18.5284  19.7628  19.7628
    23.9255  23.9255  25.3243  25.6751  25.7188  25.7188

          k = 0.0000 0.1667 0.0000 (  3255 PWs)   bands (ev):

   -26.8832 -26.8832 -26.8781 -26.8780 -26.8780  -7.4971  -7.4941  -7.4902
    -7.4883  -7.4883  -2.4691   3.2620   7.8557   7.8557   8.3522  12.2040
    13.2331  13.2331  14.6462  15.4550  15.4550  16.8814  17.2993  17.3581
    18.3342  26.9446  27.0824  27.0826  27.3820  28.1920

          k =-0.0833 0.2500-0.0833 (  3257 PWs)   bands (ev):

   -26.8832 -26.8831 -26.8781 -26.8780 -26.8780  -7.5001  -7.4947  -7.4903
    -7.4865  -7.4859  -2.3392   2.9279   7.7737   7.8092   8.6710  11.4480
    12.9302  12.9993  14.4881  15.7707  15.8863  17.4228  17.7675  18.2381
    19.4745  25.3271  25.4728  27.1310  27.1834  27.5211

          k =-0.1667 0.3333-0.1667 (  3261 PWs)   bands (ev):

   -26.8831 -26.8831 -26.8780 -26.8779 -26.8779  -7.5038  -7.4972  -7.4895
    -7.4838  -7.4820  -2.1062   2.3944   7.7591   7.8621   8.8603  10.8637
    12.3186  12.4607  14.6438  16.1983  16.4830  18.4890  18.8014  19.6348
    20.7453  23.6393  23.8321  25.5970  27.4800  27.7570

          k =-0.2500 0.4167-0.2500 (  3262 PWs)   bands (ev):

   -26.8831 -26.8831 -26.8780 -26.8778 -26.8778  -7.5073  -7.5007  -7.4884
    -7.4808  -7.4781  -1.7908   1.7789   7.8221   7.9648   8.8082  10.6029
    11.7116  11.8586  15.1088  16.8510  17.2511  19.5466  20.0608  21.2659
    21.5744  22.1332  23.1141  24.1509  27.8447  27.8999

          k =-0.3333 0.5000-0.3333 (  3257 PWs)   bands (ev):

   -26.8831 -26.8830 -26.8779 -26.8778 -26.8777  -7.5096  -7.5040  -7.4874
    -7.4779  -7.4753  -1.4443   1.2047   7.9619   8.0306   8.6384  10.5928
    11.2623  11.3123  15.8688  17.7102  18.1375  19.3066  20.3423  21.6914
    21.9519  22.7646  23.2924  24.6127  26.4728  27.9315

          k = 0.5833-0.4167 0.5833 (  3251 PWs)   bands (ev):

   -26.8831 -26.8830 -26.8779 -26.8777 -26.8777  -7.5102  -7.5064  -7.4869
    -7.4760  -7.4744  -1.2002   0.8478   7.9005   8.1581   8.6824  10.4760
    10.8882  11.2268  16.8218  18.1874  18.5693  18.7003  19.8463  20.7963
    23.3330  23.5755  24.7446  25.2270  26.2853  26.4036

          k = 0.5000-0.3333 0.5000 (  3243 PWs)   bands (ev):

   -26.8831 -26.8830 -26.8779 -26.8777 -26.8777  -7.5088  -7.5071  -7.4869
    -7.4756  -7.4755  -1.2561   0.9234   7.6868   8.3555   8.8912  10.2818
    10.6549  11.5479  16.7955  17.7151  18.2452  19.0858  20.2958  20.8421
    22.5884  23.8742  24.4093  25.4054  25.8768  26.3377

          k = 0.4167-0.2500 0.4167 (  3250 PWs)   bands (ev):

   -26.8831 -26.8831 -26.8779 -26.8778 -26.8778  -7.5061  -7.5057  -7.4873
    -7.4784  -7.4769  -1.5569   1.3726   7.5364   8.4640   9.0221  10.3171
    10.6973  12.0054  15.9042  16.7993  18.1491  19.3909  20.3115  22.1057
    22.1784  22.4854  22.7062  24.0307  27.2006  28.0115

          k = 0.3333-0.1667 0.3333 (  3250 PWs)   bands (ev):

   -26.8831 -26.8831 -26.8780 -26.8779 -26.8778  -7.5037  -7.5018  -7.4881
    -7.4822  -7.4797  -1.9026   1.9699   7.4897   8.4343   8.9216  10.7154
    11.0461  12.5173  15.2547  16.0572  17.2315  18.8143  20.3622  20.7509
    21.0706  22.4756  23.8004  24.1240  27.6325  28.0624

          k = 0.2500-0.0833 0.2500 (  3269 PWs)   bands (ev):

   -26.8831 -26.8831 -26.8780 -26.8780 -26.8779  -7.5006  -7.4981  -7.4890
    -7.4858  -7.4832  -2.1944   2.5662   7.5568   8.3089   8.6599  11.3687
    11.6258  12.9846  14.9316  15.5323  16.4251  17.7285  19.1363  19.5043
    19.7010  23.6372  25.4236  25.6291  27.3131  27.6601

          k = 0.1667-0.0000 0.1667 (  3255 PWs)   bands (ev):

   -26.8832 -26.8831 -26.8781 -26.8780 -26.8780  -7.4976  -7.4957  -7.4895
    -7.4881  -7.4866  -2.3945   3.0476   7.7353   8.1473   8.3374  12.1433
    12.3168  13.2124  14.8663  15.2468  15.7488  17.1451  17.9289  18.2943
    18.5039  25.3335  26.9781  27.1545  27.1662  27.5150

          k = 0.0000 0.3333 0.0000 (  3251 PWs)   bands (ev):

   -26.8832 -26.8831 -26.8781 -26.8779 -26.8779  -7.5045  -7.4924  -7.4917
    -7.4845  -7.4845  -2.2481   2.7974   7.5629   7.5629   8.8911  10.9721
    13.3449  13.3449  13.9703  16.3927  16.3927  17.1537  17.5202  18.5883
    20.6633  25.4098  25.5080  25.5080  25.6708  28.3871

          k =-0.0833 0.4167-0.0833 (  3258 PWs)   bands (ev):

   -26.8832 -26.8831 -26.8781 -26.8778 -26.8778  -7.5094  -7.4928  -7.4920
    -7.4820  -7.4811  -2.0542   2.4548   7.4362   7.4635   8.5967  11.0529
    13.1031  13.2019  13.9120  16.8609  16.9955  17.7808  18.0735  19.5907
    21.8993  23.7342  23.9158  25.7171  25.7784  27.6014

          k =-0.1667 0.5000-0.1667 (  3253 PWs)   bands (ev):

   -26.8832 -26.8830 -26.8781 -26.8778 -26.8777  -7.5137  -7.4953  -7.4910
    -7.4797  -7.4772  -1.7747   1.9682   7.4110   7.4706   8.0950  11.3912
    12.6133  12.7427  14.1719  17.4219  17.7246  18.8130  19.1471  21.0472
    21.8987  22.1762  23.8386  25.6040  26.0968  26.6693

          k =-0.2500 0.5833-0.2500 (  3262 PWs)   bands (ev):

   -26.8831 -26.8830 -26.8780 -26.8777 -26.8777  -7.5163  -7.4987  -7.4889
    -7.4782  -7.4743  -1.4490   1.4459   7.3614   7.4948   7.8396  11.6229
    12.1932  12.2516  14.7294  18.1906  18.5676  19.1623  19.9971  21.3201
    21.4560  22.8927  24.1390  25.1374  26.2784  26.5828

          k = 0.6667-0.3333 0.6667 (  3255 PWs)   bands (ev):

   -26.8831 -26.8830 -26.8779 -26.8777 -26.8776  -7.5165  -7.5019  -7.4866
    -7.4776  -7.4734  -1.1720   1.0371   7.0333   7.6844   8.0059  11.3793
    11.6650  12.4040  15.5699  18.1645  18.7038  19.1330  20.0680  22.1381
    22.4061  23.1177  24.0625  24.9407  27.0387  27.2919

          k = 0.5833-0.2500 0.5833 (  3244 PWs)   bands (ev):

   -26.8831 -26.8830 -26.8779 -26.8777 -26.8777  -7.5143  -7.5043  -7.4851
    -7.4775  -7.4746  -1.1180   0.9443   6.7930   7.9600   8.3155  10.9987
    11.2124  12.7523  16.5150  17.2053  17.7549  19.8593  21.1732  21.1734
    22.3866  23.7938  24.8619  25.5388  26.1700  26.6267

          k = 0.5000-0.1667 0.5000 (  3243 PWs)   bands (ev):

   -26.8831 -26.8830 -26.8779 -26.8778 -26.8777  -7.5102  -7.5052  -7.4852
    -7.4776  -7.4773  -1.3387   1.2218   6.7129   8.2678   8.6919  10.6692
    10.8902  13.0943  16.0705  16.8618  18.0037  19.4304  19.9210  22.5232
    22.6437  23.5379  23.7909  25.0577  26.1592  26.8442

          k = 0.4167-0.0833 0.4167 (  3263 PWs)   bands (ev):

   -26.8831 -26.8831 -26.8779 -26.8778 -26.8778  -7.5054  -7.5046  -7.4866
    -7.4808  -7.4784  -1.6649   1.6813   6.8156   8.4916   9.0107  10.4995
    10.8017  13.3221  15.5249  16.1745  18.2568  18.5648  19.6025  21.7562
    22.4281  23.0594  23.9955  24.3967  26.1892  26.5696

          k = 0.3333 0.0000 0.3333 (  3264 PWs)   bands (ev):

   -26.8831 -26.8831 -26.8780 -26.8779 -26.8778  -7.5029  -7.5009  -7.4881
    -7.4839  -7.4802  -1.9682   2.1603   7.1056   8.4987   8.9964  10.7384
    11.0610  13.3240  15.1808  15.7278  17.4166  17.6851  20.2702  20.3174
    21.0095  22.4663  25.3307  25.5197  26.0823  26.4432

          k = 0.0000 0.5000 0.0000 (  3263 PWs)   bands (ev):

   -26.8832 -26.8830 -26.8782 -26.8777 -26.8777  -7.5164  -7.4938  -7.4900
    -7.4791  -7.4791  -1.9039   2.3522   7.2045   7.2045   7.9018  11.7300
    13.3969  13.6271  13.6271  17.5735  17.6789  17.6789  17.8864  20.0816
    23.0240  23.9088  24.0043  24.0043  24.2646  28.5928

          k =-0.0833 0.5833-0.0833 (  3263 PWs)   bands (ev):

   -26.8832 -26.8830 -26.8782 -26.8777 -26.8777  -7.5223  -7.4940  -7.4903
    -7.4766  -7.4758  -1.6710   2.0786   7.0669   7.0872   7.2653  12.4084
    13.1897  13.5520  13.7105  18.0099  18.2667  18.4991  18.6177  21.1644
    22.1733  22.3539  24.2393  24.3057  24.8659  27.1240

          k =-0.1667 0.6667-0.1667 (  3249 PWs)   bands (ev):

   -26.8832 -26.8830 -26.8781 -26.8776 -26.8776  -7.5257  -7.4927  -7.4926
    -7.4753  -7.4729  -1.3886   1.6924   6.6064   7.0956   7.2335  12.7028
    13.1338  13.2095  13.8970  18.6995  19.0945  19.1577  19.4874  21.1730
    21.2017  22.7370  24.5837  24.7697  24.8685  26.5289

          k = 0.7500-0.2500 0.7500 (  3248 PWs)   bands (ev):

   -26.8832 -26.8829 -26.8780 -26.8776 -26.8776  -7.5259  -7.4960  -7.4896
    -7.4756  -7.4719  -1.1241   1.3094   6.2121   7.2317   7.4322  12.3422
    12.5881  13.6013  14.4783  18.3623  18.9585  19.6821  20.2880  21.6712
    21.8783  23.1250  24.4886  24.7359  25.2994  25.9046

          k = 0.6667-0.1667 0.6667 (  3241 PWs)   bands (ev):

   -26.8832 -26.8830 -26.8779 -26.8777 -26.8776  -7.5228  -7.4994  -7.4859
    -7.4773  -7.4729  -0.9991   1.0887   6.0141   7.4882   7.7428  11.8669
    12.0170  13.9018  15.3894  17.3934  17.9893  20.0738  21.4859  22.0402
    22.7818  23.0015  24.2174  25.5894  25.8252  26.4356

          k = 0.5833-0.0833 0.5833 (  3243 PWs)   bands (ev):

   -26.8831 -26.8830 -26.8778 -26.8777 -26.8776  -7.5174  -7.5023  -7.4826
    -7.4798  -7.4754  -1.1092   1.1397   6.0427   7.8412   8.1492  11.3642
    11.4692  13.9963  16.4493  16.7409  17.1466  19.2760  21.3098  22.7651
    23.1268  24.2171  24.7639  25.2134  25.3553  25.8089

          k = 0.5000 0.0000 0.5000 (  3250 PWs)   bands (ev):

   -26.8831 -26.8830 -26.8778 -26.8778 -26.8777  -7.5110  -7.5041  -7.4840
    -7.4791  -7.4783  -1.3755   1.3818   6.3140   8.2279   8.6208  10.8583
    11.0108  13.8082  16.0670  16.5353  17.7954  18.5997  20.0411  23.0770
    23.6616  24.0326  24.2315  24.3623  25.1358  25.8348

          k = 0.0000 0.6667 0.0000 (  3270 PWs)   bands (ev):

   -26.8833 -26.8829 -26.8782 -26.8776 -26.8776  -7.5303  -7.4958  -7.4877
    -7.4735  -7.4735  -1.4951   2.0546   6.4854   6.8829   6.8829  12.9781
    13.3497  14.0167  14.0167  18.1814  18.3884  19.1579  19.1579  21.7773
    22.3156  22.5687  22.7705  22.7705  25.3864  26.8281

          k =-0.0833 0.7500-0.0833 (  3254 PWs)   bands (ev):

   -26.8833 -26.8829 -26.8782 -26.8775 -26.8775  -7.5352  -7.4958  -7.4880
    -7.4717  -7.4711  -1.2767   1.8799   5.9149   6.8127   6.8469  12.9460
    13.9083  13.9509  14.2064  18.7441  18.9739  19.8190  19.8421  21.2165
    21.4006  22.8633  23.1230  23.1294  24.2832  26.8053

          k = 0.8333-0.1667 0.8333 (  3259 PWs)   bands (ev):

   -26.8833 -26.8829 -26.8781 -26.8775 -26.8775  -7.5358  -7.4938  -7.4904
    -7.4718  -7.4701  -1.0656   1.6053   5.5530   6.8817   6.9863  13.0118
    13.5031  13.8830  14.6539  18.7987  19.3523  20.1144  20.2085  21.3529
    21.5678  22.8650  23.5330  23.6744  24.5643  26.0283

          k = 0.7500-0.0833 0.7500 (  3243 PWs)   bands (ev):

   -26.8833 -26.8829 -26.8780 -26.8776 -26.8775  -7.5322  -7.4940  -7.4901
    -7.4738  -7.4709  -0.9333   1.3328   5.4418   7.0876   7.2647  12.6769
    12.8752  14.3896  14.8098  18.0284  18.4453  20.2773  21.2996  22.0990
    22.6251  22.6710  23.9509  24.1040  25.3744  25.7431

          k = 0.6667-0.0000 0.6667 (  3236 PWs)   bands (ev):

   -26.8832 -26.8829 -26.8779 -26.8776 -26.8776  -7.5254  -7.4983  -7.4857
    -7.4772  -7.4729  -0.9482   1.1654   5.6061   7.4182   7.6580  12.0724
    12.1719  14.5805  15.3481  17.3204  17.6744  19.5365  22.3964  22.4422
    23.1891  23.7250  24.2489  24.3712  25.0355  25.8128

          k = 0.0000 0.8333 0.0000 (  3270 PWs)   bands (ev):

   -26.8834 -26.8829 -26.8783 -26.8774 -26.8774  -7.5417  -7.4973  -7.4859
    -7.4693  -7.4693  -1.1403   1.9421   5.3971   6.6660   6.6660  12.7249
    14.3757  14.3757  14.9248  18.9780  19.0189  20.5237  20.5237  21.1170
    21.4690  22.1201  22.1201  23.4284  23.6306  25.8134

          k = 0.9167-0.0833 0.9167 (  3273 PWs)   bands (ev):

   -26.8834 -26.8829 -26.8782 -26.8774 -26.8774  -7.5433  -7.4968  -7.4866
    -7.4688  -7.4684  -1.0157   1.8441   5.1209   6.6638   6.6937  12.7965
    14.2327  14.2816  15.3855  19.4473  19.5241  20.1058  20.2787  21.3371
    21.7419  22.1062  22.4806  22.8869  24.5631  25.0835

          k = 0.8333 0.0000 0.8333 (  3262 PWs)   bands (ev):

   -26.8833 -26.8829 -26.8782 -26.8775 -26.8774  -7.5397  -7.4942  -7.4895
    -7.4705  -7.4691  -0.9392   1.6142   5.1333   6.8066   6.9057  13.0322
    13.6624  13.9962  15.3388  18.8212  19.1431  20.4534  20.6470  21.4036
    22.2823  22.7061  22.8305  23.4348  24.4995  24.9811

          k = 0.0000-1.0000 0.0000 (  3250 PWs)   bands (ev):

   -26.8834 -26.8829 -26.8783 -26.8774 -26.8774  -7.5461  -7.4979  -7.4853
    -7.4677  -7.4677  -0.9958   1.9382   4.9685   6.5900   6.5900  12.6403
    14.5269  14.5269  15.6666  19.3543  19.9272  20.2417  20.9055  20.9055
    20.9217  22.2946  22.4394  22.4394  24.6607  24.6607

          k =-0.1667 0.3333 0.0000 (  3262 PWs)   bands (ev):

   -26.8832 -26.8831 -26.8781 -26.8779 -26.8779  -7.5039  -7.4951  -7.4905
    -7.4846  -7.4828  -2.1765   2.5937   7.4316   7.9361   8.8868  10.9127
    12.3740  13.2709  14.4100  16.0694  16.6142  17.4025  18.6182  19.1183
    20.7014  23.6673  25.5666  25.5693  27.3611  27.3830

          k =-0.2500 0.4167-0.0833 (  3255 PWs)   bands (ev):

   -26.8831 -26.8831 -26.8780 -26.8778 -26.8778  -7.5077  -7.4976  -7.4896
    -7.4820  -7.4795  -1.9186   2.1103   7.1972   8.1063   8.7428  10.8136
    11.7191  13.1399  14.6202  16.4489  17.4894  18.0425  19.7180  20.4754
    21.5182  22.7154  23.9614  25.4965  26.2854  27.6937

          k =-0.3333 0.5000-0.1667 (  3264 PWs)   bands (ev):

   -26.8831 -26.8830 -26.8780 -26.8778 -26.8777  -7.5109  -7.5009  -7.4879
    -7.4795  -7.4766  -1.5947   1.5702   7.1093   8.0835   8.5714  10.8770
    11.2855  12.7991  15.0678  17.0455  18.4473  18.9858  19.7491  21.8285
    22.1084  22.3865  23.7880  24.5475  26.4556  27.0687

          k = 0.5833-0.4167 0.7500 (  3248 PWs)   bands (ev):

   -26.8831 -26.8830 -26.8779 -26.8777 -26.8777  -7.5128  -7.5037  -7.4863
    -7.4778  -7.4747  -1.2766   1.0993   7.1625   7.7536   8.6831  10.5824
    11.4671  12.3894  15.8148  17.8046  18.2229  19.3553  20.2041  21.5223
    22.5863  23.3618  24.1756  24.8702  26.3356  26.9740

          k = 0.5000-0.3333 0.6667 (  3254 PWs)   bands (ev):

   -26.8831 -26.8830 -26.8779 -26.8777 -26.8777  -7.5134  -7.5048  -7.4857
    -7.4773  -7.4740  -1.1262   0.8940   7.2686   7.5327   8.7569  10.4283
    11.6845  12.1226  16.5866  17.1712  18.7423  19.0524  20.7954  21.1659
    22.8827  23.2934  24.8905  25.7200  25.9501  26.6799

          k =-0.1667 0.5000 0.0000 (  3255 PWs)   bands (ev):

   -26.8832 -26.8830 -26.8781 -26.8777 -26.8777  -7.5149  -7.4930  -7.4923
    -7.4792  -7.4783  -1.8382   2.1580   7.0634   7.5668   8.0130  11.5613
    12.6791  13.3573  14.0580  17.3641  17.7013  17.9227  18.9633  20.5850
    21.9196  23.4301  24.0676  24.1847  26.0345  27.7282

          k =-0.2500 0.5833-0.0833 (  3249 PWs)   bands (ev):

   -26.8832 -26.8830 -26.8781 -26.8777 -26.8777  -7.5189  -7.4952  -7.4910
    -7.4772  -7.4755  -1.5529   1.7533   6.8294   7.3166   7.9047  11.8667
    12.3050  13.3467  14.3263  17.8148  18.4528  18.8450  19.4550  21.3360
    21.9925  22.4640  24.3649  24.8345  26.2097  26.5902

          k = 0.6667-0.3333 0.8333 (  3256 PWs)   bands (ev):

   -26.8832 -26.8830 -26.8780 -26.8777 -26.8776  -7.5207  -7.4982  -7.4885
    -7.4772  -7.4733  -1.2525   1.3360   6.7253   6.9034   8.1751  11.3957
    12.6459  13.1973  14.7779  18.1336  18.6008  19.4271  20.0318  21.3424
    22.4443  23.6353  24.1833  24.5885  25.4246  27.1150

          k = 0.5833-0.2500 0.7500 (  3247 PWs)   bands (ev):

   -26.8832 -26.8830 -26.8779 -26.8777 -26.8776  -7.5202  -7.5008  -7.4854
    -7.4785  -7.4726  -1.0515   1.0579   6.4952   6.9308   8.4774  10.9303
    12.6523  13.2204  15.5783  17.0631  18.9832  19.4373  21.1279  21.7661
    22.5691  23.2852  24.2415  25.6355  25.7910  26.6565

          k = 0.5000-0.1667 0.6667 (  3240 PWs)   bands (ev):

   -26.8831 -26.8830 -26.8778 -26.8778 -26.8776  -7.5179  -7.5021  -7.4840
    -7.4795  -7.4737  -1.0925   1.0804   6.3648   7.1987   8.7263  10.6355
    12.2485  13.4906  16.0213  16.7519  18.1053  19.7577  21.0809  21.7281
    22.9281  23.7435  24.7928  25.1227  25.6292  26.4089

          k = 0.4167-0.0833 0.5833 (  3251 PWs)   bands (ev):

   -26.8831 -26.8830 -26.8779 -26.8777 -26.8777  -7.5147  -7.5016  -7.4860
    -7.4785  -7.4761  -1.3430   1.3677   6.4344   7.6029   8.7800  10.6512
    11.7807  13.6176  15.4144  17.3234  17.9551  18.9081  20.0064  22.6131
    23.1462  23.4126  24.0648  24.8622  25.4580  26.3742

          k = 0.3333 0.0000 0.5000 (  3247 PWs)   bands (ev):

   -26.8831 -26.8830 -26.8780 -26.8778 -26.8778  -7.5113  -7.4995  -7.4883
    -7.4794  -7.4780  -1.6501   1.7491   6.7181   8.0580   8.6282  10.9532
    11.3698  13.5096  14.9801  16.8154  17.9615  18.6984  19.5380  21.7036
    21.8778  23.7135  24.2343  24.2349  26.2345  26.4713

          k =-0.1667 0.6667-0.0000 (  3262 PWs)   bands (ev):

   -26.8833 -26.8829 -26.8782 -26.8776 -26.8776  -7.5279  -7.4941  -7.4904
    -7.4740  -7.4736  -1.4398   1.8705   6.5485   6.7357   7.3092  12.9360
    13.1868  13.3216  14.2113  18.3045  18.8704  19.0532  19.3833  21.1704
    22.2053  22.5324  22.8683  24.6838  25.1021  26.8040

          k = 0.7500-0.2500 0.9167 (  3253 PWs)   bands (ev):

   -26.8833 -26.8829 -26.8781 -26.8776 -26.8775  -7.5303  -7.4926  -7.4923
    -7.4740  -7.4713  -1.1875   1.5801   6.0639   6.5545   7.6035  12.4079
    13.3696  13.8405  14.4011  18.4179  19.1454  19.4705  20.1489  21.4304
    21.8189  23.1229  23.6231  23.9624  25.1490  26.4231

          k = 0.6667-0.1667 0.8333 (  3250 PWs)   bands (ev):

   -26.8832 -26.8829 -26.8780 -26.8776 -26.8775  -7.5291  -7.4956  -7.4890
    -7.4760  -7.4705  -0.9902   1.3039   5.7839   6.5660   7.9667  11.7980
    13.3913  14.2572  14.6806  17.4486  19.3051  19.9623  20.8579  21.5603
    22.5722  23.1970  23.6048  25.1993  25.2642  25.9718

          k = 0.5833-0.0833 0.7500 (  3243 PWs)   bands (ev):

   -26.8832 -26.8829 -26.8779 -26.8777 -26.8775  -7.5251  -7.4987  -7.4849
    -7.4793  -7.4715  -0.9479   1.1633   5.7440   6.7598   8.3599  11.2217
    13.0125  14.3636  15.4907  16.6239  18.5273  19.7965  21.4819  22.3621
    22.8965  23.4634  24.4128  25.0305  25.4876  25.7661

          k = 0.5000 0.0000 0.6667 (  3247 PWs)   bands (ev):

   -26.8832 -26.8830 -26.8778 -26.8778 -26.8776  -7.5197  -7.5009  -7.4829
    -7.4808  -7.4738  -1.0942   1.2072   5.9634   7.1165   8.7019  10.7637
    12.4364  14.1265  16.0006  16.6398  17.8541  19.0241  21.3284  22.9329
    23.1435  23.9816  24.7234  24.7877  25.2746  25.5368

          k = 0.8333-0.1667 1.0000 (  3262 PWs)   bands (ev):

   -26.8833 -26.8829 -26.8782 -26.8775 -26.8774  -7.5387  -7.4955  -7.4883
    -7.4710  -7.4693  -1.0995   1.7693   5.4752   6.5156   7.0850  12.9880
    13.4323  14.5222  14.7841  18.8613  19.2238  20.1838  20.3511  21.3513
    21.6147  22.0441  23.1794  23.6390  24.0363  25.6219

          k = 0.7500-0.0833 0.9167 (  3250 PWs)   bands (ev):

   -26.8833 -26.8829 -26.8781 -26.8775 -26.8774  -7.5376  -7.4932  -7.4907
    -7.4726  -7.4685  -0.9562   1.5682   5.2817   6.3993   7.4540  12.7280
    13.3235  14.5793  15.0837  18.0987  19.7130  20.1636  20.7905  21.5567
    21.9668  22.3392  23.1711  24.1681  24.3977  25.7838

          k = 0.6667 0.0000 0.8333 (  3249 PWs)   bands (ev):

   -26.8833 -26.8829 -26.8780 -26.8776 -26.8774  -7.5325  -7.4944  -7.4893
    -7.4757  -7.4694  -0.8966   1.3414   5.3707   6.4853   7.8944  11.9774
    13.5017  14.6807  14.9191  17.3220  19.1872  20.1742  20.8978  22.3436
    22.4197  22.9847  24.1659  24.4413  24.4794  25.8295

          k =-0.1667-1.0000-0.0000 (  3250 PWs)   bands (ev):

   -26.8834 -26.8829 -26.8782 -26.8775 -26.8774  -7.5428  -7.4960  -7.4875
    -7.4698  -7.4677  -0.9633   1.7709   5.0510   6.4386   7.0084  12.9148
    13.6144  14.6641  15.4971  18.9026  19.6321  20.6419  20.6830  20.9233
    21.6379  22.2109  22.6263  23.4061  24.1540  25.1165

          k = 0.6667-0.3333 1.0000 (  3253 PWs)   bands (ev):

   -26.8832 -26.8830 -26.8780 -26.8777 -26.8776  -7.5224  -7.4966  -7.4894
    -7.4764  -7.4737  -1.2884   1.4969   6.3780   6.7699   8.2983  11.3854
    12.8601  13.6418  14.8682  18.0472  18.3333  18.7686  20.1343  22.4111
    22.8221  22.8370  23.4748  24.5181  26.4491  26.6443

          k = 0.5833-0.2500 0.9167 (  3251 PWs)   bands (ev):

   -26.8832 -26.8830 -26.8779 -26.8777 -26.8775  -7.5244  -7.4983  -7.4864
    -7.4787  -7.4715  -1.0502   1.2629   6.1380   6.3699   8.6617  10.9197
    13.3928  13.8790  15.2944  16.9360  18.9110  19.4113  21.0008  21.8457
    23.1915  23.3743  23.9730  24.9115  25.3808  26.1056

          k = 0.5000-0.1667 0.8333 (  3246 PWs)   bands (ev):

   -26.8832 -26.8829 -26.8778 -26.8778 -26.8775  -7.5249  -7.4990  -7.4834
    -7.4815  -7.4706  -0.9477   1.1612   6.0942   6.1960   8.8226  10.7247
    13.6498  13.9332  15.8277  16.0427  19.5493  19.6679  21.0359  21.5643
    23.0563  23.3706  24.5150  25.2112  25.3576  26.4119

          k = 0.6667-0.1667 1.0000 (  3261 PWs)   bands (ev):

   -26.8833 -26.8829 -26.8780 -26.8776 -26.8774  -7.5318  -7.4940  -7.4903
    -7.4757  -7.4693  -0.9992   1.4409   5.7075   6.1517   8.1034  11.7802
    13.6294  14.3893  15.0091  17.4061  19.3411  19.9447  20.8858  21.8378
    22.0486  22.8469  23.4021  24.5779  25.6090  25.6538

          k = 0.5833-0.0833 0.9167 (  3247 PWs)   bands (ev):

   -26.8833 -26.8829 -26.8779 -26.8777 -26.8774  -7.5306  -7.4960  -7.4868
    -7.4792  -7.4685  -0.8887   1.3153   5.5856   5.9883   8.5742  11.1872
    13.9598  14.5749  15.3363  16.5605  19.9484  20.2503  20.5356  21.3491
    22.2288  23.6637  24.1056  24.7202  25.5289  26.1796

          k = 0.5000 0.0000 0.8333 (  3247 PWs)   bands (ev):

   -26.8832 -26.8829 -26.8778 -26.8778 -26.8774  -7.5277  -7.4977  -7.4831
    -7.4825  -7.4694  -0.9082   1.2501   5.7316   6.0660   8.8405  10.8147
    13.9198  14.3320  15.9032  15.9521  19.5141  19.6896  21.0374  22.0871
    22.1842  23.6437  24.4858  25.3706  25.6356  25.6713

          k =-0.3333-1.0000 0.0000 (  3244 PWs)   bands (ev):

   -26.8833 -26.8829 -26.8781 -26.8776 -26.8774  -7.5355  -7.4928  -7.4907
    -7.4756  -7.4677  -0.8912   1.4662   5.2890   6.0728   8.0344  11.9608
    13.6027  15.0442  15.1096  17.2906  19.8844  20.7186  20.8509  20.9609
    21.7211  23.0193  23.7136  24.3199  24.6674  26.4208

          k =-0.5000-1.0000 0.0000 (  3248 PWs)   bands (ev):

   -26.8833 -26.8829 -26.8778 -26.8778 -26.8774  -7.5309  -7.4964  -7.4833
    -7.4833  -7.4677  -0.8508   1.3232   5.6511   5.6511   8.8756  10.8897
    14.3914  14.3914  15.9741  15.9741  20.2300  20.2501  20.9809  21.2265
    21.2265  23.5564  24.6320  25.5506  25.8540  25.8541

     the Fermi energy is     9.7249 ev

!    total energy              =    -287.73570266 Ry
     estimated scf accuracy    <          4.4E-12 Ry
     smearing contrib. (-TS)   =      -0.00000000 Ry
     internal energy E=F+TS    =    -287.73570266 Ry

     The total energy is F=E-TS. E is the sum of the following terms:
     one-electron contribution =    -116.47471760 Ry
     hartree contribution      =      68.37681049 Ry
     xc contribution           =     -32.50973345 Ry
     ewald contribution        =    -207.12806211 Ry

     convergence has been achieved in   8 iterations

     Writing all to output data dir out/mp-19717.save/
 
     init_run     :      0.35s CPU      0.44s WALL (       1 calls)
     electrons    :     10.33s CPU     11.28s WALL (       1 calls)

     Called by init_run:
     wfcinit      :      0.32s CPU      0.36s WALL (       1 calls)
     potinit      :      0.01s CPU      0.02s WALL (       1 calls)
     hinit0       :      0.01s CPU      0.04s WALL (       1 calls)

     Called by electrons:
     c_bands      :      9.05s CPU      9.77s WALL (       9 calls)
     sum_band     :      1.22s CPU      1.40s WALL (       9 calls)
     v_of_rho     :      0.04s CPU      0.04s WALL (       9 calls)
     mix_rho      :      0.01s CPU      0.01s WALL (       9 calls)

     Called by c_bands:
     init_us_2    :      0.09s CPU      0.10s WALL (     684 calls)
     init_us_2:cp :      0.09s CPU      0.09s WALL (     684 calls)
     cegterg      :      7.78s CPU      8.01s WALL (     324 calls)

     Called by *egterg:
     cdiaghg      :      1.47s CPU      1.48s WALL (    1483 calls)
     h_psi        :      5.91s CPU      6.12s WALL (    1555 calls)
     g_psi        :      0.03s CPU      0.03s WALL (    1195 calls)

     Called by h_psi:
     h_psi:calbec :      0.17s CPU      0.18s WALL (    1555 calls)
     vloc_psi     :      5.58s CPU      5.79s WALL (    1555 calls)
     add_vuspsi   :      0.13s CPU      0.13s WALL (    1555 calls)

     General routines
     calbec       :      0.17s CPU      0.17s WALL (    1555 calls)
     fft          :      0.02s CPU      0.05s WALL (      90 calls)
     ffts         :      0.00s CPU      0.00s WALL (       9 calls)
     fftw         :      6.12s CPU      6.37s WALL (   66444 calls)
     davcio       :      0.09s CPU      0.53s WALL (    1112 calls)
 
     Parallel routines
 
     PWSCF        :     10.79s CPU     11.99s WALL

 
   This run was terminated on:  21:15:36   1Dec2023            

=------------------------------------------------------------------------------=
   JOB DONE.
=------------------------------------------------------------------------------=
