
     Program PWSCF v.7.1 starts on 30Nov2023 at 11: 0:28 

     This program is part of the open-source Quantum ESPRESSO suite
     for quantum simulation of materials; please cite
         "P. Giannozzi et al., J. Phys.:Condens. Matter 21 395502 (2009);
         "P. Giannozzi et al., J. Phys.:Condens. Matter 29 465901 (2017);
         "P. Giannozzi et al., J. Chem. Phys. 152 154105 (2020);
          URL http://www.quantum-espresso.org", 
     in publications or presentations arising from this work. More details at
     http://www.quantum-espresso.org/quote

     Parallel version (MPI), running on     8 processors

     MPI processes distributed on     1 nodes
     123244 MiB available memory on the printing compute node when the environment starts
 
     Reading input from pw_mp-19717_nscf_k0_E55.in
Warning: card &IONS ignored
Warning: card / ignored
Warning: card &CELL ignored
Warning: card / ignored

     Current dimensions of program PWSCF are:
     Max number of different atomic species (ntypx) = 10
     Max number of k-points (npk) =  40000
     Max angular momentum in pseudopotentials (lmaxx) =  4

     Atomic positions and unit cell read from directory:
     out/mp-19717.save/
     Atomic positions from file used, from input discarded
 
 
     R & G space division:  proc/nbgrp/npool/nimage =       8
     Subspace diagonalization in iterative solution of the eigenvalue problem:
     one sub-group per band group will be used
     scalapack distributed-memory algorithm (size of sub-group:  2*  2 procs)

 
     Parallelization info
     --------------------
     sticks:   dense  smooth     PW     G-vecs:    dense   smooth      PW
     Min         144     144     36                 3264     3264     410
     Max         145     145     37                 3267     3267     412
     Sum        1159    1159    295                26133    26133    3287
 
     Using Slab Decomposition
 


     bravais-lattice index     =            2
     lattice parameter (alat)  =      12.3622  a.u.
     unit-cell volume          =     472.3099 (a.u.)^3
     number of atoms/cell      =            2
     number of atomic types    =            2
     number of electrons       =        30.00
     number of Kohn-Sham states=         1200
     kinetic-energy cutoff     =      55.0000  Ry
     charge density cutoff     =     220.0000  Ry
     Exchange-correlation= PBE
                           (   1   4   3   4   0   0   0)

     celldm(1)=  12.362197  celldm(2)=   0.000000  celldm(3)=   0.000000
     celldm(4)=   0.000000  celldm(5)=   0.000000  celldm(6)=   0.000000

     crystal axes: (cart. coord. in units of alat)
               a(1) = (  -0.500000   0.000000   0.500000 )  
               a(2) = (   0.000000   0.500000   0.500000 )  
               a(3) = (  -0.500000   0.500000   0.000000 )  

     reciprocal axes: (cart. coord. in units 2 pi/alat)
               b(1) = ( -1.000000 -1.000000  1.000000 )  
               b(2) = (  1.000000  1.000000  1.000000 )  
               b(3) = ( -1.000000  1.000000 -1.000000 )  


     PseudoPot. # 1 for Pb read from file:
     /usr/scratch4/magr4985/MG/HTDF/pseudo/SG15/Pb.upf
     MD5 check sum: 7f27c247474026287e0dbe0f3167d60b
     Pseudo is Norm-conserving, Zval = 14.0
     Generated using ONCVPSP code by D. R. Hamann
     Using radial grid of  602 points,  8 beta functions with: 
                l(1) =   0
                l(2) =   0
                l(3) =   1
                l(4) =   1
                l(5) =   2
                l(6) =   2
                l(7) =   3
                l(8) =   3

     PseudoPot. # 2 for Te read from file:
     /usr/scratch4/magr4985/MG/HTDF/pseudo/SG15/Te.upf
     MD5 check sum: dd4de4dac1e38587f63aaf3700bb29d3
     Pseudo is Norm-conserving, Zval = 16.0
     Generated using ONCVPSP code by D. R. Hamann
     Using radial grid of  602 points,  6 beta functions with: 
                l(1) =   0
                l(2) =   0
                l(3) =   1
                l(4) =   1
                l(5) =   2
                l(6) =   2

     atomic species   valence    mass     pseudopotential
        Pb            14.00   207.20000     Pb( 1.00)
        Te            16.00   127.60000     Te( 1.00)

     48 Sym. Ops., with inversion, found



   Cartesian axes

     site n.     atom                  positions (alat units)
         1           Te  tau(   1) = (   0.0000000   0.0000000   0.0000000  )
         2           Pb  tau(   2) = (  -0.5000000   0.5000000   0.5000000  )

     number of k points=     1  Gaussian smearing, width (Ry)=  0.0005
                       cart. coord. in units 2pi/alat
        k(    1) = (   0.0000000   0.0000000   0.0000000), wk =   2.0000000

     Dense  grid:    26133 G-vectors     FFT dimensions: (  45,  45,  45)

     Estimated max dynamical RAM per process >     111.38 MB

     Estimated total dynamical RAM >     891.07 MB

     The potential is recalculated from file :
     out/mp-19717.save/charge-density

     Starting wfcs are random

     Band Structure Calculation
     Davidson diagonalization with overlap

     ethr =  5.00E-06,  avg # of iterations =  6.0

     total cpu time spent up to now is      111.7 secs

     End of band structure calculation

          k = 0.0000 0.0000 0.0000 (  3287 PWs)   bands (ev):

   -26.8832 -26.8832 -26.8781 -26.8781 -26.8781  -7.4947  -7.4947  -7.4896
    -7.4896  -7.4896  -2.5446   3.4828   7.9708   7.9708   7.9708  13.2292
    13.2292  13.2292  15.0871  15.0871  15.0871  16.6369  16.7322  17.2257
    17.2257  27.8491  27.8491  27.8491  28.4093  28.4093  28.4093  30.3532
    30.3532  30.3532  31.1639  31.1639  33.7839  33.7839  33.7839  34.2375
    36.0844  36.0844  36.0844  36.2095  39.2114  39.5302  39.5302  40.1327
    40.1327  40.1327  40.4590  40.4590  40.4590  41.5871  41.5871  41.5871
    42.4758  42.4758  42.4758  43.6185  43.6185  43.6185  44.3768  44.3768
    45.9737  45.9737  45.9737  46.3920  47.8502  52.2183  52.2183  52.2183
    54.4073  54.4073  54.4073  58.4298  59.3600  59.3600  59.9518  59.9518
    59.9518  60.8483  63.3684  63.3684  63.3684  65.1938  65.1938  66.4446
    66.4446  66.4446  67.3031  67.3031  67.3031  68.5428  68.5428  68.5428
    69.4346  69.4613  69.4613  69.4613  70.0934  70.0934  70.0934  70.7159
    70.7159  70.7375  70.7375  70.7375  71.1946  71.1946  72.1953  72.1953
    72.1953  73.1855  74.4342  75.0613  75.0613  75.0613  75.6971  75.6971
    75.6971  76.5854  76.5854  78.9971  78.9971  78.9971  79.7541  83.5190
    83.5190  83.5190  84.1006  84.1006  84.1006  84.3540  84.3540  84.3540
    84.5352  84.5352  85.3201  85.3201  85.3201  86.3752  86.9506  87.6858
    87.6858  87.6858  88.6739  88.6739  89.7246  90.2107  90.2107  90.2107
    90.5320  90.5320  90.5320  92.9919  92.9919  92.9919  93.4942  94.6314
    94.6314  94.6314  94.8321  94.8321  94.8321  99.5389  99.5389  99.6500
    99.6500  99.6500  99.7056  99.7056  99.7056  99.7205 100.4135 100.4135
   100.4135 100.5713 100.5713 101.3760 101.3760 101.3760 104.2500 105.1051
   105.1051 105.1051 106.7733 106.7733 106.7733 109.2983 109.3892 109.3892
   112.8846 113.5047 113.5047 113.5047 114.2875 114.2875 114.2875 115.9402
   115.9402 115.9402 116.5869 117.6324 118.3693 118.3693 118.3693 118.6036
   118.6036 119.5328 119.5328 119.5328 120.3737 120.3737 120.3737 121.4141
   121.4949 121.4949 121.4949 123.0082 123.4292 123.4292 123.7275 123.7275
   123.7275 125.0274 125.0274 125.0274 125.1301 125.1301 125.1301 125.2364
   125.2364 125.2364 125.8739 125.8739 125.8739 126.1806 126.1806 126.1806
   126.6504 126.6504 126.6504 126.6688 126.6688 126.6688 126.6949 126.6949
   126.8810 126.8810 126.8934 126.8934 127.3892 127.3892 127.3892 127.4694
   127.4694 127.4694 127.8103 130.0309 130.0309 130.4541 130.4541 130.4541
   133.2050 133.2050 133.2050 133.2525 133.2525 133.2525 134.9551 134.9551
   134.9551 135.2450 135.2450 135.2450 135.5440 135.5440 136.5588 136.5588
   136.5588 136.8842 139.5314 141.5110 141.5110 141.5110 141.5439 141.5439
   141.6878 142.9569 142.9569 142.9569 145.4369 147.0715 147.0715 147.0715
   148.7571 148.7571 148.7571 149.4368 149.4583 149.4583 149.4583 150.3974
   150.3974 150.3974 151.0266 151.0266 151.1022 151.1022 151.1022 151.6128
   151.6128 152.3214 152.3214 152.3214 152.7343 152.7343 152.7343 152.9362
   152.9362 153.0418 153.0418 153.0418 153.3397 153.3397 154.1739 154.1739
   154.1739 154.2544 154.2544 154.2544 155.0143 157.4556 157.4556 157.4556
   157.5045 157.5045 157.5045 162.5541 162.5541 162.5541 163.4449 163.4472
   164.6263 164.6263 164.7917 164.7917 164.7917 164.9779 164.9779 164.9779
   166.0257 168.3888 168.3888 168.3888 169.0884 169.0884 169.0884 170.8082
   170.8082 170.8082 171.3332 171.3332 171.7073 176.2003 176.2003 176.2003
   176.5405 176.5405 176.5405 176.8078 176.8078 176.8078 176.8112 176.8112
   176.8112 176.8848 176.8848 176.8848 178.6628 178.9392 179.5869 179.5869
   179.8058 179.8058 179.8058 179.8176 179.8176 179.8176 180.9434 180.9434
   180.9434 181.0971 181.0971 181.1170 181.1170 181.1170 181.3212 181.3212
   181.3212 181.4506 181.5315 181.5315 181.5315 183.8373 183.8373 183.8424
   183.8424 183.8424 183.8714 185.9817 185.9817 185.9817 186.6147 187.8743
   187.8743 189.9949 189.9949 189.9949 191.5118 191.5118 191.5118 192.5738
   192.5738 192.6311 192.6311 192.6311 193.0342 193.0342 193.0342 193.4053
   193.4053 193.4053 193.4716 193.5352 193.5352 193.5352 193.9172 193.9172
   195.7806 196.1958 196.1958 196.1958 197.1691 197.1691 197.2777 197.2777
   197.2777 197.2866 197.2866 197.2866 197.3849 197.3849 197.3849 197.5663
   197.5663 197.5663 197.7857 197.7857 197.7857 197.8264 197.8264 198.7912
   198.8625 198.8625 198.8625 198.8985 198.8985 198.8985 199.2381 199.2381
   199.2381 199.3711 200.2324 200.2324 200.2324 200.7365 201.7259 201.7259
   201.7259 202.1886 202.1886 202.1886 202.2285 202.2285 202.4380 202.4380
   202.4380 202.5707 202.6666 203.4328 203.4328 206.2401 206.2401 206.8261
   206.8261 206.8261 207.1943 207.1943 207.1943 207.2624 207.2624 207.2624
   207.7533 207.7533 207.7533 207.8150 207.8150 208.0554 208.3940 208.3940
   208.3940 208.4403 208.4403 209.9202 209.9202 209.9202 210.0460 210.0460
   210.0460 210.2082 210.2082 210.2082 210.3194 210.3194 210.3194 211.3619
   211.3891 211.3891 211.3891 211.4429 211.4429 211.4429 211.4690 211.4690
   215.2187 218.8286 218.8286 218.8286 227.6915 227.6915 228.6109 228.6109
   228.6109 228.8643 230.8860 230.8860 230.8860 231.4587 231.4587 231.4587
   231.6817 231.6817 231.6817 231.8857 231.8857 231.8857 231.9092 232.3427
   232.3427 232.3427 233.1759 233.1759 233.3750 233.3838 233.3838 233.6843
   233.6843 233.6843 234.0050 234.0050 234.0050 234.0417 234.0417 234.0417
   234.3764 234.3764 234.3764 234.5077 235.0245 235.0245 235.0245 235.9764
   235.9764 235.9764 236.2477 238.2467 238.2467 238.5593 238.5593 238.5593
   238.7182 238.7182 238.7182 238.9396 238.9396 238.9396 238.9986 238.9986
   239.0802 239.0802 239.0802 239.6475 239.6475 239.7785 239.7785 239.7785
   239.9638 241.8608 241.8608 241.8608 242.8400 242.8400 244.3919 244.3919
   244.3919 245.0699 245.0699 245.0699 247.3672 249.8262 249.8262 249.8262
   250.5885 250.5885 250.7888 250.8828 250.8828 250.8828 250.9654 250.9654
   252.1545 252.1545 252.1545 252.1611 252.1611 252.1611 252.1807 252.1807
   252.1872 252.1872 252.1872 252.2458 252.2458 252.2458 252.2992 252.2992
   252.2992 252.7419 252.7419 252.7419 253.4637 254.8618 254.8618 254.8618
   255.3167 258.1889 258.1889 258.3578 258.3578 258.3578 258.3677 259.1671
   259.1671 259.1671 259.3875 259.3875 259.3875 259.4036 259.4036 259.4036
   259.4360 259.9070 259.9070 259.9070 260.8580 263.2287 263.2287 263.2511
   263.2511 263.2511 263.6852 263.6852 263.6852 263.7716 263.7716 263.7716
   264.1390 264.7982 264.7982 264.7982 265.3461 265.6290 265.6290 265.6290
   265.6573 265.6573 265.6619 265.6619 265.6619 265.6986 265.6986 265.8936
   265.8936 265.8936 266.2471 266.2471 266.2471 266.5592 266.5592 266.7526
   266.7526 266.7526 266.7681 266.7681 266.7803 266.7803 266.7803 266.8298
   266.8298 266.8298 266.8574 266.8574 266.8574 266.8815 267.0872 271.3601
   271.3601 271.3601 273.5887 275.0617 275.0617 275.0617 275.4982 275.4982
   275.9172 275.9172 275.9172 276.1051 276.1051 276.1051 276.1702 276.1702
   276.1702 276.7731 277.1075 277.1075 277.1075 277.1369 277.1369 278.1580
   278.1580 278.1580 278.5309 281.6246 281.6246 281.6246 283.6464 284.5647
   284.5647 284.5647 286.1331 286.5485 286.5485 286.5485 286.6871 286.6871
   286.7943 286.7943 286.7943 286.8469 286.8469 286.8469 286.8786 286.8786
   287.3048 287.3048 287.3048 289.3608 289.3608 289.3608 289.3723 289.3723
   289.3723 289.4558 289.4558 289.4558 289.4899 289.4899 289.4899 291.0331
   291.0331 291.0331 291.3053 291.3053 291.3660 291.3660 291.3660 291.4822
   291.7662 291.7662 291.8041 291.8041 291.8041 291.9670 291.9670 291.9670
   291.9785 291.9785 291.9785 292.3383 292.3383 292.4077 292.4077 292.4077
   292.5868 292.5868 292.5868 292.6057 292.6057 292.6877 292.6877 292.6877
   292.7019 292.7019 292.7019 293.5326 293.5326 293.5326 293.6688 293.6758
   293.6766 293.6766 293.6766 293.6790 293.6790 293.6790 293.7293 295.5524
   295.5613 295.5613 295.5628 295.5628 295.5628 295.9888 295.9888 295.9888
   296.1728 296.1728 296.1728 296.1812 296.1812 296.1812 296.1987 296.1987
   296.1987 296.3264 296.3371 296.3371 296.3371 296.3447 296.3447 296.4953
   296.4953 296.5456 296.5456 296.5456 296.5956 301.5309 301.5309 301.5309
   302.4833 302.6520 302.6520 302.6520 302.8859 307.4373 307.4373 309.1574
   309.1574 309.1574 309.2064 309.2064 309.2064 309.2488 309.2488 309.2488
   309.2626 309.2626 309.3111 309.3111 309.3111 309.3203 309.3203 310.2597
   310.2597 310.2597 310.9727 310.9727 310.9727 311.2466 312.0810 312.0810
   312.0810 312.1011 312.1011 312.1011 312.1189 312.1189 312.1189 314.7890
   314.7890 314.8504 314.8504 314.8504 314.9005 319.6411 319.6411 319.6411
   319.6555 319.6555 319.6809 322.3051 322.3051 322.3051 322.3296 322.3296
   322.3296 322.3375 322.3375 322.3375 322.3420 322.3420 322.3420 323.7978
   323.7978 323.8033 323.8033 323.8033 323.8170 329.1698 329.1698 329.1698
   330.9496 330.9496 331.9728 331.9728 331.9728 333.3688 333.3688 333.3688
   333.6010 333.8742 334.5147 334.5147 334.5147 334.5582 334.5582 334.5582
   334.7733 334.7733 334.7733 334.8662 334.8662 335.9286 335.9286 336.2081
   336.2081 336.2081 336.3802 336.3802 336.3802 337.0814 337.0814 337.0814
   337.3352 337.3352 337.7043 338.7716 338.7716 338.7716 339.4576 340.2475
   340.2475 340.2475 340.6462 341.0791 341.0791 341.0791 341.4334 344.6019
   344.6019 344.6019 344.9807 344.9807 344.9807 344.9910 344.9910 344.9910
   345.0228 345.0228 345.1963 345.1963 345.1963 345.2282 345.2282 345.2852
   345.2852 345.2852 345.3362 345.3362 345.3818 345.5236 345.5236 345.5236
   345.5583 345.5583 345.5583 346.2881 346.2881 346.2881 346.4179 346.7220
   346.7220 346.7220 346.9399 348.1798 348.1798 348.1798 348.2785 348.2785
   348.3359 348.3359 348.3359 348.4048 348.4048 348.4048 348.4266 348.4266
   348.4266 348.5061 348.5061 349.3490 349.4995 349.4995 349.4995 349.5781
   349.5781 349.5781 349.6609 349.6609 349.6609 349.6621 349.6621 349.7455
   349.7455 349.8012 349.8012 349.8012 349.8048 349.8048 349.8048 349.8417
   349.8618 349.8618 349.8618 359.2418 359.2418 359.2418 359.5854 359.5854
   359.5854 359.5867 359.5867 359.5867 359.5977 359.5977 359.5977 359.8964
   359.8964 360.4882 360.4882 360.4882 360.8217 360.8217 360.8217 360.8547
   360.8706 360.9494 360.9494 360.9494 360.9500 360.9500 360.9544 360.9544
   360.9544 362.9535 362.9535 362.9535 363.0052 363.0052 363.1365 363.1365
   363.1365 363.1749 363.1749 363.1749 363.4982 365.4103 365.5494 365.5494
   365.5509 365.5509 365.5509 365.5851 365.5851 365.5851 365.6240 365.6240
   365.6240 365.6567 365.7084 365.7084 365.7084 365.7517 365.7517 366.0678
   366.0678 366.0678 366.1263 366.1263 366.1263 366.5376 366.5376 366.6889
   366.6889 366.6889 366.8382 368.7543 368.7543 368.7543 368.7886 368.7886
   369.0252 369.0252 369.0252 369.0338 369.0338 369.0338 369.0451 369.0644
   369.0644 369.0644 369.0988 369.0988 369.0988 369.1275 369.1275 369.2831
   369.2831 369.2831 369.6050 372.7571 372.7891 372.7891 372.7891 373.2110
   373.2110 373.2110 373.6424 373.6424 373.6585 373.6585 373.6585 374.0069
   374.3028 374.3028 374.3028 374.4780 374.4780 374.4780 374.6901 374.6901
   374.6901 374.6972 374.6972 376.8763 376.8867 376.8867 376.8867 376.9336
   376.9336 377.0482 377.0482 377.0482 377.0586 377.0586 377.0586 377.1066

     the Fermi energy is    10.9401 ev
     (compare with:     9.7249 eV, computed in scf)

     Writing all to output data dir out/mp-19717.save/
 
     init_run     :      0.04s CPU      0.06s WALL (       1 calls)
     electrons    :    103.12s CPU    111.31s WALL (       1 calls)

     Called by init_run:
     wfcinit      :      0.00s CPU      0.00s WALL (       1 calls)
     potinit      :      0.01s CPU      0.02s WALL (       1 calls)
     hinit0       :      0.01s CPU      0.02s WALL (       1 calls)

     Called by electrons:
     c_bands      :    103.12s CPU    111.31s WALL (       1 calls)
     v_of_rho     :      0.01s CPU      0.01s WALL (       1 calls)

     Called by c_bands:
     init_us_2    :      0.00s CPU      0.00s WALL (       1 calls)
     init_us_2:cp :      0.00s CPU      0.00s WALL (       1 calls)
     cegterg      :    100.56s CPU    108.57s WALL (       1 calls)

     Called by *egterg:
     cdiaghg      :     95.23s CPU    103.13s WALL (       7 calls)
     h_psi        :      1.95s CPU      2.03s WALL (       8 calls)
     g_psi        :      0.01s CPU      0.01s WALL (       6 calls)

     Called by h_psi:
     h_psi:calbec :      0.04s CPU      0.05s WALL (       8 calls)
     vloc_psi     :      1.86s CPU      1.93s WALL (       8 calls)
     add_vuspsi   :      0.04s CPU      0.04s WALL (       8 calls)

     General routines
     calbec       :      0.04s CPU      0.05s WALL (       8 calls)
     fft          :      0.01s CPU      0.02s WALL (      10 calls)
     fftw         :      1.69s CPU      1.75s WALL (   13636 calls)
 
     Parallel routines
 
     PWSCF        :   1m43.52s CPU   1m51.86s WALL

 
   This run was terminated on:  11: 2:20  30Nov2023            

=------------------------------------------------------------------------------=
   JOB DONE.
=------------------------------------------------------------------------------=
