
     Program PWSCF v.7.1 starts on 17Nov2023 at 19:52:49 

     This program is part of the open-source Quantum ESPRESSO suite
     for quantum simulation of materials; please cite
         "P. Giannozzi et al., J. Phys.:Condens. Matter 21 395502 (2009);
         "P. Giannozzi et al., J. Phys.:Condens. Matter 29 465901 (2017);
         "P. Giannozzi et al., J. Chem. Phys. 152 154105 (2020);
          URL http://www.quantum-espresso.org", 
     in publications or presentations arising from this work. More details at
     http://www.quantum-espresso.org/quote

     Parallel version (MPI), running on     8 processors

     MPI processes distributed on     1 nodes
     123524 MiB available memory on the printing compute node when the environment starts
 
     Reading input from pw_mp-2472_nscf_k60_E72.in
Warning: card &IONS ignored
Warning: card / ignored
Warning: card &CELL ignored
Warning: card / ignored

     Current dimensions of program PWSCF are:
     Max number of different atomic species (ntypx) = 10
     Max number of k-points (npk) =  40000
     Max angular momentum in pseudopotentials (lmaxx) =  4

     Atomic positions and unit cell read from directory:
     out/mp-2472.save/
     Atomic positions from file used, from input discarded
 
 
     R & G space division:  proc/nbgrp/npool/nimage =       8
     Subspace diagonalization in iterative solution of the eigenvalue problem:
     one sub-group per band group will be used
     scalapack distributed-memory algorithm (size of sub-group:  2*  2 procs)

 
     Parallelization info
     --------------------
     sticks:   dense  smooth     PW     G-vecs:    dense   smooth      PW
     Min         119     119     35                 2398     2398     389
     Max         120     120     36                 2400     2400     391
     Sum         955     955    283                19195    19195    3119
 
     Using Slab Decomposition
 


     bravais-lattice index     =            2
     lattice parameter (alat)  =       9.7653  a.u.
     unit-cell volume          =     232.8067 (a.u.)^3
     number of atoms/cell      =            2
     number of atomic types    =            2
     number of electrons       =        16.00
     number of Kohn-Sham states=         1200
     kinetic-energy cutoff     =      72.0000  Ry
     charge density cutoff     =     288.0000  Ry
     Exchange-correlation= PBE
                           (   1   4   3   4   0   0   0)

     celldm(1)=   9.765290  celldm(2)=   0.000000  celldm(3)=   0.000000
     celldm(4)=   0.000000  celldm(5)=   0.000000  celldm(6)=   0.000000

     crystal axes: (cart. coord. in units of alat)
               a(1) = (  -0.500000   0.000000   0.500000 )  
               a(2) = (   0.000000   0.500000   0.500000 )  
               a(3) = (  -0.500000   0.500000   0.000000 )  

     reciprocal axes: (cart. coord. in units 2 pi/alat)
               b(1) = ( -1.000000 -1.000000  1.000000 )  
               b(2) = (  1.000000  1.000000  1.000000 )  
               b(3) = ( -1.000000  1.000000 -1.000000 )  


     PseudoPot. # 1 for O  read from file:
     /usr/scratch4/magr4985/MG/HTDF/pseudo/SG15/O.upf
     MD5 check sum: e36c48deb68f4e355fffe4602be2c42c
     Pseudo is Norm-conserving, Zval =  6.0
     Generated using ONCVPSP code by D. R. Hamann
     Using radial grid of  602 points,  4 beta functions with: 
                l(1) =   0
                l(2) =   0
                l(3) =   1
                l(4) =   1

     PseudoPot. # 2 for Sr read from file:
     /usr/scratch4/magr4985/MG/HTDF/pseudo/SG15/Sr.upf
     MD5 check sum: 3f9bc8d6f3e8472da0cbe0e6a3044a9f
     Pseudo is Norm-conserving, Zval = 10.0
     Generated using ONCVPSP code by D. R. Hamann
     Using radial grid of  602 points,  6 beta functions with: 
                l(1) =   0
                l(2) =   0
                l(3) =   1
                l(4) =   1
                l(5) =   2
                l(6) =   2

     atomic species   valence    mass     pseudopotential
        O              6.00    15.99940     O ( 1.00)
        Sr            10.00    87.62000     Sr( 1.00)

     48 Sym. Ops., with inversion, found



   Cartesian axes

     site n.     atom                  positions (alat units)
         1           Sr  tau(   1) = (  -0.5000000   0.5000000   0.5000000  )
         2           O   tau(   2) = (   0.0000000   0.0000000   0.0000000  )

     number of k points=     8  Gaussian smearing, width (Ry)=  0.0005
                       cart. coord. in units 2pi/alat
        k(    1) = (   0.0000000   0.0000000   0.0000000), wk =   0.0312500
        k(    2) = (  -0.2500000   0.2500000  -0.2500000), wk =   0.2500000
        k(    3) = (   0.5000000  -0.5000000   0.5000000), wk =   0.1250000
        k(    4) = (   0.0000000   0.5000000   0.0000000), wk =   0.1875000
        k(    5) = (   0.7500000  -0.2500000   0.7500000), wk =   0.7500000
        k(    6) = (   0.5000000   0.0000000   0.5000000), wk =   0.3750000
        k(    7) = (   0.0000000  -1.0000000   0.0000000), wk =   0.0937500
        k(    8) = (  -0.5000000  -1.0000000   0.0000000), wk =   0.1875000

     Dense  grid:    19195 G-vectors     FFT dimensions: (  40,  40,  40)

     Estimated max dynamical RAM per process >      97.17 MB

     Estimated total dynamical RAM >     777.39 MB

     The potential is recalculated from file :
     out/mp-2472.save/charge-density

     Starting wfcs are random

     Band Structure Calculation
     ParO style diagonalization

     ethr =  5.00E-06,  avg # of iterations =  5.8

     total cpu time spent up to now is      583.8 secs

     End of band structure calculation

          k = 0.0000 0.0000 0.0000 (  2421 PWs)   bands (ev):

   -24.6558  -7.2931  -6.3026  -6.3026  -6.3026   7.7305   7.7305   7.7305
    11.6311  13.9602  13.9602  13.9602  16.0995  16.0995  20.2232  30.8617
    30.8617  30.8617  32.5547  32.5547  32.5547  34.7940  34.7940  34.7940
    37.7394  37.7394  39.6992  41.6371  41.6371  41.6371  47.8205  47.8205
    51.1185  52.7011  52.7011  52.7011  55.5602  55.7371  55.7371  55.7371
    59.4148  59.4148  59.4148  60.6036  60.6036  60.6036  61.2882  61.2882
    61.2882  62.2020  62.2020  62.2020  64.8509  64.8509  65.6431  65.6431
    65.6431  66.7174  66.8736  74.4532  74.4532  74.4532  76.9591  76.9591
    85.5007  88.0306  88.0306  88.0306  90.1673  90.1673  90.1673  93.4892
    93.4892  93.4892  93.7605  93.7605  96.7552  96.7552  96.7552  99.9198
   102.2169 102.2169 102.2169 103.6300 104.9648 104.9648 105.1542 105.1542
   105.1542 105.2114 105.2114 105.2114 106.5790 106.5790 106.5790 107.6810
   107.6810 107.6810 107.7524 107.7524 107.7524 107.7880 107.7880 108.9551
   108.9551 108.9551 111.2554 111.2554 111.5216 112.0416 112.0416 112.0416
   112.7381 121.6649 121.6649 121.6649 124.4985 124.5125 124.5125 124.5125
   127.1255 127.1255 129.0855 129.0855 129.0855 131.9583 131.9583 132.0016
   132.0016 132.0016 132.1175 132.1960 132.1960 132.1960 132.1971 132.1971
   132.1971 132.2565 132.2565 132.2565 133.1957 133.1957 140.1254 143.1458
   143.1458 143.1458 143.5393 143.5393 143.5393 146.6208 147.8578 147.8578
   147.8578 148.2803 148.2803 148.2803 148.9538 148.9538 148.9538 149.0815
   149.0815 149.0815 149.3814 154.2008 154.2008 154.2288 154.2305 154.2305
   154.2305 162.7082 162.7082 162.7082 164.9141 164.9141 164.9141 166.2159
   166.2159 168.7515 168.7515 168.7515 169.7238 169.7238 169.7238 170.8507
   180.3958 180.3958 180.3958 181.1540 181.1540 184.2046 184.2046 184.6056
   184.6056 184.6056 184.7501 184.7501 184.7501 186.3424 186.7617 186.8126
   186.8126 186.8126 186.8841 186.8841 186.8841 187.9116 187.9116 187.9116
   190.2459 190.2459 190.5756 190.5756 190.5756 191.6482 191.6482 191.6482
   191.6642 192.2594 192.2594 193.4370 193.9448 193.9448 193.9448 194.1151
   194.1151 194.1151 194.7891 194.7891 194.7891 195.7830 197.2112 197.2112
   197.2112 197.3371 197.3371 197.8984 197.8984 197.8984 198.7279 198.7279
   198.7279 199.2572 200.2952 200.4295 200.4295 200.4295 200.4681 200.4681
   201.1240 201.1240 201.1240 201.6946 201.6946 201.6946 202.1579 202.1579
   202.1579 202.1790 202.1790 212.5050 212.5050 212.5050 212.5093 212.5093
   215.2595 215.2595 215.2595 217.3413 217.3413 217.3413 217.6579 217.6579
   217.6579 217.9786 217.9786 217.9786 218.9286 223.6929 223.6929 223.8255
   223.8255 223.8255 223.9404 224.4771 224.4771 224.4771 225.6164 225.6164
   225.6164 230.4724 233.2444 233.2653 233.2653 236.9711 236.9711 236.9711
   237.1699 237.1699 237.4689 237.4689 237.4689 237.5934 237.5934 237.5934
   237.6968 237.6968 237.6968 239.3416 239.3416 239.3416 240.9208 240.9208
   240.9208 242.4849 243.3404 243.3404 244.3338 244.3338 244.3338 244.3711
   244.3711 244.3711 244.4268 244.4268 244.4268 244.5228 244.5228 244.6715
   244.6715 244.6715 246.2782 249.9723 249.9723 253.8299 253.8299 253.8299
   254.7173 254.7173 254.7173 262.4763 262.4763 262.4763 264.0283 264.8520
   264.8520 264.8520 264.9325 268.5016 268.5016 269.3721 269.3721 269.3721
   270.0361 270.0361 270.0361 270.9673 271.3721 277.3659 277.3659 277.3659
   281.3073 281.3073 281.3073 282.1033 282.1033 282.1033 282.2686 282.2686
   282.3116 282.3116 282.3116 282.7585 282.7585 282.7585 282.8446 282.8446
   282.8446 284.7707 284.7707 284.7707 284.8868 284.8868 284.8868 284.9981
   285.4253 285.4253 285.4340 285.4340 285.4340 285.4846 285.4846 285.4846
   286.6929 286.6929 287.5551 287.5551 287.5551 287.8839 287.8839 287.8839
   287.9255 287.9446 287.9446 287.9446 289.1531 289.1531 289.1814 289.1814
   289.1814 289.1978 293.1777 297.1793 297.1793 297.1793 301.7784 301.7784
   302.5312 302.5312 302.5312 303.6354 306.9476 306.9597 306.9597 306.9597
   307.0806 307.0806 307.1212 307.1212 307.1212 307.2393 307.2393 307.2393
   307.8383 307.8383 307.8383 308.9655 308.9655 308.9655 311.6827 311.6827
   311.9876 311.9876 311.9876 312.1428 312.1428 312.1915 312.1915 312.1915
   312.2798 312.2798 312.2798 312.3043 312.3043 312.3043 312.6584 312.6584
   312.6584 314.0823 314.0823 314.0956 314.0965 314.0965 314.0965 314.1116
   314.1116 314.1116 314.1404 319.5948 319.5948 319.5948 319.7929 320.1553
   320.1553 320.1553 321.2182 321.2182 321.2182 322.5289 322.5289 322.5289
   322.8052 323.1874 323.1874 323.1874 324.2336 324.2336 324.5653 324.5653
   324.5653 325.0256 328.7606 328.7606 328.9528 328.9528 328.9528 329.4591
   329.5339 329.5339 329.5339 329.6305 329.6305 329.6305 329.7085 329.7085
   329.7085 329.7237 329.7237 329.7912 330.3141 330.3141 330.3141 330.4575
   330.4575 332.3222 332.3222 332.3222 332.3550 332.3550 332.3550 332.4317
   332.4317 332.4317 332.4345 332.4345 332.4345 333.7669 333.7669 333.8000
   333.8000 333.8000 333.8129 335.1662 335.1662 341.5724 341.5724 341.5724
   351.6478 354.1932 354.1932 354.1932 363.4263 363.4263 363.4263 363.4929
   363.4929 369.0390 369.0390 369.0390 369.2559 369.4348 370.5375 370.5375
   370.5375 370.5425 370.5425 370.5425 370.5675 370.5675 370.5675 370.5968
   370.5968 370.5968 370.6869 370.6869 371.4038 371.4038 371.5145 371.5145
   371.5145 372.3498 372.7012 372.7012 372.7012 373.5148 374.5187 374.5187
   374.5187 374.6538 374.6538 374.6538 374.8665 374.8665 374.8665 375.0590
   375.0590 375.0590 380.2471 380.2471 380.3715 380.3715 380.3715 380.3724
   380.3724 380.3724 380.4448 380.4448 380.4448 380.5749 380.5749 380.5749
   380.6141 380.6141 381.1614 381.1614 381.2666 381.2666 381.2666 381.2998
   381.9187 385.5445 385.5445 385.5445 388.3767 388.3767 392.3746 392.3746
   392.3746 392.9107 392.9107 392.9107 393.4658 396.3429 396.3429 396.3429
   399.9427 399.9427 400.2535 400.2847 400.2847 400.2847 400.4822 400.4822
   400.5754 400.5754 400.5754 400.8104 400.8104 400.8104 400.9242 400.9242
   400.9242 400.9624 400.9624 400.9624 402.8294 404.0106 404.0106 404.0106
   404.1024 404.1024 404.1024 405.3917 405.3917 407.7682 407.7682 407.7682
   412.5026 412.5026 413.6957 413.6957 413.6957 413.7953 413.7953 413.7953
   413.8223 413.8223 413.8223 413.8689 413.8689 413.8689 413.8961 414.3584
   414.6784 415.2996 415.2996 415.2996 416.2193 416.2193 416.2205 416.2205
   416.2205 416.8661 416.8661 416.8661 417.1345 417.1345 417.1345 417.1647
   417.4111 420.7401 420.7401 420.7401 421.3091 421.3091 421.3091 422.3596
   422.3596 422.5471 422.5471 422.5716 422.5716 422.5716 422.6160 422.6160
   422.6160 422.6855 422.6855 422.6855 422.7042 422.9515 422.9515 422.9515
   424.8012 425.1454 425.1454 425.1454 425.3842 425.3842 425.3842 425.6115
   425.6115 425.6115 425.6538 425.6538 427.3107 433.3027 433.3027 435.7072
   435.7072 435.7072 439.9971 439.9971 439.9971 440.3048 440.3048 442.5541
   442.5541 442.5541 442.5659 442.5659 442.5659 443.0126 443.0126 443.0126
   443.2687 443.2687 443.4743 443.4743 443.4743 443.6077 443.7660 443.8466
   443.8466 443.8466 449.4040 449.4040 449.4040 450.4347 453.8924 453.8924
   453.8924 455.1166 456.9182 456.9182 457.8403 457.8403 457.8403 458.0170
   458.0170 458.0170 458.0960 458.0960 458.1814 458.1814 458.1814 458.3055
   458.3055 458.3055 458.5990 462.0955 462.0955 462.0955 462.4653 462.4653
   462.4653 462.5066 462.5066 462.5066 462.6042 462.6042 462.6042 462.6964
   462.6964 462.6964 462.7183 462.7183 462.7922 462.7922 462.7922 463.0549
   463.0549 463.1534 463.1534 463.1534 463.2231 463.2231 463.2231 463.6098
   463.6098 463.6098 463.6888 463.6888 463.6888 464.3742 464.9565 465.0729
   465.0729 465.0729 465.2042 465.2042 465.2042 465.3384 466.2001 466.2001
   466.6713 466.6713 466.6713 466.8078 466.8078 466.8198 466.8198 466.8198
   466.8426 466.8426 466.8426 467.0177 467.0177 467.0177 469.3913 469.4148
   469.4148 469.4148 469.4247 469.4247 471.1368 471.1368 471.1368 471.1926
   471.1926 471.2116 471.2116 471.2116 471.2253 471.2253 471.2253 471.2318
   471.2318 471.2337 471.2337 471.2337 471.7466 471.7879 471.7879 471.7879
   471.8397 471.8397 471.8397 471.8980 472.5895 481.6823 481.6823 481.6823
   481.9549 481.9549 481.9549 483.4660 487.4048 492.2261 492.2261 492.2261
   492.3198 492.3198 492.4099 492.4099 492.4099 492.4917 492.4917 492.4917
   492.5963 492.5963 492.5963 492.6480 492.6480 493.4652 493.4652 495.0934
   495.0934 495.0934 498.3806 498.3806 498.3806 500.0528 500.0528 500.0528
   500.2107 500.2107 500.2107 500.3145 500.3145 500.3145 504.1873 504.1873
   504.2480 504.2505 504.2505 504.2505 504.3813 509.3548 509.3713 509.3713
   509.3713 509.4041 509.4041 512.2646 512.2646 512.2646 512.2874 512.2874
   512.2874 512.2874 512.2874 512.2874 512.3085 512.3085 512.3085 513.8292
   513.8292 513.8438 513.8438 513.8438 513.8486 528.3019 528.3019 528.3019
   529.0964 529.0964 529.0964 530.3741 530.3741 533.8309 533.8710 533.8710
   533.8710 533.8780 533.8780 533.8780 533.9771 533.9771 533.9771 534.0182
   534.0182 534.0182 534.0877 534.0877 534.4663 536.5128 536.5128 536.5128
   536.6511 536.6511 536.6511 537.8774 537.8774 539.9192 539.9192 539.9192
   540.2317 540.6217 540.6217 540.6217 543.4620 543.4620 543.4620 544.0763
   544.6744 544.6744 546.4401 546.4401 546.4401 546.8742 550.2230 550.2230
   550.6028 550.6028 550.6028 550.9630 550.9630 550.9630 551.1194 551.4335
   551.4335 551.4335 551.4996 551.4996 551.4996 551.7663 551.7663 551.8279
   551.8279 551.8279 552.2696 552.2696 552.2696 552.4370 553.6098 553.6098
   553.7177 553.7177 553.7177 553.9442 553.9524 553.9524 553.9524 554.2588
   554.2588 554.2588 554.6875 554.6875 554.7151 554.7151 554.7151 554.9748
   554.9748 554.9748 555.0605 555.0605 555.0605 555.2618 555.2618 555.2716
   555.2716 555.2716 555.7553 555.7571 555.7571 555.7571 555.7733 555.7733
   555.7960 555.7960 555.7960 555.8166 555.8166 555.8166 557.5989 557.5989
   557.7408 557.7547 557.7547 557.7547 557.7719 557.7719 557.7719 557.7756
   557.7756 557.7756 561.8194 573.2660 573.2660 573.2660 573.5226 573.5226
   575.1455 575.1455 575.1455 576.4814 576.4814 576.4814 576.7526 576.9056
   577.0186 577.0186 577.0186 577.1150 577.1150 577.1150 577.2348 577.2348
   577.2424 577.2424 577.2424 577.4189 577.4189 577.4189 577.5053 577.5053
   577.5053 578.0756 578.0756 578.3284 578.3284 578.3284 578.3972 578.3972
   578.3972 578.5238 578.5238 578.5238 579.8248 582.0666 582.0666 582.0666
   582.0950 582.0950 582.0950 582.1058 582.1058 582.1058 582.1092 582.1092
   582.1326 582.1326 582.1430 582.2087 582.3168 582.3168 582.3168 582.3861
   582.3861 582.3861 582.4220 582.4220 582.4220 583.9918 583.9918 584.0451
   584.0451 584.0451 584.0964 586.6474 586.6474 586.6474 588.4415 588.4415
   588.4415 588.7856 588.7856 589.7762 589.7762 589.7762 591.4725 591.4725
   591.5252 591.5252 591.5252 591.6910 591.6910 591.6910 591.9740 591.9740
   591.9740 592.1913 594.9548 596.1690 596.4359 596.4359 596.4359 596.6848
   596.6848 596.6848 597.2354 597.2354 597.2827 597.2827 597.2827 597.5675
   597.5675 597.5675 597.6777 597.6777 597.6777 597.7778 597.7778 597.7778
   597.7963 597.7963 598.8402 600.7302 600.7302 600.7302 601.0301 601.0301
   601.0301 601.0839 601.8749 601.8749 601.9287 601.9287 601.9287 602.0693

          k =-0.2500 0.2500-0.2500 (  2418 PWs)   bands (ev):

   -24.5919  -8.2207  -6.3425  -6.3425  -5.5352   6.4827   7.1380   7.1380
    13.6842  13.8748  15.0676  15.0676  17.4783  17.4783  23.1676  26.9911
    27.5393  27.5393  29.5639  31.5824  31.5824  34.4372  34.4372  37.1151
    38.1286  38.1286  42.3730  44.2724  44.2724  44.2897  45.4924  49.0205
    49.0205  49.9585  49.9585  52.0552  53.1364  53.5117  53.5117  53.6445
    55.2563  56.8298  56.8298  59.4861  59.4861  60.6296  61.3564  64.8383
    64.8383  65.9932  65.9932  67.9317  68.1298  68.1298  69.2364  69.8045
    70.8643  70.8643  74.3646  76.1778  76.1778  77.0549  77.0549  77.4609
    80.5983  82.4220  82.4220  84.0746  88.1831  88.1831  89.1504  89.8190
    89.8190  91.9097  92.7982  92.7982  92.8456  93.0933  93.0933  94.7465
    94.7465  95.9998  97.6682  97.6682  99.0552 101.1688 104.0589 104.0589
   104.6897 104.6897 104.7789 106.2304 106.2313 107.8254 107.8254 108.5046
   109.1642 109.1642 109.3160 110.5013 110.5013 111.2603 111.2603 111.7402
   114.0869 114.0869 115.3376 115.7148 116.3505 116.3505 117.7801 117.7801
   120.7756 121.8421 122.0526 122.0526 122.2128 122.2775 122.2775 122.9115
   123.9421 125.6619 125.6619 126.3619 126.3619 128.4494 129.6160 129.6160
   130.4899 131.6265 131.6265 132.3163 132.5425 132.5425 133.5872 133.5872
   133.9740 135.2280 137.7830 137.7830 139.0112 140.8483 140.8483 141.1231
   141.2785 141.2785 143.3776 143.3837 143.3837 143.5773 144.5346 144.5346
   144.5667 146.6819 146.6819 147.1849 149.1325 153.3408 153.3408 155.0380
   155.2996 155.2996 158.7834 159.2732 159.2732 160.9160 161.7583 161.7583
   162.6104 162.6104 162.9176 163.1689 163.1689 163.4398 165.2467 165.2467
   167.1853 167.1853 168.2336 168.6291 169.0011 169.0011 169.4344 169.4636
   171.1983 171.1983 171.5185 171.5185 171.7385 173.2179 174.4338 174.6605
   174.6605 175.9515 175.9515 176.7430 176.8754 176.8754 180.5421 180.5421
   180.9352 181.8263 181.8263 182.8535 183.1098 186.5963 186.5963 187.7668
   187.7883 187.7883 188.5215 189.0505 189.0505 190.0879 190.4521 190.4521
   192.0363 192.2412 192.9703 192.9703 193.8013 193.8013 194.0028 194.1799
   194.8288 194.8288 196.2003 196.2003 196.7218 197.0706 197.7313 197.7313
   198.3450 198.3450 199.2174 199.8209 200.6486 200.6486 201.5663 201.5663
   203.0361 203.8375 203.8375 203.8749 204.0026 205.9376 205.9376 206.5250
   207.3424 207.3424 207.9214 207.9702 207.9702 208.1720 208.1720 208.3255
   210.9004 210.9004 211.2655 211.4601 211.4601 211.9780 212.6324 214.6228
   214.6228 215.2066 215.2066 215.9649 217.2530 217.2530 217.2606 219.4336
   219.4336 219.9137 221.2325 222.0572 222.0572 222.4280 222.4280 223.5318
   224.0207 224.6958 224.6958 227.0219 227.2597 227.2597 228.9272 229.1103
   229.1103 229.5886 229.6157 229.6157 231.2115 231.2115 231.2690 231.8924
   232.0815 232.0815 232.3560 234.2397 234.2397 234.6401 234.6401 235.6257
   237.0796 237.3220 237.3220 238.9063 239.5332 239.5332 241.4269 242.0616
   242.0616 244.3737 244.3737 244.6252 244.8989 247.6502 247.6502 249.1872
   249.1872 249.7369 250.6532 250.6532 251.0015 252.2521 252.2521 252.7385
   253.1498 254.0381 255.6246 255.6246 256.2915 256.9374 256.9374 259.5188
   259.5710 259.5710 259.9383 259.9383 260.5708 260.5708 260.6295 261.8544
   262.0298 262.0298 262.1260 262.5994 262.5994 263.6236 263.8343 264.4217
   264.4217 265.3986 266.8795 266.8795 268.6340 268.6340 270.1792 270.3311
   270.3311 270.5145 271.5612 272.5484 272.5484 272.5537 273.5456 273.5456
   274.4148 274.4148 275.8530 275.8530 276.3100 278.3639 279.8093 279.8093
   280.7834 280.7834 281.2463 281.2463 281.6445 281.8972 282.4083 282.4083
   282.4890 285.0747 286.0415 286.0415 286.7151 286.7151 286.7296 287.0324
   287.4042 287.4042 287.8446 289.4044 289.4044 289.7730 290.3478 290.3478
   290.8769 291.9242 292.1165 292.1165 292.4710 293.2563 293.2563 294.4514
   294.4514 295.3555 295.6656 295.6656 296.1537 297.8863 299.0082 299.0082
   299.7163 299.7769 299.7769 300.3659 301.5251 301.5251 302.0637 302.0637
   302.0672 302.5375 302.5375 303.1543 303.4250 303.4250 304.0293 305.2330
   305.2330 305.3320 305.9188 306.9817 306.9817 307.1642 307.5344 307.5344
   308.4877 309.1274 309.1274 309.5023 311.0368 311.0368 311.1817 311.1817
   311.3564 311.5501 311.8391 311.8391 312.9164 312.9164 312.9793 313.6312
   313.6312 313.7023 313.7668 314.3503 314.3503 314.5841 315.3246 315.3246
   316.7951 316.9656 316.9656 317.9561 317.9561 318.2228 320.1068 320.1068
   320.3712 320.3823 320.3823 321.1623 321.7041 321.7041 321.9287 322.5024
   322.5459 322.5459 324.2732 324.2732 324.3339 324.7172 326.7891 327.4186
   327.4186 329.1018 329.1018 331.2863 331.2863 331.5200 332.0731 332.3587
   334.1184 334.1184 334.5096 335.0780 335.0780 335.6435 336.0017 336.0017
   336.1612 337.0953 338.8888 338.8888 339.1210 340.0461 340.0461 341.8920
   341.8920 342.2626 342.6186 342.6186 343.7377 343.7377 344.7257 344.7524
   345.1881 345.1881 346.0937 346.0937 346.7612 346.7612 347.9499 347.9499
   348.5205 348.5970 349.2800 349.2800 349.3732 349.7316 349.7316 350.1359
   351.1725 351.1725 351.5573 351.5573 351.6808 351.8958 352.3756 353.7188
   353.7188 355.2000 355.2000 355.2730 356.6450 357.0986 357.0986 358.1643
   359.7588 360.0395 360.0395 361.2897 361.9600 361.9600 362.5754 362.7740
   362.7740 363.3670 363.3670 363.5949 364.4038 364.4038 364.5581 365.0204
   367.2789 367.2789 367.5798 367.5798 367.9179 368.4844 368.4844 369.3260
   370.0155 370.0155 370.9380 372.8358 372.8358 373.6640 375.4157 375.4157
   376.4120 377.5142 377.5142 377.8211 378.6386 378.6386 379.2345 379.4627
   379.4627 379.6066 380.0042 380.0042 380.1193 380.3873 382.4183 382.4183
   384.1708 384.4701 384.4701 387.1604 387.1604 387.3006 388.0372 388.8540
   388.8540 389.4786 389.4786 390.2185 390.7367 390.7367 390.7918 390.8249
   390.8566 390.8566 391.0033 391.9653 391.9653 393.0332 393.3200 393.3200
   393.3428 393.6525 393.6525 394.0774 395.2840 395.4952 395.4952 395.7667
   395.7667 397.1695 398.2360 398.2360 398.7150 399.5300 399.5300 399.7387
   400.8998 400.8998 402.9376 403.0659 403.0659 404.9024 405.5808 405.6610
   405.6610 406.6247 406.6362 406.6362 407.5904 407.5904 407.8364 408.6550
   408.7040 408.7040 410.0133 410.0133 410.3903 410.6745 411.7618 411.7618
   413.1069 413.1069 413.2263 413.8881 414.1370 414.1370 414.7369 414.8885
   414.8885 415.3754 415.3754 415.4428 416.4054 416.4054 416.6029 416.8514
   417.8495 417.8495 418.5402 419.1114 419.1114 419.7125 419.7125 419.9569
   420.4641 420.4641 421.3470 422.3618 422.3618 422.6946 422.6946 423.9350
   423.9350 424.4323 424.4660 424.5361 424.9280 424.9280 425.3556 426.3693
   426.3693 426.6952 427.1956 427.1956 427.3895 427.4964 428.1330 428.1330
   428.5658 428.5658 430.2971 430.2971 430.9033 430.9695 430.9695 431.1121
   431.6433 431.9949 431.9949 432.5395 432.5395 432.6777 432.8781 432.8781
   433.1210 433.1210 433.1717 433.2251 433.3388 435.1356 435.1356 436.1309
   436.2656 436.2656 436.5655 436.9378 437.1312 437.1312 437.6129 438.1929
   438.1929 438.3478 439.2901 439.2901 440.2454 441.1352 441.1352 442.6652
   442.6652 442.7383 444.6215 445.9937 445.9937 446.9100 446.9572 446.9572
   447.1823 447.1823 447.2454 447.6877 447.6877 447.7798 447.8829 448.6044
   448.6044 449.6245 449.6245 449.9577 451.3814 451.3814 452.9471 452.9471
   453.5826 453.8097 453.8097 453.8249 453.8916 454.5832 454.5832 455.2717
   455.7486 455.7486 455.9421 456.5217 456.5217 456.9601 458.1385 458.1385
   458.1960 458.1960 458.3042 458.3502 458.6409 460.9716 460.9716 461.1315
   462.3543 462.3543 462.5259 462.5996 462.5996 463.5203 463.7431 463.7431
   464.0823 464.0823 464.1073 464.5620 464.5620 465.3691 466.0084 466.0084
   466.5293 468.8763 468.8763 469.0040 469.2365 469.2365 469.6842 472.0284
   472.0976 472.0976 472.8841 474.1313 474.1313 475.2163 475.2163 475.5634
   476.0148 476.1215 476.1215 476.5219 477.3387 477.3387 477.6602 477.6602
   477.7764 477.7808 477.7808 477.8043 478.4097 478.4561 478.4561 479.4076
   479.4076 479.5111 479.8589 482.2630 482.2630 482.4074 483.0113 483.0113
   483.3859 484.7674 484.7674 485.1077 485.1077 485.7545 485.7545 485.8428
   485.9620 485.9620 485.9908 486.0816 486.3373 487.1554 487.6833 487.6833
   488.7372 488.8172 488.8172 488.9003 489.6544 489.6544 490.1210 490.1210
   490.2111 494.2950 494.5505 494.5505 495.1791 495.3573 495.3573 496.0755
   497.4675 497.4675 497.8936 498.4132 498.4625 498.4625 498.4704 498.6862
   498.6862 498.8053 498.8060 498.8060 498.9557 498.9723 498.9723 500.9847
   500.9847 501.1380 504.0238 504.7987 504.7987 504.8721 505.1047 505.1047
   506.5897 506.5897 507.5438 507.9646 507.9646 508.6276 508.6276 510.6395
   510.9951 510.9951 511.2222 511.2222 512.0077 512.0077 512.2352 512.4687
   512.9838 513.1777 513.1777 513.7164 514.2836 514.2836 514.7522 515.0142
   515.0142 516.8326 517.2864 517.2864 518.0593 518.0593 518.5133 519.3524
   519.7046 519.7046 519.8709 519.8709 520.1416 521.7753 524.3882 524.3882
   526.2087 526.9880 526.9880 527.5839 528.3221 528.3221 528.5409 529.3987
   529.3987 529.4810 529.9658 529.9658 530.1991 530.2027 532.1543 532.8865
   532.8865 533.7658 533.7658 534.2171 534.2171 534.3337 534.4078 534.4078
   534.7684 535.6384 535.8103 535.8103 535.8666 536.4068 536.4068 536.7126
   537.6462 537.6462 538.4593 538.4593 538.5218 538.5834 538.6346 538.6346
   539.7507 539.7507 539.9321 541.9056 541.9056 543.1978 543.6107 543.6107
   544.3992 544.3992 544.7730 545.0025 545.0025 545.1165 545.4620 545.6398
   545.6398 545.8941 547.0189 547.1139 547.1139 547.4765 548.2472 548.2472
   548.9165 548.9165 549.1222 549.1222 549.1449 549.1760 549.3569 549.3569
   551.0443 551.0443 551.2124 551.5688 552.4605 552.4605 552.6820 552.7587
   552.7587 553.0478 553.3790 554.4100 554.4100 554.6012 555.7451 555.7451
   556.2673 556.2673 556.7534 557.0136 557.0136 557.0899 557.2425 557.2425
   557.4272 558.1155 558.8674 558.8674 559.8651 559.8654 559.8654 559.9002
   560.6662 560.6662 561.9202 561.9202 561.9409 561.9892 562.1535 562.1535
   562.8785 563.6154 563.6154 563.9583 564.4340 564.4340 564.5562 565.6021
   565.6230 565.6230 567.5699 567.6190 567.6190 569.2732 569.2732 569.5710
   569.8096 569.8096 569.9653 570.1071 570.1071 571.1890 573.2829 573.2829
   574.8538 574.9255 574.9974 574.9974 575.9489 575.9489 576.5096 576.5096
   576.5679 577.3377 577.5836 577.8580 577.8580 578.4175 578.4175 578.7148
   578.7187 578.7187 578.8143 579.0238 579.0238 579.4458 579.4516 579.4516
   579.5989 579.9709 579.9709 579.9902 580.1685 580.1685 580.8274 580.8274
   580.9336 581.4924 581.4975 581.4975 581.6982 581.6982 581.7248 582.5913
   585.1790 585.1790 585.5684 587.1401 587.2507 587.2507 587.5661 589.3874
   589.3874 589.4417 590.0797 590.2752 590.2752 590.3278 590.5669 590.5669
   591.5790 591.5790 591.8819 591.9979 591.9979 592.0677 592.6574 592.6574
   592.9716 592.9716 592.9769 593.2148 593.2148 593.2866 593.8370 595.0419
   595.0419 595.3278 595.3278 595.5418 596.5333 596.6296 596.9465 596.9465
   597.3939 597.3939 597.8431 598.0035 598.0035 598.0954 599.7331 599.7331
   600.6804 601.6104 601.6104 602.0199 602.0199 602.2991 602.2991 602.5507
   602.7424 603.4705 603.4705 603.5357 603.5762 603.5762 603.8192 605.6119
   605.6119 606.1227 606.4058 606.4058 606.9418 606.9418 606.9940 606.9940

          k = 0.5000-0.5000 0.5000 (  2392 PWs)   bands (ev):

   -24.5268  -8.7882  -6.3814  -6.3814  -5.1284   5.6134   6.6455   6.6455
    14.2503  16.0367  16.5386  16.5386  19.5536  19.5536  22.3471  23.1054
    23.1054  26.2111  31.1541  31.6666  31.6666  35.0496  35.0496  35.3910
    39.2905  39.2905  41.2851  41.2851  41.8589  43.4506  45.3308  47.4721
    47.4721  49.8157  49.8157  50.0147  50.4633  53.6127  56.9663  56.9663
    58.2480  58.2480  59.7794  60.0162  62.3134  62.3134  62.3742  62.3826
    62.3826  64.2256  64.2256  66.3553  71.1069  74.8951  75.0603  75.0603
    76.3841  76.3841  76.6452  76.6452  77.7693  77.7693  78.4760  78.4760
    79.2016  79.4603  80.2709  80.6727  80.7087  80.7087  87.0869  87.6641
    89.7478  89.7478  91.1689  91.1689  92.0040  92.1220  92.1220  92.9317
    92.9317  94.1466  94.5938  94.5938  99.4447 101.6798 101.8546 102.1803
   102.1803 102.2735 102.2735 104.4986 104.4986 104.7758 105.4225 106.9638
   106.9638 108.0145 108.9555 110.7039 110.7039 113.3634 114.4783 114.4783
   115.0190 115.0714 115.0714 115.4806 118.5325 118.5325 120.5928 120.9735
   121.1712 121.1712 123.4117 123.4117 123.6259 123.6862 123.6862 125.2544
   126.9568 126.9568 127.2937 128.3911 128.3911 128.4980 130.0787 130.0787
   130.7757 132.6922 132.9395 132.9395 135.8480 135.8480 135.8513 136.8255
   136.8255 137.5074 137.7479 140.4051 140.4051 140.5374 140.5529 141.3175
   141.3175 143.6874 144.8536 144.8536 145.6353 145.6353 147.3331 147.3331
   147.7243 147.7281 148.2713 148.2713 150.7178 150.7178 155.0288 155.0804
   155.0804 155.1097 155.1097 155.2106 156.8255 156.8255 157.5067 158.0278
   158.0278 159.1543 159.2163 159.2163 159.2765 163.1589 163.6227 163.6227
   165.5408 165.5408 166.4117 168.1184 169.0002 169.0002 169.0518 169.4382
   169.4382 169.7385 171.8642 173.1996 175.3840 175.3840 176.1495 176.5147
   176.5147 176.5963 177.0787 177.0787 179.2204 179.2204 179.7117 179.7117
   179.7627 180.0777 180.0777 180.3403 180.5682 181.1050 181.1050 181.1449
   181.1449 182.5736 186.2878 186.2878 187.0011 188.6797 188.6797 189.4617
   190.3495 191.1409 191.1409 191.2007 191.7893 192.6939 192.6939 192.8950
   192.8950 193.0491 193.0491 194.1707 194.1707 194.5890 196.8024 196.8024
   197.9176 198.1622 199.0093 200.0073 200.0073 200.6437 201.0020 201.6304
   201.6304 202.3468 202.3468 203.5724 206.3870 206.8752 206.8752 208.0397
   209.6051 209.7632 209.7632 211.6280 211.6280 211.6498 211.6498 212.1663
   212.3879 212.3880 213.3624 213.3624 213.4600 213.8772 213.8772 216.0272
   216.0272 216.8427 216.8427 217.0602 217.1842 217.1842 217.3459 217.5981
   218.0622 218.5933 218.5933 222.8229 222.8229 227.8132 227.9321 227.9321
   228.8457 230.2255 230.2255 231.8220 231.8220 231.8404 233.3346 234.4328
   234.4328 234.8021 234.8021 234.9560 235.0044 235.0044 235.0417 235.6834
   235.6922 236.0119 236.0119 236.2377 236.2377 237.7475 239.1740 240.2149
   240.2149 242.7232 243.5246 243.5246 244.5321 244.6505 244.6505 245.3514
   245.3514 245.6161 245.6161 245.6414 245.7034 245.7519 245.7519 245.7958
   245.7958 246.9285 247.0050 247.2009 247.2009 247.2936 247.7797 249.6802
   249.6802 249.7262 249.7262 251.4070 251.4083 253.8381 256.3553 256.3553
   258.2776 258.2776 259.4007 259.6837 259.6837 259.8709 259.8709 260.0693
   260.4752 260.4752 261.1021 261.1021 262.1815 263.1991 263.1991 264.0558
   264.0558 264.5451 264.6832 265.1338 265.1338 266.4228 268.2870 268.5118
   268.7078 268.7078 268.8146 268.8146 268.8846 268.8880 268.8880 269.7500
   271.0005 271.0005 271.1111 271.1234 271.1234 271.9939 273.3785 273.3785
   279.4667 279.4667 279.5285 280.0181 280.0181 280.4160 281.3193 281.3193
   281.6953 281.6953 281.7412 282.4791 282.4854 282.4854 282.6711 283.6228
   285.5113 286.5373 286.5373 288.3309 288.3309 289.6137 289.6137 289.9932
   290.2000 290.2000 290.4481 290.4859 290.4859 290.6164 292.2233 293.1676
   293.5167 293.5167 293.7000 293.7000 294.1701 295.4002 295.8734 295.8734
   296.0532 298.4532 298.4532 299.2696 299.5170 300.2980 300.2980 300.7633
   300.7633 300.9525 301.5180 301.5180 301.7140 301.7140 302.1775 302.1775
   302.8195 302.9572 303.6693 306.8579 306.8579 307.0842 307.0842 307.1072
   307.1072 308.6534 309.3976 309.9006 309.9006 311.5721 313.8958 313.8958
   314.3859 314.5210 314.5210 314.5400 314.7494 314.7494 314.8572 314.8572
   315.1667 315.7912 315.7912 317.1578 319.3666 319.3666 319.4284 319.4301
   319.4301 319.4346 319.6744 322.5232 323.0702 323.0702 323.0914 323.0914
   324.1906 325.2290 325.2290 325.8015 325.8237 326.0208 326.0208 327.9992
   328.7052 328.7052 329.7694 332.3895 332.3895 332.6561 332.6561 334.2809
   335.1702 335.1702 335.1853 335.8665 335.8665 335.9388 335.9491 335.9856
   336.1031 336.1031 337.9861 338.6453 338.6453 338.7219 338.7219 338.7603
   338.8073 339.9224 339.9224 340.8504 340.8504 342.5234 342.5234 342.8161
   342.8161 343.0348 343.0605 344.6889 344.7256 344.7256 345.3338 346.0602
   346.9898 347.0053 347.0053 347.2606 347.6270 347.6270 347.6779 347.9103
   347.9103 348.0045 348.0112 348.0112 348.2242 348.4066 348.4066 348.6007
   348.6007 350.5686 350.5686 350.7030 350.7030 350.7300 350.8180 353.3512
   356.4041 356.4041 358.1830 358.2352 358.3267 358.3267 359.0986 359.0986
   359.5920 359.8762 359.8762 360.2475 360.2475 360.6815 360.6815 360.7341
   360.7689 361.7122 361.9234 361.9234 362.1712 362.1712 362.2385 362.2468
   364.2074 365.2935 365.2935 368.4995 369.4156 369.4156 369.4530 369.4530
   369.5973 370.8298 370.8298 371.2104 372.0826 373.0379 373.0379 373.9866
   375.2771 375.2771 375.7247 378.0822 378.0822 378.2128 378.2128 378.7832
   378.7832 379.3307 379.6725 379.6725 379.8156 379.8156 379.8911 379.8965
   380.7079 380.7079 381.5160 381.7449 381.7449 383.7563 383.8317 383.8317
   383.8854 383.8854 385.5674 385.5674 385.8108 385.8111 386.5095 390.2571
   390.7377 391.0663 391.0663 391.4670 391.4670 391.7117 392.4278 392.4278
   392.6118 392.7094 392.8231 392.8231 392.9227 392.9227 393.5342 393.9340
   393.9340 396.8464 396.8464 396.8538 396.8538 397.1362 397.1420 398.0159
   398.1665 399.6918 401.6524 401.6524 403.5539 403.6058 403.6058 405.6783
   405.6783 406.8747 406.8747 406.9848 406.9848 407.5294 410.6913 410.6913
   411.0018 411.0697 411.0697 411.1468 411.2981 411.2981 412.6428 412.6639
   412.6639 412.9286 413.0664 413.2415 413.2415 413.6276 413.8667 414.0042
   414.0042 414.1159 414.1611 414.1611 414.7249 414.9782 414.9782 415.4872
   415.4872 415.8509 415.8780 415.8780 416.1070 416.1539 416.1539 417.0543
   417.0543 417.2322 417.7392 417.8556 417.8556 418.9783 419.0341 419.0341
   419.0657 419.0657 419.2958 419.5070 420.8146 420.8146 422.4001 422.4001
   422.5829 424.0799 425.1922 425.4538 425.4538 426.0706 426.0706 426.5246
   427.7270 428.6354 428.6354 428.7498 428.7585 428.7585 429.4390 429.4390
   429.7319 432.7677 432.7677 434.1997 434.1997 435.0840 435.4776 436.0006
   436.0006 436.0046 436.0046 436.0851 436.6608 436.6608 436.6893 436.9440
   437.5468 437.5468 437.7746 437.7746 437.9803 438.0145 439.6198 439.6198
   440.1491 440.6681 440.6681 441.1432 441.1432 441.2090 441.3223 441.3223
   441.3428 442.6024 443.2611 444.6962 444.6962 445.8248 447.4168 447.4168
   447.4225 447.4225 447.8141 448.0661 448.0661 449.2560 449.2710 449.2710
   449.3138 450.2020 450.2020 450.4077 450.4077 450.5841 450.7864 450.8069
   450.8425 450.8726 450.8726 455.0252 455.0252 455.3082 456.1515 457.2537
   457.2537 457.9417 458.5459 458.5459 461.4703 461.6580 461.6580 462.5626
   462.5821 462.5821 462.6180 462.6180 462.6268 462.6268 462.6281 463.3402
   463.3402 463.7135 463.8870 463.8870 465.7919 467.1634 467.1634 468.4365
   468.8144 468.8144 469.2291 469.2415 469.2921 469.2921 469.7453 469.7999
   469.7999 469.9860 469.9860 470.1915 470.4659 471.8373 471.8373 472.0366
   472.0366 473.3520 473.7347 473.7347 474.3060 474.4009 474.4091 474.4091
   474.4496 474.7511 474.7511 477.1623 477.1623 480.2819 480.9203 480.9203
   482.1192 482.1192 482.1368 482.4929 482.5153 482.5153 482.6116 482.6116
   482.6176 482.6176 482.6247 482.6986 482.6992 483.1110 483.1110 485.6751
   486.6145 486.6145 486.8575 486.8599 486.8599 486.8686 486.9921 486.9921
   490.3954 491.0904 491.0904 491.3725 492.6091 492.6091 492.7476 492.8980
   492.8980 492.9293 492.9293 493.2161 493.2325 493.4703 493.4703 493.5675
   493.5675 493.6850 493.8246 494.0162 494.0162 497.1317 497.1317 497.1706
   497.1706 497.2084 497.2091 498.3222 500.8933 500.8933 501.6431 504.1142
   504.1553 504.7088 504.7088 504.7398 504.7398 504.8172 505.4295 505.5234
   505.5234 505.5682 505.7003 505.9643 505.9643 506.0077 506.0077 508.4524
   510.2984 510.2984 511.4261 511.9895 511.9895 512.1534 512.1534 512.7949
   513.2344 513.2344 513.3110 513.7237 513.9103 513.9103 513.9847 513.9847
   514.0017 514.2869 514.2869 514.2978 514.2978 514.4509 514.4566 514.4665
   514.4665 514.8296 514.8296 514.8562 514.9888 516.9780 516.9940 517.1125
   517.1125 517.2018 517.2018 518.7156 518.8461 518.8461 518.8658 518.8658
   518.9107 518.9294 519.3147 519.3147 519.3431 519.3431 519.3727 519.4732
   528.7695 528.7695 528.9508 529.4732 529.5560 529.5560 529.7129 529.7272
   529.7272 529.9510 529.9510 530.1670 530.1670 530.2559 530.3040 530.3255
   530.3933 530.3933 530.4008 530.4008 532.2999 533.6757 533.6757 533.7738
   533.7738 535.0280 535.5710 536.2637 536.2637 536.8859 537.6655 537.6655
   538.2939 538.8554 538.9068 538.9068 538.9537 538.9537 538.9819 539.3708
   539.7715 539.7715 539.8194 539.8194 539.9279 540.0721 540.0721 540.2564
   540.2819 540.2819 541.2871 541.2871 541.2903 541.5941 542.1850 543.8589
   544.5365 544.5365 545.2395 545.2395 545.2786 548.2109 548.2109 548.6508
   549.1352 549.1352 549.2603 549.2603 550.0758 550.1254 550.1254 551.3389
   551.3390 551.4282 551.4776 551.4776 551.5181 551.5181 551.7420 551.7420
   551.8320 551.9218 551.9218 551.9425 551.9425 552.0652 552.2215 552.2215
   552.2546 553.8273 555.5617 555.5617 555.5639 555.5639 557.0232 557.0233
   559.1586 559.1586 560.1933 560.1933 560.2230 560.6686 563.2405 563.2405
   563.5108 563.9372 563.9372 564.1586 564.7332 564.7332 566.4072 567.6642
   567.6642 567.8468 568.0787 568.0787 568.6653 569.3684 569.3684 570.2601
   570.2601 570.7049 570.7049 570.8623 570.9345 571.0397 571.4049 571.4049
   571.4097 571.4097 571.5341 571.7884 571.7884 572.0844 572.3562 572.3562
   572.5121 572.9875 572.9961 573.0267 573.0267 573.5065 573.5065 574.2983
   576.0056 578.2177 580.3955 580.3955 581.8680 581.8909 581.8909 581.9690
   582.1586 582.1586 582.6384 582.6890 582.6890 582.7430 582.7430 582.7610
   583.0006 583.0769 583.0769 583.0960 583.0960 583.1457 583.2816 583.2816
   583.3495 583.5294 583.6778 583.6778 583.7860 583.8774 583.8774 584.1096
   586.3753 586.3753 586.7771 586.7771 586.8014 586.8014 586.8988 586.9843
   586.9843 587.6138 587.6330 587.6330 587.7935 587.7935 587.8258 588.1818
   588.1818 588.2013 588.2013 588.2027 588.2056 588.2377 591.4974 591.4974
   591.6657 592.6640 592.6640 594.2703 597.7743 597.7743 597.9514 597.9514
   597.9723 597.9844 601.3137 601.3137 602.2662 605.1260 605.1260 605.6797
   605.6797 605.8675 605.8675 606.3053 606.5286 606.5356 606.5356 606.5981
   606.5981 606.6009 606.6046 606.6877 606.6877 606.7963 606.7963 606.8792
   606.9035 607.1194 607.1194 607.5722 607.5952 607.7011 607.7011 609.7049

          k = 0.0000 0.5000 0.0000 (  2413 PWs)   bands (ev):

   -24.5720  -8.0244  -6.4791  -6.4791  -5.7844   6.4241   7.5898   7.5898
    12.1536  13.6174  16.1803  16.1803  16.8664  18.0583  24.3530  26.6961
    26.7397  26.7397  30.5269  31.4580  31.4580  32.1983  33.1678  38.0978
    38.0978  39.6784  42.8760  43.4371  43.4371  45.0398  46.3905  47.1667
    47.1667  47.5691  52.5514  53.1323  53.1323  53.7136  53.7919  55.4729
    55.4729  55.8538  56.1536  58.0930  60.6800  60.6800  61.1095  63.2198
    63.6716  64.0966  67.8584  67.8584  69.4051  69.4051  70.1563  74.5235
    74.5235  75.2920  75.6080  75.7149  76.1507  76.1507  79.1413  79.5071
    79.5071  81.2047  81.7086  82.8569  83.9472  85.3399  85.3399  87.1110
    89.7994  89.7994  91.4733  91.6806  91.8174  92.3673  93.9917  93.9917
    95.4233  95.4233  96.6656  98.0433 101.3436 101.5031 101.5031 102.8449
   104.6076 105.2478 105.2478 106.9974 107.4250 107.8777 108.5496 108.5496
   108.7089 109.0980 109.0980 109.5721 111.0376 111.4161 111.4161 111.4458
   112.3678 115.3983 117.7837 118.4175 118.4175 118.8964 118.8964 119.4743
   121.4099 121.4099 121.7100 121.7240 122.8687 122.9284 122.9284 123.0047
   123.1501 123.4984 123.4984 125.4530 125.4530 126.0523 126.3936 127.2892
   127.7707 129.8075 129.8075 131.2294 132.2714 132.5180 132.5180 135.5051
   135.5684 138.0740 138.8567 138.8567 139.2457 144.0839 144.1109 144.1109
   144.4891 144.9109 144.9109 144.9557 146.2856 146.2856 146.2906 146.5170
   147.0361 148.8214 150.2291 150.2291 151.4419 152.6828 153.9036 154.3006
   154.3006 154.8970 155.7796 155.7796 157.0504 157.7356 158.5988 158.5988
   159.1544 160.7227 162.5729 162.6246 162.6246 162.6733 165.0325 165.1252
   165.1252 165.7488 166.7139 168.1798 168.1798 168.4713 169.0006 169.0006
   170.1332 170.1729 171.9278 172.3856 172.3856 173.4174 173.6728 175.9912
   175.9912 176.9321 176.9321 177.1340 178.4091 178.6198 179.9993 179.9993
   182.1482 182.2663 182.2663 182.5784 182.7651 183.6505 184.0004 184.7700
   184.9307 184.9307 185.4989 185.4989 186.9950 186.9950 188.0171 188.0742
   188.0742 188.1383 188.3931 188.6964 189.8208 190.9044 190.9044 191.5783
   191.6762 191.8542 196.1667 196.1721 196.6727 196.6727 199.8378 200.1094
   200.1094 200.1223 201.1558 203.2225 203.2225 204.1934 204.1934 205.0149
   205.9144 206.8829 206.8978 207.5204 207.5204 208.2518 208.2518 208.4276
   208.5816 209.1952 210.4859 211.1000 211.1000 211.3572 212.4362 212.4362
   212.6836 213.3828 213.3864 215.0264 215.0264 215.8268 216.0060 217.6135
   217.6135 217.6813 217.9772 217.9772 218.6109 218.7976 218.9280 218.9576
   218.9576 219.0803 219.4118 220.3477 220.3477 220.6965 222.2690 222.6649
   222.6649 222.8024 223.1055 223.4809 223.4809 223.5101 224.5178 225.1354
   225.5403 227.6980 227.6980 228.9725 229.8609 229.8609 231.0529 231.3252
   231.9396 231.9396 233.0379 233.5797 234.5703 234.5703 234.6938 235.1493
   236.2015 236.2015 239.0089 240.2818 240.3273 240.3319 240.3319 242.9170
   244.8828 244.8828 244.9537 245.3590 245.3590 247.8570 248.6639 249.3091
   250.2521 250.2521 250.8018 251.1328 252.2374 252.2374 253.1056 253.2827
   253.2827 254.5210 254.7832 254.7832 254.7940 257.0158 257.0734 257.2225
   258.1340 258.1340 258.6456 258.6456 258.6595 258.7303 259.2919 259.3752
   259.5406 260.1532 260.1532 260.3809 263.3180 263.3180 263.9452 264.4314
   265.2379 265.2379 266.0950 267.6212 269.0030 269.0030 269.5551 271.3239
   271.3239 273.0930 273.5473 274.4258 275.5153 275.5153 278.1164 279.0164
   279.0164 279.0650 279.1815 279.1815 279.2903 279.2912 279.9445 280.5200
   280.7123 280.7900 280.7900 281.4891 281.4891 283.2805 283.2805 283.3811
   284.4162 285.6985 285.8445 285.8445 286.6978 286.7520 286.9241 287.2510
   287.4339 287.6698 287.6698 287.6825 287.9017 287.9017 287.9368 289.2086
   289.4945 289.5418 289.5418 289.6183 289.6183 289.8512 290.4532 290.7775
   291.2640 292.7266 292.7266 293.5337 293.8395 293.8468 293.8468 294.4124
   294.4124 295.3387 295.4255 295.6415 295.6415 295.8091 297.8008 298.8958
   298.9200 299.3761 299.4154 299.4154 301.3551 302.1690 302.1690 303.0029
   303.0562 303.1662 303.1662 303.2298 303.4135 304.6101 304.6101 304.9352
   307.3817 308.0478 308.0478 309.3226 309.9524 311.8410 311.8499 311.8499
   313.5320 314.1334 314.1334 314.3636 314.8534 315.1340 315.1483 315.2163
   315.2163 315.4964 316.4784 317.1155 317.1155 317.2118 318.4065 318.4065
   319.1853 320.2818 320.3368 320.3368 320.9335 320.9335 321.0469 321.1018
   321.8212 322.8134 322.8134 323.3437 323.8419 323.8419 323.9496 325.8056
   325.8056 326.2718 329.8007 329.9266 330.4589 331.5115 331.5115 331.5948
   331.7405 331.7405 333.0585 333.1241 333.1241 333.4741 333.7350 333.8488
   333.8488 333.9326 334.4295 334.6661 335.2772 335.2772 335.6138 337.0994
   337.5168 337.5168 337.8099 339.2483 339.5714 340.4659 340.5957 340.5957
   340.8282 341.8626 341.8626 342.3678 342.9126 343.1689 343.1689 343.1910
   344.1614 344.2404 344.2404 347.4068 347.5278 347.5278 347.9233 349.6236
   349.8132 350.1349 350.1349 350.2333 350.3254 350.3923 350.3923 350.4482
   352.6037 352.9496 353.7196 353.7196 354.0444 354.0444 354.2401 355.0680
   355.9124 355.9124 356.4399 356.4399 356.6610 356.9080 357.1505 358.0044
   358.2351 358.2351 358.5723 359.1585 359.1585 359.1653 359.4096 359.8149
   360.0809 360.2566 360.2566 360.5337 361.4146 361.5235 361.5235 365.2422
   366.1495 366.1495 366.3028 366.8127 369.4945 369.5515 370.1503 370.1503
   370.2815 372.6920 373.0340 373.0340 374.5315 374.7606 374.7606 375.0381
   375.5531 375.7190 376.2124 376.2124 378.7880 380.5415 380.5415 381.3846
   382.4325 382.7795 382.8096 382.9917 382.9917 384.2438 384.6039 384.6039
   387.1078 387.1078 387.1398 387.4702 388.5073 388.5717 388.5717 388.8098
   389.0508 389.1178 389.1178 389.1765 389.3465 389.4006 389.4006 389.5263
   389.7574 389.8890 389.9458 389.9494 389.9494 390.3594 391.5737 391.5737
   391.8817 391.9328 391.9328 391.9447 392.1035 392.2893 392.9589 392.9589
   393.3814 394.1303 394.3789 394.3789 395.9155 395.9774 395.9774 396.0888
   396.2324 397.7372 399.1434 399.1434 400.0969 401.0240 403.6716 403.7902
   403.7902 404.0691 404.9023 404.9023 405.5502 407.6199 407.7582 407.7582
   409.5770 409.6968 409.9212 411.6697 411.6697 412.2581 412.2581 412.3710
   412.3793 412.3823 412.4346 412.4346 413.0034 413.1174 413.1339 413.1339
   413.1431 413.2766 413.2766 413.5446 414.7147 414.7147 415.3020 415.3434
   416.2343 416.2343 416.6783 417.4028 419.0552 419.5175 419.9587 419.9587
   420.2337 420.7458 420.7458 421.8146 422.2312 422.4148 422.4148 422.7107
   423.0435 423.0435 423.0653 423.2151 423.6523 423.8597 423.8597 424.2011
   425.1857 425.3795 425.3795 426.7820 426.7846 426.7846 426.7947 427.2587
   427.7759 428.3573 428.4568 428.4568 428.6737 431.0912 431.0912 431.5465
   432.0633 433.1700 433.4981 433.4981 434.4288 434.4288 434.4313 434.7676
   436.0284 436.4300 436.4300 436.7266 437.7224 439.4936 440.4233 440.6093
   440.6093 441.1961 441.9800 442.6391 442.6391 443.1700 443.3008 443.7107
   443.7107 444.1778 444.2848 444.2972 444.2972 444.7064 444.9150 444.9150
   445.2545 446.2944 446.2944 446.7432 446.9041 447.0628 447.0974 447.0974
   447.1902 447.3107 447.3107 447.3392 447.5271 448.6375 448.7238 448.7238
   448.7946 448.8375 449.0490 449.0490 449.1679 449.6512 450.3262 450.3262
   451.3321 451.3321 451.9564 451.9688 452.5020 452.5530 452.5530 454.7563
   455.0080 456.4298 456.4298 457.2506 457.4024 457.4465 457.4465 457.4704
   459.1585 459.4804 459.4857 459.4857 459.7759 459.9021 459.9021 459.9448
   460.1951 460.3880 460.3885 460.3885 460.4022 460.4027 460.7305 460.7305
   460.8128 461.7919 463.0447 463.0447 463.2050 463.4978 463.4978 463.7404
   464.5791 465.0001 465.0573 465.0573 465.6333 466.3319 466.3319 466.3708
   467.5056 469.4936 469.6009 469.6009 470.0168 472.0818 473.5021 473.5021
   473.8243 474.5530 474.5530 474.5853 475.1664 476.5683 477.5791 477.5791
   477.6297 478.6270 478.6270 478.7326 480.0456 483.1819 483.2739 483.2739
   483.2800 483.8365 483.8821 483.9256 483.9256 486.4350 487.0267 487.0267
   487.2800 488.3507 488.3507 488.5134 489.1181 489.2025 489.2388 489.2388
   489.7148 489.7302 490.0230 490.0230 490.2169 491.3502 492.9768 492.9768
   493.5378 493.8706 494.1381 494.1819 494.2792 494.2792 494.4218 494.7506
   494.7506 494.9399 495.3319 497.3671 497.3671 498.5012 498.5341 498.8065
   498.8065 499.5722 500.1317 500.1317 500.2356 500.2896 500.7110 500.9398
   500.9398 501.0555 501.6300 502.1783 502.1783 502.7491 503.5661 504.8750
   504.8986 504.8986 504.9861 507.7055 507.7055 507.8950 508.4498 509.9812
   509.9812 510.7394 510.8832 510.8832 511.3208 511.5639 512.0243 512.5989
   512.6354 512.6543 512.6543 512.7274 512.7274 512.7917 512.9911 513.4121
   513.7446 513.7446 513.7876 513.9304 513.9304 514.0772 514.5645 514.5645
   515.0436 515.2708 515.3216 515.3216 516.8539 517.2840 517.3772 517.3772
   517.4229 517.5044 517.5591 517.5591 517.6305 519.5638 520.1800 520.1800
   520.3815 520.6970 521.4491 521.8413 521.8413 522.3836 522.3836 522.5949
   522.8471 523.0227 523.3137 523.3137 523.6688 523.6826 523.6826 523.8963
   525.7109 527.5573 527.6906 527.6906 527.7481 527.7762 527.7897 527.7897
   527.8332 529.0657 530.2368 530.2999 530.2999 530.3082 534.1265 534.7824
   534.7824 535.1233 535.3504 535.3504 535.6145 535.6164 535.8428 535.8428
   536.0091 536.1346 536.6772 536.8160 536.8160 536.8873 537.4405 538.6222
   539.5747 539.5747 540.3459 541.1314 541.1314 542.1988 543.4846 544.1443
   544.1443 547.3858 547.3930 547.5232 547.5232 547.6330 548.0681 548.1277
   548.1277 548.1635 548.6293 548.6293 548.6859 548.7602 550.9563 551.6859
   551.6981 551.6981 552.0968 552.0968 552.4022 552.7144 552.7144 552.8840
   554.8371 556.2710 557.0196 557.0600 557.0600 557.3582 557.5679 557.6162
   557.6405 557.6405 558.0272 558.0272 558.5257 558.5651 558.5651 558.7126
   558.8489 558.9650 558.9725 558.9725 559.0056 559.3844 559.6092 559.6092
   559.7445 560.8209 561.4243 564.3173 564.3564 564.3564 564.3818 564.3818
   564.6393 565.9239 567.0893 567.1931 567.1931 567.4119 568.4823 568.4823
   569.0043 569.3614 569.4717 569.4717 569.5354 569.7868 569.8770 570.0445
   570.0445 570.1788 570.3127 570.3127 570.3984 571.7085 573.0859 573.1561
   573.1561 573.1694 575.1623 575.1967 575.1967 575.2024 575.4940 575.4940
   576.3423 576.7700 577.6117 577.6117 577.9870 578.2200 578.3537 578.3537
   578.6273 578.6585 579.5430 579.5430 580.0172 580.2371 580.2379 580.3093
   580.3281 580.3281 581.2235 581.4123 581.4123 582.4158 583.9754 583.9899
   583.9899 584.0216 586.0385 588.1863 588.1863 588.2149 588.6501 588.8816
   588.8816 589.3292 589.6739 589.6896 589.7608 589.7608 589.7847 589.9320
   589.9320 589.9776 589.9776 589.9780 590.0113 590.2778 590.3465 590.3465
   590.7531 591.3654 591.9676 591.9676 592.6296 593.2085 593.2435 593.7760
   593.7760 594.2037 594.2894 594.3133 594.3133 594.3397 594.4004 594.5522
   594.5522 594.7091 594.7201 594.7201 594.7953 594.8243 594.8278 594.8278
   594.8414 595.3388 596.3309 596.4223 596.4223 596.4634 598.5449 599.9252
   599.9252 600.4018 601.5343 601.5343 601.8948 602.8464 603.8564 604.2207
   604.2207 604.3257 604.9806 605.2781 605.2781 605.3868 605.8004 605.9628
   606.1313 606.1313 606.2186 606.2381 606.2381 606.2441 606.2683 607.5786

          k = 0.7500-0.2500 0.7500 (  2405 PWs)   bands (ev):

   -24.5081  -8.3033  -6.7264  -6.5196  -5.7082   6.5331   7.0051   7.1323
    12.7564  15.2753  16.7972  17.3511  18.7490  19.9230  21.2873  23.8851
    25.0284  28.1038  29.8833  30.1115  32.4805  34.1233  34.7408  36.0748
    37.7283  39.0348  39.7447  40.5371  42.0060  43.7791  45.4115  47.9802
    48.2175  49.0532  49.8008  50.1194  52.3022  52.7351  53.3897  55.4137
    58.9572  59.3668  60.3044  61.6337  62.2942  63.8610  64.0660  64.4574
    64.5616  66.0719  66.7894  67.0656  69.5439  71.1416  72.4453  72.8701
    74.0914  74.2046  74.3299  76.1997  77.8996  78.6006  78.8823  79.9408
    81.1449  81.4834  82.9737  82.9745  84.4576  84.7953  85.4519  86.4438
    87.4442  87.6735  89.3573  90.4693  90.4906  91.1988  91.8666  92.7768
    93.8838  94.7604  95.3251  95.7829  96.7714  97.3999  98.4867 100.9346
   101.5271 102.0947 103.6891 103.9982 105.3775 106.3317 106.7925 108.1668
   108.3172 109.3330 109.6551 109.7793 111.0745 111.3226 111.6351 111.9846
   112.8966 114.0446 114.5379 116.2694 117.1312 117.3644 117.6234 118.3603
   120.8062 122.3805 122.4901 123.3841 124.6739 125.4381 126.0860 126.4805
   127.1717 127.4724 128.2208 128.5680 129.6200 130.2589 131.1377 131.9760
   132.0892 132.9150 134.5436 134.7010 135.8282 136.1505 137.0632 137.7783
   139.4207 139.6097 140.2902 141.1912 141.4861 141.5739 142.1785 142.4697
   143.0358 143.8938 143.9735 145.9945 146.0158 146.3113 147.1158 148.4458
   148.8247 149.1641 149.7258 149.7605 150.5186 150.6331 151.4396 152.3258
   154.2140 154.7592 155.6637 155.8366 156.4555 156.7111 158.2102 159.2221
   159.2840 160.0204 160.1412 161.3130 161.3537 161.6480 163.4019 164.1845
   164.2557 164.8039 165.3670 165.9289 166.8945 167.4423 167.6964 167.8983
   168.0408 168.1216 168.2780 168.9465 169.4162 170.2530 171.1948 172.9364
   173.6448 174.9098 175.7176 176.1970 176.5613 177.2662 177.8526 178.4272
   178.8238 179.2204 179.4500 179.6546 180.8615 181.0100 182.4691 183.2657
   185.1007 185.2618 185.7961 185.9272 187.2057 187.8011 189.0786 189.6823
   190.0831 190.1919 190.5333 190.8545 191.2556 191.4227 191.8256 192.6759
   193.0485 193.3750 193.7321 194.0853 194.3935 196.2246 196.6499 197.6474
   197.8701 198.7786 199.3673 199.8925 200.0678 202.1726 202.3258 203.1245
   204.7083 205.6690 205.7755 206.6211 206.9950 207.8649 208.0614 208.4047
   208.5269 209.4563 209.6803 210.1117 210.3173 210.6312 210.8754 211.9536
   212.4673 212.7956 213.6670 214.9762 215.7038 216.0190 216.6541 216.8853
   217.6514 219.3811 219.5218 219.9082 220.5698 220.7768 221.6928 221.7136
   223.4211 223.7147 224.2132 224.5820 224.8125 225.6710 226.1463 226.8396
   227.3477 227.3659 228.9643 229.4689 229.6596 230.7347 230.8932 231.8817
   232.5017 232.9257 233.4901 233.4966 233.7271 234.5941 234.6359 235.4953
   235.5546 235.6657 235.9862 236.9968 237.9689 238.0274 238.2672 238.6117
   239.0368 239.8899 240.4621 240.4965 240.5791 241.0011 241.6970 242.3693
   242.4349 243.0160 243.2903 243.5031 243.5934 243.7271 245.0721 247.0749
   247.8239 248.5186 248.9487 249.6318 250.7939 251.1139 251.2579 251.9296
   252.8115 252.9459 253.4725 254.0257 254.6974 255.1196 255.3060 255.9529
   256.1000 256.8096 256.8895 257.3718 257.3771 258.4855 258.9211 260.1428
   260.7880 261.0125 261.6234 261.8328 262.2718 262.4089 263.9417 264.2698
   265.2104 265.4278 265.8781 266.8429 266.9436 267.5616 268.0900 268.5113
   268.7287 268.8156 268.9855 269.0128 269.9422 270.3729 270.3730 271.0761
   271.1020 271.9463 272.5618 272.7157 272.8947 274.0530 274.9709 275.8664
   275.9075 276.7945 276.8549 277.0007 277.8348 278.8846 279.5517 279.5652
   280.0442 280.1654 281.2949 281.3384 281.3864 281.8383 282.0470 282.1717
   282.5285 284.1217 284.2280 284.5939 286.4086 286.9370 287.0868 288.0264
   288.4910 289.1597 290.1944 290.9016 290.9387 291.3055 291.8621 291.9503
   292.1356 292.4005 292.9126 293.6230 293.7980 295.0197 295.1382 295.9160
   296.1421 296.9962 297.6822 297.7036 298.7706 299.0760 300.0152 300.0512
   300.5490 301.0256 301.0946 301.6747 302.5962 303.1545 303.3453 303.5672
   303.8512 304.4831 305.3135 306.4050 306.4718 307.1858 307.8105 308.1091
   308.5466 309.2803 309.4502 309.8616 310.4440 311.6677 311.8661 312.4731
   312.9426 312.9914 314.3255 315.0071 315.3870 316.2019 317.0780 317.2222
   317.7122 318.3283 318.5277 319.3087 319.3654 319.4739 319.6876 319.8832
   320.6549 320.7684 321.4187 322.8648 323.2546 323.4747 324.0686 324.1866
   324.6969 325.1153 325.8923 325.9343 325.9977 326.7697 327.1526 327.4191
   328.3001 328.7125 328.8813 328.9007 329.2432 329.3542 329.8569 329.9454
   331.2214 331.6109 331.9041 332.0039 333.0033 333.9104 334.7027 334.8095
   335.8046 335.8213 336.4381 336.6415 337.1456 337.4342 337.5094 338.8066
   340.0667 341.3327 341.9822 342.2911 342.5393 342.7271 342.8384 343.0474
   343.1778 344.0532 344.3209 345.0784 345.7266 346.0180 346.3765 347.1018
   347.1421 348.0159 348.2269 348.8471 349.2878 349.3063 349.6969 349.8222
   349.9479 350.3691 350.9791 351.0080 351.5125 351.6765 351.8163 352.0398
   353.3639 353.4553 353.9916 354.0800 354.1976 355.0349 355.2627 355.6236
   356.6394 356.7667 357.6223 358.2712 358.8129 359.1609 359.2272 359.3131
   359.5248 361.0103 361.1561 361.3513 361.8374 362.0780 362.2430 363.1030
   363.8627 363.9367 365.4553 365.5790 366.3558 367.1140 367.1971 367.2915
   368.0107 368.9211 369.0736 369.5384 369.6337 370.2403 370.2830 370.3544
   370.6702 370.9620 371.0937 371.6117 371.6639 371.9566 371.9784 372.1559
   373.7448 374.7770 374.9449 374.9622 376.0708 376.0764 376.6607 376.9117
   377.1200 378.2903 378.4732 379.0145 379.3381 379.5553 379.5969 379.9538
   380.3009 380.8291 381.6504 382.2174 382.7016 383.7314 384.2716 384.6887
   384.8312 385.3725 385.6492 386.7066 386.7972 387.7660 387.7699 387.8915
   387.9718 388.0886 388.9357 389.1274 389.3210 389.4035 389.7623 389.8041
   390.9128 391.5378 391.9462 392.2263 392.7229 392.9130 393.0971 393.3808
   393.5166 393.9354 394.1509 394.2994 395.2075 395.4914 395.5872 396.0274
   397.3227 397.6495 397.8901 398.0649 398.7133 399.0718 400.3150 401.3495
   401.4934 402.2485 402.8891 403.3084 403.6211 404.3852 404.4560 404.7755
   404.7910 405.3273 405.6609 405.9059 406.0487 406.4506 406.9342 407.3549
   407.6934 408.7325 408.7476 408.9513 409.0433 409.0495 409.4320 410.2916
   410.4411 410.7310 411.2329 411.2385 411.5036 411.9876 412.7408 412.8648
   413.2357 413.5330 414.5340 414.9165 414.9640 415.4247 415.6929 416.6352
   416.9212 417.7593 417.8492 418.0339 418.7073 420.2378 420.4975 420.5308
   420.8071 421.4593 422.0465 422.5831 422.5876 423.1815 423.3119 423.9677
   423.9773 424.5019 425.2970 426.4474 427.4591 427.6332 428.1446 429.5812
   430.0055 430.1627 430.7847 430.9075 431.8644 431.8851 432.0265 432.3042
   433.1376 433.5150 433.7994 434.1683 434.9681 435.0690 435.1198 435.2038
   435.2633 435.5239 435.6067 435.7446 435.8606 435.9004 437.1551 437.8376
   438.0757 438.1247 438.2443 439.7327 440.3233 441.7494 442.8888 443.0822
   443.4422 443.7217 443.7931 444.6376 445.2686 445.3102 445.3182 445.8676
   445.9700 446.2252 446.4935 446.9192 447.0952 447.1576 447.8692 447.8698
   448.1622 448.7684 448.9722 449.7708 449.8851 450.1241 450.6433 451.1022
   451.2077 451.8863 452.4215 453.0981 453.4703 454.0711 454.2278 454.2969
   454.6770 454.9919 455.0752 455.3476 455.8519 456.6480 457.2793 457.3655
   457.3813 458.7952 459.7126 459.8545 459.9910 460.4733 460.6563 460.8353
   460.8359 461.4766 461.4864 461.6148 463.2393 463.5504 463.7191 463.7784
   464.3733 464.6531 464.7392 465.0977 465.3324 465.7038 465.7985 465.8745
   466.9126 467.1777 467.5866 467.9352 468.8206 468.8412 469.4379 469.9742
   470.0378 470.2431 471.2213 471.8404 471.9896 472.0300 472.3547 473.5096
   473.9880 474.4164 474.6813 475.0118 475.4745 475.5495 475.8971 476.0255
   476.2018 477.2879 478.0773 479.1511 479.2499 479.6660 479.6898 480.9106
   480.9255 481.2689 481.3985 481.6914 482.4796 482.5664 483.2067 484.2592
   484.4179 484.6773 484.8659 485.2496 485.6038 485.7246 486.0776 486.0813
   486.2823 486.8624 487.5375 487.8513 488.1995 489.0989 489.4845 489.7962
   490.0899 490.5187 490.9220 491.3594 491.6551 491.9710 492.3316 492.6542
   493.3550 493.4370 493.5776 493.6697 494.1737 494.2696 494.6337 494.8936
   495.2381 495.6560 496.1989 496.3550 496.9218 497.1838 497.3491 497.8486
   498.1965 498.6658 499.1200 499.3834 499.6320 500.4104 500.4588 500.6556
   501.2288 501.4101 501.6757 501.8628 502.6737 502.6862 502.7940 503.4104
   503.8375 503.8570 503.8805 504.5574 504.6452 504.8237 505.0058 505.0373
   505.2651 505.4831 505.6149 505.9662 506.2449 506.9845 507.5188 510.0467
   511.4930 511.7776 512.7899 513.0320 513.1626 513.6151 513.7746 513.8262
   514.3554 514.3875 514.5250 515.3500 515.4155 515.8537 516.2665 516.5644
   516.5866 516.6096 516.8163 517.0871 517.1659 517.5026 517.9958 518.2741
   518.4815 518.5106 519.0496 519.3058 519.5680 519.8468 520.1882 520.1953
   520.3558 520.3884 520.9541 521.1993 521.2439 522.4761 522.5595 522.8777
   522.9678 522.9759 523.2613 524.2687 524.7870 525.0385 525.5616 525.5868
   525.6792 526.1693 526.9684 527.2807 527.6623 527.9024 528.5382 529.0195
   530.3576 530.6757 530.8042 530.8394 530.9717 531.4752 531.8715 532.2962
   532.9713 533.0093 533.0739 533.3036 533.5645 533.6125 534.0786 535.5895
   536.2364 536.3619 536.7460 537.2394 537.3843 537.3931 537.6069 537.6948
   537.7394 538.4595 538.5444 538.6768 538.9444 539.0406 539.1621 539.4821
   539.6570 539.8818 541.0907 542.2793 542.9917 543.9173 544.1854 545.0983
   545.2896 545.6135 545.9648 546.1129 546.1208 546.8265 547.3697 547.4595
   547.8489 548.6626 549.1560 549.1809 549.4435 549.5091 549.5996 550.0301
   550.5015 550.6312 550.7460 551.0370 551.1720 551.3783 552.1837 552.9239
   553.1698 553.2344 553.6522 553.9217 554.5499 554.5933 554.9345 555.8355
   555.9479 557.1057 557.4956 557.9983 558.2133 558.5216 558.6113 558.6725
   558.9327 559.2160 559.2761 559.3134 560.8719 561.0908 561.1530 561.2682
   561.9096 562.4711 562.6062 562.8644 563.0378 563.4665 564.0939 564.2588
   564.3662 565.0448 565.2849 566.3955 566.4195 566.6997 567.2113 567.2348
   567.3752 568.7107 568.7461 568.9985 570.2082 570.3484 570.7268 570.7563
   570.9788 571.0334 571.1800 571.6562 571.9505 572.8388 573.1824 573.2160
   573.7588 574.2033 574.7451 574.7966 575.2469 575.3757 575.6971 576.0604
   576.1859 576.7200 576.7875 577.0900 577.1042 577.2678 577.2962 578.1553
   578.6449 578.7256 579.1662 579.2808 579.5315 579.7904 581.5672 582.0860
   582.4621 582.6189 582.7302 583.4931 584.1323 584.1815 584.3044 584.4881
   584.6946 586.0335 586.5399 586.5847 587.0609 587.5497 588.1623 588.3549
   588.6140 589.5456 589.5960 589.6685 589.8169 589.9433 590.0325 590.1608
   590.2524 590.7799 591.2786 591.3712 591.3789 592.0653 593.2584 593.2783
   594.3082 594.4155 595.9803 596.0059 596.7614 596.8539 596.9583 597.4498
   597.7291 598.5724 599.0215 599.0236 599.1077 599.4890 599.6044 599.9811
   600.4470 600.9921 601.0159 601.3160 601.3822 601.7601 602.5892 603.1783
   603.1927 603.4788 603.7254 603.7697 604.3502 604.4645 604.5780 605.0697
   605.7452 605.8113 606.1832 606.5656 606.6879 606.7462 607.4458 607.5462
   607.8424 607.9561 607.9769 608.0635 609.1466 609.4439 609.6199 609.8664

          k = 0.5000 0.0000 0.5000 (  2395 PWs)   bands (ev):

   -24.5285  -8.4332  -6.7157  -6.3845  -5.3982   6.0864   6.7473   7.3068
    13.8868  14.5877  15.9733  16.3895  18.9017  19.6722  21.8186  24.1929
    27.0500  28.6713  28.9977  29.0579  32.5368  32.5592  33.1053  36.4515
    40.2745  40.6084  41.4900  41.9343  42.1604  44.8348  45.5684  46.3050
    46.7761  47.5273  50.1323  50.9411  52.2578  53.4114  54.2855  54.8306
    56.8173  59.2966  61.1436  61.2494  61.4521  62.6227  62.6414  63.5003
    64.2876  66.2096  66.2622  67.6594  68.9564  69.9530  71.9300  73.6352
    74.4851  74.5811  76.1512  76.6388  77.3199  77.6131  78.1925  78.8433
    80.5538  81.2839  81.3482  83.1323  83.6091  84.7921  84.8946  87.6536
    87.8632  90.0116  90.2743  90.3993  91.5070  92.6923  92.7776  94.2288
    94.3464  95.2917  95.7194  96.6157  98.6439  99.2345  99.7908 101.4164
   102.0936 102.1534 102.4627 102.8419 103.6377 105.0334 106.0738 106.5889
   107.1061 108.9861 109.8173 110.4832 110.7138 111.4271 112.4398 114.9138
   115.7408 115.9029 116.9649 118.7194 119.0516 119.4459 119.6177 119.7192
   120.5907 121.4643 121.4662 122.6935 122.8083 123.7214 124.0057 124.9754
   125.2723 125.7737 127.7275 128.2431 128.6813 128.9476 130.8349 130.8697
   131.1580 132.0806 132.0916 132.3102 132.4935 134.0532 134.1783 134.4414
   134.5277 138.3440 141.0703 142.3678 142.6981 143.3318 144.0850 144.1391
   144.5446 144.6560 144.8627 145.7088 145.8033 146.0842 147.8237 147.9298
   148.8515 149.3848 149.4992 149.7555 150.1077 151.2313 151.3866 151.7524
   152.2883 154.0713 154.1176 154.5870 154.6341 156.5408 156.8773 158.5606
   158.9760 159.3523 160.1022 162.1544 162.3133 163.4790 164.3629 164.4725
   164.9589 165.1286 166.3246 167.0969 167.5930 168.0411 168.1091 168.5960
   169.0988 169.3633 170.8685 171.0022 172.4931 173.1064 173.6942 173.9209
   174.1330 175.0653 175.9122 176.7610 177.2332 177.3953 177.9043 180.6859
   180.8889 181.0776 181.1518 182.0730 183.3894 183.5778 183.6241 184.5199
   184.6824 185.6180 186.1347 186.8681 186.9313 187.8600 188.0783 188.2507
   188.4541 188.7288 189.1789 189.7495 189.8437 190.0029 190.5648 190.9030
   191.3573 191.9441 195.0343 195.7314 196.3320 197.1910 197.8994 198.4634
   199.4976 199.5670 199.6542 200.5177 200.9169 201.4739 202.8293 202.9069
   203.0793 203.6073 204.3773 204.6501 204.8412 205.6484 208.5508 208.5962
   209.4823 209.7530 209.7948 210.1575 210.7144 211.1717 211.2756 211.6721
   212.2285 212.5753 213.0967 213.9044 214.1440 214.2851 215.4330 216.0747
   216.3099 218.2429 219.4070 219.5595 220.2784 220.2818 220.8530 220.8557
   221.3706 222.3930 222.4475 222.8009 224.5964 225.1430 225.2505 225.8140
   226.4574 226.5608 226.6376 227.2749 227.9002 228.4164 228.7768 229.2294
   230.6053 231.4861 232.0249 232.3817 233.1377 233.6952 233.8111 234.0316
   234.9581 235.8508 236.6851 237.4063 237.6199 237.7913 238.2038 238.3141
   239.9583 239.9692 240.1191 240.5552 242.1742 242.9919 243.0776 243.1075
   244.0854 245.0813 245.4636 245.6335 246.2886 246.6695 246.8466 247.2999
   248.3493 249.1522 249.3752 249.4297 249.4495 250.1453 251.2821 251.8414
   252.5882 252.6121 253.2131 253.5114 253.8276 253.9070 255.2182 255.6533
   255.7474 257.0359 257.9381 257.9675 258.0261 259.5461 261.0817 261.4894
   261.7326 262.4788 262.5017 262.6523 263.4990 263.5508 263.9885 265.0919
   265.8701 266.0216 266.3802 266.4274 266.5619 267.0500 267.5786 267.9155
   268.5549 269.0153 269.0751 269.0969 269.2870 269.7629 269.8025 269.9408
   270.0110 270.0264 270.8494 271.7352 273.3675 274.0650 276.2305 276.7315
   277.2967 277.3448 279.0277 279.0873 279.5138 280.4957 281.0045 281.2401
   281.5876 281.8186 281.8737 282.1964 283.6883 283.7632 283.9768 284.1318
   284.4083 284.9760 284.9976 285.8675 286.7907 286.9672 287.4756 288.1388
   288.3229 288.3240 288.4439 289.0506 290.3918 290.4797 291.0495 291.1056
   291.9189 292.5567 292.8056 293.1970 295.1066 296.1885 297.2174 297.2455
   297.7079 297.8683 298.0852 298.4239 298.9743 299.4458 300.0698 300.6791
   300.8231 300.9780 301.1609 301.2307 301.2433 301.3839 301.5741 302.0662
   304.7054 304.8881 305.7448 306.5613 306.5785 306.6474 308.7804 309.8330
   310.0662 310.7924 311.0014 312.1583 312.3853 312.6955 313.2740 313.6173
   315.0594 315.4204 315.4326 316.3600 316.4167 317.3565 317.4644 318.2733
   318.3026 318.5339 318.8739 319.1366 319.3684 319.6080 319.9219 320.2735
   320.3512 320.4087 321.2420 321.5476 321.5683 322.6299 322.6774 323.4122
   323.4426 323.4499 323.9224 324.6445 324.9586 325.0955 325.2901 325.5172
   326.1183 326.7980 326.8992 326.9145 328.4397 328.8638 329.5808 329.8335
   329.9684 330.8063 331.4230 331.5593 331.8596 332.7648 333.7952 334.4500
   334.5391 334.9166 335.6136 335.6312 335.9051 336.1029 336.1438 337.1611
   337.8013 338.1017 338.2218 340.4408 341.6103 341.8658 341.8903 342.4989
   342.5077 342.5258 343.4914 343.5075 343.9156 344.0058 344.6054 344.8881
   345.3617 345.7251 346.5204 346.7385 347.4998 347.7090 347.9585 348.0460
   348.4684 348.5885 349.5087 349.6853 349.9389 350.0274 351.3183 351.5604
   352.2017 353.2403 353.7774 355.1791 355.5726 355.6833 355.7671 356.1001
   356.2526 356.9154 357.5546 357.7230 357.9113 358.1719 359.3445 359.4389
   359.6660 359.8942 361.1268 361.5187 361.7365 361.7458 362.7517 364.7937
   364.8910 365.0249 365.8023 366.6017 366.6812 366.9464 368.2765 368.5173
   368.8201 369.1710 369.7326 369.7581 369.9723 370.3929 370.5617 370.7922
   371.0592 371.2712 371.4422 371.9123 373.1786 373.2200 373.2938 374.2337
   374.2564 374.8783 375.4997 376.2436 377.3291 377.3909 377.8090 377.8216
   378.2450 378.4849 378.7449 379.0094 379.8558 380.1335 380.1635 380.2464
   381.1536 381.4915 381.8450 381.9333 382.3118 382.5204 382.5669 382.8598
   383.6253 384.3516 385.1651 385.5684 386.5900 386.6201 386.8814 387.0965
   387.3356 387.3541 387.3698 389.4252 390.1139 390.2151 391.1444 391.2283
   391.3506 391.4358 391.6857 391.8279 391.9414 393.5802 393.6553 393.7871
   396.0270 396.1614 396.5055 397.1508 397.2915 397.4646 397.7806 397.9582
   397.9636 398.0240 398.2222 398.8870 399.0219 401.1464 402.3242 402.4448
   402.8276 403.1709 403.4318 403.7049 403.9144 404.1746 404.4892 404.4977
   404.5868 404.8244 404.8293 404.9225 405.4396 407.0387 407.0878 407.5924
   407.8527 407.9445 410.4806 411.2774 411.6065 411.6553 412.6778 412.6962
   413.9343 414.7144 414.7180 415.4068 415.4738 415.9600 416.0783 416.4058
   416.4304 416.5487 416.6316 417.9688 418.6149 418.7049 419.6093 419.8042
   420.1191 420.1221 421.3739 421.6321 421.8255 421.9170 422.4164 422.8679
   423.1747 423.1893 423.4190 423.4551 423.9836 424.3279 424.5285 424.5617
   424.7688 425.1039 425.5811 425.7957 426.0390 426.4499 426.4503 427.1612
   427.7234 428.0008 428.7158 429.2142 429.3843 429.6290 431.8548 432.4970
   433.7043 433.9308 434.1175 434.3714 434.6083 434.8008 434.8361 434.9787
   435.1759 435.8039 435.9988 436.0584 436.4513 437.0014 437.0613 437.0839
   437.9318 438.2042 438.4661 438.4999 438.6320 438.9541 439.0034 439.9542
   439.9964 440.0070 440.4901 440.6382 440.6562 441.0200 441.0217 441.2159
   442.0281 443.6707 445.3853 445.6047 446.7772 446.9989 447.3153 447.3936
   447.4394 447.4728 447.7761 447.8826 449.1050 449.5876 449.6631 449.6991
   450.1920 451.0947 451.3371 451.4443 451.7567 452.2076 452.2155 452.8872
   453.6074 453.9896 454.3501 454.5015 454.6435 454.6489 454.7481 454.7959
   457.1780 458.4700 459.0452 459.0592 459.1296 459.3707 459.4351 459.7888
   460.2612 462.3377 462.4270 463.5481 463.7011 464.1967 464.3550 464.7614
   464.8934 465.0313 465.1753 465.3601 465.4293 465.5690 465.8953 465.9712
   466.8824 467.0273 467.1491 467.7157 468.1137 468.2931 469.2484 469.4121
   470.6833 471.0789 471.2568 471.3545 471.6674 471.7391 472.4386 472.5471
   472.7854 473.0853 473.3297 474.2344 475.2249 475.4577 475.5635 475.5684
   476.4500 476.5518 477.8384 477.8390 477.9693 477.9933 478.1311 478.8024
   480.2904 480.3343 481.0304 481.0789 481.2695 481.9130 482.3259 482.4922
   483.1602 483.6467 483.7159 483.7241 484.0288 485.4208 485.8030 486.1802
   486.3784 486.9605 487.1552 487.1773 487.2822 487.3031 487.3206 487.4617
   487.8482 488.7150 488.8273 489.0662 489.5783 490.0766 490.1741 490.1786
   490.2182 491.5076 491.8102 492.0364 492.0925 492.1640 493.0127 493.4673
   493.8742 494.1394 494.1601 494.5429 494.5556 495.6208 496.8658 497.0835
   497.9664 498.4935 499.1756 499.4770 499.4991 499.7096 500.2067 500.3590
   500.5348 500.7956 501.0436 501.2161 501.6213 503.8040 504.0233 504.1233
   504.5669 505.2428 505.7152 505.7161 506.1147 506.2435 506.2511 506.5513
   506.5652 506.6008 506.6021 510.0848 510.4144 510.5283 511.3720 512.2425
   512.3139 512.7082 512.7331 512.7811 512.8008 513.2253 513.9571 513.9637
   514.0951 514.4282 514.5441 514.8683 515.6970 516.4681 516.4873 517.2517
   517.4499 518.4231 518.4323 518.4427 519.1367 519.1568 519.5343 519.6997
   519.7694 520.0636 520.8101 520.8397 520.9761 521.0881 521.2734 521.6530
   521.7083 521.7446 522.2776 522.8763 523.1806 523.5679 523.6485 523.6513
   523.8154 524.4957 524.7189 526.0081 526.0139 526.0499 526.0645 526.1923
   526.8938 527.0564 527.4281 527.5146 527.7230 527.7746 528.1329 529.1481
   529.6112 531.3944 531.5949 533.2852 533.6122 534.1841 534.5733 535.3723
   535.4374 535.6609 535.9871 536.1251 536.1364 536.1688 536.3971 536.7035
   537.1033 538.0553 538.2472 538.4179 538.4461 538.5252 538.7701 538.7725
   538.8384 539.2233 539.3425 539.4253 539.4655 539.5760 539.9248 540.0050
   540.2729 540.4130 540.6704 540.8612 540.9262 541.0478 542.0882 543.1219
   543.9120 544.2585 545.0138 545.0158 545.2205 546.2071 546.7602 546.9585
   547.4976 547.6088 547.6438 548.0760 548.6350 549.5837 551.0455 551.1298
   551.5404 551.8624 552.0424 552.2452 552.6406 552.9690 553.2217 553.3169
   554.5213 555.7629 555.8922 555.9038 555.9173 556.4373 556.6163 556.6843
   556.8473 557.6072 557.9111 557.9195 558.5199 558.6654 558.7921 560.2773
   560.3099 560.4645 560.4708 560.5476 560.6472 560.6522 560.7431 561.0722
   561.4463 562.4063 562.7499 563.3875 563.3992 563.4592 563.4755 563.8797
   564.2796 564.6170 565.0675 565.7111 566.1268 566.6558 566.7805 567.1869
   567.2607 568.2005 568.2040 568.5278 568.9352 568.9841 569.4800 569.6362
   570.1446 570.2186 570.3759 571.0004 571.1267 571.9582 571.9587 572.5906
   572.6626 573.8852 574.1574 574.1781 574.4310 575.9450 576.4645 576.5466
   576.6371 576.7494 576.9546 576.9803 577.3446 578.1357 578.5953 579.1322
   579.3278 579.5384 579.5889 579.6238 579.6393 580.8018 581.1102 582.1281
   582.3156 582.3608 582.3745 582.4929 582.5173 583.6063 583.7335 584.6943
   584.9667 585.4232 586.9316 587.7280 588.2288 588.5541 588.7032 588.8779
   589.3371 589.9531 590.4692 590.4959 590.4989 590.5729 590.7767 590.8860
   590.9617 592.0816 593.0936 593.2822 593.3836 593.7853 594.0147 594.5193
   594.5298 594.5965 594.6913 594.8649 595.1381 595.9268 595.9352 597.2412
   597.3224 597.5349 599.0615 599.3369 599.5757 599.5791 600.1235 600.3455
   600.5089 600.7630 600.7683 601.5248 601.6085 603.2920 603.4347 603.4438
   603.5423 603.5878 603.6819 604.1040 604.4007 604.4544 604.6452 604.7480
   604.8758 606.0359 606.1482 606.1750 606.5163 606.5434 606.6577 606.7922
   607.1450 607.1887 607.1939 607.4162 607.4193 607.4665 607.8568 608.2645

          k = 0.0000-1.0000 0.0000 (  2402 PWs)   bands (ev):

   -24.4893  -7.2603  -7.2171  -6.6520  -6.6520   7.2872   7.6383   7.6383
    11.0537  15.4662  17.8668  17.9366  18.7588  18.7588  21.2750  23.9870
    23.9870  28.8513  29.3127  32.0779  32.0779  34.8460  36.4187  36.5944
    37.1328  37.1328  38.5246  39.7210  39.7210  42.4467  46.3595  47.7657
    47.7657  49.1561  49.2771  49.3635  53.8512  54.2031  54.2031  56.8108
    57.4794  59.2181  59.2181  62.9732  62.9732  63.1121  64.6944  65.1485
    65.1485  65.4812  66.9499  70.2519  70.2519  72.3907  74.0555  74.7966
    74.9087  75.0481  76.2739  76.2739  77.4523  77.7221  77.7221  78.8048
    78.8048  79.7589  79.8570  79.8648  80.1799  87.8760  88.2574  89.3458
    89.3458  89.9730  89.9730  90.3385  90.5436  91.1285  92.8416  92.8416
    93.6529  93.8517  93.8517  94.4886  95.3016  96.7078  96.7078  97.8919
    97.8919  98.9194 103.0079 103.4393 103.4393 103.6908 105.0142 110.2159
   110.5351 110.9768 110.9768 111.0191 111.3377 111.9099 111.9099 112.6826
   113.8519 115.4874 115.4874 117.9095 117.9982 118.1517 118.1517 118.6252
   120.2134 120.2134 121.2207 121.8276 124.2828 124.9450 125.7740 125.7740
   126.4246 126.4246 128.6183 128.6183 128.7104 129.1488 129.7360 129.7925
   130.0560 134.0302 136.5718 136.6525 136.6525 137.0103 137.0103 140.6430
   140.6511 141.3261 141.3799 142.0272 144.0610 144.3095 144.3095 144.7104
   144.9894 144.9894 145.1302 145.1302 146.9639 147.0066 148.5262 150.0175
   150.0175 152.1952 152.2290 152.2290 153.8290 154.5200 155.0440 155.0440
   155.1119 156.0373 156.0373 156.7771 157.5365 157.7197 158.1790 158.1790
   158.5890 158.5890 158.7359 159.6394 159.7074 160.0946 160.0946 160.9252
   161.0134 161.4505 161.4505 163.1265 163.1289 163.1857 164.7952 167.4293
   167.4293 168.3128 168.8086 168.8316 168.8316 169.2188 169.2188 169.2245
   169.3116 169.5145 175.4264 175.4264 176.2238 178.8292 178.8292 179.1688
   179.6795 179.7472 179.9488 180.1258 180.1258 181.8571 182.7855 183.7454
   183.7454 183.8044 184.1638 184.2408 185.4465 185.4465 186.4848 186.5198
   186.5198 186.8516 186.8516 186.8695 187.2780 187.7050 187.8817 187.8817
   187.9747 189.7722 190.5860 194.7570 200.8831 200.8831 203.4003 204.1551
   204.1551 204.2759 205.4363 205.8969 206.0374 206.2566 206.2566 207.1262
   207.6138 208.1949 208.1949 208.8054 208.8054 210.0881 210.2367 210.2367
   210.2854 210.2854 210.3434 210.3930 211.5384 212.2157 212.2157 212.4611
   212.4611 214.3569 214.8577 215.0806 215.9686 215.9936 217.1701 217.1701
   217.1818 217.7792 220.5196 220.5196 220.5521 221.1322 221.4396 222.9845
   222.9845 224.2564 224.6035 224.6035 224.7311 226.6188 226.8445 227.2030
   227.2030 227.3382 227.4906 227.4906 228.1200 229.9249 229.9563 229.9563
   230.1024 230.4207 230.5167 230.5167 230.5950 231.9284 233.2443 234.1563
   234.1563 234.3728 234.4163 234.4163 234.7315 234.7861 236.8680 239.1031
   240.9476 240.9476 241.6644 241.6644 242.5151 242.7575 243.3031 244.6562
   244.6562 244.8034 244.8034 245.0105 245.9307 247.7385 248.2989 248.2989
   248.3778 248.5202 248.5202 248.9135 249.0827 249.3097 250.1264 250.1346
   250.7955 250.7955 250.8275 251.0630 251.0630 251.3288 253.3693 253.8116
   254.4569 254.4569 256.4999 256.5485 257.3281 258.5688 259.3264 259.3264
   259.3723 259.3723 260.7773 260.8102 262.8848 263.2771 263.2771 265.9682
   265.9682 268.4413 268.4700 268.5807 268.8575 269.1777 269.1777 269.4448
   269.6286 269.7182 269.7182 269.7449 269.7449 269.8940 270.3919 270.9316
   271.1894 271.5865 271.5865 272.4068 272.5242 272.5242 273.2858 278.7742
   278.9716 278.9827 279.0390 279.0390 279.1287 279.2629 279.2629 279.4532
   279.5500 279.5500 279.5918 279.8285 282.2497 282.9108 283.0380 283.0380
   285.4523 286.0754 286.0754 287.5266 289.8062 290.0566 290.0566 290.3503
   290.3503 290.4182 291.2587 291.2587 291.5650 292.2392 292.5307 292.7451
   292.7546 292.8002 292.8002 292.9013 292.9013 293.7912 296.1988 296.2174
   296.2174 296.7090 296.8490 296.8562 297.9725 297.9725 298.1283 298.1335
   298.3773 298.6811 298.6811 298.8044 298.8131 298.8131 298.8274 301.4819
   301.4838 301.5249 301.5984 301.5984 302.9108 302.9135 302.9994 302.9994
   303.4683 303.4929 303.4980 303.4980 306.8737 306.8737 308.6044 310.7135
   310.7135 310.9691 312.8637 313.4644 313.6218 316.4737 316.5510 316.7242
   317.0559 317.0559 317.1155 317.1155 317.1469 317.1797 318.0284 318.0284
   318.2786 319.0305 319.0305 319.7590 319.7590 319.9033 321.2912 327.2524
   327.6282 327.8182 327.8182 328.2532 328.7980 329.3941 329.9929 329.9929
   333.9854 334.1146 334.1146 334.7025 335.0780 335.2249 336.1022 336.1022
   337.9464 337.9464 338.0724 338.1397 338.1899 338.4114 338.4114 338.6887
   338.8519 338.8519 339.4382 339.5972 342.1538 342.2541 342.6810 342.6810
   343.4951 343.6456 343.6456 343.7570 343.7836 344.7003 344.9360 344.9360
   345.2486 345.3833 345.3833 345.5122 345.6165 345.8216 346.4823 346.4823
   346.6766 346.6766 346.6843 346.7319 346.9494 347.0049 347.0049 347.0625
   347.0805 348.4995 353.8599 353.8599 354.1758 355.7077 355.7077 357.1070
   357.1822 357.1822 357.6651 357.7531 358.2294 359.1705 359.2844 359.2844
   359.4487 359.5367 359.9616 360.1699 360.1699 360.1770 360.1770 360.3128
   360.3297 360.5379 362.2331 362.3163 362.3163 362.5500 362.6951 362.6951
   363.2703 363.3345 363.9929 364.0062 364.0062 364.0658 364.3238 364.3238
   364.4812 364.4812 364.5808 364.6552 365.3243 366.7909 366.7909 366.8705
   366.8705 369.6920 371.3751 371.4570 371.4570 371.4629 371.5163 371.5187
   371.5187 371.5485 371.6770 373.5455 373.5769 375.7445 376.0838 376.0838
   376.4004 376.8578 376.9489 376.9489 377.8511 377.8511 378.8651 379.4671
   379.9185 379.9185 379.9438 381.1463 382.8998 384.1212 384.6734 384.6734
   384.7834 384.8268 385.1455 385.1455 385.2183 385.4188 385.4546 385.4546
   385.9089 385.9089 386.8624 386.8786 386.8786 387.1608 387.2880 387.5697
   387.8082 387.8082 387.8483 387.8736 389.5268 390.6564 391.2917 391.5982
   391.7505 391.7505 391.8263 391.8263 392.0475 392.0992 393.5747 393.5747
   398.9199 398.9199 399.1074 399.2911 399.5203 401.0792 401.0792 403.6096
   403.7784 403.9664 404.1539 404.1539 404.4754 404.4754 404.5282 404.9104
   404.9104 406.6314 407.5074 407.5074 408.7046 408.7264 408.9185 408.9484
   409.6421 409.6442 409.6442 409.6455 409.6455 409.8060 409.9623 410.3367
   410.4165 410.4387 410.4387 410.4437 410.8682 410.9027 410.9027 411.9753
   412.0296 412.0296 412.0802 412.8979 413.7192 413.7266 416.5919 416.5919
   416.6161 416.6161 418.1310 418.1443 419.8377 419.9464 419.9464 420.3114
   420.3194 420.3194 422.9657 425.1407 426.0172 427.2660 427.2660 427.3495
   427.7180 428.0489 428.0489 428.1768 428.2801 428.3055 428.3055 428.3298
   428.8474 429.0482 429.0482 429.2409 429.9693 430.5204 430.5204 430.9743
   430.9874 431.0042 431.1297 431.1474 431.1474 431.1556 431.1608 431.1648
   431.1648 431.6486 431.6486 432.7493 433.0663 435.8135 435.8297 435.8297
   435.8624 435.9336 435.9336 436.0265 436.4974 437.0141 437.5903 438.4755
   438.4755 442.1348 442.2012 443.9543 443.9543 444.9951 445.2774 445.2774
   445.8328 446.0010 446.0010 448.0668 448.6752 449.0057 449.0416 449.1488
   449.1488 449.3203 450.5064 450.7469 450.7469 450.9523 451.3556 451.3556
   451.3630 451.8830 453.7775 455.0731 455.0731 455.7093 455.7389 455.7389
   455.7700 455.8559 455.8559 455.8570 455.8760 456.0019 456.0019 456.9328
   456.9982 458.0510 458.0510 458.4477 459.2641 459.5696 459.5696 459.5729
   460.4065 462.9405 463.7050 463.8279 463.8549 463.8549 464.6293 467.6496
   467.6496 468.0110 469.5828 469.5828 470.3170 471.1289 471.1289 471.3261
   471.4705 471.4705 471.8379 473.9134 474.2746 474.7300 474.7300 474.8583
   475.1723 475.4894 475.6702 475.6702 476.7119 477.0440 477.0440 477.1695
   477.2142 477.4039 477.4039 477.5739 478.1060 479.8661 481.5937 481.8751
   481.9388 482.0390 482.0390 482.0524 482.0524 482.2207 482.7329 482.8699
   482.8699 482.9401 483.5361 483.5404 483.5502 483.5502 488.2205 488.2205
   488.2347 488.5462 488.9102 488.9102 489.4077 490.7195 491.1345 492.3862
   492.3862 493.4227 493.7424 493.7587 493.7587 493.9376 493.9376 493.9485
   493.9548 494.0230 494.0852 494.0858 494.0858 494.1286 494.4699 494.4699
   494.5123 494.6052 494.6168 494.6168 494.6680 494.8949 494.9826 495.1485
   495.1485 495.1521 495.1521 495.1624 495.3493 495.3572 495.7801 496.4349
   496.4668 496.4963 496.4963 496.5002 496.6298 496.6298 496.7120 496.7120
   497.2689 497.9890 498.2127 498.3225 498.3225 498.3846 498.3846 498.5267
   498.5713 498.6025 499.1716 499.1716 499.2291 499.2919 499.2919 499.3950
   499.4325 500.1315 500.2528 500.2528 500.2674 504.1720 504.1846 504.1846
   504.2023 504.2173 504.2173 504.2514 504.2684 505.6563 506.2656 506.2797
   506.5127 506.5127 506.5313 506.5313 506.7136 506.7166 516.6314 516.6314
   516.7343 516.8486 517.4302 517.4302 517.4437 517.4743 517.4845 517.6149
   517.6149 518.1774 518.1774 518.2381 518.2727 518.2772 520.2358 520.2358
   520.8033 522.4294 522.4294 522.7029 523.1133 523.1975 523.5726 523.8095
   523.8095 523.9346 524.1102 524.1412 524.1412 524.3278 524.3417 524.6385
   524.6385 524.8152 524.8152 524.8473 524.8937 524.8969 524.9494 525.0803
   525.0803 525.1657 525.2121 525.2121 525.2852 526.8921 533.2720 533.8175
   534.3511 535.8733 535.8733 536.3512 536.3512 538.4651 538.4651 538.4733
   538.7462 538.7659 538.8012 538.8980 538.9283 538.9283 538.9400 539.1427
   539.1427 539.6823 539.9353 540.1743 540.1743 540.1907 540.1907 540.5650
   540.6515 540.8243 542.1341 542.2783 542.2783 542.8562 542.8931 542.8931
   543.0068 543.8631 544.5541 546.3762 546.3762 548.2366 548.4039 548.4155
   548.4155 548.4164 548.4164 548.4195 548.4808 548.4995 548.9701 551.1861
   551.2099 551.2099 551.2386 551.2719 551.2871 551.2871 551.2888 551.3012
   552.6465 553.0919 553.0919 554.9952 557.9767 558.1128 558.1128 558.4417
   558.4417 558.7644 558.9194 559.8887 560.0823 560.0941 560.0941 562.3960
   562.3960 562.4784 562.4829 562.5838 562.6359 562.7574 562.7574 562.7625
   562.7625 562.7664 562.9900 563.3244 565.1948 565.2392 565.2945 565.2945
   565.3408 565.3408 565.4488 565.4805 566.4630 566.4892 566.4892 566.5208
   566.6460 566.6675 566.8265 566.8265 566.8438 566.8438 567.0011 567.0091
   568.1556 568.1751 568.1751 568.9965 569.0247 569.0247 569.0576 569.4029
   569.4029 569.4770 569.4770 570.4744 571.5887 571.6308 571.6308 571.6378
   576.3778 576.3827 578.7133 579.0939 579.0939 579.2100 580.1230 580.1878
   580.1878 582.2015 582.8178 582.8178 583.1350 583.6948 583.8115 584.0511
   584.0751 584.1130 584.1130 584.1459 584.1459 584.1753 584.1885 584.3076
   584.3076 584.3123 586.4500 586.4500 587.2786 588.0002 588.5735 588.5735
   588.6319 589.4413 589.5775 589.8886 589.8886 589.8979 590.4961 590.5290
   590.5290 590.5403 590.5411 591.2011 591.2011 591.6150 591.7003 591.8579
   591.8579 591.9426 591.9426 592.0611 592.2968 592.3555 592.5160 592.5160
   592.5766 593.4228 600.3497 603.5968 603.5968 603.9979 604.0594 604.7699
   604.7699 605.0978 605.1044 605.1840 605.3897 605.5659 605.5659 606.0774
   606.1582 606.1582 606.2798 606.2798 606.3087 606.8100 606.8100 606.8418
   608.2646 608.5205 608.5205 608.5383 608.5682 608.5682 608.8325 608.9974
   609.0154 609.0154 609.0330 609.3710 609.5306 609.5306 609.5564 611.1007

          k =-0.5000-1.0000 0.0000 (  2400 PWs)   bands (ev):

   -24.4877  -7.9584  -6.9429  -6.9429  -5.7229   6.6432   7.2923   7.2923
    13.7400  13.7400  16.2872  18.7744  18.9875  20.3404  22.1530  22.1530
    25.1395  28.3125  28.3125  30.9867  33.8606  34.7911  34.7911  35.2980
    38.7884  39.1820  39.9399  39.9399  40.1895  42.1701  42.1701  43.7971
    48.2600  48.2600  50.5056  52.3514  55.8365  56.0015  56.3443  56.3443
    59.2012  60.0032  60.0032  60.8733  61.1096  62.6528  63.2043  63.2043
    64.5196  66.9356  66.9356  70.1556  70.4650  71.0483  72.1973  72.1973
    74.6224  74.6224  76.1808  76.8459  77.2941  77.2941  79.0851  79.9540
    81.0216  81.0216  81.8883  82.3463  82.7637  82.7637  83.5409  86.5131
    87.1241  87.6713  87.6713  90.9426  93.6681  94.6720  94.7029  94.7029
    95.4233  95.5900  95.5900  96.2132  96.8077  99.6133  99.6133  99.9421
   100.5192 100.5192 102.3856 102.5938 102.8696 103.3713 103.3713 105.7389
   105.8808 106.1819 108.0047 108.0047 108.7069 109.0325 109.0755 109.0755
   110.2236 113.2599 115.5160 115.5160 118.1462 118.1462 118.9871 121.7080
   123.4547 123.7823 123.7823 126.8110 126.8110 127.7293 128.7599 129.8386
   129.8791 129.8791 130.2812 130.4051 131.2404 131.2404 131.3637 133.5993
   134.1569 134.1810 134.1810 135.8996 136.0851 136.0851 137.9512 138.0411
   138.0538 138.0538 138.5344 140.4394 141.3629 141.3629 142.3019 142.5217
   145.0130 145.0130 145.7811 147.1383 147.3203 147.7649 147.9185 147.9185
   148.4038 148.4673 148.4673 149.3836 149.7534 150.5547 150.5547 150.5738
   151.5515 153.4202 153.4202 154.3867 157.4948 157.6971 157.6971 158.4509
   159.4689 159.4879 160.1296 160.2051 160.2051 162.2328 163.0500 163.0500
   163.1552 163.3281 165.3977 165.3977 167.6872 167.7975 168.0358 168.0358
   168.2645 169.0150 169.3565 169.8501 169.8501 170.4240 171.1441 171.1441
   172.8835 173.0483 173.3156 173.4084 173.4084 173.8585 173.8585 175.0031
   180.2450 180.3404 180.3404 180.9049 181.2623 181.2644 181.2644 181.5535
   182.3531 182.3531 185.1901 185.9781 187.4916 187.4916 188.6382 189.5062
   189.5062 191.0249 191.3269 191.8865 192.0939 192.4725 192.4725 192.8494
   192.8494 192.9592 193.8888 195.0097 196.9267 196.9267 197.4525 197.5902
   197.9000 200.5613 200.5613 200.9875 202.2185 202.2185 203.0791 204.8694
   204.9223 205.2924 205.2924 206.2313 206.9788 206.9788 207.2124 207.4378
   208.2140 208.2140 208.2218 208.4466 211.2926 211.6897 211.8236 212.0216
   212.0776 212.0776 213.9035 213.9035 214.0487 214.9935 215.1649 215.1649
   218.6728 220.2461 220.2461 220.5078 220.8500 221.6321 221.6321 222.2056
   222.8532 222.8532 224.6977 224.7346 225.5499 225.8946 225.8946 226.6148
   227.4123 228.4649 230.4495 230.8322 230.8322 232.2420 232.2420 233.1098
   235.9749 236.0421 236.7303 236.7303 237.0263 237.0911 237.5121 237.5709
   237.5709 237.9141 238.2367 238.2367 238.5009 239.4567 240.0049 240.3816
   240.3816 240.6965 241.1649 241.1649 241.4534 241.9684 241.9856 241.9856
   243.8799 243.8799 244.6643 245.9901 246.1574 246.5196 246.6370 246.6370
   247.8621 247.8621 248.1699 248.6982 249.2638 249.2638 249.4360 249.7215
   251.4771 252.4317 252.4317 253.2265 253.9291 254.7667 254.7667 256.4935
   256.4972 256.5762 256.5762 258.2155 258.2155 258.3633 258.5496 258.7734
   259.2021 259.2021 260.6342 260.9193 262.3639 262.8816 262.8816 263.2834
   263.3157 263.3912 263.3912 263.5130 263.5318 263.5318 263.6716 264.6307
   264.6307 265.5818 265.5941 266.3199 266.8523 266.8523 267.4551 268.4837
   271.3618 271.3618 271.4827 271.6411 272.0810 272.1494 272.1494 273.9202
   276.9070 276.9070 277.0552 277.9044 277.9044 277.9347 278.0697 278.6068
   278.6380 280.0413 281.3048 281.3048 281.8083 281.9336 281.9336 282.1533
   282.3496 282.3496 282.6103 284.0149 284.6336 285.8395 285.8395 287.6610
   289.7714 290.0187 290.0187 290.7029 291.5900 291.5900 291.6040 292.2746
   292.3579 292.3579 293.5958 294.2874 294.3274 295.4344 295.4344 296.0928
   298.6719 301.5626 301.7789 301.9050 301.9050 302.3297 302.8547 302.8664
   302.8664 303.6774 303.6774 303.7872 304.1293 304.9051 305.1281 305.1281
   305.8420 306.6384 306.8357 307.2331 307.2331 307.3097 307.4161 307.4161
   307.6489 307.7760 307.7760 307.8999 308.0539 309.3625 310.1395 310.2171
   310.2171 311.3267 313.5179 314.8577 314.8577 315.7130 315.7647 316.3214
   316.3214 316.4263 318.4303 318.9991 318.9991 319.5745 319.8342 320.0238
   320.0238 321.2039 321.6829 321.6829 322.9589 324.3159 324.3185 324.3185
   326.4803 326.4803 326.5463 327.6271 327.8846 327.9333 327.9333 327.9894
   328.0715 328.0715 328.3300 328.5755 328.9036 328.9550 329.1134 329.1134
   332.2430 332.2430 333.0882 333.0882 333.4414 333.9520 334.0027 334.3193
   334.3193 334.7758 335.5406 336.2267 336.2267 336.7064 336.8794 337.6322
   338.2697 338.2697 338.3080 338.9930 339.3734 339.3734 340.2854 341.8296
   343.2248 343.2248 343.2483 344.2042 344.2202 344.2202 344.2537 344.5766
   347.8098 347.8098 349.1062 349.7890 349.9427 351.7988 351.7988 351.9212
   352.8766 352.8766 355.4994 355.4994 355.7752 355.9644 356.3342 356.5254
   357.7228 358.3700 358.3700 358.7411 359.0232 359.0232 359.2247 359.6054
   359.6968 360.2223 360.2223 360.9776 361.1088 361.3948 361.3948 361.7456
   362.2507 363.5326 363.5326 363.5452 363.7106 363.7106 364.0937 364.9165
   365.0275 365.0275 365.0748 365.2331 365.9859 368.3241 368.3241 369.9245
   370.2722 370.3395 370.3395 370.4405 371.3537 371.4158 371.4158 371.4947
   371.6414 371.9138 371.9138 372.2893 372.3007 372.3007 372.6294 372.9757
   373.2498 373.2498 373.3346 374.8041 376.0104 376.0104 376.2452 376.3236
   376.4633 376.4704 376.4704 376.4955 376.6066 376.6066 376.8150 377.7877
   378.1288 378.2672 378.2672 378.3130 379.3011 380.9617 380.9617 381.5673
   383.1326 383.1326 383.6472 384.1124 384.6465 384.7618 384.7618 384.8737
   385.7145 387.8119 387.8119 388.8457 388.8500 388.9039 389.8486 389.8486
   393.2646 393.3966 393.3966 393.6942 393.7342 393.7342 393.7579 393.7712
   393.9179 394.0445 394.2148 394.2148 394.2672 395.5774 395.6283 395.6283
   395.6388 395.7550 395.7550 395.9076 396.0511 397.7035 398.6128 399.1672
   399.1672 399.2351 400.2981 400.8163 400.8163 402.1637 402.6798 402.6798
   403.8217 404.0167 404.5645 404.9923 405.0885 405.0885 406.3266 406.3266
   406.6834 406.7517 406.9933 406.9933 407.1825 407.2352 407.3134 407.3348
   407.3348 407.4918 407.7358 407.7358 408.0714 409.6218 410.2271 410.2271
   411.9831 411.9831 412.0640 412.0731 415.6371 415.6371 416.3314 416.5922
   418.7245 418.8863 418.8863 419.0331 419.2436 419.5013 419.5013 419.5437
   419.8836 419.8836 419.8887 419.9138 420.1663 420.1663 421.2185 423.0590
   424.0059 424.0059 425.1447 425.1606 425.1987 425.1987 425.8937 427.4364
   427.6440 427.7711 427.7711 428.2989 428.4992 428.4992 428.5145 429.5170
   432.6497 432.6497 433.7685 433.7685 434.2082 434.2408 434.4653 434.6251
   434.6490 434.6651 434.6651 437.5132 437.7969 439.0553 440.2175 440.2175
   440.7392 441.0699 441.0998 441.0998 441.2392 441.6941 441.6941 443.7153
   443.7960 443.8415 443.8415 444.2291 445.5244 446.5704 446.5704 447.0049
   447.5356 448.0803 448.0803 449.6175 449.8331 449.8331 449.8920 450.2537
   450.3152 450.3152 450.4035 450.6591 450.6591 450.8447 450.9460 451.7834
   451.9543 451.9543 451.9750 454.8145 456.3012 460.4733 460.6711 460.6711
   461.0970 461.4715 461.4715 461.6890 462.2980 462.3209 462.3755 462.3755
   462.4622 463.0128 463.0128 463.1338 463.2328 463.2480 463.2983 463.2983
   463.6181 463.8489 463.8489 464.0768 466.9385 466.9385 467.9676 468.1156
   469.3796 469.3796 469.7796 470.3529 470.4121 470.4121 470.4641 470.9112
   471.4161 471.4161 471.7302 471.8413 472.0677 472.0677 472.3739 473.2155
   473.6288 473.9646 473.9646 474.3641 474.3982 474.4125 474.4125 474.6129
   474.6350 474.6350 474.7049 474.8442 474.9651 474.9825 475.0919 475.0919
   475.2395 475.3604 475.3604 476.4804 476.5361 476.6271 476.6271 476.8802
   477.2321 477.2321 477.4039 479.3703 479.4461 479.4903 479.4903 479.5344
   483.3212 483.4291 483.4291 483.9070 483.9070 484.0797 484.1490 484.4313
   484.6830 485.0745 485.0745 486.2607 486.3808 486.3808 486.4555 486.4770
   486.5030 486.9694 487.3519 487.3519 487.4715 487.4715 487.5046 487.5509
   487.8791 488.1332 488.2170 488.2170 488.8117 490.9398 490.9532 490.9532
   491.2041 491.6055 491.6055 491.9660 493.3556 495.3864 496.2729 496.4371
   496.4371 496.9603 497.5159 497.5159 499.6000 500.3763 501.9401 501.9401
   502.0571 502.0573 503.4762 503.4762 504.3326 504.3649 505.4992 505.4992
   505.9708 506.0160 506.1684 506.1684 506.4607 506.5167 506.5673 506.8203
   506.8203 508.6644 508.8050 508.8840 508.8840 508.9265 509.0116 509.0116
   509.2004 509.3427 511.2354 511.2375 511.2806 511.2806 511.3121 511.3121
   511.5867 511.5867 511.6127 512.0931 512.4403 512.7098 512.7098 514.5183
   516.2079 516.3101 516.3101 516.7334 517.2334 517.2334 517.4211 517.8883
   518.1888 518.1888 518.2323 519.5692 521.9315 521.9645 521.9645 522.0833
   524.0574 524.0574 524.1121 524.4830 524.4830 524.5793 524.8205 527.3148
   527.8587 527.8587 528.3868 528.6789 529.2544 529.2544 529.5781 529.7478
   529.7478 530.0826 530.1763 530.4387 530.5648 530.5648 530.6062 530.6360
   530.7420 530.7519 530.8703 530.8703 530.8975 530.9121 530.9121 533.0239
   534.7814 534.7814 535.5117 535.5291 536.0603 536.0603 536.4930 536.5948
   536.6173 536.7926 536.7926 537.8543 537.9866 537.9866 538.0616 538.4087
   538.6169 538.6169 538.6769 539.0502 539.0502 539.0924 539.2161 539.2590
   539.6650 540.2027 540.2027 540.3327 542.1082 542.2432 542.2839 542.2839
   542.4867 542.4867 542.6356 542.9090 542.9350 542.9513 542.9513 542.9939
   543.1427 543.1937 543.1937 543.2589 543.8535 543.9071 543.9071 544.3999
   544.4073 544.6626 544.6626 544.8028 547.5607 547.5607 547.6131 549.7989
   550.4287 551.4188 551.4188 552.9902 555.3550 555.3550 555.3577 555.3678
   555.4267 555.4267 555.4350 555.6343 560.4725 560.5788 560.5788 560.9539
   560.9651 560.9651 561.6803 561.7923 561.9293 561.9293 562.4485 562.6105
   562.7322 562.8543 563.0994 563.0994 563.1936 563.4041 563.4041 563.7975
   565.7433 566.5364 566.5364 567.0391 567.0541 567.0541 567.0860 567.5876
   567.6218 567.6218 567.6701 567.8999 571.0575 571.0575 571.3798 572.1170
   572.1170 572.2837 572.3275 572.5920 573.2681 573.3325 573.3325 575.1931
   575.4722 575.4734 575.4734 575.6182 575.7254 575.7496 575.7496 575.7609
   575.7609 575.8062 575.9089 575.9961 576.0728 576.0874 576.0938 576.0938
   576.1317 576.1317 576.2296 576.3523 576.3906 576.5542 576.5542 577.9771
   578.7007 578.7007 578.9999 579.4730 580.9095 580.9110 580.9110 580.9285
   585.7417 585.7417 586.4001 586.5126 586.7595 586.8438 586.8438 587.1965
   588.4925 588.4925 588.5062 588.5098 588.5179 588.5820 588.5820 588.6061
   589.1125 589.3036 589.3036 591.5689 591.7419 592.3580 592.3580 592.9372
   593.3449 593.5389 593.5389 594.3065 598.2573 598.6434 598.6434 598.8722
   598.9162 598.9314 598.9314 599.2086 600.3941 600.5869 600.7187 600.7187
   600.7971 601.6569 601.7105 601.7105 601.8103 603.1171 603.1171 603.3581
   603.3718 603.5900 603.5900 604.0285 605.1775 605.1775 605.3432 605.5980
   605.7773 606.1080 606.1080 606.2483 606.5763 606.6241 606.6241 606.6351
   606.9322 607.7314 607.7641 607.7731 607.7731 608.0739 608.8853 608.8853

     the Fermi energy is    10.0564 ev
     (compare with:    10.0583 eV, computed in scf)

     Writing all to output data dir out/mp-2472.save/
 
     init_run     :      0.04s CPU      0.05s WALL (       1 calls)
     electrons    :    543.22s CPU    583.42s WALL (       1 calls)

     Called by init_run:
     wfcinit      :      0.00s CPU      0.00s WALL (       1 calls)
     potinit      :      0.01s CPU      0.01s WALL (       1 calls)
     hinit0       :      0.01s CPU      0.02s WALL (       1 calls)

     Called by electrons:
     c_bands      :    543.22s CPU    583.42s WALL (       1 calls)
     v_of_rho     :      0.01s CPU      0.01s WALL (       1 calls)

     Called by c_bands:
     init_us_2    :      0.00s CPU      0.00s WALL (       8 calls)
     init_us_2:cp :      0.00s CPU      0.00s WALL (       8 calls)
     paro_k       :    524.94s CPU    564.01s WALL (       8 calls)

     Called by paro_*:
     h_psi        :      9.97s CPU     10.47s WALL (     815 calls)
     g_psi        :      0.21s CPU      0.24s WALL (   78312 calls)

     Called by h_psi:
     h_psi:calbec :      0.20s CPU      0.21s WALL (     815 calls)
     vloc_psi     :      9.56s CPU     10.05s WALL (     815 calls)
     add_vuspsi   :      0.14s CPU      0.15s WALL (     815 calls)

     General routines
     calbec       :      0.20s CPU      0.21s WALL (     815 calls)
     fft          :      0.00s CPU      0.01s WALL (      10 calls)
     fftw         :      8.52s CPU      8.96s WALL (  129690 calls)
 
     Parallel routines
 
     PWSCF        :   9m 3.96s CPU   9m44.56s WALL

 
   This run was terminated on:  20: 2:34  17Nov2023            

=------------------------------------------------------------------------------=
   JOB DONE.
=------------------------------------------------------------------------------=
