
     Program PWSCF v.7.1 starts on  8Apr2024 at  9:50:15 

     This program is part of the open-source Quantum ESPRESSO suite
     for quantum simulation of materials; please cite
         "P. Giannozzi et al., J. Phys.:Condens. Matter 21 395502 (2009);
         "P. Giannozzi et al., J. Phys.:Condens. Matter 29 465901 (2017);
         "P. Giannozzi et al., J. Chem. Phys. 152 154105 (2020);
          URL http://www.quantum-espresso.org", 
     in publications or presentations arising from this work. More details at
     http://www.quantum-espresso.org/quote

     Parallel version (MPI), running on     8 processors

     MPI processes distributed on     1 nodes
     235979 MiB available memory on the printing compute node when the environment starts
 
     Reading input from pw_CdI2_nscf_k15_E56.in
Warning: card &IONS ignored
Warning: card / ignored
Warning: card &CELL ignored
Warning: card / ignored

     Current dimensions of program PWSCF are:
     Max number of different atomic species (ntypx) = 10
     Max number of k-points (npk) =  40000
     Max angular momentum in pseudopotentials (lmaxx) =  4

     Atomic positions and unit cell read from directory:
     out/CdI2.save/
     Atomic positions from file used, from input discarded
 
 
     R & G space division:  proc/nbgrp/npool/nimage =       8
     Subspace diagonalization in iterative solution of the eigenvalue problem:
     one sub-group per band group will be used
     scalapack distributed-memory algorithm (size of sub-group:  2*  2 procs)

 
     Parallelization info
     --------------------
     sticks:   dense  smooth     PW     G-vecs:    dense   smooth      PW
     Min         126     126     35                17763    17763    2639
     Max         128     128     36                17775    17775    2654
     Sum        1015    1015    283               142153   142153   21167
 
     Using Slab Decomposition
 


     bravais-lattice index     =            4
     lattice parameter (alat)  =       8.0815  a.u.
     unit-cell volume          =    2509.9427 (a.u.)^3
     number of atoms/cell      =            3
     number of atomic types    =            2
     number of electrons       =        54.00
     number of Kohn-Sham states=         1200
     kinetic-energy cutoff     =      56.0000  Ry
     charge density cutoff     =     224.0000  Ry
     Exchange-correlation= PBE
                           (   1   4   3   4   0   0   0)

     celldm(1)=   8.081496  celldm(2)=   0.000000  celldm(3)=   5.491082
     celldm(4)=   0.000000  celldm(5)=   0.000000  celldm(6)=   0.000000

     crystal axes: (cart. coord. in units of alat)
               a(1) = (   1.000000   0.000000   0.000000 )  
               a(2) = (  -0.500000   0.866025   0.000000 )  
               a(3) = (   0.000000   0.000000   5.491082 )  

     reciprocal axes: (cart. coord. in units 2 pi/alat)
               b(1) = (  1.000000  0.577350  0.000000 )  
               b(2) = (  0.000000  1.154701  0.000000 )  
               b(3) = (  0.000000  0.000000  0.182113 )  


     PseudoPot. # 1 for Cd read from file:
     /usr/scratch4/magr4985/FGWC/FGWC/pseudo/SG15/Cd.upf
     MD5 check sum: 810a600e5a5ac944c8c8f48f0d721646
     Pseudo is Norm-conserving, Zval = 20.0
     Generated using ONCVPSP code by D. R. Hamann
     Using radial grid of  602 points,  6 beta functions with: 
                l(1) =   0
                l(2) =   0
                l(3) =   1
                l(4) =   1
                l(5) =   2
                l(6) =   2

     PseudoPot. # 2 for I  read from file:
     /usr/scratch4/magr4985/FGWC/FGWC/pseudo/SG15/I.upf
     MD5 check sum: 8277ef51204d8074ead4596f3b37a2aa
     Pseudo is Norm-conserving, Zval = 17.0
     Generated using ONCVPSP code by D. R. Hamann
     Using radial grid of  602 points,  6 beta functions with: 
                l(1) =   0
                l(2) =   0
                l(3) =   1
                l(4) =   1
                l(5) =   2
                l(6) =   2

     atomic species   valence    mass     pseudopotential
        Cd            20.00   112.41100     Cd( 1.00)
        I             17.00   126.90450     I ( 1.00)

     12 Sym. Ops., with inversion, found



   Cartesian axes

     site n.     atom                  positions (alat units)
         1           Cd  tau(   1) = (   0.0000000   0.0000000   2.7455410  )
         2           I   tau(   2) = (   0.5000000   0.2886752   3.1557127  )
         3           I   tau(   3) = (   0.0000000   0.5773502   2.3353693  )

     number of k points=     4  Gaussian smearing, width (Ry)=  0.0005
                       cart. coord. in units 2pi/alat
        k(    1) = (   0.0000000   0.0000000   0.0000000), wk =   0.1250000
        k(    2) = (   0.0000000   0.2886751   0.0000000), wk =   0.7500000
        k(    3) = (   0.0000000  -0.5773503   0.0000000), wk =   0.3750000
        k(    4) = (   0.2500000   0.4330127   0.0000000), wk =   0.7500000

     Dense  grid:   142153 G-vectors     FFT dimensions: (  40,  40, 216)

     Estimated max dynamical RAM per process >     442.94 MB

     Estimated total dynamical RAM >       3.46 GB

     The potential is recalculated from file :
     out/CdI2.save/charge-density

     Starting wfcs are random

     Band Structure Calculation
     Davidson diagonalization with overlap

     ethr =  5.00E-06,  avg # of iterations = 10.8

     total cpu time spent up to now is      472.4 secs

     End of band structure calculation

          k = 0.0000 0.0000 0.0000 ( 17889 PWs)   bands (ev):

  -103.9432 -64.9726 -64.9726 -64.9665 -46.1265 -46.1265 -46.1262 -46.1262
   -46.1117 -46.1117 -46.1113 -46.1113 -46.1059 -46.1056 -14.2172 -13.7714
    -9.9022  -9.9022  -9.7968  -9.7320  -9.7320  -5.6104  -3.2365  -2.6434
    -2.6434  -2.3922  -2.3922   0.3859   2.1692   3.5766   3.6179   3.9656
     3.9656   4.2684   4.9019   5.7522   6.0108   6.6142   6.6142   6.7503
     7.5903   8.1861   8.6520   8.6520   8.7990   8.9601   8.9819   8.9819
    10.5859  11.0787  11.4295  11.4295  12.8384  12.8705  12.8705  13.0968
    13.9323  14.0979  14.1504  14.1504  14.3903  14.3903  14.7225  14.7271
    15.0032  15.0032  15.0920  15.0920  15.1646  15.1649  15.1649  15.2602
    15.2709  15.2709  15.3294  15.5387  16.1940  16.2547  16.2547  16.3403
    16.3403  16.4030  16.5511  16.5511  16.6337  16.6337  16.7638  17.1536
    17.6304  17.7373  18.2978  18.2978  18.3511  18.3511  18.6205  18.6205
    18.7885  18.7970  18.7970  18.9393  19.1811  19.4786  20.8521  20.9200
    20.9200  20.9352  21.0558  21.0558  21.2759  21.2759  21.6235  21.6235
    21.8964  21.9093  22.2875  22.6641  22.7475  23.1215  23.1215  23.4731
    23.9767  23.9767  24.3602  24.3793  24.3793  24.5697  24.6396  24.6396
    24.6495  24.6495  24.8002  24.8002  25.2304  25.2304  25.3059  25.5967
    25.5967  25.6700  26.9991  27.0543  27.1469  27.5997  27.8059  27.8059
    28.2446  28.2809  28.2809  28.4398  28.4398  28.8468  28.9685  28.9685
    29.5157  29.6862  30.3619  30.4731  30.4735  30.4735  30.7772  30.7772
    30.8583  31.1970  31.1970  31.7036  31.8513  32.6591  32.6591  32.8796
    32.8796  32.9348  33.1663  33.1663  33.2132  33.4086  33.4086  33.9877
    34.0048  34.1819  34.1930  34.1930  34.4891  34.7768  34.8377  35.5270
    35.5270  35.6809  36.3234  36.3234  36.3594  36.3594  36.5993  36.5993
    36.6915  36.7810  36.7810  36.7960  36.9928  36.9950  36.9950  37.0195
    37.0523  37.0523  37.1051  37.1051  37.2310  37.2310  37.2736  37.2736
    37.2968  37.6370  37.7834  37.7834  37.9156  38.0161  38.0161  38.0710
    38.0710  38.1868  38.2727  38.3086  38.3086  38.3715  38.4207  38.4207
    38.5411  38.5411  38.9325  38.9362  38.9362  39.1812  39.1812  39.3350
    39.4164  39.8137  40.1340  40.1340  40.1847  40.2266  40.2862  40.2862
    40.3206  40.4431  40.5207  40.5329  40.5329  40.9016  40.9016  41.7120
    41.7120  41.8203  41.9643  41.9643  42.3889  42.4643  42.5537  42.5537
    42.5908  42.5908  42.9377  42.9377  42.9737  42.9860  43.3464  43.3464
    43.4174  43.6725  43.8129  43.8129  44.0141  44.0400  44.0400  44.3003
    44.3003  44.4166  44.4166  44.4590  44.5599  44.6912  44.6912  44.8920
    44.9277  44.9277  45.2415  46.1891  46.2867  46.2895  46.3816  46.4204
    46.4204  46.6226  46.6226  46.6791  46.9207  46.9207  47.0873  47.0873
    47.1343  47.2231  47.4100  47.5148  47.5148  47.6315  47.6315  47.7725
    47.8960  47.8960  47.9892  48.0447  48.0447  48.0783  48.1703  48.1844
    48.1844  48.2436  48.2436  48.4099  48.5172  48.5172  48.8926  48.8926
    48.9809  48.9809  48.9896  49.1118  49.3804  49.3804  49.3853  49.6276
    49.6276  49.6828  49.6857  49.6857  49.8080  49.8080  49.9228  49.9228
    49.9941  50.0567  50.2799  50.3875  50.3875  50.5448  50.6550  50.6590
    50.9907  50.9907  51.0753  51.0753  51.2385  51.3088  51.3088  51.5803
    51.5803  51.6317  51.7409  51.7755  51.7755  51.8928  51.9135  51.9135
    52.0770  52.0777  52.0777  52.7225  53.0557  53.0557  53.1566  53.7176
    53.7633  53.7633  53.7795  53.7795  53.9295  53.9445  53.9445  54.0961
    54.2489  54.3632  54.4575  54.4575  54.4649  54.7622  54.7622  55.0938
    55.1948  55.1948  55.3480  55.3480  55.5097  55.5097  55.7982  55.9613
    56.5301  56.5301  56.5435  56.5932  56.6010  56.7710  56.7710  57.0713
    57.1224  57.1224  57.1821  57.1821  57.7115  57.7569  57.8267  57.8293
    57.8293  57.8635  57.8635  57.9689  57.9689  58.1420  58.4120  58.4120
    58.4207  59.1991  59.2646  59.5069  59.5069  59.8462  59.8462  60.1948
    60.1948  60.2489  60.2935  60.4957  60.5199  60.7765  60.7765  61.3026
    61.3266  61.4061  61.4061  61.6287  61.6287  61.7827  61.8225  61.8408
    61.8408  62.0662  62.0702  62.0702  62.6551  63.0742  63.0742  63.3648
    63.4401  63.4401  63.8408  63.8408  63.9659  64.0901  64.2403  64.2730
    64.3566  64.3566  64.7642  64.7642  65.0148  65.0148  65.2700  65.2700
    65.4895  65.4895  65.5324  65.5572  65.6139  65.9189  65.9189  65.9603
    65.9603  66.2007  66.2050  66.3040  66.3040  66.3701  66.8647  66.8647
    66.9403  67.0207  67.0207  67.2180  67.2180  67.4474  67.5398  67.5398
    67.6947  68.0938  68.4951  68.4951  68.7975  69.2752  69.2752  69.3976
    69.6314  69.6314  69.9107  69.9423  69.9423  69.9614  69.9614  70.1953
    70.1953  70.4267  70.5376  70.8927  70.8927  70.9386  70.9386  71.2866
    71.3639  71.3890  71.6615  71.9424  71.9424  71.9594  71.9594  72.0788
    72.0895  72.1378  72.2586  72.2586  72.3504  72.3504  72.5000  72.5000
    72.5431  72.9612  72.9612  73.0394  73.0394  73.0676  73.0847  73.0847
    73.2086  73.2393  73.2393  73.4039  73.4039  73.4445  73.8829  73.8829
    74.1915  74.1998  74.2193  74.5284  74.5284  75.0922  75.3171  75.3171
    75.3869  75.6163  75.6163  76.1179  76.2161  76.2161  76.6638  76.6638
    76.7155  76.8750  77.1535  77.1535  77.4251  77.4251  77.7842  77.7842
    77.8176  77.8626  77.8915  78.2154  78.3016  78.4211  78.4211  78.5408
    78.5408  78.6589  78.7528  78.7528  78.8455  78.9284  78.9284  78.9851
    79.1841  79.1841  79.2075  79.2838  79.4619  79.6591  79.6883  79.8353
    79.8353  79.9447  79.9447  79.9557  79.9792  80.0616  80.0748  80.0748
    80.1191  80.1191  80.3553  80.3553  80.4126  80.4126  80.4744  80.5401
    80.5787  80.5787  80.6938  80.7083  80.7083  80.7298  80.7834  80.7834
    80.7872  80.8223  80.8661  80.8661  80.8921  80.8921  80.9183  80.9441
    80.9535  80.9535  80.9688  80.9688  80.9881  81.0348  81.0348  81.1623
    81.1623  81.1635  81.1635  81.3448  81.4352  81.6325  81.7309  81.7357
    81.7503  81.7503  81.7578  81.7578  81.7882  81.9105  81.9105  81.9451
    81.9451  82.0883  82.0883  82.1971  82.2078  82.2104  82.2104  82.2327
    82.3091  82.3289  82.3289  82.5714  82.5714  82.5722  82.6593  82.6593
    82.7923  82.7923  82.8521  82.8521  83.1160  83.2091  83.2091  83.3028
    83.6156  83.6375  83.7027  83.7027  83.7433  83.9044  83.9044  83.9677
    84.0229  84.1030  84.1587  84.1587  84.1760  84.1760  84.2366  84.2636
    84.2749  84.2749  84.3315  84.3315  84.5822  84.7311  84.7311  84.8325
    84.8999  84.8999  84.9923  85.0059  85.0059  85.4943  85.4943  85.7233
    85.7472  85.7472  85.7778  85.7778  85.8668  85.9019  85.9019  85.9948
    86.0012  86.3535  86.3685  86.3838  86.3838  86.4329  86.4472  86.4472
    86.4566  86.7839  86.7839  87.0843  87.0843  87.0938  87.0998  87.0998
    87.1613  87.1954  87.2689  87.3086  87.3086  87.5393  87.5393  87.6030
    87.6361  87.6361  87.9698  87.9698  88.1701  88.1701  88.2095  88.2402
    88.2913  88.4266  88.6563  88.6563  88.7380  88.7380  88.7573  89.2288
    89.2288  89.4040  89.4040  89.4492  89.5125  89.5543  89.5600  89.5600
    89.6548  89.7037  89.7037  89.8407  89.8771  89.8771  89.8898  90.0781
    90.0781  90.2374  90.2374  90.2805  90.2805  90.2957  90.2957  90.3301
    90.3858  90.3858  90.3949  90.5104  90.7208  90.8659  90.9246  90.9246
    91.0611  91.1754  91.1754  91.2029  91.2029  91.7130  91.7130  91.7450
    91.8506  91.8506  92.0060  92.4708  92.5065  92.5065  92.7192  92.7192
    92.8660  92.9941  92.9941  93.2872  93.2891  93.2891  93.4592  93.4592
    93.4693  93.6179  93.6455  93.7278  93.8363  93.8364  93.8630  93.8630
    94.1789  94.3543  94.3676  94.3676  94.5342  94.5342  94.6174  94.6174
    94.6197  94.7045  94.7045  94.7944  94.8290  94.8803  95.0916  95.0916
    95.2317  95.2933  95.2933  95.7459  95.7459  96.0845  96.3237  96.5921
    96.5921  96.6837  96.6837  96.9592  96.9592  96.9994  97.1805  97.2144
    97.2144  97.4246  97.5765  97.7377  98.0504  98.0587  98.0860  98.0860
    98.2093  98.2093  98.2614  98.3432  98.3432  98.5185  98.5185  98.6536
    98.6536  98.6728  98.6946  98.7392  98.8004  98.9833  98.9833  99.0034
    99.1186  99.1186  99.1959  99.1959  99.2766  99.2821  99.2821  99.3452
    99.3452  99.3619  99.3619  99.4529  99.4529  99.6074 100.0071 100.1495
   100.1495 100.2624 100.4504 100.4504 100.5607 100.6302 100.6302 101.0899
   101.1857 101.2334 101.2334 101.6575 101.6575 101.8284 101.8284 102.0470
   102.0470 102.0738 102.0738 102.0803 102.1996 102.3045 102.3439 102.5734
   102.5996 102.5996 102.6851 102.7371 102.7371 102.7456 102.7456 102.7538
   102.7730 102.8280 102.8280 102.9464 102.9914 103.0068 103.0068 103.0491
   103.0491 103.0708 103.2808 103.3260 103.3260 103.6891 103.6891 103.6897
   103.7241 103.7241 103.7880 103.7909 103.7909 103.8184 103.8850 103.8850
   103.9165 103.9165 103.9714 103.9714 104.0300 104.0318 104.1233 104.5235
   104.5235 104.5502 104.5502 104.5550 104.7466 104.9138 104.9138 104.9215
   104.9662 104.9667 104.9667 105.0290 105.0290 105.4996 105.5198 105.5198
   105.5518 105.5757 105.5757 105.6501 105.6947 105.6947 105.9713 105.9713
   106.1304 106.1835 106.2200 106.2200 106.5430 106.6161 106.6191 106.6191
   106.6655 106.7606 106.7606 107.3461 107.3461 107.3530 107.3822 107.5594
   107.5594 107.7689 107.9145 108.1217 108.1217 108.1915 108.3096 108.3219
   108.3219 108.3819 108.3819 108.6173 108.6605 108.6605 108.6770 108.8671
   108.8671 108.9916 108.9916 109.0331 109.0389 109.0862 109.1461 109.1995
   109.1995 109.2243 109.2243 109.3477 109.3477 109.6227 109.6227 109.6442
   109.7466 109.7466 109.7483 109.8875 110.1143 110.1143 110.2527 110.2527
   110.3780 110.5650 110.5650 110.5902 110.5902 110.6799 111.0941 111.0991
   111.0991 111.1789 111.1789 111.2691 111.2691 111.3057 111.3382 111.4496
   111.5187 111.5187 111.7282 111.7314 111.7344 111.7344 111.9258 111.9258
   112.0002 112.0002 112.0849 112.2331 112.5238 112.5238 112.6303 112.6303
   112.6570 112.9932 112.9932 113.3500 113.3834 113.4939 113.4939 113.5830
   113.7288 113.7288 113.8676 113.9069 113.9069 114.4877 114.5354 114.6505
   114.6505 114.8211 114.8211 115.1146 115.1737 115.1972 115.2516 115.2712
   115.2712 115.3780 115.4764 115.6466 115.8396 115.8396 115.8583 115.8583
   115.9590 116.0959 116.1275 116.1275 116.1360 116.1360 116.4064 116.5331
   116.5331 116.6701 116.7552 116.7552 116.8488 116.8772 116.8772 116.9655
   117.0485 117.0485 117.2987 117.2987 117.4315 117.4315 117.4720 117.9125
   117.9242 117.9242 118.2002 118.5973 118.6055 118.6055 118.8018 118.8018
   119.2608 119.2608 119.4523 119.5509 119.5509 119.9603 120.0862 120.0862
   120.0949 120.0949 120.1219 120.5385 120.5385 120.6809 120.7349 120.7976
   120.7976 120.8608 120.8933 120.8933 121.1204 121.1205 121.1920 121.3421
   121.3421 121.4189 121.4931 121.4931 121.6019 121.6146 121.6146 121.6353
   121.7832 121.8292 121.8292 121.8634 121.8634 121.9170 122.0983 122.1848
   122.3202 122.3202 122.7831 122.8151 122.8151 122.8989 122.8989 122.9754
   123.0691 123.0691 123.1206 123.1911 123.1911 123.3277 123.4509 123.4509
   123.5774 123.6054 123.9435 123.9435 124.0873 124.0873 124.1262 124.2163
   124.3066 124.3066 124.8542 124.8542 124.8843 125.0933 125.2797 125.4640

          k = 0.0000 0.2887 0.0000 ( 17777 PWs)   bands (ev):

  -103.9432 -64.9727 -64.9727 -64.9664 -46.1265 -46.1262 -46.1262 -46.1260
   -46.1117 -46.1117 -46.1114 -46.1113 -46.1058 -46.1055 -13.9755 -13.7053
    -9.8741  -9.8170  -9.7450  -9.7276  -9.7170  -5.6306  -4.1785  -3.5445
    -3.2018  -3.0029  -2.4718   0.7648   2.7687   3.8244   4.0618   4.5183
     4.6086   4.9068   5.0240   5.5139   6.1836   6.4664   6.7150   7.4827
     7.6270   8.3478   8.5707   8.8829   9.1241   9.7031   9.7606  10.3148
    10.4837  10.6948  11.0496  11.4547  11.6424  11.8494  12.0431  12.1255
    12.2772  12.5606  12.7007  13.0210  13.1424  13.2252  13.2439  13.3973
    13.8427  13.9254  14.1158  14.2726  14.4746  14.5800  14.9005  15.1611
    15.3920  16.0728  16.4501  16.4799  16.5453  16.6896  16.8014  16.8661
    16.8874  17.2518  17.6482  17.8054  17.8897  17.9293  18.3005  18.4881
    18.5396  18.7627  18.8213  18.9285  19.0513  19.1317  19.1511  19.2304
    19.7104  19.8274  19.8438  19.9741  20.0632  20.1810  20.3945  20.7378
    21.2399  21.3707  21.6597  21.6727  21.8424  22.0796  22.2826  22.3810
    22.5601  22.5744  22.6681  22.8790  23.1635  23.2431  23.3808  23.5801
    23.6195  23.7887  24.1155  24.4692  24.5031  24.5360  24.6678  24.8383
    24.8636  25.0371  25.3869  25.5282  25.7732  26.0596  26.3243  26.3931
    26.5333  26.8122  26.8147  26.9187  27.1242  27.5603  27.8996  28.0513
    28.0636  28.1243  28.4532  28.5813  28.6088  28.8896  29.0176  29.0679
    29.3153  29.3671  29.4330  29.6535  29.9180  29.9607  30.3921  30.4025
    30.5873  30.5922  30.6770  30.8394  31.0147  31.0416  31.0635  31.1396
    31.1992  31.4481  31.7147  31.7985  31.8459  32.1113  32.2297  32.2974
    32.4533  32.4701  32.5127  32.9045  33.0422  33.0802  33.1994  33.5075
    33.6587  33.6721  34.0537  34.2299  34.3799  34.4267  34.5925  34.6268
    34.7744  35.1216  35.1443  35.5097  35.6279  36.0097  36.0701  36.1670
    36.3424  36.4620  36.5151  36.8006  36.9157  37.0503  37.1689  37.2808
    37.3770  37.3973  37.5520  37.5903  37.6411  37.6887  37.9184  37.9595
    37.9822  38.1638  38.2807  38.5167  38.5405  38.7533  38.8273  38.8892
    38.9603  39.2440  39.3478  39.3528  39.3880  39.4525  39.5272  39.7895
    40.0216  40.0548  40.1232  40.2171  40.3175  40.4709  40.5927  40.7992
    40.9371  41.1600  41.1711  41.2124  41.3514  41.4265  41.6037  41.6797
    41.7745  41.8445  41.9557  42.0132  42.1882  42.3681  42.5888  42.7130
    42.7589  42.8601  42.9489  42.9740  43.1161  43.1827  43.2030  43.3100
    43.4430  43.4862  43.7317  43.8203  43.8492  44.1225  44.1374  44.2439
    44.2572  44.4863  44.5254  44.6352  44.6371  44.9058  45.0954  45.1116
    45.2131  45.4070  45.5115  45.5139  45.6608  45.8128  45.8348  46.0084
    46.1331  46.1417  46.1832  46.2251  46.3181  46.5520  46.7079  46.7815
    46.8896  46.9020  46.9809  47.1408  47.1687  47.2252  47.2536  47.2714
    47.5111  47.5511  47.6994  47.8514  47.8732  47.9253  48.1020  48.1463
    48.3013  48.3783  48.4840  48.6242  48.7472  48.9611  48.9784  49.0752
    49.2038  49.2084  49.3978  49.5111  49.5935  49.9315  50.0133  50.0274
    50.1944  50.3582  50.5959  50.6534  50.9562  51.0419  51.2220  51.3555
    51.3794  51.4287  51.5198  51.5495  51.6111  52.0626  52.1228  52.1381
    52.2129  52.3185  52.3531  52.3548  52.7632  52.8316  52.8561  52.8792
    53.1080  53.2783  53.3416  53.4426  53.4742  53.5911  53.7733  53.7938
    53.9121  54.0764  54.2240  54.2283  54.3279  54.3358  54.4615  54.7098
    54.7337  54.8850  55.0299  55.1099  55.1706  55.2213  55.2822  55.3653
    55.4568  55.6372  55.7152  55.8324  55.9057  55.9135  55.9783  56.0382
    56.2312  56.4001  56.4302  56.4598  56.5641  56.7347  56.8260  56.9383
    57.2825  57.3580  57.3644  57.5223  57.5476  57.5918  57.7208  57.9832
    57.9939  58.0460  58.3203  58.4338  58.6073  58.6867  58.8068  59.1209
    59.2541  59.2697  59.3702  59.3990  59.6537  59.8038  59.8070  59.8886
    59.9227  60.0868  60.2745  60.2908  60.3339  60.5377  60.6322  60.7359
    60.7831  60.8797  60.9942  61.0675  61.2463  61.2598  61.3098  61.3579
    61.4141  61.4688  61.5503  61.6311  61.9553  61.9885  62.1653  62.1676
    62.3346  62.3452  62.5482  62.7869  62.8374  62.8622  62.9716  63.1428
    63.2118  63.3490  63.4804  63.6708  63.7709  63.8417  63.8806  64.1105
    64.2648  64.3424  64.4584  64.4688  64.5570  64.6893  64.7600  65.0225
    65.2723  65.3473  65.5621  65.8035  65.8720  65.9898  66.1789  66.1839
    66.4171  66.5423  66.5517  66.7151  66.7769  66.9502  66.9870  67.0138
    67.0919  67.2919  67.3085  67.4375  67.4790  67.5961  67.6131  67.7141
    67.7794  67.8676  67.9072  67.9708  67.9752  68.1871  68.2256  68.2670
    68.3737  68.6584  68.7799  68.8411  68.9408  69.0008  69.1056  69.2580
    69.3074  69.3674  69.4090  69.5759  69.6123  69.6338  69.8355  69.8663
    70.0971  70.1058  70.2173  70.2671  70.3507  70.5422  70.5433  70.5901
    70.6107  70.6980  70.7411  70.8057  70.8504  70.9739  71.0726  71.1246
    71.2466  71.2885  71.4661  71.5587  71.5671  71.6056  71.6524  71.6721
    71.9511  72.0596  72.0760  72.1524  72.2316  72.3384  72.3729  72.6302
    72.6536  72.7704  72.7968  72.8118  72.8807  73.0893  73.1898  73.2433
    73.3345  73.3627  73.4837  73.5925  73.7003  73.7760  73.7923  73.9241
    74.0392  74.1490  74.2526  74.2955  74.4033  74.4421  74.5030  74.6324
    74.9223  74.9833  75.0413  75.1630  75.3147  75.3756  75.4119  75.6990
    75.7098  75.8182  75.9204  76.0679  76.1271  76.1781  76.5536  76.6059
    76.7224  76.7835  76.9165  76.9172  77.1325  77.3054  77.4106  77.4297
    77.4794  77.5145  77.6325  77.6558  77.8262  77.9214  78.0814  78.1432
    78.1968  78.1988  78.3303  78.3916  78.4621  78.4687  78.5737  78.7372
    78.7683  78.8536  78.8619  78.9077  78.9295  79.0098  79.0703  79.0920
    79.3138  79.3195  79.3558  79.6301  79.6434  79.6471  79.6734  79.6750
    79.7627  79.8514  79.8948  80.0070  80.0225  80.0798  80.1575  80.2202
    80.3478  80.3658  80.4683  80.5666  80.5964  80.8232  80.8413  81.0324
    81.0960  81.1873  81.2290  81.5051  81.5207  81.6379  81.6683  81.7313
    81.8583  82.0157  82.1766  82.1895  82.2498  82.3487  82.6274  82.6982
    82.7033  82.8161  82.8823  82.8842  83.2537  83.3204  83.3735  83.5214
    83.5589  83.5662  83.6933  83.7343  83.8611  83.9091  83.9975  84.0597
    84.0883  84.1435  84.1773  84.2062  84.2363  84.2984  84.3205  84.3635
    84.4499  84.5372  84.5921  84.8073  84.8405  84.8780  84.9488  85.0205
    85.0992  85.2588  85.3469  85.4640  85.4877  85.6136  85.6165  85.6869
    85.7264  85.8672  85.8976  85.9041  85.9609  86.1817  86.2647  86.3055
    86.4532  86.4556  86.6605  86.7093  86.7924  86.8568  86.8635  86.9841
    87.0212  87.1124  87.1403  87.2964  87.3043  87.3921  87.5100  87.5114
    87.6452  87.6747  87.8031  87.8246  87.9693  88.0260  88.1030  88.2069
    88.2690  88.3144  88.4153  88.4380  88.4850  88.5396  88.6348  88.6603
    88.7443  88.7576  88.8481  88.9574  89.1975  89.3292  89.3454  89.3735
    89.4842  89.5229  89.7765  89.8052  89.8785  89.9461  90.0437  90.1362
    90.1590  90.4594  90.5267  90.5862  90.6081  90.7694  90.8941  90.9272
    90.9556  91.0361  91.0772  91.3321  91.3622  91.4488  91.7101  91.8084
    91.8799  91.9676  91.9772  92.0124  92.1222  92.1844  92.3663  92.4159
    92.4730  92.4779  92.5415  92.5832  92.7064  92.7960  92.8699  92.9197
    93.0432  93.0545  93.1602  93.2311  93.2801  93.3515  93.3640  93.3954
    93.5141  93.6642  93.7157  93.7624  93.8218  93.8575  93.9543  94.0089
    94.0113  94.2136  94.3159  94.3807  94.4131  94.4749  94.5255  94.5552
    94.6716  94.7570  94.8173  94.8269  94.8653  94.9789  94.9953  95.0795
    95.1004  95.1287  95.1659  95.1821  95.3096  95.3369  95.3527  95.3981
    95.4320  95.4832  95.5093  95.5558  95.6444  95.6890  95.7325  95.8142
    96.0112  96.0543  96.0575  96.1255  96.2092  96.2790  96.3350  96.3474
    96.3948  96.4391  96.4813  96.4875  96.5249  96.5469  96.6159  96.6580
    96.7808  96.8228  96.8373  96.8909  97.0412  97.0464  97.1115  97.1362
    97.2346  97.3294  97.3779  97.4361  97.4873  97.5213  97.6238  97.8302
    97.8354  97.9888  98.0642  98.1526  98.2727  98.3483  98.3974  98.4936
    98.5003  98.5703  98.6340  98.6598  98.6738  98.8259  98.9008  99.0100
    99.0374  99.1083  99.3846  99.4941  99.5413  99.6654  99.7081  99.7942
    99.8709 100.0424 100.1584 100.2570 100.3370 100.3941 100.4993 100.5204
   100.6056 100.6980 100.8848 100.8928 100.9982 101.0189 101.1860 101.1921
   101.3187 101.5134 101.5419 101.6231 101.6724 101.6988 101.8722 101.9389
   101.9531 102.0266 102.0917 102.1286 102.2062 102.3771 102.4891 102.5021
   102.6023 102.7175 102.7627 102.8116 102.8662 102.9081 102.9117 103.0098
   103.0812 103.0980 103.2565 103.2714 103.3243 103.5242 103.6569 103.7486
   103.8319 103.8821 104.0215 104.1111 104.1482 104.2939 104.3132 104.3714
   104.5474 104.5804 104.5908 104.6191 104.7254 104.7671 104.9431 105.0388
   105.1030 105.1084 105.2485 105.3518 105.3617 105.4567 105.5479 105.6767
   105.6878 105.7892 105.9950 106.0462 106.0805 106.2102 106.3447 106.4392
   106.4901 106.6522 106.7064 106.8654 106.9233 107.0049 107.0590 107.1213
   107.2994 107.3057 107.6145 107.7586 107.8627 107.8950 108.0462 108.0825
   108.1508 108.2022 108.2122 108.2750 108.3423 108.5197 108.6102 108.6170
   108.7180 108.8315 108.8635 108.9553 109.0428 109.0821 109.2458 109.2667
   109.3484 109.5059 109.5817 109.6554 109.6912 109.7390 109.8006 110.0907
   110.1567 110.2661 110.3075 110.3542 110.5383 110.7358 110.7788 110.7955
   110.9392 110.9807 111.1453 111.1902 111.2904 111.3209 111.4057 111.4912
   111.4965 111.5948 111.6645 111.7235 111.7598 111.7805 111.9167 111.9426
   111.9997 112.0493 112.0843 112.2493 112.2658 112.3714 112.4834 112.5377
   112.5452 112.6382 112.7971 112.9084 112.9819 113.0108 113.0287 113.0379
   113.1425 113.2080 113.2481 113.2650 113.3653 113.4487 113.5096 113.5992
   113.6266 113.7136 113.8117 113.8261 113.8855 113.9782 114.0397 114.0471
   114.1600 114.2624 114.4123 114.4895 114.5747 114.6506 114.6626 114.7465
   114.8418 114.9729 115.1136 115.1243 115.2338 115.3282 115.4055 115.5118
   115.5790 115.7512 115.7892 115.9051 116.1346 116.1366 116.2059 116.2633
   116.3390 116.3829 116.5580 116.5612 116.6674 116.6996 116.8579 116.9258
   116.9374 117.0907 117.1717 117.2336 117.3347 117.4833 117.4849 117.6172
   117.6462 117.7965 117.8471 118.0325 118.1587 118.2214 118.2327 118.2638
   118.3512 118.4577 118.5528 118.6528 118.7074 118.7833 118.8653 118.9110
   119.0285 119.0658 119.1415 119.2270 119.3019 119.3190 119.4195 119.4965
   119.6185 119.7102 119.7572 119.7646 119.8081 119.8471 119.8935 119.9385
   120.0192 120.0341 120.0883 120.1125 120.1666 120.2095 120.2848 120.3328
   120.3716 120.4896 120.6638 120.6873 120.7006 120.7848 120.8890 120.9987
   121.1039 121.1699 121.1897 121.2006 121.3042 121.3109 121.3705 121.4609
   121.5161 121.5570 121.6149 121.6586 121.6800 121.7526 121.8189 121.9714
   122.0580 122.1005 122.3232 122.3460 122.4198 122.4648 122.5396 122.7389
   122.8019 122.9727 123.0147 123.0635 123.1434 123.1718 123.2485 123.2876
   123.3657 123.4187 123.4559 123.5346 123.7211 123.7532 123.7593 123.8051
   123.8844 124.0205 124.1369 124.3016 124.3219 124.4357 124.5184 124.6137

          k = 0.0000-0.5774 0.0000 ( 17750 PWs)   bands (ev):

  -103.9432 -64.9728 -64.9727 -64.9664 -46.1264 -46.1262 -46.1260 -46.1257
   -46.1118 -46.1117 -46.1115 -46.1114 -46.1056 -46.1054 -13.6924 -13.6468
    -9.8687  -9.8147  -9.7201  -9.6758  -9.5823  -6.0393  -5.1303  -3.8457
    -3.6213  -2.8638  -2.6063   0.0140   2.7050   3.8450   3.9514   4.5128
     5.8614   5.8888   6.0791   6.4696   6.8763   6.8953   7.4009   7.5068
     8.0912   8.2199   8.6421   8.7469   9.1444   9.1698   9.6940  10.0400
    10.2639  10.2742  10.9147  11.0479  11.1166  11.4332  11.7396  11.8384
    12.0928  12.2228  12.3278  12.3310  12.6017  12.8439  12.8985  13.0576
    13.2609  13.3228  13.5205  13.5908  13.8821  13.9197  14.2334  15.3478
    15.5734  15.6196  15.9206  16.3221  16.4439  16.4729  16.5914  16.7401
    16.7971  17.4296  17.6022  17.6899  18.0790  18.4447  18.4931  18.6786
    18.8161  18.9302  19.0346  19.7097  19.8451  20.0068  20.2881  20.3708
    20.6530  20.6958  21.1546  21.3947  22.0888  22.1197  22.1313  22.4781
    22.5807  22.8169  22.8770  22.9594  23.0004  23.2395  23.2971  23.3636
    23.4435  23.4535  23.4751  23.6544  24.0627  24.1352  24.2090  24.2913
    24.4068  24.4553  24.5328  24.5749  24.7268  24.8204  24.8293  24.9005
    25.1864  25.2710  25.4458  25.4824  25.6669  25.8395  25.8669  26.0091
    26.4871  26.5576  26.6506  26.7275  26.8266  26.9933  27.0822  27.1313
    27.2337  27.3345  27.5714  27.7307  28.5466  28.6016  28.6502  28.7223
    28.8549  28.9593  29.0389  29.1093  29.1350  29.1548  29.1550  29.4876
    29.5127  29.6000  29.8633  29.8804  29.8925  30.0126  30.1448  30.4077
    30.4978  30.5281  30.5414  30.6077  30.6844  30.7888  30.9076  31.1255
    31.1723  31.6117  32.2291  32.2501  32.2507  32.3792  32.5148  32.6838
    32.7277  32.9403  32.9847  33.0259  33.1720  33.3609  33.5890  33.9232
    33.9488  34.5005  34.5006  34.7364  34.9589  35.0383  35.2146  35.3491
    35.6607  35.6767  35.9420  35.9779  36.0075  36.3185  36.4703  36.5686
    36.6506  36.8571  37.0422  37.0685  37.1528  37.2793  37.6805  37.7721
    37.8383  37.9586  38.2971  38.3629  38.6546  38.7590  38.8231  38.9830
    39.1415  39.2853  39.3947  39.4516  39.5016  39.6530  39.6896  39.7821
    39.8331  39.8933  39.9639  40.0215  40.0472  40.1522  40.3695  40.7217
    40.7528  40.7665  40.8085  40.9177  40.9213  41.0662  41.1488  41.2512
    41.3405  41.3470  41.5080  41.5384  41.6641  41.6882  41.8251  41.9686
    42.2751  42.2800  42.3785  42.4945  42.5523  42.6524  42.6626  42.7582
    42.9331  43.2774  43.2922  43.3066  43.3256  43.4203  43.5449  43.6941
    43.8810  43.9236  44.1107  44.2218  44.7530  44.9691  45.1128  45.1318
    45.6124  45.6251  45.8104  45.8118  45.8852  46.1555  46.1727  46.2645
    46.2886  46.3473  46.3590  46.6109  46.6193  46.7741  47.0827  47.0951
    47.3721  47.4699  47.4878  47.7286  47.7433  47.7546  48.0428  48.0590
    48.1496  48.3995  48.7803  48.8561  48.8707  49.1978  49.2436  49.2492
    49.4739  49.4829  49.5148  49.6527  49.6609  49.7432  49.9729  49.9762
    50.0053  50.2791  50.6417  50.6646  51.1202  51.1828  51.3168  51.4493
    51.4794  51.6246  51.8375  51.8982  52.0344  52.0688  52.1960  52.3242
    52.6234  52.6511  52.7815  52.8471  52.9267  53.2410  53.3095  53.3392
    53.5410  53.7904  53.8395  53.9183  53.9595  54.0068  54.0936  54.3919
    54.5799  54.6164  54.7571  55.0912  55.1634  55.2926  55.3755  55.4492
    55.5280  55.7734  55.8667  55.9171  55.9905  56.0768  56.0798  56.2686
    56.3045  56.3633  56.4231  56.4341  56.5157  56.5922  56.6193  56.6861
    56.7943  56.9236  57.2344  57.3461  57.4219  57.4469  57.5740  57.6476
    57.7072  57.8131  57.8291  57.8634  57.8986  57.9779  58.0438  58.0540
    58.1604  58.1951  58.2824  58.3533  58.4896  58.5591  58.5631  58.5957
    58.6474  58.8432  58.9505  59.0461  59.1614  59.3090  59.4255  59.5323
    59.6881  59.7190  59.8307  59.9111  60.1705  60.2761  60.4138  60.4326
    60.5786  60.7635  60.7826  60.9137  60.9604  61.1632  61.2083  61.2890
    61.3282  61.4000  61.4680  61.5111  61.6317  61.6397  61.7197  61.7813
    61.7961  61.8185  61.8447  61.9332  62.0115  62.3709  62.4120  62.4349
    62.5385  62.5679  62.6417  62.6788  62.8029  62.8128  62.9242  62.9244
    62.9664  63.0149  63.0320  63.0676  63.2088  63.3052  63.3154  63.3976
    63.4417  63.5456  63.6089  63.7638  63.7955  63.9584  64.0335  64.1886
    64.2846  64.3167  64.3736  64.4308  64.6297  64.6806  64.7494  64.8337
    64.9724  65.0592  65.1363  65.1723  65.1988  65.3122  65.4539  65.5319
    65.5567  65.6060  65.6096  65.8476  65.8845  66.0972  66.1318  66.1428
    66.1609  66.2610  66.4651  66.6457  66.6818  66.7368  67.1489  67.1553
    67.3694  67.5129  67.5253  67.6004  67.7596  67.9265  68.0393  68.0895
    68.0958  68.1263  68.3300  68.6238  68.6729  68.7136  68.8603  68.9123
    68.9967  69.0644  69.3255  69.5170  69.5308  69.5671  69.6329  69.6695
    69.7090  69.8937  70.0321  70.2071  70.3681  70.3782  70.5361  70.5466
    70.7230  70.7711  70.8179  70.8258  70.9730  71.0314  71.2125  71.3036
    71.4910  71.6111  71.6297  71.6544  71.7186  71.8547  71.9066  71.9383
    72.0451  72.1975  72.3684  72.4269  72.4639  72.5624  72.6428  72.7499
    72.7559  72.7961  72.9550  72.9550  73.0555  73.2095  73.2774  73.3253
    73.3607  73.7529  73.7871  73.8618  73.9136  73.9493  73.9613  74.0668
    74.0945  74.2813  74.3389  74.4139  74.4557  74.6194  74.6207  74.7389
    74.8003  74.9298  74.9793  75.1543  75.1669  75.3141  75.3406  75.4301
    75.4957  75.7144  75.7475  75.7626  75.8235  76.0126  76.1426  76.2562
    76.2952  76.3309  76.4298  76.4931  76.5785  76.8250  76.8590  77.1183
    77.3464  77.3949  77.4250  77.5548  77.6202  77.6491  77.7214  77.8032
    77.8947  78.1122  78.1938  78.1991  78.2340  78.2625  78.3424  78.3599
    78.5974  78.6249  78.6623  78.7555  78.9517  78.9915  79.1688  79.2662
    79.3211  79.3784  79.4447  79.4449  79.5464  79.6079  79.6158  79.6187
    79.6738  79.6820  79.9507  79.9605  80.0217  80.1203  80.1456  80.2046
    80.2753  80.3079  80.4938  80.5511  80.5827  80.6492  80.7384  80.7955
    80.8931  81.0034  81.0535  81.1018  81.1153  81.1608  81.2238  81.3667
    81.6943  81.7092  81.8333  82.0374  82.0849  82.1458  82.2169  82.2918
    82.3101  82.3470  82.5187  82.6060  82.6842  82.7228  82.7933  82.8511
    83.0586  83.1289  83.6243  83.6906  83.7211  83.8133  83.8769  83.9441
    84.1566  84.1946  84.4627  84.5107  84.5682  84.5770  84.6799  84.8504
    84.8993  84.9141  85.1322  85.1548  85.1662  85.1954  85.2941  85.3003
    85.5828  85.6009  85.7094  85.7150  85.7437  85.9096  85.9688  86.0180
    86.0296  86.1805  86.3753  86.5092  86.5623  86.5929  86.6427  86.7433
    86.9013  86.9200  87.2303  87.2533  87.4844  87.6214  87.6454  87.6638
    87.8674  87.8718  88.0036  88.1226  88.1467  88.2868  88.5272  88.5524
    88.5623  88.6184  88.8955  88.8958  88.9502  88.9600  89.0014  89.0086
    89.0602  89.0821  89.1212  89.2021  89.2776  89.4647  89.5100  89.5243
    89.6200  89.6335  89.7062  89.8467  89.9619  90.0327  90.0500  90.1611
    90.1657  90.2150  90.2455  90.3212  90.3418  90.4445  90.4683  90.5755
    90.6326  90.6855  90.7200  90.7330  90.7425  90.8524  90.8839  91.0610
    91.0790  91.2012  91.3632  91.4511  91.4803  91.4949  91.5584  91.6898
    91.7196  91.9051  92.0433  92.0933  92.2072  92.2098  92.2173  92.2346
    92.3535  92.4163  92.6292  92.7091  92.7329  92.7607  92.8398  92.8769
    93.1228  93.7127  93.8156  93.8291  93.8932  94.0133  94.0681  94.0937
    94.1025  94.2756  94.3471  94.6164  94.7053  94.8137  94.8486  95.0082
    95.0455  95.0793  95.3546  95.3784  95.4314  95.5902  95.6272  95.7001
    95.7616  95.8639  95.9859  96.0886  96.1073  96.1649  96.2209  96.5241
    96.6440  96.6890  96.7703  96.8394  96.8597  96.8709  96.9000  96.9550
    97.0336  97.0725  97.1448  97.3215  97.3252  97.4081  97.4187  97.4921
    97.5048  97.5169  97.6224  97.7405  97.7924  97.8063  97.9288  98.0812
    98.1191  98.2678  98.2860  98.3546  98.5063  98.6124  98.6309  98.6434
    98.7717  98.8628  98.9456  99.0594  99.1227  99.2025  99.3471  99.3805
    99.4963  99.6543  99.7091  99.8260  99.9026 100.0768 100.0929 100.1882
   100.3954 100.5301 100.5393 100.5668 100.6215 100.9765 100.9873 101.1105
   101.2187 101.3393 101.4361 101.4699 101.7519 101.8166 101.8776 102.0377
   102.1077 102.1337 102.3347 102.4442 102.5229 102.5542 102.5762 102.5846
   102.8001 102.8639 102.9186 103.1004 103.2468 103.3540 103.4218 103.5538
   103.5729 103.6436 103.6878 103.8141 103.8776 103.9066 104.0859 104.1556
   104.2194 104.2621 104.4665 104.5039 104.5159 104.6566 104.6852 104.8039
   104.8516 104.9053 104.9490 105.0092 105.0960 105.1943 105.3235 105.3563
   105.4132 105.4151 105.4442 105.4901 105.5152 105.5308 105.6432 105.6939
   105.7168 105.7562 105.7639 105.9408 106.0199 106.1898 106.2289 106.2392
   106.3756 106.4072 106.5235 106.5594 106.6815 106.6840 106.6956 106.8056
   106.8218 106.8414 106.9460 106.9654 107.0204 107.0734 107.1836 107.2164
   107.2641 107.2804 107.3653 107.4456 107.5089 107.5456 107.5952 107.6308
   107.6647 107.7234 107.7257 107.8084 108.0245 108.0636 108.0958 108.2196
   108.2631 108.2848 108.4308 108.5332 108.6355 108.7261 108.7388 108.8924
   108.9123 108.9639 109.0185 109.2333 109.2591 109.3298 109.3733 109.4402
   109.4493 109.4945 109.5193 109.7806 109.8740 109.9048 109.9927 110.0045
   110.1014 110.1635 110.4131 110.4172 110.4574 110.6069 110.6886 110.7314
   110.7402 110.8010 110.9166 110.9354 110.9460 111.0489 111.1178 111.2002
   111.2056 111.3158 111.3912 111.4420 111.4454 111.4974 111.5102 111.6273
   111.6292 111.6721 111.7462 111.7855 111.8678 111.8994 111.9185 111.9237
   111.9914 112.0516 112.1019 112.1875 112.2288 112.2511 112.3154 112.4235
   112.4328 112.5034 112.5896 112.6165 112.7768 112.7927 112.8226 112.9357
   112.9381 113.0551 113.1083 113.1403 113.1443 113.2819 113.3002 113.4140
   113.4370 113.4448 113.6902 113.7004 113.7746 113.8139 113.9396 113.9946
   114.1115 114.1955 114.2024 114.2221 114.2366 114.3106 114.3300 114.4579
   114.5032 114.5307 114.7903 114.7908 114.8397 114.9938 115.0589 115.1088
   115.1596 115.2598 115.3878 115.4260 115.4662 115.6262 115.6520 115.7083
   115.8199 115.8511 116.1044 116.1403 116.1532 116.1760 116.3273 116.3871
   116.5243 116.5629 116.6756 116.6945 116.7159 116.7460 116.8493 116.8823
   117.1525 117.1719 117.3017 117.3051 117.3188 117.3700 117.4035 117.5763
   117.6468 117.6780 117.7258 117.8209 118.0172 118.1128 118.1787 118.1992
   118.3218 118.3289 118.4012 118.5145 118.6237 118.6442 118.7150 118.7986
   118.8432 118.9274 119.0104 119.0442 119.0488 119.0655 119.2868 119.3067
   119.3458 119.5187 119.5298 119.5635 119.6835 119.6900 119.7071 119.7817
   120.0190 120.1466 120.1689 120.2030 120.2342 120.2940 120.3406 120.5530
   120.6439 120.7469 120.7681 120.9874 121.0748 121.2136 121.2184 121.2285
   121.3117 121.3995 121.4399 121.4844 121.5359 121.6368 121.7265 121.7287
   121.8731 121.8883 121.8964 121.9365 121.9392 122.0171 122.0349 122.1300
   122.1524 122.1571 122.2861 122.3567 122.3954 122.4136 122.6322 122.6398
   122.6409 122.7145 122.7329 122.8067 122.8910 122.9788 123.0359 123.0617
   123.1778 123.1974 123.2337 123.2431 123.2718 123.4719 123.4889 123.5055

          k = 0.2500 0.4330 0.0000 ( 17748 PWs)   bands (ev):

  -103.9432 -64.9728 -64.9727 -64.9664 -46.1263 -46.1261 -46.1261 -46.1258
   -46.1118 -46.1117 -46.1115 -46.1114 -46.1056 -46.1054 -13.7022 -13.6410
    -9.8187  -9.7715  -9.7298  -9.6864  -9.6613  -5.8627  -4.7148  -4.3416
    -3.7997  -3.1868  -2.7775   0.6469   3.4205   3.8053   4.7168   5.0900
     5.4765   5.5631   5.8114   6.1694   6.5313   6.8026   7.1806   7.7785
     7.8253   8.3999   8.6484   8.7187   8.9199   9.0360   9.1641   9.6185
     9.7991  10.0549  10.3306  10.3555  10.7819  10.8360  11.3343  11.7631
    11.8023  12.0837  12.0837  12.5092  12.5608  12.6804  12.8160  12.9907
    13.7584  13.7591  14.9462  15.0568  15.2298  15.4440  15.6570  15.6885
    16.0223  16.2385  16.5305  16.6032  16.9709  17.0565  17.1990  17.2081
    17.2493  17.4497  17.8720  17.9700  18.0304  18.1479  18.3314  18.4701
    18.5522  18.7537  18.8505  18.8870  19.1076  19.2077  19.3665  19.5514
    20.0394  20.5403  20.5885  20.7829  20.8233  20.9035  21.7731  21.9305
    22.1665  22.2469  22.3656  22.4458  22.4819  22.5710  22.7250  22.7622
    22.8607  23.2600  23.3513  23.4439  23.6024  23.7324  23.9459  24.0040
    24.1039  24.3170  24.5121  24.7125  24.8317  24.9717  24.9830  25.4075
    25.4333  25.5264  25.5631  25.8099  25.9101  25.9711  26.0781  26.0907
    26.5519  26.5788  26.6035  26.7441  26.9832  27.0665  27.2039  27.2428
    27.3073  27.4558  27.8213  28.2874  28.4291  28.7848  28.8162  28.9999
    29.0397  29.3318  29.3723  29.5761  29.6005  29.8155  30.2521  30.3937
    30.4052  30.4685  30.6802  30.7658  30.7880  30.9505  30.9793  31.0338
    31.0754  31.3053  31.3429  31.7250  31.7539  31.8359  31.8794  31.9135
    32.1054  32.1313  32.2956  32.4459  32.4473  32.6865  32.7231  32.8127
    32.8972  33.2540  33.4177  33.5601  33.6029  33.6439  33.7363  33.8088
    33.9329  34.1491  34.2606  34.3744  34.3770  34.4952  34.6305  34.6779
    34.8718  34.9096  35.0257  35.0279  35.2484  35.2589  35.3945  35.6014
    35.6689  35.7965  35.8887  36.0198  36.1156  36.6676  36.7146  36.7848
    36.8189  37.2365  37.2367  37.4129  37.4203  37.5104  37.5250  37.7301
    37.8699  37.8858  38.2247  38.5307  38.5762  38.7104  38.7354  38.9438
    39.2180  39.3763  39.5242  39.7154  39.7804  39.8167  39.9450  40.0991
    40.4021  40.4123  40.4885  40.5269  40.7047  40.7346  40.8131  40.9186
    41.1774  41.2265  41.2959  41.6895  42.0461  42.1400  42.2913  42.3023
    42.9226  42.9292  43.2266  43.4714  43.4856  43.5521  43.6305  43.6731
    43.8440  43.9110  44.1099  44.2835  44.3816  44.4992  44.7328  45.0583
    45.2120  45.2461  45.3581  45.4083  45.6420  45.9637  46.0112  46.1325
    46.2016  46.2137  46.5166  46.5224  46.7557  46.8993  46.9157  47.1617
    47.1841  47.2712  47.3148  47.4535  47.4558  47.5420  47.5956  47.8646
    47.9040  48.2874  48.3974  48.4291  48.4496  48.5565  48.6390  48.7912
    48.7966  48.8854  48.9996  49.0511  49.1050  49.3579  49.3591  49.4164
    49.5527  49.8478  49.9038  50.0422  50.0513  50.0627  50.1619  50.2062
    50.3131  50.4122  50.5204  50.6558  50.8647  50.9079  51.0395  51.0647
    51.2285  51.3018  51.3810  51.4187  51.4927  51.5146  51.6744  51.8581
    51.8932  51.9171  52.0715  52.4691  52.4872  52.5554  52.7796  52.8833
    53.0584  53.1128  53.1331  53.2761  53.4374  53.5033  53.5844  53.6275
    53.6605  53.7939  54.0263  54.0751  54.1303  54.2247  54.4254  54.4411
    54.4796  54.7641  54.7865  54.8810  54.8902  55.1999  55.2417  55.3228
    55.5368  55.5596  55.7298  55.9004  56.1101  56.1904  56.2184  56.4933
    56.6823  56.6845  56.7481  56.8185  56.8901  57.0507  57.0592  57.1701
    57.2205  57.2573  57.4275  57.5514  57.6171  57.7238  57.7895  58.0348
    58.0575  58.1542  58.1738  58.2075  58.2953  58.3362  58.4627  58.4795
    58.5558  58.6445  58.7732  58.8910  59.0596  59.2059  59.2757  59.3533
    59.3661  59.4776  59.5977  59.6151  59.7420  59.8051  59.8477  60.0287
    60.0778  60.3165  60.4131  60.4519  60.4749  60.5674  60.5875  60.6881
    60.8523  60.9386  61.0616  61.0773  61.1704  61.3307  61.4208  61.5703
    61.6456  61.7683  62.0266  62.0851  62.1636  62.3707  62.4459  62.5357
    62.6300  62.7473  62.7882  62.9302  63.0651  63.2524  63.3404  63.6070
    63.6442  63.7588  63.7968  64.0432  64.1873  64.1957  64.2175  64.3082
    64.4482  64.5920  64.6174  64.8022  64.9347  65.1507  65.1618  65.2051
    65.2427  65.4037  65.4187  65.4680  65.7710  65.8143  65.8603  65.9607
    65.9653  66.0412  66.1012  66.2091  66.2519  66.2706  66.3831  66.3919
    66.4263  66.4993  66.5134  66.5856  66.6417  66.6609  66.7249  66.8066
    66.8898  66.9711  67.0252  67.2405  67.2834  67.3198  67.4526  67.4630
    67.5048  67.5711  67.6419  67.7050  67.8602  67.9125  68.0001  68.1156
    68.1554  68.2052  68.2157  68.2834  68.3447  68.3859  68.5214  68.5849
    68.6519  68.8936  68.9722  69.0674  69.1575  69.2714  69.5014  69.5802
    69.7602  69.8038  69.8437  69.9463  70.0113  70.0959  70.2088  70.3023
    70.3735  70.4758  70.5493  70.7270  70.8655  70.9908  71.0848  71.2613
    71.2781  71.3316  71.4047  71.5977  71.7022  71.7168  71.8676  71.8974
    72.0819  72.1229  72.3579  72.3646  72.4728  72.5421  72.6729  72.7852
    72.8459  72.9287  73.0039  73.0283  73.0954  73.2321  73.3231  73.4249
    73.5164  73.6344  73.6555  73.6784  73.9475  74.0156  74.0160  74.1153
    74.2321  74.2953  74.3963  74.4324  74.6368  74.7016  74.7442  74.7660
    74.7870  74.8222  74.9561  74.9765  75.1188  75.2439  75.2885  75.3919
    75.4179  75.4506  75.6529  75.7988  75.8190  75.8454  75.9252  76.0364
    76.1892  76.2086  76.2467  76.3848  76.3920  76.4929  76.5083  76.5525
    76.5843  76.7032  76.7461  76.8226  77.0734  77.1466  77.2763  77.4376
    77.5180  77.6290  77.6754  77.8581  77.9943  78.1386  78.1524  78.1597
    78.4314  78.6139  78.7902  78.8438  78.9344  78.9596  79.1097  79.2146
    79.3048  79.3258  79.5241  79.5500  79.6607  79.6849  79.7314  79.8187
    79.8497  79.9989  80.0149  80.0848  80.1606  80.1859  80.2111  80.3565
    80.4346  80.4776  80.5297  80.5479  80.5945  80.6567  80.7140  80.8739
    80.9686  80.9878  81.0764  81.3235  81.3339  81.4149  81.4402  81.4566
    81.5260  81.7307  81.7346  81.8276  81.8984  82.0489  82.1071  82.2197
    82.2649  82.3453  82.4794  82.5255  82.5488  82.7324  82.9090  82.9142
    82.9777  83.0065  83.1990  83.2452  83.3598  83.4333  83.4746  83.5302
    83.6789  83.6964  83.8791  83.9003  84.0523  84.0592  84.0909  84.1397
    84.2574  84.2891  84.4081  84.5085  84.5653  84.6466  84.7536  84.8552
    85.0575  85.1182  85.2328  85.2456  85.3620  85.5404  85.6189  85.6408
    85.8608  85.8804  85.9084  85.9473  86.2013  86.3827  86.4414  86.5713
    86.6470  86.7223  86.7554  86.8065  86.8685  86.9395  87.0371  87.0583
    87.3520  87.3553  87.4833  87.6774  87.9538  87.9618  88.1734  88.2175
    88.2524  88.3537  88.3577  88.5261  88.6718  88.8744  88.8879  89.0755
    89.2550  89.2643  89.3106  89.3269  89.4732  89.5716  89.5855  89.6487
    89.7440  89.8769  89.9273  89.9799  90.0501  90.1763  90.2342  90.3086
    90.4295  90.4717  90.6522  90.7669  90.7748  90.8532  90.9422  91.0165
    91.0870  91.1544  91.1921  91.2095  91.2807  91.3454  91.4873  91.6062
    91.6873  91.7207  91.7941  91.8713  92.0777  92.1533  92.1704  92.2486
    92.3997  92.4147  92.5888  92.6122  92.6592  92.7297  92.7709  92.9131
    92.9239  93.0117  93.0527  93.0646  93.1770  93.3572  93.4203  93.4498
    93.5817  93.6300  93.8363  93.9566  94.0699  94.2368  94.2652  94.3407
    94.3482  94.4729  94.5399  94.6679  94.6781  94.9080  94.9345  95.0105
    95.0689  95.3180  95.3782  95.4837  95.6532  95.7247  95.8679  95.9150
    96.0438  96.0779  96.1517  96.2143  96.3195  96.4090  96.5459  96.6577
    96.7393  96.8050  96.9480  97.0020  97.0058  97.0353  97.1454  97.3888
    97.4333  97.5238  97.6319  97.6686  97.6842  97.8284  97.8866  98.0412
    98.1008  98.1603  98.4861  98.5416  98.5853  98.6950  98.7686  98.8653
    98.8757  98.9055  98.9702  99.0551  99.1438  99.2030  99.2199  99.2915
    99.3777  99.4144  99.4938  99.6209  99.6669  99.8266  99.8956  99.9394
    99.9835 100.0882 100.1759 100.2049 100.2564 100.2662 100.3826 100.4156
   100.4624 100.5768 100.6320 100.7529 100.7915 100.8643 100.9471 100.9763
   101.1143 101.2563 101.2681 101.3413 101.4009 101.4169 101.5224 101.6059
   101.7227 101.7892 101.9246 101.9553 101.9647 102.1501 102.1885 102.2292
   102.2335 102.2806 102.5625 102.6050 102.6687 102.9107 102.9503 103.1167
   103.1526 103.1697 103.2999 103.3185 103.3518 103.5266 103.5720 103.7894
   103.8526 103.9119 103.9163 104.0829 104.1495 104.1702 104.2617 104.3067
   104.3754 104.4785 104.5144 104.5804 104.6144 104.6778 104.6848 104.8070
   104.8481 104.8591 104.8593 104.9334 104.9339 104.9786 105.0853 105.1340
   105.1959 105.2262 105.3216 105.4044 105.5440 105.6696 105.8098 105.8280
   105.9539 106.0118 106.1288 106.2064 106.2248 106.2275 106.3242 106.4195
   106.4833 106.6589 106.7500 106.7894 106.9082 106.9481 107.0159 107.0591
   107.1880 107.1996 107.3151 107.3441 107.4965 107.5381 107.5441 107.6324
   107.6970 107.7141 107.7774 107.7928 107.8685 107.9978 108.0046 108.0707
   108.1416 108.2527 108.2758 108.3370 108.4424 108.5039 108.5144 108.6683
   108.6860 108.7007 108.7651 108.7803 108.8638 108.9198 109.0022 109.1290
   109.1829 109.2367 109.3350 109.4519 109.4760 109.5770 109.5770 109.6751
   109.6853 109.8079 109.8956 109.9425 110.0308 110.0530 110.1299 110.2405
   110.2467 110.3046 110.3360 110.4096 110.5281 110.6165 110.7466 110.8536
   110.9654 111.0167 111.0281 111.1777 111.2421 111.3110 111.3508 111.3745
   111.4827 111.4846 111.6466 111.6486 111.7456 111.7865 111.8172 111.9694
   112.0837 112.1352 112.2699 112.2923 112.3587 112.4072 112.4455 112.4614
   112.6000 112.6691 112.8165 112.8343 112.9749 113.0540 113.0919 113.1924
   113.2321 113.2962 113.4428 113.4787 113.5066 113.6176 113.6691 113.7703
   113.9301 113.9497 114.0586 114.1435 114.2291 114.2577 114.4027 114.4486
   114.4600 114.5088 114.6782 114.7009 114.8007 114.9217 114.9266 115.0880
   115.0957 115.2166 115.2332 115.3591 115.3768 115.4571 115.5027 115.5605
   115.6588 115.6913 115.9082 115.9150 115.9307 115.9710 116.0167 116.1170
   116.2067 116.2082 116.3213 116.3926 116.4513 116.5018 116.5605 116.5877
   116.6132 116.6535 116.6950 116.7818 116.7873 116.8927 116.9111 116.9544
   116.9621 117.0226 117.2214 117.2358 117.3379 117.4319 117.5146 117.6982
   117.6998 117.7130 117.7581 117.8742 117.8877 117.9416 117.9938 118.1438
   118.2592 118.3284 118.3488 118.4262 118.5730 118.7354 118.8965 118.9081
   118.9521 119.0383 119.0772 119.2041 119.3049 119.4221 119.4919 119.5572
   119.6021 119.6871 119.7321 119.8658 119.9185 120.0308 120.1748 120.2216
   120.2718 120.3744 120.4510 120.5933 120.6013 120.7180 120.8201 120.8649
   120.9516 120.9857 121.1074 121.1298 121.2060 121.2115 121.2901 121.3104
   121.3540 121.4838 121.4922 121.5854 121.6206 121.6390 121.7250 121.8270
   121.8600 122.0902 122.0965 122.1201 122.1773 122.2649 122.3317 122.3630
   122.4124 122.4874 122.5401 122.5962 122.6043 122.6489 122.6923 122.7456
   122.9148 123.0172 123.0345 123.1298 123.2005 123.2698 123.2923 123.3207
   123.3216 123.4089 123.4310 123.4583 123.4851 123.5360 123.6499 123.8104

     the Fermi energy is    -1.7921 ev
     (compare with:    -1.4831 eV, computed in scf)

     Writing all to output data dir out/CdI2.save/
 
     init_run     :      0.40s CPU      0.44s WALL (       1 calls)
     electrons    :    459.29s CPU    471.76s WALL (       1 calls)

     Called by init_run:
     wfcinit      :      0.00s CPU      0.00s WALL (       1 calls)
     potinit      :      0.03s CPU      0.04s WALL (       1 calls)
     hinit0       :      0.10s CPU      0.12s WALL (       1 calls)

     Called by electrons:
     c_bands      :    459.29s CPU    471.76s WALL (       1 calls)
     v_of_rho     :      0.02s CPU      0.03s WALL (       1 calls)

     Called by c_bands:
     init_us_2    :      0.00s CPU      0.00s WALL (       4 calls)
     init_us_2:cp :      0.00s CPU      0.00s WALL (       4 calls)
     cegterg      :    449.25s CPU    461.45s WALL (       4 calls)

     Called by *egterg:
     cdiaghg      :    365.99s CPU    377.34s WALL (      47 calls)
     h_psi        :     15.74s CPU     15.97s WALL (      51 calls)
     g_psi        :      0.16s CPU      0.16s WALL (      43 calls)

     Called by h_psi:
     h_psi:calbec :      0.57s CPU      0.60s WALL (      51 calls)
     vloc_psi     :     14.25s CPU     14.43s WALL (      51 calls)
     add_vuspsi   :      0.72s CPU      0.72s WALL (      51 calls)

     General routines
     calbec       :      0.57s CPU      0.59s WALL (      51 calls)
     fft          :      0.01s CPU      0.04s WALL (      10 calls)
     fftw         :     12.60s CPU     12.76s WALL (   78330 calls)
 
     Parallel routines
 
     PWSCF        :   7m40.68s CPU   7m54.68s WALL

 
   This run was terminated on:   9:58: 9   8Apr2024            

=------------------------------------------------------------------------------=
   JOB DONE.
=------------------------------------------------------------------------------=
