
     Program PWSCF v.7.1 starts on  5Dec2023 at  1:22:51 

     This program is part of the open-source Quantum ESPRESSO suite
     for quantum simulation of materials; please cite
         "P. Giannozzi et al., J. Phys.:Condens. Matter 21 395502 (2009);
         "P. Giannozzi et al., J. Phys.:Condens. Matter 29 465901 (2017);
         "P. Giannozzi et al., J. Chem. Phys. 152 154105 (2020);
          URL http://www.quantum-espresso.org", 
     in publications or presentations arising from this work. More details at
     http://www.quantum-espresso.org/quote

     Parallel version (MPI), running on     8 processors

     MPI processes distributed on     1 nodes
     121824 MiB available memory on the printing compute node when the environment starts
 
     Reading input from pw_mp-1479_nscf_k60_E124.in
Warning: card &IONS ignored
Warning: card / ignored
Warning: card &CELL ignored
Warning: card / ignored

     Current dimensions of program PWSCF are:
     Max number of different atomic species (ntypx) = 10
     Max number of k-points (npk) =  40000
     Max angular momentum in pseudopotentials (lmaxx) =  4

     Atomic positions and unit cell read from directory:
     out/mp-1479.save/
     Atomic positions from file used, from input discarded
 
 
     R & G space division:  proc/nbgrp/npool/nimage =       8
     Subspace diagonalization in iterative solution of the eigenvalue problem:
     one sub-group per band group will be used
     scalapack distributed-memory algorithm (size of sub-group:  2*  2 procs)

 
     Parallelization info
     --------------------
     sticks:   dense  smooth     PW     G-vecs:    dense   smooth      PW
     Min         157     157     45                 3669     3669     570
     Max         158     158     46                 3672     3672     573
     Sum        1261    1261    361                29363    29363    4573
 
     Using Slab Decomposition
 


     bravais-lattice index     =            2
     lattice parameter (alat)  =       8.5645  a.u.
     unit-cell volume          =     157.0536 (a.u.)^3
     number of atoms/cell      =            2
     number of atomic types    =            2
     number of electrons       =         8.00
     number of Kohn-Sham states=         1200
     kinetic-energy cutoff     =     124.0000  Ry
     charge density cutoff     =     496.0000  Ry
     Exchange-correlation= PBE
                           (   1   4   3   4   0   0   0)

     celldm(1)=   8.564512  celldm(2)=   0.000000  celldm(3)=   0.000000
     celldm(4)=   0.000000  celldm(5)=   0.000000  celldm(6)=   0.000000

     crystal axes: (cart. coord. in units of alat)
               a(1) = (  -0.500000   0.000000   0.500000 )  
               a(2) = (   0.000000   0.500000   0.500000 )  
               a(3) = (  -0.500000   0.500000   0.000000 )  

     reciprocal axes: (cart. coord. in units 2 pi/alat)
               b(1) = ( -1.000000 -1.000000  1.000000 )  
               b(2) = (  1.000000  1.000000  1.000000 )  
               b(3) = ( -1.000000  1.000000 -1.000000 )  


     PseudoPot. # 1 for B  read from file:
     /usr/scratch4/magr4985/MG/HTDF/pseudo/SG15/B.upf
     MD5 check sum: eb3cbeacc2d324d57d903df00f564d27
     Pseudo is Norm-conserving, Zval =  3.0
     Generated using ONCVPSP code by D. R. Hamann
     Using radial grid of  602 points,  4 beta functions with: 
                l(1) =   0
                l(2) =   0
                l(3) =   1
                l(4) =   1

     PseudoPot. # 2 for P  read from file:
     /usr/scratch4/magr4985/MG/HTDF/pseudo/SG15/P.upf
     MD5 check sum: 0688a67b2b263c6b42d3d97c42745426
     Pseudo is Norm-conserving, Zval =  5.0
     Generated using ONCVPSP code by D. R. Hamann
     Using radial grid of  602 points,  4 beta functions with: 
                l(1) =   0
                l(2) =   0
                l(3) =   1
                l(4) =   1

     atomic species   valence    mass     pseudopotential
        B              3.00    10.81100     B ( 1.00)
        P              5.00    30.97380     P ( 1.00)

     24 Sym. Ops. (no inversion) found



   Cartesian axes

     site n.     atom                  positions (alat units)
         1           B   tau(   1) = (   0.0000000   0.0000000   0.0000000  )
         2           P   tau(   2) = (  -0.2500000   0.2500000   0.2500001  )

     number of k points=     8  Gaussian smearing, width (Ry)=  0.0005
                       cart. coord. in units 2pi/alat
        k(    1) = (   0.0000000   0.0000000   0.0000000), wk =   0.0312500
        k(    2) = (  -0.2500000   0.2500000  -0.2500000), wk =   0.2500000
        k(    3) = (   0.5000000  -0.5000000   0.5000000), wk =   0.1250000
        k(    4) = (   0.0000000   0.5000000   0.0000000), wk =   0.1875000
        k(    5) = (   0.7500000  -0.2500000   0.7500000), wk =   0.7500000
        k(    6) = (   0.5000000   0.0000000   0.5000000), wk =   0.3750000
        k(    7) = (   0.0000000  -1.0000000   0.0000000), wk =   0.0937500
        k(    8) = (  -0.5000000  -1.0000000   0.0000000), wk =   0.1875000

     Dense  grid:    29363 G-vectors     FFT dimensions: (  45,  45,  45)

     Estimated max dynamical RAM per process >     177.55 MB

     Estimated total dynamical RAM >       1.39 GB

     The potential is recalculated from file :
     out/mp-1479.save/charge-density

     Starting wfcs are random

     Band Structure Calculation
     Davidson diagonalization with overlap

     ethr =  5.00E-06,  avg # of iterations =  9.0

     total cpu time spent up to now is      930.3 secs

     End of band structure calculation

          k = 0.0000 0.0000 0.0000 (  3695 PWs)   bands (ev):

    -6.1964   9.2763   9.2764   9.2764  12.7092  12.7092  12.7092  16.6991
    20.8342  21.4156  21.4156  25.0134  25.0134  25.0134  30.8630  39.7502
    39.7502  39.7502  46.1789  46.1789  46.1789  47.2296  47.2296  52.2631
    52.2631  52.2631  63.8002  63.8002  63.8002  64.0017  65.0796  65.0796
    66.1375  66.1375  66.1375  72.6804  72.6804  72.6804  74.0353  74.3624
    74.3624  75.1253  75.1253  75.1253  75.3153  75.3153  75.3153  76.3177
    76.3177  76.3177  81.8208  81.8208  81.8208  83.1002  84.6392  84.6392
    84.6392  89.2510  92.5170 100.4161 104.6506 104.6506 106.3410 106.3410
   106.3410 110.2970 110.2970 110.2970 114.7567 118.5113 118.5113 120.6405
   120.6405 120.6405 122.1733 122.1733 122.1733 127.2312 127.2312 127.2312
   132.5109 132.5109 132.5109 132.5595 132.5595 132.8885 132.8885 132.8885
   133.4991 135.1439 135.1439 137.2856 137.2856 137.2856 139.8651 139.8651
   139.8651 140.5780 140.5780 140.5780 141.2467 141.2467 141.2467 142.9112
   142.9112 142.9112 143.0406 143.7527 144.2850 144.2850 144.2850 144.3887
   144.3887 155.5305 155.5305 155.5305 159.6071 161.3516 161.3516 162.5260
   162.5260 162.5260 166.0639 166.0639 166.0639 167.1967 167.4366 167.4366
   167.4366 168.3038 168.3038 168.3038 168.9346 168.9346 168.9346 169.7061
   169.7061 181.0355 181.0355 182.3189 184.8498 184.8498 184.8498 185.3405
   185.3405 185.3405 187.6361 187.6361 187.6361 188.9962 190.6697 190.6697
   190.8000 190.8000 190.8000 191.2546 191.6768 191.6768 191.6768 192.0028
   192.0028 192.0028 192.1688 192.1688 192.1688 192.5908 192.5908 192.5908
   200.9511 211.2880 211.9996 211.9996 211.9996 214.9409 214.9409 214.9409
   215.6928 215.6928 216.8118 216.8118 216.8118 223.0156 223.0156 223.0156
   232.5154 232.5154 232.5154 234.2270 234.2270 236.8177 238.7938 238.7938
   238.7938 238.9047 238.9047 238.9047 239.6693 242.8005 242.8005 242.8005
   243.6457 243.6457 243.9427 243.9427 243.9427 247.4752 247.4752 247.5993
   247.5993 247.5993 247.8127 247.8127 247.8127 249.2381 249.2381 249.2381
   249.8200 249.9192 249.9192 249.9192 250.4852 250.4852 250.5124 250.5124
   250.5124 251.6776 251.6776 251.6776 252.3307 252.3307 252.3307 252.8288
   253.1996 253.9866 253.9866 253.9866 254.9497 254.9497 255.0729 255.0729
   255.0729 255.8041 259.2729 259.2729 259.3081 259.3081 259.3081 259.6880
   259.6880 259.6880 259.8795 259.8795 259.8795 260.2667 260.2667 260.2667
   260.2794 260.2794 261.1705 273.6811 273.6811 273.6811 275.6429 275.6429
   278.6752 283.0203 283.0203 283.0203 283.7758 283.7758 283.7758 284.4438
   284.4438 284.4438 284.8631 284.8631 284.8631 288.4874 288.4874 288.5418
   288.5418 288.5418 288.6369 290.8364 290.8364 290.8364 293.4580 293.4580
   293.4580 294.3019 296.6245 301.5189 301.5189 301.6645 301.6645 301.6645
   303.6115 303.6115 303.6115 304.4924 304.4924 304.4924 304.5705 304.5705
   304.5705 305.4886 305.4886 310.9443 310.9443 310.9443 313.3558 314.0541
   314.0541 314.4083 314.4083 314.4083 315.2271 315.2271 315.2271 315.8725
   315.8725 315.8725 315.9987 315.9987 315.9987 316.2478 316.8059 316.8059
   316.8059 317.1041 317.1041 337.0516 337.0516 337.0516 338.5750 338.8349
   338.8349 338.8349 341.1062 344.4040 344.4040 345.7012 345.7012 345.7012
   346.3262 346.3262 346.3262 347.0865 347.0865 347.0865 347.0997 353.6173
   353.6173 353.6173 354.3577 354.3577 357.1416 357.1416 357.1416 357.4966
   363.2129 363.2129 363.2129 363.3332 363.4431 363.4431 363.4431 363.5758
   363.5758 364.9680 364.9680 364.9680 365.6115 365.6115 365.9693 365.9884
   365.9884 365.9884 366.4848 366.4848 366.4848 366.5895 366.5895 366.5895
   366.9128 366.9128 366.9128 372.9984 372.9984 372.9984 373.0344 373.0344
   373.1088 373.1088 373.1088 373.2600 373.2600 373.2600 373.4051 375.7053
   375.7053 375.7053 376.2777 376.5355 376.5355 376.5355 376.6967 376.6967
   376.6967 376.7049 376.7049 384.5894 384.5894 384.5894 386.8179 387.5704
   387.5704 387.5704 388.6995 392.5084 392.5084 393.4877 393.4877 393.4877
   394.1365 394.1365 394.1365 395.6326 395.6326 395.6326 395.8239 395.8239
   395.8239 397.4230 397.4230 401.0735 401.0735 401.8370 401.8370 401.8370
   402.1790 402.1790 402.1790 402.4445 402.4445 402.4445 403.1489 403.1489
   403.1489 403.4756 403.4756 404.0442 404.7548 404.7548 404.7548 405.1653
   405.1653 405.1653 405.4636 412.9023 412.9023 412.9023 414.5261 415.7516
   415.7516 415.7516 416.2323 416.2323 417.2476 417.8922 417.8922 417.8922
   420.0385 420.0385 420.0385 420.1323 420.4470 420.4470 420.4470 420.8926
   420.8926 420.8926 421.8295 421.8295 421.8295 422.8221 422.8221 422.8221
   423.1895 423.1895 424.3106 424.4317 424.4317 424.6887 424.6887 424.6887
   425.0995 425.6486 425.6486 425.6486 425.7124 425.7124 425.7124 426.1777
   426.1777 426.1777 426.2259 426.2259 426.6831 426.6831 426.6831 426.8796
   426.8796 426.8871 426.8871 426.8871 427.1308 427.1308 427.1308 427.1886
   427.1886 427.1886 427.5167 427.5167 427.5167 427.6927 428.0370 428.0370
   428.0370 428.0881 428.0881 456.4139 456.4139 456.6904 457.1191 457.1191
   457.1191 468.5856 468.9363 468.9363 468.9363 470.8427 471.1836 471.1836
   471.1836 472.8464 472.8464 474.2986 474.2986 474.2986 475.5854 475.5854
   475.5854 476.5677 476.5677 476.5677 476.9146 476.9146 476.9146 478.1158
   478.1158 481.2369 482.6560 482.6560 482.6560 483.4727 483.4727 485.0994
   485.0994 485.0994 486.8267 487.1194 487.1194 487.1194 487.4387 489.5252
   489.5252 489.5252 489.5597 489.5597 489.5597 489.6550 489.6550 489.6550
   489.7426 489.7426 489.7426 492.7807 492.7807 492.8358 492.8358 492.8358
   492.9341 492.9341 492.9341 493.0885 493.0885 493.1506 493.1506 493.1506
   493.1550 493.1550 493.1550 493.2542 493.2542 493.2542 493.2609 493.2731
   493.2731 505.2216 505.2216 505.2216 505.2787 505.2787 505.2787 505.3245
   505.3245 505.6606 508.5197 508.5197 508.5197 514.4684 514.4684 514.4684
   514.7565 514.7565 516.3470 517.5563 517.5563 517.5563 518.1147 518.1147
   518.1147 518.1859 518.1859 518.1859 518.5932 518.5932 518.5932 519.7256
   519.8996 519.8996 519.8996 519.9853 519.9853 528.6057 528.7131 528.7131
   528.7131 528.9556 528.9556 528.9556 529.4676 529.4676 529.4676 529.5110
   529.5110 533.6642 535.1245 535.1245 535.1245 536.2882 536.2882 536.2882
   537.3293 537.3293 537.3293 537.4546 537.4546 538.5926 538.5926 538.5976
   538.5976 538.5976 538.8057 538.8057 538.8057 539.0340 539.0340 539.0340
   539.0997 539.0997 539.0997 539.2528 539.4516 539.7233 539.7233 539.7233
   540.0310 543.4583 543.4583 543.4583 543.4846 543.4846 543.5462 543.5462
   543.5462 543.5891 543.5891 543.5891 543.6387 549.4547 549.4547 549.4547
   550.0460 550.1259 550.1259 550.1259 550.1313 550.1313 550.1416 550.1416
   550.1416 551.5425 551.5680 551.5680 551.5680 551.5833 551.5833 551.5847
   551.5847 551.5847 551.7062 551.7062 551.7062 571.6550 571.7763 571.7763
   574.2390 574.2390 574.2390 574.8476 574.8476 574.8476 575.4524 575.4524
   575.4524 575.8032 575.8032 575.8032 576.2246 576.2246 576.2246 576.9932
   576.9932 577.2078 577.2078 577.2078 577.4394 582.0730 582.0730 582.0730
   582.5857 584.6415 585.9645 585.9645 585.9645 585.9663 585.9663 588.6867
   588.7196 588.7196 588.7196 589.6008 589.6008 589.6008 590.0009 590.0009
   590.0009 590.5388 590.5388 590.5388 591.0943 591.0943 592.1334 592.1334
   592.1334 592.3418 592.3418 598.0948 598.0948 598.0948 598.1604 598.1604
   598.1604 598.1625 598.1625 598.3552 598.3552 598.3552 598.7565 598.7565
   598.7565 598.9509 598.9509 598.9509 598.9940 598.9940 599.7663 600.0758
   600.0758 600.7162 600.7162 600.7162 600.8198 600.8739 600.8739 600.8739
   601.0054 601.0054 601.0054 601.0933 601.0933 601.0933 601.3240 601.3240
   601.3240 601.4324 601.4676 601.4676 601.4676 604.3536 604.3536 604.3536
   605.0030 605.9453 605.9453 605.9454 606.2997 606.4112 606.4112 606.6847
   606.6847 606.6847 606.7724 606.7724 606.7724 606.9651 606.9651 606.9651
   607.3174 607.3174 607.3174 607.5532 607.5532 609.4903 609.4903 609.6514
   609.6514 609.6514 610.0234 610.1901 610.1901 610.1901 610.3157 610.3157
   610.3157 610.3948 610.3948 610.3948 610.6201 610.6201 610.6201 610.7652
   610.7652 610.9656 610.9656 610.9656 611.1106 628.1343 628.1343 628.1343
   628.4866 628.6647 629.4188 629.4188 629.4188 638.0487 638.0487 638.0545
   638.0545 638.0545 638.0923 638.0923 638.0923 638.1972 638.1972 638.1972
   638.2086 638.2086 638.2106 638.2106 638.2106 648.0546 648.0546 648.1090
   650.2112 650.2112 650.2112 652.4792 652.4792 652.4792 652.5451 652.5451
   652.5451 652.5951 652.5951 652.5951 653.3288 653.3288 653.3288 655.8984
   655.8984 655.8984 656.8737 656.8737 656.9355 658.1503 658.1503 658.2578
   658.2578 658.2578 658.4587 660.4515 660.4515 660.4515 660.5269 660.5269
   660.5269 660.5415 660.5415 660.5415 660.5569 660.5569 660.5569 661.6158
   661.6165 661.6165 661.6165 661.6170 661.6170 683.3218 684.7330 684.7330
   684.7330 686.3093 687.8578 687.8578 687.8579 688.2536 688.2536 688.3560
   688.3560 688.3560 689.4407 689.4407 689.4407 689.8471 689.8471 689.8471
   690.0361 690.0361 690.0361 690.2253 690.2253 696.7306 696.7306 696.9575
   696.9575 696.9575 697.7447 697.7447 697.7447 698.9315 699.9079 699.9079
   699.9079 708.1273 708.6081 708.6081 708.6081 709.0169 709.0169 709.0169
   709.7905 712.4105 712.4105 713.1070 713.1070 713.1070 713.7390 713.7390
   713.7390 714.0209 714.0209 714.0209 714.1362 714.3768 714.3768 714.4258
   714.4258 714.4258 714.5634 715.0499 715.0499 715.0499 715.3289 715.3289
   715.3289 715.7404 715.7404 715.7404 715.9479 715.9479 716.2835 716.2835
   716.2835 716.7094 716.7094 716.7094 717.0120 718.9580 718.9580 719.1022
   719.1022 719.1022 719.1608 719.1608 719.1608 719.2353 719.2353 719.2353
   719.2438 719.2438 719.2438 719.2985 719.2985 721.3558 721.4575 721.4575
   721.5347 721.5347 721.5347 724.0294 724.0573 724.0573 724.0573 724.0973
   724.0973 724.0973 724.2110 724.2110 724.2110 724.2434 724.2434 727.8318
   727.8318 727.8318 727.8865 727.8865 727.8865 727.8898 727.8898 727.8910
   727.8911 727.8911 727.8911 741.8781 742.3909 742.3909 742.9751 742.9751
   742.9751 743.8923 743.8923 743.8923 744.1629 744.1629 744.1629 744.7947
   744.7947 744.9865 744.9865 744.9865 745.5203 746.9792 747.3976 747.3976
   747.3976 747.7830 747.7830 747.7830 748.0141 748.0141 748.0141 748.0957
   748.0957 750.1852 750.1852 750.1852 750.8193 750.8193 750.8193 750.9726
   750.9726 750.9726 751.9544 751.9977 751.9977 752.7891 752.7891 752.7891
   753.4932 753.4932 753.4932 753.5068 753.5068 753.5068 753.8380 753.8380
   753.8380 754.3077 754.3077 754.3319 754.3319 754.3319 754.4909 754.4909
   754.4909 754.5888 754.5888 754.5888 754.6781 756.7733 756.7733 756.8004
   756.8004 756.8004 756.8502 769.7624 770.3348 770.3348 770.3348 770.6630
   770.6630 770.7188 770.7188 770.7188 771.4680 771.4680 771.4680 771.5549
   771.5549 771.5549 771.9655 772.1195 772.1195 772.1195 772.6036 772.6036
   772.8117 772.8117 772.8117 773.0875 773.0875 773.0875 773.4777 773.4777
   773.4777 773.5702 773.8733 774.4927 774.4927 774.5738 774.5738 774.5738
   775.1109 775.1109 775.1109 775.6663 775.6663 775.6663 776.1481 776.1481
   776.2571 776.2571 776.2571 776.6730 776.6730 776.6730 776.8168 776.8168
   776.9680 776.9680 776.9680 777.1049 777.1049 777.1049 777.1276 777.2263

          k =-0.2500 0.2500-0.2500 (  3660 PWs)   bands (ev):

    -5.0885   4.4339   8.1596   8.1596  13.3140  14.0689  14.0689  18.8993
    20.2645  20.2645  22.3730  25.6237  29.7392  29.7392  34.0124  35.8343
    35.8343  37.7100  43.2412  43.2412  47.2169  47.6050  47.6050  53.3145
    55.5019  55.5019  57.0895  58.6058  58.6058  62.3511  62.5900  62.5900
    64.7769  65.9095  65.9095  66.5936  68.5514  68.5514  71.2236  72.2763
    72.6823  72.6823  75.1476  78.4710  78.4710  79.8467  79.8467  83.1695
    84.4107  84.4107  84.9679  87.8750  89.7636  91.5883  91.5883  93.3808
    93.3808  94.8434  96.0179  96.0179  98.3150  99.2760 100.1310 100.1310
   104.0607 105.9628 105.9628 107.9110 112.5565 112.5565 113.7061 118.1940
   118.1940 119.2074 119.8383 120.5867 120.5868 122.7547 122.7547 123.4330
   125.8303 125.8303 126.2159 128.0318 130.7321 130.7321 131.8010 131.8010
   132.1626 133.9496 134.1649 134.1649 137.5730 137.5730 138.7141 139.3118
   139.5324 139.5324 141.6996 141.9685 141.9685 145.2356 145.2356 145.6484
   147.8432 149.6352 149.6352 150.4191 150.7257 150.7257 153.8723 153.8723
   154.7951 155.3010 155.3010 157.3596 158.6855 160.9246 160.9246 162.1314
   162.4438 162.4438 163.6526 163.6526 163.8345 164.8068 166.1258 167.2235
   167.2235 167.6993 167.6993 168.2049 171.3146 171.3146 173.6045 174.5011
   174.5011 175.1893 176.6894 176.6894 177.7365 180.2549 180.2549 181.2633
   181.7699 181.7699 183.0440 183.0440 183.7944 184.4698 186.2029 189.1161
   189.1161 190.8306 195.9757 195.9757 197.9307 199.4594 199.4594 200.0480
   200.2399 200.2399 204.0140 205.3132 205.3132 207.8350 207.8350 209.1985
   210.2275 210.2275 210.9550 211.0856 212.0197 212.0197 214.4962 214.4962
   214.5609 216.6944 216.8781 216.8781 217.0587 217.0587 218.9911 218.9911
   219.3680 219.5032 221.8306 223.3359 223.3359 223.8775 224.9155 225.2345
   225.2345 227.9286 227.9286 231.6353 231.7074 231.7074 234.3453 235.2778
   235.2778 236.3863 237.0744 237.0744 238.1185 239.0310 239.0310 240.4051
   241.5173 241.9973 241.9973 243.7870 243.7870 244.1278 245.9299 246.8179
   246.8179 248.2439 249.0707 249.0707 250.1480 250.6406 250.6406 251.7425
   252.4041 252.4041 253.9301 253.9301 255.8401 255.8401 255.8442 255.9342
   257.8756 257.8791 257.8791 258.3583 258.4429 258.4429 258.8484 262.9061
   263.1968 263.1968 265.7242 266.1131 266.1131 266.7623 266.7623 268.2207
   268.2207 268.5357 268.8717 268.8717 269.0286 271.6743 271.7408 271.7408
   273.0463 273.0463 273.6984 275.7392 276.2975 276.2975 276.9643 277.2423
   277.4773 277.4773 279.0851 279.0851 279.5906 279.5906 279.9195 282.3602
   282.3602 282.8451 283.7132 283.7132 285.4649 285.4649 285.7496 286.0210
   289.2567 291.2962 291.2962 293.9464 294.3621 294.8082 294.8082 296.1215
   296.1215 296.7906 297.0539 297.0539 297.8676 299.1461 299.1461 300.6110
   301.6849 301.6849 302.1357 302.2892 302.4653 302.4653 309.4826 310.2009
   310.2009 310.5370 310.5370 310.7669 312.1347 312.1347 312.4563 316.8073
   316.8073 317.3744 319.0750 319.0750 319.1304 321.0925 321.0925 321.9984
   324.4422 324.8437 324.8437 324.8482 325.1046 325.1046 326.3314 326.3314
   328.1964 329.3306 329.3306 329.3632 332.8123 335.3912 335.3912 336.0197
   336.6947 336.6947 337.1743 337.6540 337.6540 337.7473 338.1380 338.3147
   338.3147 340.9223 340.9223 341.3748 342.1662 342.7501 342.7501 343.9492
   343.9492 344.1247 344.3832 344.3832 345.9574 346.9619 346.9619 347.4503
   349.2487 349.4394 349.4394 352.1992 352.6213 352.6213 354.9798 354.9798
   356.1557 356.1557 357.1361 359.7532 359.7532 360.7339 360.7339 362.2281
   363.7848 364.1785 364.1785 364.3602 365.1390 365.4203 365.4203 370.3896
   370.4124 370.4124 370.7517 370.9743 370.9743 371.2010 372.4462 372.4462
   372.7041 376.0911 376.2765 376.2765 379.3590 379.3590 380.3183 380.6750
   380.6750 381.4596 381.7575 381.7575 382.1282 382.1282 382.2894 383.2622
   383.2622 383.6802 384.4625 384.5752 384.5752 385.4097 385.4097 385.7203
   386.5979 386.7292 386.7292 387.1079 388.4014 388.4014 389.0639 390.4073
   390.4073 390.8484 392.2211 392.2211 392.6861 392.7143 393.0075 393.0075
   393.5405 393.9884 393.9884 395.7666 395.7666 395.7899 398.4645 398.4645
   398.6904 399.3310 399.3310 399.4075 400.2269 401.1995 401.1995 402.3820
   402.5444 402.5444 403.5821 403.5821 403.7080 405.9590 405.9590 406.1993
   407.3706 407.3706 407.4531 409.9853 409.9853 410.4869 410.4869 410.5879
   410.7153 412.7178 412.7178 413.1459 413.8274 413.9345 413.9345 414.2071
   414.3501 414.3501 414.7072 415.0898 415.0898 417.1199 417.2226 417.2226
   417.4467 417.4467 417.5546 421.7965 426.2329 426.2329 426.2482 427.6046
   427.6046 429.3480 430.9249 431.0113 431.0113 431.3885 431.3885 431.5122
   431.7800 431.7800 432.7708 432.8542 432.8542 433.7053 437.4515 437.6437
   437.6437 438.3307 438.5153 438.5153 438.7375 439.7047 439.7047 442.3868
   442.3868 442.5238 443.3859 443.3860 443.5150 443.8569 443.8569 446.3044
   446.7545 446.7545 447.3800 447.3800 448.5798 448.5798 449.8334 451.1867
   451.3318 451.3318 451.7395 452.0098 454.2902 454.2903 456.6115 456.6115
   456.7097 456.8349 456.8349 457.0133 458.1392 458.1392 458.2122 459.9114
   462.3725 462.3725 463.2314 463.3466 463.3466 464.6142 464.6841 464.6841
   465.6261 465.6261 465.9822 467.8804 467.9447 467.9447 468.2129 470.9150
   470.9629 470.9629 471.9750 471.9750 472.0522 474.6535 474.6535 475.0456
   475.2872 475.2872 475.4829 475.4829 475.6399 476.8204 477.4323 477.4323
   482.0645 485.0521 485.0521 486.5122 487.0687 487.0687 487.4455 488.5655
   488.5655 489.1750 489.3622 489.4484 489.4484 490.0395 490.0875 490.0875
   493.2111 493.4774 493.4774 494.5413 494.5413 494.9690 496.2642 496.4226
   496.4226 500.4112 500.4469 500.4469 501.0134 501.5713 501.5713 501.9321
   502.2472 502.2472 503.0066 503.0066 503.0230 504.0948 504.5354 504.5354
   506.8420 507.3460 507.3460 507.4502 508.3121 508.3121 508.7946 509.1959
   509.1959 513.2605 513.2605 513.7308 514.0994 514.1007 514.1007 514.6426
   514.9322 514.9322 517.1546 517.1546 517.2312 519.1990 521.0918 521.0918
   521.6787 522.1523 522.1523 525.7733 526.1480 526.1480 526.9744 527.1035
   527.1035 527.3655 528.4542 528.4542 529.3321 529.3321 529.4708 529.4771
   531.2328 531.2328 532.5623 532.6790 532.6790 533.9247 533.9247 534.3309
   534.6409 535.2118 535.2118 535.2123 535.7419 535.7419 535.7451 537.5068
   538.7618 538.7618 539.1950 539.3380 539.3380 539.5525 539.5525 539.6909
   544.9104 544.9104 545.5333 545.5333 545.8842 545.8842 546.2001 546.3394
   546.3394 546.3950 547.5940 548.1599 548.1599 548.2442 548.8066 548.8066
   549.1317 549.7330 549.7330 549.9613 550.6028 550.6028 550.7759 551.0252
   551.7505 551.7505 552.7073 552.7073 554.0080 555.5205 555.5707 555.5707
   556.7551 556.9793 556.9793 557.4640 557.4640 557.6194 559.1852 559.6011
   559.6011 559.7810 559.8880 559.8880 561.0454 561.0454 561.0573 561.1878
   561.6341 561.6341 562.6746 563.0927 563.0927 563.3419 563.3419 563.6490
   564.4225 564.4225 564.7780 565.7932 565.9852 565.9852 569.5164 569.5164
   569.8789 571.0771 572.4825 572.4825 572.8271 573.2181 573.2181 573.6723
   574.4469 574.4469 574.7558 574.8089 574.9524 574.9524 576.5666 576.9816
   576.9816 577.9265 578.0342 578.0342 581.0872 581.0872 581.9141 581.9141
   582.0717 582.9937 584.0771 584.0771 585.5899 585.6337 585.6337 588.3288
   588.4077 588.4077 588.6368 589.4381 589.4381 589.4881 589.9372 589.9372
   590.0732 590.4024 590.4024 590.6341 590.6341 590.9301 592.0856 592.2314
   592.2314 593.2050 593.2050 593.3677 594.2028 598.1585 598.1638 598.1638
   599.3704 599.3704 599.4101 602.5119 602.5119 602.8132 603.3946 603.3946
   603.7728 605.0702 605.0702 605.4811 606.0510 606.0510 606.3845 607.9503
   607.9628 607.9628 611.0148 611.1576 611.1576 612.4490 612.4490 612.7359
   612.8136 612.8136 613.1252 613.6087 614.0376 614.0376 617.0605 617.3678
   617.3678 617.9129 617.9129 617.9676 618.1311 618.1311 618.2422 618.4943
   618.4943 619.0667 620.5963 620.7490 620.7490 621.5538 621.5538 622.0249
   622.9093 623.4019 623.4019 624.9919 624.9919 624.9936 627.4902 627.8478
   627.8478 629.2096 629.2674 629.2674 629.4593 629.8718 629.9041 629.9041
   631.3013 631.4329 631.4329 631.8439 631.8439 631.9099 632.8015 632.8015
   632.8587 633.0788 633.0788 633.8141 633.8427 633.8427 635.7954 635.7954
   635.8649 637.9882 637.9882 638.0852 638.4980 639.8153 639.8153 641.7287
   643.3116 643.3116 643.3175 644.6249 644.6249 644.8746 645.5595 645.5595
   645.9045 645.9045 646.0807 646.5376 646.5376 646.9429 647.5951 647.5951
   647.9255 650.1046 653.8176 653.8176 654.1905 654.1934 654.1934 656.3063
   657.8662 657.8662 658.2855 659.9348 660.2245 660.2245 660.7079 660.7079
   661.6252 661.6252 661.7071 662.3149 662.3149 662.4214 663.5715 663.5715
   664.2553 665.0723 665.2100 665.2100 666.7851 666.7851 666.8043 670.9641
   671.6140 671.6140 673.9451 673.9451 673.9729 678.1608 678.2276 678.2276
   678.2521 678.3438 678.3438 681.5152 682.0399 682.0399 682.7850 682.7850
   683.1059 683.4795 683.4795 683.7647 683.9755 683.9946 683.9946 684.4102
   685.6548 685.6548 686.6780 686.7056 686.7056 687.9577 688.5908 688.9312
   688.9312 689.0705 689.5564 689.5564 691.4682 691.4682 691.5903 693.8817
   694.1686 694.1686 695.7181 695.7181 696.2774 696.4699 696.4699 696.5319
   696.8718 696.8718 697.1754 698.0015 698.0015 698.3376 698.5414 698.5414
   698.6224 699.2005 699.2005 703.0596 703.6508 703.6508 703.9437 703.9949
   703.9950 704.3212 704.3212 705.0262 707.0372 707.0372 707.1826 707.9796
   707.9796 708.0733 709.0982 709.0982 709.1782 709.5807 710.3747 710.3747
   711.0691 712.0126 712.0126 712.3495 714.4559 714.4559 714.7570 714.7570
   714.7852 715.0129 715.0129 715.0895 717.7310 717.7310 717.8972 718.1347
   720.2188 720.2188 720.3392 720.4016 720.4016 720.6151 721.2141 721.2141
   721.2553 721.4147 721.4355 721.4355 722.9496 722.9716 722.9716 723.0879
   723.0924 723.0924 726.7088 726.7088 726.7235 726.8355 726.8419 726.8419
   727.3370 727.3668 727.3668 728.5765 728.8022 728.8023 729.2656 729.2656
   729.4661 731.7834 731.8738 731.8738 733.3328 733.3328 733.3570 733.4843
   733.4843 733.4959 735.6161 735.7855 735.7855 736.0253 736.1229 736.1229
   736.5841 736.5841 736.6396 740.6912 740.6912 740.7055 744.0516 745.2012
   745.2012 745.3695 745.4899 745.4899 745.5289 745.8829 745.8829 745.8869
   746.0890 746.0890 748.6853 748.9248 748.9248 749.2811 749.2811 749.2882
   749.3894 749.7463 749.7463 750.3450 750.3450 750.4465 750.5949 750.8297
   750.8297 751.3353 751.3353 751.5876 752.0760 752.0760 752.5247 756.8812
   757.6410 757.6410 757.7493 758.0287 758.0287 758.2434 758.3351 758.3351
   758.3718 758.9356 759.1434 759.1434 760.6397 760.6397 760.7662 761.2306
   761.2306 765.4196 765.4504 765.4504 765.5608 765.5608 765.5714 766.6052
   766.6501 766.6501 766.6558 766.9569 766.9569 767.0372 767.1018 767.1018
   767.4639 767.4810 767.4810 767.6466 767.6725 767.6725 770.6473 770.6473
   770.9803 771.5132 771.5132 772.3523 773.9232 774.3543 776.4422 776.6116
   776.6116 776.9486 777.1411 777.1411 777.6314 777.6314 780.7906 780.7906
   780.8763 780.9510 780.9510 782.2453 782.4831 782.4831 783.9151 783.9151
   783.9390 785.0486 785.1193 785.1193 785.9688 786.1183 786.1183 786.3868
   786.3868 786.5574 786.8089 786.8089 787.0223 787.3019 787.4630 787.4630

          k = 0.5000-0.5000 0.5000 (  3648 PWs)   bands (ev):

    -2.8618   0.2344   7.5169   7.5169  13.1006  14.0231  14.0231  19.4161
    23.8512  23.8512  24.1116  26.7870  26.7870  27.0654  36.0996  39.1920
    39.2705  39.2705  41.9715  41.9715  46.5815  46.5815  47.7536  49.3974
    49.5538  49.5538  54.9641  56.7065  56.7065  59.6462  59.6462  60.7471
    61.8881  62.2507  68.6824  68.6824  69.8093  70.2635  70.2635  72.3104
    76.7623  76.7623  78.1833  83.2706  83.2706  84.2172  84.9751  84.9751
    86.2301  86.2301  87.3176  91.1013  91.1013  93.5065  94.8433  94.8433
    95.3217  97.3628  97.3628  99.0843  99.5374  99.5374 102.4523 103.0258
   103.0662 103.6347 105.7471 105.7471 106.2560 106.2560 109.1375 109.6350
   114.0627 114.0627 114.9333 114.9333 115.2464 115.2464 115.5697 121.7423
   121.7423 121.8066 127.5827 129.8961 130.9261 130.9261 132.0221 132.0221
   132.5098 134.0409 134.8204 134.8204 138.0278 138.0279 140.3116 140.7828
   141.3895 141.3895 143.0954 143.0954 143.5007 144.1756 145.3772 145.3772
   145.5472 145.7002 146.5031 146.5031 154.8809 154.8809 155.2920 157.6220
   157.6220 157.9684 158.9625 158.9625 159.1074 160.7876 160.7876 161.1165
   161.6238 163.1919 163.1919 165.0569 165.9322 165.9322 167.4290 167.4290
   167.5391 168.7888 168.7888 169.3503 174.1034 176.1624 176.1624 176.2165
   176.7345 176.7345 177.2149 180.2483 180.2483 181.1160 181.1160 184.3213
   186.9936 186.9936 187.2702 187.2702 188.9304 190.5965 190.6673 191.8636
   193.1711 193.1711 193.2933 194.4073 194.4073 194.6585 194.6585 197.4221
   197.4221 199.3321 199.3321 201.6865 201.6865 201.7944 201.9776 202.8598
   209.6170 211.0014 211.0014 211.6354 211.6354 213.9485 214.6449 215.1382
   215.1382 215.7037 215.7037 215.7968 217.5560 217.5560 218.3841 218.6109
   219.0353 219.5278 219.5278 224.4499 225.2989 225.2989 226.3462 226.3462
   228.2223 229.8885 229.8885 230.0170 232.0429 232.0430 232.1053 232.1053
   232.7913 232.7913 232.9605 233.4281 233.4281 233.9042 233.9087 233.9087
   234.2393 236.8659 239.3647 239.3647 239.7476 240.7403 240.7403 242.3587
   242.9057 246.0391 246.2235 246.2235 246.5386 246.5386 247.0906 247.0906
   248.2428 248.2770 248.2770 248.8149 254.8487 254.8487 256.9488 257.7376
   257.7376 257.9086 258.8989 259.7556 260.6791 260.6791 262.3480 262.3480
   262.7609 263.1015 263.7250 263.7299 263.7299 265.1485 265.1485 267.1370
   268.7857 268.7857 269.7959 270.0151 270.0151 270.9586 273.7409 274.5418
   274.5418 276.6227 276.9134 276.9134 278.0310 279.4495 279.5263 279.5263
   279.8522 279.8522 280.7178 280.7178 280.7993 280.7993 280.9278 281.0841
   288.2990 294.0477 294.0477 295.1737 295.1737 296.1142 296.5947 296.5947
   297.5234 297.5234 298.4437 299.3878 300.6042 300.6042 300.9106 300.9106
   301.8706 303.2301 305.2564 305.2860 305.3716 305.5780 305.5780 306.1620
   306.1620 306.6616 308.3833 308.7387 308.7387 310.1021 310.1021 311.2555
   312.4567 312.4567 313.4934 313.4934 314.9858 315.2765 315.2765 315.7215
   315.7215 316.1581 317.2523 317.2523 318.0031 318.0031 318.5087 318.7955
   320.2935 320.2935 320.3233 320.3233 320.4908 321.0150 321.2674 321.2674
   321.4282 321.4282 322.7241 322.7391 327.1897 330.0591 331.2363 331.2363
   332.5774 332.7846 332.7846 333.5712 337.0210 337.0210 337.1348 337.1348
   338.1540 338.1540 338.9301 338.9301 338.9505 339.8583 342.3035 342.7263
   342.7263 344.0598 344.0598 344.7844 345.6421 345.6421 346.3450 346.5829
   346.5829 346.7810 348.1335 349.1653 349.1653 349.9018 349.9018 350.1818
   351.1991 351.1991 351.2741 351.2741 351.4789 351.6416 359.8138 359.8138
   360.4077 362.4338 362.4338 362.6874 363.2331 363.2331 363.2501 363.2501
   363.7021 363.7021 363.7405 364.0906 364.2311 364.5912 364.5912 364.8436
   371.3449 371.3449 372.6677 373.1390 373.1390 373.4803 374.7597 375.2758
   375.2758 375.5900 376.4918 376.4918 377.2554 377.6185 377.9845 378.6640
   378.6640 379.0606 379.0606 379.3442 385.3515 385.3515 385.5632 385.5632
   388.1520 388.8285 388.8285 390.6737 390.6737 391.0264 392.4863 392.4901
   392.7590 392.7590 393.2540 393.2540 393.5930 394.3401 395.1951 395.1951
   395.4971 396.8976 396.8976 397.7458 397.7458 397.7769 397.7769 397.7844
   403.2423 403.2423 403.7802 404.0532 404.0532 404.2679 404.4658 404.8132
   404.8132 405.3817 405.3817 405.6368 408.0746 408.0746 409.5459 409.5514
   409.5514 409.6014 412.6591 412.7824 412.7824 412.9791 412.9791 413.1230
   414.5313 415.4287 415.4287 416.6016 416.6016 416.6435 419.4328 419.4328
   419.8386 419.8386 421.0564 422.9061 422.9515 423.6325 424.4065 424.4065
   424.7624 424.7624 429.7563 430.0786 430.0786 430.5950 431.7471 431.7471
   432.2170 432.2316 432.2316 432.3809 432.7714 432.7714 432.7965 434.6798
   435.3924 435.3924 435.6436 435.6436 436.0199 436.3670 440.4586 441.8379
   441.8379 442.4889 442.4889 442.7008 445.2844 445.2844 445.3462 445.8785
   445.8785 446.4755 447.4602 447.5922 447.5922 447.8474 447.8836 447.8836
   451.0357 451.0357 451.1121 451.1121 451.3382 451.3727 452.7816 452.8594
   452.8594 453.0843 453.0843 453.1300 453.9284 453.9284 453.9582 453.9582
   453.9662 454.0358 456.0541 456.6402 456.6966 456.6966 456.8046 456.8046
   459.1397 459.6119 459.6119 459.8770 459.8770 460.0634 463.1740 463.1740
   463.8936 463.8936 464.1427 464.2395 464.5377 465.1675 465.1675 465.2332
   465.7678 465.7678 467.2708 467.2708 467.3906 467.3906 467.4592 467.5331
   475.1420 475.2107 475.2107 475.4951 476.0937 476.0937 478.7086 479.4877
   480.9815 480.9815 481.3958 481.4018 481.4018 482.3542 485.8948 485.8948
   486.3863 486.3863 493.0472 493.0472 493.1306 493.1306 493.2734 493.5984
   493.5984 494.1553 494.3762 494.3762 494.4034 494.4274 494.4529 494.9268
   494.9772 494.9772 495.1348 495.1348 496.4586 496.4586 496.4666 496.4666
   498.1186 498.1235 503.5427 503.7905 503.7905 504.8378 504.9033 506.3300
   506.4659 506.4659 507.1560 507.1560 507.1613 507.5403 507.5403 508.4080
   508.4080 510.5181 510.5181 510.5458 512.3530 512.3530 512.3796 512.3796
   512.6265 512.6484 517.4249 518.1654 519.4892 519.4892 520.3923 520.9208
   520.9208 521.2316 523.4667 523.4667 524.6173 524.6266 524.6266 524.6528
   526.5069 526.5069 526.8161 526.8161 526.9402 526.9402 527.9025 528.2646
   528.4181 528.4181 530.8676 530.8676 530.9302 531.1879 531.1880 531.8255
   532.6256 533.7004 533.7004 533.8521 535.0690 535.0690 535.7446 535.7446
   535.8286 536.1147 536.2907 536.2907 538.0550 538.2189 538.2189 538.3833
   538.3833 538.5565 540.2634 540.2634 540.3989 540.3989 540.8332 540.8466
   541.4610 541.9276 541.9276 542.0137 542.2415 542.2415 544.3266 544.3266
   544.3792 544.3792 544.3960 544.4213 550.2983 550.3161 550.3161 550.9784
   550.9784 551.0522 553.1129 553.4059 553.4059 554.0311 554.0311 554.5577
   554.8443 555.2589 555.2589 555.6446 555.6446 555.7419 560.9961 561.0269
   561.0269 561.4730 561.4730 561.5282 561.5668 562.2375 562.2375 562.2953
   562.6981 562.6981 562.7422 562.7422 562.7625 563.5801 563.5801 564.6006
   569.6479 569.6479 569.7435 569.7435 569.8977 569.9099 570.6953 570.6953
   570.9362 571.4659 571.6134 571.6134 572.2688 572.3475 572.3475 572.4753
   572.4753 572.5800 573.6398 576.3960 578.4602 578.4602 578.6378 578.6378
   579.9881 580.2746 580.2746 580.6065 580.8658 580.8658 581.4032 581.5404
   581.5404 581.9434 581.9434 582.0679 582.1273 582.1699 582.1812 582.1812
   582.2435 582.2435 588.4712 588.4712 588.6307 588.7129 589.7543 589.7543
   590.7924 591.9653 596.8190 596.8190 597.5139 597.6194 597.6194 597.7764
   597.7764 598.0461 598.2820 598.2820 598.3810 600.5303 600.5303 600.6311
   600.6311 602.1520 608.8414 608.8414 608.8529 609.2186 609.2186 609.4307
   610.1577 610.1577 610.4031 610.7801 610.7801 610.8075 611.1025 611.1025
   611.1231 611.1926 611.1926 611.2760 611.4204 611.4204 611.5718 611.6618
   611.6618 611.7460 614.6784 614.6784 614.6890 614.7155 614.7155 614.7727
   616.2360 617.0720 617.0720 617.6504 617.6504 618.0370 622.9993 622.9993
   623.3543 623.5559 623.9594 623.9594 626.5438 626.5438 626.6032 626.6137
   626.6137 626.6175 628.9950 629.0065 629.0065 629.1517 629.1517 629.1776
   631.6301 632.0207 632.0207 632.0271 632.0825 632.0825 633.3965 634.7311
   634.7311 634.9796 635.1021 635.1021 635.8153 635.9346 635.9346 636.3996
   636.3996 636.5537 636.5537 636.6224 636.6773 636.9528 637.4842 637.4842
   641.7233 641.7233 641.7900 641.7900 642.2631 642.2708 650.1513 650.3012
   650.3012 650.8370 651.1829 651.4924 651.4924 652.7770 655.1114 655.1114
   655.3267 655.3267 655.3798 655.4316 656.1042 656.2390 656.2390 656.2590
   656.4314 656.4314 657.1051 657.1051 657.1777 657.1777 658.4730 658.5819
   661.2667 661.2667 661.3679 662.1144 662.3031 662.3031 664.3425 664.3425
   664.5485 664.5485 664.8114 665.6222 666.6846 666.6846 667.3174 667.3174
   667.4102 667.6421 668.0084 668.0149 669.3665 669.3665 669.4005 669.4005
   670.5477 670.5568 670.5568 670.7685 670.7685 671.1986 671.6551 671.6551
   671.6861 671.6861 671.8395 671.8627 673.0007 673.0007 673.0121 673.0387
   673.0387 673.0681 673.1557 673.1557 673.1738 673.2530 673.2530 673.2817
   683.7963 683.7963 683.8462 684.0164 684.0164 684.1296 685.6577 685.6577
   685.7275 685.7275 686.0873 686.1747 686.1787 686.1807 686.3195 686.5881
   686.5881 686.6112 686.6112 687.9076 687.9076 688.8592 689.7992 689.7992
   694.3669 695.5824 695.5824 696.1166 696.3100 696.3576 696.3576 696.5126
   696.5126 696.6115 698.4388 698.5449 698.5449 698.7651 699.8287 699.8287
   699.8739 700.0852 700.0852 700.2521 701.4283 701.6797 701.6797 702.0574
   702.0574 702.1601 702.1601 702.2140 702.3859 702.3859 704.1171 704.1822
   704.1822 704.1988 704.1988 704.4153 711.1118 711.1118 711.1154 711.1154
   712.5473 712.5473 712.8391 712.9874 713.0886 713.1049 713.1049 713.1697
   713.5573 713.5573 713.5614 713.6426 713.6426 713.7926 714.6740 715.1171
   715.3935 715.3935 715.6686 715.7021 715.7024 715.7024 717.6420 717.6420
   717.6882 717.6882 720.4791 720.4791 720.4793 720.4793 721.4970 721.4972
   725.2538 725.2538 725.2575 725.2834 725.3195 725.3195 727.9863 728.0668
   728.0668 728.1749 728.1749 728.2075 738.8904 739.0162 739.0162 739.4806
   740.1924 740.1924 740.6211 740.6211 741.2501 741.4264 741.4656 741.4656
   741.6378 741.6378 741.7747 741.7747 741.9601 742.2447 742.2738 742.4584
   742.6071 742.6071 742.7054 742.7054 743.2424 743.4462 743.4462 744.0252
   744.0252 744.4980 744.6559 744.9290 744.9290 745.2101 745.2101 745.3084
   750.2586 750.4376 751.4853 751.4853 751.5147 751.5674 751.5674 751.5858
   752.3641 752.4917 752.4917 752.7006 752.7006 752.8510 752.8809 753.0372
   753.0372 753.0649 753.0649 753.2135 754.1466 754.1466 754.2970 754.2970
   754.3078 754.6674 754.7753 754.8898 754.8898 755.0182 755.0182 755.1632
   760.4122 760.4122 760.4210 760.4210 760.7785 760.7811 760.9099 760.9099
   760.9173 760.9173 762.4760 762.4760 762.5583 762.5987 762.5987 762.6185
   762.8713 762.8977 762.8977 762.9459 762.9459 762.9728 770.3572 770.3572
   770.3825 770.4789 770.5017 770.5017 775.7234 775.7270 775.7270 775.7415
   775.7415 775.7605 782.8076 782.8211 782.8211 783.0548 783.0580 783.0580
   783.1137 783.1197 783.1197 783.1689 783.4039 783.4039 786.9402 787.0795
   787.0795 787.2856 787.2856 787.2999 787.4702 787.4702 787.5992 787.5992
   787.6353 787.7643 796.5318 796.5318 796.5662 796.6635 796.9988 796.9988

          k = 0.0000 0.5000 0.0000 (  3655 PWs)   bands (ev):

    -4.7117   5.5927   6.5418   6.5418  11.1175  14.2683  17.0207  17.0207
    21.4075  22.9810  24.7181  27.8376  27.8376  28.9940  33.8412  33.8412
    35.6562  38.1383  41.7492  44.7651  45.6169  45.6169  48.5821  53.1583
    53.6138  53.6138  58.2009  59.2210  60.0324  60.0324  61.0424  65.2975
    65.2975  66.4827  67.9698  68.0398  68.2106  68.2106  69.9781  71.1328
    71.1328  73.6521  77.2453  77.4937  77.4937  79.5371  81.3497  83.2430
    83.2430  83.2943  84.3710  86.6908  91.4741  91.7030  91.7030  93.7078
    96.7566  97.9368  97.9368  99.7724  99.8329 102.3033 102.3033 102.5262
   106.8945 106.8945 107.0639 108.5302 109.1053 111.5166 112.2782 112.2782
   113.0708 115.5271 115.5271 116.5102 117.4947 119.4145 121.5630 121.5630
   125.2225 125.8810 125.8810 126.4227 126.8448 130.4845 130.4845 132.7132
   135.4483 135.7046 135.7046 136.8892 137.5364 139.7621 140.6845 140.6845
   141.4079 142.2139 142.2139 143.8098 144.6720 145.3216 145.3216 145.5876
   145.9715 148.7308 150.1922 151.6557 151.6557 152.3645 153.2557 153.5339
   153.5339 155.0915 155.4002 155.4002 156.1201 156.4064 157.5235 157.7081
   157.7081 159.9566 159.9566 159.9577 160.8558 166.6431 167.6072 167.6072
   169.5091 170.1276 170.9441 170.9441 174.0551 174.5540 175.4150 176.4298
   176.4298 177.5111 181.5113 181.5113 182.2643 183.3741 183.6270 183.6270
   184.8805 184.8805 184.9859 186.0460 187.3124 188.6468 188.9162 188.9162
   190.8430 191.3985 195.3084 195.3084 197.5722 197.8504 198.3270 198.3270
   198.3465 199.1438 199.1438 199.5372 200.8925 204.1317 204.1317 205.7378
   206.1454 210.5218 211.1580 211.3725 211.9088 211.9088 213.4862 213.7823
   213.7823 214.4535 215.6340 215.6340 215.7123 215.9347 218.8004 219.6917
   219.6917 220.3006 222.4828 223.4106 223.5401 223.5401 225.6702 226.8204
   228.6710 228.6710 229.5397 229.5397 230.8810 232.2613 232.4895 232.9892
   232.9892 233.9474 233.9474 234.2015 234.5135 235.5084 237.9336 239.6169
   239.8827 239.8827 240.8311 242.7662 242.7662 243.1499 243.1499 243.1613
   245.4734 246.6404 246.8595 246.8595 247.1222 247.9186 249.0073 249.0073
   249.9951 252.4046 253.3201 253.6248 253.6248 255.9175 257.1797 257.4294
   258.1338 258.1338 259.0168 260.8283 260.8283 261.8728 263.8150 263.8150
   266.0362 267.5339 267.5339 267.5987 268.8023 268.8233 270.2790 270.9809
   270.9809 271.7200 272.2735 272.4293 272.4293 272.6990 273.0641 274.1166
   274.1166 274.2225 275.9518 277.7419 277.7419 279.8017 279.8017 279.8964
   280.4951 280.7588 283.0418 283.5116 283.5116 283.8258 284.8363 284.9764
   284.9764 285.5436 285.7065 285.7065 286.0563 286.4282 286.9920 287.2707
   287.2707 287.3702 287.8939 288.8059 288.8059 289.7290 291.7766 292.5280
   292.5280 293.0827 297.5882 297.5882 299.1503 299.6305 299.7409 300.4896
   300.9922 300.9922 301.2357 301.7347 301.9175 302.0427 302.0427 302.5706
   307.8542 307.8542 311.1279 312.4888 312.7252 313.8046 314.3690 314.3690
   316.1975 316.1975 316.6853 317.4903 318.2009 318.2213 318.2213 320.5456
   322.1140 323.5702 323.5702 325.6604 327.0310 327.0522 327.0522 328.4952
   329.1802 329.1802 331.4351 331.7696 331.7696 332.8331 334.1648 334.2441
   334.5788 334.5788 334.8210 335.4330 335.6623 335.6623 335.9917 339.8938
   341.5694 341.5694 342.2773 342.6922 343.3496 343.3496 343.9844 344.6978
   345.5707 345.5707 346.5654 347.6985 349.1798 349.1798 351.6411 352.5460
   352.5460 352.8549 354.5608 355.9800 357.2353 357.2353 358.4293 359.5608
   359.5608 360.1021 360.1021 360.3412 360.5917 361.0962 361.3663 364.2047
   364.2047 364.5061 365.1272 366.0856 367.2297 367.2297 368.2263 369.5076
   369.9367 369.9367 370.1163 370.2910 370.8244 370.9617 370.9617 371.6067
   371.6399 371.6399 371.9188 372.5194 372.5194 373.1834 373.8931 373.9217
   374.2422 374.2422 375.4462 375.5509 375.8784 375.8784 375.9600 376.5051
   377.5200 377.5200 378.4909 380.0158 380.0159 380.1144 380.1902 382.5697
   382.5697 382.6603 382.9461 384.2474 384.3678 384.3678 384.9625 386.0219
   386.0219 386.3467 386.7765 389.5495 389.6152 389.6152 389.6873 391.7624
   391.7693 391.7693 391.8931 398.4598 399.3988 399.3988 399.9689 399.9762
   400.5657 400.5657 400.7695 401.4866 403.3305 403.3799 403.3799 403.9771
   404.8639 405.0072 405.3307 405.3307 405.5956 407.0690 407.4078 407.4078
   407.9876 408.5092 408.5092 409.0640 409.5054 414.2911 414.7375 414.7375
   415.3054 416.0459 417.2952 417.2952 418.0615 418.0615 418.0733 418.3902
   418.9850 419.0248 419.0248 419.0742 419.8049 420.1717 420.5450 421.2087
   421.2087 425.2595 425.2595 426.6660 427.3179 427.3179 427.4992 427.7856
   429.1108 430.3282 430.3282 430.4365 430.8573 430.8573 431.3541 431.6661
   432.4803 433.0196 433.2664 433.2664 433.6430 433.7873 433.7873 436.4674
   438.2979 439.4640 439.4640 440.9932 442.8249 443.5127 443.5127 443.8827
   445.3585 445.3585 445.6142 445.8219 446.1371 446.6426 446.6426 446.9622
   447.2390 448.4196 448.4196 449.0794 449.7286 449.7286 449.8569 450.1159
   451.2935 451.9935 452.6625 452.7110 452.7110 453.9241 453.9241 455.7633
   456.5322 459.1119 459.2773 459.2773 459.7595 459.8130 459.8130 460.3151
   460.6107 460.8071 460.8071 463.4216 464.1112 464.2184 464.2184 464.4333
   464.8273 464.9287 464.9287 464.9740 465.0110 465.8962 465.8962 466.7124
   467.3629 467.5505 467.5505 467.6627 469.8270 472.8561 472.8561 474.0653
   474.0653 474.3908 474.4537 475.2473 477.6241 479.5670 479.5670 480.6169
   484.2137 484.5251 484.5251 485.5290 487.2557 487.8107 488.1578 488.1578
   489.0707 490.0907 490.0907 490.0960 490.4342 490.7672 490.7672 491.2101
   496.9261 497.4874 497.4874 497.7356 497.7857 498.0626 499.0922 499.0922
   499.8673 500.3416 500.7561 500.7561 501.7750 501.7750 502.3121 502.4730
   502.4730 502.7531 502.9461 503.5356 504.2972 505.0413 505.0413 505.2031
   505.7360 505.9357 505.9357 506.1755 506.1874 506.6406 506.6406 506.9215
   508.4606 509.1283 509.1516 509.1516 509.9350 510.0218 510.1526 510.1526
   511.4386 511.4564 511.4564 511.4578 514.5352 515.4438 515.4438 515.6293
   516.5412 517.9849 519.6332 519.6332 520.9107 523.2340 523.2882 523.2882
   523.3787 525.1696 525.1696 525.5193 526.0193 526.2061 526.7931 526.8965
   526.8965 527.9412 531.9098 532.4644 532.4644 532.5941 533.8864 534.0825
   534.4618 534.4618 534.9448 534.9448 535.4232 535.7738 536.3008 536.3008
   536.5252 537.5576 537.8631 538.6183 538.7239 538.7239 539.2275 539.2275
   539.4501 540.7991 540.7991 540.8553 540.8658 542.4477 543.6505 543.6505
   543.9018 544.0113 545.5960 546.7722 546.7722 547.5129 547.5625 548.0330
   548.0330 548.4010 549.3089 549.3089 549.8284 550.5026 550.5026 550.5050
   550.5851 550.6894 551.2494 551.2494 551.6981 552.5218 552.5218 553.3666
   553.8966 554.9621 555.2832 555.2832 555.5938 558.4671 559.0067 559.0067
   559.2968 559.9746 560.7304 560.7304 560.8767 564.9318 565.0992 565.0992
   565.1854 571.6523 571.8749 571.8749 572.0624 572.3078 572.3367 573.4635
   573.4635 574.1583 574.3401 574.8964 574.8964 575.4251 576.1104 576.1490
   576.6979 576.6979 577.4568 577.4568 577.7937 577.9434 577.9434 578.6243
   578.7985 578.7985 578.8435 578.9165 578.9726 579.1161 579.2496 579.2496
   579.8176 579.9208 579.9208 580.0808 580.3421 580.7205 581.0138 581.0138
   581.2584 585.5238 586.6595 586.6595 586.7808 586.8535 587.2790 587.2790
   587.4950 587.5263 588.5653 589.0671 589.0671 589.5507 589.8191 589.8191
   590.4434 590.7402 590.7402 590.8931 592.5649 593.5638 593.5638 593.7139
   593.8897 594.2857 594.6725 594.6725 594.7964 595.0995 595.8460 595.8460
   595.8811 595.9113 596.2580 596.2580 596.3078 596.3805 596.5826 596.5826
   596.9604 597.1423 597.1423 597.3094 597.6000 598.9485 599.0419 599.0806
   599.0806 603.6014 603.6750 604.3039 604.3039 607.8905 607.8905 607.9998
   608.6769 608.8598 608.9024 608.9511 608.9511 609.6132 609.7710 609.7710
   609.8610 611.3384 611.9445 612.1826 612.1826 615.9035 616.1504 616.1504
   616.2832 625.3379 625.3379 625.5327 625.6454 628.3346 628.3493 628.3493
   628.3634 629.3260 629.8863 629.8863 630.6157 630.6862 631.7394 631.7394
   631.8445 631.8445 631.8810 631.9834 632.2592 632.4254 632.5110 633.5762
   633.5762 634.5031 635.3581 635.3581 637.2579 637.9918 637.9918 638.2980
   638.3452 639.7065 640.3546 640.3546 640.8381 641.4798 641.9936 641.9936
   642.3011 644.8561 645.2323 645.4627 645.4627 645.8019 646.4720 646.4720
   647.4199 648.6465 650.6100 650.7117 650.9035 650.9539 650.9539 651.0967
   651.6515 651.6515 652.1529 652.4227 652.4227 652.8539 653.1487 653.1487
   653.3865 653.5135 654.7413 657.9243 659.0966 659.0966 659.6158 662.1738
   662.2332 662.2332 662.8867 662.8922 663.0835 663.0835 663.8480 664.6948
   664.6948 664.7904 664.9613 664.9624 665.2572 665.2572 665.3010 665.4800
   665.5022 665.5022 665.8592 665.8592 665.9896 666.0950 666.2711 666.3795
   666.4946 666.4946 666.6139 668.2745 669.0144 669.5443 669.5443 670.0259
   670.0259 670.5739 670.9087 671.3122 671.3122 671.4366 672.9633 678.5999
   678.6332 678.6332 678.6355 679.1267 679.2972 679.2972 679.4005 679.5573
   679.8310 679.8608 679.8608 680.9684 680.9684 682.2537 682.4485 682.4485
   682.5841 683.2894 683.2894 683.3289 683.4484 683.8990 683.9758 683.9758
   684.0505 684.2288 684.4232 684.4232 684.5543 685.1684 690.5577 690.5577
   690.7933 690.9700 692.9665 693.3112 693.5692 693.8698 693.8698 694.2385
   694.5103 694.5835 694.5835 695.0688 695.0688 695.5785 697.0388 697.7035
   698.0736 698.0737 704.1306 706.2913 706.2913 706.6959 707.0262 707.6227
   707.6227 709.0029 709.2660 709.4533 709.4533 710.4047 710.9958 711.8992
   711.8992 712.1304 713.5138 713.7203 713.7203 713.8502 714.9564 715.0650
   715.2819 715.2819 716.3975 718.5057 719.6185 719.6185 719.6778 719.7910
   719.7910 720.3018 720.3052 720.3052 720.4415 721.6557 722.0844 722.0844
   722.1678 724.0773 724.7848 725.0267 725.0267 725.1629 725.6140 725.6973
   725.6973 725.7403 725.8782 726.2862 726.3098 726.3098 726.3537 728.1903
   728.1903 729.3108 731.0420 731.0719 731.1431 731.1431 733.2655 733.3456
   733.4355 733.4355 734.7994 735.0554 735.1106 735.1106 738.2432 738.2432
   738.4294 738.6277 738.6898 738.8221 739.0008 739.0008 739.5802 739.5802
   739.6509 739.6891 740.2238 740.2238 740.2304 740.2458 740.8367 740.8367
   740.8379 740.8714 742.2053 742.2053 742.2071 742.2495 744.5478 744.7730
   744.7730 745.9726 747.8918 749.8497 749.8497 750.7035 751.7059 752.0823
   752.1696 752.1696 752.1923 752.5024 752.5024 753.1372 754.0387 754.0579
   754.0677 754.0677 755.8164 755.8275 755.8275 755.8879 757.0848 757.2717
   757.2717 757.3986 758.1379 758.5653 758.5653 759.6535 762.3266 762.3593
   762.5493 762.5493 765.5993 765.7926 765.7926 766.3306 766.4448 766.9672
   766.9672 767.0180 767.0337 767.2643 767.3083 767.3083 767.9062 767.9287
   767.9287 768.4546 768.4959 768.8499 768.8673 768.8673 768.9179 769.1303
   769.1303 769.4976 769.9183 770.0854 770.2000 770.2000 770.2539 770.4037
   770.7060 770.7060 770.7909 770.7909 771.1108 771.1592 771.3449 771.4226
   771.4226 771.5320 773.6597 773.7456 773.7456 773.8500 779.8066 780.2186
   780.2186 780.3309 781.0568 782.4652 782.4652 783.5298 784.1960 784.1960
   784.2342 784.2572 784.7218 784.7790 784.7790 784.7843 785.0892 785.3681
   785.4741 785.4741 785.5750 785.5859 785.5859 785.7440 788.7201 788.9852

          k = 0.7500-0.2500 0.7500 (  3659 PWs)   bands (ev):

    -2.4648   1.5775   4.5002   6.0843  11.8393  15.7307  17.4491  17.6498
    22.4298  24.0146  26.6598  27.8101  28.0729  32.9500  33.7300  35.3131
    37.7558  37.9074  40.3181  41.4090  44.0767  44.8701  48.1116  49.7949
    51.1411  52.2801  52.3386  56.0870  57.2129  58.3149  61.6153  62.0023
    62.6218  65.1641  66.5475  67.7665  70.5173  72.6687  72.7141  74.3311
    74.3483  76.7866  79.0093  80.1354  80.4196  82.1086  82.9082  85.0659
    85.6079  88.2281  89.1204  89.5295  91.6614  94.0600  94.3631  95.5406
    96.7580  98.0260  98.6141  98.8181 100.4945 100.9623 101.4875 102.7354
   103.2904 105.7462 106.0638 106.8352 107.2456 109.0321 111.0763 111.7635
   112.7983 113.8153 114.5526 115.8112 116.6142 117.7645 120.1057 120.1880
   121.8283 122.7207 123.4985 125.1888 127.0472 127.5257 127.7931 128.9681
   129.5951 131.9342 133.2555 133.9840 135.5005 136.4282 137.4233 137.7683
   139.5582 140.0970 141.2981 141.7139 142.0976 142.6764 144.9630 145.5498
   147.2517 147.7353 151.1580 151.6205 152.7073 153.2738 153.5571 155.4530
   155.9636 157.0895 157.5098 159.5926 160.4531 160.9438 161.8591 162.3313
   163.9041 165.0904 166.1155 166.1924 167.2228 167.9528 168.8760 169.1586
   170.2290 172.4486 172.8442 173.0296 174.5258 177.0584 177.1401 180.0299
   180.4178 180.7832 182.5748 183.0347 183.2570 183.6043 184.4817 184.9495
   186.0981 186.6925 187.0327 187.7183 190.1091 190.2648 191.8832 192.1590
   193.0320 193.2997 193.3922 194.5525 195.4533 195.7391 196.3734 197.6323
   198.3626 198.6637 199.9376 200.5958 201.3738 201.6835 203.2134 203.9976
   204.1212 205.4557 206.1037 207.3396 208.6073 209.1133 210.2537 211.4632
   212.4323 212.9761 213.1614 213.9932 214.2449 215.1497 215.3689 216.3982
   217.1045 218.7320 220.0999 220.4544 221.0592 221.6199 223.5349 225.3632
   225.7247 226.7548 227.1647 228.2623 228.5264 229.9104 230.1271 230.4732
   231.7598 232.7962 233.4233 234.2750 234.7270 235.3760 236.2469 236.4576
   236.9998 238.2746 239.4000 240.2958 241.5176 242.6237 242.9527 244.8249
   244.8907 245.2280 245.4329 245.6213 246.1998 246.5656 247.9710 249.1409
   249.7581 249.9803 250.2853 251.3489 251.7674 252.6623 254.0204 255.9058
   257.4804 258.0585 259.4007 259.7953 260.6875 262.6095 262.9938 263.4996
   264.2302 264.3796 265.2364 266.3031 267.4844 267.9402 269.7842 270.0906
   270.5179 270.9994 273.2908 273.4444 273.9633 275.1141 275.5055 275.7206
   276.1472 277.6483 277.8286 278.3952 278.7213 280.7582 280.8995 281.7611
   282.0444 283.0534 283.2055 283.9051 284.3258 285.0655 287.2722 288.1632
   288.6344 289.2704 289.4430 290.5438 291.1625 291.9458 293.0907 293.8843
   294.1753 294.7304 296.5021 296.7928 297.7477 298.7017 299.0319 300.0400
   300.4853 301.0627 301.7625 302.2329 302.5078 302.9815 303.2727 303.7059
   304.4476 305.4191 306.0157 306.3055 307.6125 308.4246 308.9554 309.5156
   310.0890 310.4461 311.6305 312.0297 312.7611 312.9876 313.3798 314.1930
   315.0078 317.2647 317.6196 317.9709 318.0945 318.6600 319.0043 319.8596
   320.1503 322.6843 322.6845 323.8113 323.9578 325.5494 325.6915 326.0564
   326.9245 327.1974 328.3807 328.9673 329.8173 330.4589 331.1461 331.6455
   332.5566 332.6898 333.0260 334.0305 334.5107 335.1595 335.6310 335.7263
   336.4536 336.7856 337.7721 339.6033 340.5913 340.7702 341.6871 342.0927
   343.1017 343.8139 344.1300 344.2724 344.7300 345.0812 346.2396 346.2972
   347.6042 347.7836 348.0431 348.7737 349.1612 349.4373 350.8120 350.8930
   351.4423 354.6085 355.2967 356.2569 356.6825 357.9489 357.9579 358.2442
   359.0334 359.5703 359.6653 360.6669 360.8499 361.5748 361.7801 363.0383
   363.1771 363.9295 364.4603 364.8413 364.9894 365.7333 366.1097 366.1535
   366.8797 368.9484 369.8217 370.0042 370.8985 372.0995 372.6887 372.8396
   374.6229 375.5756 375.7120 376.7710 376.8875 378.1492 378.1803 378.9660
   379.1107 380.0582 380.7063 381.2568 381.4723 381.9115 382.6266 382.6874
   383.2659 384.8727 385.0305 385.5662 385.9032 386.5621 386.8800 387.3345
   388.4639 389.0779 389.6027 389.6816 390.5962 390.8919 391.4402 393.3182
   396.1199 397.7159 398.2074 398.7565 399.5113 399.5608 401.1881 401.2111
   401.4546 401.8676 402.1132 402.2434 402.7724 403.6241 404.5975 405.4946
   405.7448 406.1646 406.1792 408.3990 408.6773 408.8866 409.1687 409.1923
   410.4941 413.2471 413.3291 414.3463 415.1473 415.6463 416.0040 416.3237
   416.7468 417.3546 417.9926 418.5534 419.2402 420.1064 421.3261 421.7755
   421.8099 422.5510 422.7229 423.5561 423.8620 424.4433 424.6174 425.3919
   425.5480 426.1875 426.5197 426.6459 427.9706 428.3601 429.8505 430.2192
   430.4671 430.6897 432.0877 432.1079 432.9198 433.5021 433.7286 433.8958
   434.0888 434.5460 434.8511 434.9611 435.2908 435.7071 438.7890 440.3816
   440.5955 441.4347 441.5773 442.1792 442.4719 442.7735 443.5202 443.9134
   445.0647 445.2148 447.2250 447.7687 448.8117 449.4539 449.8939 450.6073
   451.0161 451.4913 451.7363 452.0101 452.3530 453.0633 453.1011 453.7538
   453.9396 454.1039 455.0636 455.1370 455.7085 456.0237 456.0402 456.7188
   456.7427 457.3880 458.5844 459.3871 459.7939 461.6716 461.8836 462.0363
   462.1771 462.5946 463.2309 463.2572 463.5260 463.8407 464.8787 464.9995
   465.8625 466.5217 466.9389 469.1677 469.3989 470.2680 470.5096 473.9550
   474.3752 474.4768 475.0671 475.1187 476.0701 476.1478 477.1179 477.4240
   477.4562 477.6892 477.9900 478.1895 478.8958 479.3470 479.5250 479.8582
   481.2294 481.4244 482.0981 482.9681 483.1695 483.7093 485.7764 486.4281
   486.7312 486.8726 486.8887 488.1822 488.5884 488.8579 489.6468 490.2019
   490.3122 490.9669 491.7955 491.9143 492.3365 492.4191 492.4480 492.7680
   493.0892 494.4659 494.9399 495.4783 496.3233 496.5927 496.6395 497.3936
   497.8887 498.2284 498.2942 499.7265 500.6001 500.6047 501.0116 501.1370
   502.3518 504.0973 504.3848 505.5240 505.6754 506.0269 506.6636 506.7865
   507.7835 507.8500 508.5064 508.8502 509.3003 509.5468 510.0453 510.0780
   510.2190 510.6809 511.2821 511.8100 511.8831 512.6020 513.3740 513.7792
   513.9319 514.3502 514.7298 515.1006 515.4114 517.9120 521.0157 521.1897
   521.3567 521.6326 521.9796 522.7657 522.7914 522.8976 523.4247 523.4442
   524.0512 524.5229 525.5343 526.1340 526.6507 526.7855 526.8897 527.1529
   527.2208 528.2834 528.5123 529.1348 530.1041 530.6043 531.1325 531.2534
   531.4000 531.4088 532.5243 532.5274 534.5661 536.2269 537.1449 537.4652
   537.7296 537.7652 537.8038 538.1315 541.0155 541.7660 542.9210 543.0694
   544.0344 544.6264 544.7568 545.0720 545.3420 545.6072 545.6945 545.9911
   546.0708 546.3455 546.6255 546.6903 548.8087 549.5660 549.6115 550.6386
   551.5764 552.9262 553.0382 553.0420 553.9232 554.1524 554.6674 554.8897
   554.9205 555.6065 556.1338 556.7593 557.2391 559.4999 559.9579 559.9966
   560.8778 561.0296 561.6667 562.6640 562.7095 565.5046 565.8997 566.0738
   566.1679 566.7371 566.7407 567.1094 567.1434 568.0794 568.0909 568.6661
   569.1887 569.3807 569.9777 570.1232 570.2525 570.8750 575.1459 575.3040
   575.6031 575.6486 575.9693 576.1046 576.1749 576.6358 576.9619 577.0094
   577.1258 577.3554 577.8071 578.0503 578.3703 578.6723 580.2474 581.1608
   581.2618 581.6276 581.7666 581.9430 582.1360 582.2869 583.5498 584.1163
   585.1095 585.1991 586.2466 586.9927 587.2687 588.6393 588.6866 589.7472
   590.2094 591.2426 592.2563 593.8440 594.3362 594.4866 595.3010 595.4018
   595.7946 595.9255 596.6102 596.6388 597.3224 597.3262 597.5867 597.8131
   598.1280 598.6250 599.3094 599.7444 600.0308 600.2546 600.5954 600.8515
   601.4604 602.3957 602.6639 602.6972 603.2094 603.4584 604.7738 604.7776
   605.3392 605.5960 606.2974 606.5407 607.1931 609.1445 609.1993 609.3431
   609.5300 610.7162 611.5164 611.9256 612.8575 613.1184 613.7667 613.8646
   614.0193 615.2757 615.5086 616.0105 616.4350 617.8240 618.0070 618.5067
   618.6633 619.0393 621.3044 622.4807 622.7524 623.7555 623.9010 623.9174
   624.6656 625.0313 625.0776 625.3774 625.6689 626.7306 626.7724 628.1994
   628.2251 628.6354 628.8673 628.9183 629.0805 629.0923 629.3039 630.5489
   630.5705 630.9828 631.0073 632.8727 633.7325 633.9636 634.3044 634.4838
   634.5827 635.1332 635.7606 635.7930 637.0076 637.2062 637.6613 637.8254
   638.2869 639.5332 639.5475 641.2098 641.3174 641.5540 641.8420 641.9027
   642.5054 642.5559 643.1810 643.2850 643.3486 643.4839 645.0628 645.1141
   645.8281 646.0347 647.1373 648.1601 650.0011 650.1721 650.5042 650.5599
   650.8053 650.8323 651.3279 651.4146 651.4627 651.5783 651.7028 652.4179
   652.5886 652.6243 654.1960 655.1845 655.5613 655.5671 656.1058 656.2307
   657.4643 657.5634 657.7401 657.9529 658.3203 658.3296 659.6420 662.9440
   663.3780 663.4296 664.5290 664.6738 665.1569 665.1826 666.0989 666.2371
   666.3531 666.4989 666.5945 666.6336 666.8726 666.9585 667.3389 667.4346
   667.5296 667.9598 668.0776 669.0267 669.1403 669.5930 669.6745 671.0003
   672.2712 672.4752 672.4849 673.2307 673.3270 674.2576 675.5036 676.0429
   676.3558 676.5345 676.6430 676.8560 678.0795 679.1588 679.2260 679.3688
   679.9291 680.9177 681.5473 681.7489 681.8761 682.6064 682.6630 682.9924
   684.8250 685.0647 685.1912 685.5586 686.2569 686.6594 687.1393 687.2093
   687.6331 688.3658 688.3888 688.8810 688.9584 689.3212 689.7903 691.0480
   691.1575 691.5331 692.2738 692.8296 693.1171 693.2969 693.5744 693.9341
   694.2684 694.6185 694.7509 695.7283 695.7820 695.9099 696.3489 696.5869
   696.7232 697.4834 697.5383 697.6330 697.8257 698.4221 698.8132 698.8186
   699.0382 699.1162 699.8807 700.4290 702.6921 704.5549 705.9352 706.0487
   707.2290 707.3554 707.3829 707.5693 708.6347 709.2364 709.3792 710.1866
   710.4262 710.4593 710.5322 710.9756 712.8335 712.9085 713.4976 714.2332
   714.2589 715.8702 715.9253 715.9909 716.2419 716.6989 717.1592 717.3421
   717.4025 718.0688 719.6042 720.0110 720.0943 720.3719 720.7710 720.9811
   721.0302 721.4220 721.4392 721.9245 723.4709 723.5194 723.5926 724.5541
   724.6791 724.7630 725.0461 725.0818 725.9884 727.1350 727.1410 727.5079
   727.5374 727.8077 728.1982 728.4521 729.4591 729.4992 729.6169 731.4197
   731.6179 732.5090 732.5414 734.5224 734.6969 734.7188 735.1836 735.2013
   737.6778 737.7684 739.1008 739.3680 739.9232 740.2480 740.4390 740.5420
   740.7861 740.8154 740.8780 741.7147 742.1042 742.4881 742.5084 743.1867
   743.3117 743.6990 745.5424 745.5944 745.9615 747.6341 747.8432 748.2791
   748.3997 748.4329 748.9740 749.7262 749.8178 749.8959 750.4372 751.9661
   752.0631 752.1117 752.3126 752.3254 753.2436 753.5870 753.6669 753.8292
   755.2454 755.2757 756.3237 756.7257 757.3668 758.0136 759.4485 760.0678
   760.1486 761.3601 762.1180 762.1628 763.4570 763.7259 763.8139 764.1189
   764.3031 764.3828 764.4083 764.4666 764.5066 765.2770 765.2861 765.9821
   767.5460 767.9330 767.9627 768.0308 768.0915 768.4591 768.4837 769.5345
   769.7145 770.5514 771.4021 771.4026 772.0576 772.6746 773.2858 774.5143
   774.7941 774.8126 774.8583 774.9072 777.2411 777.3179 778.3890 778.4609
   778.4961 778.6500 779.7150 779.8042 780.0654 780.5497 780.6733 780.9696
   780.9729 781.6220 782.0769 782.1447 783.6961 783.7152 783.9934 784.0286
   784.7984 784.8614 785.1595 785.2447 785.8757 786.2067 786.2518 786.8502
   786.8552 787.7941 788.1785 788.2566 788.2900 789.8952 790.9159 791.6144

          k = 0.5000 0.0000 0.5000 (  3651 PWs)   bands (ev):

    -3.3659   2.8124   4.0338   7.3399  13.1653  15.6765  16.8266  18.0548
    19.2913  21.9499  26.8066  27.5680  29.7749  31.8156  32.5683  34.7284
    37.6591  39.9034  41.7609  43.0567  44.7502  45.2095  47.5356  49.1759
    51.3509  51.6921  53.8445  57.4718  58.7809  61.0683  61.2913  62.1205
    63.3673  64.7694  65.4016  65.6291  67.4901  69.3850  73.5236  73.5574
    75.6967  76.2044  79.3256  80.3598  82.1501  83.3387  84.4190  85.6956
    86.1525  86.7006  87.5584  88.5098  89.5363  91.9746  93.2381  94.4885
    95.4784  96.8566  97.9776  98.1662  99.4875 100.1518 101.7450 103.0677
   103.5736 104.9911 105.1739 105.9260 108.6884 109.9317 112.3131 113.2551
   114.6459 115.2430 115.8319 116.7664 117.7934 118.1982 118.6947 120.4734
   122.6354 123.1809 124.4805 124.9790 126.0754 128.8973 129.4658 129.7876
   131.0211 131.8031 133.6315 135.0142 136.1006 137.2153 138.0111 138.5986
   139.1900 140.5730 140.8468 143.2199 145.1900 146.1457 146.6914 146.8056
   148.5885 149.6714 150.9708 151.8562 152.0001 152.2382 152.7669 154.1122
   156.6516 156.7731 157.3310 157.9886 159.0871 159.0955 160.7848 163.1150
   163.1486 163.8346 164.9783 165.2517 166.0728 166.3056 167.9376 168.2622
   168.6700 170.0587 171.2318 172.7132 172.9499 173.9942 174.0747 175.5671
   176.4532 178.6127 179.1574 179.9297 182.3901 183.0614 183.4047 184.7401
   186.3799 186.9862 187.2118 188.3453 189.5917 190.6545 191.6627 192.5569
   192.6111 192.7709 193.7336 193.9788 195.1620 195.3624 195.8047 196.4634
   196.5142 196.7497 200.0795 202.6167 204.0127 204.3122 204.8367 206.2426
   207.2937 207.5747 209.1453 210.1908 210.6891 211.3869 211.4175 211.8915
   213.1535 213.8254 214.8427 215.6613 215.9857 216.5364 218.0638 218.3475
   218.6635 219.3894 220.7381 220.8505 221.4013 222.6956 223.3360 225.0716
   225.5751 225.8766 227.2369 227.5283 229.6742 230.7302 231.6751 231.6975
   233.2538 233.4708 234.0258 235.1001 235.3511 236.7236 237.7544 237.8306
   238.1903 238.4318 239.4514 240.4678 241.4020 242.5799 243.2193 244.2651
   244.2674 244.5768 244.9468 245.8617 246.3218 246.8913 247.4762 247.6310
   249.1799 250.5317 252.5291 252.5335 254.1013 254.6312 255.3949 256.1901
   257.8461 259.4689 259.5917 259.8171 260.2367 261.4370 261.6592 263.1084
   263.3618 263.6094 264.0067 264.6307 265.3168 265.9638 267.7564 268.3555
   268.7606 270.5423 271.1155 271.9671 272.5385 272.5974 273.0480 273.9531
   275.5186 275.5266 275.5789 276.6294 278.9065 279.8187 280.9900 281.2311
   281.5630 282.2296 282.6059 282.7211 283.3680 283.3736 284.4996 285.0567
   286.8634 288.3371 289.1111 289.9810 290.0155 291.4252 293.5623 293.8087
   293.8556 294.5859 295.8369 297.8534 298.5540 298.6734 299.6891 300.2313
   300.3465 301.3669 302.2709 302.6602 302.8514 303.4005 304.6051 305.2702
   305.4227 305.8956 306.0795 306.3935 306.9969 307.1432 307.6725 309.0393
   309.1823 309.7601 310.5257 310.7639 311.8895 312.6443 313.0749 313.5269
   313.7622 316.7901 318.1646 318.6013 318.7690 318.8854 320.7150 320.9130
   321.0252 321.4152 321.8986 322.2963 322.6391 322.7442 324.5519 325.1913
   325.9270 328.0125 328.1679 328.7441 329.2491 330.0072 330.3260 330.4253
   332.1367 332.2499 332.7539 336.5905 337.0663 337.6051 338.1202 338.8051
   339.3600 340.3822 341.0156 341.9673 342.3603 342.7345 344.2872 344.7937
   344.9470 344.9956 345.6133 346.0009 346.0183 346.6139 346.8491 347.6218
   347.6772 348.7155 348.9083 348.9119 349.3178 349.4187 349.9217 351.2855
   351.5815 351.7664 352.4567 353.1696 354.0742 355.5055 355.8676 356.1648
   356.8250 361.0239 361.5612 361.8582 362.1269 362.1335 362.6871 364.2044
   364.6458 364.6805 366.0120 366.4515 366.5629 366.9135 367.0162 368.3305
   368.4853 369.6776 369.7490 369.9285 370.1111 371.0673 371.2701 371.5728
   371.6261 372.7123 372.7477 374.8342 376.7569 377.0062 378.2732 379.2021
   380.3759 380.9291 381.5496 382.4072 383.4495 383.4838 384.1672 384.9410
   385.1909 385.6517 386.4926 387.1915 387.6537 387.7871 388.1883 388.1946
   388.4129 391.1063 391.1795 393.7532 394.3366 396.7276 397.5478 398.3970
   399.6159 399.6870 400.1624 400.1851 400.2578 401.2301 401.4236 402.0761
   402.4546 402.6518 402.8012 403.7964 404.1861 404.5058 404.6270 407.0779
   408.1055 408.1302 408.3685 409.0681 409.4491 409.5411 410.2468 410.8713
   411.6998 412.4172 412.5238 412.6190 412.9188 413.3007 413.4172 415.1533
   415.1778 416.2640 416.4044 416.4460 416.8679 418.0248 418.0307 418.2992
   418.3254 418.4937 418.5228 420.2645 421.1189 421.2907 421.4025 422.0994
   423.4183 423.5242 423.6115 425.0227 427.4294 427.5595 428.0186 428.1282
   428.3464 428.5357 428.6401 429.5246 429.7573 431.5018 431.6913 432.1365
   432.2146 432.2184 432.5814 433.9070 433.9671 436.1397 436.6998 438.9001
   441.0575 441.0985 441.3647 442.2453 442.7219 443.0283 443.7175 444.0550
   444.1095 444.1944 444.9595 445.6722 446.4472 447.4665 447.6218 448.6250
   448.7710 448.9604 448.9774 449.5383 451.4590 451.9472 452.3404 452.6431
   452.7851 452.8027 453.2401 453.5164 453.5266 454.3274 455.4059 456.8145
   457.3693 458.3368 459.0204 459.0372 459.3070 459.4019 460.4892 460.6458
   460.8259 461.1728 462.4214 463.5117 463.6877 463.7405 465.3622 466.6031
   469.8659 470.0937 470.5047 470.5502 470.8347 470.8930 471.3912 472.1432
   473.1118 473.3151 473.9330 474.6390 474.8174 475.1694 476.8762 477.1600
   477.4026 478.3505 479.0058 479.2410 479.7072 479.9067 479.9587 480.4890
   481.1375 481.6109 481.7913 482.1090 482.7809 482.8699 482.9288 483.0857
   484.7182 485.0629 485.6733 486.0596 488.7965 488.8522 490.1326 490.5441
   491.5544 491.6861 492.0180 492.2213 492.3217 492.9386 493.6000 493.7157
   493.9722 494.1047 497.5864 497.6306 497.6309 497.8634 497.9805 498.6502
   499.6730 500.1443 501.4111 501.5894 501.8040 502.1125 502.1748 502.3111
   502.5489 502.5690 502.6962 502.9061 503.3486 503.4987 504.9310 505.9719
   507.8857 507.9506 509.2940 509.4678 510.0981 511.5668 511.6281 511.9196
   512.1324 512.1783 515.0039 515.3111 516.0494 516.3429 517.7522 519.0375
   520.0502 520.0910 520.2396 520.5106 520.5196 521.1530 521.3020 521.4126
   521.6991 522.8228 523.6750 523.9628 524.1680 524.3032 524.4549 524.8491
   524.9182 525.0131 525.1311 525.4125 525.8640 526.0500 526.1454 526.4725
   526.9200 527.0825 530.7467 530.8337 530.9636 531.0902 534.0878 534.1970
   535.3384 535.6451 538.5213 538.8610 539.1545 539.3931 540.0053 540.7841
   541.3649 541.4832 541.9122 542.5841 544.4920 544.9187 544.9260 545.0302
   545.0782 545.4180 545.8273 546.7051 546.9258 547.4977 548.2641 549.0736
   549.2101 549.2599 549.5068 549.8181 550.3522 550.8691 551.0323 551.1252
   551.3162 551.4436 551.9155 552.7254 552.7725 552.9768 553.6908 554.3732
   554.8428 555.0471 555.2824 555.7159 557.4769 558.4391 559.6870 559.7085
   560.1019 561.0830 561.6252 561.9597 562.1818 562.2502 564.7137 565.0258
   565.3326 565.6323 565.7496 565.9892 566.2887 566.5339 566.5902 566.7592
   567.9875 568.1322 568.8612 569.3846 569.4916 569.6517 569.9128 569.9335
   569.9711 570.0791 570.1790 570.3360 573.6283 573.6595 573.8867 573.9607
   574.2359 574.3860 576.3415 576.5462 578.6080 578.6518 578.9536 579.3644
   579.3804 579.5585 581.3826 582.5761 582.8545 582.9287 584.4724 584.8321
   585.3040 585.5880 585.6634 585.7052 587.2746 587.2897 587.2966 587.5019
   589.5093 589.5156 589.6806 589.7148 589.8052 589.8525 589.9248 589.9419
   591.7262 592.9810 595.2717 595.4688 595.7476 596.0756 596.3760 596.5376
   596.9361 598.6648 598.9114 598.9828 600.0625 600.1159 600.1469 600.1945
   601.4427 601.5141 601.6161 601.8766 604.0687 604.3137 604.3777 605.8987
   606.1602 606.2853 606.5899 607.7935 607.9880 608.5830 608.9233 609.4967
   609.8679 610.8172 610.8351 611.5676 612.2087 612.2630 612.5016 613.0870
   614.5296 614.7115 614.7203 615.1099 615.1118 615.2849 615.6154 616.4759
   616.6687 617.1415 617.4376 619.1673 619.4439 620.8308 622.1331 622.2796
   622.8351 622.9787 624.1591 624.6436 624.9539 626.3285 626.4093 626.4295
   626.4864 627.0844 627.2502 628.5466 629.1329 629.5341 629.6775 629.6798
   629.7505 629.9441 630.7667 631.1504 631.5914 631.8504 633.5924 633.6729
   634.8940 634.9707 635.0040 635.0332 635.2669 635.9297 636.1152 637.8386
   637.9047 638.3566 638.5838 638.8086 638.9378 640.0594 640.0715 641.0762
   641.1921 641.2493 642.8894 643.1406 643.3821 644.0862 644.3631 644.9830
   645.8338 645.9997 647.1661 647.5854 647.7407 647.8712 649.0128 649.1411
   649.5720 650.1841 650.3733 652.2879 652.6380 653.0913 653.2818 653.4564
   653.6064 653.6795 654.3274 654.5619 655.3884 655.4543 655.6743 656.5592
   656.6857 659.2328 659.6826 661.2461 661.6775 661.8652 662.4073 662.7938
   662.8229 663.9579 664.1158 665.3985 665.5425 665.7342 666.0039 666.1870
   666.2091 666.3407 666.3620 668.4919 670.1651 670.6471 671.1439 673.1091
   673.2525 673.8600 674.0928 674.1351 674.1855 674.3977 674.5047 674.5225
   674.7324 675.2676 675.2951 675.3427 675.3623 675.5300 676.4445 676.6195
   677.0037 677.0406 677.1805 677.2989 677.3843 678.1942 678.9009 680.0079
   680.0945 680.1202 680.1582 681.8885 681.9332 683.3972 683.4506 683.9075
   684.1663 684.6192 684.7131 684.8657 685.0270 685.0381 685.1445 685.1603
   685.2543 686.8285 687.4164 689.4304 690.3092 691.9160 692.1453 692.2222
   692.6198 693.3233 693.3420 693.4568 693.5455 693.8868 694.8840 695.1562
   695.3926 695.5051 696.3751 696.5938 696.6827 697.6946 697.8827 697.9557
   697.9830 698.4647 699.7856 700.1399 700.9221 701.1219 701.2428 701.4585
   701.9984 702.5537 703.0534 704.5384 704.5866 704.7564 704.8890 705.7678
   705.8992 707.1803 707.2598 707.4468 707.4982 707.5310 707.6533 709.2670
   709.3045 709.3401 709.3892 714.8627 714.9169 715.7127 715.7389 716.3980
   716.5794 717.1916 717.3086 717.3240 718.1445 718.1653 718.2791 719.3147
   719.4129 719.6816 719.7221 720.8664 720.9700 721.0639 721.1154 721.2757
   721.3262 723.0632 723.1569 723.2684 723.3842 723.6849 723.9637 724.9227
   725.0664 725.1913 725.4257 725.4677 725.6191 725.6246 725.7282 727.4504
   727.5385 727.7075 727.7490 727.7795 728.9938 732.3942 732.4148 732.6327
   732.7294 733.2428 733.3591 734.1666 734.1782 735.6144 735.6733 736.1457
   736.2074 736.7757 736.8186 738.1495 738.3376 739.1364 739.1625 739.9844
   740.8246 741.2429 741.8331 742.7598 742.7730 743.6087 743.6310 744.3540
   744.4941 745.0621 745.1587 745.5002 746.2199 746.3112 746.3931 746.4543
   746.7130 747.5748 748.0417 748.1819 748.2688 748.2746 748.3381 749.6840
   749.7187 750.3982 750.4931 750.5938 750.6309 751.0129 751.1026 751.8743
   751.9636 752.4774 752.5157 754.8014 754.8533 756.6208 756.7006 758.1490
   758.1956 761.2502 761.4874 762.5328 762.5339 762.9220 762.9398 763.4687
   763.7260 766.4416 766.4853 767.4534 767.4823 767.8382 767.8879 767.9927
   768.0428 768.1891 768.2037 768.3570 768.4767 769.1762 769.2282 770.0894
   770.2686 771.2439 771.2454 771.6405 771.7090 772.7514 772.7579 776.0548
   776.2543 776.6104 776.6671 777.8770 777.9496 778.4434 778.4956 778.7936
   778.7962 779.2477 779.6402 781.3872 781.5744 782.0029 782.1498 782.1792
   782.2452 782.2968 782.4189 784.2373 784.2630 784.3009 784.3579 784.5319
   784.7043 785.0695 785.1083 785.4155 785.4209 785.6491 785.6746 787.4272
   787.4444 787.5386 787.5946 787.9655 788.1468 788.3027 788.3687 789.9610

          k = 0.0000-1.0000 0.0000 (  3692 PWs)   bands (ev):

    -1.3311   0.6971   5.1553   5.1553  10.6440  10.9659  21.3779  21.3779
    24.4715  25.8873  27.2511  27.2511  27.8545  31.9322  34.8317  35.2664
    35.2664  38.7643  39.7401  39.9440  39.9440  40.3075  47.4964  50.4477
    50.4477  52.9519  57.6972  57.6972  59.2455  59.4039  61.1656  63.5189
    65.4742  66.5378  66.5378  66.7871  67.5456  67.8511  67.8511  71.6792
    74.7420  74.7420  78.3025  82.5228  83.8969  83.8969  84.4335  86.5245
    86.5245  89.8380  90.7807  92.4181  94.0258  94.9880  94.9881  95.4613
    96.6251  96.6251  97.6160  97.7101  97.7101  97.8379  97.8862  98.1827
   103.9809 107.1088 111.1011 111.1011 111.4711 112.4009 112.4009 112.4530
   115.0362 116.7039 116.7039 116.7627 117.4042 118.4897 119.0467 119.0467
   120.5325 120.8988 121.9797 122.1552 122.1552 124.6233 124.9527 126.6962
   126.6962 127.4962 127.4962 128.5779 133.3360 136.0939 136.0939 139.2575
   140.7792 141.3224 142.1058 142.1058 145.2306 145.4098 145.4098 146.4816
   147.7625 147.7625 147.9277 148.8297 150.8660 150.8660 151.5015 153.2948
   155.4004 156.5982 156.5982 157.6315 159.4334 160.9803 160.9803 163.2851
   165.4174 165.8205 168.6210 168.6210 172.0167 173.3114 173.3114 173.8982
   175.1669 177.2934 177.9305 177.9305 178.4100 179.2032 180.8848 180.8848
   181.4163 182.0333 182.6523 182.6899 183.0073 183.0073 183.9624 184.7526
   184.7526 185.1967 185.1967 186.1789 186.2484 188.1752 190.3543 193.2826
   193.2826 193.7450 195.5888 198.3044 198.3044 198.9913 200.1916 200.7637
   200.8541 201.8179 201.8179 203.1204 203.1204 203.7702 204.0938 204.6011
   204.6147 204.6147 205.6522 205.6522 207.4710 208.4821 208.5076 209.0553
   209.0553 211.4109 211.5758 211.5758 211.8143 212.9284 213.3150 213.3150
   214.1573 214.3720 214.9547 214.9547 215.3351 216.2455 218.9593 219.0613
   219.4678 219.4678 222.1823 226.7634 226.7634 226.8061 227.9408 227.9408
   229.5638 230.4760 230.4760 231.5010 232.1744 234.2423 238.9791 238.9791
   239.3362 239.6094 240.4137 240.4137 240.7824 241.1195 241.3115 241.4681
   241.4681 244.2685 244.5713 244.6533 244.6533 246.0527 252.8325 252.8325
   253.1569 253.9403 257.0027 257.4132 257.4132 257.8188 261.8491 261.9342
   261.9342 262.2940 262.9046 263.0590 264.1471 264.5983 264.5983 265.6091
   267.1035 268.1368 268.1368 268.3046 268.4792 269.6726 269.6726 269.8590
   270.7951 270.7951 270.9900 271.3734 271.3734 272.0142 276.9900 277.1789
   277.1789 277.7343 277.7343 277.9595 279.2651 279.3993 284.1261 284.1261
   285.3388 287.3343 288.2728 288.2728 288.6625 288.7728 290.0437 290.3114
   290.3114 290.8856 290.9502 290.9502 291.1321 292.7401 292.7401 292.8076
   293.1471 293.4887 294.3036 294.3036 294.3601 294.4040 295.9090 295.9475
   295.9475 296.4719 296.5533 296.7671 296.7671 298.7632 300.6946 300.7970
   300.9444 300.9444 300.9691 300.9691 301.1609 301.1770 307.7776 309.5368
   311.2841 311.2841 311.9264 311.9264 314.3805 314.4054 319.8284 319.8284
   319.8478 319.9219 319.9219 320.0386 320.1705 320.4405 320.6009 321.8418
   322.1311 322.2685 322.2685 322.4946 322.4946 323.1820 323.3709 325.3711
   326.7299 326.7299 327.6934 327.6934 328.1504 329.6645 331.2011 331.2161
   332.3680 332.3680 332.3914 332.3914 333.2429 333.2494 335.7770 335.7770
   335.8496 336.1955 339.6932 339.6932 340.4257 341.8775 342.5443 343.8440
   343.8440 344.6518 346.3356 346.3356 347.1266 347.7477 347.9883 347.9893
   347.9893 348.1461 349.4721 350.4833 352.6435 353.2129 353.2129 353.5979
   354.5097 354.5097 355.3578 356.2253 356.5635 356.5664 356.5664 356.9438
   358.5355 358.5355 359.0734 359.3530 361.3530 361.4017 361.4017 361.4176
   361.4514 361.4514 361.5339 361.5377 367.3616 368.6193 368.6193 369.3002
   369.6530 369.8188 375.7580 375.7580 376.1780 376.3440 376.4463 376.8946
   376.8946 377.3170 377.3170 377.4537 377.6746 377.6746 381.3127 382.2082
   382.2082 382.2343 382.3270 382.5339 382.5339 382.5667 382.9924 383.4131
   383.4663 383.6899 383.7209 383.7209 384.0246 384.0451 384.0585 384.0585
   384.9669 384.9669 385.0786 385.2540 385.8697 385.8697 387.2361 387.8677
   388.2756 389.0092 389.0092 389.2839 389.3077 389.4842 389.4842 389.5678
   390.4176 390.5126 390.5126 390.5355 401.3213 404.9068 404.9068 404.9979
   405.5327 405.8893 405.8893 406.7990 407.7319 407.8305 408.9564 408.9564
   409.2512 409.2512 410.8651 410.9032 414.7373 414.7637 415.0396 415.0396
   415.1534 415.4165 415.4165 415.7309 420.7480 421.2191 421.2191 421.4698
   422.5681 423.5983 423.5983 424.1941 427.3127 427.3127 428.3876 428.8653
   429.4715 430.4222 430.4222 431.3036 434.1585 434.1585 434.4455 434.4719
   435.8450 435.8450 436.0357 436.3496 438.2167 440.9510 440.9510 442.1799
   442.1799 442.3130 442.7339 442.7561 443.7126 444.0520 444.0520 445.5377
   445.5890 445.8822 446.1479 446.1479 446.3389 446.5026 446.5026 446.8654
   447.1095 447.2158 447.2158 447.3071 447.3821 447.3821 447.4411 447.5367
   448.1985 448.2309 448.2309 448.3062 457.5953 459.0478 459.2569 459.6502
   459.9818 459.9818 460.5576 460.5576 461.5406 461.7845 462.8029 462.9475
   462.9475 463.7166 463.8121 464.1030 464.1030 464.2746 464.6295 464.6295
   465.2412 465.2666 467.5214 467.5214 467.8512 467.8512 468.4722 468.4722
   468.7190 468.7919 468.8209 468.8288 468.9069 470.1364 471.4879 471.4879
   471.8644 472.5523 472.9512 473.2773 473.2773 473.6678 474.7404 475.2319
   475.2741 475.2741 475.4085 475.4840 475.7303 475.7303 475.7835 475.8944
   476.5873 476.5873 476.6044 476.6044 477.9911 477.9911 478.0736 478.1046
   478.1119 478.1323 478.1323 478.2172 485.8172 487.2017 487.2017 487.5116
   487.5116 488.4209 488.7656 489.1456 490.8808 491.5122 492.7460 492.7460
   492.8824 493.9419 493.9419 494.2469 495.4630 495.4630 495.6496 495.6818
   496.7997 496.7997 496.8726 496.8726 497.0400 497.0624 497.6418 497.6660
   498.7741 498.7741 498.8031 498.8556 501.8703 502.7969 502.8032 502.8032
   502.9222 503.5552 503.5552 503.8683 506.5666 506.6243 507.4074 507.4347
   507.4614 507.4614 507.5001 507.5001 507.6406 507.6410 508.8648 508.8648
   521.9389 521.9389 522.3839 522.4277 522.7510 522.7510 522.8873 523.4153
   524.0455 524.4795 524.5445 524.5633 524.5633 527.1764 527.5856 528.0035
   528.0035 528.7453 528.7453 528.8391 528.9541 529.0311 529.0311 529.1926
   529.1926 529.5417 529.8336 530.1595 530.3006 530.3006 530.5225 530.6479
   530.8955 530.8955 530.9801 532.7612 533.8704 533.8866 533.8866 533.9487
   534.1566 534.1929 536.1328 536.1328 536.2156 536.2156 537.2565 537.2566
   537.4637 537.4637 537.5547 537.5668 547.9824 548.3488 548.3488 548.9036
   548.9937 549.6083 549.6083 550.6075 551.6326 552.0027 552.5586 552.5586
   553.2133 553.5526 553.6343 553.6343 554.3478 554.3478 554.4915 554.6768
   555.4894 555.5291 555.5383 555.5383 556.9940 557.2792 557.2792 557.7821
   557.9849 558.0129 558.0737 558.0737 558.1243 558.1579 558.1579 558.1736
   559.1595 559.2348 559.2348 559.3108 562.2070 562.2253 562.2301 562.2301
   564.4081 564.4098 564.4098 564.4132 574.9855 577.3636 577.3636 577.8572
   577.8572 578.4972 578.5917 579.4117 579.8161 579.9619 581.2370 581.4774
   581.4774 581.4784 581.8762 581.8762 582.0115 582.2933 583.5871 583.5871
   583.9847 584.1401 584.9580 585.3892 585.3892 585.7903 586.5193 586.5193
   586.6033 586.6475 587.3259 587.3493 587.3493 587.4550 587.8363 587.8484
   588.0985 588.0985 591.7284 592.2148 592.2148 592.6913 592.8241 592.8241
   592.8377 593.2229 593.2229 593.4737 593.5006 593.5973 596.0874 596.3135
   597.3447 597.3447 598.2305 600.1039 600.1039 602.2388 604.4485 606.1775
   613.5313 613.5313 613.5724 613.5724 614.1644 614.7186 615.3497 615.3497
   616.1604 616.1604 616.3673 616.5148 616.5904 617.0654 617.4226 617.4659
   617.4714 617.4714 617.5577 618.2627 618.3107 618.3107 618.9616 618.9616
   619.1486 619.2534 619.2534 619.2924 619.3097 619.9829 620.7776 620.7776
   620.9340 621.1866 622.6406 622.7061 622.7189 622.7189 622.7420 622.7548
   622.7548 622.8733 623.1081 623.1232 623.1232 623.1325 633.9342 634.2469
   634.7650 634.7650 634.8816 635.3350 635.5746 635.5746 635.5983 636.4421
   636.4421 636.5466 636.7217 637.0360 637.0360 637.1278 637.6657 637.7849
   637.7849 638.1480 638.1480 638.2238 638.5093 638.7643 638.9250 640.0448
   640.1553 640.5807 640.5807 640.6049 640.8605 640.8605 641.0749 641.1672
   642.3050 642.3050 642.5026 642.5026 643.8151 643.9916 644.1206 644.1206
   644.3192 644.3342 644.3983 644.3983 644.5150 644.5665 648.8970 648.9617
   648.9617 649.3613 649.6571 649.6658 649.6658 649.7983 649.8085 650.0353
   650.0353 650.1174 650.4960 650.6924 650.6924 650.6986 651.0957 651.0962
   651.1962 651.1962 651.2953 651.2953 651.2991 651.5874 653.5004 653.6234
   653.6421 653.6422 653.6422 653.7105 653.7105 653.7661 654.1112 654.1586
   654.1983 654.1983 654.2411 654.2411 654.2703 654.3043 666.3745 666.3745
   666.4222 666.6500 666.6769 667.3540 667.6111 667.6111 669.0072 669.0739
   669.2135 669.2135 669.3468 669.3475 669.3475 669.3876 676.1910 676.6822
   676.6822 676.6836 677.1926 677.2115 677.2115 677.6119 679.1248 679.1800
   679.4088 679.4088 679.6035 679.9003 679.9003 679.9645 680.3874 680.4184
   680.4184 680.9354 680.9641 681.1054 681.1845 681.1845 681.6234 681.6995
   681.6995 681.7581 681.8247 681.8820 681.8820 681.9645 693.8919 694.6274
   694.6679 695.9440 695.9440 696.2334 696.2334 697.1429 697.1429 697.4494
   697.7212 698.4025 699.4813 699.5856 699.5856 700.1721 700.4729 700.4729
   700.8640 700.8645 701.5564 702.5250 703.5501 703.5501 703.6741 703.6741
   704.1652 704.2507 705.0607 705.0676 705.7441 705.7555 705.7555 706.0521
   706.0521 706.0583 709.6346 709.6434 709.8717 709.8717 709.8757 709.8757
   710.0716 710.0779 710.5462 710.5462 710.7230 710.8085 710.8324 710.8324
   710.8324 710.8336 719.0675 719.1651 719.2786 719.2786 720.7954 722.4855
   723.6528 724.1655 724.3696 724.3696 725.5998 725.5998 725.8932 725.8932
   726.3921 726.8415 726.9135 727.1017 727.1017 727.3923 727.8715 727.9475
   728.3932 728.7952 728.7952 729.1357 729.3685 729.3685 729.5862 729.5862
   730.5607 730.7283 731.7324 731.9249 732.1438 732.1438 732.1480 732.1615
   732.2757 732.3232 732.7499 732.7499 732.7859 732.7859 732.9005 732.9011
   733.6776 733.7648 733.8329 733.8329 733.8636 733.9161 734.2323 734.2323
   734.2398 734.2398 734.7110 734.7112 738.9957 739.2214 739.8115 739.8115
   739.9782 740.0212 740.4766 740.4766 740.4797 740.4797 741.6601 741.6726
   741.7506 741.7506 750.8094 751.0865 752.0709 752.0709 752.0801 752.0801
   752.1267 752.4453 752.8494 752.8969 752.8969 753.0560 753.1774 753.8428
   753.8428 754.1895 756.1505 756.4653 756.4653 756.7824 758.0808 758.2352
   758.2352 758.3751 760.3518 760.3518 760.4645 760.5777 762.2569 762.2697
   762.2697 762.2959 766.9098 766.9120 766.9842 766.9842 767.3317 767.3912
   767.3912 767.4110 768.4404 768.4404 768.6439 768.7520 768.7673 768.9281
   768.9281 769.0242 769.0331 769.1960 769.1960 769.2319 769.2557 769.2937
   769.2937 769.4116 780.9219 781.0124 781.1496 781.1496 781.7167 781.8352
   781.8499 781.8499 785.6788 787.0906 787.2171 787.2707 787.2917 787.2917
   788.1069 788.1470 788.1470 788.2038 788.3888 788.4637 788.4637 788.5324
   788.5490 788.7418 788.7418 788.9263 789.5386 789.5386 789.8876 789.8876
   791.0971 791.1144 791.2673 791.5253 791.7760 791.7760 792.1593 792.1593

          k =-0.5000-1.0000 0.0000 (  3676 PWs)   bands (ev):

    -1.0545   1.2259   3.5970   3.7971  14.6177  16.0946  16.5312  16.7821
    22.0817  25.4279  25.6717  30.0072  31.2674  33.6699  34.6015  34.6349
    35.2185  38.5729  38.9187  40.0187  43.4078  44.8106  48.6601  48.8654
    50.3865  50.7871  52.0266  52.1722  58.3313  58.3589  61.1462  62.6256
    63.8327  65.1399  65.9105  69.2070  70.6508  71.1935  73.6095  75.0527
    77.5067  78.7678  79.3327  79.6977  80.4713  83.8634  84.5703  84.6910
    86.5025  87.9349  89.6520  90.6023  91.5533  92.1139  95.0693  95.5273
    96.0634  96.3963  97.5273  97.7580  98.9496  99.9531 100.6129 103.1746
   103.3339 104.3527 104.4130 107.8580 110.8270 111.4630 112.5895 112.9487
   116.2516 116.7427 116.9741 117.3277 118.5030 119.0467 119.3535 120.3100
   120.3332 120.9555 121.2388 124.1386 124.9442 127.1183 127.6136 128.2838
   128.7311 129.5502 131.4049 133.0693 133.4258 133.7510 134.2988 134.5300
   136.3258 137.7707 138.2592 138.3495 140.0194 141.6306 143.7632 144.4646
   144.5425 146.3943 148.1184 150.1630 150.8725 153.8558 156.2167 156.2648
   156.8759 160.1609 160.8434 163.4123 164.0650 164.6696 166.4115 167.4411
   167.9888 168.3846 168.5304 170.5504 170.7310 171.8138 172.0418 172.1412
   173.6075 174.4059 175.6086 176.2601 177.5386 177.9590 178.2677 179.0974
   179.1790 179.4078 180.7380 181.0478 181.1353 181.8407 181.8862 183.6888
   183.9243 186.0162 187.6473 187.8492 188.0533 189.4484 189.7979 190.0686
   190.8556 191.2829 191.7257 192.2736 193.1593 193.2872 194.8615 195.3598
   201.0113 201.9198 202.9910 203.8515 204.1972 205.2248 205.5651 206.1011
   206.3461 207.0670 207.0843 208.3622 208.3815 209.5834 209.7211 210.0899
   210.4938 211.8591 212.1260 212.7233 213.4172 213.6872 214.6052 214.8650
   215.6440 216.6557 218.7515 220.2709 221.1177 221.6402 221.7626 221.9350
   222.9039 223.5422 223.5714 223.7029 223.8761 224.2863 224.5348 227.4174
   228.8257 229.7628 230.2097 231.7626 231.8733 233.1082 233.1473 233.1835
   240.4433 241.9798 242.7508 243.2803 244.4153 244.6171 244.8890 244.8902
   245.9318 246.3773 247.3127 247.9598 248.2487 249.0148 249.0452 249.7699
   250.5596 252.0744 252.5069 252.8450 255.9997 257.1632 258.1617 258.5099
   258.8837 259.1734 259.8192 260.9572 261.5801 262.1379 263.0996 264.4333
   264.9481 265.0403 265.0942 265.4141 265.6533 265.7523 265.8093 267.4711
   269.2669 269.2813 269.3682 269.4198 273.1964 274.6484 275.0721 275.1277
   276.6284 278.0213 278.1024 278.6729 279.0036 279.2660 279.4418 280.1663
   280.3816 281.1501 281.1800 282.0335 284.7181 285.4650 285.8253 287.9324
   289.6092 289.9648 290.1159 291.0750 294.4347 294.5518 294.7726 295.3943
   295.4787 295.6348 298.9129 301.1295 301.7593 302.6537 303.6005 303.6787
   303.9916 304.2463 304.7102 304.8611 305.8133 306.5091 306.5549 306.9924
   307.1236 307.5345 307.8401 308.0902 308.2549 308.4660 308.7297 309.0909
   310.0210 310.2390 310.2555 310.7817 311.0249 311.2353 311.2522 311.6676
   318.4815 318.5446 319.2462 320.4158 320.5919 321.1202 321.3907 322.8814
   322.9024 323.0369 323.2419 323.2655 323.7015 323.8174 323.8897 323.8932
   327.4470 328.0223 328.8327 329.4134 330.1513 330.2894 330.5054 331.2143
   331.5162 331.5589 332.7832 333.2016 334.5918 334.6052 334.6390 335.7226
   335.8133 337.1530 338.1702 338.2124 339.1225 339.4539 339.5864 339.5879
   340.0411 340.0452 340.7280 340.9865 341.3335 341.4169 341.6711 341.7937
   344.9339 345.3187 345.3694 345.3883 349.4590 349.5609 349.5711 349.6516
   349.8983 349.9199 349.9721 350.0029 354.2519 354.5893 354.6085 355.9927
   357.1132 357.4691 357.4823 357.5348 358.0694 359.0592 359.1067 359.4251
   361.2607 361.5557 362.0071 362.1804 365.8825 366.1424 366.1862 366.5219
   366.6323 366.6917 366.6974 366.7793 375.6958 375.9548 376.7783 376.8286
   377.8873 378.0713 378.7138 379.0559 379.0811 379.2745 379.6363 380.1097
   381.1100 381.2415 381.5260 381.5444 382.1240 382.1627 383.5006 383.6822
   385.6298 387.4107 387.4613 387.6266 389.1763 389.4853 389.6850 390.4057
   393.4457 393.7333 394.5491 394.5745 395.1000 395.1742 395.3121 395.6429
   396.2761 396.5326 396.5430 396.6283 398.1102 398.2100 398.7164 399.4299
   399.7906 400.0100 400.2014 400.2254 403.6314 404.0268 404.3372 405.1451
   405.5015 405.6453 405.8910 406.4524 406.5496 406.7187 407.1326 407.1465
   407.3528 407.3655 410.2205 410.4488 410.4787 410.5786 411.4391 411.8846
   418.3530 418.4811 418.4833 419.0291 420.3678 420.6346 422.2078 422.2279
   422.2465 422.2708 422.6202 422.8848 423.5473 423.7365 424.5963 424.9183
   426.4858 426.7615 426.8659 426.9738 427.4160 427.8042 428.1402 428.6223
   430.3485 430.3758 430.4499 430.4781 435.2244 435.9817 436.4614 436.5570
   436.8148 436.8992 437.8911 437.9269 437.9711 438.1995 438.4117 439.0556
   439.2040 439.2694 439.4554 439.5236 439.8843 440.4831 440.5436 440.6077
   441.3639 441.5497 442.2207 442.2404 449.8713 449.9008 450.8788 451.2230
   453.6311 453.6525 453.8477 453.9688 455.4067 456.8642 457.1623 457.8104
   459.1348 460.7718 460.8351 460.8949 461.9010 462.4284 462.7356 463.0384
   463.4026 464.0624 464.1737 465.7035 467.3504 467.4402 467.7999 468.0959
   468.1012 468.3884 468.5417 469.0467 469.1586 469.7340 469.8246 470.5650
   470.9772 471.0711 471.2081 471.3207 472.5787 472.5857 472.6886 472.7550
   472.8701 472.8883 473.0328 473.3906 476.9410 477.5318 477.5886 478.1067
   478.2686 478.8714 478.9945 479.0836 479.1153 479.3027 479.3634 479.4856
   479.6009 480.1003 480.4324 480.5456 480.9039 481.1157 481.3332 481.3504
   482.4736 482.7655 482.7866 482.8599 484.3522 484.3708 484.9707 485.1486
   487.5398 487.7069 487.8656 487.9768 488.0969 488.1387 488.2249 488.2786
   488.4554 488.4675 488.5219 488.5831 496.1484 496.3797 496.8575 497.5648
   499.0394 499.1562 499.3285 499.4325 499.4393 499.5572 499.7976 499.7984
   504.2868 504.3486 504.8398 505.4042 505.6934 505.9308 506.1138 506.8933
   508.2477 508.6631 509.2411 509.3657 509.4277 509.5189 509.5999 509.8438
   511.0368 511.0518 511.1500 511.2239 511.4663 512.3915 512.5406 512.6464
   513.1026 513.1038 513.3052 513.5085 514.1025 514.1129 514.3650 514.3848
   519.8398 520.9291 524.0346 524.0584 524.0829 524.4430 525.4602 525.6910
   525.8379 525.8710 526.4788 526.4835 526.6089 526.6833 526.8166 527.0332
   527.0604 527.1051 527.5805 527.5865 527.6047 528.1228 528.1969 528.2205
   528.2754 528.3086 528.3895 528.5867 528.7208 528.7526 528.7783 529.2664
   530.3652 530.3823 530.9097 530.9395 540.3059 540.7802 540.9471 541.1812
   541.3839 541.4526 541.8039 541.8728 543.1175 543.3176 543.3566 543.3947
   543.4454 543.5253 543.6413 543.6515 546.6630 548.7476 549.0738 550.1206
   551.5489 551.8691 552.0427 552.2982 552.4530 552.6120 553.1417 553.3596
   554.7799 555.1655 555.1663 555.3330 555.4228 555.5708 555.8673 556.7164
   556.8360 557.2431 558.9275 558.9648 559.1514 559.1682 559.1733 559.2626
   568.4562 568.8166 568.8518 569.3255 570.1997 570.5013 570.7732 571.3361
   571.4327 571.7558 571.8268 571.9628 575.7568 575.8686 575.9889 576.0133
   578.1479 578.5540 578.6238 579.1989 579.4864 580.2055 580.5664 581.7341
   582.6693 582.7405 583.3858 583.7090 583.7587 583.8895 584.3039 584.6407
   584.7497 584.8953 584.9162 585.5767 587.0473 587.0732 587.1000 587.2991
   587.5297 587.6612 587.7082 587.7153 594.3918 594.6851 594.9183 595.0526
   595.8101 595.8577 598.4863 598.6543 598.7530 598.8189 598.9034 598.9660
   599.0449 599.0885 599.5471 599.6508 600.4066 600.4285 600.6385 600.6819
   600.6870 601.0679 601.1148 601.2808 605.9822 606.0950 606.6575 606.6589
   607.1114 607.7207 608.2777 608.2889 609.8680 610.3402 610.7199 611.3351
   612.3882 612.5370 613.2188 613.2838 613.5684 613.7180 613.7744 613.8719
   613.9568 614.3548 614.6069 614.7293 614.8817 614.9875 615.1419 615.3184
   615.3741 615.4195 615.4737 615.5818 616.4978 616.5845 616.6562 616.7301
   616.9071 616.9689 617.0434 617.1752 618.0410 618.0921 618.1218 618.2269
   619.5486 619.7200 619.7418 619.9634 620.0056 620.0892 620.1335 620.1714
   626.1397 626.2080 626.3058 626.6616 627.7956 627.8899 628.5489 628.6740
   628.8780 629.2160 629.6179 629.7002 629.9315 630.0425 630.1817 630.2203
   630.5431 630.6444 630.6820 630.7617 630.8090 630.8253 630.9227 630.9492
   630.9573 630.9816 631.0121 631.0966 640.9732 641.8723 642.1702 642.1842
   643.7396 643.9597 644.0808 644.4502 644.5542 645.5086 645.5940 645.7191
   645.7610 646.0897 646.4809 646.7245 646.8599 646.8802 646.9501 647.2644
   651.5241 651.5738 652.0044 652.1174 652.9452 652.9486 653.4083 653.5648
   653.7236 654.3232 655.8336 656.2506 656.4693 657.0911 657.1656 657.3552
   657.9238 657.9323 657.9645 658.0967 658.1225 658.3632 659.8749 659.9167
   659.9358 659.9700 660.7339 661.0235 663.6671 663.7853 663.8737 663.8766
   664.3589 664.3719 664.3726 664.4077 666.5101 666.8780 666.9963 667.2706
   667.4976 667.8715 668.1011 668.2744 668.6809 668.8917 668.9649 669.2779
   673.4556 673.5290 673.5294 673.6076 674.5270 674.5766 674.5777 674.5812
   681.1370 681.2009 681.4890 681.5653 682.7231 684.1534 684.7750 685.0012
   685.0891 685.1172 685.1947 685.2328 685.4194 685.5632 685.6055 685.6281
   685.7142 685.8250 685.9506 686.0405 686.7761 687.5057 687.5551 687.7448
   688.1215 688.3562 688.4145 688.5650 688.8985 688.9708 690.5219 690.6236
   692.1563 692.1607 692.2325 692.3263 693.8817 693.9166 693.9801 694.1181
   695.4464 695.5179 695.7837 695.9740 696.0142 696.1081 696.2849 696.5149
   699.5289 699.8191 700.4931 700.6905 701.4903 701.5929 701.7639 701.9913
   702.1823 702.4179 702.6986 702.7927 703.2944 703.4883 703.5301 703.5868
   703.5980 703.6912 703.7682 703.9965 704.0942 704.1258 704.1559 704.2048
   704.5339 704.5746 704.7016 704.7676 707.3134 707.4217 707.5100 707.5171
   707.7125 707.7594 707.7851 707.7965 717.1607 717.3966 717.4279 717.4719
   717.4732 717.5086 718.0036 718.0502 718.1651 718.2001 718.2549 718.3197
   722.9518 723.4600 723.4956 724.0331 724.2852 724.3366 724.4044 724.9069
   724.9236 725.3800 725.4285 725.4536 727.6021 727.6643 727.7263 727.7983
   727.9187 728.0021 728.0155 728.0950 731.9111 731.9515 731.9520 731.9715
   733.9656 734.0115 734.1795 734.1822 735.8293 735.8717 735.9772 736.0238
   736.8037 736.9222 736.9421 736.9786 742.3053 742.3583 742.9009 742.9753
   742.9991 743.6396 743.7505 743.8780 744.0771 744.1982 744.2370 744.3217
   744.5897 744.6878 744.7228 744.8156 744.9990 745.2856 745.5689 745.6554
   746.0970 746.1734 746.2805 746.3271 747.3194 747.3220 747.4349 747.4414
   747.6080 747.6530 747.9177 747.9224 748.4715 748.4771 748.5702 748.5964
   749.1176 749.2705 749.5020 749.5393 749.5986 749.6243 749.6392 749.7411
   760.8852 760.9911 761.0327 761.1920 761.2024 761.2534 761.3636 761.3707
   762.2873 762.2953 762.3161 762.4283 763.9050 763.9080 763.9223 763.9280
   768.4021 768.6178 768.8547 768.9683 772.1215 772.1623 772.1722 772.2992
   772.6582 773.1044 773.1128 773.1259 775.6270 775.6792 775.7422 775.7429
   776.5117 776.6039 776.6352 776.6566 776.7380 776.7820 776.7974 776.8035
   776.8351 776.9037 776.9438 777.0596 778.3594 778.4877 778.4929 778.4946
   782.0023 782.2549 782.3120 782.3278 782.4434 782.9617 782.9927 783.0203
   783.9016 783.9396 783.9415 784.0886 788.0911 788.1020 788.1349 788.1419
   790.0645 790.2248 790.2640 790.2842 790.4381 790.5254 790.5311 790.5787

     the Fermi energy is     9.4309 ev
     (compare with:     9.3220 eV, computed in scf)

     Writing all to output data dir out/mp-1479.save/
 
     init_run     :      0.05s CPU      0.10s WALL (       1 calls)
     electrons    :    861.78s CPU    929.99s WALL (       1 calls)

     Called by init_run:
     wfcinit      :      0.00s CPU      0.00s WALL (       1 calls)
     potinit      :      0.01s CPU      0.04s WALL (       1 calls)
     hinit0       :      0.02s CPU      0.02s WALL (       1 calls)

     Called by electrons:
     c_bands      :    861.78s CPU    929.98s WALL (       1 calls)
     v_of_rho     :      0.01s CPU      0.03s WALL (       1 calls)

     Called by c_bands:
     init_us_2    :      0.00s CPU      0.00s WALL (       8 calls)
     init_us_2:cp :      0.00s CPU      0.00s WALL (       8 calls)
     cegterg      :    841.31s CPU    908.31s WALL (       8 calls)

     Called by *egterg:
     cdiaghg      :    785.36s CPU    851.45s WALL (      80 calls)
     h_psi        :     16.82s CPU     17.35s WALL (      88 calls)
     g_psi        :      0.11s CPU      0.11s WALL (      72 calls)

     Called by h_psi:
     h_psi:calbec :      0.18s CPU      0.19s WALL (      88 calls)
     vloc_psi     :     16.41s CPU     16.93s WALL (      88 calls)
     add_vuspsi   :      0.13s CPU      0.13s WALL (      88 calls)

     General routines
     calbec       :      0.18s CPU      0.19s WALL (      88 calls)
     fft          :      0.00s CPU      0.01s WALL (      10 calls)
     fftw         :     14.88s CPU     15.35s WALL (  117524 calls)
 
     Parallel routines
 
     PWSCF        :  14m22.65s CPU  15m31.38s WALL

 
   This run was terminated on:   1:38:23   5Dec2023            

=------------------------------------------------------------------------------=
   JOB DONE.
=------------------------------------------------------------------------------=
