
     Program PWSCF v.7.1 starts on 17Nov2023 at 12:17: 4 

     This program is part of the open-source Quantum ESPRESSO suite
     for quantum simulation of materials; please cite
         "P. Giannozzi et al., J. Phys.:Condens. Matter 21 395502 (2009);
         "P. Giannozzi et al., J. Phys.:Condens. Matter 29 465901 (2017);
         "P. Giannozzi et al., J. Chem. Phys. 152 154105 (2020);
          URL http://www.quantum-espresso.org", 
     in publications or presentations arising from this work. More details at
     http://www.quantum-espresso.org/quote

     Parallel version (MPI), running on    24 processors

     MPI processes distributed on     1 nodes
     123212 MiB available memory on the printing compute node when the environment starts
 
     Reading input from pw_mp-1672_scf_k3000_E60.in
Warning: card &CELL ignored
Warning: card / ignored

     Current dimensions of program PWSCF are:
     Max number of different atomic species (ntypx) = 10
     Max number of k-points (npk) =  40000
     Max angular momentum in pseudopotentials (lmaxx) =  4
 
     K-points division:     npool     =       2
     R & G space division:  proc/nbgrp/npool/nimage =      12
     Subspace diagonalization in iterative solution of the eigenvalue problem:
     a serial algorithm will be used

 
     Parallelization info
     --------------------
     sticks:   dense  smooth     PW     G-vecs:    dense   smooth      PW
     Min          79      79     24                 1632     1632     273
     Max          80      80     25                 1635     1635     275
     Sum         955     955    295                19603    19603    3287
 
     Using Slab Decomposition
 


     bravais-lattice index     =            2
     lattice parameter (alat)  =      10.7804  a.u.
     unit-cell volume          =     313.2175 (a.u.)^3
     number of atoms/cell      =            2
     number of atomic types    =            2
     number of electrons       =        16.00
     number of Kohn-Sham states=           16
     kinetic-energy cutoff     =      60.0000  Ry
     charge density cutoff     =     240.0000  Ry
     scf convergence threshold =      1.0E-10
     mixing beta               =       0.7000
     number of iterations used =            8  plain     mixing
     Exchange-correlation= PBE
                           (   1   4   3   4   0   0   0)

     celldm(1)=  10.780412  celldm(2)=   0.000000  celldm(3)=   0.000000
     celldm(4)=   0.000000  celldm(5)=   0.000000  celldm(6)=   0.000000

     crystal axes: (cart. coord. in units of alat)
               a(1) = (  -0.500000   0.000000   0.500000 )  
               a(2) = (   0.000000   0.500000   0.500000 )  
               a(3) = (  -0.500000   0.500000   0.000000 )  

     reciprocal axes: (cart. coord. in units 2 pi/alat)
               b(1) = ( -1.000000 -1.000000  1.000000 )  
               b(2) = (  1.000000  1.000000  1.000000 )  
               b(3) = ( -1.000000  1.000000 -1.000000 )  


     PseudoPot. # 1 for Ca read from file:
     /usr/scratch4/magr4985/MG/HTDF/pseudo/SG15/Ca.upf
     MD5 check sum: b43c970dc090f2312d256360aabdb6f1
     Pseudo is Norm-conserving, Zval = 10.0
     Generated using ONCVPSP code by D. R. Hamann
     Using radial grid of  602 points,  6 beta functions with: 
                l(1) =   0
                l(2) =   0
                l(3) =   1
                l(4) =   1
                l(5) =   2
                l(6) =   2

     PseudoPot. # 2 for S  read from file:
     /usr/scratch4/magr4985/MG/HTDF/pseudo/SG15/S.upf
     MD5 check sum: f9d020296ee6110346977bfd66d424f6
     Pseudo is Norm-conserving, Zval =  6.0
     Generated using ONCVPSP code by D. R. Hamann
     Using radial grid of  602 points,  4 beta functions with: 
                l(1) =   0
                l(2) =   0
                l(3) =   1
                l(4) =   1

     atomic species   valence    mass     pseudopotential
        Ca            10.00    40.07800     Ca( 1.00)
        S              6.00    32.06500     S ( 1.00)

     48 Sym. Ops., with inversion, found



   Cartesian axes

     site n.     atom                  positions (alat units)
         1           Ca  tau(   1) = (   0.0000000   0.0000000   0.0000000  )
         2           S   tau(   2) = (  -0.5000000   0.5000000   0.5000000  )

     number of k points=    72  Gaussian smearing, width (Ry)=  0.0005
                       cart. coord. in units 2pi/alat
        k(    1) = (   0.0000000   0.0000000   0.0000000), wk =   0.0011574
        k(    2) = (  -0.0833333   0.0833333  -0.0833333), wk =   0.0092593
        k(    3) = (  -0.1666667   0.1666667  -0.1666667), wk =   0.0092593
        k(    4) = (  -0.2500000   0.2500000  -0.2500000), wk =   0.0092593
        k(    5) = (  -0.3333333   0.3333333  -0.3333333), wk =   0.0092593
        k(    6) = (  -0.4166667   0.4166667  -0.4166667), wk =   0.0092593
        k(    7) = (   0.5000000  -0.5000000   0.5000000), wk =   0.0046296
        k(    8) = (   0.0000000   0.1666667   0.0000000), wk =   0.0069444
        k(    9) = (  -0.0833333   0.2500000  -0.0833333), wk =   0.0277778
        k(   10) = (  -0.1666667   0.3333333  -0.1666667), wk =   0.0277778
        k(   11) = (  -0.2500000   0.4166667  -0.2500000), wk =   0.0277778
        k(   12) = (  -0.3333333   0.5000000  -0.3333333), wk =   0.0277778
        k(   13) = (   0.5833333  -0.4166667   0.5833333), wk =   0.0277778
        k(   14) = (   0.5000000  -0.3333333   0.5000000), wk =   0.0277778
        k(   15) = (   0.4166667  -0.2500000   0.4166667), wk =   0.0277778
        k(   16) = (   0.3333333  -0.1666667   0.3333333), wk =   0.0277778
        k(   17) = (   0.2500000  -0.0833333   0.2500000), wk =   0.0277778
        k(   18) = (   0.1666667  -0.0000000   0.1666667), wk =   0.0138889
        k(   19) = (   0.0000000   0.3333333   0.0000000), wk =   0.0069444
        k(   20) = (  -0.0833333   0.4166667  -0.0833333), wk =   0.0277778
        k(   21) = (  -0.1666667   0.5000000  -0.1666667), wk =   0.0277778
        k(   22) = (  -0.2500000   0.5833333  -0.2500000), wk =   0.0277778
        k(   23) = (   0.6666667  -0.3333333   0.6666667), wk =   0.0277778
        k(   24) = (   0.5833333  -0.2500000   0.5833333), wk =   0.0277778
        k(   25) = (   0.5000000  -0.1666667   0.5000000), wk =   0.0277778
        k(   26) = (   0.4166667  -0.0833333   0.4166667), wk =   0.0277778
        k(   27) = (   0.3333333   0.0000000   0.3333333), wk =   0.0138889
        k(   28) = (   0.0000000   0.5000000   0.0000000), wk =   0.0069444
        k(   29) = (  -0.0833333   0.5833333  -0.0833333), wk =   0.0277778
        k(   30) = (  -0.1666667   0.6666667  -0.1666667), wk =   0.0277778
        k(   31) = (   0.7500000  -0.2500000   0.7500000), wk =   0.0277778
        k(   32) = (   0.6666667  -0.1666667   0.6666667), wk =   0.0277778
        k(   33) = (   0.5833333  -0.0833333   0.5833333), wk =   0.0277778
        k(   34) = (   0.5000000   0.0000000   0.5000000), wk =   0.0138889
        k(   35) = (   0.0000000   0.6666667   0.0000000), wk =   0.0069444
        k(   36) = (  -0.0833333   0.7500000  -0.0833333), wk =   0.0277778
        k(   37) = (   0.8333333  -0.1666667   0.8333333), wk =   0.0277778
        k(   38) = (   0.7500000  -0.0833333   0.7500000), wk =   0.0277778
        k(   39) = (   0.6666667  -0.0000000   0.6666667), wk =   0.0138889
        k(   40) = (   0.0000000   0.8333333   0.0000000), wk =   0.0069444
        k(   41) = (   0.9166667  -0.0833333   0.9166667), wk =   0.0277778
        k(   42) = (   0.8333333   0.0000000   0.8333333), wk =   0.0138889
        k(   43) = (   0.0000000  -1.0000000   0.0000000), wk =   0.0034722
        k(   44) = (  -0.1666667   0.3333333   0.0000000), wk =   0.0277778
        k(   45) = (  -0.2500000   0.4166667  -0.0833333), wk =   0.0555556
        k(   46) = (  -0.3333333   0.5000000  -0.1666667), wk =   0.0555556
        k(   47) = (   0.5833333  -0.4166667   0.7500000), wk =   0.0555556
        k(   48) = (   0.5000000  -0.3333333   0.6666667), wk =   0.0277778
        k(   49) = (  -0.1666667   0.5000000   0.0000000), wk =   0.0277778
        k(   50) = (  -0.2500000   0.5833333  -0.0833333), wk =   0.0555556
        k(   51) = (   0.6666667  -0.3333333   0.8333333), wk =   0.0555556
        k(   52) = (   0.5833333  -0.2500000   0.7500000), wk =   0.0555556
        k(   53) = (   0.5000000  -0.1666667   0.6666667), wk =   0.0555556
        k(   54) = (   0.4166667  -0.0833333   0.5833333), wk =   0.0555556
        k(   55) = (   0.3333333   0.0000000   0.5000000), wk =   0.0277778
        k(   56) = (  -0.1666667   0.6666667  -0.0000000), wk =   0.0277778
        k(   57) = (   0.7500000  -0.2500000   0.9166667), wk =   0.0555556
        k(   58) = (   0.6666667  -0.1666667   0.8333333), wk =   0.0555556
        k(   59) = (   0.5833333  -0.0833333   0.7500000), wk =   0.0555556
        k(   60) = (   0.5000000   0.0000000   0.6666667), wk =   0.0277778
        k(   61) = (   0.8333333  -0.1666667   1.0000000), wk =   0.0277778
        k(   62) = (   0.7500000  -0.0833333   0.9166667), wk =   0.0555556
        k(   63) = (   0.6666667   0.0000000   0.8333333), wk =   0.0277778
        k(   64) = (  -0.1666667  -1.0000000  -0.0000000), wk =   0.0138889
        k(   65) = (   0.6666667  -0.3333333   1.0000000), wk =   0.0277778
        k(   66) = (   0.5833333  -0.2500000   0.9166667), wk =   0.0555556
        k(   67) = (   0.5000000  -0.1666667   0.8333333), wk =   0.0277778
        k(   68) = (   0.6666667  -0.1666667   1.0000000), wk =   0.0277778
        k(   69) = (   0.5833333  -0.0833333   0.9166667), wk =   0.0555556
        k(   70) = (   0.5000000   0.0000000   0.8333333), wk =   0.0277778
        k(   71) = (  -0.3333333  -1.0000000   0.0000000), wk =   0.0138889
        k(   72) = (  -0.5000000  -1.0000000   0.0000000), wk =   0.0069444

     Dense  grid:    19603 G-vectors     FFT dimensions: (  40,  40,  40)

     Estimated max dynamical RAM per process >       4.04 MB

     Estimated total dynamical RAM >      92.18 MB

     Initial potential from superposition of free atoms

     starting charge      15.7857, renormalised to      16.0000
     Starting wfcs are random

     total cpu time spent up to now is        0.2 secs

     Self-consistent Calculation

     iteration #  1     ecut=    60.00 Ry     beta= 0.70
     Davidson diagonalization with overlap
     ethr =  1.00E-02,  avg # of iterations =  9.1

     Threshold (ethr) on eigenvalues was too large:
     Diagonalizing with lowered threshold

     Davidson diagonalization with overlap
     ethr =  4.62E-04,  avg # of iterations =  2.5

     total cpu time spent up to now is        1.4 secs

     total energy              =     -94.49326760 Ry
     estimated scf accuracy    <       0.07387718 Ry

     iteration #  2     ecut=    60.00 Ry     beta= 0.70
     Davidson diagonalization with overlap
     ethr =  4.62E-04,  avg # of iterations =  3.6

     total cpu time spent up to now is        1.9 secs

     total energy              =     -94.51148714 Ry
     estimated scf accuracy    <       0.03169872 Ry

     iteration #  3     ecut=    60.00 Ry     beta= 0.70
     Davidson diagonalization with overlap
     ethr =  1.98E-04,  avg # of iterations =  2.0

     total cpu time spent up to now is        2.2 secs

     total energy              =     -94.51886030 Ry
     estimated scf accuracy    <       0.00060650 Ry

     iteration #  4     ecut=    60.00 Ry     beta= 0.70
     Davidson diagonalization with overlap
     ethr =  3.79E-06,  avg # of iterations =  7.2

     total cpu time spent up to now is        2.7 secs

     total energy              =     -94.51894811 Ry
     estimated scf accuracy    <       0.00000361 Ry

     iteration #  5     ecut=    60.00 Ry     beta= 0.70
     Davidson diagonalization with overlap
     ethr =  2.26E-08,  avg # of iterations =  2.8

     total cpu time spent up to now is        3.1 secs

     total energy              =     -94.51895001 Ry
     estimated scf accuracy    <       0.00000034 Ry

     iteration #  6     ecut=    60.00 Ry     beta= 0.70
     Davidson diagonalization with overlap
     ethr =  2.13E-09,  avg # of iterations =  2.0

     total cpu time spent up to now is        3.4 secs

     total energy              =     -94.51895013 Ry
     estimated scf accuracy    <          9.3E-09 Ry

     iteration #  7     ecut=    60.00 Ry     beta= 0.70
     Davidson diagonalization with overlap
     ethr =  5.81E-11,  avg # of iterations =  2.7

     total cpu time spent up to now is        3.8 secs

     total energy              =     -94.51895013 Ry
     estimated scf accuracy    <          2.2E-09 Ry

     iteration #  8     ecut=    60.00 Ry     beta= 0.70
     Davidson diagonalization with overlap
     ethr =  1.38E-11,  avg # of iterations =  2.0

     total cpu time spent up to now is        4.1 secs

     End of self-consistent calculation

          k = 0.0000 0.0000 0.0000 (  2445 PWs)   bands (ev):

   -33.2893 -14.2633 -14.2633 -14.2633  -5.3286   5.9789   5.9789   5.9789
    10.0927  10.1446  10.1446  10.1446  10.7330  10.7330  16.8427  19.0214

          k =-0.0833 0.0833-0.0833 (  2466 PWs)   bands (ev):

   -33.2885 -14.2744 -14.2641 -14.2641  -5.2807   5.6557   5.8734   5.8734
    10.1308  10.2490  10.2490  10.4748  10.9157  10.9157  16.9391  18.8681

          k =-0.1667 0.1667-0.1667 (  2475 PWs)   bands (ev):

   -33.2865 -14.3045 -14.2665 -14.2665  -5.1467   4.9421   5.6166   5.6166
    10.1505  10.5278  10.5278  11.3199  11.4231  11.4231  16.8172  18.3118

          k =-0.2500 0.2500-0.2500 (  2463 PWs)   bands (ev):

   -33.2838 -14.3450 -14.2696 -14.2696  -4.9554   4.1671   5.3187   5.3187
    10.2615  10.9400  10.9400  12.1355  12.1355  12.1982  16.3076  17.3752

          k =-0.3333 0.3333-0.3333 (  2473 PWs)   bands (ev):

   -33.2811 -14.3848 -14.2728 -14.2728  -4.7524   3.5065   5.0621   5.0621
    10.5133  11.4402  11.4402  12.6069  12.9114  12.9114  16.1846  16.3322

          k =-0.4167 0.4167-0.4167 (  2461 PWs)   bands (ev):

   -33.2791 -14.4135 -14.2751 -14.2751  -4.5949   3.0639   4.8934   4.8934
    10.9000  11.9172  11.9172  12.3346  13.6254  13.6254  15.3828  15.3828

          k = 0.5000-0.5000 0.5000 (  2452 PWs)   bands (ev):

   -33.2783 -14.4239 -14.2760 -14.2760  -4.5350   2.9077   4.8349   4.8349
    11.1987  12.0047  12.1355  12.1355  14.0626  14.0626  14.8355  14.8355

          k = 0.0000 0.1667 0.0000 (  2457 PWs)   bands (ev):

   -33.2883 -14.2740 -14.2664 -14.2664  -5.2662   5.5097   5.8818   5.8818
     9.9753  10.3740  10.4036  10.4036  10.7827  11.2610  17.0002  18.6340

          k =-0.0833 0.2500-0.0833 (  2472 PWs)   bands (ev):

   -33.2867 -14.2960 -14.2700 -14.2678  -5.1651   4.9864   5.6702   5.7124
     9.9146  10.5353  10.6911  10.9060  11.0404  11.9567  17.0164  18.2118

          k =-0.1667 0.3333-0.1667 (  2476 PWs)   bands (ev):

   -33.2842 -14.3320 -14.2739 -14.2701  -4.9990   4.3321   5.3453   5.4475
    10.0042  10.8683  11.0570  11.6151  11.6196  12.7597  16.4984  17.4822

          k =-0.2500 0.4167-0.2500 (  2465 PWs)   bands (ev):

   -33.2815 -14.3707 -14.2771 -14.2739  -4.8064   3.7068   5.0522   5.1795
    10.2317  11.3243  11.5277  12.2941  12.3153  13.3504  15.9940  16.6181

          k =-0.3333 0.5000-0.3333 (  2458 PWs)   bands (ev):

   -33.2792 -14.4021 -14.2787 -14.2780  -4.6384   3.2333   4.8526   4.9706
    10.6057  11.8309  11.9898  12.4095  12.9624  13.8092  15.3531  15.8893

          k = 0.5833-0.4167 0.5833 (  2460 PWs)   bands (ev):

   -33.2781 -14.4180 -14.2815 -14.2783  -4.5473   2.9974   4.7691   4.8556
    11.0493  11.9745  12.1682  12.2581  13.6316  13.9996  14.8912  15.3110

          k = 0.5000-0.3333 0.5000 (  2460 PWs)   bands (ev):

   -33.2783 -14.4147 -14.2832 -14.2760  -4.5651   3.0434   4.8071   4.8498
    11.0256  11.9209  12.0092  12.3853  13.3493  14.0571  15.1958  15.3162

          k = 0.4167-0.2500 0.4167 (  2458 PWs)   bands (ev):

   -33.2799 -14.3930 -14.2827 -14.2725  -4.6854   3.3638   4.9542   4.9605
    10.6370  11.4484  11.9553  12.3743  12.8211  13.6148  15.9557  15.9871

          k = 0.3333-0.1667 0.3333 (  2473 PWs)   bands (ev):

   -33.2824 -14.3584 -14.2799 -14.2686  -4.8671   3.9025   5.1555   5.2101
    10.3564  10.9583  11.4515  11.7442  12.7131  12.8448  16.1945  16.6956

          k = 0.2500-0.0833 0.2500 (  2471 PWs)   bands (ev):

   -33.2851 -14.3202 -14.2754 -14.2654  -5.0565   4.5664   5.4212   5.5120
    10.2287  10.5592  10.9231  11.0870  12.0463  12.0962  16.6907  17.3785

          k = 0.1667-0.0000 0.1667 (  2481 PWs)   bands (ev):

   -33.2874 -14.2892 -14.2697 -14.2638  -5.2055   5.2214   5.6910   5.7745
    10.1851  10.3087  10.4585  10.7079  11.3008  11.3650  16.9918  18.1370

          k = 0.0000 0.3333 0.0000 (  2473 PWs)   bands (ev):

   -33.2856 -14.3010 -14.2750 -14.2750  -5.1078   4.6758   5.6660   5.6660
     9.5678  10.7193  10.9221  11.0615  11.0615  12.7214  17.2903  17.9181

          k =-0.0833 0.4167-0.0833 (  2471 PWs)   bands (ev):

   -33.2836 -14.3254 -14.2802 -14.2786  -4.9879   4.2538   5.4343   5.4982
     9.4835  11.0209  11.1144  11.5187  11.5289  13.5310  16.5799  17.1539

          k =-0.1667 0.5000-0.1667 (  2467 PWs)   bands (ev):

   -33.2811 -14.3571 -14.2841 -14.2830  -4.8332   3.8323   5.0856   5.2751
     9.6505  11.5143  11.5243  12.0299  12.0400  14.0581  15.5239  16.8278

          k =-0.2500 0.5833-0.2500 (  2458 PWs)   bands (ev):

   -33.2789 -14.3852 -14.2893 -14.2857  -4.6832   3.4738   4.7879   5.0644
    10.0070  12.0479  12.0571  12.3617  12.4529  14.1656  14.7796  16.4739

          k = 0.6667-0.3333 0.6667 (  2450 PWs)   bands (ev):

   -33.2775 -14.4024 -14.2960 -14.2846  -4.5806   3.2433   4.6210   4.9135
    10.5205  12.0464  12.2592  12.5483  13.0077  13.9944  14.6802  16.0971

          k = 0.5833-0.2500 0.5833 (  2452 PWs)   bands (ev):

   -33.2773 -14.4046 -14.3008 -14.2811  -4.5584   3.1959   4.6003   4.8488
    11.0650  11.6244  12.0125  12.6847  13.3571  13.7158  15.2677  15.8444

          k = 0.5000-0.1667 0.5000 (  2461 PWs)   bands (ev):

   -33.2784 -14.3920 -14.3019 -14.2761  -4.6241   3.3491   4.7177   4.8802
    10.9401  11.5778  11.9300  12.2532  12.9398  14.0495  15.7379  15.9009

          k = 0.4167-0.0833 0.4167 (  2457 PWs)   bands (ev):

   -33.2804 -14.3688 -14.2979 -14.2709  -4.7564   3.6731   4.9524   5.0028
    10.6753  11.1305  11.5329  12.0524  12.8277  13.5919  16.1441  16.1513

          k = 0.3333 0.0000 0.3333 (  2485 PWs)   bands (ev):

   -33.2829 -14.3425 -14.2883 -14.2670  -4.9149   4.1049   5.1964   5.2535
    10.4725  10.7715  11.0726  11.4930  12.7104  12.8165  16.4850  16.4951

          k = 0.0000 0.5000 0.0000 (  2477 PWs)   bands (ev):

   -33.2820 -14.3331 -14.2868 -14.2868  -4.9255   4.0300   5.4493   5.4493
     9.1017  11.1224  11.1428  11.8478  11.8478  14.3398  15.8482  17.4616

          k =-0.0833 0.5833-0.0833 (  2462 PWs)   bands (ev):

   -33.2800 -14.3524 -14.2928 -14.2919  -4.8271   3.8068   5.2302   5.3181
     9.0597  11.3492  11.5154  12.1944  12.2040  14.7606  14.9967  17.1304

          k =-0.1667 0.6667-0.1667 (  2455 PWs)   bands (ev):

   -33.2780 -14.3717 -14.3015 -14.2943  -4.7175   3.6447   4.8620   5.1505
     9.3237  11.7909  12.1200  12.3939  12.4359  14.0340  14.9188  17.0391

          k = 0.7500-0.2500 0.7500 (  2454 PWs)   bands (ev):

   -33.2766 -14.3836 -14.3129 -14.2932  -4.6252   3.5520   4.5243   4.9959
     9.8003  12.2354  12.3430  12.4874  12.7063  13.6055  14.8475  16.7990

          k = 0.6667-0.1667 0.6667 (  2450 PWs)   bands (ev):

   -33.2762 -14.3859 -14.3231 -14.2890  -4.5766   3.5039   4.3544   4.8908
    10.4387  11.8276  12.1773  12.6031  13.1174  13.7405  15.1322  16.3192

          k = 0.5833-0.0833 0.5833 (  2457 PWs)   bands (ev):

   -33.2768 -14.3814 -14.3260 -14.2827  -4.5866   3.4856   4.4099   4.8555
    11.1676  11.4713  11.8110  12.0891  13.6741  13.7807  15.5928  16.0095

          k = 0.5000 0.0000 0.5000 (  2461 PWs)   bands (ev):

   -33.2784 -14.3756 -14.3163 -14.2761  -4.6530   3.5318   4.6434   4.8956
    11.1013  11.4325  11.5857  11.9942  13.1189  14.0463  15.8539  16.1032

          k = 0.0000 0.6667 0.0000 (  2465 PWs)   bands (ev):

   -33.2785 -14.3599 -14.2985 -14.2985  -4.7907   3.7243   5.2911   5.2911
     8.7055  11.3356  11.6172  12.4377  12.4377  14.0769  15.6529  17.6310

          k =-0.0833 0.7500-0.0833 (  2449 PWs)   bands (ev):

   -33.2769 -14.3703 -14.3061 -14.3021  -4.7332   3.6828   5.0850   5.2026
     8.7404  11.5478  11.9850  12.5659  12.5790  13.4196  15.7686  17.3952

          k = 0.8333-0.1667 0.8333 (  2450 PWs)   bands (ev):

   -33.2758 -14.3742 -14.3202 -14.3018  -4.6689   3.7216   4.6741   5.0827
     9.1052  11.9603  12.4570  12.5597  12.6089  12.9436  15.5981  17.0923

          k = 0.7500-0.0833 0.7500 (  2455 PWs)   bands (ev):

   -33.2753 -14.3682 -14.3394 -14.2975  -4.6138   3.8384   4.2303   4.9676
     9.6815  12.1960  12.3778  12.5176  12.5250  13.4073  15.5460  16.4664

          k = 0.6667-0.0000 0.6667 (  2440 PWs)   bands (ev):

   -33.2757 -14.3649 -14.3475 -14.2906  -4.5832   3.7535   4.1359   4.8863
    10.4042  11.8944  12.1018  12.1647  13.1686  13.9762  15.6298  15.8106

          k = 0.0000 0.8333 0.0000 (  2446 PWs)   bands (ev):

   -33.2759 -14.3763 -14.3072 -14.3072  -4.7270   3.6841   5.2023   5.2023
     8.4472  11.5012  11.9671  12.6753  12.6753  12.9822  16.2020  17.7226

          k = 0.9167-0.0833 0.9167 (  2462 PWs)   bands (ev):

   -33.2751 -14.3783 -14.3143 -14.3080  -4.7003   3.7240   5.0050   5.1493
     8.5717  11.6666  12.1887  12.6429  12.6722  12.7430  16.1477  17.5293

          k = 0.8333 0.0000 0.8333 (  2448 PWs)   bands (ev):

   -33.2749 -14.3722 -14.3293 -14.3045  -4.6592   3.8169   4.5784   5.0621
     9.0286  12.0218  12.4875  12.5088  12.5622  12.7863  15.9442  17.0120

          k = 0.0000-1.0000 0.0000 (  2450 PWs)   bands (ev):

   -33.2749 -14.3816 -14.3103 -14.3103  -4.7117   3.7095   5.1745   5.1745
     8.3580  11.5640  11.9926  12.7073  12.7158  12.7158  16.3016  17.7479

          k =-0.1667 0.3333 0.0000 (  2472 PWs)   bands (ev):

   -33.2849 -14.3165 -14.2786 -14.2690  -5.0524   4.5214   5.4701   5.5367
     9.8591  10.8438  10.9435  11.0426  11.5996  12.7420  16.9074  17.1657

          k =-0.2500 0.4167-0.0833 (  2471 PWs)   bands (ev):

   -33.2824 -14.3471 -14.2862 -14.2714  -4.8931   4.0125   5.1812   5.2751
    10.0010  11.1127  11.4165  11.5195  12.2585  13.4275  16.1760  16.6260

          k =-0.3333 0.5000-0.1667 (  2460 PWs)   bands (ev):

   -33.2799 -14.3786 -14.2911 -14.2755  -4.7264   3.5555   4.9031   5.0476
    10.2806  11.5142  11.9702  12.0926  12.6233  13.8353  15.5361  16.2525

          k = 0.5833-0.4167 0.7500 (  2455 PWs)   bands (ev):

   -33.2781 -14.4016 -14.2932 -14.2796  -4.5989   3.2363   4.7191   4.8960
    10.6936  11.9148  12.0585  12.5194  12.8710  14.1067  15.0536  15.8723

          k = 0.5000-0.3333 0.6667 (  2454 PWs)   bands (ev):

   -33.2774 -14.4100 -14.2936 -14.2814  -4.5509   3.1214   4.6563   4.8428
    11.0538  11.6123  12.2377  12.5924  13.4662  13.7019  15.1505  15.6251

          k =-0.1667 0.5000 0.0000 (  2473 PWs)   bands (ev):

   -33.2815 -14.3443 -14.2907 -14.2809  -4.8783   3.9480   5.2779   5.2957
     9.4277  11.1903  11.5089  11.7667  12.0634  14.2012  15.6457  16.7792

          k =-0.2500 0.5833-0.0833 (  2454 PWs)   bands (ev):

   -33.2793 -14.3664 -14.2995 -14.2846  -4.7507   3.6853   4.9506   5.1080
     9.6477  11.5186  12.0738  12.1459  12.3797  14.4587  14.8010  16.5066

          k = 0.6667-0.3333 0.8333 (  2459 PWs)   bands (ev):

   -33.2775 -14.3843 -14.3059 -14.2885  -4.6389   3.4950   4.6482   4.9527
    10.0537  11.9864  12.1832  12.3912  12.7538  14.2322  14.5829  16.3535

          k = 0.5833-0.2500 0.7500 (  2451 PWs)   bands (ev):

   -33.2766 -14.3930 -14.3114 -14.2891  -4.5749   3.3937   4.4860   4.8550
    10.6038  11.6018  12.3728  12.6767  12.9486  13.9200  15.0279  16.3333

          k = 0.5000-0.1667 0.6667 (  2449 PWs)   bands (ev):

   -33.2768 -14.3906 -14.3145 -14.2855  -4.5786   3.3971   4.5001   4.8332
    10.9721  11.3666  12.1332  12.4392  13.2277  13.9960  15.3338  15.9950

          k = 0.4167-0.0833 0.5833 (  2455 PWs)   bands (ev):

   -33.2781 -14.3793 -14.3118 -14.2799  -4.6492   3.5108   4.6793   4.8913
    10.5793  11.6708  11.9429  12.0595  12.9836  14.2086  15.2357  15.9726

          k = 0.3333 0.0000 0.5000 (  2460 PWs)   bands (ev):

   -33.2802 -14.3635 -14.3015 -14.2746  -4.7651   3.7237   4.9679   5.0216
    10.2350  11.3588  11.5606  12.0956  12.6274  13.9039  15.6064  16.2180

          k =-0.1667 0.6667-0.0000 (  2450 PWs)   bands (ev):

   -33.2782 -14.3645 -14.3029 -14.2953  -4.7529   3.6993   5.1160   5.1258
     9.0596  11.4720  11.9813  12.4004  12.4339  14.0556  15.2397  16.9080

          k = 0.7500-0.2500 0.9167 (  2450 PWs)   bands (ev):

   -33.2766 -14.3732 -14.3134 -14.2993  -4.6744   3.6696   4.7557   4.9964
     9.3724  11.7812  12.3100  12.5437  12.6398  13.4978  15.2352  16.7720

          k = 0.6667-0.1667 0.8333 (  2456 PWs)   bands (ev):

   -33.2757 -14.3748 -14.3269 -14.2990  -4.6121   3.7091   4.3918   4.8895
     9.8861  11.9071  12.2778  12.5370  12.7290  13.7340  15.2584  16.5622

          k = 0.5833-0.0833 0.7500 (  2457 PWs)   bands (ev):

   -33.2757 -14.3715 -14.3374 -14.2941  -4.5832   3.7063   4.2361   4.8268
    10.5433  11.4521  12.2412  12.4276  12.8895  14.3026  15.4313  16.0251

          k = 0.5000 0.0000 0.6667 (  2454 PWs)   bands (ev):

   -33.2766 -14.3741 -14.3311 -14.2868  -4.5965   3.5829   4.3991   4.8238
    11.0039  11.2875  11.9179  12.1590  13.3495  14.2435  15.4548  15.7909

          k = 0.8333-0.1667 1.0000 (  2451 PWs)   bands (ev):

   -33.2758 -14.3744 -14.3118 -14.3077  -4.6967   3.7115   5.0118   5.0170
     8.8203  11.6521  12.3801  12.5109  12.6683  12.9555  15.8836  17.2596

          k = 0.7500-0.0833 0.9167 (  2455 PWs)   bands (ev):

   -33.2751 -14.3709 -14.3258 -14.3080  -4.6521   3.8123   4.6088   4.9332
     9.2253  11.8938  12.2486  12.6159  12.6781  13.0594  15.8371  16.9485

          k = 0.6667 0.0000 0.8333 (  2460 PWs)   bands (ev):

   -33.2751 -14.3594 -14.3462 -14.3025  -4.6105   3.9795   4.1477   4.8647
     9.8248  11.8905  12.2469  12.4495  12.5726  13.8355  15.7951  16.2913

          k =-0.1667-1.0000-0.0000 (  2456 PWs)   bands (ev):

   -33.2749 -14.3768 -14.3151 -14.3127  -4.6841   3.7635   4.9713   4.9783
     8.7380  11.7048  12.4087  12.5230  12.6778  12.7178  16.1082  17.3941

          k = 0.6667-0.3333 1.0000 (  2461 PWs)   bands (ev):

   -33.2775 -14.3724 -14.3148 -14.2896  -4.6674   3.6219   4.7520   4.8815
     9.9295  11.6520  12.1392  12.2977  12.8332  14.2774  14.7524  16.2558

          k = 0.5833-0.2500 0.9167 (  2453 PWs)   bands (ev):

   -33.2762 -14.3750 -14.3252 -14.2958  -4.6058   3.6396   4.4746   4.7799
    10.3744  11.5510  12.0087  12.4861  12.9889  14.3315  15.0561  16.1684

          k = 0.5000-0.1667 0.8333 (  2454 PWs)   bands (ev):

   -33.2757 -14.3756 -14.3286 -14.2987  -4.5832   3.6705   4.3443   4.7481
    10.8671  10.9898  12.4380  12.5514  12.5963  14.6151  15.2524  16.2772

          k = 0.6667-0.1667 1.0000 (  2454 PWs)   bands (ev):

   -33.2756 -14.3690 -14.3246 -14.3075  -4.6327   3.7795   4.6239   4.7212
     9.7272  11.8480  11.8918  12.6468  12.7775  13.7218  15.5047  16.5703

          k = 0.5833-0.0833 0.9167 (  2455 PWs)   bands (ev):

   -33.2751 -14.3598 -14.3383 -14.3107  -4.6029   3.9541   4.2927   4.6485
    10.2585  11.3757  12.0698  12.4550  12.6771  14.5724  15.6855  16.3222

          k = 0.5000 0.0000 0.8333 (  2458 PWs)   bands (ev):

   -33.2753 -14.3599 -14.3420 -14.3050  -4.5929   3.8886   4.2537   4.6706
    10.8508  10.8854  12.0725  12.6080  12.6123  15.1097  15.2902  16.0245

          k =-0.3333-1.0000 0.0000 (  2450 PWs)   bands (ev):

   -33.2749 -14.3638 -14.3281 -14.3174  -4.6281   3.9281   4.5820   4.6079
     9.6576  11.8579  11.8660  12.4684  12.7219  13.7953  15.9395  16.7387

          k =-0.5000-1.0000 0.0000 (  2468 PWs)   bands (ev):

   -33.2748 -14.3460 -14.3460 -14.3198  -4.5995   4.2059   4.2059   4.4424
    10.7962  10.7962  11.9656  12.3634  12.7239  15.2429  16.0466  16.1797

     the Fermi energy is     7.6136 ev

!    total energy              =     -94.51895013 Ry
     estimated scf accuracy    <          9.8E-11 Ry
     smearing contrib. (-TS)   =      -0.00000000 Ry
     internal energy E=F+TS    =     -94.51895013 Ry

     The total energy is F=E-TS. E is the sum of the following terms:
     one-electron contribution =     -28.76244003 Ry
     hartree contribution      =      19.08281592 Ry
     xc contribution           =     -14.86897494 Ry
     ewald contribution        =     -69.97035108 Ry

     convergence has been achieved in   8 iterations

     Writing all to output data dir out/mp-1672.save/
 
     init_run     :      0.12s CPU      0.18s WALL (       1 calls)
     electrons    :      3.49s CPU      3.90s WALL (       1 calls)

     Called by init_run:
     wfcinit      :      0.10s CPU      0.12s WALL (       1 calls)
     potinit      :      0.01s CPU      0.01s WALL (       1 calls)
     hinit0       :      0.01s CPU      0.04s WALL (       1 calls)

     Called by electrons:
     c_bands      :      3.05s CPU      3.36s WALL (       9 calls)
     sum_band     :      0.40s CPU      0.48s WALL (       9 calls)
     v_of_rho     :      0.03s CPU      0.03s WALL (       9 calls)
     mix_rho      :      0.00s CPU      0.01s WALL (       9 calls)

     Called by c_bands:
     init_us_2    :      0.04s CPU      0.05s WALL (     684 calls)
     init_us_2:cp :      0.04s CPU      0.04s WALL (     684 calls)
     cegterg      :      2.70s CPU      2.85s WALL (     324 calls)

     Called by *egterg:
     cdiaghg      :      0.43s CPU      0.46s WALL (    1510 calls)
     h_psi        :      2.11s CPU      2.24s WALL (    1582 calls)
     g_psi        :      0.01s CPU      0.01s WALL (    1222 calls)

     Called by h_psi:
     h_psi:calbec :      0.07s CPU      0.07s WALL (    1582 calls)
     vloc_psi     :      1.99s CPU      2.11s WALL (    1582 calls)
     add_vuspsi   :      0.04s CPU      0.04s WALL (    1582 calls)

     General routines
     calbec       :      0.06s CPU      0.07s WALL (    1582 calls)
     fft          :      0.01s CPU      0.04s WALL (      90 calls)
     ffts         :      0.00s CPU      0.00s WALL (       9 calls)
     fftw         :      2.09s CPU      2.23s WALL (   37574 calls)
     davcio       :      0.04s CPU      0.19s WALL (    1112 calls)
 
     Parallel routines
 
     PWSCF        :      3.68s CPU      4.31s WALL

 
   This run was terminated on:  12:17: 9  17Nov2023            

=------------------------------------------------------------------------------=
   JOB DONE.
=------------------------------------------------------------------------------=
