
     Program PWSCF v.7.1 starts on 17Nov2023 at 10:50:15 

     This program is part of the open-source Quantum ESPRESSO suite
     for quantum simulation of materials; please cite
         "P. Giannozzi et al., J. Phys.:Condens. Matter 21 395502 (2009);
         "P. Giannozzi et al., J. Phys.:Condens. Matter 29 465901 (2017);
         "P. Giannozzi et al., J. Chem. Phys. 152 154105 (2020);
          URL http://www.quantum-espresso.org", 
     in publications or presentations arising from this work. More details at
     http://www.quantum-espresso.org/quote

     Parallel version (MPI), running on     8 processors

     MPI processes distributed on     1 nodes
     123444 MiB available memory on the printing compute node when the environment starts
 
     Reading input from pw_mp-1672_nscf_k60_E60.in
Warning: card &IONS ignored
Warning: card / ignored
Warning: card &CELL ignored
Warning: card / ignored

     Current dimensions of program PWSCF are:
     Max number of different atomic species (ntypx) = 10
     Max number of k-points (npk) =  40000
     Max angular momentum in pseudopotentials (lmaxx) =  4

     Atomic positions and unit cell read from directory:
     out/mp-1672.save/
     Atomic positions from file used, from input discarded
 
 
     R & G space division:  proc/nbgrp/npool/nimage =       8
     Subspace diagonalization in iterative solution of the eigenvalue problem:
     one sub-group per band group will be used
     scalapack distributed-memory algorithm (size of sub-group:  2*  2 procs)

 
     Parallelization info
     --------------------
     sticks:   dense  smooth     PW     G-vecs:    dense   smooth      PW
     Min         119     119     35                 2448     2448     389
     Max         120     120     36                 2452     2452     391
     Sum         955     955    283                19603    19603    3119
 
     Using Slab Decomposition
 


     bravais-lattice index     =            2
     lattice parameter (alat)  =      10.7804  a.u.
     unit-cell volume          =     313.2175 (a.u.)^3
     number of atoms/cell      =            2
     number of atomic types    =            2
     number of electrons       =        16.00
     number of Kohn-Sham states=         1200
     kinetic-energy cutoff     =      60.0000  Ry
     charge density cutoff     =     240.0000  Ry
     Exchange-correlation= PBE
                           (   1   4   3   4   0   0   0)

     celldm(1)=  10.780412  celldm(2)=   0.000000  celldm(3)=   0.000000
     celldm(4)=   0.000000  celldm(5)=   0.000000  celldm(6)=   0.000000

     crystal axes: (cart. coord. in units of alat)
               a(1) = (  -0.500000   0.000000   0.500000 )  
               a(2) = (   0.000000   0.500000   0.500000 )  
               a(3) = (  -0.500000   0.500000   0.000000 )  

     reciprocal axes: (cart. coord. in units 2 pi/alat)
               b(1) = ( -1.000000 -1.000000  1.000000 )  
               b(2) = (  1.000000  1.000000  1.000000 )  
               b(3) = ( -1.000000  1.000000 -1.000000 )  


     PseudoPot. # 1 for Ca read from file:
     /usr/scratch4/magr4985/MG/HTDF/pseudo/SG15/Ca.upf
     MD5 check sum: b43c970dc090f2312d256360aabdb6f1
     Pseudo is Norm-conserving, Zval = 10.0
     Generated using ONCVPSP code by D. R. Hamann
     Using radial grid of  602 points,  6 beta functions with: 
                l(1) =   0
                l(2) =   0
                l(3) =   1
                l(4) =   1
                l(5) =   2
                l(6) =   2

     PseudoPot. # 2 for S  read from file:
     /usr/scratch4/magr4985/MG/HTDF/pseudo/SG15/S.upf
     MD5 check sum: f9d020296ee6110346977bfd66d424f6
     Pseudo is Norm-conserving, Zval =  6.0
     Generated using ONCVPSP code by D. R. Hamann
     Using radial grid of  602 points,  4 beta functions with: 
                l(1) =   0
                l(2) =   0
                l(3) =   1
                l(4) =   1

     atomic species   valence    mass     pseudopotential
        Ca            10.00    40.07800     Ca( 1.00)
        S              6.00    32.06500     S ( 1.00)

     48 Sym. Ops., with inversion, found



   Cartesian axes

     site n.     atom                  positions (alat units)
         1           Ca  tau(   1) = (   0.0000000   0.0000000   0.0000000  )
         2           S   tau(   2) = (  -0.5000000   0.5000000   0.5000000  )

     number of k points=     8  Gaussian smearing, width (Ry)=  0.0005
                       cart. coord. in units 2pi/alat
        k(    1) = (   0.0000000   0.0000000   0.0000000), wk =   0.0312500
        k(    2) = (  -0.2500000   0.2500000  -0.2500000), wk =   0.2500000
        k(    3) = (   0.5000000  -0.5000000   0.5000000), wk =   0.1250000
        k(    4) = (   0.0000000   0.5000000   0.0000000), wk =   0.1875000
        k(    5) = (   0.7500000  -0.2500000   0.7500000), wk =   0.7500000
        k(    6) = (   0.5000000   0.0000000   0.5000000), wk =   0.3750000
        k(    7) = (   0.0000000  -1.0000000   0.0000000), wk =   0.0937500
        k(    8) = (  -0.5000000  -1.0000000   0.0000000), wk =   0.1875000

     Dense  grid:    19603 G-vectors     FFT dimensions: (  40,  40,  40)

     Estimated max dynamical RAM per process >      98.36 MB

     Estimated total dynamical RAM >     786.87 MB

     The potential is recalculated from file :
     out/mp-1672.save/charge-density

     Starting wfcs are random

     Band Structure Calculation
     ParO style diagonalization

     ethr =  5.00E-06,  avg # of iterations =  6.6

     total cpu time spent up to now is      614.4 secs

     End of band structure calculation

          k = 0.0000 0.0000 0.0000 (  2445 PWs)   bands (ev):

   -33.2894 -14.2634 -14.2634 -14.2634  -5.3286   5.9789   5.9789   5.9789
    10.0927  10.1446  10.1446  10.1446  10.7330  10.7330  16.8427  19.0213
    19.0213  19.0213  21.9663  21.9663  22.5877  22.5877  22.5877  29.8697
    31.4779  31.4779  31.4779  32.6742  32.6742  32.6742  33.2285  33.2285
    34.9104  34.9104  34.9104  43.4200  46.3505  46.3505  46.3505  46.8933
    46.8933  47.0441  47.0441  47.0441  47.7116  47.7116  47.7116  49.6565
    49.6565  49.6565  49.7256  50.3867  50.6787  50.6787  50.6787  52.5956
    52.5956  52.5956  53.2357  53.2357  55.4073  60.3314  60.3314  60.3314
    60.6771  60.6771  60.6771  69.6557  69.6557  70.8394  71.0826  71.0826
    71.0826  72.6843  72.6843  72.6843  79.2243  79.2243  79.2243  80.1261
    80.1261  81.7901  82.8754  82.8754  82.8754  83.0097  83.1419  83.1419
    83.1419  85.7621  85.7621  85.7621  86.9394  86.9394  86.9394  87.3926
    87.3926  87.3926  88.1326  88.1326  88.1326  88.5266  88.5266  88.5736
    88.5736  88.5736  88.9733  88.9733  90.2962  90.2962  91.3460  91.3460
    91.3460  92.2378  94.5891  96.1927  96.1927  96.1927  99.8002 101.0370
   101.0370 101.0370 104.6764 104.6764 104.6764 105.9124 105.9124 106.0480
   107.0876 107.0876 107.0876 108.0888 108.0888 108.0888 108.2705 108.2705
   108.2783 108.2783 108.2783 108.4523 108.4523 108.4523 108.9536 108.9536
   108.9536 110.5069 117.4450 117.4450 117.4450 117.8439 118.2111 119.5212
   119.5212 119.5212 120.0270 120.0270 120.0270 121.4399 121.4399 121.4399
   121.8480 121.8480 121.8480 122.6035 122.6035 125.4308 125.4308 125.4308
   126.2440 126.2440 126.3463 126.3463 126.3463 126.5180 129.0558 136.2007
   136.2007 136.2007 138.1634 138.1634 138.1634 138.9008 138.9008 139.0771
   139.0771 139.0771 144.3503 144.3503 146.2870 146.6229 146.6229 146.6229
   146.9997 146.9997 146.9997 150.5109 150.5109 150.5109 152.4005 152.4005
   152.4005 153.3116 153.8108 153.8108 153.8108 154.0462 154.0462 155.0041
   155.0041 155.0041 156.0652 156.0652 156.0652 156.3669 157.1825 157.1825
   157.1825 157.2206 157.2959 158.9061 158.9061 158.9061 159.0412 159.0412
   160.5169 160.5169 160.5169 160.8522 160.8522 160.8522 161.6451 161.6451
   161.6451 162.3083 162.3083 162.3083 162.4389 162.4389 162.5766 162.8040
   162.8040 162.8040 162.9965 162.9965 162.9965 163.2283 163.2283 163.2283
   163.2756 163.2756 163.3221 163.3747 163.3747 163.3747 163.4526 163.4526
   163.7316 163.7316 163.7316 171.2472 171.2472 172.5115 172.5115 172.5115
   173.8329 175.5935 175.5935 175.5935 176.5747 176.5747 176.5747 176.6608
   176.6608 176.6608 177.5680 177.5680 177.5680 179.1215 179.1215 179.1215
   182.6410 182.6410 182.8234 182.8234 182.8234 182.9115 183.8673 183.8673
   186.7263 187.9988 188.9455 188.9455 188.9455 192.5512 192.5512 192.5512
   195.1671 195.1671 195.1671 195.1787 195.1787 195.1787 195.2173 195.2173
   195.2173 195.4564 195.4564 195.4699 195.4699 195.4699 196.4283 196.4283
   197.5198 197.7879 198.2912 198.2912 198.2912 198.3362 198.3362 198.3762
   198.3762 198.3762 198.6217 198.6217 198.6217 198.8335 198.8335 198.8335
   199.5906 199.5906 199.5906 199.8236 199.8236 207.8388 207.8388 207.8388
   208.0536 211.2640 211.2640 211.2640 213.1783 213.1783 213.1783 214.8098
   215.6248 215.6248 215.6248 217.7752 220.3581 220.3581 220.7161 220.7161
   220.7161 222.1388 222.1388 222.1388 222.4304 222.4899 222.4899 222.6489
   222.6489 222.6489 227.0963 227.0963 227.0963 227.5514 227.5514 227.5514
   230.3480 230.3480 230.3480 230.5922 230.5922 230.5922 230.6234 230.6234
   230.6234 230.8810 230.8810 230.8810 233.3670 233.5133 233.6581 233.6581
   233.6581 234.0514 234.0514 234.2531 234.2531 234.2531 234.4733 234.4733
   234.5115 234.5115 234.5115 235.3007 235.3007 235.3007 235.6839 235.6839
   235.6839 235.8523 235.8523 235.8523 236.0125 237.1396 237.1396 237.1398
   237.1398 237.1398 237.1517 243.9915 243.9915 243.9915 246.0788 247.2109
   247.5275 247.5275 247.5275 247.9001 247.9001 248.5367 248.5367 248.5367
   251.0940 251.0940 251.0940 251.1367 251.1367 251.1634 251.1634 251.2290
   251.2290 251.2290 251.4637 251.4637 251.4637 251.7464 251.7464 251.7464
   254.3117 254.3117 254.3117 256.0751 256.0751 256.0946 256.0946 256.0946
   256.0970 256.0970 256.0970 256.1920 256.1920 256.2145 256.2145 256.2145
   256.2300 256.2300 256.2300 257.8301 257.8301 257.8301 257.8390 257.8390
   257.8390 257.8511 257.8758 258.5433 258.5433 258.5433 259.0625 259.3124
   259.8599 259.8599 259.8599 260.5076 260.5076 260.5076 262.6638 262.6638
   262.6638 263.6141 263.7443 263.7443 263.7443 264.0255 264.0255 264.4481
   264.4481 264.4481 264.7091 267.7810 267.7810 267.9493 267.9493 268.7136
   268.7136 268.7136 269.0075 269.0075 269.0075 269.1202 269.1202 269.1202
   269.9169 269.9169 269.9321 269.9321 269.9321 270.1861 270.5234 270.5234
   270.5234 270.5331 270.5331 272.1146 272.1146 272.1146 272.2649 272.2649
   272.2649 272.4494 272.4494 272.4494 272.5822 272.5822 272.5822 273.5037
   273.5542 273.5542 273.5542 273.5754 273.5754 276.4624 276.4624 276.4624
   280.1965 289.9431 289.9431 289.9431 294.8283 294.8283 294.8283 296.3264
   298.6832 298.6832 298.6832 299.3594 299.5809 299.5809 300.6431 300.6431
   302.1669 302.1669 302.1669 302.3129 302.3129 302.3129 303.3622 303.3622
   303.3622 303.5519 303.5519 303.5519 303.7776 303.7776 303.7776 304.1175
   304.1175 304.4021 304.5399 304.7598 304.7598 304.7598 305.4829 305.4829
   305.4829 305.4897 305.4897 305.4897 305.6527 305.6527 305.6527 305.9843
   305.9843 305.9843 306.1040 310.3636 310.3636 310.5775 310.5775 310.5775
   310.6133 310.6133 310.6133 310.6854 310.6854 310.7675 310.7675 310.7675
   310.9092 310.9092 310.9092 311.9940 311.9940 312.0617 312.0617 312.0617
   312.2278 319.6259 319.6259 319.6259 319.7221 319.7221 319.7221 320.5167
   320.8129 320.8129 321.1678 321.1678 321.1678 321.1891 321.1891 321.1891
   323.3930 323.3930 326.5460 326.5460 326.5460 327.3106 327.5125 327.5125
   327.5125 327.5741 327.5741 327.6095 327.6095 327.7471 327.7471 327.7471
   327.8576 327.8576 327.8576 327.8851 327.9982 327.9982 327.9982 328.1495
   328.1495 328.1495 328.8556 328.8556 328.8556 329.4645 329.4645 329.4645
   330.6644 337.1127 337.1127 337.1407 337.9140 337.9140 337.9140 338.4761
   338.4761 338.4761 339.0066 339.0066 339.0066 339.1308 339.1308 339.1308
   339.1672 339.1672 339.1672 339.3123 339.9410 342.8473 342.8473 342.8473
   343.9221 343.9221 343.9221 343.9531 343.9531 344.0895 344.0895 344.0895
   344.2446 344.2446 344.2446 344.3370 344.8492 344.8492 344.8492 345.0786
   345.0786 345.1155 345.5586 345.6544 345.6544 345.6675 345.6675 345.6675
   345.6694 345.6694 345.6694 345.6913 345.6913 345.6913 345.8338 345.8338
   345.8338 346.6338 346.6338 346.6338 346.6621 346.6621 346.6984 346.6984
   346.6984 346.7336 346.7336 346.7336 346.7945 350.4326 350.4326 353.6238
   353.6238 353.6238 355.4201 357.2107 357.2107 359.6508 359.6508 359.6508
   360.8028 360.8028 360.8028 360.9893 360.9893 360.9893 361.0683 361.0683
   361.0683 361.9839 361.9839 361.9839 362.0691 362.0845 362.0845 362.0845
   362.1435 362.1435 362.8767 367.0170 367.0170 367.0170 369.8327 369.9641
   369.9641 369.9641 371.2119 374.4489 374.4489 374.4489 374.6026 374.6026
   374.6967 374.6967 374.6967 375.0811 375.0811 375.0811 375.2874 375.2874
   375.2874 375.5330 375.5330 376.8711 376.8711 376.8711 378.1179 378.1179
   378.1179 378.2162 378.2162 378.2162 378.3496 378.3496 378.3496 378.3589
   378.3589 378.3589 379.2523 379.5389 379.5389 379.7435 379.7435 379.7435
   380.0935 380.0935 380.1360 380.1360 380.1360 380.4462 380.4462 380.4462
   380.5335 380.5335 380.5585 380.5585 380.5978 380.5978 380.5978 380.6012
   380.6012 380.6012 380.6478 380.6478 380.6478 380.6562 380.7417 380.7417
   380.7417 380.8730 380.8730 380.8730 380.9042 380.9042 380.9042 382.3243
   382.3678 382.3678 382.3678 382.3952 382.3952 382.3952 382.4178 384.9749
   384.9959 384.9959 384.9959 385.0066 385.0066 385.3664 385.3664 385.3664
   385.4284 385.4284 385.4494 385.4494 385.4494 385.4877 385.4911 385.4911
   385.4911 385.5099 385.5099 385.5099 385.5472 385.5472 385.6237 385.6237
   385.6237 385.7415 385.7415 385.7415 385.8443 393.1132 393.1132 393.1132
   394.2351 394.2473 394.2473 394.2473 394.4461 401.6049 401.6049 402.9983
   402.9983 402.9983 403.0678 403.0678 403.1112 403.1112 403.1112 403.1191
   403.1191 403.1191 403.3453 403.3453 403.3453 403.3473 403.3473 404.3711
   404.3711 404.3711 404.6198 405.9589 405.9589 405.9589 407.7115 407.7115
   407.7115 407.8046 407.8046 407.8046 408.1372 408.1372 408.1372 412.1637
   412.1637 412.2839 412.2839 412.2839 412.4110 417.0126 417.0723 417.0723
   417.0723 417.1549 417.1549 419.9261 419.9261 419.9261 419.9473 419.9473
   419.9473 419.9779 419.9779 419.9779 419.9780 419.9780 419.9780 421.3062
   421.3062 421.3327 421.3327 421.3327 421.3774 431.6367 431.7290 431.7290
   432.3547 432.3547 432.3547 433.5856 433.5856 433.5856 435.4349 436.0081
   436.0081 436.0081 436.7288 436.7288 436.7288 437.0765 437.0765 437.0765
   437.3996 437.3996 437.3996 437.4075 437.4075 437.4075 437.7010 437.7010
   440.7311 440.7311 440.8345 441.1007 441.1007 441.1007 441.2553 441.2553
   441.2553 441.3176 441.3176 443.2593 443.3101 443.3101 443.3101 444.4812
   444.4900 444.4900 444.4900 446.2911 446.2911 446.2911 446.7711 446.7711
   446.7711 446.9217 448.1904 448.1904 448.6020 448.6020 448.6020 449.1060
   449.1060 449.1060 449.6265 450.1708 450.1708 450.3569 450.3569 450.3569
   450.7640 450.7640 450.7640 450.8381 450.8381 451.0226 451.0226 451.0226
   451.1605 451.1605 451.1605 452.2217 452.2217 452.2217 452.2760 452.4648
   452.4648 452.4648 452.6639 454.6524 454.6524 454.6524 454.6640 454.6640
   454.7292 454.7292 454.7292 454.7722 454.7722 454.7722 454.8197 454.8197
   454.8197 454.8274 454.8274 456.2695 456.2695 456.2695 456.2853 456.2916
   456.2916 456.2916 456.3167 456.3167 456.3235 456.3235 456.3235 457.1644
   457.1644 457.1644 457.1915 457.1915 457.2397 457.2397 457.2397 457.2411
   457.2411 457.2411 457.3151 468.8992 468.8992 469.6752 469.8770 469.8770
   469.8770 469.9322 469.9322 469.9322 471.1700 471.1700 471.1700 471.1925
   471.1925 471.1925 471.3758 471.3758 471.3758 471.3958 472.1287 472.1287
   472.1287 472.6136 472.6136 472.6136 472.6223 472.6223 472.7642 472.7642
   472.7642 473.2764 473.7261 473.7261 473.8647 473.8647 473.8647 473.9124
   473.9124 473.9124 473.9141 473.9141 473.9141 477.5254 477.5254 477.5533
   477.5533 477.5533 477.6131 477.6131 477.6131 477.6244 477.6244 477.6244
   477.6432 477.7169 477.7169 477.7996 477.8012 477.8012 477.8012 477.8448
   477.8448 477.8448 477.8964 477.8964 477.8964 478.5968 478.5968 478.6658
   478.6658 478.6658 478.7765 479.8676 479.8676 479.8676 479.9778 479.9778
   481.4329 481.6126 481.6126 481.6126 482.0425 482.0425 482.0425 482.4130
   482.4130 482.4130 482.4906 482.4906 482.5989 482.5989 482.5989 482.8649
   482.8649 482.8649 482.9875 486.2796 486.9027 486.9027 486.9027 487.6021
   487.6021 487.6021 488.0847 488.0847 488.0901 488.0901 488.0901 489.1334
   489.4387 489.4387 489.4387 489.5168 489.5168 489.5168 489.6310 489.6310
   489.6527 489.6527 489.6527 491.4514 491.4514 491.4514 492.0120 492.1254
   492.1575 492.1575 492.1575 493.1519 493.1519 493.1519 493.1543 493.1543

          k =-0.2500 0.2500-0.2500 (  2463 PWs)   bands (ev):

   -33.2839 -14.3451 -14.2698 -14.2698  -4.9554   4.1671   5.3187   5.3187
    10.2615  10.9400  10.9400  12.1354  12.1354  12.1982  16.3076  17.3752
    17.3752  19.7838  19.9409  19.9409  23.5913  26.1790  26.3075  26.3075
    27.4415  27.4415  32.6871  32.6871  33.1193  33.6797  33.6797  35.1070
    35.7672  38.8344  38.9471  38.9471  41.4102  41.4102  42.6106  45.0464
    45.0464  45.0649  45.7121  45.7121  46.5453  47.0461  47.0461  48.1531
    49.2080  50.5132  50.5132  52.4536  54.3189  54.3189  55.6533  55.6533
    56.4480  56.5765  58.0391  58.6503  58.6503  60.1821  62.5287  62.5287
    62.9734  62.9734  64.2144  65.4343  65.4343  67.0306  68.3244  68.3244
    71.1390  72.1174  72.1174  74.3833  74.8630  74.8630  75.8561  75.8561
    75.9622  76.3241  78.6122  78.6122  79.3753  79.3753  79.5271  81.8696
    81.8696  82.2202  83.3695  85.5100  86.1874  86.4633  86.4633  86.7942
    87.8195  87.8195  89.4952  89.4952  89.7097  89.7097  89.9654  90.4251
    91.1594  91.1594  92.5567  92.5567  93.2460  94.2020  94.2020  94.5451
    96.6959  96.8697  96.8697  98.8206  99.5341  99.9855  99.9855 100.2208
   101.2308 101.2308 102.2231 102.8515 102.8515 103.2578 103.2578 104.9664
   104.9664 105.1927 105.2956 105.9622 105.9622 106.3929 107.7998 108.0454
   108.0454 109.2096 109.7012 110.2578 110.2578 112.1135 112.1135 113.3686
   113.7193 114.0436 114.0436 116.0788 116.2035 116.2035 117.0402 117.0402
   118.2806 118.4233 118.7109 118.7109 119.4534 120.0049 120.0049 123.7735
   124.0003 124.0003 125.2940 127.2586 127.2586 127.9071 127.9071 130.6360
   131.0308 131.0308 131.8941 132.0976 132.2369 132.2369 132.8018 133.8256
   133.8256 134.6519 134.6519 136.8173 137.7533 139.0669 139.0669 139.4226
   139.4226 139.9330 140.0136 140.0879 140.0879 141.4182 141.7023 141.7023
   142.1256 142.5316 142.5316 143.7418 144.2878 144.2878 144.9470 145.3900
   145.3900 146.4915 146.4915 146.9406 147.3283 150.2690 150.2690 153.0427
   153.2485 153.2485 154.0176 154.4905 154.4905 154.5920 155.4534 156.0962
   156.0962 157.1122 157.1122 157.4703 157.9983 158.4843 158.4843 158.5645
   158.5645 159.2588 159.3350 159.5859 159.5859 159.7096 159.9802 159.9802
   160.5645 160.5645 161.5078 161.5078 161.9747 163.4660 164.6092 164.6092
   165.9862 165.9986 165.9986 166.5935 166.9653 167.7533 167.7962 167.7962
   167.9759 167.9759 168.5453 168.8957 168.8957 169.0772 170.7250 170.7250
   171.7927 171.7927 172.2146 172.6359 172.6359 172.6446 174.2970 174.6550
   174.6550 176.2667 176.5367 176.5367 176.7480 176.9355 176.9355 177.7675
   179.1334 179.1334 179.9842 180.6161 180.6161 182.1586 182.1586 182.9636
   182.9636 183.3217 184.7097 184.7173 184.7173 184.8469 185.8087 185.9710
   186.2052 186.2052 186.4512 186.4512 186.8046 186.9225 186.9225 188.4567
   188.4567 188.8473 190.2095 190.2095 190.9040 191.5364 192.9797 192.9797
   193.4180 193.5794 193.5794 193.6143 194.2480 194.2480 197.9437 197.9437
   198.2332 199.3970 199.3970 199.5489 199.6943 200.7498 200.7498 202.1891
   202.8105 202.8105 203.4167 203.7364 203.7364 205.7710 206.5421 206.5421
   207.1194 207.5801 207.7552 207.7552 208.5108 210.6497 210.6497 211.4836
   211.4836 211.9086 211.9086 211.9427 212.5994 212.9309 212.9309 213.2282
   213.4380 213.4380 213.6596 214.1677 214.6982 214.6982 214.7139 216.4271
   216.4271 217.1940 218.4225 218.9055 218.9055 220.4024 220.4024 221.4291
   221.4291 221.8909 221.9650 222.3979 222.3979 222.5386 223.4065 223.4065
   223.5227 223.7087 223.7087 224.8848 224.8848 225.3642 225.3642 226.1209
   226.3266 226.3266 226.4256 228.3081 229.5428 229.5428 230.9953 231.1214
   231.4237 231.4237 232.8520 232.8520 233.2473 234.7548 234.7548 235.2099
   235.6835 235.6835 235.7681 235.8981 235.8981 237.1971 237.1971 237.2673
   237.6318 237.8605 237.9507 237.9507 238.6120 238.6120 238.6510 240.4883
   240.4883 240.5369 240.5406 241.0829 241.8767 241.8767 244.1257 244.1257
   244.6419 245.4129 245.4129 245.7105 245.7105 246.0725 246.1407 246.5342
   246.5342 246.8984 246.8984 247.3516 247.3547 247.3547 248.1230 248.4166
   248.4166 248.7689 248.7689 249.2561 249.4202 249.8071 250.8657 250.8657
   251.1298 251.4123 251.4123 252.7514 252.9694 252.9694 253.2220 253.9650
   253.9650 254.0999 254.9513 255.0816 255.0816 255.5263 255.5263 256.1917
   256.3248 256.3248 257.4725 257.4725 257.5515 257.8158 258.4286 258.4286
   258.7444 258.7444 258.7762 259.1441 259.1441 259.5056 260.4693 261.1669
   261.1669 261.6142 262.5692 262.5692 263.0610 263.2416 263.2416 263.2973
   263.6325 263.6325 263.8794 265.2764 265.2764 265.4335 265.5844 265.7308
   265.7308 267.1913 267.1913 267.5207 270.4719 271.4750 271.4750 271.6340
   272.1786 273.3207 273.3207 273.5016 273.8374 274.1030 274.1030 275.6027
   275.6027 275.8213 276.6705 276.6705 277.2601 277.3578 277.3578 278.1155
   278.4626 278.4626 279.5532 279.5532 280.4619 280.4619 281.4496 281.4496
   281.5295 282.0476 282.0647 282.6240 282.6240 283.3898 283.3898 284.4298
   284.4298 284.7147 284.8190 284.8190 285.3008 285.6165 285.8155 285.8155
   286.3254 286.6519 286.9230 286.9230 287.2954 287.2954 288.4016 288.4016
   288.6322 288.6322 288.7428 289.3464 290.5782 290.9182 291.3083 291.3083
   293.6896 294.3259 294.3259 295.4467 295.4467 295.9369 296.0313 296.2223
   296.3344 296.3344 297.2243 297.4564 297.4564 297.7205 297.7316 297.7316
   298.0280 299.1390 299.1390 300.6755 300.6755 300.8369 300.8369 301.4687
   301.6477 301.6477 302.0807 304.2696 304.2696 304.5098 304.7384 304.7384
   306.2542 306.8428 306.8869 306.8869 308.4703 309.7053 309.7053 310.1046
   310.1046 310.2326 310.3627 311.0104 311.0104 311.8332 313.1231 314.6446
   314.6446 316.1233 316.1233 316.4985 316.4985 316.8492 317.4900 317.4900
   317.7701 317.9304 318.0722 318.3619 318.3619 318.6268 318.6268 319.3442
   319.3442 319.8117 320.4901 320.4901 320.5251 321.6769 321.8493 322.0103
   322.0103 322.0562 322.3192 322.3192 322.8021 323.0076 323.0076 323.1412
   323.1412 323.6691 323.8881 324.0228 324.0228 325.4317 325.4317 325.6475
   325.6475 325.6615 325.8460 326.9963 326.9963 327.9675 329.4018 329.7797
   329.7797 330.7874 331.1665 331.1665 331.6247 332.8029 332.8029 333.1737
   333.1737 333.5965 334.1280 334.6898 334.6898 334.9060 335.2157 335.2157
   336.5458 337.5564 337.9351 337.9351 338.2385 339.8733 339.8733 340.1085
   340.1085 340.2426 340.7302 341.4127 341.4127 341.4595 341.7318 341.7318
   341.8784 341.8784 342.1421 342.1421 342.1571 342.2155 342.4126 342.4126
   342.4335 343.2421 343.2421 345.6275 345.6275 345.7109 346.6457 346.6457
   346.8061 346.8331 346.8331 347.4038 348.2208 348.2208 348.6102 348.6287
   348.6287 348.9882 349.3006 349.3965 349.3965 350.0947 350.0947 350.3971
   350.3971 350.4288 351.1547 351.4024 351.4024 351.5742 352.0516 352.0516
   352.4187 352.4187 352.7198 352.9175 352.9603 352.9603 353.5672 353.8848
   353.8848 354.0550 354.2328 354.2328 354.3855 355.0624 355.6002 355.6002
   356.2934 356.2934 356.4603 357.2750 357.2750 357.5512 357.6070 358.1096
   358.1096 358.4836 359.1869 359.1869 359.6046 359.6046 359.8760 359.9809
   360.1563 360.1563 360.4420 364.9487 364.9487 365.5541 366.1666 366.1666
   366.2931 366.3299 366.3299 366.9307 367.2025 367.2025 367.3168 367.3168
   367.4826 368.6052 368.6052 368.7996 369.1846 369.1846 369.6670 370.4182
   370.6689 370.6689 370.7386 370.7386 370.7986 370.9320 371.5472 371.5472
   371.6829 372.5588 372.5588 373.1988 373.1988 374.0426 374.7773 374.7773
   374.9078 375.4708 375.4708 375.4798 376.0010 376.1309 376.1612 376.1612
   376.9161 376.9161 377.7821 377.8870 377.8870 378.1311 378.4966 378.4966
   378.8721 379.2912 379.2912 379.4047 379.4283 379.4283 380.2927 381.6235
   381.6394 381.6394 382.4762 382.4762 382.6258 383.0139 383.0139 383.5610
   385.7715 385.7715 385.8218 387.6688 387.6688 388.1737 388.1737 388.5447
   389.1811 389.7097 389.7097 389.9913 390.2427 390.2427 390.4975 390.5754
   390.5959 390.5959 391.0851 391.0851 391.1369 391.6102 391.6102 391.6316
   392.4428 392.4428 392.5679 394.7396 394.7396 394.7787 394.9935 395.0074
   395.0074 395.8006 395.8006 395.8844 396.7008 396.7008 396.7632 397.1341
   397.1341 397.3129 397.3459 397.5882 397.5882 398.0102 398.7549 398.9459
   398.9459 399.8595 399.8668 399.8668 400.7091 400.7091 402.4236 402.4236
   402.5090 402.9992 404.6339 404.6339 404.8584 405.1585 405.4569 405.4569
   405.8714 407.7472 407.7472 407.8410 407.8410 407.9147 407.9147 408.0186
   408.0457 408.1025 408.1025 408.2444 408.6047 408.6079 408.6079 410.4861
   410.4861 410.5362 411.9766 412.5927 412.5927 413.3514 413.3514 413.3658
   414.3232 414.3232 414.7544 414.7544 415.3326 416.0051 416.0051 416.8513
   416.8513 417.8462 418.1569 418.4264 418.4264 418.5520 418.5520 418.7184
   419.1057 419.1575 419.1575 419.5598 419.6582 419.8892 419.8892 420.9008
   420.9008 421.0112 421.2967 421.2967 421.9055 423.8034 423.8034 424.6111
   424.6557 424.6620 424.6620 425.7266 425.8935 425.8935 427.7857 427.7857
   428.4904 430.5441 430.5441 430.7562 431.1569 432.0617 432.0617 432.2122
   433.2282 433.2282 433.2456 433.9397 433.9397 434.1669 435.5227 436.1506
   436.1535 436.1535 436.4849 436.4849 436.5482 437.0334 437.0334 437.5878
   437.5878 437.9635 438.6041 438.6386 438.6386 438.7765 438.7765 438.9767
   441.0234 441.0234 441.0850 441.1578 441.1578 441.3034 441.5145 441.5145
   441.8994 442.0469 442.0469 444.1298 444.1298 444.2646 444.3695 444.3695
   445.1014 445.4933 445.4933 445.8964 446.1305 446.1305 446.3702 446.5485
   446.5485 446.6845 446.9322 446.9974 446.9977 446.9977 447.4585 447.4823
   447.4823 447.7136 447.7136 448.0151 448.1148 448.1148 450.1629 450.1629
   450.2204 450.4836 450.4836 450.7894 450.8707 450.8707 451.1416 451.1488
   452.3294 452.3294 452.4837 452.4837 452.5501 452.8170 453.8824 453.8824
   453.9008 455.8513 455.8513 456.3342 456.3342 456.3368 456.8242 457.3710
   457.3710 457.4995 458.2434 458.2434 458.3193 458.3193 458.3226 458.3308
   458.7154 458.8844 458.8844 459.9530 459.9530 460.0168 460.3229 460.3229
   460.3661 461.1491 461.1491 461.1695 462.2739 462.2739 462.3722 463.2724
   463.2724 463.3236 465.0152 465.0152 465.0782 465.5776 465.5776 465.8163
   465.8591 465.8591 466.6229 466.6229 466.6502 466.9386 466.9760 466.9760
   467.6421 469.9531 469.9572 469.9572 471.0268 471.7124 471.7124 471.7495
   471.9650 472.0187 472.0187 472.4307 472.4307 472.8228 472.9462 472.9462
   473.4713 473.4713 473.6191 473.8276 474.0230 474.0746 474.0746 474.3019
   474.3019 475.0241 475.0241 475.0707 475.7542 475.7542 475.8797 476.0233
   476.2372 476.2372 476.4854 476.4854 476.5906 477.2696 477.2696 477.3200
   478.8465 478.8465 478.8744 480.3075 480.8141 480.8141 480.9614 481.0769
   481.0769 481.7643 482.0767 482.0767 482.1019 482.4855 482.4855 482.4985
   482.8729 483.7848 483.7848 485.0404 485.1246 485.1246 485.1761 485.2972
   485.3063 485.3063 485.7601 485.7601 485.9070 485.9304 485.9304 485.9705
   486.2992 486.2992 486.9411 486.9411 488.4277 489.7697 489.7697 489.9579
   489.9579 490.1092 490.1497 490.1504 490.1504 490.1760 490.3057 490.4315
   490.4315 491.7308 491.7308 491.8637 492.0324 492.0324 492.4775 492.4775
   492.6351 493.8554 493.8554 494.0036 494.0171 494.4983 494.4983 494.7431
   494.7431 494.8719 495.7458 495.7458 496.1029 496.2216 496.2216 496.3219

          k = 0.5000-0.5000 0.5000 (  2452 PWs)   bands (ev):

   -33.2784 -14.4240 -14.2761 -14.2761  -4.5350   2.9077   4.8349   4.8349
    11.1987  12.0046  12.1354  12.1354  14.0626  14.0626  14.8355  14.8355
    17.1039  19.4531  19.4531  21.6230  21.7659  24.9033  24.9033  27.1325
    29.4267  29.4267  30.6891  33.2821  33.2821  34.6460  34.6460  35.2411
    35.2411  35.2871  38.1811  38.5038  39.7628  40.5919  40.5919  41.8453
    43.6622  43.6622  46.1999  46.1999  46.9995  47.4028  50.2663  50.2663
    50.5769  50.9852  50.9852  54.4798  54.9901  56.4438  56.4438  56.9678
    57.8987  57.8987  61.0540  61.0540  62.5110  62.5110  64.1985  64.1985
    64.2986  64.2986  64.3144  65.7072  65.7702  66.5389  66.7571  67.1238
    67.1238  69.8256  70.8887  70.8887  73.3495  73.3495  74.4455  74.4455
    75.1788  75.3894  75.9035  75.9035  75.9656  75.9656  80.3453  80.3453
    80.6948  80.7569  80.9543  80.9543  81.8776  83.2515  86.4818  86.4818
    87.0140  88.0836  88.1187  88.1187  88.4502  93.0434  93.2537  93.2537
    93.5829  93.5829  93.8675  94.0578  94.3813  94.6631  94.6631  96.4805
    96.4805  96.7554  97.0674  97.0674  98.1143  98.1143 100.0517 100.6599
   102.0961 102.8251 102.8251 103.7736 104.0865 104.0865 105.9913 105.9913
   106.1329 106.8169 106.8169 107.6865 108.6860 108.6860 109.2162 110.8925
   110.8925 110.9032 110.9837 111.3126 111.3126 111.5931 111.5931 113.2868
   115.0709 115.3879 115.3879 117.0977 118.1811 118.1811 118.5409 119.2136
   119.2136 119.8199 119.8199 120.9658 121.0141 121.4176 121.4176 122.1420
   122.1420 123.1432 123.1432 126.3041 126.4727 126.4727 126.5564 129.0738
   129.0738 129.6452 130.1916 130.4381 130.4381 130.5495 131.6017 131.6017
   131.9443 131.9443 132.6131 133.9872 137.3885 137.7746 138.2731 138.2731
   138.8255 140.3585 140.3585 140.7032 140.9212 140.9212 141.9876 141.9876
   142.9587 143.4632 143.9929 143.9929 145.3989 145.5158 145.5158 145.7184
   145.7184 146.3180 146.3961 146.3961 146.5495 148.1784 148.1784 148.3167
   148.3167 148.4997 151.8921 152.3467 152.3467 153.8073 153.8810 153.8810
   154.3453 154.3453 154.8430 155.0004 156.7282 156.7282 156.8324 156.8324
   157.6176 157.6430 157.6430 157.9641 158.4420 158.6868 158.6868 159.0414
   159.0414 160.2750 160.2750 160.4586 162.9047 163.2012 163.2012 164.0111
   164.9503 165.1054 165.5116 165.6558 165.6558 165.8521 165.8521 168.1640
   168.1640 168.7904 172.0662 172.6899 172.6899 173.8380 173.8380 174.1728
   174.1728 174.2658 174.4320 174.9998 174.9998 175.1999 175.3251 175.7024
   176.0054 176.0054 176.1646 176.7177 176.7177 176.8922 176.8922 176.9042
   178.7855 178.7855 180.1523 180.1523 181.1967 181.3127 182.9801 182.9801
   183.6094 183.6094 185.2425 187.8486 190.1415 190.1415 190.8985 191.5482
   191.5482 191.8731 191.8731 192.4992 192.4992 192.7284 192.7284 193.0764
   193.1501 193.1614 193.2324 193.2324 193.2526 193.3983 194.2551 195.5974
   196.4064 196.4064 196.9468 196.9468 198.1499 198.7946 199.9405 199.9405
   200.0824 200.0824 200.5935 200.5935 200.8221 200.9114 201.0527 201.0527
   201.3055 201.3055 201.3679 201.6031 201.6031 201.7599 202.2985 204.2472
   204.7979 204.7979 204.8378 204.8378 206.2346 206.2362 208.3787 208.3787
   210.3050 210.3050 210.9440 210.9440 211.9424 212.2577 212.5295 212.5295
   213.0146 213.0146 213.0189 213.8595 213.8595 214.6115 214.6115 215.0510
   215.0510 215.5341 216.1247 217.9969 217.9969 218.1102 218.1102 218.3098
   218.3645 218.3645 218.4681 219.4886 219.9669 219.9669 220.1600 220.4151
   221.7352 222.7020 222.7020 223.0906 223.0906 223.4602 223.4602 223.8032
   223.8073 224.2622 224.2622 225.7756 227.3124 227.3124 228.8148 228.8148
   229.3394 229.5367 229.8846 229.8846 230.4207 230.4207 230.5712 230.7450
   233.3321 233.3321 235.2463 235.6569 235.6802 235.6802 236.1074 236.1074
   236.1441 236.9499 237.8451 237.8451 237.9541 237.9541 238.4066 239.0590
   239.0590 239.1412 239.8632 239.8632 239.8780 239.8780 239.9709 240.4931
   241.9196 242.5965 242.9585 242.9585 243.1933 244.6186 244.6186 244.7389
   244.7389 244.8712 245.0313 245.3598 245.3598 245.9011 246.3518 246.9961
   246.9961 247.7214 247.7214 249.2254 249.2254 249.5534 249.5534 250.5284
   252.2841 252.2841 252.7570 253.3190 253.3190 254.0232 255.3555 255.3555
   255.6830 256.1334 256.1334 256.2558 258.6561 258.6561 258.6809 258.8471
   258.8471 259.2844 259.4655 259.4655 260.3293 260.3293 260.3458 260.3458
   260.3635 260.4395 261.3063 261.7524 261.8801 261.8801 263.9878 263.9878
   264.5149 264.5149 265.7287 265.8375 266.1759 266.2406 266.2406 267.5387
   268.7630 268.7630 268.9252 269.0694 269.0694 271.4777 272.6342 273.0559
   273.0559 273.1076 273.1076 273.3624 274.4219 274.4219 274.8571 274.8571
   274.9667 275.2090 276.3356 276.5017 276.7191 276.7191 276.7469 276.7469
   277.2520 277.2552 277.2552 277.3702 277.3702 277.6028 277.6028 277.6476
   278.1114 278.2857 278.2857 278.8352 278.8352 279.2100 281.0401 281.0463
   282.9795 283.7757 283.8806 283.8806 284.0891 284.0891 284.1995 284.1995
   284.6574 284.7385 284.7385 285.0693 285.1792 285.2016 285.6477 285.6477
   285.8211 285.8211 286.4125 286.4125 286.5285 286.5285 286.7726 286.7884
   292.5008 292.5008 292.7417 293.0331 293.0331 293.0822 293.7920 293.7920
   294.4409 294.4409 294.5701 294.6873 294.6873 294.6944 295.1237 295.1237
   295.2142 295.3226 296.3301 296.3301 296.9674 296.9674 297.0512 297.0586
   299.0230 299.0230 299.8611 301.0164 301.0164 301.2645 301.2847 301.6315
   301.6963 301.6963 302.0470 302.0470 303.3411 303.7248 305.2738 305.5429
   305.5429 305.9442 305.9442 306.1280 306.1280 307.5071 307.5071 308.6711
   309.3678 309.5542 309.5542 309.7626 309.7968 309.8177 309.8177 310.4806
   310.4806 310.5839 310.5839 310.6881 310.9163 310.9163 314.5567 314.5567
   314.8886 314.8886 315.4201 315.4201 315.5526 316.2346 316.2544 316.2544
   316.6026 316.6038 317.6399 317.6526 317.6526 318.0806 319.1761 319.2478
   320.5439 320.5439 320.6683 320.7462 320.7462 322.1642 322.1642 322.5391
   322.5391 323.9785 324.1084 324.1084 324.6283 324.8499 324.8499 324.8588
   324.8588 325.0347 325.0362 325.6061 326.3026 326.5197 326.5197 326.9215
   332.8857 332.8857 332.9601 332.9601 334.2577 334.2577 334.5109 334.5109
   334.6882 335.7738 335.7738 336.0513 337.1002 337.2826 337.2826 337.4606
   337.4606 337.6774 337.6774 337.7933 338.2211 338.3209 338.8456 338.8456
   338.9475 338.9475 338.9704 339.3463 339.8724 339.8724 340.1424 340.1514
   340.1514 340.2310 340.8108 340.8108 340.8136 340.9735 340.9735 341.0658
   341.1079 341.2510 341.2510 341.2905 341.3400 341.3400 341.8585 341.8585
   341.8879 341.8879 342.0517 342.2656 344.4782 344.4782 344.9704 345.5659
   345.5983 345.5983 345.9793 346.4731 346.4731 346.5279 346.5279 347.1250
   349.5687 350.2787 350.2787 350.2999 350.7973 350.7973 351.5273 351.5273
   352.0798 352.1154 352.3521 352.3521 356.1295 356.1295 356.6731 356.6731
   356.8496 357.5476 357.6946 357.7173 357.9026 357.9026 358.0197 358.0197
   358.3263 358.3263 358.4252 358.4252 358.4739 358.6930 358.8010 358.8010
   359.6371 359.7416 359.8383 359.8383 359.9197 359.9197 360.0705 360.0738
   360.0738 360.2718 363.1155 363.1472 363.9715 363.9715 364.5701 364.9821
   364.9821 365.3602 366.3567 366.3966 366.3966 366.8885 366.8885 368.0459
   368.0459 368.2938 368.2938 368.4842 368.5037 368.6056 368.6056 369.0107
   369.0107 369.0896 369.1277 369.3429 373.0670 373.0670 373.5158 373.5158
   373.5501 373.6895 376.5496 376.5496 376.7645 376.7645 378.0678 378.0678
   378.7431 379.1486 379.3006 379.4841 379.4841 379.5032 379.6341 379.6557
   379.6557 379.8845 379.8845 379.9371 379.9371 380.0073 380.0695 380.0695
   381.3412 381.3412 382.8857 383.1237 383.1237 383.1794 383.1794 383.4455
   383.6634 383.7068 383.7068 384.1166 384.1166 384.2975 384.9614 385.2559
   385.7208 385.7208 386.2630 386.2630 386.4646 386.6566 386.6566 386.8673
   387.8586 387.8586 388.0770 388.1146 388.1146 388.1290 392.2748 392.2748
   394.4589 394.4589 394.8157 394.8937 394.8937 394.9298 395.0790 395.0790
   395.5549 395.5633 395.7743 395.7743 396.0376 396.1339 396.1339 396.1361
   397.3005 397.3005 398.7343 398.7343 398.9447 398.9561 398.9561 398.9757
   398.9757 398.9931 399.2505 399.4106 401.5395 402.0956 402.6538 402.6538
   402.8889 402.8889 403.8849 404.1319 404.1319 404.1809 404.1809 404.2001
   404.2068 404.2241 404.5709 404.5709 404.5833 404.5833 407.7550 407.7550
   407.7644 407.7644 407.9030 407.9031 409.3748 409.3748 410.5610 410.6774
   411.0871 411.0871 411.7344 411.8252 411.8252 411.8423 412.4896 412.4926
   412.7472 412.7472 412.8639 413.1324 413.1324 413.2501 413.2501 413.5479
   417.6661 417.6661 417.7137 417.8236 417.8236 418.0491 418.7973 418.7973
   419.0085 419.0085 419.2658 419.4240 419.4240 419.5919 419.9632 419.9632
   419.9913 419.9940 420.3689 420.3689 421.2261 421.2261 421.2290 421.4202
   421.5488 421.5488 421.5561 421.5642 421.5642 421.6148 422.8063 422.9034
   423.0045 423.0045 423.0390 423.0390 425.1612 425.1621 425.1621 425.2032
   425.2032 425.2767 425.6687 425.6687 425.7063 425.7063 425.7838 425.7863
   432.0088 432.6988 432.6988 432.8836 432.9417 432.9417 433.2596 433.2596
   433.4174 433.4174 433.4555 433.5316 433.9020 433.9020 433.9717 433.9717
   433.9889 434.0073 434.6689 434.6744 434.6744 434.8246 434.8246 435.3793
   438.3127 438.3541 438.3541 438.7312 438.7312 439.3976 439.8643 440.5872
   440.5872 440.7268 440.7268 440.8522 440.9345 441.0907 441.0907 441.5297
   441.5297 441.5709 441.6656 441.6656 441.7545 441.8009 441.8009 441.8171
   441.8958 442.2594 443.4617 443.7176 443.7176 444.4783 444.4783 444.5568
   445.4898 445.7520 445.7520 446.7283 446.7283 446.8463 446.8463 447.0152
   447.0152 447.1653 447.8421 448.2260 448.3952 448.3952 448.9065 448.9065
   451.4567 451.4567 451.5060 451.5060 451.5763 451.6706 451.9873 451.9873
   452.1294 452.1481 452.1481 452.2300 453.2215 453.2215 453.2252 453.2252
   453.3758 453.3758 453.4054 453.4054 453.5151 453.5155 455.1207 455.1209
   459.9578 459.9578 459.9695 459.9695 460.0111 460.0627 460.4051 460.7320
   460.7320 460.9471 460.9471 461.2296 463.9993 463.9993 464.0991 464.0991
   464.1587 464.4065 464.9358 464.9358 464.9781 465.0976 465.0976 465.3158
   465.5290 465.5290 465.9701 466.0158 466.0158 466.0434 466.0434 466.1538
   466.5270 466.5588 466.5588 466.8236 467.0252 467.0647 467.0647 467.2791
   467.2791 467.3988 469.0682 469.1537 469.1537 469.3984 469.3984 469.4383
   470.8925 471.0861 476.3069 476.3069 476.3563 476.3563 476.5655 476.7175
   477.2781 477.2781 477.3052 477.3214 477.3214 477.4665 477.8549 477.8588
   477.8588 477.8848 477.8848 477.9654 478.4334 478.4334 478.4410 478.4410
   478.4413 478.5475 478.7756 478.7756 478.7893 478.8228 478.8228 478.9335
   479.9218 479.9218 479.9361 480.1096 480.1100 480.1100 480.2047 480.2188
   480.2188 480.2707 480.2707 480.3099 480.5661 480.5661 480.5933 480.5933
   482.0892 482.0892 482.0899 482.0899 482.1485 482.1503 483.5959 483.5959
   484.0339 484.0339 484.2395 484.3015 488.6130 488.6130 488.9665 488.9665
   489.0451 489.1116 490.3398 490.3398 490.6076 490.6076 490.9407 491.6040
   495.8903 495.8903 496.1065 496.1443 496.1443 496.2935 496.5516 496.5516
   496.8524 496.9446 497.0577 497.0577 497.3569 497.3569 497.5540 497.5592
   497.5791 497.5791 497.6152 497.6152 497.7135 497.7135 497.7291 497.7799

          k = 0.0000 0.5000 0.0000 (  2477 PWs)   bands (ev):

   -33.2822 -14.3332 -14.2869 -14.2869  -4.9255   4.0300   5.4493   5.4493
     9.1017  11.1223  11.1428  11.8478  11.8478  14.3398  15.8482  17.4613
    17.4613  17.5091  21.6488  22.1331  24.4846  24.5660  24.5660  27.3180
    27.6259  27.6259  28.6222  32.4487  33.0613  34.0485  34.0485  36.4895
    36.4895  37.4266  40.3099  40.8130  41.2336  42.3702  42.3702  42.7543
    43.3442  43.3442  44.9767  45.6025  45.6025  47.6193  48.2684  48.4114
    49.6828  50.4601  51.4995  54.1677  54.1677  55.7039  56.0915  56.0915
    57.2621  57.2621  57.5716  58.8050  61.0589  61.0589  61.7097  62.3783
    64.2162  64.2162  64.2521  64.2569  65.2165  65.2165  67.3758  69.8042
    69.8148  72.2537  73.6457  73.6761  73.6761  74.9132  74.9132  75.4041
    75.7039  75.8519  76.4101  76.4101  77.2598  80.0834  80.0834  80.1757
    80.3921  83.3251  83.3251  83.4503  85.9455  85.9455  86.4402  87.1218
    87.5604  87.8075  88.9894  89.2733  89.2733  90.4238  90.8496  91.5142
    91.5142  92.4746  92.4746  93.2234  95.3653  96.1033  96.1033  96.4159
    96.6462  96.9842  98.1448  98.1448  98.6047  99.4168  99.8444 100.5319
   100.5319 100.7774 100.7890 102.0401 102.0401 103.1811 103.1811 103.5251
   103.9100 103.9100 103.9126 104.4646 104.5300 105.9815 105.9815 106.9057
   107.7306 110.1578 110.5004 110.5004 111.1814 113.8057 114.5348 114.5912
   115.6390 115.6390 117.1185 118.0582 118.0582 118.4978 118.4978 118.5300
   118.7033 119.8205 120.0980 120.0980 121.8910 122.0217 122.9870 124.8506
   125.3125 125.3125 126.1536 126.2029 126.2029 126.2927 126.8123 128.3780
   129.2323 129.2323 129.8737 130.1247 131.5162 132.0628 132.0651 132.0651
   132.8032 135.0855 135.2511 135.2511 135.6934 138.4369 138.4418 138.4418
   138.5517 139.1876 139.2063 139.2063 140.3817 140.8337 140.8337 141.4038
   142.3792 143.5723 143.5723 144.6531 144.6531 145.3891 145.8429 145.8429
   146.1168 146.3673 146.9541 147.4816 147.8914 147.8914 148.9297 149.6674
   149.6674 150.4852 150.5285 151.2279 151.5595 151.5595 153.8083 153.8083
   153.8879 154.0269 154.2468 154.2468 154.8405 155.0904 155.0904 156.3559
   156.7610 158.1284 158.1284 158.3717 159.3040 159.9351 161.0535 161.2656
   162.9145 162.9145 164.6611 164.9206 165.3911 165.3911 166.8300 166.8783
   166.8783 167.1165 167.7441 168.1368 168.1368 168.7881 169.4866 170.1477
   170.7617 171.4989 171.5124 171.5124 172.0636 172.0636 173.5241 174.1370
   174.2646 174.2646 175.1872 175.6794 175.8079 176.0434 176.0434 176.1056
   176.6750 176.6750 177.1106 177.3112 177.7217 178.2612 178.2612 178.3359
   178.8599 178.9196 178.9196 179.0907 179.7624 180.3629 180.3629 181.5966
   182.4553 182.4553 182.6377 182.8468 182.8660 182.8660 183.0342 183.0919
   184.2584 185.4474 185.4474 186.5680 186.5680 186.8368 188.1670 188.2796
   188.7467 189.2722 189.9153 190.3658 190.3658 191.2720 191.3643 191.4659
   191.4659 192.6154 192.6154 194.7197 194.8555 195.6947 195.6947 198.1666
   199.0764 200.3628 200.3628 201.1682 201.2407 201.7198 201.7198 203.2084
   203.4329 203.4329 204.3967 204.4649 204.7023 204.7023 205.4901 205.8923
   206.2031 207.8244 207.8301 207.8301 208.6200 208.8696 208.8696 209.8970
   209.8970 210.4348 210.8383 210.9803 211.0532 211.7123 212.0939 212.0939
   212.3308 212.3308 212.5834 213.9393 214.0183 214.4468 215.0660 215.0660
   217.1240 217.1240 217.6210 218.1879 218.1927 220.7721 221.3495 221.3495
   221.5100 221.7952 221.7952 223.0767 223.9222 224.6166 224.6166 226.2760
   226.2828 226.2828 226.7456 227.1911 227.1911 228.6437 228.7479 228.9820
   228.9820 229.2096 229.3577 229.4845 229.4845 229.7160 231.2485 231.2485
   231.5241 231.5391 232.2818 232.7628 232.7628 233.4086 234.0330 234.6623
   235.3434 235.3434 235.4536 235.5179 235.7370 235.8845 236.2311 236.2311
   236.3790 236.3790 236.6831 236.9571 237.4686 237.5176 237.5176 237.5925
   237.6325 238.1666 238.1666 239.7382 240.0256 240.6218 240.6640 240.6640
   240.8688 241.0119 241.0119 241.5934 242.0848 242.1719 243.4410 243.4410
   244.4376 244.5040 244.5040 244.9190 245.3632 245.9234 245.9234 246.5496
   246.5496 246.6713 247.0273 247.2898 248.5485 248.6351 248.6351 248.6558
   248.7072 249.2491 249.2491 249.5809 251.3058 251.4105 254.0700 254.0700
   254.5271 257.0829 257.2851 257.5093 257.5093 257.5575 257.6075 258.0939
   258.0939 258.3658 258.7178 259.2782 259.3073 259.3073 259.3274 259.9410
   259.9410 260.9973 261.3940 261.3940 261.8897 262.0803 262.0841 262.0841
   262.1089 262.4046 263.5698 263.5698 265.2914 265.2914 265.3382 265.7558
   266.4165 266.4165 268.2701 268.7167 268.7167 269.3149 270.1338 270.4059
   270.9666 270.9834 271.3781 271.3781 271.7637 272.4714 272.4714 272.5295
   273.1324 273.1324 273.2801 273.7041 273.9153 273.9153 274.1218 274.6871
   274.6871 274.7336 276.0297 276.2549 276.3083 277.4074 277.4074 277.6412
   277.7342 277.9187 277.9187 278.1744 278.9209 279.4850 279.5878 279.5878
   280.4854 280.5227 280.5227 281.4951 285.2021 285.2271 285.2363 285.2363
   285.3846 286.4177 286.4177 286.5687 286.6054 286.9649 286.9649 287.6976
   288.1133 288.1133 288.3692 288.4542 288.9704 289.5395 289.5395 289.8362
   290.0164 290.4903 290.4903 291.4468 291.4561 291.5135 291.5704 291.5704
   291.9160 292.5493 292.9127 292.9127 293.2825 293.2825 293.2842 293.3296
   293.7271 294.9119 294.9119 295.2756 295.5725 295.5725 295.9707 297.5879
   297.5879 298.3103 298.3217 299.7008 299.9538 300.0098 300.0098 300.1105
   301.3802 302.9876 304.6255 304.6255 305.6553 305.6553 305.7550 306.0920
   306.2970 306.6186 306.6186 306.9729 308.6339 310.0935 312.5288 312.5288
   312.9394 313.1696 313.9379 313.9379 314.0229 314.2193 314.2193 314.3997
   314.4181 314.9056 314.9056 315.3195 315.4067 316.3250 316.7506 316.7844
   316.7844 316.8292 317.5284 317.7871 317.7871 318.2380 318.5385 318.8276
   318.8633 318.8633 318.9254 319.0415 319.0822 319.0822 319.5453 320.0406
   320.0406 320.5048 320.7409 320.7409 320.8074 320.8539 320.9094 321.1532
   321.1532 321.9806 323.5249 323.5249 323.5658 323.5739 323.6740 323.6740
   324.0318 324.3192 324.4137 325.3266 325.8379 325.8379 326.7288 327.9878
   328.2690 328.2690 329.5473 329.8955 329.8955 330.1309 334.3754 334.8678
   334.8678 335.6689 335.9704 335.9704 336.6922 336.9107 337.1786 337.1786
   337.2910 337.4118 337.4118 337.4295 337.5124 337.7814 337.7814 337.8042
   338.0531 338.3175 338.3175 338.3339 338.3617 338.3936 338.3936 338.4175
   341.2180 341.4463 341.4463 341.4925 341.9431 342.2184 342.2184 342.6709
   343.4366 343.4366 343.8986 344.2533 344.3165 344.3165 344.6285 344.7160
   344.7528 345.8369 345.8369 345.8646 346.0962 348.3282 348.3282 348.3529
   348.5202 349.2013 349.2013 349.2129 349.6764 349.6972 349.6972 349.6987
   349.9095 350.0857 350.1213 350.1213 350.5623 351.1614 352.2001 352.4262
   352.4262 352.7400 352.7400 352.9222 353.9085 354.0308 354.9913 354.9913
   355.5357 355.5357 355.7940 356.0852 356.1524 356.7675 357.4928 357.4928
   357.6498 359.0961 359.8775 360.4122 360.4122 360.6244 361.1637 361.5777
   362.0098 362.0098 363.0577 363.0577 363.2185 363.3247 363.7360 363.9690
   363.9690 364.0370 364.3131 364.3131 364.9883 365.2908 365.3918 365.5063
   365.5063 365.5338 365.6192 365.6616 365.7966 365.7966 367.0829 367.0829
   368.0702 368.1029 368.1029 368.1213 368.8452 369.2648 369.2648 369.2941
   369.3088 369.3981 369.3981 369.5498 369.7056 369.7056 369.8820 369.9868
   371.8589 373.1399 373.1399 373.7736 373.7920 373.9391 374.3650 374.3650
   374.4433 376.0238 376.0270 376.0841 376.0841 376.1471 376.2300 376.2373
   376.2373 376.4246 376.7880 376.9030 376.9593 376.9593 377.0020 377.0020
   377.0347 377.0722 378.7739 378.8806 378.8806 379.0950 379.4818 379.4818
   379.5664 379.5664 379.5777 379.6222 380.8961 381.1039 381.4133 381.4133
   381.5911 384.3115 384.4353 384.4598 384.4598 386.2869 387.3219 387.3219
   388.2723 388.3397 388.8012 388.8012 389.0096 390.9475 391.3298 391.7270
   391.7270 392.1807 392.3657 392.3657 392.3688 392.7494 393.1363 393.6753
   394.3202 394.3202 394.4196 394.4196 394.4756 394.6198 395.4349 398.0683
   398.0683 399.7553 399.7553 399.9198 400.0242 400.5910 400.5910 400.8770
   401.1636 401.4205 401.9341 402.0569 402.2516 402.2516 402.4818 402.7658
   402.9199 402.9199 403.0556 403.2746 403.2917 403.2917 403.4676 403.5553
   404.5126 404.5126 404.8169 406.5244 406.5244 406.8147 407.6830 407.7145
   408.1465 408.1465 408.9615 409.0188 409.0188 409.0749 409.3293 409.6019
   409.6266 409.6266 409.8443 410.3919 411.9092 411.9092 412.4707 413.1400
   413.1400 414.2459 414.2669 414.2669 414.2894 414.6689 414.9364 415.6146
   415.6577 416.1365 416.1365 416.5514 416.8239 416.8239 417.7032 418.5661
   418.8246 418.8559 418.8559 419.4035 419.5379 419.5379 419.5461 419.7015
   420.0052 420.0446 420.0446 420.1361 420.2565 420.2608 420.2608 421.0895
   421.0895 421.7072 421.8818 421.8818 421.9193 423.5009 423.5777 423.5777
   423.6751 424.6736 424.7980 424.9146 424.9146 425.0077 425.6507 425.7013
   425.7013 425.7532 426.5900 426.5900 427.0709 427.2262 427.4092 427.4742
   427.4742 427.7148 427.7669 427.7669 428.1887 428.4070 428.4070 428.4811
   428.5155 431.4142 431.5869 431.5869 431.6738 431.9279 432.0956 432.0956
   432.1881 433.4694 434.5847 434.6449 434.6449 434.6780 437.2405 437.6877
   437.9769 437.9860 437.9894 437.9894 438.1549 438.1549 438.7131 438.8431
   438.9579 438.9579 439.4437 439.4437 439.5157 439.6420 440.0527 440.5494
   441.3307 441.4213 441.4213 441.4831 442.0418 442.0418 442.6435 443.3543
   444.2875 444.2875 444.8655 446.5676 448.5029 448.5029 448.5648 448.8271
   449.0526 449.0859 449.0859 449.1677 449.2146 449.3245 449.3245 449.4846
   449.4846 449.6500 449.7443 449.9780 449.9780 452.0766 452.3481 452.3481
   452.6734 454.8452 455.7137 455.7137 455.9553 455.9845 456.1326 456.1789
   456.1789 456.4361 456.5127 456.5343 456.5548 456.5548 457.0878 457.5355
   457.5355 457.7794 458.3378 458.3579 458.3865 458.3865 458.4210 458.6531
   458.6531 458.7046 459.7920 461.2449 461.4306 461.4673 461.4673 462.6895
   462.6895 463.4690 463.8011 463.8011 464.0780 464.3158 464.5817 464.5823
   464.5823 464.6213 464.8461 465.8957 465.8957 465.9414 465.9988 465.9988
   466.0377 466.1627 467.0540 467.0793 467.0793 467.1369 469.9729 470.0119
   470.0119 470.0689 470.0689 470.1049 470.1397 470.6001 471.3311 471.3920
   471.3920 471.4311 472.1166 472.3626 472.3626 472.4592 473.0193 473.5482
   473.5482 473.7017 473.9999 474.3718 474.3812 474.3812 474.7375 474.7725
   475.1526 475.1526 475.6641 476.3875 476.3875 477.1163 478.3755 478.5090
   478.6471 478.6471 478.7921 479.5558 479.5558 480.0352 480.2543 480.2543
   480.5473 481.4944 481.7218 481.7707 481.7707 481.8025 481.8456 482.1629
   482.2033 482.2033 482.8153 482.9835 482.9921 483.3057 483.3057 483.6039
   483.6502 483.6502 483.9755 483.9846 483.9846 484.0294 485.0993 485.3274
   485.3274 485.5405 486.8883 486.9287 486.9886 486.9886 487.0012 487.1237
   487.2574 487.2574 487.9381 487.9531 487.9609 487.9609 487.9781 487.9781
   487.9902 487.9936 488.9398 489.6301 489.6757 489.6757 489.7187 489.9690
   490.1591 490.1591 490.8449 492.2034 492.2034 492.2639 492.5683 493.5289
   494.7215 494.7215 494.7731 495.1589 495.5058 495.6387 495.6387 495.6584
   495.6619 495.9445 495.9445 496.0968 496.1997 496.2402 496.2402 496.2575

          k = 0.7500-0.2500 0.7500 (  2454 PWs)   bands (ev):

   -33.2767 -14.3837 -14.3130 -14.2933  -4.6252   3.5520   4.5243   4.9959
     9.8003  12.2354  12.3430  12.4873  12.7062  13.6055  14.8475  16.7990
    17.0045  19.8743  20.4363  21.7843  23.6345  23.9279  25.2285  27.3591
    27.7572  29.7281  29.8146  30.1587  32.0233  33.8793  34.8708  34.9326
    35.2450  35.8113  38.5798  38.9868  40.3857  41.2141  41.5745  41.9048
    43.2653  44.0562  45.1688  45.3699  47.5676  49.5477  51.0009  51.5450
    52.2414  52.8483  53.4554  53.8583  53.8826  55.1701  55.6334  55.6737
    57.0164  57.4133  59.4045  59.6451  61.1804  61.8839  63.8303  64.0938
    64.2842  64.8871  65.4784  66.1033  67.1247  67.9317  68.4192  68.8916
    69.0096  69.5243  69.9510  70.0951  71.7023  72.0290  73.3780  74.4441
    74.6020  76.1329  76.8674  77.2788  77.4892  78.1633  78.2414  78.3688
    78.4884  81.5421  82.1802  82.2537  83.2991  83.3039  84.1231  84.9993
    86.3427  87.4382  87.9173  88.6967  88.8709  89.2341  90.2204  91.0555
    91.4271  91.8549  92.0921  92.7281  93.1074  93.6660  95.1096  95.1719
    96.3853  97.0541  97.9589  98.5692  99.9009  99.9190 101.2924 102.2937
   102.6871 103.2421 103.4694 103.9723 104.5509 104.5947 106.0613 106.2577
   106.9727 107.0913 107.7532 108.5690 108.7640 108.8227 109.8406 109.8931
   110.6025 111.1340 112.3909 112.3941 112.6945 112.8089 114.4727 114.4904
   114.9942 116.1239 116.4684 116.8730 118.4350 119.5309 119.5703 119.6985
   120.0352 120.9939 121.1366 121.5072 122.4477 122.5006 122.7935 123.3562
   124.2974 124.7370 125.5015 125.6754 126.3323 126.7279 127.3697 128.1715
   129.0789 129.2635 129.7830 129.9136 130.5397 130.6409 131.2036 131.4586
   132.1535 133.4282 133.5352 134.1086 134.5596 135.0879 135.5129 136.0635
   136.3652 136.7422 137.1067 137.6990 137.9935 138.6386 139.4949 139.6431
   140.1082 140.9650 142.1827 142.2627 142.8412 143.6078 144.0796 145.0811
   145.1003 145.4039 145.9596 146.2704 146.7900 147.0227 148.5573 149.4125
   150.2198 150.2415 151.2612 151.6138 151.9407 152.6580 152.9966 153.0719
   153.8826 153.9252 154.6453 154.8356 154.8810 155.8796 156.2807 156.4103
   157.3003 158.1472 158.2905 158.7542 159.0240 159.4834 159.9638 160.1984
   160.9899 161.6188 161.6892 161.9154 162.0172 162.5489 163.5844 163.8913
   164.9750 165.5971 166.8690 167.1233 168.2385 169.0426 169.2659 170.5217
   170.6286 170.9683 171.3054 171.4458 171.6565 172.0107 172.6052 173.1157
   173.4977 173.6171 173.7865 175.0372 175.3555 175.7683 177.4121 177.6854
   178.0943 178.7781 179.1475 179.6048 180.0283 180.2282 180.7800 180.9431
   181.8411 181.8485 181.9150 182.2574 183.0016 183.4733 183.5326 183.8668
   184.5085 184.5952 184.8357 185.8486 186.6588 187.7022 187.9830 187.9854
   188.9508 189.1854 189.9303 189.9484 190.7061 191.0965 191.5817 192.0087
   192.1224 192.7591 193.0690 193.5884 193.6177 193.9109 195.3117 195.4378
   195.8824 196.0358 196.3749 196.6022 196.9723 197.2168 197.2308 197.4386
   198.1287 198.5345 198.5695 198.9796 199.2642 199.9750 200.3785 200.8594
   201.0607 201.0929 202.7205 203.6096 203.6979 203.8946 204.5647 205.3624
   205.5189 205.8576 206.2376 207.4214 207.8560 208.1226 208.1226 208.9058
   209.1448 209.5540 210.0399 210.0874 210.1705 210.7814 211.1388 211.2068
   212.2683 212.9144 213.4747 214.0802 214.7132 215.0166 215.7702 215.8938
   216.1262 216.5008 216.6224 217.7771 218.1529 218.4888 218.5698 219.0495
   219.0854 219.3301 219.4210 220.2525 220.4272 220.5465 221.2732 221.5115
   221.5119 221.8285 222.0592 222.1129 222.3602 223.5126 223.6337 223.7302
   224.1415 225.3392 225.8022 225.9527 226.0774 226.8666 226.9700 227.3797
   228.2743 228.6800 228.7968 229.0208 229.1652 229.3108 229.3779 230.5089
   230.7720 231.2239 231.7515 232.8745 233.1216 234.4161 234.8036 235.3185
   235.8684 236.8815 237.0615 237.1787 238.1796 238.3270 238.7189 239.0898
   239.2952 239.4111 239.8608 240.1390 240.2580 240.3205 240.3469 240.6754
   240.8681 241.0299 241.6977 243.0658 243.5465 244.3843 244.7236 245.0597
   245.3237 245.3385 246.0318 246.7091 247.0544 247.2232 247.3226 248.3395
   248.5309 248.6048 249.1574 249.2286 249.8983 250.0055 250.0731 250.4006
   250.5218 251.0387 251.6925 252.1065 252.1127 252.9011 252.9394 254.0570
   254.5959 255.0079 255.4276 257.0895 257.6886 258.3288 258.7158 258.7616
   259.3654 259.6040 260.2097 260.4867 260.6608 260.6986 261.2786 261.5337
   262.2101 262.4001 262.6042 262.9704 263.5271 263.6728 263.9519 264.1964
   264.2913 265.4348 265.7081 266.1037 266.4318 266.6839 266.9511 267.0101
   267.8675 268.0497 268.3404 268.7773 268.9306 269.3347 269.7260 269.9446
   270.1404 270.2125 270.4191 270.5343 271.3051 271.3181 272.4374 272.9387
   273.1477 273.7568 274.9154 275.0643 275.3930 275.6578 275.9625 276.0002
   276.5384 277.2480 277.8377 278.5526 279.6992 279.7192 279.7856 280.2899
   280.4744 280.9854 281.3394 281.6211 282.0067 282.7891 282.8215 283.0427
   283.5611 283.7342 283.7982 284.4517 284.4552 284.8057 285.2311 285.8934
   286.1141 286.7608 287.1000 287.3421 287.4291 287.5259 287.6432 288.1319
   288.5889 288.7251 289.0473 289.1220 289.2806 289.3892 290.1763 290.6511
   290.7241 291.2213 292.4153 292.5060 292.6525 293.5013 293.5388 293.7552
   294.0222 294.3763 294.7255 294.9213 295.5020 295.7426 296.0393 296.3547
   296.7417 296.8279 297.6543 297.9414 298.0817 298.1379 298.5421 298.6207
   299.1208 299.5780 299.7063 300.4856 301.1777 301.8196 302.1123 302.2889
   302.5568 303.0684 303.1145 303.2608 303.7543 304.0959 304.2378 304.4011
   304.7515 305.5349 305.6582 306.5530 306.5971 307.3205 307.7503 308.5205
   308.7838 308.8579 309.2410 309.3133 309.6397 309.6542 310.0451 310.2792
   310.5169 311.6495 312.0399 312.3457 313.0026 313.8185 314.3704 314.3830
   314.8291 314.8653 315.3971 315.7952 315.8948 316.4632 316.5486 317.0145
   317.1931 317.2859 317.4861 317.7443 317.8970 318.0883 318.2426 318.6832
   318.9267 319.0895 319.5858 319.6716 319.9373 320.9735 321.2613 321.6000
   322.0000 322.0345 322.2137 322.7864 323.2441 323.8014 324.1709 324.3815
   324.7816 325.3677 325.4168 325.6777 325.8057 325.9346 326.2771 326.9692
   327.0365 327.5103 327.9244 328.4594 328.9883 329.3865 329.3949 329.5294
   330.4925 330.6759 330.8560 331.5220 331.8059 332.3918 332.4608 332.4893
   332.9411 333.0408 333.1733 333.2054 334.4840 335.3052 335.5795 335.8064
   335.9560 336.0781 336.1405 336.6529 336.7836 336.8831 336.9077 337.1880
   337.3561 337.5148 337.5701 338.0533 338.6771 339.2729 339.8994 339.9619
   340.0528 340.3832 341.2712 341.8602 342.1029 342.3265 343.0468 343.2661
   343.7417 343.7511 343.9619 345.9061 346.1300 346.3670 346.4721 346.6841
   347.0308 347.0697 347.6969 347.9544 349.6840 350.1975 350.2599 350.6131
   351.3839 351.7102 351.7597 352.0381 352.8138 352.9515 353.0846 353.3793
   353.5005 353.6872 354.0075 354.4488 355.1902 355.2034 355.4672 355.5135
   355.5649 355.8223 355.9126 356.0589 356.2462 356.4926 356.7904 356.8044
   356.8492 356.8944 358.0857 358.2190 358.2443 359.4587 361.7585 361.8821
   362.1556 362.3464 362.4941 363.3362 364.2327 364.5678 364.6005 364.9871
   365.0161 365.1160 365.6431 365.6440 366.0473 366.1903 366.2033 366.7170
   366.7952 367.0050 367.3048 367.6463 367.8869 368.1405 368.7115 368.8718
   368.9747 369.3348 369.6301 370.1746 370.6238 370.7074 372.0175 372.0470
   372.0638 372.1360 372.2262 372.5774 372.6861 373.2657 373.6197 373.9808
   374.0482 374.1793 374.2804 374.4318 374.6209 375.7422 375.9986 376.2178
   376.2821 376.7356 376.7551 376.9070 377.9120 378.0056 378.1104 378.9305
   379.0358 379.9193 379.9418 380.0186 380.1105 380.8980 380.9844 381.8433
   381.9670 382.0198 382.1758 382.6129 382.8304 383.1732 384.1389 384.1531
   384.4915 384.8461 384.8743 385.2559 385.7502 385.8517 386.0005 386.2396
   386.4496 386.4693 386.8699 387.6475 388.1514 388.9311 388.9464 390.2087
   390.4960 390.7430 390.8271 391.0503 391.3096 391.4504 391.8604 392.4249
   392.4428 392.6995 393.3522 394.3042 394.7834 394.9063 394.9774 395.8216
   395.8647 396.6774 396.9318 397.1164 397.4196 397.7807 397.8110 397.8890
   398.2519 398.7357 399.3399 399.5342 399.6777 400.3455 400.3556 400.5155
   400.7762 400.9508 401.1115 401.4137 401.5594 402.2701 402.2860 402.9483
   403.0100 403.1522 403.7017 403.7888 404.3352 404.9123 404.9643 405.1870
   405.5346 405.5647 405.7781 406.3028 406.3161 406.3375 406.7035 406.8658
   407.0350 407.8370 407.9445 408.1053 408.5275 408.8882 409.2367 409.3162
   409.6572 409.8189 409.9848 410.0095 410.4982 410.4987 411.0486 411.4199
   411.7617 411.7685 412.7793 412.9665 413.1208 413.3125 413.3173 413.6671
   413.6710 413.8874 413.9500 414.1705 414.2445 414.5294 414.7562 414.9549
   415.0021 415.5570 418.4224 418.6346 419.0425 419.1996 419.4684 419.9032
   420.0840 420.4132 420.7128 420.7687 421.5555 422.0247 422.1718 422.2632
   422.9306 422.9380 423.1281 423.3160 423.3825 423.6136 423.6266 423.7657
   423.7659 423.9790 424.5700 424.8124 425.0849 425.1200 425.3823 425.4479
   425.7116 426.4552 426.5251 426.5939 426.8157 427.0705 427.2809 427.6094
   427.7787 428.1589 428.2381 428.5171 428.7387 429.3836 429.4406 429.6420
   429.6495 430.0611 430.6879 430.7544 431.2424 431.4296 432.7373 433.6746
   433.7530 433.8589 434.1226 434.3294 434.8390 435.0012 435.1522 435.5146
   435.7923 435.8268 435.9475 436.0027 436.7288 436.8786 437.3538 437.6876
   438.0801 438.7317 438.7363 439.1322 439.3030 439.8950 440.3703 440.5794
   440.8103 441.1189 441.1646 441.3121 441.5755 441.6653 441.6819 441.7783
   441.8701 441.9022 442.5690 443.6047 444.0601 444.3427 445.2671 445.7863
   445.8082 445.8758 445.9303 446.0625 446.7705 446.7832 447.4661 447.6477
   447.7796 447.9344 448.2337 449.2336 449.7629 450.2398 450.2761 450.4027
   450.7311 450.7766 450.8413 450.8724 450.9344 451.2013 451.3191 451.6445
   451.9407 452.0654 452.0916 452.3747 452.4754 453.3190 453.4541 454.7393
   454.7488 454.9405 455.0906 455.7124 456.4253 456.4776 457.5807 457.6598
   457.7094 457.8145 458.6074 458.6298 459.6971 459.7273 460.1431 460.2439
   460.4104 460.7051 460.7161 460.9570 461.4703 461.6985 462.0458 462.0901
   462.2270 462.4563 462.6007 462.6863 463.1221 463.9125 463.9882 464.8462
   464.8526 465.2235 465.2549 465.4622 465.5495 465.7734 466.2594 466.3018
   466.4916 467.1759 467.2918 467.3734 467.6150 467.6174 467.8299 467.9990
   468.0707 469.1544 469.2122 469.8743 470.6381 470.9954 471.3620 471.4831
   471.5076 471.5918 471.7201 471.7872 472.1140 472.1378 472.2082 472.2677
   473.5070 473.7262 473.7445 474.3198 474.9197 475.9051 476.2040 476.3404
   476.7384 476.8346 476.9540 477.8891 477.9731 478.3218 478.3628 478.8531
   478.8823 479.0339 479.3591 479.4369 480.1874 480.2751 480.4696 480.6141
   480.7753 481.2770 481.7209 481.9292 482.3468 482.3588 482.4994 482.7121
   482.8746 482.9202 483.2230 483.2362 483.2836 483.2982 484.0125 486.4980
   486.6753 487.6429 487.7024 487.7166 487.9035 487.9635 488.9184 488.9673
   489.1718 489.9341 490.5813 490.6540 490.8173 490.9513 491.3131 491.4697
   491.7684 491.8329 491.8796 492.2016 492.2314 492.9433 493.6348 493.9196
   493.9689 494.0095 494.0348 494.0733 494.7909 494.9846 495.1197 495.3330
   495.6089 495.8030 496.0121 496.4139 497.4435 497.4611 497.6101 498.1289
   498.2912 498.5999 498.6367 498.7216 499.0249 499.0785 499.2071 499.2232

          k = 0.5000 0.0000 0.5000 (  2461 PWs)   bands (ev):

   -33.2785 -14.3757 -14.3164 -14.2762  -4.6530   3.5318   4.6434   4.8956
    11.1013  11.4324  11.5856  11.9942  13.1189  14.0462  15.8538  16.1026
    16.2956  18.6032  20.3747  23.2200  23.5439  24.6773  24.8193  25.3900
    28.9685  29.1181  29.5622  31.4259  33.2423  34.2979  35.0674  35.6212
    36.0477  36.2017  37.6572  38.6511  40.5651  40.9707  41.0380  41.4850
    43.1134  44.7839  45.9394  46.6099  47.1778  48.5760  49.2603  49.6313
    50.6568  51.2009  53.5569  53.9276  53.9471  55.5673  56.6002  57.1179
    57.7998  59.0070  59.6751  60.0643  60.7878  61.0481  61.3253  62.2747
    63.4624  64.5599  65.1735  65.6498  66.3172  67.0220  67.3506  69.4197
    70.2423  70.5484  70.9477  71.7217  72.3004  73.0052  74.1863  74.1902
    75.7805  76.1060  76.5773  77.5812  77.6711  78.7778  78.8746  80.1639
    80.2085  80.4095  80.7328  81.7945  82.4694  83.5461  83.8635  84.2851
    85.8025  88.3370  88.4268  88.8234  88.8629  90.7594  91.3012  91.3823
    91.5312  92.3890  93.6630  94.1889  94.3805  95.8541  95.8770  97.3404
    97.4806  97.5458  97.9793  98.0839  98.5559  98.9405 100.0403 100.1913
   100.8792 102.9801 103.5798 103.9661 104.1890 104.3309 104.3480 105.9687
   106.1789 106.3436 106.5021 107.1696 107.5298 108.2791 108.3245 109.4417
   109.4554 110.4154 110.8841 110.9340 111.2224 111.8245 113.6024 115.5191
   115.6602 116.7486 117.3429 117.9214 118.1376 118.7902 118.8033 118.9951
   119.9810 120.4548 120.9263 121.7294 121.7983 122.1884 122.2012 123.2458
   123.6351 123.7645 124.4925 124.6001 125.3839 125.6294 126.0499 127.0230
   127.4065 128.2800 128.8443 129.7563 130.7108 132.3838 132.9084 133.6800
   134.2289 135.1093 135.3520 135.3609 135.7474 136.5247 137.4109 137.7181
   137.8731 138.4148 138.5459 138.5563 139.3099 140.0210 140.4638 140.5655
   140.9381 141.9110 142.1976 142.4168 142.6757 143.5733 143.9221 144.7418
   144.8231 146.4684 147.0954 147.8405 148.0299 148.7432 149.3692 149.8735
   150.1920 150.8961 151.3458 151.4940 151.9610 152.7429 153.3593 153.5395
   153.5841 153.8225 153.8531 154.3432 154.5952 155.0129 155.2126 155.8350
   157.0236 157.5234 158.7475 158.8970 159.5280 160.0977 160.9578 161.0485
   161.6061 162.4830 162.5807 163.4523 163.4626 163.9932 164.1314 164.3920
   164.6241 164.8168 164.9058 166.0004 167.5399 168.0748 168.9863 169.6496
   169.8692 169.8909 170.4005 170.9283 171.0055 171.6010 172.5562 173.0201
   173.4203 174.0745 174.1896 174.2404 175.1267 175.2750 175.5535 175.8754
   176.2643 176.7427 177.3642 177.7751 178.5956 178.8075 180.0653 180.3382
   180.3772 180.7776 181.0825 181.4595 182.6729 182.8255 183.0165 183.2121
   184.2258 184.7002 185.1423 185.5509 185.8595 186.3682 186.6864 187.3477
   187.7794 187.9996 188.1248 188.7296 189.6537 190.0122 190.2792 191.6146
   192.1649 192.9499 192.9842 193.3013 193.3593 194.3425 195.4036 195.5251
   195.7047 196.1492 196.7471 197.8490 197.8971 198.4012 198.7458 198.9163
   198.9326 199.6966 200.2161 200.4148 200.6278 201.1778 201.3109 201.4585
   201.8812 202.0222 202.4178 202.9390 203.2496 204.1657 204.6166 204.8291
   204.9589 205.5504 205.5856 205.9067 206.7520 207.2298 207.3181 208.2648
   209.3016 209.3146 209.5957 211.3607 211.5811 211.6058 212.5716 213.3505
   213.3694 214.0039 214.4851 214.5503 214.9441 215.2215 215.3871 215.8919
   216.0941 216.3507 216.9828 217.2442 217.3925 217.5238 217.9539 218.2800
   219.1820 219.5490 219.6912 220.2242 220.4066 220.4930 220.5895 220.8565
   220.8719 220.8807 221.6802 222.2609 222.7930 224.4723 224.4951 224.5868
   225.3565 226.7175 227.2836 227.3360 228.1635 228.3822 228.8369 229.3389
   230.3538 230.4033 230.7073 230.7257 231.0709 231.2133 231.5610 231.5814
   231.7771 231.9595 233.0416 233.4273 234.2670 234.3256 234.5799 235.1149
   235.1343 235.7457 235.9999 236.1518 236.6484 236.7875 237.0007 237.0038
   237.4763 239.6441 239.8539 239.9769 240.0140 241.0001 241.0348 242.2161
   242.3191 242.6102 242.8070 242.9315 242.9991 243.4770 243.5020 244.4472
   244.9516 245.6361 246.4042 246.4223 246.5081 246.7952 246.9921 247.0177
   247.1380 247.5324 248.0826 248.3031 248.9004 249.4840 250.2086 250.4309
   250.6457 252.8228 253.8584 254.2402 254.4177 254.4713 254.9833 255.6611
   256.4291 256.9885 257.1347 258.4424 259.1031 259.1832 259.8454 260.1920
   260.3567 260.4720 260.6102 261.0418 261.1198 261.2249 261.3496 261.5210
   261.9875 262.1976 262.2042 262.6893 262.8501 262.9588 263.2030 263.4703
   264.8044 264.9359 265.0083 265.1213 265.3628 265.8535 266.1839 266.1865
   266.3803 266.3892 266.9441 267.4715 268.1636 268.2060 268.4425 268.7796
   269.7125 269.8547 270.0115 270.1884 270.7017 270.8240 271.3301 271.8590
   273.3772 273.8835 273.9721 273.9975 274.7663 274.8577 274.9170 275.2427
   275.5201 275.9040 275.9252 276.0490 276.6609 277.5700 278.2858 278.6799
   279.1705 279.2920 279.3794 279.5243 280.3810 280.8480 280.8511 281.2616
   281.6535 282.3179 282.5521 283.9268 284.3436 284.3901 284.5000 284.8362
   284.8411 285.3634 285.3974 286.0774 286.2685 286.3667 286.9441 287.4042
   287.6997 289.0094 289.8879 290.3229 290.3751 290.7283 291.1926 291.3465
   291.4776 291.5319 291.6060 291.7357 291.9383 292.5744 292.7084 292.7239
   292.9496 293.4896 293.5274 294.8586 295.3351 296.1424 296.3846 296.4346
   297.0173 297.6606 298.3181 298.3844 299.2438 299.2438 299.6872 299.8876
   300.3271 300.4515 300.8657 301.3228 301.5272 301.9033 302.5949 302.6031
   302.6437 302.8021 303.9549 304.0977 304.6594 304.7764 305.3452 305.5590
   305.8203 305.9935 306.5147 307.0887 307.1296 307.8741 307.9749 308.8155
   309.1646 309.1923 309.3192 309.5518 310.4099 310.4776 310.6564 310.7646
   311.1729 311.4738 312.1447 312.1792 312.4109 312.6367 313.0436 313.1148
   313.2249 313.4299 314.0445 314.1466 314.4611 314.9777 315.5966 315.8387
   316.5715 316.6920 316.9019 316.9984 318.2575 318.7632 319.1589 319.1880
   319.7653 319.8195 319.9652 320.2726 320.2916 320.7881 321.3724 322.1532
   323.0087 323.0462 323.4732 323.9493 324.1644 324.4345 324.9659 325.0831
   325.9765 326.3516 326.4089 326.4661 326.4722 326.6229 326.6246 326.9729
   327.7728 328.5618 328.7078 329.2134 329.4650 329.7422 330.0621 330.4399
   330.9467 330.9718 331.3200 331.3639 331.6341 332.3244 332.4534 333.1286
   333.9455 334.3865 336.0240 336.1069 336.8266 337.1644 337.1974 337.3669
   337.7066 338.6208 339.2346 339.3259 339.4992 339.6178 339.8088 340.2851
   340.4999 340.5549 340.5925 340.7808 340.8524 341.0447 341.7719 341.8280
   342.4813 343.0796 343.5441 344.0298 344.3468 344.8308 345.0401 345.2504
   345.3630 345.4431 346.0669 346.2426 346.2870 346.7205 347.2682 347.4799
   347.8776 347.8914 348.0055 348.2587 349.0162 349.2173 349.2354 349.3629
   349.4962 349.6553 350.4368 351.4170 351.5577 351.7291 351.8121 353.1935
   353.6810 353.7891 354.0429 354.0967 354.2023 354.4068 355.0583 355.4578
   355.5602 355.7979 355.9180 356.2905 356.3454 356.4224 356.8077 356.9125
   356.9732 357.1728 358.0893 358.1868 358.6483 358.7200 358.7876 358.8432
   358.9181 359.0063 359.1506 359.3761 359.4615 359.4864 359.4883 359.8968
   361.1447 361.1596 364.0829 364.3579 366.5273 366.8411 366.8957 367.0377
   367.0893 367.1621 367.3477 367.3584 367.3696 367.8953 368.0011 368.0256
   368.1408 368.2919 369.2208 369.2369 369.9040 370.1785 370.2458 370.5180
   370.5576 370.9216 371.0782 371.1238 371.7657 371.8524 372.4553 372.4721
   373.2389 373.7168 374.4885 374.6637 374.6986 375.4296 375.6590 375.8644
   375.9046 377.7753 377.9166 378.7723 379.2339 379.3864 379.7110 379.7699
   379.9376 380.0693 380.3161 380.8923 381.0553 381.3587 381.4607 381.4859
   381.5106 381.6639 381.8207 382.0704 382.3254 382.8370 383.1690 384.3787
   384.4631 384.8651 385.1227 385.3093 385.3620 385.3684 385.4000 386.4019
   386.6131 386.8876 386.9977 387.1498 387.2091 388.5852 388.7988 389.0200
   389.1175 389.7842 390.0047 390.0344 390.1451 391.1501 391.1712 391.1776
   391.5117 391.8647 392.7701 392.7989 392.9008 394.2055 394.2307 394.2454
   394.4297 395.6480 395.7355 395.8259 395.8439 396.0953 396.3302 396.7610
   396.7693 397.1844 397.4409 397.9770 398.0379 398.1478 398.3393 399.2939
   399.6620 399.8670 399.9537 400.0643 400.0788 400.7764 400.8117 401.3557
   401.6755 401.6892 401.6937 401.7095 402.0006 402.0054 402.0908 402.2911
   403.0364 403.0683 404.4058 404.8667 404.8873 405.1972 405.2267 407.0256
   407.3683 407.9780 408.1103 408.2617 408.6955 408.9132 409.0369 409.7500
   409.9078 410.3447 410.7256 410.7370 411.0114 411.7557 411.8043 412.2079
   412.2266 412.2903 412.9425 413.9332 414.4582 414.8535 415.1184 415.1698
   415.1891 415.1949 415.2683 415.3221 415.3246 415.3931 415.5862 417.8493
   417.9147 418.2798 418.4217 418.7409 419.4916 419.5301 419.6114 420.1194
   420.7740 420.9485 421.2375 421.3411 421.4820 421.6616 421.9530 422.4934
   422.9165 423.5047 423.8282 424.4543 424.5072 424.8717 424.9476 425.1847
   425.3751 425.4538 425.8809 426.0566 426.1981 426.4660 427.2025 427.2823
   427.2953 427.3575 427.4277 427.6359 427.6612 427.8942 428.1525 428.2707
   428.5752 429.0183 429.4259 429.5395 430.0145 430.2128 430.4306 430.9150
   431.2427 431.3007 431.4671 431.6804 431.7413 432.2645 432.2962 433.5610
   434.0254 435.0953 435.1835 435.5480 436.0928 437.4255 437.7061 438.0328
   438.2570 438.4396 438.4510 438.4552 438.5483 438.9354 439.0037 439.3655
   439.3756 439.4674 439.9747 440.1621 440.3445 440.6457 440.8278 441.0228
   441.2329 441.2486 441.3864 441.5200 441.6446 441.6807 441.9110 442.0550
   442.0994 442.1901 442.2932 442.3594 442.3899 442.9867 443.8823 443.9845
   444.0638 444.3662 444.5058 444.9488 445.2182 445.4058 445.4089 446.3345
   447.0572 447.1994 447.2152 448.6836 448.9730 449.0311 449.0630 450.3074
   450.7950 450.8314 451.2696 451.5924 451.6101 451.7961 451.8436 452.3826
   452.4686 455.2598 455.3204 455.3234 455.3747 455.6074 455.6253 455.6487
   455.6540 457.2251 457.3519 457.3837 457.6411 458.3309 458.5110 458.9505
   458.9645 458.9964 459.0142 459.0825 459.2648 459.2813 459.2884 459.3577
   459.4906 459.8653 459.9897 460.0189 460.4814 460.6167 461.2181 461.7367
   462.2146 462.3460 462.6906 463.1825 463.2407 463.2519 463.3748 463.6681
   464.1600 464.4588 464.5031 464.5158 464.5381 465.1034 465.9285 466.0804
   466.1479 466.4580 466.8353 467.5906 467.7433 467.8318 467.9231 468.3068
   468.5603 469.1789 469.4914 469.5253 469.5739 471.4925 471.6750 471.7653
   471.8675 472.1388 472.2888 473.2505 473.2649 473.2729 473.3390 473.7137
   474.3182 475.0057 475.0228 475.0857 475.0944 475.4454 475.9779 476.7079
   476.8690 476.8895 477.0259 477.0286 477.0410 477.3489 477.4014 478.9822
   479.0277 479.3949 479.9081 479.9140 480.1380 480.6946 480.9181 481.1682
   481.5875 481.8753 481.9529 481.9532 482.0109 482.3558 482.3733 482.4253
   482.5321 484.2438 484.2705 486.2197 486.2786 486.7422 486.8094 486.8408
   486.8940 486.9724 487.0712 487.2178 487.3483 487.9729 488.0069 489.0081
   489.2826 489.3400 489.9334 490.3187 490.3194 490.3550 490.6612 490.8960
   491.2059 491.6451 491.7467 492.2025 492.2356 492.2750 492.5609 492.6757
   493.1006 493.4303 493.5107 493.8052 493.8108 493.8246 494.2394 494.4257
   494.8508 495.5508 495.6236 496.2467 496.3906 496.6720 496.6989 496.7636
   496.7895 497.4286 497.4812 497.6175 497.6857 497.7067 497.7252 497.7290

          k = 0.0000-1.0000 0.0000 (  2450 PWs)   bands (ev):

   -33.2750 -14.3817 -14.3104 -14.3104  -4.7117   3.7095   5.1745   5.1745
     8.3580  11.5640  11.9926  12.7072  12.7158  12.7158  16.3016  17.7479
    19.8656  19.8656  20.3895  20.3895  23.0697  23.7650  25.2850  27.6052
    29.1542  29.4246  29.4246  29.5189  30.6617  32.8489  32.8489  34.6065
    34.6065  35.0401  38.8974  40.4787  40.5699  41.8910  41.8910  42.9429
    44.5836  44.5836  45.8916  46.5699  47.7895  48.7833  48.7833  50.0150
    50.0150  52.3662  54.0455  55.5407  55.6306  55.6306  56.3147  56.3810
    57.5984  59.9431  60.0294  61.1253  61.4715  62.9794  62.9794  63.9828
    63.9828  64.2241  64.2241  64.4747  65.4904  65.5217  66.4111  66.4111
    67.2599  71.7793  72.6602  73.2362  73.2362  73.5912  74.9482  74.9482
    76.2439  76.5880  76.5880  76.9325  77.1138  77.1138  77.6277  78.1212
    78.5603  78.5603  78.6330  80.9521  82.4271  83.9765  83.9765  84.4370
    84.5233  85.0081  85.0081  89.5326  90.2016  90.6881  90.6881  90.8759
    92.0185  92.0185  92.8104  94.6082  95.0924  95.4550  96.3204  96.4649
    96.6932  96.6932  96.6995  96.6995  97.2988  99.2062  99.6633  99.6633
   101.2429 102.0596 102.6442 102.6442 103.7800 103.9072 103.9072 106.5315
   107.3866 107.5810 107.6488 108.2169 108.2169 110.0704 110.0704 110.5793
   111.9265 112.1541 112.2450 115.7538 116.8165 117.5119 117.5938 117.5938
   117.6997 118.0447 118.0447 119.4747 119.4747 119.4986 119.6179 119.6179
   120.8354 120.9057 122.4618 122.7359 124.4684 124.5445 124.5445 124.7677
   124.7677 125.0176 127.3240 127.6359 127.6359 127.6690 127.7627 128.0905
   128.0905 128.2153 128.7939 128.9518 130.7121 130.7822 130.7822 131.1778
   131.1883 131.2271 131.2271 132.1241 132.1241 132.3604 132.4941 132.7160
   136.3474 136.6111 136.6111 136.8646 136.8646 136.9029 137.1107 137.2775
   137.7108 139.3902 141.4129 141.4129 141.6992 141.7514 141.7514 143.9648
   146.0559 146.0559 146.7997 146.7997 147.3976 147.5055 147.5950 147.9230
   148.2264 148.2264 150.1414 150.6600 150.6600 151.0139 151.0139 151.0714
   151.1453 151.1473 151.4976 152.4804 152.9450 152.9593 153.0423 153.0423
   155.3111 156.3455 156.3455 157.2024 158.7333 158.7333 162.8213 164.3758
   164.7270 164.8030 164.8030 167.7365 167.7574 167.7782 167.9635 168.6705
   169.3773 169.3773 169.5783 169.5783 170.5968 170.5968 171.0285 171.0285
   171.7293 172.1828 172.1828 172.3337 172.3337 172.4520 172.7325 174.1008
   174.7880 175.1309 177.0001 177.0093 177.0483 177.0483 177.5655 177.5655
   177.9294 178.1988 178.9653 179.2779 179.9334 179.9334 180.7728 180.7728
   181.1813 181.5840 182.1962 183.1671 183.1671 183.2100 183.2718 184.1059
   184.1059 184.6585 184.6585 184.7719 185.3109 186.9322 187.8987 187.8987
   187.9014 188.3576 188.4339 188.8139 188.8139 188.9691 189.5464 190.5690
   192.3134 192.3134 192.4821 192.7949 192.7949 192.9825 193.0382 194.7126
   195.1825 195.6891 195.6891 197.5781 198.4730 198.4730 198.6492 198.7357
   198.8091 199.6667 199.6667 199.7051 199.9085 200.6363 200.6363 201.4137
   201.4137 201.5564 201.6503 201.6503 201.7665 202.8127 204.8329 204.9024
   204.9457 204.9698 205.4149 205.4149 205.4591 205.4591 205.6680 205.8487
   205.8825 208.8122 209.6723 209.7110 210.9258 211.3719 211.3719 211.5296
   211.5296 211.9649 211.9649 212.3338 213.3493 213.3625 215.0359 215.0359
   217.7299 218.3404 218.3404 218.5997 219.2789 219.2789 219.5496 220.3204
   220.3204 220.7511 221.0351 221.2641 221.3448 221.3448 221.6104 221.6139
   221.6139 221.7841 221.8262 222.5306 223.6762 223.6762 223.7831 225.1017
   226.0094 227.1083 227.1466 227.2257 227.2292 227.2292 227.3044 227.3044
   227.4216 227.7859 228.6364 228.6707 228.6707 228.8720 229.1447 229.1447
   232.7510 232.7510 233.6990 234.3452 235.6261 235.8913 235.8913 236.2853
   236.2853 237.5071 237.5299 237.6066 237.6385 237.6385 237.8937 238.1866
   240.0514 240.0514 240.8706 241.1958 241.1958 242.0336 242.1843 242.4021
   242.5964 242.5964 242.7522 242.8341 243.3400 243.8103 243.8103 243.9758
   244.1259 244.1364 244.1364 244.1502 244.2040 244.2040 244.3216 244.7339
   245.0801 245.0801 245.0842 245.1000 247.6898 247.9282 247.9282 248.0301
   248.5150 248.5235 248.5235 248.5452 248.6646 248.6646 252.1580 253.1473
   253.6976 253.6976 253.9098 254.6778 254.9923 257.3279 258.4754 258.7237
   258.7259 259.0024 259.1739 259.2491 259.2491 259.3383 259.4935 259.4935
   259.7433 259.7433 260.4411 260.4411 260.5738 261.7014 262.8780 262.8780
   266.1378 266.5962 266.5962 266.5969 266.5969 268.0211 268.9521 269.4985
   271.1509 271.5259 272.2006 272.2006 273.1344 273.1801 273.6099 273.6099
   274.0451 274.0838 274.0838 274.4820 275.7106 276.7900 276.7900 276.8646
   277.2585 277.8250 278.1983 278.3666 278.4974 278.4974 278.6623 278.7726
   279.0800 279.0800 279.5125 279.7896 279.7896 280.0426 280.2513 280.6203
   280.7324 280.7324 280.8410 280.8956 280.8956 281.0261 281.6406 281.9538
   282.0656 282.0656 284.7083 284.7450 284.8670 284.8670 285.0123 285.0123
   285.2883 285.3197 288.4523 288.4523 288.6110 289.4448 290.3187 290.3187
   291.6534 291.7723 291.9691 291.9691 292.3006 292.8610 293.3389 293.7390
   293.7593 293.7593 294.2032 294.3330 294.4587 294.4587 294.5732 294.5732
   294.7513 294.9648 294.9826 295.5398 295.5398 296.1141 296.3190 296.3297
   296.3472 296.4324 296.4324 296.9777 296.9777 297.2764 297.2764 297.5766
   297.9512 297.9725 297.9725 298.0049 298.0168 298.3107 299.5373 299.5373
   299.6439 299.6439 302.4495 303.8180 303.8424 303.8424 303.8926 303.8975
   303.9264 303.9264 303.9833 305.9857 305.9857 306.3790 306.3795 306.8669
   307.1010 307.5221 308.3808 308.3808 310.0251 310.0251 310.3280 310.5495
   310.6061 310.6891 310.7481 310.7481 312.4175 312.4175 313.2181 313.6671
   314.0335 314.5431 314.5431 314.9728 316.1284 316.1284 316.2145 316.2422
   316.3598 316.3598 316.3958 316.4139 316.5705 316.5705 316.7585 316.7820
   317.7075 317.7075 317.7201 317.7365 319.2350 319.3189 319.8731 319.8731
   319.8826 319.9423 319.9423 320.0829 320.0936 320.1372 320.1372 320.3180
   320.9487 322.8221 325.8167 327.1885 327.2321 327.2321 327.5885 327.8169
   327.8169 328.6638 328.6638 328.7814 328.9987 328.9987 329.2551 329.4980
   329.6761 329.6761 330.4024 333.8542 333.9367 334.2735 334.2735 334.4483
   334.5113 334.9499 334.9499 335.1334 335.1334 335.3456 336.1163 336.1354
   336.1545 336.1559 336.1718 336.1718 336.2394 336.3100 336.3100 336.4104
   337.9226 337.9283 337.9283 337.9371 338.5974 338.6031 340.3819 340.8655
   340.8655 341.4077 341.4077 341.4337 341.4337 342.7745 342.7748 343.2242
   343.2242 343.2389 343.8754 344.3047 346.8435 347.3125 348.0529 348.0529
   348.7637 348.8598 349.3594 349.3594 349.4330 349.4990 350.2044 350.2066
   350.2066 350.4545 350.9350 351.1618 351.1618 351.3485 352.2486 352.2486
   352.3540 352.7202 352.8091 353.0954 353.0954 353.2120 353.2191 353.2457
   353.2650 353.2650 353.2870 353.4734 353.4734 353.7705 354.0477 356.1312
   356.1312 356.8948 357.5684 357.5762 357.5762 357.6046 357.7523 358.2440
   358.2440 358.3162 360.0010 361.6630 361.9595 361.9595 362.2651 363.0954
   363.3811 363.3811 366.1333 366.1333 366.8479 366.8479 366.9673 367.2679
   367.9198 367.9342 367.9342 368.0012 368.2673 368.3308 369.1999 369.1999
   369.5412 369.6054 369.6277 369.6277 370.9769 371.4474 372.0174 372.0174
   372.6641 372.9426 373.1620 373.2201 373.2201 373.2596 373.7708 373.7935
   373.7935 373.8268 375.6055 376.0624 376.0624 376.1284 377.4551 377.4551
   377.4737 378.2784 378.3600 378.4130 378.4130 378.4664 378.4664 378.5667
   381.7277 381.8221 381.9401 383.7244 383.7244 384.2928 384.3955 384.7394
   384.8137 384.8137 385.0050 385.0050 386.2449 386.2729 386.2729 386.3891
   386.5579 387.4740 387.8219 388.0543 388.0543 388.3706 389.1074 389.1074
   389.3426 389.3426 390.1888 390.2415 390.8036 390.8038 394.6122 394.9904
   394.9904 395.0522 395.7105 395.7773 395.7773 395.8432 396.1638 396.2058
   396.2058 396.2760 396.4836 396.4836 396.4858 396.5019 398.3672 398.8828
   398.8828 400.0779 400.2481 400.2481 400.4047 400.8005 401.0301 401.7518
   402.9698 402.9755 402.9755 403.0613 403.2993 403.2993 403.3969 403.4998
   403.4998 403.8734 403.8734 404.3670 404.3679 404.5202 404.7325 404.8758
   404.9051 405.2056 405.4023 405.4023 405.4691 405.4886 405.4886 405.6872
   405.7538 405.8237 405.8237 405.9994 405.9994 406.0475 406.1245 406.1913
   406.4503 406.4843 406.4843 406.7054 406.7220 406.7449 406.7449 406.7708
   406.8517 406.8517 407.0842 407.1126 407.1126 407.3527 407.3646 407.4126
   407.5608 407.5608 407.6200 407.6200 407.6229 407.7450 407.9413 408.0360
   408.0360 408.2524 408.8407 408.9587 408.9587 409.0087 412.0329 412.0494
   412.0494 412.1275 412.2279 412.3047 412.3052 412.3052 414.3586 414.3814
   414.5234 414.5234 414.5845 414.5845 414.7812 414.7986 424.2384 424.2402
   424.2665 424.2665 424.4314 424.4460 424.5527 424.6242 424.6242 424.7279
   424.7291 424.7410 424.7410 424.7414 424.7480 424.7480 425.9558 425.9558
   426.2830 426.8999 427.3103 427.3377 427.4791 427.4791 427.5347 427.6446
   428.0402 428.0402 428.0566 428.0566 428.3019 428.4315 428.6067 429.1472
   429.1472 429.2152 429.2444 429.2444 429.3078 429.3713 429.4929 429.4969
   429.4969 429.5091 429.5215 429.7455 429.7455 429.8805 434.8612 436.1175
   436.8769 437.4490 437.4490 438.0430 438.5692 438.5692 439.2029 439.2029
   439.2173 439.7468 439.7986 440.2108 440.3455 440.3455 440.3761 440.4205
   440.5953 440.5953 440.7461 440.9311 441.2521 441.2521 441.5383 441.5407
   441.8110 442.2138 442.2324 442.2324 443.9981 443.9981 444.2101 444.2756
   444.6355 444.6355 444.6946 445.0677 445.5505 445.5505 446.6656 446.9002
   446.9203 449.0747 449.0747 449.2708 449.8924 449.8924 449.9097 449.9170
   449.9245 449.9328 449.9328 449.9423 451.7330 451.7842 451.7925 451.8015
   451.8015 451.8186 451.8186 451.8540 455.0355 455.0355 455.6256 455.7531
   456.1119 456.1162 456.1162 456.8233 458.7756 458.9222 458.9222 458.9659
   460.7117 460.7236 460.8760 460.8760 460.9272 460.9272 461.0932 461.2331
   462.3629 462.3631 462.4353 462.4353 462.5320 462.5320 462.5939 462.5989
   463.4294 463.4294 463.4579 463.6853 463.7856 463.9727 463.9727 464.0715
   464.5120 464.5735 464.5840 464.6141 464.6141 464.6272 464.6272 464.7150
   464.7277 465.1932 465.1932 465.3694 465.3830 465.3965 465.6766 465.6766
   465.9216 465.9216 466.0481 466.0481 466.7559 466.7764 466.7764 466.7980
   472.2656 472.4949 472.5509 472.5509 472.7836 472.7850 474.0134 474.5745
   475.2784 475.2784 477.4110 477.4110 477.9533 478.1182 478.1621 478.3408
   478.4292 478.6872 478.6872 478.8896 478.9803 478.9803 479.0795 479.1282
   479.1282 479.2265 479.5117 479.5641 480.5731 480.8071 480.8071 480.8183
   481.2096 481.2096 482.1847 482.1847 482.6895 482.7867 483.3009 483.3009
   483.3786 483.7484 483.7906 483.7906 483.8748 483.9769 484.1183 484.1651
   484.1784 484.1784 484.1943 484.2151 484.3206 484.3438 484.3438 484.4550
   484.4550 484.5289 490.5400 492.8425 493.6872 493.6872 494.4206 494.5379
   494.6981 494.7809 495.0301 495.0301 495.0736 495.0736 495.1969 495.2607
   495.2607 495.5775 495.6630 495.7263 495.7263 495.7977 495.7977 496.0398
   496.5842 497.3689 497.3689 497.5575 497.6541 497.9760 497.9760 497.9875
   499.7943 499.8172 500.5344 500.5786 500.5786 500.5793 500.6159 500.6317

          k =-0.5000-1.0000 0.0000 (  2468 PWs)   bands (ev):

   -33.2750 -14.3461 -14.3461 -14.3199  -4.5995   4.2059   4.2059   4.4424
    10.7962  10.7962  11.9656  12.3633  12.7238  15.2429  16.0466  16.1797
    16.1797  20.2926  20.6011  20.6011  23.4023  26.0604  27.1419  27.1419
    28.2727  28.3466  28.3466  30.1365  31.0348  32.1928  34.6299  34.6299
    36.1542  36.1542  37.0391  37.4857  37.7894  41.8627  41.8627  44.7999
    45.6864  46.0672  46.4405  46.4405  46.8846  47.0427  51.2281  52.0799
    52.1719  52.1719  52.7811  54.6106  54.6106  55.1191  56.4099  56.4099
    57.0966  58.3575  58.3575  59.6400  62.0039  62.0039  63.2894  63.2894
    63.4048  63.7064  65.1111  65.9419  67.2693  67.6138  67.6138  68.7217
    68.8904  68.8904  69.6608  71.3937  71.6956  74.7587  74.7587  75.1703
    76.2906  76.7950  76.9182  76.9182  78.1342  78.1342  78.7079  78.8128
    80.6110  81.0254  81.0419  81.4711  81.4711  82.5690  82.8442  82.8442
    85.4056  86.0514  86.7895  87.5545  87.5545  87.8621  88.3839  88.3839
    89.1297  91.8963  92.0691  92.2122  92.2997  92.2997  92.5773  95.3375
    95.3375  98.7721  99.2938  99.2938  99.3393 101.8297 103.5676 103.5676
   104.8311 105.2880 105.4483 105.4483 106.1316 106.1316 106.4134 106.9595
   107.0356 108.8076 108.8076 109.2266 109.8448 109.8448 110.6141 110.6141
   110.7326 111.4862 112.0453 113.5711 114.2133 114.2133 115.4766 115.6718
   115.7032 116.6424 117.2972 117.2972 119.0677 119.2334 119.2334 119.5204
   119.5753 119.9087 121.0590 121.8066 121.8066 122.1091 123.5967 123.5967
   124.0342 124.2416 124.2416 124.5271 125.4128 125.5478 125.6846 127.5704
   127.5704 128.0167 128.7481 129.5270 129.5270 130.2743 130.9956 132.4062
   132.4062 133.3242 134.1049 134.6135 134.6135 134.6514 135.8850 135.8850
   136.7964 137.3256 138.1308 138.8871 138.8871 138.9810 138.9819 139.6171
   140.3788 140.3788 140.4180 141.3403 141.3403 141.4122 141.4384 141.7226
   141.7226 142.7181 145.1992 145.1992 146.6753 147.4132 148.0316 148.0316
   148.2297 149.2311 149.2311 151.1991 151.3399 152.1144 152.6860 152.6860
   153.4043 154.6921 155.3715 155.3715 156.8179 156.8303 156.8303 157.9056
   158.0105 158.0105 158.1233 158.7214 159.8712 160.3972 160.3972 160.6305
   162.1681 162.8183 162.8183 162.9539 163.1634 164.7699 164.7699 165.2598
   165.3623 166.2256 166.2256 167.3911 167.6294 168.8086 168.8413 169.3320
   169.3320 170.8219 170.8219 170.8630 170.9934 172.3124 172.4210 172.4210
   172.5641 172.8231 172.9623 173.6954 173.9839 173.9839 175.7836 176.6406
   177.4347 179.9703 179.9703 180.1975 180.1975 180.7333 180.9158 181.0327
   181.0327 181.6283 182.4324 182.4324 183.8275 183.8275 183.9316 184.3463
   185.0697 185.7488 185.7804 187.2714 187.2714 189.4705 189.8346 189.8346
   191.6261 192.4108 192.8728 193.2257 193.2257 193.3431 194.2756 194.6896
   194.8170 194.8476 194.8476 195.2098 195.6336 195.6553 195.6553 196.2193
   196.2193 196.7225 196.8647 196.8647 196.8682 197.3423 197.9061 197.9061
   198.6752 198.7713 198.7713 200.4160 200.6875 201.2475 201.3881 202.0984
   202.0984 202.1144 202.2237 202.2237 202.5441 202.7724 202.8316 203.1973
   203.1973 203.5581 203.5581 204.1602 204.3275 207.1912 207.1912 208.5692
   208.8809 210.7624 210.7833 210.7833 211.5526 211.9598 211.9598 212.0672
   212.5135 212.7669 212.8856 212.8856 213.1189 213.2481 213.5655 213.5655
   213.7224 214.0051 214.0051 215.2326 215.9204 215.9204 216.9479 216.9479
   216.9512 217.0621 217.2521 217.2866 218.3751 218.4904 218.6046 218.6046
   220.8514 220.8514 221.8030 222.2936 222.5261 222.5261 222.5714 223.1419
   225.6845 226.3828 226.3828 226.5726 227.4869 227.5058 227.6256 227.6256
   227.9756 228.8024 228.9215 228.9841 229.3446 229.3446 229.8795 229.8795
   230.1498 230.8496 231.2143 231.2143 231.8922 233.6746 233.6746 234.3121
   234.4608 234.4649 235.5798 235.5798 236.2197 237.3918 237.3918 237.9246
   238.3115 238.3497 238.3497 239.1159 239.6212 240.1482 243.0313 243.0313
   243.7162 243.7162 244.6346 245.8984 246.1597 247.4442 247.4442 247.5980
   247.7060 248.0385 248.7353 248.7353 248.7806 249.0208 249.0915 249.2201
   249.5535 249.5535 249.9481 250.0196 250.0673 250.0673 250.8044 250.9409
   250.9409 251.0190 251.2475 251.3392 251.3663 251.4037 251.4037 251.8773
   251.8773 253.1201 255.7153 255.9242 257.8311 257.8311 257.9058 258.7870
   258.8993 258.8993 260.6619 261.2655 261.2655 261.9364 262.2588 262.2588
   262.6002 263.2900 263.4167 263.4167 263.8597 264.4914 264.5558 264.5558
   264.6231 265.4638 266.1456 266.1456 266.2668 267.2090 267.2090 267.3306
   267.9085 267.9402 267.9402 268.2777 268.3983 269.5715 270.1825 270.1825
   270.2589 270.5626 270.5626 270.6427 272.0731 272.0731 272.3829 272.6552
   272.6821 272.8493 272.8493 273.5293 273.6056 274.3904 274.3904 274.4774
   275.3882 275.4502 275.4502 275.7904 275.7904 275.8099 275.9973 276.2879
   276.7140 278.4569 278.4569 278.6096 280.8523 280.8523 281.9278 281.9609
   285.9257 286.0505 286.0505 286.7467 286.7925 286.8644 287.3748 287.3748
   289.9008 289.9008 290.1090 290.2837 290.7812 290.8978 291.1476 291.3711
   291.3711 291.4349 291.9965 291.9965 292.5872 292.5872 293.2490 293.2490
   293.2846 293.8856 294.1470 294.3423 294.8267 294.8748 294.8748 294.9078
   295.8821 295.8821 296.1455 296.2967 296.3303 296.3303 296.4138 297.0058
   297.8214 297.8214 297.9960 298.1248 298.5112 298.5421 298.5421 299.7258
   302.1343 302.1532 302.2030 302.2030 303.9488 304.5254 304.5254 304.7777
   304.8033 305.0426 305.0507 305.0507 305.0628 305.1840 305.3192 305.3192
   305.5091 305.6912 305.8269 305.8269 306.3584 306.8504 306.8504 306.9872
   307.0714 307.1907 307.2122 307.2122 308.5085 308.6603 308.6603 308.9770
   309.9912 310.0094 310.0170 310.0170 310.7618 310.8245 311.2860 311.2860
   311.6186 311.8573 312.3545 312.3545 313.3007 313.5813 313.7299 313.7299
   313.8973 315.3953 316.1969 316.1969 316.9041 316.9256 319.1108 319.3222
   319.3222 319.5399 320.2241 320.2241 320.6951 320.7210 320.7667 321.6084
   321.6084 322.7805 322.8300 322.8300 323.0220 323.4973 324.1485 324.1485
   324.1701 324.2880 324.3724 324.3724 324.7521 324.7961 325.2575 326.1696
   326.1712 326.2405 326.2405 326.8855 326.8982 326.8982 327.8523 328.5957
   328.5957 329.1331 329.7805 330.2098 330.5567 330.5567 332.3046 332.3046
   332.3207 332.4885 332.7083 332.7083 332.7717 332.9671 333.9984 334.0193
   334.0475 334.0475 334.1653 334.2114 334.2114 334.4582 335.6069 335.6069
   337.0299 337.0299 337.1489 337.1530 339.0035 339.2557 339.2557 340.2461
   341.7846 341.7846 342.1814 342.3565 342.4280 342.4280 342.5941 343.2103
   343.2545 343.2900 343.2900 343.6891 343.7124 343.7385 343.7385 344.0243
   345.3347 346.3467 346.3467 347.4043 347.4817 347.5483 347.5483 348.0694
   349.9561 350.2624 350.2624 350.2821 350.3003 350.6459 350.6459 352.0025
   353.3181 353.6994 353.6994 353.9169 354.9148 354.9148 355.3715 355.3715
   355.6463 355.7942 355.8327 356.0544 356.1248 356.1292 356.1466 356.1466
   357.3633 358.9168 359.1612 359.2142 359.2142 359.9531 360.0906 360.0906
   363.6631 363.6631 363.8804 364.2401 364.3682 364.4438 365.7516 365.7516
   365.8098 365.8098 366.2700 366.5071 366.6017 366.6026 366.6026 367.3077
   367.7258 367.8549 367.9555 367.9555 368.8855 369.1114 369.1114 369.6233
   370.1923 370.2823 370.3562 370.3562 376.0269 376.4216 376.4216 376.5325
   376.8059 377.0117 377.0985 377.0985 377.7106 377.7106 377.7661 377.8087
   377.8498 377.9748 377.9748 378.1986 378.3699 378.6809 378.6809 379.0067
   379.8155 379.8655 379.8655 379.9538 380.1045 381.0692 381.7830 381.7830
   382.0617 382.4637 383.3356 383.3356 384.6138 384.7050 385.1027 385.1027
   385.8362 385.8577 385.9361 385.9361 386.9147 387.0715 387.1050 387.2910
   387.3312 387.3312 387.6909 387.6909 387.7785 387.8365 387.8365 388.0692
   388.3338 388.3678 388.4479 388.4479 388.6902 388.6916 388.7001 388.7281
   388.7281 388.8137 388.8137 388.8529 389.2712 389.2712 389.3069 389.3468
   389.5378 389.6749 389.6749 389.7948 392.3001 392.3850 392.3850 392.4064
   395.5615 395.5615 395.6617 395.8052 396.0170 396.1976 396.1976 396.3869
   396.5397 397.3387 397.4472 397.4472 397.4477 397.7286 397.7451 397.8171
   397.8171 398.0667 398.4368 398.4368 398.6283 398.7852 399.2518 399.4123
   399.4380 399.4424 399.4465 399.4465 399.5412 399.5412 401.3488 401.7858
   401.7858 402.5657 402.6938 402.9993 403.1264 403.1623 403.1623 403.9398
   404.0816 404.0816 407.5402 407.5402 408.4879 408.5361 411.0637 411.0637
   411.3448 411.3961 411.4343 411.4343 412.1870 412.7605 412.7605 412.8225
   413.2944 413.3573 414.3249 414.8015 414.8015 414.8178 415.5852 415.5852
   415.5946 415.6001 416.2477 416.2767 416.3123 416.3123 416.7206 416.7552
   416.7552 416.8726 416.9162 417.1299 417.1299 417.2822 417.8197 417.8219
   417.9253 417.9377 417.9571 417.9571 417.9781 417.9781 418.7257 418.7257
   420.8734 421.0920 421.1138 421.1138 423.8795 424.1103 424.2977 424.2977
   424.3827 424.4356 424.4356 424.7124 427.7224 427.7224 428.5641 428.6282
   429.1339 429.1498 429.1498 429.2191 429.3272 429.3272 430.1066 430.3245
   431.4436 431.5757 431.5757 431.9317 432.0831 432.1641 432.1641 432.3153
   433.4755 433.4755 433.8300 433.9379 434.0389 434.1678 434.1678 434.2741
   435.0680 435.1198 435.1690 435.1690 435.2647 435.2932 435.3699 435.3699
   437.6609 437.6609 438.0032 438.0779 438.6664 438.6664 438.7623 438.8481
   438.8481 438.8487 438.9491 438.9530 438.9845 439.3359 439.5909 439.5909
   439.8563 440.2020 440.4209 440.4209 442.0672 442.1113 442.1113 442.3841
   442.7975 442.8154 443.2505 443.3193 443.3193 443.3906 443.4507 443.4507
   443.7151 443.8065 443.9012 443.9064 443.9064 443.9355 443.9887 443.9934
   443.9934 444.2413 444.2413 444.2894 444.2903 444.3013 444.3497 444.3497
   444.4291 444.5095 444.5245 444.5245 444.6176 445.4699 445.9539 445.9539
   450.4865 450.5487 450.8627 450.8627 454.9946 455.0375 455.0375 455.0479
   455.0671 455.0711 455.0829 455.0829 457.5528 457.8556 457.8556 457.8718
   459.4480 459.5489 459.8919 459.8919 460.1153 460.1153 460.2577 460.9549
   462.1367 462.1537 462.1537 462.2219 462.2941 462.4317 462.4620 462.4620
   462.6546 462.6546 462.7234 462.7630 463.1502 463.1502 463.2674 463.3604
   464.5978 464.7054 464.7070 464.7070 466.8188 466.9872 466.9872 467.5806
   467.7332 467.9612 467.9612 467.9656 468.0113 468.2941 468.2941 468.4985
   470.2840 470.4072 470.4072 470.7479 470.8039 470.8230 470.8940 470.8940
   471.1171 471.1946 471.4392 471.4392 471.6816 471.7070 471.7531 471.7531
   472.4936 472.4936 472.5026 472.5435 472.6026 472.6211 472.6211 472.6864
   474.4850 474.7610 474.8201 474.8201 476.2477 476.2651 476.2801 476.2801
   479.3302 479.4910 479.4910 479.9729 480.1035 480.1744 480.1866 480.2021
   480.2021 480.2647 480.2647 480.3281 481.6613 481.6714 481.6714 481.6842
   481.9633 482.0337 482.0337 482.1067 483.1151 483.5782 483.8791 483.9586
   483.9586 483.9983 484.1722 484.1722 490.1797 490.1797 490.2309 490.3311
   490.3398 490.3420 490.3420 490.3693 490.6082 491.2746 491.3308 491.5941
   491.7835 491.7835 493.7933 493.7933 493.9445 493.9656 493.9669 493.9669
   494.5076 494.5630 494.5714 494.6255 494.6255 494.7635 494.8888 495.3640
   495.9062 495.9062 496.2202 496.7515 496.7574 496.7574 496.9417 497.2237
   497.2237 497.3410 497.5473 497.9146 497.9146 497.9877 498.9808 498.9808

     the Fermi energy is     6.2844 ev
     (compare with:     7.6135 eV, computed in scf)

     Writing all to output data dir out/mp-1672.save/
 
     init_run     :      0.04s CPU      0.05s WALL (       1 calls)
     electrons    :    571.95s CPU    614.09s WALL (       1 calls)

     Called by init_run:
     wfcinit      :      0.00s CPU      0.00s WALL (       1 calls)
     potinit      :      0.01s CPU      0.01s WALL (       1 calls)
     hinit0       :      0.01s CPU      0.02s WALL (       1 calls)

     Called by electrons:
     c_bands      :    571.95s CPU    614.09s WALL (       1 calls)
     v_of_rho     :      0.01s CPU      0.01s WALL (       1 calls)

     Called by c_bands:
     init_us_2    :      0.00s CPU      0.00s WALL (       8 calls)
     init_us_2:cp :      0.00s CPU      0.00s WALL (       8 calls)
     paro_k       :    553.61s CPU    594.59s WALL (       8 calls)

     Called by paro_*:
     h_psi        :     11.42s CPU     11.96s WALL (     932 calls)
     g_psi        :      0.24s CPU      0.27s WALL (   87173 calls)

     Called by h_psi:
     h_psi:calbec :      0.22s CPU      0.24s WALL (     932 calls)
     vloc_psi     :     10.96s CPU     11.48s WALL (     932 calls)
     add_vuspsi   :      0.16s CPU      0.17s WALL (     932 calls)

     General routines
     calbec       :      0.22s CPU      0.24s WALL (     932 calls)
     fft          :      0.00s CPU      0.01s WALL (      10 calls)
     fftw         :      9.79s CPU     10.25s WALL (  144312 calls)
 
     Parallel routines
 
     PWSCF        :   9m32.69s CPU  10m15.18s WALL

 
   This run was terminated on:  11: 0:30  17Nov2023            

=------------------------------------------------------------------------------=
   JOB DONE.
=------------------------------------------------------------------------------=
