
     Program PWSCF v.7.1 starts on 17Nov2023 at 19:56:14 

     This program is part of the open-source Quantum ESPRESSO suite
     for quantum simulation of materials; please cite
         "P. Giannozzi et al., J. Phys.:Condens. Matter 21 395502 (2009);
         "P. Giannozzi et al., J. Phys.:Condens. Matter 29 465901 (2017);
         "P. Giannozzi et al., J. Chem. Phys. 152 154105 (2020);
          URL http://www.quantum-espresso.org", 
     in publications or presentations arising from this work. More details at
     http://www.quantum-espresso.org/quote

     Parallel version (MPI), running on    24 processors

     MPI processes distributed on     1 nodes
     123498 MiB available memory on the printing compute node when the environment starts
 
     Reading input from pw_mp-8062_scf_k3000_E56.in
Warning: card &CELL ignored
Warning: card / ignored

     Current dimensions of program PWSCF are:
     Max number of different atomic species (ntypx) = 10
     Max number of k-points (npk) =  40000
     Max angular momentum in pseudopotentials (lmaxx) =  4
 
     K-points division:     npool     =       2
     R & G space division:  proc/nbgrp/npool/nimage =      12
     Subspace diagonalization in iterative solution of the eigenvalue problem:
     a serial algorithm will be used

 
     Parallelization info
     --------------------
     sticks:   dense  smooth     PW     G-vecs:    dense   smooth      PW
     Min          43      43     13                  651      651     119
     Max          44      44     14                  654      654     123
     Sum         517     517    163                 7823     7823    1459
 
     Using Slab Decomposition
 


     bravais-lattice index     =            2
     lattice parameter (alat)  =       8.2279  a.u.
     unit-cell volume          =     139.2515 (a.u.)^3
     number of atoms/cell      =            2
     number of atomic types    =            2
     number of electrons       =         8.00
     number of Kohn-Sham states=            8
     kinetic-energy cutoff     =      56.0000  Ry
     charge density cutoff     =     224.0000  Ry
     scf convergence threshold =      1.0E-10
     mixing beta               =       0.7000
     number of iterations used =            8  plain     mixing
     Exchange-correlation= PBE
                           (   1   4   3   4   0   0   0)

     celldm(1)=   8.227854  celldm(2)=   0.000000  celldm(3)=   0.000000
     celldm(4)=   0.000000  celldm(5)=   0.000000  celldm(6)=   0.000000

     crystal axes: (cart. coord. in units of alat)
               a(1) = (  -0.500000   0.000000   0.500000 )  
               a(2) = (   0.000000   0.500000   0.500000 )  
               a(3) = (  -0.500000   0.500000   0.000000 )  

     reciprocal axes: (cart. coord. in units 2 pi/alat)
               b(1) = ( -1.000000 -1.000000  1.000000 )  
               b(2) = (  1.000000  1.000000  1.000000 )  
               b(3) = ( -1.000000  1.000000 -1.000000 )  


     PseudoPot. # 1 for C  read from file:
     /usr/scratch4/magr4985/MG/HTDF/pseudo/SG15/C.upf
     MD5 check sum: 1a5f83a7b1f58d24996abe00ed223ac6
     Pseudo is Norm-conserving, Zval =  4.0
     Generated using ONCVPSP code by D. R. Hamann
     Using radial grid of  602 points,  4 beta functions with: 
                l(1) =   0
                l(2) =   0
                l(3) =   1
                l(4) =   1

     PseudoPot. # 2 for Si read from file:
     /usr/scratch4/magr4985/MG/HTDF/pseudo/SG15/Si.upf
     MD5 check sum: 7f029a58b69e3aa87b46a36c608bf45e
     Pseudo is Norm-conserving, Zval =  4.0
     Generated using ONCVPSP code by D. R. Hamann
     Using radial grid of  602 points,  4 beta functions with: 
                l(1) =   0
                l(2) =   0
                l(3) =   1
                l(4) =   1

     atomic species   valence    mass     pseudopotential
        C              4.00    12.01070     C ( 1.00)
        Si             4.00    28.08550     Si( 1.00)

     24 Sym. Ops. (no inversion) found



   Cartesian axes

     site n.     atom                  positions (alat units)
         1           Si  tau(   1) = (  -0.2500000   0.2500000   0.2500001  )
         2           C   tau(   2) = (   0.0000000   0.0000000   0.0000000  )

     number of k points=    72  Gaussian smearing, width (Ry)=  0.0005
                       cart. coord. in units 2pi/alat
        k(    1) = (   0.0000000   0.0000000   0.0000000), wk =   0.0011574
        k(    2) = (  -0.0833333   0.0833333  -0.0833333), wk =   0.0092593
        k(    3) = (  -0.1666667   0.1666667  -0.1666667), wk =   0.0092593
        k(    4) = (  -0.2500000   0.2500000  -0.2500000), wk =   0.0092593
        k(    5) = (  -0.3333333   0.3333333  -0.3333333), wk =   0.0092593
        k(    6) = (  -0.4166667   0.4166667  -0.4166667), wk =   0.0092593
        k(    7) = (   0.5000000  -0.5000000   0.5000000), wk =   0.0046296
        k(    8) = (   0.0000000   0.1666667   0.0000000), wk =   0.0069444
        k(    9) = (  -0.0833333   0.2500000  -0.0833333), wk =   0.0277778
        k(   10) = (  -0.1666667   0.3333333  -0.1666667), wk =   0.0277778
        k(   11) = (  -0.2500000   0.4166667  -0.2500000), wk =   0.0277778
        k(   12) = (  -0.3333333   0.5000000  -0.3333333), wk =   0.0277778
        k(   13) = (   0.5833333  -0.4166667   0.5833333), wk =   0.0277778
        k(   14) = (   0.5000000  -0.3333333   0.5000000), wk =   0.0277778
        k(   15) = (   0.4166667  -0.2500000   0.4166667), wk =   0.0277778
        k(   16) = (   0.3333333  -0.1666667   0.3333333), wk =   0.0277778
        k(   17) = (   0.2500000  -0.0833333   0.2500000), wk =   0.0277778
        k(   18) = (   0.1666667  -0.0000000   0.1666667), wk =   0.0138889
        k(   19) = (   0.0000000   0.3333333   0.0000000), wk =   0.0069444
        k(   20) = (  -0.0833333   0.4166667  -0.0833333), wk =   0.0277778
        k(   21) = (  -0.1666667   0.5000000  -0.1666667), wk =   0.0277778
        k(   22) = (  -0.2500000   0.5833333  -0.2500000), wk =   0.0277778
        k(   23) = (   0.6666667  -0.3333333   0.6666667), wk =   0.0277778
        k(   24) = (   0.5833333  -0.2500000   0.5833333), wk =   0.0277778
        k(   25) = (   0.5000000  -0.1666667   0.5000000), wk =   0.0277778
        k(   26) = (   0.4166667  -0.0833333   0.4166667), wk =   0.0277778
        k(   27) = (   0.3333333   0.0000000   0.3333333), wk =   0.0138889
        k(   28) = (   0.0000000   0.5000000   0.0000000), wk =   0.0069444
        k(   29) = (  -0.0833333   0.5833333  -0.0833333), wk =   0.0277778
        k(   30) = (  -0.1666667   0.6666667  -0.1666667), wk =   0.0277778
        k(   31) = (   0.7500000  -0.2500000   0.7500000), wk =   0.0277778
        k(   32) = (   0.6666667  -0.1666667   0.6666667), wk =   0.0277778
        k(   33) = (   0.5833333  -0.0833333   0.5833333), wk =   0.0277778
        k(   34) = (   0.5000000   0.0000000   0.5000000), wk =   0.0138889
        k(   35) = (   0.0000000   0.6666667   0.0000000), wk =   0.0069444
        k(   36) = (  -0.0833333   0.7500000  -0.0833333), wk =   0.0277778
        k(   37) = (   0.8333333  -0.1666667   0.8333333), wk =   0.0277778
        k(   38) = (   0.7500000  -0.0833333   0.7500000), wk =   0.0277778
        k(   39) = (   0.6666667  -0.0000000   0.6666667), wk =   0.0138889
        k(   40) = (   0.0000000   0.8333333   0.0000000), wk =   0.0069444
        k(   41) = (   0.9166667  -0.0833333   0.9166667), wk =   0.0277778
        k(   42) = (   0.8333333   0.0000000   0.8333333), wk =   0.0138889
        k(   43) = (   0.0000000  -1.0000000   0.0000000), wk =   0.0034722
        k(   44) = (  -0.1666667   0.3333333   0.0000000), wk =   0.0277778
        k(   45) = (  -0.2500000   0.4166667  -0.0833333), wk =   0.0555556
        k(   46) = (  -0.3333333   0.5000000  -0.1666667), wk =   0.0555556
        k(   47) = (   0.5833333  -0.4166667   0.7500000), wk =   0.0555556
        k(   48) = (   0.5000000  -0.3333333   0.6666667), wk =   0.0277778
        k(   49) = (  -0.1666667   0.5000000   0.0000000), wk =   0.0277778
        k(   50) = (  -0.2500000   0.5833333  -0.0833333), wk =   0.0555556
        k(   51) = (   0.6666667  -0.3333333   0.8333333), wk =   0.0555556
        k(   52) = (   0.5833333  -0.2500000   0.7500000), wk =   0.0555556
        k(   53) = (   0.5000000  -0.1666667   0.6666667), wk =   0.0555556
        k(   54) = (   0.4166667  -0.0833333   0.5833333), wk =   0.0555556
        k(   55) = (   0.3333333   0.0000000   0.5000000), wk =   0.0277778
        k(   56) = (  -0.1666667   0.6666667  -0.0000000), wk =   0.0277778
        k(   57) = (   0.7500000  -0.2500000   0.9166667), wk =   0.0555556
        k(   58) = (   0.6666667  -0.1666667   0.8333333), wk =   0.0555556
        k(   59) = (   0.5833333  -0.0833333   0.7500000), wk =   0.0555556
        k(   60) = (   0.5000000   0.0000000   0.6666667), wk =   0.0277778
        k(   61) = (   0.8333333  -0.1666667   1.0000000), wk =   0.0277778
        k(   62) = (   0.7500000  -0.0833333   0.9166667), wk =   0.0555556
        k(   63) = (   0.6666667   0.0000000   0.8333333), wk =   0.0277778
        k(   64) = (  -0.1666667  -1.0000000  -0.0000000), wk =   0.0138889
        k(   65) = (   0.6666667  -0.3333333   1.0000000), wk =   0.0277778
        k(   66) = (   0.5833333  -0.2500000   0.9166667), wk =   0.0555556
        k(   67) = (   0.5000000  -0.1666667   0.8333333), wk =   0.0277778
        k(   68) = (   0.6666667  -0.1666667   1.0000000), wk =   0.0277778
        k(   69) = (   0.5833333  -0.0833333   0.9166667), wk =   0.0555556
        k(   70) = (   0.5000000   0.0000000   0.8333333), wk =   0.0277778
        k(   71) = (  -0.3333333  -1.0000000   0.0000000), wk =   0.0138889
        k(   72) = (  -0.5000000  -1.0000000   0.0000000), wk =   0.0069444

     Dense  grid:     7823 G-vectors     FFT dimensions: (  27,  27,  27)

     Estimated max dynamical RAM per process >       1.57 MB

     Estimated total dynamical RAM >      35.83 MB

     Initial potential from superposition of free atoms

     starting charge       7.9468, renormalised to       8.0000
     Starting wfcs are random

     total cpu time spent up to now is        0.2 secs

     Self-consistent Calculation

     iteration #  1     ecut=    56.00 Ry     beta= 0.70
     Davidson diagonalization with overlap
     ethr =  1.00E-02,  avg # of iterations =  8.3

     total cpu time spent up to now is        0.4 secs

     total energy              =     -19.18971149 Ry
     estimated scf accuracy    <       0.38098133 Ry

     iteration #  2     ecut=    56.00 Ry     beta= 0.70
     Davidson diagonalization with overlap
     ethr =  4.76E-03,  avg # of iterations =  2.0

     total cpu time spent up to now is        0.5 secs

     total energy              =     -19.29229885 Ry
     estimated scf accuracy    <       0.11138587 Ry

     iteration #  3     ecut=    56.00 Ry     beta= 0.70
     Davidson diagonalization with overlap
     ethr =  1.39E-03,  avg # of iterations =  1.1

     total cpu time spent up to now is        0.6 secs

     total energy              =     -19.31160404 Ry
     estimated scf accuracy    <       0.00105868 Ry

     iteration #  4     ecut=    56.00 Ry     beta= 0.70
     Davidson diagonalization with overlap
     ethr =  1.32E-05,  avg # of iterations =  5.3

     total cpu time spent up to now is        0.8 secs

     total energy              =     -19.31226291 Ry
     estimated scf accuracy    <       0.00035675 Ry

     iteration #  5     ecut=    56.00 Ry     beta= 0.70
     Davidson diagonalization with overlap
     ethr =  4.46E-06,  avg # of iterations =  1.7

     total cpu time spent up to now is        0.8 secs

     total energy              =     -19.31232038 Ry
     estimated scf accuracy    <       0.00000245 Ry

     iteration #  6     ecut=    56.00 Ry     beta= 0.70
     Davidson diagonalization with overlap
     ethr =  3.06E-08,  avg # of iterations =  3.5

     total cpu time spent up to now is        1.0 secs

     total energy              =     -19.31232315 Ry
     estimated scf accuracy    <       0.00000155 Ry

     iteration #  7     ecut=    56.00 Ry     beta= 0.70
     Davidson diagonalization with overlap
     ethr =  1.93E-08,  avg # of iterations =  1.1

     total cpu time spent up to now is        1.0 secs

     total energy              =     -19.31232331 Ry
     estimated scf accuracy    <       0.00000005 Ry

     iteration #  8     ecut=    56.00 Ry     beta= 0.70
     Davidson diagonalization with overlap
     ethr =  6.38E-10,  avg # of iterations =  2.2

     total cpu time spent up to now is        1.1 secs

     total energy              =     -19.31232333 Ry
     estimated scf accuracy    <          5.8E-10 Ry

     iteration #  9     ecut=    56.00 Ry     beta= 0.70
     Davidson diagonalization with overlap
     ethr =  7.24E-12,  avg # of iterations =  3.8

     total cpu time spent up to now is        1.2 secs

     total energy              =     -19.31232333 Ry
     estimated scf accuracy    <          1.5E-09 Ry

     iteration # 10     ecut=    56.00 Ry     beta= 0.70
     Davidson diagonalization with overlap
     ethr =  7.24E-12,  avg # of iterations =  1.0

     total cpu time spent up to now is        1.3 secs

     total energy              =     -19.31232333 Ry
     estimated scf accuracy    <          4.2E-10 Ry

     iteration # 11     ecut=    56.00 Ry     beta= 0.70
     Davidson diagonalization with overlap
     ethr =  5.30E-12,  avg # of iterations =  2.0

     total cpu time spent up to now is        1.4 secs

     End of self-consistent calculation

          k = 0.0000 0.0000 0.0000 (   965 PWs)   bands (ev):

    -5.8998   9.4913   9.4913   9.4913  15.7647  16.8760  16.8760  16.8760

          k =-0.0833 0.0833-0.0833 (   956 PWs)   bands (ev):

    -5.7638   8.7715   9.3989   9.3989  16.0093  17.0156  17.0506  17.0506

          k =-0.1667 0.1667-0.1667 (   968 PWs)   bands (ev):

    -5.3598   7.1340   9.1682   9.1682  15.8869  17.3887  17.3887  17.8831

          k =-0.2500 0.2500-0.2500 (   968 PWs)   bands (ev):

    -4.7024   5.2185   8.8955   8.8955  15.5288  17.4630  17.4630  18.8749

          k =-0.3333 0.3333-0.3333 (   977 PWs)   bands (ev):

    -3.8306   3.3369   8.6609   8.6609  15.2204  17.1893  17.1893  19.4311

          k =-0.4167 0.4167-0.4167 (   984 PWs)   bands (ev):

    -2.8705   1.7367   8.5075   8.5075  15.0281  16.8867  16.8867  19.5620

          k = 0.5000-0.5000 0.5000 (   978 PWs)   bands (ev):

    -2.3260   0.9741   8.4549   8.4549  14.9639  16.7670  16.7670  19.5610

          k = 0.0000 0.1667 0.0000 (   957 PWs)   bands (ev):

    -5.7185   8.9518   9.1572   9.1572  16.1117  16.5263  17.3733  17.3733

          k =-0.0833 0.2500-0.0833 (   969 PWs)   bands (ev):

    -5.4037   7.6810   8.8227   9.0695  15.9323  16.7753  17.8771  17.9515

          k =-0.1667 0.3333-0.1667 (   973 PWs)   bands (ev):

    -4.8299   5.8874   8.5092   8.8283  15.6584  17.1170  18.1450  18.3559

          k =-0.2500 0.4167-0.2500 (   976 PWs)   bands (ev):

    -4.0255   4.0131   8.2905   8.4929  15.3790  16.9459  17.9444  19.0614

          k =-0.3333 0.5000-0.3333 (   991 PWs)   bands (ev):

    -3.0736   2.3102   8.1670   8.2010  15.1983  16.6112  17.5370  19.7917

          k = 0.5833-0.4167 0.5833 (   987 PWs)   bands (ev):

    -2.2969   1.1803   7.9168   8.2490  15.1716  16.4438  17.2105  20.1123

          k = 0.5000-0.3333 0.5000 (   990 PWs)   bands (ev):

    -2.4922   1.4476   7.7830   8.4210  15.2914  16.5256  17.0897  20.1085

          k = 0.4167-0.2500 0.4167 (   985 PWs)   bands (ev):

    -3.3977   2.8448   7.7922   8.6876  15.5151  16.8650  17.1840  19.7718

          k = 0.3333-0.1667 0.3333 (   971 PWs)   bands (ev):

    -4.3169   4.6300   7.9557   9.0008  15.8174  17.3059  17.3654  19.0539

          k = 0.2500-0.0833 0.2500 (   974 PWs)   bands (ev):

    -5.0493   6.4834   8.2757   9.2854  16.1747  17.2625  17.3389  18.4078

          k = 0.1667-0.0000 0.1667 (   965 PWs)   bands (ev):

    -5.5384   8.0304   8.7938   9.4462  16.3183  16.7981  17.0954  17.8658

          k = 0.0000 0.3333 0.0000 (   974 PWs)   bands (ev):

    -5.1794   7.7053   8.3966   8.3966  15.0960  16.8669  18.5967  18.5967

          k =-0.0833 0.4167-0.0833 (   981 PWs)   bands (ev):

    -4.6942   6.4165   8.0191   8.1349  14.6507  16.7549  18.7473  19.1582

          k =-0.1667 0.5000-0.1667 (   981 PWs)   bands (ev):

    -3.9698   4.7349   7.7106   7.7681  14.4444  17.0987  18.5282  19.1986

          k =-0.2500 0.5833-0.2500 (   990 PWs)   bands (ev):

    -3.0647   3.0636   7.1949   7.6787  14.3059  17.4316  18.8314  19.0249

          k = 0.6667-0.3333 0.6667 (   992 PWs)   bands (ev):

    -2.1837   1.7413   6.7381   7.7597  14.3579  17.3479  18.3950  20.1664

          k = 0.5833-0.2500 0.5833 (   986 PWs)   bands (ev):

    -2.0028   1.5020   6.4260   7.9981  14.6647  17.2570  18.0785  20.6963

          k = 0.5000-0.1667 0.5000 (   987 PWs)   bands (ev):

    -2.7585   2.5840   6.3117   8.3569  15.2128  17.2657  17.9302  20.1506

          k = 0.4167-0.0833 0.4167 (   982 PWs)   bands (ev):

    -3.6913   4.1539   6.4617   8.7682  15.9198  17.3488  17.8600  19.0977

          k = 0.3333 0.0000 0.3333 (   975 PWs)   bands (ev):

    -4.4832   5.6026   7.0777   9.1231  16.5614  17.1276  17.6339  18.4633

          k = 0.0000 0.5000 0.0000 (   982 PWs)   bands (ev):

    -4.2997   6.1599   7.5783   7.5783  13.5945  15.8562  20.1287  20.1288

          k =-0.0833 0.5833-0.0833 (   992 PWs)   bands (ev):

    -3.6634   5.0483   7.0789   7.2723  13.1559  15.6083  20.2214  20.6026

          k =-0.1667 0.6667-0.1667 (   992 PWs)   bands (ev):

    -2.8308   3.7003   6.3081   7.1440  13.1109  16.2728  20.0322  20.4578

          k = 0.7500-0.2500 0.7500 (   986 PWs)   bands (ev):

    -1.9425   2.4517   5.5589   7.2068  13.2428  17.4795  20.0241  20.0357

          k = 0.6667-0.1667 0.6667 (   983 PWs)   bands (ev):

    -1.4841   1.8876   5.0185   7.4516  13.6007  18.3334  19.5641  20.5462

          k = 0.5833-0.0833 0.5833 (   989 PWs)   bands (ev):

    -1.9849   2.5425   4.7951   7.8470  14.2124  18.5227  19.1308  20.3714

          k = 0.5000 0.0000 0.5000 (   983 PWs)   bands (ev):

    -2.8702   3.5725   5.1757   8.3265  15.0462  18.2848  18.5846  19.3857

          k = 0.0000 0.6667 0.0000 (  1002 PWs)   bands (ev):

    -3.1204   4.4526   6.9068   6.9068  12.1619  14.7279  21.6871  21.6871

          k =-0.0833 0.7500-0.0833 (   992 PWs)   bands (ev):

    -2.3810   3.5161   6.2645   6.7233  11.9641  14.7506  21.8127  22.0268

          k = 0.8333-0.1667 0.8333 (   987 PWs)   bands (ev):

    -1.5621   2.6640   5.1734   6.7396  12.2412  15.7302  21.6362  21.7479

          k = 0.7500-0.0833 0.7500 (   987 PWs)   bands (ev):

    -1.0225   2.2422   4.2060   6.9541  12.6878  17.3053  21.1663  21.4981

          k = 0.6667-0.0000 0.6667 (   981 PWs)   bands (ev):

    -1.2584   2.4773   3.8793   7.3424  13.3384  18.6794  20.3159  21.0700

          k = 0.0000 0.8333 0.0000 (   998 PWs)   bands (ev):

    -1.7608   2.7342   6.4779   6.4779  11.1976  14.0582  22.9978  22.9978

          k = 0.9167-0.0833 0.9167 (   989 PWs)   bands (ev):

    -1.1141   2.0795   5.8500   6.4359  11.3428  14.3289  23.0793  23.0943

          k = 0.8333 0.0000 0.8333 (   985 PWs)   bands (ev):

    -0.8019   1.9853   4.7684   6.6004  11.9499  15.5478  22.4293  22.7800

          k = 0.0000-1.0000 0.0000 (   982 PWs)   bands (ev):

    -0.8705   1.7132   6.3317   6.3317  10.8681  13.8392  23.5645  23.5645

          k =-0.1667 0.3333 0.0000 (   964 PWs)   bands (ev):

    -5.0036   6.8027   7.9809   8.9761  15.6795  17.0236  18.2192  18.2886

          k =-0.2500 0.4167-0.0833 (   975 PWs)   bands (ev):

    -4.3535   5.2804   7.3887   8.7274  15.5397  17.2653  18.1057  18.5810

          k =-0.3333 0.5000-0.1667 (   983 PWs)   bands (ev):

    -3.4941   3.5532   7.1031   8.3660  15.3267  16.9049  18.3945  19.0743

          k = 0.5833-0.4167 0.7500 (   985 PWs)   bands (ev):

    -2.5539   2.0301   6.9915   8.0525  15.1668  16.5129  18.2291  20.1250

          k = 0.5000-0.3333 0.6667 (   976 PWs)   bands (ev):

    -2.0273   1.3012   6.9712   7.9253  15.1147  16.3622  18.1522  20.5839

          k =-0.1667 0.5000 0.0000 (   987 PWs)   bands (ev):

    -4.1329   5.5360   7.1160   7.9799  14.2323  16.4690  18.8472  19.8957

          k =-0.2500 0.5833-0.0833 (   989 PWs)   bands (ev):

    -3.3507   4.2041   6.4884   7.6138  14.1674  16.8709  18.5484  20.2061

          k = 0.6667-0.3333 0.8333 (   994 PWs)   bands (ev):

    -2.4374   2.7704   6.0844   7.3063  14.1871  17.3994  18.7700  20.1483

          k = 0.5833-0.2500 0.7500 (   984 PWs)   bands (ev):

    -1.7164   1.7853   5.7589   7.2784  14.3553  17.2631  19.5294  20.3851

          k = 0.5000-0.1667 0.6667 (   983 PWs)   bands (ev):

    -1.9045   2.0399   5.5556   7.5240  14.7009  17.1179  19.5436  20.3319

          k = 0.4167-0.0833 0.5833 (   990 PWs)   bands (ev):

    -2.7593   3.2505   5.5972   7.9453  15.1566  17.1632  18.9201  19.6493

          k = 0.3333 0.0000 0.5000 (   984 PWs)   bands (ev):

    -3.6431   4.5059   6.1455   8.4103  15.5183  17.3369  18.0040  19.2440

          k =-0.1667 0.6667-0.0000 (  1004 PWs)   bands (ev):

    -2.9715   4.1943   6.4154   6.9153  12.8818  15.4607  20.2138  21.5908

          k = 0.7500-0.2500 0.9167 (   993 PWs)   bands (ev):

    -2.1281   3.2002   5.5934   6.6017  13.1010  16.1868  19.8368  21.8614

          k = 0.6667-0.1667 0.8333 (   989 PWs)   bands (ev):

    -1.3596   2.3560   4.7918   6.6271  13.4345  17.4726  19.5912  21.6401

          k = 0.5833-0.0833 0.7500 (   982 PWs)   bands (ev):

    -1.2499   2.2850   4.3047   6.9181  13.9047  18.1842  19.9782  20.9303

          k = 0.5000 0.0000 0.6667 (   995 PWs)   bands (ev):

    -1.9152   2.8967   4.4592   7.3948  14.5265  17.9260  19.4425  20.4875

          k = 0.8333-0.1667 1.0000 (   986 PWs)   bands (ev):

    -1.6508   2.7503   5.9793   6.1665  12.0094  14.8471  21.6463  23.0085

          k = 0.7500-0.0833 0.9167 (   985 PWs)   bands (ev):

    -0.9898   2.2491   4.9355   6.1373  12.5631  15.8309  21.1808  22.9051

          k = 0.6667 0.0000 0.8333 (   995 PWs)   bands (ev):

    -0.8275   2.2945   4.0493   6.4256  13.1844  17.4054  20.5199  21.7626

          k =-0.1667-1.0000-0.0000 (   986 PWs)   bands (ev):

    -0.8169   1.8565   5.8615   5.8807  11.7177  14.6442  22.5246  23.6073

          k = 0.6667-0.3333 1.0000 (   983 PWs)   bands (ev):

    -2.5447   3.5597   5.4148   7.0954  14.4055  17.2687  18.1242  21.2042

          k = 0.5833-0.2500 0.9167 (   988 PWs)   bands (ev):

    -1.6921   2.6604   4.9079   6.5967  14.5776  17.5540  18.6592  21.3796

          k = 0.5000-0.1667 0.8333 (   988 PWs)   bands (ev):

    -1.2412   2.1405   4.8002   6.3957  14.6204  17.4283  19.8381  20.7925

          k = 0.6667-0.1667 1.0000 (   982 PWs)   bands (ev):

    -1.3612   2.7172   5.0069   5.7963  13.7204  16.7785  19.3546  22.4376

          k = 0.5833-0.0833 0.9167 (   991 PWs)   bands (ev):

    -0.8506   2.4328   4.3804   5.5859  14.2693  17.8966  19.1861  20.9234

          k = 0.5000 0.0000 0.8333 (   996 PWs)   bands (ev):

    -1.0250   2.5590   4.1878   5.9380  14.6066  18.0845  19.1948  20.5652

          k =-0.3333-1.0000 0.0000 (   982 PWs)   bands (ev):

    -0.7020   2.2259   5.0050   5.1379  13.4954  16.6110  20.3706  21.7272

          k =-0.5000-1.0000 0.0000 (   992 PWs)   bands (ev):

    -0.6401   2.4946   4.5188   4.8330  14.6993  18.9866  18.9931  19.2780

     the Fermi energy is    10.7057 ev

!    total energy              =     -19.31232333 Ry
     estimated scf accuracy    <          3.3E-11 Ry
     smearing contrib. (-TS)   =      -0.00000000 Ry
     internal energy E=F+TS    =     -19.31232333 Ry

     The total energy is F=E-TS. E is the sum of the following terms:
     one-electron contribution =       5.39897474 Ry
     hartree contribution      =       2.33563211 Ry
     xc contribution           =      -6.09644497 Ry
     ewald contribution        =     -20.95048520 Ry

     convergence has been achieved in  11 iterations

     Writing all to output data dir out/mp-8062.save/
 
     init_run     :      0.04s CPU      0.12s WALL (       1 calls)
     electrons    :      1.05s CPU      1.21s WALL (       1 calls)

     Called by init_run:
     wfcinit      :      0.03s CPU      0.07s WALL (       1 calls)
     potinit      :      0.00s CPU      0.01s WALL (       1 calls)
     hinit0       :      0.00s CPU      0.04s WALL (       1 calls)

     Called by electrons:
     c_bands      :      0.91s CPU      1.04s WALL (      11 calls)
     sum_band     :      0.13s CPU      0.14s WALL (      11 calls)
     v_of_rho     :      0.01s CPU      0.01s WALL (      12 calls)
     mix_rho      :      0.00s CPU      0.00s WALL (      11 calls)

     Called by c_bands:
     init_us_2    :      0.02s CPU      0.02s WALL (     828 calls)
     init_us_2:cp :      0.01s CPU      0.02s WALL (     828 calls)
     cegterg      :      0.82s CPU      0.93s WALL (     396 calls)

     Called by *egterg:
     cdiaghg      :      0.12s CPU      0.17s WALL (    1510 calls)
     h_psi        :      0.65s CPU      0.73s WALL (    1546 calls)
     g_psi        :      0.00s CPU      0.00s WALL (    1114 calls)

     Called by h_psi:
     h_psi:calbec :      0.02s CPU      0.03s WALL (    1546 calls)
     vloc_psi     :      0.60s CPU      0.68s WALL (    1546 calls)
     add_vuspsi   :      0.01s CPU      0.01s WALL (    1546 calls)

     General routines
     calbec       :      0.02s CPU      0.02s WALL (    1546 calls)
     fft          :      0.01s CPU      0.04s WALL (     119 calls)
     ffts         :      0.00s CPU      0.00s WALL (      11 calls)
     fftw         :      0.65s CPU      0.73s WALL (   22066 calls)
 
     Parallel routines
 
     PWSCF        :      1.13s CPU      1.50s WALL

 
   This run was terminated on:  19:56:15  17Nov2023            

=------------------------------------------------------------------------------=
   JOB DONE.
=------------------------------------------------------------------------------=
