
     Program PWSCF v.7.1 starts on 19Nov2023 at  2:43:59 

     This program is part of the open-source Quantum ESPRESSO suite
     for quantum simulation of materials; please cite
         "P. Giannozzi et al., J. Phys.:Condens. Matter 21 395502 (2009);
         "P. Giannozzi et al., J. Phys.:Condens. Matter 29 465901 (2017);
         "P. Giannozzi et al., J. Chem. Phys. 152 154105 (2020);
          URL http://www.quantum-espresso.org", 
     in publications or presentations arising from this work. More details at
     http://www.quantum-espresso.org/quote

     Parallel version (MPI), running on    24 processors

     MPI processes distributed on     1 nodes
     123264 MiB available memory on the printing compute node when the environment starts
 
     Reading input from pw_mp-2172_nscf_k250_E81.in
Warning: card &IONS ignored
Warning: card / ignored
Warning: card &CELL ignored
Warning: card / ignored

     Current dimensions of program PWSCF are:
     Max number of different atomic species (ntypx) = 10
     Max number of k-points (npk) =  40000
     Max angular momentum in pseudopotentials (lmaxx) =  4

     Atomic positions and unit cell read from directory:
     out/mp-2172.save/
     Atomic positions from file used, from input discarded
 
 
     K-points division:     npool     =       2
     R & G space division:  proc/nbgrp/npool/nimage =      12
     Subspace diagonalization in iterative solution of the eigenvalue problem:
     one sub-group per band group will be used
     scalapack distributed-memory algorithm (size of sub-group:  3*  3 procs)

 
     Parallelization info
     --------------------
     sticks:   dense  smooth     PW     G-vecs:    dense   smooth      PW
     Min         107     107     31                 2538     2538     400
     Max         108     108     33                 2541     2541     402
     Sum        1285    1285    379                30467    30467    4813
 
     Using Slab Decomposition
 


     bravais-lattice index     =            2
     lattice parameter (alat)  =      10.7257  a.u.
     unit-cell volume          =     308.4737 (a.u.)^3
     number of atoms/cell      =            2
     number of atomic types    =            2
     number of electrons       =        16.00
     number of Kohn-Sham states=         1200
     kinetic-energy cutoff     =      81.0000  Ry
     charge density cutoff     =     324.0000  Ry
     Exchange-correlation= PBE
                           (   1   4   3   4   0   0   0)

     celldm(1)=  10.725710  celldm(2)=   0.000000  celldm(3)=   0.000000
     celldm(4)=   0.000000  celldm(5)=   0.000000  celldm(6)=   0.000000

     crystal axes: (cart. coord. in units of alat)
               a(1) = (  -0.500000   0.000000   0.500000 )  
               a(2) = (   0.000000   0.500000   0.500000 )  
               a(3) = (  -0.500000   0.500000   0.000000 )  

     reciprocal axes: (cart. coord. in units 2 pi/alat)
               b(1) = ( -1.000000 -1.000000  1.000000 )  
               b(2) = (  1.000000  1.000000  1.000000 )  
               b(3) = ( -1.000000  1.000000 -1.000000 )  


     PseudoPot. # 1 for Al read from file:
     /usr/scratch4/magr4985/MG/HTDF/pseudo/SG15/Al.upf
     MD5 check sum: 2d9e7bc02555220d62fad08c3c4858e7
     Pseudo is Norm-conserving, Zval = 11.0
     Generated using ONCVPSP code by D. R. Hamann
     Using radial grid of  602 points,  4 beta functions with: 
                l(1) =   0
                l(2) =   0
                l(3) =   1
                l(4) =   1

     PseudoPot. # 2 for As read from file:
     /usr/scratch4/magr4985/MG/HTDF/pseudo/SG15/As.upf
     MD5 check sum: a2ff92a4799c87c945fff9e6739df4dd
     Pseudo is Norm-conserving, Zval =  5.0
     Generated using ONCVPSP code by D. R. Hamann
     Using radial grid of  602 points,  6 beta functions with: 
                l(1) =   0
                l(2) =   0
                l(3) =   1
                l(4) =   1
                l(5) =   2
                l(6) =   2

     atomic species   valence    mass     pseudopotential
        Al            11.00    26.98150     Al( 1.00)
        As             5.00    74.92160     As( 1.00)

     24 Sym. Ops. (no inversion) found



   Cartesian axes

     site n.     atom                  positions (alat units)
         1           Al  tau(   1) = (   0.0000000   0.0000000   0.0000000  )
         2           As  tau(   2) = (  -0.7500000   0.7500000   0.7500000  )

     number of k points=    16  Gaussian smearing, width (Ry)=  0.0005
                       cart. coord. in units 2pi/alat
        k(    1) = (   0.0000000   0.0000000   0.0000000), wk =   0.0092593
        k(    2) = (  -0.1666667   0.1666667  -0.1666667), wk =   0.0740741
        k(    3) = (  -0.3333333   0.3333333  -0.3333333), wk =   0.0740741
        k(    4) = (   0.5000000  -0.5000000   0.5000000), wk =   0.0370370
        k(    5) = (   0.0000000   0.3333333   0.0000000), wk =   0.0555556
        k(    6) = (  -0.1666667   0.5000000  -0.1666667), wk =   0.2222222
        k(    7) = (   0.6666667  -0.3333333   0.6666667), wk =   0.2222222
        k(    8) = (   0.5000000  -0.1666667   0.5000000), wk =   0.2222222
        k(    9) = (   0.3333333   0.0000000   0.3333333), wk =   0.1111111
        k(   10) = (   0.0000000   0.6666667   0.0000000), wk =   0.0555556
        k(   11) = (   0.8333333  -0.1666667   0.8333333), wk =   0.2222222
        k(   12) = (   0.6666667  -0.0000000   0.6666667), wk =   0.1111111
        k(   13) = (   0.0000000  -1.0000000   0.0000000), wk =   0.0277778
        k(   14) = (   0.6666667  -0.3333333   1.0000000), wk =   0.2222222
        k(   15) = (   0.5000000  -0.1666667   0.8333333), wk =   0.2222222
        k(   16) = (  -0.3333333  -1.0000000   0.0000000), wk =   0.1111111

     Dense  grid:    30467 G-vectors     FFT dimensions: (  45,  45,  45)

     Estimated max dynamical RAM per process >     108.98 MB

     Estimated total dynamical RAM >       2.55 GB

     The potential is recalculated from file :
     out/mp-2172.save/charge-density

     Starting wfcs are random

     Band Structure Calculation
     Davidson diagonalization with overlap

     ethr =  5.00E-06,  avg # of iterations = 10.4

     total cpu time spent up to now is      688.7 secs

     End of band structure calculation

          k = 0.0000 0.0000 0.0000 (  3839 PWs)   bands (ev):

   -97.0275 -58.5152 -58.5152 -58.5152  -5.9336   5.8833   5.8833   5.8833
     7.8556  10.1496  10.1496  10.1496  14.7233  14.9478  14.9478  17.3150
    17.3150  17.3150  20.7329  29.7426  29.7426  29.7426  31.6127  31.6127
    31.8142  31.8142  31.8142  33.2923  33.2923  33.2923  41.3917  42.3327
    42.3327  42.3327  44.4064  44.4064  46.2033  46.2033  46.2033  46.3779
    46.3779  46.7577  46.7577  46.7577  46.9673  47.8046  47.8046  47.8046
    48.6038  48.6038  48.6038  49.1386  49.1386  49.1386  52.5603  54.0936
    54.0936  54.0936  54.9869  54.9869  54.9869  57.2431  61.1893  69.0393
    69.0393  70.6328  70.6328  70.6328  73.0542  74.0693  74.0693  74.0693
    76.7009  76.7009  76.7009  77.2069  77.2069  80.8260  80.8260  80.8260
    82.8920  82.8920  82.8920  83.2530  83.2530  84.6354  84.6354  84.6354
    84.8886  86.3994  86.3994  86.3994  86.9134  86.9134  87.5662  87.5662
    87.5662  89.1399  89.1399  89.1399  90.0621  90.3346  90.3346  90.3346
    91.6119  91.6119  91.6119  91.7034  92.7112  92.7112  92.7112  92.8150
    92.8150  93.7198  93.7198  93.7198  97.8924 101.1648 101.3424 101.3424
   101.3424 104.0171 104.0171 104.0171 104.0906 104.0906 106.0605 106.0605
   106.0605 106.7925 106.7925 106.7925 107.5423 107.5423 107.5423 108.2352
   108.2352 112.4190 112.4190 112.4190 112.9033 116.5086 117.6902 117.6902
   118.7865 118.7865 118.7865 119.4808 119.4808 119.4808 119.8301 119.8301
   120.4081 121.6936 121.6936 121.6936 121.7545 122.3863 122.3863 122.3863
   122.4628 122.4628 122.4628 123.2845 123.2845 123.2845 124.3883 124.3883
   124.3883 126.6986 126.6986 126.6986 134.9094 136.9374 136.9374 136.9374
   136.9601 136.9601 136.9601 137.3864 137.9384 137.9384 144.2338 144.2338
   144.2338 146.9710 146.9710 146.9710 147.4765 147.4765 148.3481 148.3481
   148.3481 149.3263 152.9517 152.9517 152.9517 153.9180 153.9180 153.9309
   153.9309 153.9309 154.8538 154.8538 154.8538 157.0974 157.0974 157.2987
   157.2987 157.2987 157.3912 157.4907 157.4907 157.4907 158.3879 158.3879
   158.3879 158.9827 158.9827 159.1931 159.1931 159.1931 159.7436 159.7436
   159.7436 159.8645 160.2730 160.2730 160.2730 160.4707 160.6704 160.6704
   160.6704 161.0282 161.3501 161.3501 161.3501 162.5697 162.6940 162.6940
   163.8001 163.8001 163.8001 165.1282 165.1282 165.3478 165.3478 165.3478
   165.8333 165.8333 165.8333 166.1781 166.1781 166.1781 166.3931 166.3931
   166.3931 166.4386 166.4386 171.8632 171.8632 171.8632 174.3984 174.3984
   174.7863 178.8277 178.8277 178.8277 180.5952 180.5952 180.5952 181.1892
   181.1892 181.1892 181.3569 181.3569 181.3569 182.9743 182.9743 182.9743
   183.4020 184.2880 184.2880 184.3323 184.3323 184.3323 184.4101 186.2105
   186.2105 186.2105 186.2885 189.6869 189.6869 190.6649 190.6649 190.6649
   192.3068 192.3068 192.3068 192.8341 192.8341 192.8341 193.3695 193.3695
   193.3695 193.9496 193.9496 195.9893 195.9893 195.9893 196.3693 199.3706
   199.3706 199.3706 199.7791 199.7791 200.5629 200.5629 200.5629 200.8653
   201.2993 201.2993 201.2993 201.3993 201.3993 201.3993 202.1495 202.1495
   202.1495 202.3769 202.3769 208.9689 208.9689 208.9689 215.4678 215.4678
   215.4678 215.5529 216.3324 218.5055 218.5055 218.5055 220.5647 220.5647
   220.5750 220.5750 220.5750 220.7415 220.7415 220.7415 221.3366 223.1067
   223.1067 223.1067 223.8585 223.8585 225.1259 225.9592 225.9592 225.9592
   226.6267 226.6267 226.6267 226.8596 226.8596 227.1423 227.1423 227.1423
   228.2833 229.5855 229.5855 229.5855 229.6531 229.6531 230.7699 233.2003
   233.2003 233.2003 233.4240 233.4240 233.4240 233.5085 233.5085 233.5085
   233.6727 233.6727 233.6727 237.6805 237.6805 237.6805 237.7256 237.7256
   237.7256 237.7438 237.7438 237.7438 237.7799 237.7799 237.8364 238.8766
   238.8766 238.8766 239.1985 239.7755 239.7755 239.7755 240.3588 240.3588
   240.3631 240.3631 240.3631 242.6830 242.6830 242.6830 244.7882 244.7882
   244.7882 244.8023 246.0945 248.0107 248.0107 248.8926 248.8926 248.8926
   249.1095 249.1095 249.1095 250.4015 250.4015 250.4015 250.5518 250.5518
   250.5518 251.8764 251.8764 254.8661 254.8661 255.5474 255.5474 255.5474
   255.7824 255.7824 255.7824 256.1054 256.1054 256.1054 256.7118 256.7118
   256.7118 257.0813 257.0813 257.3836 258.1511 258.1511 258.1511 258.4525
   258.4525 258.4525 258.5479 258.5479 258.5479 258.8294 261.1494 261.1494
   261.1494 261.1922 262.5921 264.9147 264.9147 265.5736 265.5736 265.5736
   266.8388 266.8388 266.8388 266.9342 266.9342 266.9342 267.0915 267.0915
   267.2420 267.2420 267.2420 268.3798 268.9442 268.9442 268.9442 269.1284
   269.1284 269.1284 269.1899 270.7235 270.7235 270.8284 270.8284 270.8284
   270.8830 270.8830 270.8830 271.2147 271.2147 271.2147 271.2358 271.2358
   271.2358 271.4730 271.5073 271.5073 271.7643 271.7643 271.7643 272.1459
   272.1459 272.1459 272.5410 272.5827 272.5827 272.5929 272.5929 272.5929
   272.6119 272.6119 272.6119 272.7741 272.7741 272.7741 273.0115 273.0115
   273.0115 273.0252 273.0252 289.4502 289.4502 289.4502 290.8806 290.8806
   291.2105 293.2290 293.2290 293.2290 296.9201 296.9201 296.9201 297.7296
   298.1827 298.5556 298.5556 299.9547 299.9547 299.9547 301.7708 301.7708
   301.7708 302.0976 302.0976 302.0976 302.4095 302.4095 302.4095 302.8104
   302.8104 304.3110 305.7688 305.7688 305.7688 306.7205 306.7205 306.8305
   306.8305 306.8305 308.2668 308.2897 308.2897 308.2897 309.2741 311.8201
   311.8201 311.8201 311.8407 311.8407 311.8407 311.9269 311.9269 311.9269
   311.9514 311.9514 311.9514 313.9478 313.9478 314.0742 314.0742 314.0742
   314.1636 314.1636 314.1636 314.2972 314.2972 314.2972 314.3624 314.3624
   314.3624 314.3735 314.3735 314.7212 314.7212 314.7226 314.7226 314.7226
   314.7714 319.7284 319.7284 319.7284 321.1235 321.1235 321.1235 321.1740
   321.1740 321.3661 321.3661 321.3661 322.1486 325.9136 325.9136 326.1188
   326.1188 326.1188 327.7759 329.1132 329.1132 329.1132 329.1785 329.1785
   329.1785 329.4216 329.4216 329.4216 329.5781 329.5781 329.5781 331.2221
   331.2654 331.2654 331.2654 331.3572 331.3572 331.3572 331.3880 331.3880
   331.7765 331.7765 331.7765 331.9593 331.9593 331.9593 331.9674 331.9674
   333.4196 340.0734 340.4127 340.4127 340.4127 340.8081 340.8081 340.8081
   341.3251 342.0791 342.0791 342.0791 342.0815 342.0815 342.2187 342.2187
   342.2187 342.3284 342.3284 342.3284 342.8478 343.7865 343.7865 343.7865
   343.7960 343.7960 343.7960 343.8040 343.8420 343.8420 343.8470 343.8470
   343.8470 345.0714 345.0714 345.0714 345.0794 345.0794 345.3736 345.3736
   345.3736 345.6156 345.6156 345.6156 345.8704 349.7865 349.7865 349.7890
   349.7890 349.7890 349.8061 349.8061 349.8061 349.8735 349.8735 349.8735
   350.2498 351.7572 351.7572 351.7572 351.7716 351.7716 351.7716 351.7750
   351.7892 351.7892 351.7959 351.7959 351.7959 363.4599 363.4599 363.4599
   364.8692 364.8692 365.7339 366.0899 366.0899 366.0899 366.3171 366.3171
   366.3171 366.6564 366.6564 366.6564 366.8643 366.8643 366.8643 367.5808
   367.5808 367.6774 367.6774 367.6774 367.8009 368.5347 368.6520 368.6520
   368.6520 369.4511 369.4511 370.0171 370.0171 370.0171 371.1459 371.6489
   371.6489 371.6489 373.1292 373.1292 373.1292 373.8235 373.8235 373.8236
   374.4213 374.4213 374.4213 375.0307 375.0307 375.3630 376.7206 376.7206
   376.7206 376.8724 376.8724 378.0309 378.0309 378.0309 378.1929 378.2488
   378.2488 380.0253 380.0253 380.0253 380.2366 380.2366 380.2366 380.6052
   380.6052 380.6052 380.9147 380.9147 381.1276 381.1276 381.1276 381.2592
   381.2592 381.7819 381.7819 381.7819 382.5617 382.5617 382.5617 382.6378
   382.8072 382.8072 382.8072 383.0938 383.0938 383.0938 383.2675 383.2675
   383.2675 383.3890 383.4636 383.4636 383.4636 383.8213 384.0204 384.0204
   384.0204 384.5376 384.5376 384.5376 384.5505 385.7656 385.7656 385.8588
   385.8588 385.8588 386.1588 386.1588 386.1588 386.3722 386.3722 386.3722
   386.5243 386.5243 386.5243 386.8334 386.8334 388.5540 388.5540 388.7322
   388.7322 388.7322 389.1521 389.1749 389.1749 389.1749 389.3301 389.3301
   389.3301 389.3983 389.3983 389.3983 389.6711 389.6711 389.6711 389.7371
   389.7371 389.9653 389.9653 389.9653 390.1048 398.1626 398.1626 398.1626
   398.3966 398.6240 398.6240 398.6240 399.0560 406.6606 406.6606 406.6886
   406.6886 406.6886 406.7362 406.7362 406.7362 406.7584 406.7584 406.7584
   406.8348 406.8348 406.8354 406.8354 406.8354 412.9284 412.9284 412.9284
   413.4731 413.4731 414.4778 414.8393 414.8393 415.1258 415.1258 415.1258
   415.2286 415.2286 415.2286 415.2801 415.2801 415.2801 415.3569 415.3569
   415.3569 415.4735 415.6374 415.6374 415.6374 420.1541 420.1541 420.1659
   420.1659 420.1659 420.1926 420.3168 420.3168 420.3168 420.3399 420.3399
   420.3399 420.3963 420.3963 420.3963 420.4848 420.4848 420.4848 421.2177
   421.2177 421.2700 421.2700 421.2700 421.3626 433.8206 433.8206 433.8206
   435.1726 435.1726 435.1726 435.7180 436.5178 437.5154 437.5154 437.8334
   437.8334 437.8334 437.9171 437.9171 437.9171 438.2326 438.2326 438.2326
   438.3109 438.3109 438.3109 438.4341 438.4341 442.5022 442.5022 442.5022
   443.4241 443.4241 443.4241 443.4264 443.4264 443.4286 443.4325 443.4325
   443.4325 447.7633 447.9487 447.9487 447.9487 448.4286 448.4286 448.4286
   449.6387 449.6387 449.6778 449.6778 449.6778 449.9588 450.6191 450.6191
   450.6191 451.4401 451.4401 451.4401 451.9068 453.5362 453.5362 453.7677
   453.7677 453.7677 454.5409 454.5409 454.5409 454.6859 454.6859 454.8665
   454.8665 454.8665 455.0180 455.0180 455.0180 455.5136 456.1281 456.1281
   456.1281 456.3026 456.4738 456.4738 456.4738 458.4467 458.4467 458.5634
   458.5634 458.5634 458.6155 458.6155 458.6292 458.6292 458.6292 458.6377
   458.6377 458.6377 458.7143 458.7143 458.7143 459.6976 459.6985 459.6985
   459.7212 459.7212 459.7212 461.2102 461.3112 461.3112 461.3112 461.3956
   461.3956 461.3956 461.4715 461.4715 461.4715 461.4760 461.4760 463.9774
   463.9774 463.9774 464.0145 464.0145 464.0145 464.0229 464.0229 464.0229
   464.0235 464.0235 464.1190 470.2222 470.2222 470.2414 470.2414 470.2414
   471.2346 472.2741 472.2741 472.2741 472.4059 472.4059 472.4059 472.8755
   472.8755 472.8755 472.8912 472.8912 473.8293 475.2758 475.4320 475.4320
   475.4320 475.5080 475.5080 475.5080 475.6047 475.6047 475.6047 475.6366
   475.6366 477.1831 477.1831 477.1831 477.5897 477.5897 477.5897 477.7685
   477.7685 477.7685 478.1602 478.3763 478.3763 479.5870 479.5870 479.5870
   480.0371 480.0371 480.0371 480.0654 480.0654 480.0654 480.3523 480.3523
   480.3523 480.7118 480.7118 480.7148 480.7148 480.7148 480.8303 480.8303
   480.8303 480.9184 480.9184 480.9184 480.9900 482.7606 482.7606 482.7926
   482.7926 482.7926 482.8504 488.0864 488.0864 488.0864 488.5911 488.5911
   488.5911 488.9507 488.9507 489.0068 489.3719 490.1638 490.1638 490.1638
   490.4153 490.4153 490.4153 491.2755 491.2755 491.2755 491.6350 491.6350
   491.6350 491.9108 491.9108 492.2571 492.2571 492.2571 492.2796 492.2796
   492.5297 492.6210 492.6210 492.6210 492.8071 492.8071 492.8071 493.2782
   493.5797 493.5797 493.5797 494.0784 494.0784 494.1233 494.1233 494.1233
   494.2784 494.2784 494.2784 494.3148 494.3148 494.3148 494.5105 494.5105
   494.5105 494.6762 494.7141 495.1681 495.1681 495.1948 495.1948 495.1948

          k =-0.1667 0.1667-0.1667 (  3786 PWs)   bands (ev):

   -97.0274 -58.5152 -58.5152 -58.5152  -5.6681   3.7884   5.6209   5.6209
     8.6509  10.5857  10.5857  11.0353  14.1532  14.1532  15.6018  16.8993
    19.3381  19.3381  22.7846  26.3231  26.3231  26.6745  30.9193  30.9193
    32.2603  32.2603  33.5844  33.7722  37.6083  37.6083  37.9981  40.1042
    40.1042  41.1490  41.1490  42.6583  42.6583  42.7596  44.3511  44.3746
    45.7993  45.7993  46.2410  47.4499  47.6196  47.6196  49.0060  50.1203
    50.1203  51.4419  51.4419  51.6630  52.5861  52.5861  53.4495  53.9815
    55.4979  55.4979  57.8240  58.0409  58.0409  61.6194  64.1749  64.6819
    64.6819  66.3801  68.9447  68.9447  71.5837  72.8163  72.8163  74.6825
    74.6825  76.2372  76.9338  77.5936  77.5936  78.2887  79.0518  79.0518
    80.5060  81.0071  81.0071  81.7751  82.8252  82.8252  83.4827  83.5297
    83.5297  85.1053  85.2329  85.2329  86.9843  87.1766  87.1766  88.2637
    88.2637  88.4225  89.4751  89.4845  89.5875  89.5875  92.5256  92.5256
    93.4382  93.4382  93.4626  94.4335  94.5171  94.5171  95.2995  95.3001
    95.3001  97.5780  97.5780  97.6757  99.1446  99.1446 100.2995 100.7428
   100.7803 101.4838 101.4838 102.4132 102.4132 102.5813 104.8426 104.8426
   105.8099 107.8979 108.6011 108.6011 109.6903 109.6903 110.2080 110.5209
   110.8609 110.8609 112.6603 112.6603 112.8654 112.9380 114.7173 114.7173
   115.2028 115.2521 116.5198 116.5198 116.8758 117.2130 117.2130 118.4113
   118.6536 118.6536 120.5169 120.5169 123.2010 123.9760 124.9235 124.9235
   125.9195 125.9195 126.8278 127.6456 127.6456 129.2721 129.2721 129.4948
   130.3834 130.9872 130.9872 132.3183 132.3183 132.9611 135.5352 136.5190
   137.0103 137.0103 137.0590 138.0985 138.0985 139.1763 140.9095 142.0310
   142.0310 143.4353 143.4353 145.0794 145.0794 145.3606 145.8110 146.3933
   146.3933 146.6755 146.8380 148.1128 148.1128 149.9830 150.2677 150.4057
   150.4057 151.4971 151.4971 152.5583 152.5583 152.6100 153.0985 153.0985
   153.9964 154.2758 154.2758 155.1700 155.1700 155.6271 155.7227 155.7227
   156.2972 156.8009 157.5242 157.5242 159.2927 159.5518 159.5518 159.7945
   160.2307 160.2307 160.6825 160.8809 161.7774 161.7774 162.3398 162.3398
   164.0319 164.0319 164.0474 164.1499 165.0253 165.0885 165.0885 165.7253
   165.7253 166.9906 167.7839 167.7839 168.5699 168.5699 168.8129 169.1499
   169.6158 169.6158 170.0849 170.2580 170.2580 170.6101 171.1238 171.5969
   171.5969 172.7161 172.7161 172.8831 173.5484 173.5484 174.1843 174.3332
   174.3332 174.7517 175.5361 175.5361 176.2670 177.2118 177.2118 177.3995
   177.8964 177.8964 178.1426 181.0190 181.1378 181.1378 182.3333 182.3333
   183.4528 183.4528 183.8477 184.6951 185.9041 185.9041 187.1336 187.1336
   187.9603 188.5444 188.8822 188.8822 188.9003 189.7047 189.7047 191.5687
   191.5687 191.7867 192.3612 192.5902 192.5902 192.9776 192.9776 193.0838
   194.8037 194.9104 194.9104 195.9840 196.3025 196.3025 196.6998 198.6301
   198.6301 199.5483 200.7370 200.7370 201.1352 201.3220 202.4618 202.6337
   202.6337 204.1968 204.5603 204.5603 206.6390 206.6390 207.8332 208.1690
   208.1690 208.9952 209.3785 209.3785 210.4678 210.8882 210.8882 211.4232
   212.1881 212.1881 214.2750 214.2750 214.6355 215.2881 215.2881 216.2510
   217.5271 217.7155 217.7155 218.8795 218.8795 220.3382 220.4663 220.4840
   220.4840 221.5455 221.5455 221.8558 221.9444 222.2970 222.2970 223.1327
   223.1327 223.5553 224.0974 224.6787 224.8341 224.8341 225.3629 225.3629
   225.6748 225.6748 226.6702 227.4446 227.4865 227.7700 227.7700 230.4215
   231.5539 231.5539 234.4390 234.4390 235.1017 235.5343 235.5343 235.7313
   235.9678 235.9678 236.4790 236.6530 236.6530 236.8560 236.8560 236.9019
   237.1598 237.6695 237.6695 238.1709 238.1709 238.7360 239.3669 240.5829
   240.5829 241.2418 241.4159 241.4159 241.9675 242.2239 242.2611 242.2611
   242.3536 242.7949 242.7949 243.1251 245.0359 245.0359 245.0587 245.5701
   245.5701 245.7440 246.1553 246.1553 246.8467 246.9444 246.9444 248.2092
   248.3171 249.0307 249.0307 249.3535 249.3535 250.3846 250.6609 250.6609
   251.3677 252.4475 252.4475 252.7206 252.7206 253.2109 253.4413 253.4413
   253.4604 254.5704 254.5704 254.6547 254.9486 254.9600 254.9600 255.1547
   255.1547 255.2309 255.5012 255.5012 255.8454 256.5687 256.5687 256.8386
   257.0078 257.5303 257.5303 258.1545 258.3007 258.3007 259.7181 259.7181
   259.8612 261.4357 261.4357 261.7798 262.5159 262.7581 262.7581 262.9119
   263.0494 263.0494 263.3472 264.7057 264.7057 264.8053 264.9171 264.9171
   265.8241 267.5283 267.5283 267.5485 267.7622 267.7622 267.9427 267.9427
   268.0464 269.0045 269.2118 269.2118 269.4902 270.0220 270.0220 271.8013
   271.8013 272.0100 274.6332 274.9011 274.9011 275.1715 275.1715 275.4337
   276.4581 276.4581 276.7773 276.8577 277.1265 277.2348 277.2348 278.0882
   278.0882 278.3561 278.5378 278.5378 279.0642 279.7009 281.3589 281.3589
   281.5089 281.7254 281.7254 283.7107 283.7107 284.6874 284.7774 284.8453
   284.8453 285.1078 285.1078 286.3250 286.3250 286.3996 287.7358 288.1784
   289.0251 289.0251 289.4572 289.4588 289.4588 291.6339 292.1786 292.7212
   292.7212 293.1095 293.1095 293.8575 293.8575 296.3213 296.3213 297.5806
   297.9042 297.9042 298.1217 298.2746 298.2746 298.6496 301.7516 301.7516
   301.8414 302.6356 302.6356 302.7775 303.3088 303.5980 303.5980 304.2046
   304.2046 304.2998 304.6382 304.6845 304.6845 305.0325 305.0325 305.1189
   307.1120 307.1120 308.0548 309.9023 309.9023 310.3777 310.8631 310.8631
   311.5440 311.8836 311.8836 312.5768 312.7098 313.2870 313.2870 313.7638
   313.9613 313.9613 316.3437 316.3981 316.3981 316.8016 316.8310 316.8310
   316.9154 317.1720 317.1720 318.0963 319.0183 320.7086 320.7086 321.4011
   321.8164 321.8164 321.8362 321.8956 321.8956 322.1524 322.1524 322.2604
   322.7528 322.7860 322.7860 324.0479 324.0490 324.0490 324.4116 324.4116
   324.4469 324.5968 324.5968 324.6210 324.7286 324.7286 324.8463 325.8918
   326.7150 326.7150 327.9622 327.9622 328.1675 328.6975 329.1565 329.1565
   329.4313 329.4313 329.5398 329.7089 330.1056 330.1056 331.1711 331.1711
   331.4469 331.4597 333.4472 333.5201 333.5201 334.8341 334.8618 334.8618
   336.0338 336.0338 336.5560 336.5867 336.5867 338.9881 339.0134 339.0134
   340.8419 340.8419 340.9591 341.0256 341.0459 341.0459 341.4732 341.4732
   341.8250 342.8811 342.8811 342.9245 343.6707 343.7595 343.7595 344.0667
   344.0667 344.1827 344.8242 346.3968 346.3968 346.8652 347.3064 347.3064
   347.3499 347.3499 347.3863 348.2725 348.2725 348.3123 348.4832 348.4832
   348.7910 348.7910 348.8752 348.9500 349.1626 349.1626 349.2030 349.3398
   349.4490 349.4490 349.5489 350.8735 350.8735 351.1360 351.1754 351.1755
   354.3544 354.3544 354.3920 354.8214 354.8214 354.8876 357.2227 357.2227
   357.2269 357.6949 357.6949 359.5559 359.6521 359.6521 360.1318 360.1318
   360.1944 360.6590 360.8493 361.1895 361.3186 361.3186 361.8427 361.8953
   361.8953 361.9240 361.9240 362.8203 363.2504 363.5067 363.5067 364.2528
   364.2528 364.2949 364.6072 365.1095 365.1095 365.4258 365.4258 365.5508
   366.8458 366.8458 367.1531 367.1725 367.1725 367.8643 368.1521 368.1521
   368.7381 369.2100 369.2100 369.7513 369.8079 369.8079 369.8893 371.1788
   371.2525 371.2525 371.5312 371.6708 371.6708 372.4991 372.4991 372.6364
   372.6364 372.6543 372.9294 373.0930 373.1723 373.1723 373.2885 373.2885
   373.6962 373.9560 374.2148 374.2148 374.3894 374.7869 374.7869 374.9323
   378.6126 378.6126 378.6821 378.8810 378.8810 379.1891 380.5051 380.5051
   380.6316 380.8331 380.8331 380.9110 381.6586 381.6586 381.7186 382.3472
   382.3472 383.1728 383.1728 384.2082 384.2904 384.7072 384.7072 385.0131
   385.0945 385.0945 386.1917 386.1917 386.4916 386.5918 386.7147 386.7147
   388.2187 388.2187 388.3209 389.1896 389.5015 389.5015 390.7108 390.7351
   390.7351 391.2784 391.4695 391.4695 391.7042 391.7042 391.9273 392.3297
   392.4628 392.4628 393.5252 394.5443 394.5830 394.5830 394.8995 394.8995
   395.0520 395.6311 395.6311 396.0938 396.3454 396.3454 396.8407 397.1052
   397.1052 398.0951 398.0951 398.1746 398.1768 398.1768 398.1777 398.8785
   399.2711 399.2711 399.7687 399.8046 399.8046 399.9572 400.0236 400.0236
   400.8337 400.8712 400.8712 401.1952 401.1952 401.4057 402.4767 402.4767
   402.6533 403.6071 403.6071 403.7459 404.5314 404.5314 405.8692 406.1889
   406.1889 406.3742 406.5203 407.6869 407.7132 407.7132 408.4117 408.4117
   408.4429 408.5246 408.5246 408.5412 408.8327 408.8327 410.8926 411.7026
   411.7026 412.3026 413.1015 413.1015 413.1219 413.5097 413.5097 413.5233
   413.7917 413.7917 418.2827 418.3022 418.3022 420.0193 421.3316 421.3316
   422.5300 422.5300 422.8306 423.4686 423.6966 423.6966 424.3712 424.8442
   426.0265 426.0265 426.1283 427.1294 427.1294 427.6229 427.8971 427.8971
   427.9007 428.8964 428.8964 428.9494 429.0997 429.0997 429.4863 430.9025
   430.9025 431.9270 431.9270 433.2218 433.4917 433.4917 435.1476 435.2490
   435.2490 435.5160 435.5160 436.0771 436.1644 436.1644 436.4383 436.4383
   436.4825 436.7167 436.9813 436.9813 437.5390 439.1674 439.1674 439.2829
   439.4400 439.5216 439.5216 440.9807 440.9807 441.1404 441.1404 441.2292
   441.3292 442.4348 442.6961 442.7314 442.7314 443.0429 443.0429 443.6781
   443.6781 443.9752 444.0378 444.1358 444.1358 444.4226 444.4226 444.5244
   447.5699 447.5699 447.6525 448.1356 448.1356 448.4542 448.9494 448.9494
   448.9700 449.3581 449.3900 449.3900 450.1913 450.1913 450.2491 452.1885
   452.1885 452.2162 452.2832 452.3793 452.3793 452.7949 452.7949 452.8945
   453.7113 453.7113 454.8771 454.9589 455.7520 455.7520 456.4172 456.4172
   456.5658 457.5902 457.5902 457.7790 459.6692 459.6692 459.7001 460.0397
   460.5694 460.5694 460.5887 460.9153 461.1043 461.1043 461.1222 461.3070
   461.3070 462.5641 462.5641 462.8586 462.8801 462.8801 463.4168 464.4846
   464.4846 464.7568 465.0747 465.0747 465.3538 465.3603 465.3748 465.3748
   465.6664 465.6664 465.6824 466.6963 466.6963 466.8282 466.9136 466.9136
   468.0792 468.0792 468.2788 468.8190 468.8190 468.8415 469.2411 469.4182
   469.4182 469.8489 469.9462 469.9462 470.1755 470.1755 470.3885 470.3885
   470.3918 470.4452 470.6686 470.6686 470.7615 470.8539 471.0459 471.1890
   471.1890 472.0847 472.3908 472.3908 472.6048 472.6048 472.6425 473.5611
   473.5611 473.9918 474.8227 474.8227 475.0539 475.7758 475.9101 476.1015
   476.1015 476.3126 476.3126 476.3897 476.6232 476.6232 476.6339 477.2511
   477.2511 477.4116 477.5196 477.5196 477.5856 477.8637 477.8637 477.8647
   478.7167 478.7167 480.4126 480.5860 480.5860 480.7615 481.4640 481.4640
   481.5126 483.3605 483.4705 483.4705 483.8866 483.8866 484.0417 484.1996
   484.1996 484.2845 484.8403 484.8635 484.8635 485.0224 485.0224 486.0787
   486.1087 486.1087 486.2340 486.2340 486.3968 486.3970 486.4327 486.4327
   486.6451 486.9476 486.9476 487.6511 487.6511 487.8930 489.7535 489.8621
   489.8621 490.0736 490.0736 490.1921 490.7555 490.7943 490.7943 490.9093
   490.9093 490.9573 492.3759 492.4539 492.4539 493.3419 493.4881 493.4964
   493.4964 495.7018 495.7018 495.7992 495.7992 496.3398 496.8044 496.8044
   496.8608 497.4506 497.4506 497.7849 497.9486 498.1950 498.4282 498.4282
   498.7029 498.7029 498.8766 498.8766 499.0013 499.4838 499.4838 499.5674

          k =-0.3333 0.3333-0.3333 (  3801 PWs)   bands (ev):

   -97.0274 -58.5154 -58.5152 -58.5152  -4.9973   1.4121   5.2217   5.2217
     8.2094  10.7352  10.7352  13.3373  14.9550  14.9550  15.2213  19.7773
    21.2786  21.2786  23.0424  23.5900  23.5900  26.9110  31.1375  31.1375
    31.1994  32.7305  32.7305  34.1480  34.1480  34.3335  36.2893  38.8497
    38.8497  39.3271  39.4017  39.4017  41.3446  42.2975  45.0458  45.0458
    45.4776  45.4776  45.8724  47.4801  47.5371  47.5371  49.9067  52.9313
    52.9313  54.3020  54.3020  54.9233  56.6516  56.6516  57.4203  59.1457
    60.1306  60.1306  61.0009  61.2671  61.2671  62.2861  62.8968  62.8968
    64.0070  64.0070  64.8085  67.0512  67.0512  67.5815  70.3089  70.3089
    72.0469  72.5024  73.0381  74.8734  74.8734  75.4399  76.4485  76.4485
    77.1849  80.3303  81.1935  81.1935  82.9376  82.9376  83.1979  83.1979
    84.3031  84.4317  84.6541  84.6541  85.6081  85.6081  85.6561  88.1457
    88.1457  88.5016  89.4465  89.4965  89.4965  90.1425  93.8114  93.8114
    94.5016  94.7974  94.7974  95.8487  96.3608  96.8590  96.8590  97.7138
    97.7138  98.4004  98.4446  99.1925  99.1925 100.4542 101.2156 101.2156
   103.0726 103.0726 103.2402 103.7378 105.3513 105.3513 105.7068 106.7421
   106.7421 107.9157 107.9157 108.3045 108.7601 108.9051 108.9051 109.8227
   110.6594 110.8526 110.8526 112.7648 112.7648 113.0723 113.4488 113.4488
   113.8995 115.1000 115.7672 115.7672 116.7719 116.7719 118.9272 118.9272
   120.1974 121.2592 122.1952 122.1952 123.6626 125.7395 125.7395 128.4635
   129.5548 130.0977 130.0977 130.2601 130.8389 130.8389 132.0905 132.0905
   132.9258 132.9258 133.1744 133.6708 134.7478 134.7478 135.1359 135.1359
   135.4092 135.5131 137.3495 137.3495 137.9142 138.1857 138.1857 138.7476
   138.8363 138.8363 140.0998 140.2209 140.2209 140.3456 141.3722 143.2286
   143.2286 144.0063 144.0063 144.2978 145.7328 145.8923 145.8923 146.9418
   146.9418 147.3234 148.2446 148.2446 148.9425 150.4442 151.5539 151.5539
   151.7739 153.4509 153.4509 153.7920 154.9870 154.9870 155.8648 156.4155
   156.8830 156.8830 157.2533 157.3364 157.3365 158.9882 158.9882 159.1937
   159.5650 159.5650 159.7736 160.7263 160.7263 161.3405 162.0058 162.0058
   162.2819 163.4299 163.4299 164.7116 165.4359 165.4359 165.5448 165.5448
   165.7509 166.9770 167.4577 167.4577 168.7055 169.4688 170.0291 170.0291
   170.7486 170.7486 171.3976 171.6955 171.6955 172.1636 172.7865 172.7865
   173.1888 173.1888 173.2511 173.9652 173.9955 173.9955 176.8468 176.8468
   177.5320 178.6527 179.2146 179.2146 179.7480 180.8423 180.8423 181.7511
   181.7865 181.7865 181.8084 182.0767 184.0506 184.0506 184.3231 184.7110
   184.7110 185.4829 185.4829 185.7336 187.3779 187.3779 187.7592 188.2051
   188.2051 189.4526 189.8042 190.1117 190.1117 190.2324 191.1500 191.1500
   191.4352 192.3482 192.3482 192.9092 194.9330 194.9992 194.9992 196.2048
   196.2048 196.4019 197.7472 197.7472 198.1032 198.1032 198.2803 201.9611
   201.9611 203.2583 203.2583 203.5330 203.8199 204.6873 204.9026 204.9026
   205.3567 205.3567 206.2503 206.4082 206.4082 207.2685 207.2685 207.5564
   207.8678 208.1483 208.8010 209.0939 209.0939 209.4945 209.6258 209.6258
   210.5916 210.5916 210.7449 211.2361 211.2361 212.0155 213.4309 213.4309
   213.4679 214.0801 214.0801 215.1689 215.1689 215.6633 216.8283 217.8280
   217.8280 219.0204 219.0204 219.3112 219.6645 220.2644 220.2644 220.8556
   220.8556 221.5907 221.7473 221.7473 222.0143 222.3707 222.9158 222.9158
   223.2165 224.9732 225.5402 225.5402 226.6610 226.6610 227.2311 227.3881
   228.1351 228.1351 230.4224 230.4224 230.6292 231.5187 231.6666 231.8653
   231.8653 232.4065 232.4065 234.7794 234.9715 234.9715 235.1363 235.1363
   236.4613 236.4613 236.6100 236.9221 236.9221 236.9510 238.7331 238.7331
   239.1472 239.2593 239.2593 239.2779 241.1375 241.4707 241.4707 242.1947
   242.1947 242.4800 243.3171 243.3171 243.5885 243.8469 243.9197 243.9197
   245.0862 245.0862 245.2927 245.5346 245.5346 245.8424 247.7347 248.3079
   248.3079 248.8322 249.2239 249.2239 249.7302 250.0624 250.0624 251.1248
   251.9057 251.9057 252.4833 252.4833 252.5639 254.3836 254.5697 254.5697
   255.2911 255.2911 255.5847 255.7620 255.7948 255.7948 255.9349 256.0174
   257.1110 257.1110 257.3412 257.7902 257.7902 258.0341 258.5275 258.5275
   258.5972 259.6820 259.6820 260.1008 260.5406 260.5406 260.9688 261.0655
   261.0655 261.7915 262.5750 262.5750 264.1896 264.3841 264.3841 264.8210
   264.8210 264.9651 265.8342 265.8342 265.8915 266.6756 266.7661 266.7661
   266.7786 268.0655 268.0655 268.8907 270.0175 270.0175 270.1794 272.3736
   272.7908 272.7908 273.0176 273.0176 274.2700 274.2700 274.6009 275.6558
   275.6558 275.8601 277.0137 277.0137 277.5218 278.1735 278.2485 278.2485
   279.0075 279.0075 281.1760 281.3336 281.5335 281.5335 281.9301 282.2291
   282.2291 282.2412 282.4791 282.4791 282.6182 282.6764 282.8570 282.8570
   284.1800 284.1800 284.6999 284.7582 284.9579 284.9579 285.7136 285.7136
   285.7711 286.5177 286.5177 286.7707 288.2719 288.2719 290.2062 290.2062
   290.4076 290.9363 290.9363 291.2658 292.2498 292.8954 292.8954 293.1565
   293.1565 293.3739 294.5478 294.5865 294.5865 295.4889 295.4889 296.3110
   296.3574 296.3574 296.6689 296.7429 296.7429 296.7892 297.8564 298.5991
   298.8076 298.8076 299.6880 299.6948 299.7039 299.7039 300.6303 300.6303
   301.4832 301.9976 301.9976 302.5677 302.8777 302.8777 304.7159 304.7159
   304.9056 305.4767 305.4967 305.4967 306.3878 306.3878 306.8218 307.3627
   307.3627 307.5774 307.7222 307.7479 307.7479 307.7600 309.7623 310.1838
   310.1838 310.9550 310.9550 311.7555 312.0750 312.0750 312.2446 313.2640
   313.2640 313.8847 313.8847 314.5492 317.2825 317.2825 317.4795 318.5944
   318.5944 318.8373 319.4325 319.4325 319.7504 321.1661 321.1661 321.6900
   322.1282 322.1282 322.1830 323.3256 323.3433 323.3433 323.7661 323.7661
   324.1408 324.3541 326.9198 326.9198 327.0867 327.7049 328.0691 328.0691
   328.3364 328.3364 329.8506 329.8506 330.5891 331.1389 331.1927 331.1927
   331.4728 331.4728 331.6696 331.7658 331.9124 331.9124 332.2325 332.2325
   332.3632 333.4763 333.6002 333.6002 335.2139 335.2139 335.2760 336.2679
   336.2679 337.4103 338.5801 339.1107 339.7068 339.7068 339.8925 339.8925
   340.2206 340.2804 340.2804 340.3880 341.3429 341.3429 342.2961 342.3476
   342.3476 342.8179 342.9087 342.9087 343.2238 343.2238 343.3888 343.4400
   345.3748 345.3748 345.5140 345.7492 345.7492 346.0338 346.0338 346.0674
   346.5308 346.5308 346.6395 347.1465 347.2012 347.2012 348.0000 348.0000
   348.9553 350.0475 350.1538 350.1538 350.3026 350.3026 350.3472 350.6686
   350.7981 350.7981 350.8487 351.2673 351.3501 351.3501 351.3708 351.6397
   352.1720 352.1720 353.7032 353.7032 354.3001 354.9476 354.9476 355.4874
   355.6936 355.7077 355.7077 355.9348 355.9348 356.1940 356.5678 356.5678
   357.1649 357.5745 357.6442 357.6442 357.9908 358.1919 358.1919 358.7422
   358.7422 358.8188 358.8188 359.5161 359.5180 359.5180 359.7844 359.7844
   359.8740 360.3714 360.3714 360.4360 360.7242 360.7242 360.7304 361.3771
   361.3771 361.4223 362.9942 362.9942 363.3018 363.8199 363.9355 363.9355
   367.8234 367.8234 367.8542 368.9183 368.9183 369.2714 369.2781 369.2781
   370.0117 370.9265 370.9265 371.1202 373.5495 373.5495 373.5500 374.0014
   374.0014 374.1182 375.8904 375.9157 375.9157 378.9310 378.9310 379.2009
   379.8835 379.9058 379.9058 380.1376 380.1376 380.2126 380.6408 380.6408
   380.7827 381.1811 381.3115 381.3115 381.3627 381.6082 381.6082 381.6705
   381.7963 381.7963 381.8940 381.8940 381.9965 383.2924 383.2924 383.3556
   384.0252 384.0252 384.1185 384.6976 384.7677 384.7677 385.0199 385.0199
   385.1188 386.2605 386.2605 386.6966 387.3108 388.1899 388.1899 388.3480
   388.5372 388.8496 388.8496 388.9866 390.3945 390.3945 392.8571 392.8571
   392.8686 393.4304 393.4304 394.0470 394.2259 394.6498 394.6498 395.0411
   395.0411 395.3465 395.3465 395.4646 395.7483 396.7480 396.7480 396.8143
   396.9900 397.8931 397.8931 398.0231 398.4566 398.4566 398.5196 400.6190
   400.6190 401.2234 401.2927 401.2927 401.8781 401.9181 401.9181 402.6620
   403.3423 403.3423 403.5430 404.7557 404.7557 405.3791 405.3791 405.5070
   405.6914 406.0387 406.0387 406.1558 406.1713 406.1713 406.6136 406.6136
   406.6458 406.8203 407.3286 407.3286 407.4059 407.4059 407.7485 408.3522
   408.4324 408.4324 410.4815 410.4815 411.0038 411.0623 411.0623 411.0814
   412.9363 412.9363 413.0614 413.8317 413.8317 413.8996 414.2784 414.2784
   414.4474 414.7542 414.7542 414.8239 415.2708 415.5928 415.5928 418.1116
   419.1175 419.1525 419.1525 419.3219 419.3219 419.7013 419.8333 419.9745
   419.9745 420.9530 420.9530 420.9843 421.6585 421.6585 422.3734 422.3966
   422.3966 425.6573 425.6573 425.7700 426.6291 426.6291 426.7068 427.6754
   427.6754 427.9225 427.9225 428.7908 429.0663 429.3370 429.9181 429.9181
   430.0450 430.6761 430.6761 431.0940 431.2551 431.2551 431.4676 431.4676
   431.5315 431.6223 432.0393 432.0393 432.1325 432.3302 432.3302 435.1579
   435.1579 435.9238 436.4403 436.4403 436.8041 437.4318 437.4976 437.4976
   437.5530 437.8823 437.8823 437.9693 438.0432 438.0432 438.5756 438.7315
   438.7315 439.0673 439.0673 439.0881 439.6022 440.3780 440.3950 440.3950
   440.6592 440.6592 440.7136 442.3114 442.3114 443.0210 443.4802 443.4802
   443.5080 443.6800 443.6800 443.7205 443.8953 443.8953 444.5545 445.2178
   445.2178 445.4599 447.5175 447.5175 447.8978 448.2685 448.2685 448.4643
   448.8443 448.9148 448.9148 449.1076 449.3014 449.3014 449.5969 450.1936
   450.6130 450.6130 451.2201 451.2201 451.8941 453.1320 453.3437 453.3437
   453.6637 453.6637 453.8357 454.0274 454.0274 454.0282 454.1829 454.1829
   454.2737 454.4327 454.4327 455.1352 455.8199 456.2297 456.2297 456.5431
   456.5431 457.0495 457.9070 457.9070 457.9140 458.1630 458.1630 459.8893
   459.8893 460.0576 460.3755 460.3755 460.4136 461.0052 461.0326 461.0326
   461.3499 461.3499 461.6321 462.5067 462.5933 462.5933 464.6579 464.6579
   464.8810 465.4182 465.4410 465.4410 465.6436 465.6436 465.8889 465.9465
   466.0577 466.0577 466.3377 466.4067 466.4067 466.6793 466.8380 466.8380
   467.4601 467.4642 467.4696 467.4696 469.4678 469.5329 469.5329 469.7052
   469.7052 469.7774 470.2350 470.2350 475.8529 475.8529 476.1320 476.4253
   476.4253 476.6994 477.0823 477.0823 477.0857 477.3692 477.4818 477.4818
   477.5779 477.5779 477.7302 477.7302 477.8104 478.1396 478.4922 478.5160
   478.5160 478.8922 478.9939 478.9939 479.2712 480.4878 480.5454 480.5454
   481.1712 481.1712 481.2245 481.2271 481.2271 481.2713 481.8667 481.8667
   483.8683 484.0582 484.0582 484.6001 484.6001 484.8635 485.0580 485.0580
   486.0461 486.1417 486.4737 486.4737 486.4904 486.6323 486.6323 486.7914
   487.1836 487.1949 487.1949 487.2748 487.2782 487.2782 488.2734 488.2734
   488.6698 488.7750 488.7750 490.7636 490.7636 490.7877 491.3005 491.3005
   491.5259 491.5259 491.5324 491.6019 491.6625 491.6625 491.8163 491.8861
   491.8861 491.9075 493.9130 494.1459 494.1459 494.7384 494.7384 494.9193
   495.0781 495.0781 495.2844 499.3546 499.3546 499.6723 501.2344 501.6145
   501.6145 501.8099 502.7885 502.7885 503.0298 503.0298 503.0886 503.2012
   503.2012 503.2956 503.8462 503.8462 503.8721 503.8885 503.9607 503.9607

          k = 0.5000-0.5000 0.5000 (  3798 PWs)   bands (ev):

   -97.0274 -58.5154 -58.5152 -58.5152  -4.5314   0.3448   5.0607   5.0607
     7.9851  10.5595  10.5595  13.6191  16.9983  17.4746  17.4746  18.0084
    18.0084  18.8794  25.5584  26.0346  27.5446  27.5446  28.1023  28.1023
    31.3839  32.2591  32.2591  32.7328  33.4137  33.4137  34.8681  38.0590
    38.0590  38.3006  38.3006  38.8925  40.0526  40.9169  45.4743  45.4743
    45.6561  46.5490  46.5490  47.5989  50.9481  50.9481  53.7464  53.7464
    53.7860  55.1972  55.6212  55.6212  56.8981  56.8981  56.9025  58.5920
    58.5920  61.1459  61.5929  61.5929  62.9685  62.9685  63.2740  64.7991
    64.7991  65.2869  65.9216  66.1776  68.1579  68.1579  68.5282  68.9636
    68.9636  70.2480  71.6899  72.5703  72.5703  73.9220  73.9220  74.8610
    76.2554  76.2554  76.6974  81.4764  81.4764  82.5478  83.3838  83.8696
    83.8696  84.5536  85.0266  85.0266  85.8942  88.1639  88.1639  89.1926
    89.9161  89.9161  90.2541  90.2541  90.2665  90.8708  92.1131  92.9115
    92.9506  92.9506  92.9680  92.9680  94.2086  96.0062  96.0062  97.7591
    99.7080  99.7080 100.8809 101.6834 101.6834 102.0383 102.0383 102.4148
   102.9049 103.3747 104.0774 104.0774 104.1680 104.4753 104.4753 105.8946
   105.9253 105.9253 106.9251 106.9251 107.5716 111.9891 111.9891 112.0258
   112.3683 112.3683 112.5444 113.5601 113.5601 114.3770 114.3770 114.4140
   117.1856 117.1856 118.2378 119.0515 119.0515 119.8019 119.8019 121.0259
   121.8271 121.8338 121.8421 124.1913 124.1913 124.6831 124.6831 125.1076
   125.1076 125.9954 126.9969 126.9969 127.5673 127.5673 127.6712 128.5393
   129.3632 130.3945 130.3945 133.2300 135.0862 135.8671 135.8671 136.8856
   136.9754 136.9754 137.7040 137.7040 137.9090 138.3255 138.4625 139.4905
   139.4905 141.2024 141.8669 141.8669 142.5414 142.5414 143.3356 143.5541
   143.5541 144.7975 146.2396 146.2396 146.4258 146.7295 146.7666 146.7666
   147.1432 147.1432 148.1307 148.1307 148.8690 149.0969 149.0969 149.2369
   150.2345 150.2345 151.8355 152.3816 152.3816 152.9910 153.0743 153.0743
   154.0756 154.7995 155.4494 155.4494 156.1504 156.8189 156.8189 157.1495
   157.1495 158.4078 158.4078 158.8891 159.8655 159.8655 159.9708 163.0511
   163.5816 163.8727 163.8727 165.1641 166.5571 166.6859 166.6859 167.4525
   167.4844 167.4844 167.6437 167.8166 167.8166 168.6400 168.7283 168.7283
   170.2934 170.2934 170.6456 170.6456 170.7291 171.4423 171.4874 174.2684
   174.2684 175.0504 175.8116 175.8116 177.2168 177.5147 177.9211 177.9211
   178.2844 178.2844 178.8990 178.8990 179.1057 179.1057 179.2355 179.4198
   179.9295 182.3297 182.3297 184.5556 184.5556 184.9596 187.3061 187.3061
   189.1778 189.7471 189.7471 189.9624 191.2175 191.2175 191.7660 191.7660
   191.8994 192.5452 193.4462 193.4462 193.4720 193.7658 193.7658 194.0753
   194.4202 194.4337 195.8071 195.8388 195.8388 196.7532 196.8079 196.8079
   198.0422 198.0422 198.3007 198.3007 199.8338 199.8338 200.1408 200.1699
   200.1699 200.4016 200.8186 200.8186 201.5315 201.7774 201.7774 201.9647
   203.7551 203.7551 203.7961 203.7961 204.2258 204.4819 204.8626 204.8626
   204.9245 204.9245 205.6785 205.8725 205.8766 207.5790 208.5135 208.5135
   210.9599 211.1387 211.1387 211.3123 213.8075 213.8075 214.4662 214.4662
   214.6015 215.0304 215.0304 215.3529 215.3529 215.8379 217.9696 217.9696
   217.9834 218.6697 218.6697 219.2101 219.2695 219.2695 219.3599 219.6865
   219.6865 219.9622 220.9048 220.9048 221.1940 221.7178 221.7178 221.9459
   223.9666 223.9666 224.0624 224.0624 224.1112 224.2822 224.9971 224.9971
   226.0510 227.8422 228.0709 228.0709 229.0794 229.4823 229.4823 230.0134
   230.1633 230.1633 230.8826 230.8826 231.3503 231.3503 231.4625 231.8465
   235.3008 235.7119 235.7119 236.2968 236.5839 236.5839 236.9291 237.9724
   238.0500 238.4835 238.4835 239.3767 239.3767 240.0157 240.4736 240.9945
   240.9945 241.2945 241.2945 241.6110 243.9569 243.9569 244.2792 244.2792
   246.0682 246.5850 246.5850 247.7410 247.9825 247.9825 249.1498 249.5682
   249.5682 249.8055 250.0136 250.1732 250.1732 250.7466 250.8317 250.8317
   250.9113 251.3107 251.3107 251.3640 253.5134 253.5134 253.5430 253.5430
   255.8407 256.1555 256.1555 257.1208 257.1208 257.1557 257.4279 257.4279
   257.5571 257.7757 257.7757 258.1147 258.9438 258.9438 259.6859 259.6869
   259.6869 259.8376 260.3470 262.8461 262.8461 263.0205 263.2287 263.2287
   263.2819 263.2819 263.7317 263.7607 263.7607 263.8516 266.4443 267.1601
   267.1601 267.8879 267.8879 268.1833 268.2481 268.2481 268.5305 268.5305
   269.3258 269.4230 271.6648 272.0677 272.0677 272.6890 272.6890 272.9022
   273.7953 273.8019 274.0812 274.0812 274.2572 274.2572 274.4356 274.7429
   276.5024 276.5024 276.5595 276.5595 277.2973 277.3537 278.0756 278.0756
   278.1339 278.1339 278.6795 278.9476 281.1000 281.1000 282.3369 282.3369
   282.3413 282.9674 284.1338 284.2495 284.2495 284.3695 284.3695 284.4282
   287.2809 287.2809 287.2841 287.2841 287.3620 287.4151 288.7270 288.7830
   288.7830 288.9484 288.9484 289.0017 289.2540 289.2540 289.3325 289.3333
   289.3333 289.4683 290.4335 290.8520 291.1505 291.1505 291.1981 291.1981
   291.5254 291.7530 291.7530 291.9132 291.9132 292.2284 293.8638 293.8638
   294.3300 294.3300 295.0384 295.0771 295.1324 295.4658 295.7441 295.7441
   295.9545 295.9545 297.3635 297.3635 297.4436 297.4436 297.6404 297.7273
   301.4185 301.4185 301.7526 301.9210 301.9210 301.9388 302.0306 303.5041
   305.6763 305.6763 305.9428 305.9428 306.2081 306.3222 308.1692 308.1692
   308.2160 308.2160 312.2418 312.2418 313.7671 313.7671 313.8212 314.0426
   314.1484 314.1484 314.1904 314.1904 314.5418 314.8506 314.8506 314.8800
   314.8800 314.9715 314.9798 315.0031 316.0158 316.0158 316.0274 316.0274
   317.5658 317.5737 317.9807 319.3380 319.5094 319.5094 321.1939 321.1939
   321.6756 321.7274 321.8246 321.8246 321.9935 321.9935 322.1148 322.6276
   322.6276 323.2573 323.2573 323.6127 326.4646 326.4646 326.5003 326.5003
   326.7869 326.8807 328.1927 328.1927 328.4555 328.5913 328.5913 328.6272
   328.7559 330.3328 331.4930 331.7752 331.7752 332.0409 332.0409 332.1661
   333.5290 333.9625 333.9625 334.6638 334.6638 335.2494 335.7858 335.7858
   335.9139 335.9139 335.9758 335.9758 336.5271 336.5271 336.6863 337.7795
   338.0674 338.4873 339.2246 339.2246 339.5069 339.5069 340.2237 340.2237
   340.2871 340.3559 340.4394 340.4394 342.6354 342.7162 342.7162 342.7499
   342.7499 342.9364 343.6642 343.6642 343.7993 343.7993 344.1302 344.5902
   344.7639 344.8353 345.0225 345.0225 345.0710 345.0710 346.9026 346.9026
   346.9663 346.9663 346.9851 347.1021 349.0901 349.0901 349.3646 349.5167
   349.5167 349.6725 352.1057 352.2484 352.2484 352.6271 352.6271 352.9308
   353.5324 353.8305 353.8305 354.2160 354.2160 354.3642 356.1184 356.5238
   356.5238 356.6232 356.8695 356.8695 357.0494 357.5467 357.5467 357.6746
   357.6746 357.7328 357.7405 357.7965 357.7965 357.8650 357.8650 358.1665
   362.1783 362.1783 362.5540 362.5853 362.5853 362.5984 363.3786 363.3786
   363.3978 363.3978 363.4792 363.4845 363.7610 364.1878 364.2373 364.2373
   364.4476 364.4476 364.4885 364.5872 366.9950 366.9950 367.0600 367.0600
   368.5086 368.9365 368.9365 368.9943 368.9943 369.3318 369.4903 369.7763
   369.7763 369.8072 369.8945 369.8945 370.2176 370.2176 370.2380 370.2380
   370.2963 370.3034 373.4989 373.5356 373.5356 373.5698 373.7369 373.7913
   373.7913 374.7029 380.0188 380.0188 380.2521 380.2521 380.5333 380.5786
   380.6388 380.6388 380.7744 380.7744 380.8693 381.6906 382.5051 382.5051
   382.5189 382.5189 385.4811 385.4811 386.2820 386.3471 386.3471 386.5885
   387.0537 387.6372 387.6372 387.6945 387.6945 388.6571 388.7353 388.7353
   388.9162 388.9162 388.9848 389.1506 389.1506 389.1700 389.2294 389.2294
   389.2985 389.4209 389.5297 389.5297 389.6229 389.6229 389.8398 390.2509
   391.6865 391.7129 391.7129 391.8113 391.8113 391.8925 395.6356 395.6356
   395.7492 395.8951 395.8951 396.1771 399.2258 399.2462 399.2730 399.2730
   399.2895 399.2895 400.6706 400.6706 400.6937 400.7292 400.7292 400.9305
   401.5108 401.8485 401.8485 401.9218 401.9218 402.0255 402.8916 403.4159
   403.4159 403.5118 403.5118 403.7377 404.1379 404.1379 404.2152 404.2152
   404.2901 404.3773 404.6315 404.6667 404.6667 404.7612 404.7612 404.8138
   408.4267 408.4267 408.4479 408.4479 408.8520 408.8565 412.1129 412.9957
   414.0567 414.0567 414.3666 414.6585 414.6585 415.0454 415.8091 415.8091
   415.9934 415.9934 416.7015 416.8004 416.9333 417.0741 417.1660 417.1660
   417.2313 417.2313 418.0834 418.0834 418.1238 418.1238 419.2184 419.5426
   419.9374 419.9374 420.2043 420.2775 420.2775 420.3659 421.7709 421.7709
   421.8856 421.8856 422.3097 422.6075 423.5613 423.5613 423.7322 423.8590
   423.8590 424.0299 425.3585 425.3828 426.0340 426.0340 426.0559 426.0559
   426.7254 426.8395 426.8395 426.9057 426.9057 427.2277 427.5332 427.5332
   427.5432 427.5432 427.8922 427.9061 428.9523 428.9978 428.9978 429.0075
   429.0075 429.0091 429.1186 429.1186 429.1553 429.1553 429.2110 429.2635
   434.1819 434.2373 434.2373 434.4139 434.4139 434.6000 436.1922 436.1922
   436.2760 436.2760 436.7747 436.7747 436.8508 436.9494 437.1284 437.1465
   437.2473 437.2473 437.3067 437.5848 437.5910 437.5910 437.6173 437.6173
   441.5591 441.9046 442.5829 442.5829 442.7678 442.7678 442.8870 442.9423
   443.2907 443.3305 443.3305 443.6329 443.6773 443.6773 445.3330 445.3330
   445.3852 445.3852 445.6780 445.7633 445.7633 445.8978 445.8978 445.9723
   446.8511 446.9937 446.9937 447.2544 447.2544 447.3724 447.9691 448.1369
   448.1369 448.3903 448.3903 448.7040 450.5856 450.8208 450.8208 451.1771
   451.1771 451.7938 452.3647 452.3647 452.3853 452.3853 452.5652 453.1806
   453.1806 453.2899 453.3563 453.4416 453.4416 453.7260 454.0349 454.0349
   454.0425 454.1208 454.1208 454.1220 454.4295 454.4842 456.6777 456.6777
   456.7153 456.7153 459.6182 459.6182 459.6193 459.6193 460.5523 460.5528
   461.1759 461.1759 461.2753 461.2753 461.2812 461.3526 463.7645 463.7645
   463.7737 463.7737 463.7776 463.7815 468.6643 468.6643 468.8792 469.2341
   469.2341 469.7360 471.4031 471.6171 471.6171 471.8800 471.8800 472.0726
   472.3270 472.4019 472.4019 472.5148 472.5148 472.6262 472.8948 472.9127
   472.9127 472.9457 472.9887 472.9887 473.1386 473.1386 473.1458 473.4698
   473.4698 473.5968 474.5368 474.7106 474.7106 475.0166 475.0166 475.1423
   475.6214 475.7844 477.5018 477.5018 477.5105 477.6889 477.6889 477.8179
   477.9365 477.9365 478.1925 478.3946 478.3946 478.4565 478.4565 478.4794
   478.7869 478.7911 478.8021 478.8021 478.8755 478.8755 479.1192 479.2049
   479.2049 479.6240 479.7753 479.8691 479.8691 479.9727 480.0104 480.0104
   484.5415 484.5415 484.5636 484.5636 484.8342 484.8447 484.9916 484.9916
   484.9989 484.9989 485.6301 485.6301 485.6919 485.6919 485.7079 485.7178
   486.0361 486.0938 486.0938 486.1604 486.1604 486.1832 489.2776 489.3544
   489.3544 489.5764 489.5764 489.9074 494.2230 494.2230 494.2577 494.2577
   494.2611 494.2772 497.9399 497.9399 498.0540 498.1327 498.1327 498.2430
   498.3565 498.3565 498.4341 498.4341 498.5048 498.5193 500.5617 500.8905
   500.8905 501.0602 501.0602 501.1938 501.1938 501.2709 501.2709 501.3195
   501.3551 501.4093 507.5246 507.7237 507.7237 507.9292 507.9292 508.3848

          k = 0.0000 0.3333 0.0000 (  3791 PWs)   bands (ev):

   -97.0274 -58.5152 -58.5152 -58.5152  -5.5784   3.8741   5.1042   5.1042
     9.1539   9.7525  11.4758  11.4758  12.8290  15.4379  16.5130  18.1705
    18.1705  18.8034  23.9273  25.8472  25.8472  27.1511  27.7750  30.7661
    32.4879  32.4879  33.6349  36.8044  36.8044  38.0803  38.2658  38.8580
    38.8580  39.3847  40.7690  43.3233  43.3233  43.5235  43.9910  44.7738
    44.9496  44.9496  45.7034  48.2950  48.2950  48.5123  49.1874  50.2824
    50.8127  50.8127  51.4430  51.4430  51.6029  52.3103  53.4401  54.7711
    55.8735  55.8735  58.6864  59.7689  61.1891  61.1891  61.8064  64.0582
    68.1909  68.5298  68.5298  70.6966  71.5342  71.6005  71.6005  72.8967
    73.9122  73.9122  74.1789  74.5465  77.0891  78.5192  78.5192  79.0520
    79.5197  79.5197  80.2508  80.9144  83.0451  83.1028  83.7811  83.7811
    83.9210  85.2429  85.7461  85.7461  86.6879  88.2689  88.2689  88.5649
    89.2595  89.2595  89.3741  90.2542  90.2719  92.2584  92.2584  92.2928
    93.0498  93.1910  93.5623  93.7653  93.7653  94.6927  94.6927  96.1496
    97.4256  97.7482  97.7482  97.8205  98.4703  99.1468 100.0492 100.3519
   100.3519 100.8290 101.8682 101.9585 101.9585 103.6031 103.6031 104.2144
   104.8337 106.5407 107.7299 107.7299 108.0767 109.5094 110.8409 111.4460
   111.4460 111.6967 113.0481 113.0481 113.3260 114.1372 115.2192 115.2192
   116.2329 116.8868 117.2221 117.4883 117.4883 118.2772 118.9538 118.9538
   119.0707 119.4914 121.7389 121.7389 123.6296 124.0975 124.2990 124.9719
   124.9719 125.1058 125.4348 125.4348 126.6627 128.3490 128.9955 128.9955
   129.4456 130.5615 131.5333 131.5333 132.9725 136.3412 136.5675 137.0872
   137.5443 137.5443 137.6140 138.3363 138.3363 139.5854 140.4117 142.0778
   142.0778 142.1360 143.1097 143.1097 143.1860 144.5343 144.8069 145.3172
   145.3172 146.5502 146.7614 147.1731 147.1731 148.5665 148.9211 149.6082
   150.0943 150.0943 150.1576 151.7310 151.7310 151.7804 153.2894 153.9726
   153.9726 154.3417 154.4676 155.0150 155.0150 155.8077 155.9205 155.9733
   155.9733 156.1499 156.3770 157.4499 158.7073 158.7073 159.5005 159.9444
   160.5406 160.6369 160.6369 160.7435 161.2171 161.2171 162.1594 162.7775
   162.7775 163.4299 163.5732 163.5732 164.0102 164.6292 166.2909 166.6325
   166.9202 166.9202 167.5142 167.7946 167.7946 167.8677 168.9323 169.4142
   169.8759 169.8759 170.1803 171.1204 171.1204 172.1057 173.2155 173.6928
   173.7253 173.7253 174.4319 174.4319 174.7652 174.8350 175.4864 175.9594
   175.9594 176.9757 177.4635 178.4214 178.4452 178.4452 179.2553 179.2553
   179.7670 180.4577 180.7911 180.7911 180.8214 180.9628 181.3365 181.6076
   181.9898 181.9898 182.0573 183.6711 183.8675 184.1720 184.1720 185.0261
   185.0261 185.1442 185.3577 188.0326 188.0326 188.1514 188.6809 189.2935
   189.7805 189.7805 191.6898 193.1300 193.6078 194.4113 194.4113 194.6567
   194.9496 194.9496 195.3624 196.3021 198.8395 199.4212 199.7987 199.7987
   200.7161 200.7161 201.7611 201.7611 202.0570 203.4490 203.7042 204.4774
   204.9041 205.2093 205.2093 205.6211 205.7154 205.7154 206.0259 206.1259
   207.9495 208.6644 208.6644 208.8847 208.9900 209.6114 209.6114 209.7774
   210.1230 210.5314 210.5314 211.8781 212.4925 212.9596 212.9596 215.8206
   216.3753 216.3753 218.9372 218.9372 220.1082 220.2404 220.4728 221.2342
   221.2342 221.3414 221.3793 221.7985 221.7985 223.3110 223.8087 224.8033
   224.8033 224.8579 225.0310 225.3237 226.3603 227.1444 227.1444 228.1356
   228.2463 228.5455 228.5455 229.1080 229.2344 229.2344 229.7095 230.2744
   230.2744 230.5427 231.7991 233.8662 233.8662 234.0819 234.1704 234.5463
   234.8703 234.8703 235.2040 235.4883 236.3044 236.7539 236.7539 237.0465
   237.0536 237.0536 237.5446 237.8758 237.8758 237.9757 238.1486 238.3832
   238.3832 238.5792 238.9241 240.3351 240.3814 240.9993 240.9993 241.3345
   241.4387 241.6323 241.6323 241.8009 241.8009 242.3902 242.9016 243.6869
   245.2418 245.2418 245.7460 246.4976 246.5949 246.5949 246.9720 248.2719
   249.3890 249.7980 249.7980 250.1997 250.4128 250.4672 250.5191 250.5191
   250.5514 250.8378 250.8378 250.8932 251.1898 252.1857 252.1857 252.3289
   252.5585 253.1262 253.1262 254.2017 254.5047 255.3273 255.3273 256.0670
   256.2963 256.2963 256.6864 257.4719 257.9438 257.9438 258.2222 258.8935
   259.0168 259.0168 259.3312 259.5960 259.5960 259.7529 259.8673 260.2758
   260.2758 260.4480 260.5454 261.9327 262.0675 262.0675 262.2456 262.9438
   263.8015 263.8015 265.5282 266.0791 266.6164 266.8920 266.8920 267.3223
   267.3223 267.4916 267.5583 267.6209 267.6521 267.6521 267.6749 267.9440
   268.1836 268.8955 268.8955 269.7742 270.7298 270.7298 271.1133 272.1713
   272.2849 272.5567 272.5567 272.6825 274.4005 274.9215 275.8507 275.8507
   276.5547 277.1370 277.1370 277.1419 277.5981 278.8249 278.8249 279.5656
   279.6845 279.6845 279.8573 280.3524 280.5644 280.5914 280.5914 280.7934
   282.9955 283.8419 284.4299 284.4299 284.6195 285.7296 285.7296 286.9157
   287.5326 287.8339 287.8339 287.8683 287.9656 287.9656 288.0831 288.6965
   289.5288 289.9903 289.9903 290.2612 290.5167 290.5167 290.6130 291.7344
   292.0373 292.7081 292.7081 293.6136 293.7023 293.7120 293.8446 293.8446
   293.9359 293.9359 294.0649 294.5822 299.3732 299.3732 299.7460 300.0853
   300.4435 301.3208 301.3208 301.6152 302.5402 302.5759 302.5759 302.6936
   303.2875 303.3440 303.3440 304.1665 305.4657 306.2817 306.2817 307.1239
   307.2820 307.2820 307.7584 308.6057 309.1991 310.0714 310.0714 310.8331
   312.0259 312.3994 312.3994 312.7502 312.9487 312.9487 313.1860 313.5938
   313.8918 313.9341 313.9341 314.0622 315.7497 317.1534 317.1534 317.9385
   318.5620 318.9521 319.0202 319.0202 319.1375 320.2415 320.5473 320.5473
   321.1522 321.1809 322.1129 322.1999 322.2000 322.5152 322.5152 322.5600
   322.9310 323.4512 323.9838 323.9838 324.3775 324.6044 324.8744 324.8744
   325.1138 325.2729 325.2729 325.2842 325.8345 326.4957 326.7213 326.7458
   326.7458 326.9035 326.9703 326.9703 327.3517 327.8494 328.0299 328.0299
   328.1581 330.0472 330.7316 330.7316 331.0398 331.4981 332.3060 332.4750
   332.4750 332.5251 332.7796 332.8004 332.8004 333.5160 334.0145 334.2097
   334.2097 334.2150 334.2487 334.2782 334.2782 334.6977 337.0686 337.0686
   337.0765 337.2328 337.2328 337.3630 339.9859 340.2933 340.9313 340.9313
   341.0135 341.3217 342.0214 342.0296 342.0296 342.0510 342.7118 342.7118
   343.5446 343.5446 343.5748 343.5902 343.6746 344.7289 345.9674 345.9674
   346.0932 346.2210 348.1039 348.1167 348.1167 348.2223 349.1076 349.2038
   349.2038 349.5922 349.5922 350.1417 350.4081 351.3983 352.1025 352.4090
   354.0986 354.0986 354.2668 354.5056 354.5056 354.7027 354.8167 355.0580
   355.0580 355.2936 355.8147 355.8147 356.6695 357.3278 357.8415 357.8415
   357.8765 358.6074 358.6074 358.6212 358.8557 358.8557 358.9077 358.9928
   359.4245 359.6059 359.6431 359.6431 359.9168 360.9703 361.8325 361.8325
   362.5668 362.8270 362.9209 362.9209 363.3430 363.7884 363.7884 363.7904
   363.7966 364.6105 364.8299 364.8299 365.0600 365.4718 365.9118 365.9118
   366.2873 366.8706 366.8706 367.0909 367.1373 367.2174 367.4470 367.4470
   367.5785 369.1795 369.1795 369.2624 369.2916 369.5820 369.6081 369.6081
   369.6895 370.5258 370.5258 370.5547 370.8230 371.2603 371.3467 371.3467
   371.4325 372.3225 372.5819 372.5819 373.4940 373.6596 374.7969 374.7969
   375.3735 375.8509 376.0238 376.1552 376.1552 376.5116 376.5116 376.8747
   377.0386 379.3239 379.5977 379.5977 379.8814 380.3187 380.3678 380.3678
   380.4627 381.1418 381.5140 381.5140 381.5650 381.7633 381.7633 381.9591
   382.0356 382.7411 382.7411 382.8324 383.0393 383.0908 384.0486 384.0486
   384.8246 385.2041 385.5359 385.5359 385.6555 386.3279 386.8010 387.0541
   387.0541 387.2612 387.7408 388.0464 388.0464 388.6581 388.7412 388.7412
   388.7910 389.4153 390.5411 390.5411 391.5687 392.6507 392.7340 392.7441
   392.7441 392.7459 392.9849 392.9849 393.1287 393.2600 393.2600 393.6753
   393.7184 393.7489 393.7489 393.8329 393.8549 393.9432 394.6351 394.6351
   394.8735 395.5626 395.6891 395.6891 395.6942 395.9077 397.2289 397.2289
   398.2553 400.6771 400.8076 401.0436 401.0436 401.7678 401.9299 401.9299
   402.3092 403.7932 404.4438 404.7371 404.7371 405.0335 405.8820 406.9154
   406.9154 407.1755 407.5152 407.8513 407.9227 407.9227 408.1325 408.3368
   408.3368 410.0483 410.5854 412.1901 412.1901 412.3370 412.7019 412.7019
   413.3760 413.4148 414.1267 414.1267 414.3599 414.5061 414.5061 414.6705
   414.8324 415.9982 416.1208 416.1229 416.1229 416.2136 416.2149 416.2149
   416.2380 419.4538 419.4538 419.8067 420.1036 420.3815 420.4999 420.4999
   420.5622 421.3066 421.3151 421.3151 422.0318 423.0053 423.0053 423.0450
   423.2260 423.7197 424.0557 424.0557 424.2185 424.8675 425.7252 425.7252
   425.8448 425.9363 425.9363 425.9930 426.1715 426.6436 427.2376 427.7329
   427.7329 428.3160 428.3269 428.3821 428.3821 429.0761 429.0761 429.1325
   429.1819 429.8302 429.8532 430.0808 430.0808 430.3513 431.7625 432.1757
   432.1757 432.5543 438.4988 438.6633 438.6633 438.8645 439.4726 439.6393
   439.6393 439.9236 440.5193 441.8085 442.1537 442.3558 442.3558 442.7211
   443.1212 443.1212 443.1423 443.4715 443.5712 443.5712 443.6752 443.9254
   444.1606 444.1606 444.3914 446.3786 446.4684 446.4684 446.7903 446.8157
   446.8824 446.8958 446.8958 447.8686 447.8686 447.9121 448.1509 448.1509
   448.3527 448.6297 448.8433 448.8433 449.6933 450.0138 450.4988 450.5377
   450.8262 450.8263 450.9105 450.9105 451.1096 451.9957 452.1741 452.1742
   452.3278 452.4096 452.8636 453.0957 453.0957 453.2956 457.8617 457.8617
   457.9949 458.0086 458.8912 459.1539 459.1542 459.1542 459.7805 460.6058
   460.6058 460.7031 460.8787 460.8787 460.9524 461.4291 461.5245 461.5245
   461.5302 461.6257 461.6415 463.2223 463.2223 463.5028 463.5028 463.5718
   463.8632 464.2007 464.6692 464.6692 464.9321 464.9796 465.1421 465.1793
   465.1793 465.7340 466.0538 466.7304 466.7304 466.9015 466.9101 466.9101
   466.9341 467.1088 467.5828 467.7170 467.7830 467.7830 468.1399 468.3661
   468.3661 468.6491 468.6491 468.6891 468.7518 468.9209 469.3327 469.6280
   469.6280 469.9099 470.9678 471.1344 471.1344 471.2032 471.7640 472.3099
   472.3099 472.3496 472.5763 472.5763 472.6855 473.1286 473.6632 473.7968
   473.7968 473.9295 474.3813 474.4450 474.4450 474.4857 477.4087 477.4087
   477.5403 477.5474 477.9467 477.9609 477.9609 478.0850 478.3876 478.5309
   478.5541 478.5541 478.5826 478.7286 478.7286 478.7707 479.4862 479.4862
   479.4899 479.5243 479.5781 479.7504 479.7504 479.9382 481.1564 481.2465
   481.2465 481.3881 481.8988 482.2504 482.2504 482.4668 483.5072 484.2460
   484.2460 484.3737 484.8318 484.8698 484.8698 484.8970 486.0419 486.0796
   486.0796 486.1155 486.5271 486.5271 486.5451 486.6136 487.4834 487.5878
   487.5878 487.7062 488.4067 488.6952 488.6952 489.0978 489.8235 490.0689
   490.0689 490.2312 490.8653 492.1019 492.1104 492.1104 492.1170 493.1427
   493.1844 493.1844 493.2265 493.2986 493.5661 493.5661 493.6119 494.4438
   494.5518 494.5518 495.4788 496.1667 496.1796 496.1796 496.4271 496.4842
   496.6174 496.6174 496.6361 497.3524 497.4820 497.4820 497.5794 500.1948
   501.2898 501.2898 501.6178 501.8946 501.8978 501.8978 501.9162 502.2414

          k =-0.1667 0.5000-0.1667 (  3796 PWs)   bands (ev):

   -97.0274 -58.5153 -58.5152 -58.5152  -5.0310   2.0510   4.4609   4.6610
     8.9539  10.3501  11.4367  12.0804  14.6356  16.0704  16.9239  19.1680
    20.2699  21.9208  22.0980  22.6538  26.1985  27.1225  27.7167  28.7717
    31.5357  32.7975  33.0798  34.7200  35.0948  36.3929  37.5239  37.5646
    38.9188  38.9745  40.5864  40.8917  41.6876  42.9355  43.0574  44.2290
    45.5405  46.2265  47.5609  47.6528  48.3732  48.6214  49.5433  50.5281
    51.0966  51.6788  53.6428  54.4931  54.8328  55.5529  56.7131  58.5887
    59.1231  60.3754  61.0034  61.7808  61.9050  63.5211  64.5383  65.2181
    65.6645  65.7891  66.7339  66.8181  68.7429  68.8090  69.3356  69.9893
    71.4527  71.7936  72.8337  74.4495  75.2995  75.8227  76.3848  77.1019
    77.8083  77.9595  78.8937  79.3572  80.2887  81.2919  81.3121  83.6910
    84.2938  84.9091  85.6684  85.8573  86.2961  87.3113  87.7707  88.6108
    88.7608  89.3792  89.6856  90.6942  91.1279  91.5375  92.2623  92.2800
    93.3040  94.3675  94.8955  95.3594  95.6966  96.0634  96.4094  97.3488
    97.6649  98.0245  98.1060  99.2338  99.3797  99.9569 100.9607 101.1205
   101.6728 102.1481 103.1261 103.2727 103.9138 104.4466 105.2709 106.4616
   106.8810 107.2016 108.0385 108.2199 108.6971 108.7726 108.9022 109.7688
   110.8450 111.6506 111.9068 112.0899 112.6579 113.5801 114.3682 115.0836
   116.4910 116.5282 118.1995 118.6407 118.8719 119.5726 120.1255 120.9759
   122.3151 122.3559 123.3400 123.7405 123.9992 124.2911 125.3629 125.6054
   126.7803 126.9062 127.6223 127.8953 128.9686 129.3092 130.0308 131.0300
   131.3902 132.0228 132.8225 133.4431 133.6138 133.9628 134.1501 135.1654
   135.5907 135.9302 136.2927 136.7085 136.7704 137.5057 138.8196 139.3846
   139.4448 139.7306 140.2555 140.6732 141.4845 142.0805 142.8069 143.0200
   143.1675 143.9438 144.6618 145.3564 145.5804 146.4924 146.5621 147.0190
   147.2214 147.9842 148.6866 149.0909 149.7488 150.4204 150.9907 151.2292
   152.1613 152.4869 152.7451 153.2775 153.5847 153.8607 154.3700 154.6104
   155.2706 155.8212 156.3387 157.3821 157.6141 158.3690 158.6117 159.2150
   159.5859 160.0850 160.3729 160.9098 160.9905 161.2463 161.8230 162.3198
   163.0320 164.3552 164.9729 165.5613 165.6367 165.8733 166.0620 167.0284
   167.6217 168.2363 168.5826 168.7651 169.2441 169.4714 170.1500 170.3042
   170.9713 171.0873 171.7761 172.5029 172.5746 173.4778 173.5530 174.1450
   174.5193 175.3704 175.3819 175.7570 175.8946 176.1038 176.4871 176.7099
   177.2683 178.0064 179.0709 179.2521 179.3441 179.6817 179.6962 181.0343
   181.4027 181.4766 181.8516 182.2634 182.9675 183.2890 183.5468 183.5906
   183.9881 184.1303 184.5736 185.2506 185.3633 186.2173 186.5868 187.8010
   187.8271 188.9081 188.9749 189.5043 189.5268 190.1332 190.6353 190.9251
   191.6042 192.4847 192.6727 193.1242 193.5716 194.1304 194.6634 195.2994
   195.5926 196.1063 196.5742 196.9542 198.0404 198.0471 198.5825 199.8202
   200.4491 200.7033 201.5256 201.5304 201.8932 201.9775 202.2913 203.2789
   203.5780 204.3128 204.4513 205.0608 206.3146 206.5579 206.8157 206.9055
   207.3687 207.6681 208.3883 208.7523 209.1052 209.9325 210.8382 210.9540
   211.3583 211.7306 212.5235 212.9183 212.9609 213.7990 214.5436 215.0706
   215.5235 215.5448 216.3681 217.0578 217.3651 217.6361 218.4550 218.8141
   219.6994 219.8817 220.0408 220.4150 220.7822 220.8697 221.0020 221.2323
   221.9210 222.7328 223.1573 223.7862 224.4326 225.1804 225.7474 225.7763
   226.3970 226.7083 226.8886 227.4630 227.7633 227.9125 228.2032 228.4180
   228.6836 228.7184 229.1370 229.2710 229.8440 230.3585 230.9567 231.9751
   232.5522 232.9375 232.9411 233.4306 233.5186 234.3358 234.9911 235.0183
   235.4330 235.5492 236.0500 236.3071 236.4368 236.9910 237.1400 237.5979
   238.3912 238.6542 238.7464 239.0746 239.5287 240.1969 240.9330 241.7506
   241.8817 242.3219 242.5149 242.5831 242.7753 243.1787 243.2571 243.5375
   243.6248 243.7620 243.9036 244.2714 244.8068 245.9265 246.5792 247.1049
   247.3349 247.5113 247.7402 247.9548 248.3294 248.9832 249.0739 249.8307
   250.0248 250.2323 251.1370 251.3379 251.3561 251.5740 251.6214 251.9083
   252.3441 252.7429 254.4135 254.5161 255.1549 255.2070 255.8874 256.4006
   257.0458 257.7921 258.0071 258.2326 258.2704 258.4427 259.3420 259.5398
   259.6570 259.8419 260.3982 260.8392 260.8626 261.1184 262.0043 262.2054
   263.3901 263.4362 264.4118 264.6401 265.1012 265.3805 265.4425 266.6296
   266.9550 266.9738 267.6376 267.7538 268.0796 268.1188 268.3740 268.8994
   269.0809 269.1038 269.2500 269.5830 270.3114 271.7927 272.2472 272.3295
   272.9105 272.9672 272.9948 273.2319 273.4525 273.6920 273.7848 274.5759
   274.5925 274.9688 275.5367 275.8858 276.2854 277.0400 277.3026 278.0152
   278.3215 278.6055 279.1827 279.6060 279.6272 280.0742 280.3128 280.5722
   280.7678 280.8721 281.1717 281.4451 282.0339 282.1811 282.6798 282.6917
   283.2816 283.6293 284.0458 284.1864 284.5511 285.2463 286.3532 286.6266
   286.7041 287.0855 287.4498 288.1153 288.4019 288.5105 290.2555 290.2989
   290.8411 290.9961 291.1830 291.3442 291.8615 293.2422 293.3472 293.6464
   293.7779 294.1801 294.2285 294.2867 295.0174 295.2931 295.6169 295.7626
   296.4102 297.0294 297.8988 297.9534 298.3954 298.8952 299.1613 299.2076
   299.5151 300.1174 300.1628 300.3702 301.2061 301.6071 301.9419 302.1975
   302.5551 302.6758 303.1423 304.0827 304.4601 304.5603 304.6558 304.6636
   304.8357 305.1430 305.3656 305.5961 305.9180 306.9712 307.3602 307.7314
   308.0970 308.3698 308.8752 309.2269 309.5429 310.1268 310.4200 310.5985
   310.9919 311.0130 311.5976 311.9465 312.0192 312.0807 312.3840 312.4694
   312.9187 313.1540 313.2805 313.4175 313.5120 314.2777 316.7708 316.9292
   318.0122 318.6885 319.6370 320.4286 320.4954 320.9875 321.3142 321.6550
   321.8605 322.2885 322.4515 322.9633 323.1594 323.8705 324.0914 324.4664
   325.5252 325.7004 326.0821 326.2434 326.3076 326.5220 326.7021 326.8211
   327.4098 327.5607 328.7105 328.8613 329.3587 329.7383 330.2025 330.3894
   330.6893 331.2792 331.2885 331.5126 332.0250 332.1824 332.6677 333.3618
   333.3919 333.4771 333.7353 333.7929 334.1440 334.9556 335.2412 335.3377
   335.6304 335.7018 335.9272 336.1869 336.4611 336.9168 336.9895 337.7426
   337.9505 338.3307 338.4712 339.1863 339.2714 339.8474 340.0640 340.2717
   340.4719 340.6111 340.6262 340.7283 340.9513 341.3838 341.8238 342.5635
   343.0076 343.7469 343.7863 344.0113 344.2469 344.4401 344.4854 345.4095
   345.5521 345.6940 346.5548 347.1440 347.1939 347.7880 348.0687 348.2411
   348.8077 348.9963 349.0865 349.1926 349.3076 349.4393 349.6755 350.1474
   350.2319 350.4510 350.9260 351.2813 351.6447 351.7078 351.7659 351.8398
   352.0556 353.0228 354.9478 355.2862 355.3938 355.4651 355.6923 355.8701
   357.8238 357.9040 358.0817 358.4876 358.6965 359.0028 359.0922 359.1884
   359.6062 359.7260 359.9234 359.9545 360.1430 360.3237 360.4171 360.5800
   360.6951 361.0236 361.0931 361.9197 362.0005 362.6583 362.7964 363.2535
   363.3957 363.5017 364.0152 364.0286 364.3589 364.3876 364.5049 364.8595
   365.5244 365.5956 365.7343 366.9687 367.1250 367.8502 368.1532 368.4992
   368.7711 368.9110 369.5125 369.5871 369.8359 369.8740 370.2141 370.3095
   370.5168 370.9971 371.0717 371.2357 371.5485 371.5962 372.0473 372.5883
   372.5941 373.0809 373.2555 373.7481 374.0778 374.2300 374.3559 374.4403
   374.7853 374.8280 375.3691 375.3913 376.5259 376.5984 376.6258 376.6374
   377.3898 379.1125 379.2753 379.2862 380.5805 381.2779 381.4229 381.6402
   381.9044 381.9116 382.0461 382.1396 382.1915 382.4986 383.1582 383.3682
   383.7088 383.9057 384.4311 384.4335 385.4605 385.5883 385.6315 386.0752
   386.2019 386.3424 386.9865 387.0694 387.1663 388.1075 388.1220 388.2423
   388.3546 388.4880 389.0911 389.2046 389.2454 389.7777 390.9430 390.9472
   391.3379 391.7231 391.9928 392.3334 392.3875 392.5658 392.6447 393.1099
   394.1840 394.3916 395.8374 395.8404 395.9404 396.2582 396.6331 396.8765
   397.0353 397.7260 398.4662 398.9912 399.0374 399.1411 399.4655 400.1535
   400.1889 400.3501 400.7133 401.1582 401.2803 401.3538 401.6499 402.4255
   402.5405 402.6583 403.2796 403.9839 404.3221 404.3225 404.6917 404.8398
   405.3030 405.6556 405.6918 406.0069 406.3074 406.4959 406.7031 407.4504
   407.8872 408.4502 408.9283 409.1877 409.6708 410.5151 411.5086 411.8728
   412.1621 412.5591 413.1648 413.6559 413.8445 414.2716 414.5295 415.0997
   415.2935 415.6370 415.6426 415.7698 416.1233 416.1326 416.5524 417.0403
   417.1846 417.4945 417.6992 417.8181 418.1204 418.1773 418.2292 418.3172
   418.3534 419.1036 419.1332 419.3345 419.4940 419.8565 420.1246 420.7013
   420.8281 420.9287 421.0161 421.3901 421.7016 421.9243 422.1034 422.1920
   422.4794 422.8326 422.9791 423.0450 423.4357 424.1701 424.3304 424.6062
   424.6416 424.7507 424.7626 425.1098 425.5668 426.6755 426.7863 427.1266
   427.6698 427.7279 427.9279 428.3778 429.0172 429.1500 429.2292 429.2749
   429.6444 430.5245 430.6003 431.2233 431.2477 432.1895 432.4572 432.5323
   432.8237 433.1961 433.4636 433.5321 433.6236 434.2869 434.5119 435.2042
   435.4314 435.4572 435.6660 437.0568 437.8313 437.8429 438.0052 438.1054
   438.4021 438.4255 438.5816 438.9916 439.2753 439.4985 440.0050 440.4735
   440.7677 440.9312 441.6470 441.7738 441.9688 442.0641 443.2743 443.3806
   443.5407 444.0256 444.5298 444.6237 444.9905 445.3970 445.9302 446.0119
   446.1586 446.2121 446.4380 446.8049 447.4957 447.6316 447.7858 447.8764
   448.6549 448.6617 449.0244 449.6795 449.7906 449.8209 450.2690 450.6807
   450.9927 451.3111 451.3643 451.5282 451.7375 451.7942 451.8029 451.9588
   452.5902 452.6270 452.7086 453.0362 453.1619 453.2266 455.1075 455.1179
   455.1636 456.0024 456.2483 456.2746 456.7560 456.7617 457.3862 457.7711
   458.2574 458.5214 459.3807 459.6025 459.7502 460.3573 460.4770 460.7738
   460.9259 461.0283 461.2548 461.5969 461.6570 462.2335 462.2375 463.1262
   463.1422 463.2660 463.6823 463.6969 464.0611 464.0718 464.4583 465.0668
   465.0972 465.3103 465.3269 465.5897 465.9492 466.1441 466.5522 466.6935
   467.0007 467.1294 467.3145 467.4028 467.4728 467.7001 467.9257 468.1318
   468.3894 468.9875 470.0234 470.6945 470.7513 470.8067 470.9754 471.2534
   471.3524 472.0632 472.5813 472.6738 473.4211 473.5146 475.0023 475.0276
   475.0895 475.5178 475.6146 476.1592 476.1735 476.3344 476.5968 476.8170
   477.3341 477.3772 477.5191 477.6070 478.0971 478.4599 478.8902 479.4634
   479.5520 480.4023 480.4811 481.2112 481.3196 481.8771 481.9111 481.9622
   482.2387 482.3317 482.9847 483.0426 483.5538 483.9591 483.9720 484.0669
   484.2088 484.4327 484.4528 484.5058 485.1808 485.2046 486.2290 486.8727
   486.9796 487.1394 487.3815 487.6358 487.7517 488.1192 488.3543 488.4382
   488.4480 488.5625 488.7796 489.3280 489.6667 489.9085 489.9269 490.4104
   490.4567 490.6574 490.8641 490.9321 491.0973 491.2239 491.7144 491.8142
   491.8662 491.9643 492.4897 492.8283 492.8683 492.8806 493.4296 493.5185
   493.7432 493.7635 493.8282 494.1831 494.5992 495.2216 495.4885 495.7870
   495.9916 496.0568 496.1781 496.1909 496.2771 496.3419 496.6450 496.6628
   497.2792 498.3225 498.4441 498.4760 498.5660 498.7599 500.8729 500.9214
   500.9505 501.1875 501.2850 501.5673 501.8759 502.2169 502.2366 502.3559

          k = 0.6667-0.3333 0.6667 (  3798 PWs)   bands (ev):

   -97.0274 -58.5154 -58.5153 -58.5152  -4.4256   0.6474   3.7822   4.6261
     8.8311  10.6412  11.6538  12.9885  15.5551  17.3164  17.7544  18.6360
    18.8026  22.4347  24.1724  25.0069  26.0474  26.9650  27.6407  28.7960
    29.6777  31.9481  32.0546  32.6708  32.9709  34.4160  35.0924  35.9329
    37.7039  38.9807  39.4630  40.3538  41.5676  42.4893  43.1727  45.0964
    45.7279  47.2941  49.0632  49.5657  50.1781  51.1728  51.3126  51.9258
    52.3259  54.3778  54.4683  55.8256  56.1438  56.8412  58.5928  58.7831
    60.3225  60.9937  61.4943  62.1943  62.2107  62.8080  63.9591  64.0755
    65.1673  65.8752  66.0623  67.1652  67.4271  68.8096  69.0238  69.9578
    70.6364  71.7422  72.0031  72.6568  72.9415  74.2010  74.5656  75.5056
    76.4334  77.0661  78.1774  78.4216  80.0949  80.2752  80.6981  80.7525
    82.9524  83.0087  85.1410  85.2033  86.0328  86.3628  87.0471  87.5451
    87.9976  88.6670  90.1732  90.7351  91.6235  92.0260  92.2895  92.5054
    92.8399  94.4377  94.6911  95.1832  95.6043  95.8968  97.6731  97.8052
    98.0891  98.8216  98.8885  99.5107  99.8419 100.2870 101.0865 101.6741
   102.2442 103.3925 104.0627 104.3756 105.4770 106.4317 106.4354 107.2441
   107.6388 108.0360 108.6668 109.2772 109.8578 111.0485 112.0224 112.2111
   112.4523 113.0363 113.5154 113.7799 114.4230 114.6415 115.8194 116.5438
   117.5155 117.8048 118.2665 118.9991 119.7442 119.8820 120.1027 120.3412
   121.3952 122.1190 122.7219 122.7436 124.0821 124.8857 125.1044 125.7577
   126.1683 126.3181 126.7753 126.8061 127.7547 128.1196 129.4764 129.8969
   129.9815 130.5348 130.8036 131.0771 132.4518 132.7161 133.5915 134.4908
   135.0969 135.2350 135.3901 136.3270 136.4889 137.0751 138.2098 139.2253
   139.7615 140.4572 140.5948 141.3296 141.6104 141.9565 142.6016 142.9846
   143.4046 143.7422 143.9857 144.5798 145.2326 145.2507 145.4981 147.0922
   147.5968 147.7069 148.5994 148.7948 149.0105 149.7880 150.2703 151.1374
   151.2550 152.4891 152.6275 152.7872 153.4880 153.7796 153.9404 154.5954
   154.6785 155.1375 155.1475 156.0226 156.0965 156.5512 157.0880 157.2526
   158.6503 159.1299 159.1776 159.5614 159.8875 159.9425 160.5647 161.8111
   162.1643 162.3778 163.3441 163.4472 164.3558 164.7750 165.3653 165.6377
   165.9909 166.4807 166.7176 167.6787 167.6956 169.0662 169.7767 169.9700
   171.1048 171.3945 172.1308 172.1622 172.7759 173.8365 174.7913 175.2481
   176.0505 176.2818 176.5189 177.6541 178.3330 178.6448 178.8865 178.9593
   179.3415 179.3898 179.5888 180.3056 181.0224 181.3427 181.7594 182.1056
   182.4361 182.8521 183.2771 183.3351 184.3761 184.7205 185.5511 185.7457
   186.2695 186.3039 187.1374 187.5169 187.6552 188.2244 188.6036 189.1523
   191.1101 191.5060 192.2125 192.7394 192.9539 193.1403 193.4897 194.0671
   194.5439 194.5856 195.0451 195.1770 195.8989 196.5771 196.5785 197.3517
   197.3989 197.7176 198.1451 198.1531 198.2984 198.5646 198.8445 199.6329
   199.9327 200.5421 200.5824 201.0394 201.6927 202.8577 202.9028 203.1950
   203.3426 204.1887 204.8364 204.9473 205.2404 205.8784 206.1650 207.1134
   207.1181 208.0748 208.1814 208.6032 208.6109 208.9390 209.1293 209.2648
   209.8522 210.7979 211.4847 211.9108 211.9938 212.4966 212.8965 213.5668
   214.1222 214.7467 215.2818 215.4894 215.5200 215.9531 215.9611 216.4349
   216.5264 216.9371 217.1164 217.9085 218.0440 218.5338 218.5459 219.3097
   219.6838 219.9093 220.0098 221.6636 221.8912 222.1463 222.4180 222.7830
   223.2200 223.5857 224.1675 224.8024 225.2113 225.2649 225.7360 226.7631
   226.7994 227.3915 228.0989 228.1454 228.5948 228.7162 229.8596 229.9211
   230.2947 231.8257 232.0466 232.4154 233.6640 234.2055 234.3104 234.9050
   234.9513 235.2335 235.2679 235.6888 235.9826 236.2969 236.5985 237.4707
   237.7887 238.1125 238.1495 238.5792 239.1849 239.3341 239.8785 240.1789
   240.1793 240.6154 240.6435 240.9752 242.1420 242.3744 244.1439 244.6408
   244.9128 245.0756 245.1857 245.3739 245.8307 246.2178 246.2545 246.9069
   247.1259 247.9722 248.1488 248.9261 249.0706 249.4221 249.8591 249.8642
   251.1201 251.3569 252.0871 252.7236 252.7460 253.3052 253.3773 253.8724
   254.2337 254.2889 254.5258 255.0380 255.6334 256.2792 256.4071 257.0623
   257.7068 257.7997 258.8475 259.0914 259.5801 259.6168 260.0969 261.0689
   261.3061 262.1985 262.8659 263.0814 263.6026 263.6333 264.0473 264.6538
   265.4164 265.5961 266.0756 266.5823 266.6824 267.5307 267.8453 268.0722
   268.4225 268.5635 268.7177 268.8515 269.0998 269.2842 269.8504 269.8960
   270.3298 270.7524 271.0519 271.1787 271.2734 271.6326 271.9554 272.4975
   272.6274 273.1293 273.3105 273.9538 274.2117 274.2395 274.9634 275.1233
   275.9123 276.1282 276.5597 276.6520 276.7678 277.0616 277.2389 277.3770
   277.9600 278.5793 278.6744 278.9898 279.3915 279.4415 280.2513 280.3540
   281.7228 282.3415 282.8425 282.8585 282.9752 283.1104 283.3594 284.0036
   284.3980 284.5987 284.7129 285.0156 285.9064 286.2311 286.2933 287.3314
   287.8079 287.8262 288.3735 288.4452 289.0418 289.8763 289.9057 290.3413
   290.4475 290.6957 291.1993 291.4986 292.2770 292.2783 293.1705 293.6008
   293.7844 294.0010 294.0889 294.1814 294.3284 294.6338 294.6699 295.2775
   295.7234 295.7241 296.7892 297.5098 297.8006 297.8116 299.0402 299.4230
   300.0180 300.0757 300.4910 300.6979 300.8097 301.8485 302.0729 302.5311
   302.6125 303.1720 303.3557 303.4920 303.8471 304.0756 304.8829 305.0957
   305.5477 305.5864 306.4481 306.9017 307.2543 307.8519 308.0896 308.6660
   308.7476 309.0619 309.2283 309.7469 309.8099 310.0271 310.3094 310.3428
   311.2184 311.5207 311.7185 311.8677 312.1960 313.1502 313.5214 313.8432
   314.1938 314.3930 314.6234 314.7789 315.3308 316.4240 316.5484 316.9032
[...]
   270.2186 270.7753 270.8742 271.6443 271.9357 272.1289 272.4663 273.1231
   273.2511 273.6850 274.4023 274.4617 274.9752 275.2853 275.9675 276.2562
   276.6380 276.9067 277.3641 277.5301 278.1808 278.2473 279.3024 279.5669
   279.9043 280.1393 280.5667 281.1007 281.1506 281.4923 281.7942 282.2718
   282.3742 282.7292 283.4347 284.2873 284.4132 284.4357 284.6602 284.7925
   285.4059 286.2336 286.5466 286.6184 286.8194 287.0200 287.1667 287.3629
   287.5031 287.9552 288.4021 289.7131 289.8563 289.9838 290.0569 290.8134
   291.0495 291.4215 292.0143 292.6230 293.0200 293.4509 293.8225 293.9615
   294.0755 294.4803 294.5510 294.6520 294.9210 295.1212 295.6180 295.7259
   296.0538 296.2664 297.4161 297.5765 300.3194 300.5498 300.9588 301.6576
   302.1742 302.4312 302.7358 302.9258 302.9938 303.1842 303.5096 303.8007
   304.0374 304.1392 304.2313 304.5430 304.8550 305.1771 305.8819 306.2872
   306.7533 306.9535 307.4954 307.6065 307.8507 307.8889 308.0676 308.1839
   308.4293 308.4680 308.9360 308.9437 309.2218 309.7805 310.3974 310.6975
   310.8617 311.3157 311.4287 311.5543 313.1231 313.5599 313.7702 313.8940
   314.1953 314.2213 314.6772 314.8748 315.1262 315.4062 315.6359 316.3531
   316.5064 316.7155 317.0260 317.2348 318.1764 318.2580 318.5005 318.5319
   318.7333 319.2195 319.4678 319.7012 320.1090 320.1222 320.2638 320.3303
   320.5150 320.8486 320.9010 320.9512 321.6374 322.1091 322.1358 322.3512
   324.9937 325.2290 325.7277 326.0712 326.9000 327.1204 327.3087 327.3719
   327.5588 327.6512 327.7277 327.9345 327.9865 328.1455 328.3641 328.4389
   328.6634 328.7105 329.7202 329.8458 331.0910 331.3723 332.3962 332.4530
   333.2168 333.3708 333.4614 333.6772 333.7595 333.7758 334.0178 334.2763
   335.5674 335.6748 335.7835 335.9276 336.8935 337.2452 337.5435 337.6011
   337.9162 338.1015 339.0813 339.5794 339.8985 340.2962 340.4124 340.7651
   340.8141 340.8816 340.9151 341.1000 341.4961 341.5515 342.3115 342.3567
   344.1299 344.1906 344.3707 344.7218 344.7644 344.7897 345.0487 345.1524
   346.2352 346.5338 347.3360 347.5518 348.9915 349.0333 349.8053 349.8184
   350.3862 350.4864 351.6439 351.9364 352.1304 352.3579 352.4403 352.5463
   352.9922 353.1914 353.2196 353.3967 354.2544 354.9286 355.3052 355.4606
   355.7139 355.8469 357.5256 357.6427 357.6961 357.9326 358.1349 358.1777
   358.6704 358.7377 359.7287 359.8318 360.4045 360.7983 361.2988 361.5569
   361.7182 363.7046 363.8127 364.4268 364.9171 365.2541 365.5361 365.5924
   365.7883 365.9221 366.3809 366.5478 366.6529 367.1708 367.5050 368.0791
   368.2276 368.5052 368.8496 368.8902 369.2367 369.3263 369.3785 369.4078
   370.0522 370.7193 370.8649 371.3064 371.4806 371.5385 372.7093 372.8873
   372.9960 373.0361 374.7222 374.7775 376.6167 376.8114 376.9019 377.0544
   377.2575 377.3196 377.4889 377.6466 377.6999 378.0141 378.9028 378.9802
   379.1396 379.7245 379.8645 379.9738 380.3695 380.7771 380.9423 380.9919
   381.0694 381.2053 381.7996 381.8583 382.0228 382.1133 382.8711 382.9608
   383.1716 383.2056 383.2267 383.3539 383.6568 383.7883 385.3958 385.5234
   385.8113 385.8603 386.5906 386.8086 387.0036 387.4152 387.5774 387.7903
   387.9939 388.1418 388.2146 388.3796 389.1713 389.2769 389.7611 389.8644
   389.9529 390.0126 390.2459 391.7021 391.7427 391.7950 392.3625 392.6596
   393.1640 393.2178 394.2144 394.3731 394.7488 395.1795 395.2955 395.6990
   396.1896 396.2617 397.1028 397.1595 398.0947 398.1860 398.3893 398.4997
   399.2716 399.4085 400.2829 400.4580 400.5493 400.5725 400.7714 401.2764
   401.3931 401.5298 401.5668 402.0294 402.0752 402.1853 402.4614 402.6481
   402.6973 402.7458 402.8502 403.2650 403.3853 403.7570 404.1708 406.0159
   406.1521 406.2393 406.3629 406.6715 406.7774 406.8701 406.9797 407.1259
   407.3174 408.1258 408.2733 408.4057 408.4586 409.3102 409.4194 409.9686
   410.5389 410.6517 411.6336 412.0886 412.0950 412.2190 413.8240 414.0167
   414.4424 414.8816 415.1136 415.2398 415.3255 415.5483 415.6910 415.7614
   415.9093 415.9699 416.5784 416.6582 416.7493 416.7848 416.8970 417.2067
   417.3211 417.6566 418.1718 418.3626 418.7961 418.8520 419.0957 419.4843
   419.5703 419.6905 419.7229 419.9367 420.2200 420.6573 420.6872 420.9582
   420.9711 421.4040 421.8279 421.8549 422.4457 422.4686 425.7055 425.7658
   425.9597 426.0113 426.7149 426.8756 426.9543 427.3416 428.0342 428.1601
   428.6791 429.1644 429.2487 429.2641 429.6960 429.8573 430.1551 430.2581
   430.3179 431.0515 431.2403 431.7750 431.9828 432.0675 432.4982 432.5596
   432.7103 432.7798 433.2804 433.3499 433.3962 434.1303 434.9753 435.2093
   435.3403 435.5395 436.9587 437.0672 437.0935 437.3615 437.4003 437.5068
   437.9239 438.0515 438.3943 438.5022 439.1978 439.2108 439.6290 439.8474
   440.5046 440.6597 440.8328 440.9144 440.9602 441.0004 441.3080 441.4066
   441.4119 441.5143 441.5993 441.7640 442.1283 442.2547 443.2051 443.7052
   444.2697 444.2960 444.3145 444.4953 444.5925 444.7642 446.0043 446.2072
   447.2246 447.3167 448.3296 448.4261 448.4719 448.5594 448.6722 448.7830
   449.1026 449.2420 450.0038 450.1451 450.9216 450.9376 451.2212 451.3436
   451.8235 452.0640 452.1407 452.1798 452.4082 452.4788 452.6996 452.7881
   453.7947 453.8054 454.9465 454.9837 455.0435 455.2389 455.2892 455.3351
   455.7777 455.8022 455.9249 455.9511 456.6362 456.9031 457.0110 457.0532
   457.3715 457.4703 457.5707 457.5795 458.1715 458.2114 458.9001 458.9261
   459.5116 459.5147 461.6214 461.6589 461.9056 461.9809 463.4915 463.7183
   463.7670 464.0523 464.1280 464.1911 464.4030 464.4516 464.7805 464.9153
   465.2520 465.4049 465.6267 465.7262 466.9880 467.1103 467.2037 467.2202
   467.3481 467.3973 467.4648 467.5230 468.5033 468.5641 468.6319 468.7204
   469.1465 469.1830 470.3692 470.9333 471.8629 472.2323 473.2536 473.3170
   473.9161 473.9612 474.1014 474.2907 475.1874 475.3227 475.5575 475.6062
   475.7890 475.9467 476.3154 476.3699 476.5790 476.7808 477.8012 477.8463
   478.1443 478.2311 478.3525 478.4366 478.9935 479.0717 479.1154 479.2748
   479.9060 479.9228 481.2851 481.4116 482.3462 482.4080 482.4892 482.5904
   482.7707 482.8119 483.3614 483.3883 483.7759 483.7971 483.9350 483.9533
   484.0805 484.1226 485.4475 486.2420 486.3738 486.4556 486.7734 486.8759
   487.3548 487.5063 487.7160 487.8893 488.4169 489.5068 489.6770 489.9382
   489.9439 490.3190 490.4280 490.4617 490.6734 490.6859 490.6950 491.2538
   491.5203 491.5482 491.7768 492.0188 492.0713 492.8048 492.8347 493.6225
   493.6415 494.6113 494.7118 495.2784 495.6158 496.0157 496.1426 496.3341
   496.4594 496.5363 498.4257 498.6036 498.8485 498.9698 499.8041 499.9717
   500.0059 500.1283 500.4882 500.4911 501.2269 501.2380 501.8567 501.9779
   502.1552 502.3890 503.2197 503.2809 503.3432 503.5803 504.9590 505.0438

          k =-0.3333-1.0000 0.0000 (  3792 PWs)   bands (ev):

   -97.0274 -58.5154 -58.5153 -58.5153  -3.9651   0.7100   2.9719   3.2139
     9.0534   9.9831  12.9777  13.6835  16.4363  18.2151  18.4382  19.7406
    22.3119  23.0552  23.1976  23.6100  23.9722  24.9243  27.6215  28.0000
    29.0490  29.7092  29.9397  30.3291  33.3298  35.1776  35.8571  35.9586
    38.2366  39.1248  41.1554  41.4703  41.7363  42.0160  44.8222  45.4606
    46.6992  47.0626  47.9737  48.1370  50.5495  51.7342  52.3319  52.9176
    53.5548  53.6445  54.5362  54.5910  56.2916  57.2276  58.3212  60.1018
    60.4041  60.5820  60.6725  61.7037  62.9368  63.4789  64.2867  64.7207
    65.3710  66.6049  67.5444  67.5546  67.8800  67.9636  69.3009  70.0416
    70.8382  71.4903  72.6565  73.2180  74.8604  75.7465  76.1339  76.8201
    76.8540  77.5978  78.3750  78.6361  79.4601  79.5459  79.9656  80.2523
    80.8786  81.3924  83.1644  83.9769  84.0699  84.2014  85.1332  85.3949
    85.8743  86.1228  86.5254  86.7785  88.0807  88.4087  89.6896  91.2635
    91.7486  91.8267  92.2815  93.8286  96.1476  97.0723  97.7440  98.6737
    99.8755 100.3196 101.0234 101.2075 102.2174 102.6072 103.5553 104.2995
   105.3111 105.6760 106.7188 107.2329 107.9038 108.0150 108.5593 108.6626
   108.7233 109.8870 110.5662 110.9547 112.2661 112.5342 112.8046 113.0415
   113.5211 114.0532 114.1148 114.5500 115.0149 115.4192 115.7151 117.5531
   117.6067 118.9636 119.4183 119.8131 119.8753 120.6322 120.8160 120.9640
   121.6899 121.9862 122.3091 123.2870 123.7136 124.0694 124.2380 124.8224
   125.1777 125.8258 127.4709 127.7555 128.3893 128.5043 129.0832 129.9550
   130.2262 130.3419 131.2198 131.7033 131.7431 132.0013 132.6646 132.9776
   133.0915 133.4224 133.7481 134.8779 136.0444 136.1258 136.8125 137.0171
   137.3551 137.8619 138.6271 138.8331 139.1748 140.3113 140.5744 140.6281
   141.6650 141.7433 141.7835 142.3397 142.7425 142.7479 143.2283 145.2867
   146.3482 146.5774 146.8813 147.1082 147.4863 147.5203 148.1586 150.2521
   151.2006 151.4565 152.0305 152.7859 152.9615 153.0163 153.2567 153.5905
   153.6852 153.9712 154.7956 155.4556 156.9384 158.1529 158.2516 160.4228
   160.7888 161.6368 161.6789 162.0722 162.6310 162.9928 163.9278 164.6807
   164.7961 165.4366 165.9871 166.2716 166.7349 167.1814 167.3080 167.5868
   167.6762 167.7989 168.2683 168.3553 169.2536 170.0075 170.3052 170.4131
   170.8882 171.8633 172.5201 172.9834 173.5374 173.9286 174.2695 175.2924
   175.3191 175.7556 176.1242 176.6034 177.0771 177.5619 177.9122 178.2006
   178.2438 179.3220 179.4666 179.8039 180.2556 180.4149 180.6137 181.7252
   182.1656 182.8481 184.0175 184.5216 184.6312 185.0895 185.8354 186.2684
   186.4153 187.1954 187.5684 187.8581 189.2438 189.4984 190.0872 190.1243
   190.2416 191.4985 191.7552 192.0205 192.2228 192.6694 192.6823 192.8932
   193.5682 195.0661 195.9620 196.1772 196.5916 196.8965 197.0848 197.4306
   197.4625 197.6426 197.7922 198.6672 199.9538 200.2437 200.4626 200.4878
   201.1956 201.8138 202.3840 203.0800 203.2522 204.0811 204.2003 204.5152
   204.6583 204.6969 205.0297 205.1404 205.8034 206.0831 206.1742 206.2864
   206.5879 206.6946 206.7359 206.7626 206.9578 207.0936 207.4512 207.7126
   208.2744 208.5752 209.6469 209.6842 211.5807 212.3492 212.8705 213.2343
   213.4005 213.6753 213.7993 214.0632 214.2807 214.3941 215.6769 215.6933
   216.5713 216.7721 218.7642 219.2573 219.4545 219.8429 220.2539 220.3019
   221.0121 221.0734 221.2068 221.2415 221.9685 222.7606 222.8153 222.9522
   223.3323 223.6599 223.9788 224.0431 224.3108 224.3642 225.0515 225.1040
   225.5176 225.7311 227.5416 227.6555 227.9515 228.1081 228.3162 228.8666
   229.8773 229.9943 230.8688 230.9304 232.0835 232.3428 232.8655 233.0857
   233.4136 233.4841 234.1756 234.2307 234.3809 234.4741 235.8032 235.8060
   237.1818 237.6507 239.1868 239.5898 240.1339 240.5491 241.0898 241.8159
   241.9225 242.1309 242.4722 242.6821 243.4399 243.4613 244.1934 244.2237
   244.5346 244.9602 244.9659 245.3102 245.4191 245.6614 245.7056 246.1020
   247.5135 247.5189 248.3378 248.5679 248.7103 249.1743 249.4906 249.8321
   250.0822 250.1210 251.1434 251.5743 252.7535 252.9867 253.3494 253.5726
   253.9962 254.1180 254.3265 254.3308 254.8994 255.1319 255.2003 255.5661
   256.1306 256.3586 258.0978 258.3230 259.0248 259.1209 260.1081 260.2066
   260.6304 261.1857 261.4646 262.1081 262.1957 262.9192 263.0277 264.0678
   264.2329 264.2859 265.0357 265.3325 265.4074 265.4674 266.1196 266.4660
   266.9226 267.0407 268.1783 268.3813 268.9356 268.9645 269.0153 269.1020
   269.2292 269.4258 270.6469 270.7579 270.7755 271.0321 271.0338 271.6199
   272.9710 273.3482 274.5442 274.6283 274.8001 275.3165 275.7286 275.8195
   275.8686 276.1927 276.4012 276.6286 277.0157 277.1406 279.7627 280.6635
   282.5199 282.8073 283.0292 283.5382 284.3626 284.7306 285.2666 285.3520
   285.4495 285.5007 285.6424 285.6702 286.0276 286.0437 286.1010 286.1499
   286.3937 286.4426 287.1808 287.2828 288.9988 289.2386 289.6549 289.8691
   290.1041 290.2618 290.2844 290.5833 291.2986 291.8323 292.1975 292.2546
   292.7632 292.8682 293.4142 294.4504 294.8700 294.8732 295.0656 295.4720
   295.6468 295.7594 296.4930 296.6927 296.9410 297.0104 297.6405 297.8520
   298.0272 298.1694 298.8400 298.8642 299.4269 299.6309 300.2833 300.3227
   300.8340 300.8555 301.1230 301.2170 301.4618 301.4966 301.7501 301.9571
   303.3393 303.5011 304.3286 304.3458 304.6220 304.9766 305.2219 305.2515
   305.8322 306.0554 306.1537 306.3825 306.5526 306.6810 306.9947 307.3576
   307.4790 307.5322 307.7535 307.8165 307.9038 307.9428 308.2184 308.3425
   309.5570 309.7909 309.8560 309.9344 310.5224 310.6883 310.8237 310.9545
   311.8541 311.9504 313.7659 313.9595 313.9900 314.1231 314.2537 314.3143
   314.4105 314.6906 315.7662 315.7979 316.0191 316.1528 316.9770 317.0361
   318.4165 318.6650 319.1485 319.1489 320.1777 320.3761 320.5471 320.8372
   321.1351 321.3251 321.6725 321.9555 323.8452 324.2839 324.5178 324.7343
   324.9435 325.5036 325.6985 326.0326 326.3152 326.5878 326.7866 326.9361
   327.2552 327.3097 328.1509 328.4360 328.7046 328.7650 328.9773 329.0745
   329.1884 329.3445 329.8065 329.9273 330.0988 330.3392 331.4356 331.4590
   332.5682 332.6788 334.3621 334.3988 334.9311 335.1419 335.2271 335.2919
   336.0088 336.0099 336.9851 337.0721 337.0903 337.1217 337.3284 337.4771
   337.5038 337.6643 338.2510 339.2208 339.5104 340.1190 340.1423 340.2792
   340.9082 341.1631 341.1971 341.4544 341.4994 341.6314 342.0347 342.1564
   342.1809 342.5574 342.6565 342.6827 343.4929 343.8686 345.1508 345.1635
   345.7385 345.9153 346.8288 346.9575 347.3343 347.5012 347.6702 347.7462
   348.9135 348.9479 349.2574 349.2815 349.3883 349.9721 350.0810 350.1529
   353.9186 354.2343 354.2859 354.4729 354.7541 355.0708 355.3242 355.8581
   355.9124 356.1842 356.3225 356.6036 357.8623 357.9615 358.7708 359.0736
   359.3864 359.5556 359.8891 360.0068 360.0599 360.4990 360.7026 360.7427
   360.9044 360.9995 362.6832 362.7263 363.3419 363.5526 363.9363 364.1455
   364.6118 365.0396 366.1686 366.5605 367.1434 367.2593 367.3306 367.7223
   368.9055 369.5204 369.6530 369.8080 370.9929 371.1475 371.8283 371.9638
   372.1453 372.4213 372.4250 372.6019 372.6553 372.7339 375.2532 375.3234
   375.3387 376.0307 376.1839 376.5333 376.7853 377.1101 377.2064 377.3902
   377.4213 377.6730 377.9467 378.3372 378.7721 378.9643 379.5371 379.8670
   380.1543 380.2809 380.3034 380.6329 380.7250 380.9433 381.0290 381.1666
   381.3136 381.3568 381.7526 381.7750 383.9994 384.3277 385.2429 385.2738
   385.9682 386.0393 386.0567 386.5439 386.7214 386.8108 386.9087 387.3186
   387.5064 387.8532 388.0808 388.1209 388.2475 388.3965 389.7502 389.9003
   390.2040 390.2713 390.4375 390.6008 390.7495 390.8040 391.3253 391.3405
   391.5049 391.5153 391.6720 391.6947 391.7687 391.7972 392.6677 392.7286
   394.2149 394.2967 394.3038 394.3295 396.2583 396.4778 396.6842 396.8342
   396.9015 397.2553 397.4244 397.7051 397.7312 397.7978 397.9599 397.9720
   398.0808 398.1453 398.8942 398.9110 398.9510 399.0997 400.2683 400.4588
   400.8639 400.9168 400.9939 401.0743 401.2459 401.2873 401.9021 402.0219
   402.1125 402.1286 402.1638 402.2253 402.4934 402.5880 403.1487 403.5332
   403.5742 403.6369 403.7543 404.1385 405.3756 405.4465 405.8107 405.8438
   406.5959 407.3661 407.5159 407.6803 409.1444 409.2193 410.0958 410.0988
   410.4202 410.4484 411.5411 411.6427 411.6849 411.8410 412.0769 412.1324
   412.2596 412.3033 412.5596 412.8086 412.8125 412.9904 414.1045 414.1775
   416.2176 416.2426 416.3096 416.8719 417.2586 417.4067 417.9335 417.9503
   417.9866 418.1456 418.3121 418.3820 419.2530 419.7118 420.3420 420.3605
   420.4545 420.5329 420.6678 421.1383 422.5742 422.5754 422.6804 422.8209
   422.9401 423.1677 423.2966 423.3222 423.5940 423.9982 424.0538 424.0926
   424.3479 424.5977 424.6119 424.7603 425.2192 425.2536 425.9156 425.9531
   427.3094 427.4523 427.4583 427.5296 427.6241 427.6442 427.7898 427.8790
   430.0148 430.1802 430.3256 430.4385 430.6065 430.6298 430.7219 431.1529
   431.4168 431.6447 431.6532 431.8467 432.4334 432.5283 432.6177 432.7045
   432.7948 433.5019 433.5221 433.5792 435.2811 435.2971 435.5130 435.5323
   438.3020 438.3701 438.6180 438.6353 439.4464 440.0464 440.3056 440.3206
   440.7835 440.8642 440.9269 440.9926 441.7566 441.8847 442.3637 442.5567
   442.8133 443.0336 443.6652 443.6844 444.1129 444.2839 444.3195 444.9168
   445.2421 445.3060 445.4409 445.4541 446.4160 446.6693 446.7506 446.8435
   447.8258 447.8651 447.8962 448.2441 448.2683 448.3374 448.7021 449.2494
   449.7927 449.8783 450.1019 450.2534 450.6600 451.0849 451.7691 451.9804
   452.4478 452.6728 452.8621 452.8803 453.6335 453.7939 453.9225 453.9446
   454.3233 454.3383 454.3687 454.5462 454.6632 454.6901 454.8442 454.9021
   454.9538 454.9947 455.3862 455.7178 456.8514 456.9830 457.4696 457.4952
   458.8011 458.9612 459.1442 459.2036 459.9330 460.0744 460.3402 460.3719
   461.3605 461.3983 461.6579 461.7507 462.4330 462.6368 462.7902 462.9049
   463.0652 463.1576 463.2568 463.2581 463.3129 463.6209 463.6636 464.1452
   464.2802 464.4963 465.0047 465.2640 465.6495 465.7076 466.3326 466.3475
   466.6145 466.7324 466.7392 466.9270 466.9315 467.2194 470.3963 470.5716
   470.7678 470.8480 471.7585 471.9544 472.4249 472.4380 472.9424 472.9718
   473.4911 473.8767 473.9627 474.0354 474.2932 474.3176 474.3434 474.4878
   475.9277 476.2856 477.3170 477.4793 477.5898 477.6208 477.6715 477.7355
   478.6904 478.7152 478.8387 478.9273 479.0394 479.0923 479.4260 479.4320
   479.7927 479.8762 480.0674 480.0806 480.5303 480.5574 480.8080 480.8369
   483.1606 483.4750 483.6342 483.6476 483.7570 483.7977 483.8658 483.8891
   484.2559 484.2635 485.0534 485.0622 485.0929 485.0948 486.3936 486.7486
   487.0597 487.1268 487.2739 487.5135 488.6845 488.7954 489.1092 489.3514
   489.4008 489.4692 490.9841 491.1053 491.3766 491.4311 491.5884 491.7392
   492.0024 492.1843 492.1949 492.2890 492.8286 492.9664 493.4046 493.6432
   493.8750 494.1426 494.2104 494.3862 494.4054 495.3458 495.8880 495.9069
   495.9760 496.1918 497.3974 497.4634 499.8230 499.9993 500.1096 500.1942
   502.3192 502.4848 502.9528 503.0488 503.0616 503.2264 503.4632 503.5535
   503.9731 504.1577 504.2524 504.5810 504.6557 504.7764 504.8223 504.8602

     the Fermi energy is     6.9868 ev
     (compare with:     6.3814 eV, computed in scf)

     Writing all to output data dir out/mp-2172.save/
 
     init_run     :      0.03s CPU      0.06s WALL (       1 calls)
     electrons    :    649.00s CPU    688.36s WALL (       1 calls)

     Called by init_run:
     wfcinit      :      0.00s CPU      0.00s WALL (       1 calls)
     potinit      :      0.00s CPU      0.01s WALL (       1 calls)
     hinit0       :      0.01s CPU      0.03s WALL (       1 calls)

     Called by electrons:
     c_bands      :    649.00s CPU    688.34s WALL (       1 calls)
     v_of_rho     :      0.00s CPU      0.00s WALL (       1 calls)

     Called by c_bands:
     init_us_2    :      0.00s CPU      0.00s WALL (       8 calls)
     init_us_2:cp :      0.00s CPU      0.00s WALL (       8 calls)
     cegterg      :    622.02s CPU    659.42s WALL (       8 calls)

     Called by *egterg:
     cdiaghg      :    576.15s CPU    612.23s WALL (      90 calls)
     h_psi        :     12.43s CPU     12.91s WALL (      98 calls)
     g_psi        :      0.09s CPU      0.09s WALL (      82 calls)

     Called by h_psi:
     h_psi:calbec :      0.23s CPU      0.24s WALL (      98 calls)
     vloc_psi     :     11.85s CPU     12.31s WALL (      98 calls)
     add_vuspsi   :      0.16s CPU      0.16s WALL (      98 calls)

     General routines
     calbec       :      0.23s CPU      0.24s WALL (      98 calls)
     fft          :      0.00s CPU      0.02s WALL (      10 calls)
     fftw         :     10.83s CPU     11.25s WALL (  120158 calls)
 
     Parallel routines
 
     PWSCF        :  10m49.81s CPU  11m29.85s WALL

 
   This run was terminated on:   2:55:29  19Nov2023            

=------------------------------------------------------------------------------=
   JOB DONE.
=------------------------------------------------------------------------------=
