
     Program PWSCF v.7.1 starts on 20Dec2023 at 21:47:36 

     This program is part of the open-source Quantum ESPRESSO suite
     for quantum simulation of materials; please cite
         "P. Giannozzi et al., J. Phys.:Condens. Matter 21 395502 (2009);
         "P. Giannozzi et al., J. Phys.:Condens. Matter 29 465901 (2017);
         "P. Giannozzi et al., J. Chem. Phys. 152 154105 (2020);
          URL http://www.quantum-espresso.org", 
     in publications or presentations arising from this work. More details at
     http://www.quantum-espresso.org/quote

     Parallel version (MPI), running on     8 processors

     MPI processes distributed on     1 nodes
     123183 MiB available memory on the printing compute node when the environment starts
 
     Reading input from pw_mp-1958_nscf_k60_E54.in
Warning: card &IONS ignored
Warning: card / ignored
Warning: card &CELL ignored
Warning: card / ignored

     Current dimensions of program PWSCF are:
     Max number of different atomic species (ntypx) = 10
     Max number of k-points (npk) =  40000
     Max angular momentum in pseudopotentials (lmaxx) =  4

     Atomic positions and unit cell read from directory:
     out/mp-1958.save/
     Atomic positions from file used, from input discarded
 
 
     R & G space division:  proc/nbgrp/npool/nimage =       8
     Subspace diagonalization in iterative solution of the eigenvalue problem:
     one sub-group per band group will be used
     scalapack distributed-memory algorithm (size of sub-group:  2*  2 procs)

 
     Parallelization info
     --------------------
     sticks:   dense  smooth     PW     G-vecs:    dense   smooth      PW
     Min         148     148     43                 3413     3413     533
     Max         149     149     44                 3416     3416     536
     Sum        1189    1189    349                27317    27317    4279
 
     Using Slab Decomposition
 


     bravais-lattice index     =            2
     lattice parameter (alat)  =      12.6832  a.u.
     unit-cell volume          =     510.0684 (a.u.)^3
     number of atoms/cell      =            2
     number of atomic types    =            2
     number of electrons       =        26.00
     number of Kohn-Sham states=         1704
     kinetic-energy cutoff     =      54.0000  Ry
     charge density cutoff     =     216.0000  Ry
     Exchange-correlation= PBE
                           (   1   4   3   4   0   0   0)

     celldm(1)=  12.683218  celldm(2)=   0.000000  celldm(3)=   0.000000
     celldm(4)=   0.000000  celldm(5)=   0.000000  celldm(6)=   0.000000

     crystal axes: (cart. coord. in units of alat)
               a(1) = (  -0.500000   0.000000   0.500000 )  
               a(2) = (   0.000000   0.500000   0.500000 )  
               a(3) = (  -0.500000   0.500000   0.000000 )  

     reciprocal axes: (cart. coord. in units 2 pi/alat)
               b(1) = ( -1.000000 -1.000000  1.000000 )  
               b(2) = (  1.000000  1.000000  1.000000 )  
               b(3) = ( -1.000000  1.000000 -1.000000 )  


     PseudoPot. # 1 for Sr read from file:
     /usr/scratch4/magr4985/MG/HTDF/pseudo/SG15/Sr.upf
     MD5 check sum: 3f9bc8d6f3e8472da0cbe0e6a3044a9f
     Pseudo is Norm-conserving, Zval = 10.0
     Generated using ONCVPSP code by D. R. Hamann
     Using radial grid of  602 points,  6 beta functions with: 
                l(1) =   0
                l(2) =   0
                l(3) =   1
                l(4) =   1
                l(5) =   2
                l(6) =   2

     PseudoPot. # 2 for Te read from file:
     /usr/scratch4/magr4985/MG/HTDF/pseudo/SG15/Te.upf
     MD5 check sum: dd4de4dac1e38587f63aaf3700bb29d3
     Pseudo is Norm-conserving, Zval = 16.0
     Generated using ONCVPSP code by D. R. Hamann
     Using radial grid of  602 points,  6 beta functions with: 
                l(1) =   0
                l(2) =   0
                l(3) =   1
                l(4) =   1
                l(5) =   2
                l(6) =   2

     atomic species   valence    mass     pseudopotential
        Sr            10.00    87.62000     Sr( 1.00)
        Te            16.00   127.60000     Te( 1.00)

     48 Sym. Ops., with inversion, found



   Cartesian axes

     site n.     atom                  positions (alat units)
         1           Sr  tau(   1) = (   0.0000000   0.0000000   0.0000000  )
         2           Te  tau(   2) = (  -0.5000000   0.5000000   0.5000000  )

     number of k points=     8  Gaussian smearing, width (Ry)=  0.0005
                       cart. coord. in units 2pi/alat
        k(    1) = (   0.0000000   0.0000000   0.0000000), wk =   0.0312500
        k(    2) = (  -0.2500000   0.2500000  -0.2500000), wk =   0.2500000
        k(    3) = (   0.5000000  -0.5000000   0.5000000), wk =   0.1250000
        k(    4) = (   0.0000000   0.5000000   0.0000000), wk =   0.1875000
        k(    5) = (   0.7500000  -0.2500000   0.7500000), wk =   0.7500000
        k(    6) = (   0.5000000   0.0000000   0.5000000), wk =   0.3750000
        k(    7) = (   0.0000000  -1.0000000   0.0000000), wk =   0.0937500
        k(    8) = (  -0.5000000  -1.0000000   0.0000000), wk =   0.1875000

     Dense  grid:    27317 G-vectors     FFT dimensions: (  45,  45,  45)

     Estimated max dynamical RAM per process >     192.57 MB

     Estimated total dynamical RAM >       1.50 GB

     The potential is recalculated from file :
     out/mp-1958.save/charge-density

     Starting wfcs are random

     Band Structure Calculation
     ParO style diagonalization

     ethr =  5.00E-06,  avg # of iterations =  5.9

     total cpu time spent up to now is     2113.8 secs

     End of band structure calculation

          k = 0.0000 0.0000 0.0000 (  3479 PWs)   bands (ev):

   -28.2860 -28.2860 -28.2732 -28.2732 -28.2732 -27.8411  -9.8126  -9.8126
    -9.8126  -3.0402   6.8713   6.8713   6.8713   9.6243  10.1893  10.1893
    10.1893  10.8151  10.8151  14.3987  18.6677  18.6677  18.6677  18.9246
    18.9246  18.9246  21.9142  21.9142  23.3750  25.9508  25.9508  25.9508
    27.3254  27.3254  27.3254  28.4666  28.4666  31.0768  31.0768  31.0768
    33.4744  33.4744  33.4744  34.4963  34.4963  34.4963  34.8410  35.5770
    36.7197  37.1349  37.1349  37.1349  39.0789  39.0789  39.0789  39.3736
    39.3736  39.3736  39.9526  39.9526  39.9526  40.6246  40.6246  42.4598
    44.6621  44.6621  45.1624  45.1624  45.1624  51.2581  51.2581  51.2581
    52.6578  55.0759  55.0759  55.0759  55.5801  55.5801  55.5801  57.2812
    57.2812  57.2812  57.7455  57.8428  57.8428  61.8559  62.1218  62.1218
    62.1218  62.1247  62.1247  62.6321  62.6321  62.6321  63.6197  63.6197
    63.6197  63.8823  63.8823  63.8823  64.8989  64.8989  64.8989  65.1548
    65.1548  65.1548  65.7131  65.7131  65.7131  65.7469  65.7469  66.1503
    66.1503  67.3094  67.3094  67.3094  68.2288  68.9365  71.9879  73.6116
    73.6116  73.6116  74.1603  74.1603  74.1603  76.2460  76.2460  78.2452
    78.2452  78.2452  79.1192  79.1192  79.1900  79.1900  79.1900  79.2583
    79.2583  79.2583  79.4976  79.4976  79.4976  80.1683  80.4614  80.4614
    80.4614  83.1315  83.1315  84.0423  84.4065  85.1523  85.1523  85.1523
    86.1784  86.1784  86.1784  87.1141  87.5581  87.5581  87.5581  88.0525
    88.0525  88.0525  88.3553  88.3553  88.3553  88.9890  88.9890  88.9890
    93.0463  93.0463  93.1717  93.1717  93.1717  93.3769  97.7616  98.1999
    98.1999  98.1999  99.6315  99.6315  99.6315  99.9346  99.9346 102.0126
   102.0126 102.0126 102.7321 102.7321 102.7321 102.8465 102.8465 104.7570
   104.7570 104.7570 105.7572 107.9441 107.9441 107.9441 107.9649 109.3687
   109.3687 109.3687 110.3028 110.3028 110.3028 110.3171 110.3171 110.3171
   110.6095 110.6095 111.3401 112.1356 112.8661 112.8661 112.8661 113.1887
   113.1887 113.1887 114.2083 115.1204 115.1204 115.1204 115.5316 115.5316
   116.6754 116.6754 116.6754 117.3624 117.4346 117.4346 117.4346 117.5323
   117.5323 117.5323 118.3539 118.3539 118.3539 118.4691 118.4691 118.5063
   118.5063 118.5063 118.5169 118.5169 118.5169 118.7451 118.7451 118.9968
   118.9968 118.9968 119.2438 119.2438 119.2881 119.2881 119.2881 119.6838
   119.6838 119.6838 119.9873 122.0364 122.0364 122.1086 122.1086 122.1086
   125.4333 125.4333 125.4333 125.8747 125.8747 125.8747 126.0261 126.0261
   126.0261 127.8143 127.8143 127.8143 128.5295 128.7906 128.7906 128.7906
   129.8776 129.8776 133.0396 133.0396 133.0396 133.0592 133.0592 133.1894
   133.2790 133.8820 133.8820 133.8820 135.9858 138.5620 138.5620 138.5620
   140.7347 140.7347 140.7347 141.4329 141.4329 141.4329 141.7151 141.7151
   141.7151 141.8075 141.8075 141.8075 141.9549 141.9549 142.0176 142.9924
   142.9924 143.2048 143.2048 143.2107 143.2107 143.2107 143.2147 143.2147
   143.2147 144.1861 144.1861 144.1861 144.2792 144.2792 144.2792 144.5911
   144.5911 144.5911 144.8768 144.8768 144.9861 146.2099 146.2099 146.2099
   147.7808 147.7808 147.7808 149.3002 153.8231 153.8231 153.8231 154.3665
   154.3665 154.3665 154.7045 155.1099 155.2875 155.2875 156.6817 156.6817
   156.6817 157.6174 157.6174 157.6174 158.9584 158.9584 159.7522 159.7522
   159.7522 160.5777 160.9270 160.9270 160.9270 161.4273 161.4273 161.4273
   164.1112 165.1061 165.1061 165.1061 165.9708 165.9708 165.9708 166.1173
   166.1173 166.1173 166.3818 166.3818 166.3818 167.6409 167.6409 168.8192
   168.8781 168.8781 168.8781 169.4725 169.4725 169.4725 169.9536 169.9536
   169.9536 170.1937 170.1937 170.1937 170.3929 170.3929 170.3929 170.4031
   170.4031 170.5658 170.5658 170.5658 170.7246 173.1321 173.1321 173.1584
   173.1584 173.1584 173.2167 174.4170 174.4170 174.4170 176.2930 176.2930
   176.4418 178.3956 178.3956 178.3956 178.8680 178.8680 178.8680 180.3776
   180.3776 180.7520 180.7520 180.7520 181.3544 181.5240 181.5240 181.5240
   181.6021 181.6021 181.6309 181.6309 181.6309 181.7631 181.7631 181.7631
   182.3810 182.3810 182.3810 184.7136 184.7530 184.8089 184.8089 184.8089
   185.8790 185.8790 185.8790 185.9636 185.9636 185.9636 185.9722 185.9722
   186.0081 186.0081 186.0627 186.0627 186.0627 186.2731 186.2731 186.2731
   186.2754 186.2754 186.2754 186.2775 186.2775 186.2775 187.7275 187.7766
   187.7766 187.7766 187.8401 187.8401 187.8401 187.9183 188.1544 188.1544
   188.1544 188.8780 188.8780 189.3610 189.4707 189.4707 189.4707 189.8757
   189.8757 190.1717 190.1717 190.1717 190.4097 193.1955 193.1955 194.0492
   194.0492 194.0492 194.3668 194.3668 194.3668 194.8790 194.8790 194.8790
   195.0301 195.0301 195.0301 195.9585 195.9585 196.0181 196.0181 196.0181
   196.1048 196.5060 196.5068 196.5068 196.5068 196.5420 196.5420 197.9800
   197.9800 197.9800 198.1575 198.1575 198.1575 198.3767 198.3767 198.3767
   198.5220 198.5220 198.5220 199.4262 199.4758 199.4758 199.4758 199.4944
   199.4944 203.4317 203.4317 203.4317 213.0233 213.0233 213.0233 213.2974
   213.2974 213.2974 213.7170 213.7170 215.0372 216.2571 216.2636 216.2636
   217.2055 217.2055 217.2055 217.5989 217.5989 217.5989 217.7150 217.7150
   217.7150 218.1286 218.1286 218.1286 218.4348 218.4348 218.4348 219.2780
   219.4496 219.4496 219.4496 219.5282 219.5282 219.5282 219.5905 219.5905
   219.5905 219.6217 219.6217 219.6581 219.6581 219.6581 219.6684 219.8378
   219.8378 219.8378 220.7501 224.1070 224.1070 224.5470 224.5470 224.5470
   224.7102 224.7102 224.7900 224.7900 224.7900 225.0476 225.0476 225.0476
   225.2343 225.2343 225.2343 226.0618 226.0618 226.1694 226.1694 226.1694
   226.4316 227.7445 227.7445 227.7445 227.9552 227.9552 228.9923 228.9923
   228.9923 229.9920 229.9920 230.6709 230.6709 230.6709 230.7952 230.7952
   230.7952 232.2813 232.6699 232.6699 232.6699 233.9043 233.9043 233.9043
   235.9919 236.5096 236.5096 236.5096 236.5140 236.5889 236.5889 237.1639
   237.1639 237.6243 237.6243 237.6243 237.6317 237.6317 237.6317 237.6705
   237.6705 237.6705 237.8415 237.8415 237.8415 238.4018 238.4018 238.4018
   238.9250 239.2237 239.2237 242.0223 242.0223 242.0223 242.5463 243.6066
   243.6066 243.6066 243.9264 243.9264 243.9264 244.1969 244.1969 244.1969
   244.3339 244.3339 244.3339 244.4819 244.8899 246.7491 246.7491 246.7491
   247.5744 247.5744 248.6880 248.6880 248.7184 248.7184 248.7184 248.9920
   248.9920 248.9920 248.9925 249.3270 249.3270 249.4133 249.4133 249.4133
   249.4209 249.4209 249.4209 249.5476 249.5476 249.5484 249.5484 249.5484
   249.8905 249.8905 249.8905 249.8955 250.0246 250.0246 250.0246 250.5565
   250.5565 250.5565 250.6111 251.3084 251.3084 251.3084 251.8528 251.8528
   251.8528 251.9032 251.9032 251.9607 251.9607 251.9607 252.0762 252.0762
   252.0762 252.1857 253.1634 255.2938 255.2938 258.3970 258.3970 258.3970
   258.8581 258.8581 258.8581 259.2589 259.2589 259.2589 259.5766 259.5766
   259.5766 260.0459 260.2327 260.2327 260.2327 260.7433 260.7433 260.9284
   260.9284 260.9284 261.1175 261.6964 261.6964 261.6964 266.8219 266.8219
   266.8219 267.0945 268.5647 269.1269 269.1269 269.1269 269.1679 269.1679
   269.6380 269.6380 269.6380 269.6562 269.6562 269.6562 270.1557 270.1557
   270.1557 270.1674 270.1674 270.1674 270.2498 270.2498 272.3184 272.3184
   272.3184 272.3736 272.5199 272.5199 272.5199 272.5459 272.5459 272.5459
   272.7280 272.7280 272.7280 273.2545 273.2545 273.5407 273.5407 273.5407
   273.5483 273.5483 273.5483 273.8318 273.8318 274.5658 274.5658 274.5658
   274.6719 274.6719 274.6719 275.4697 275.4697 275.4697 275.7176 275.7176
   275.7509 275.7509 275.7509 275.7804 275.7804 275.7844 275.8604 275.8604
   275.8604 275.8698 275.8698 275.8698 275.9649 275.9649 275.9649 277.6094
   277.6349 277.6349 277.6349 277.6524 277.6524 277.6524 277.6606 279.3095
   279.3095 279.3095 279.3308 279.3308 279.3681 279.3681 279.3681 279.4691
   279.6241 279.6241 279.6241 279.7039 279.7039 279.7039 279.7735 279.7735
   279.7735 279.7795 279.7795 279.9198 279.9446 279.9446 279.9446 279.9584
   279.9584 279.9665 279.9665 279.9665 280.0748 282.0687 282.0687 282.0687
   283.3886 283.3886 283.3886 283.5597 283.7627 285.8905 285.8905 289.4420
   289.4420 289.4420 290.9509 290.9509 290.9509 291.5525 291.5525 291.8740
   291.8740 291.8740 291.9586 291.9586 291.9586 292.0432 292.0432 292.0432
   292.0576 292.0576 292.0608 292.0608 292.0608 292.3363 292.8577 292.8577
   292.8577 292.9512 292.9512 292.9512 293.0078 293.0078 293.0078 296.6357
   296.6357 296.8315 296.8315 296.8315 296.8818 298.8531 298.8531 301.2943
   301.2943 301.2943 301.4939 301.4939 301.5061 303.8308 303.8308 303.8308
   304.7230 304.7230 304.7230 304.7506 304.7506 304.7506 304.7532 304.7532
   304.7532 304.9362 304.9362 304.9362 306.1761 306.1761 306.1980 306.1980
   306.1980 306.2332 309.8878 309.8878 309.8878 311.9537 311.9537 311.9537
   313.8532 313.8532 313.9835 313.9835 313.9835 314.5698 314.7285 314.7285
   314.7285 315.1625 315.4772 315.4772 315.4772 315.6401 315.6401 315.6401
   315.6508 315.6508 315.6508 315.6553 315.7962 315.7962 316.3682 316.3682
   316.3682 316.4553 316.4553 316.8349 316.8349 316.8349 317.1555 317.7510
   318.4426 318.4426 318.4426 319.3718 319.3718 319.6125 319.6125 319.6125
   319.8079 319.8079 319.8079 320.3920 320.3920 320.3920 320.5341 321.0162
   321.0162 321.0162 321.9817 323.8704 323.8704 324.7750 324.7750 324.7750
   324.8639 324.8639 324.9313 324.9313 324.9313 325.2133 325.2133 325.2133
   325.3544 325.3544 325.3544 326.7126 326.7126 326.7126 326.8709 326.9326
   326.9326 326.9326 327.1964 329.1572 329.1572 329.1572 329.2259 329.2259
   329.3041 329.3041 329.3041 329.4620 329.4620 329.4620 329.4893 329.4893
   329.5294 329.5294 329.5294 329.7306 329.7306 329.7306 329.8022 329.8022
   329.8022 329.8586 329.8586 329.8774 329.9767 329.9767 329.9767 330.7656
   330.7656 330.7656 330.7665 330.7665 330.7669 330.7669 330.7669 330.7722
   330.7722 330.7722 330.8185 336.0397 336.0397 336.0397 338.2260 338.2260
   338.2917 338.2917 338.2917 338.3832 338.3832 338.3832 338.4207 338.4207
   338.4207 339.4551 339.4551 339.4551 339.7594 340.0487 340.0487 340.0487
   340.1275 340.1275 340.1275 340.1545 340.1545 340.2217 340.2217 340.2217
   340.3796 342.1471 342.1471 342.1471 342.6828 342.6828 342.8032 342.8032
   342.8032 343.0449 343.1000 343.1000 343.1000 343.2045 343.2045 343.6280
   343.6280 343.6280 345.6514 345.6514 345.6949 345.6949 345.6949 345.8177
   345.8177 345.8177 345.8723 345.8723 345.8723 345.9135 345.9269 346.0419
   346.0419 346.0846 346.0846 346.0846 346.2297 346.2297 346.2297 346.3197
   346.3197 346.3197 346.3978 346.4150 346.4150 346.4150 346.4525 346.4525
   346.4525 346.4708 346.4708 346.5761 346.5761 346.5761 346.7093 346.7093
   346.7093 346.7351 346.7351 346.7351 346.8032 346.8032 346.9785 346.9785
   346.9785 347.1342 347.4311 351.2972 351.2972 351.2972 351.6907 351.8912
   351.8912 351.8912 352.0339 352.0339 352.0339 352.0349 352.0349 353.1613
   353.1613 353.1613 353.8794 353.8794 353.8794 353.8914 353.8914 353.8914
   353.9065 354.0373 354.0373 354.0742 354.0742 354.0742 354.4126 354.4126
   354.4126 354.4608 354.5613 356.6156 356.6156 356.6156 356.6210 356.6343
   356.6343 357.1236 357.1236 357.2209 357.2209 357.2209 357.2269 357.2269
   357.3792 357.3792 357.3792 357.4712 357.4712 357.4712 357.5290 357.5290
   357.5290 357.6915 357.8005 357.8005 357.8005 357.8231 357.8231 357.8231
   357.8238 357.8238 357.8238 358.0923 358.1353 358.1353 358.1353 358.1967
   358.1967 358.1967 358.2771 358.2771 358.2771 358.2921 358.2921 358.3661
   358.3661 358.3661 358.5553 369.3546 369.3546 370.3633 370.3633 370.3633
   375.1255 375.1255 375.1255 375.6000 375.6000 375.7107 375.7107 375.7107
   376.0069 376.5471 376.5471 376.5471 376.7161 376.7161 376.7161 376.7539
   376.7539 376.7539 376.7567 376.7701 376.7701 376.7701 376.8088 376.8088
   377.1806 377.1806 377.1806 377.5051 377.5702 378.4625 378.4625 378.4625
   378.6035 378.6035 378.6035 378.8407 378.8407 378.8407 378.8900 378.8900
   378.8900 379.8015 379.8015 379.8513 379.8513 379.8677 379.8677 379.8677
   379.8682 379.8682 379.8682 379.9398 379.9420 380.6469 380.6469 380.6469
   380.7900 380.7900 380.7900 380.8513 380.8513 380.8513 381.1299 381.1299
   381.2039 381.2039 381.2039 381.4914 381.4914 382.4595 382.4595 382.4595
   382.5489 382.5489 382.5638 382.5638 382.5638 382.5693 382.5693 382.5693
   382.5710 382.5710 382.5710 382.6507 382.6507 382.6898 382.6911 382.6911
   382.6911 382.7019 382.7019 382.7019 382.7231 384.6954 384.6954 384.6954
   385.0972 385.6176 385.6176 385.6176 385.6404 385.6404 385.7434 385.7434
   385.7434 385.8504 385.8504 385.8504 385.9214 385.9214 385.9214 385.9253
   385.9253 387.7000 387.7260 387.7260 387.7260 387.7641 387.7641 387.7641
   387.8125 393.8480 393.8480 393.8480 393.9289 394.0655 394.0655 394.3818
   394.3818 394.3818 395.1852 395.1852 395.1852 395.2319 395.2319 395.2319
   395.2357 395.2357 395.2357 395.5471 395.5471 396.3974 396.3974 396.3974
   396.5124 396.6315 396.6315 396.6315 398.9819 398.9819 398.9819 399.0706
   399.2376 399.6188 399.6188 399.6269 399.6269 399.6269 399.6655 399.8402
   399.8402 399.8402 399.9106 399.9106 399.9106 399.9345 399.9345 399.9345
   399.9520 399.9520 399.9520 400.0931 400.0931 400.1419 400.1419 400.1419
   400.1829 404.6590 404.6590 404.6590 405.4410 405.4410 405.4410 405.4456
   405.4456 405.4456 405.4588 405.4588 405.4588 408.0878 408.0878 408.3587
   408.3587 408.3587 408.4875 408.4875 408.4875 408.5495 408.5495 408.5495
   408.5991 408.5991 408.5991 408.6077 408.6077 412.8143 412.8143 412.8143
   413.4263 413.4335 413.4335 413.4413 413.4413 413.4413 414.5866 414.5866
   416.1013 416.1013 416.1013 416.1740 416.1740 416.1740 416.2412 416.2412
   416.2412 416.3075 416.3075 416.6583 419.7063 419.7063 419.7063 420.0112
   420.0112 420.0112 420.0254 422.9943 422.9943 424.3568 424.3568 424.3568
   425.2847 425.5173 425.5173 425.5173 425.9997 425.9997 425.9997 426.2762
   426.2762 426.2762 426.4102 426.4102 426.4102 428.8561 429.7102 429.7102
   429.7102 429.9598 429.9598 430.4642 430.4642 430.4642 430.7911 431.1104
   431.1104 431.1104 431.1299 431.1299 431.1299 431.3469 431.3469 431.3469
   431.4566 431.4566 431.4931 431.4931 431.9291 431.9291 431.9291 431.9841
   431.9841 431.9841 432.2950 432.2950 432.2950 432.3827 432.4895 432.4895
   432.4895 432.7285 432.7285 432.7285 432.7830 432.7830 432.7955 433.0980
   433.0980 433.0980 433.2413 433.2413 433.6630 433.9711 433.9711 433.9711
   434.4683 434.7897 434.7897 434.7897 434.8533 434.8533 434.9188 434.9188
   434.9188 435.0475 435.0475 435.0475 435.2838 435.2838 435.2838 435.3656
   435.3994 435.3994 435.3996 435.3996 435.3996 435.7345 435.7345 435.7400
   435.7400 435.7400 435.9801 435.9801 435.9801 436.1782 436.1782 436.1782
   436.3918 436.5831 436.5831 436.5831 436.6547 436.6547 436.7477 436.7477
   436.7477 436.9929 436.9929 436.9929 437.4365 437.4859 437.4859 437.5490
   437.5490 437.5490 437.8495 437.8495 437.8495 438.0359 438.0359 438.0359
   438.1292 438.2452 438.2452 438.2452 438.2958 438.2958 438.2958 438.3014
   438.3014 438.3014 438.3628 438.3628 438.3628 438.8869 438.9968 438.9968
   438.9968 439.0130 439.0130 439.0639 439.0639 439.0639 439.0808 439.0808
   439.0808 439.7824 439.7824 439.8009 439.8009 439.8009 439.8346 442.5853
   442.5853 442.5853 443.0473 443.0757 443.0757 443.0757 443.1827 445.1522
   445.1522 445.6271 445.8197 445.8197 445.8197 446.0273 446.0273 446.0273
   446.1866 446.1866 446.1866 446.8381 446.8381 446.8381 446.8576 446.8576
   447.4068 447.4068 447.4068 447.5431 447.5431 447.5431 447.7210 452.0745
   452.0745 452.0835 452.0835 452.0835 452.0944 452.0944 452.1004 452.1004
   452.1004 452.1220 452.1220 452.1220 452.1265 452.1265 452.1265 454.9125
   454.9125 455.1987 455.1987 455.1987 457.0353 457.0974 457.0974 457.0974
   457.2361 457.2361 457.2361 457.2399 457.2399 457.2819 457.2819 457.2819

          k =-0.2500 0.2500-0.2500 (  3416 PWs)   bands (ev):

   -28.2861 -28.2861 -28.2732 -28.2731 -28.2731 -27.8393  -9.8707  -9.8149
    -9.8149  -2.7586   5.1819   6.2548   6.2548  10.1068  10.9108  10.9108
    11.9296  12.2090  12.2090  15.1274  16.2360  16.2360  16.6335  18.9989
    18.9989  20.7202  22.9246  22.9246  23.1039  23.5302  23.5302  26.5565
    26.9177  28.6301  28.6301  29.3273  29.3273  30.0518  30.4359  30.4359
    30.5042  31.3763  33.2207  33.2207  34.8003  35.0680  35.4792  35.4792
    36.5230  36.6797  36.6797  38.2890  38.2890  38.9944  39.3707  39.3707
    41.1640  41.3860  41.3860  41.4120  43.0424  43.0424  43.5462  44.1920
    46.2136  46.7337  46.7337  47.1166  47.1166  49.3777  49.5498  49.5498
    51.4547  51.4547  53.3949  53.8536  53.8536  54.1432  54.8733  54.8733
    55.0778  55.9496  55.9496  56.1042  56.1489  57.7495  57.9259  57.9259
    59.9892  60.4259  60.4259  61.2745  62.5560  62.5560  62.9105  62.9105
    62.9998  63.8165  65.6411  65.7620  65.7620  66.0430  66.0430  66.2880
    66.2880  66.6309  67.0808  67.0808  67.2882  67.9039  67.9039  68.1090
    69.5446  70.3594  70.3594  71.3756  71.3756  71.5300  71.5965  71.5965
    73.1679  73.4319  73.4319  73.6156  75.1515  75.1515  76.2325  76.2325
    76.4608  76.7664  77.0706  77.5373  77.5373  78.2463  78.5376  78.7906
    78.7906  79.3676  79.3676  79.7293  80.3951  80.3951  80.9914  82.7461
    82.7461  82.8200  83.6330  84.2836  84.2836  85.0193  85.3253  85.3253
    85.9693  86.4480  86.4480  86.5518  87.7309  87.7309  88.6139  88.6139
    89.0673  89.9535  91.5086  91.8506  91.8506  92.5489  92.5489  93.8762
    93.8852  94.1710  94.1710  95.0366  95.0366  96.2579  96.2579  96.5093
    97.1258  97.1258  97.7869  98.5070  98.9946  99.5410  99.8407  99.8407
   101.0757 101.0757 101.5081 101.5081 101.6765 101.9225 102.6870 102.6870
   102.7146 103.3310 103.3310 104.0220 104.4257 104.4257 105.0513 105.6330
   105.6330 106.1045 106.1045 106.5610 107.0358 107.9011 108.4240 108.4240
   110.2605 110.2605 110.7990 111.8536 111.8536 112.3285 112.3285 112.6462
   113.1873 113.5089 113.5089 113.6531 113.7515 113.7515 114.0762 114.2827
   114.2827 114.5126 114.5126 115.0955 115.0955 115.1202 115.8510 116.2537
   116.2537 116.5931 116.5931 116.6255 116.7099 117.5184 118.0935 118.0935
   118.3885 119.3024 120.4800 120.4800 120.5837 120.6237 120.6237 120.7841
   121.6580 121.6580 121.7451 122.3683 122.4004 122.4004 123.0059 123.0059
   123.6579 123.6579 124.5966 124.8226 124.8226 124.9329 125.1395 125.1395
   126.3633 126.5371 126.5371 127.6158 127.6403 128.3119 128.3119 128.3515
   128.9186 128.9186 129.0179 130.2431 130.2431 130.9804 130.9804 132.5055
   133.1042 133.1042 133.6102 133.6102 134.0095 134.2271 134.2767 134.5919
   134.5919 134.7633 134.7831 134.7831 134.9683 135.0243 135.0243 135.1805
   135.7044 135.7044 136.3912 136.5050 136.5050 136.9524 138.9633 138.9633
   139.2354 139.2354 139.4515 140.0473 140.3487 140.3487 141.0038 141.0038
   141.4400 141.8791 143.3789 143.3789 144.1980 144.1980 144.5972 144.6145
   144.6145 144.9300 146.5953 146.8122 146.8122 147.6539 147.6539 147.8475
   148.5157 150.1873 150.1873 150.2056 150.3833 151.0117 151.0117 151.7898
   151.7898 152.9468 152.9468 153.0104 153.3979 153.4153 153.4153 153.6244
   153.7864 153.7864 154.3427 154.3427 154.3867 154.5098 154.7404 155.1232
   155.1232 156.2025 156.7712 156.7712 157.8832 157.9427 157.9427 158.4641
   158.9283 158.9283 159.5669 159.6661 159.8664 159.8664 160.5060 160.6726
   160.6726 160.9743 161.1524 161.1524 162.0951 162.0951 162.6234 162.6234
   162.6739 162.7313 162.7313 163.0908 163.3983 165.2671 165.2671 166.9509
   166.9509 167.7923 167.7923 168.1102 168.4820 168.4820 168.5513 169.8537
   169.8973 169.8973 170.2514 170.7737 170.7737 171.1806 171.2311 171.2917
   171.2917 171.4990 171.4990 171.7778 171.8433 172.2101 172.2101 172.2609
   172.2609 172.3496 172.6383 173.3299 174.4006 174.4006 175.0914 175.0914
   175.8825 175.8825 176.6225 177.0235 177.0235 177.3020 177.3020 177.3090
   177.5819 177.5921 177.5921 178.2297 178.2297 178.3314 178.3314 178.5172
   178.5897 178.8835 179.0220 179.0220 180.0550 180.3450 181.1029 181.3085
   181.3085 181.7140 181.7140 181.7216 182.1227 182.1227 182.4771 183.1005
   183.1005 183.5841 183.5841 183.6653 183.8931 184.7197 185.0724 185.0724
   185.5294 185.8440 185.8440 186.5644 186.5644 186.7177 186.7177 186.8114
   187.2929 187.3242 187.3242 187.3354 187.4375 187.4375 187.4579 188.6122
   188.6122 188.7692 189.5426 189.5885 189.5885 190.5197 190.5197 190.8407
   190.9124 190.9124 190.9523 191.3214 191.4867 191.4867 192.2973 192.3213
   192.3213 193.2657 193.3119 193.3119 194.4225 195.4299 195.9726 196.0692
   196.0692 196.5303 196.5303 196.6682 197.1625 197.1625 198.3126 198.3126
   198.4118 199.1811 199.1811 199.7714 199.9806 199.9806 200.4957 200.6314
   200.6314 201.0420 201.1844 201.1844 201.8167 201.8167 202.4453 203.1005
   203.1005 203.5847 203.5847 203.9156 203.9277 204.1876 204.5849 204.5849
   205.1062 205.1062 205.6502 205.6502 206.0612 206.1733 206.3882 206.3882
   206.7230 206.7230 206.8089 206.8089 207.2162 207.6470 207.6470 207.8082
   207.8082 207.8394 208.1137 208.1137 208.3497 208.4713 208.5779 208.8348
   209.1874 211.1652 211.2908 211.2908 211.9220 213.1945 213.1945 213.4865
   213.4865 213.9928 214.0829 214.0829 214.7572 215.5840 215.5840 215.7779
   215.7779 216.0431 216.2177 216.2177 216.6188 217.7287 217.7287 218.1194
   218.3309 218.3309 218.6521 218.7067 218.7067 219.3358 219.7335 219.7335
   220.1394 220.4433 220.4433 221.0303 221.7516 223.0265 223.0265 224.2758
   224.2758 224.6311 224.6655 224.6655 224.6965 225.1884 225.6953 225.6953
   226.0494 227.0814 227.0814 227.6252 227.6252 227.8925 227.8925 227.9661
   228.0273 228.7245 228.9151 228.9151 229.3974 229.3974 229.6327 229.6327
   230.2917 230.4423 230.7210 230.7210 231.3096 231.5990 231.9075 231.9075
   232.2561 232.3895 232.3895 232.5441 232.6201 232.6201 232.8444 232.9228
   232.9228 233.0117 233.0117 233.0245 233.2960 233.2960 233.6140 233.8041
   234.4639 234.4639 234.6638 235.0698 235.0698 236.0315 236.1658 236.1658
   236.3366 236.9464 236.9464 237.5241 238.2826 238.8654 238.8654 239.7131
   240.4740 240.5440 240.5440 240.5648 241.0963 241.0963 241.2619 241.2831
   241.2831 242.2331 244.5603 244.5603 244.7376 244.7376 244.9265 244.9265
   245.0895 245.4608 245.5862 245.7573 245.7573 246.4730 246.4730 246.6121
   246.6121 246.8869 247.3019 247.3813 247.3813 247.4755 247.6807 247.6807
   247.7637 247.7637 247.8200 248.8835 249.1494 249.1494 249.6504 249.6504
   249.8737 249.8737 250.5942 251.4225 251.4225 251.4653 251.4653 251.5133
   251.5975 252.2171 252.2171 252.3019 252.3418 252.3418 252.4773 252.4773
   252.7009 252.7707 253.1269 253.2614 253.6292 253.6292 253.8887 253.8887
   254.7733 254.7733 254.8889 254.8889 254.9998 255.1451 255.2466 255.2560
   255.2560 255.3263 255.4872 255.4872 255.5946 256.9293 256.9974 256.9974
   257.0426 257.0426 257.0821 257.2396 257.6123 257.6123 257.7406 257.7406
   257.8222 258.1141 258.8706 258.8706 259.0761 259.0761 260.0492 260.0658
   260.0658 260.3349 260.5859 260.5859 260.6081 263.7580 264.1257 264.1257
   264.4183 264.4183 264.4261 265.5578 265.5578 265.6663 265.8803 265.8803
   265.9147 266.0065 266.0125 266.0125 266.0468 266.0468 266.3047 266.4158
   266.4158 266.7461 267.5537 267.5871 267.5871 267.7588 268.3109 268.3109
   268.4166 268.7037 268.7037 268.9145 269.4066 269.4066 270.1954 270.1954
   270.2305 270.6089 270.8877 270.8877 270.8964 270.8964 271.0392 271.1540
   271.1540 271.8391 272.1458 272.1458 272.5345 272.6687 272.8673 272.8673
   273.0978 273.2792 273.2792 273.6642 274.9910 274.9910 275.1486 275.1590
   275.1590 275.8566 276.3731 276.3731 276.4893 276.7872 276.7872 276.8890
   277.7691 277.7691 278.3621 278.4643 278.4643 279.6036 279.6183 279.6183
   279.7805 279.7805 280.5065 280.8608 280.8608 280.8741 281.0727 282.0366
   282.1800 282.1800 283.1220 283.3408 283.3408 283.4228 283.4228 283.5007
   283.5007 283.5020 283.7715 284.3712 284.7538 284.7538 285.1663 285.1663
   285.2300 285.6144 285.6144 285.9191 286.1779 286.3665 286.3665 286.7215
   286.7215 286.8774 287.1489 287.1489 287.2297 287.4261 287.4261 287.6337
   287.7030 287.7030 287.7693 287.8834 287.9924 287.9924 287.9960 290.7752
   290.7752 291.0861 291.0861 291.7604 291.7604 291.7613 291.8410 291.9291
   292.1587 292.1587 293.6253 293.6253 293.6826 295.0605 295.0605 295.0621
   295.1026 295.2191 295.2191 295.3920 295.3920 295.6216 295.6216 295.6610
   295.8708 296.2799 296.5340 296.5340 296.6809 296.6809 296.6883 296.7247
   298.3055 298.3055 298.6277 299.0342 299.0342 299.3422 299.3422 299.3664
   300.1731 300.1731 301.3755 301.3755 301.8394 302.5121 302.5121 302.5551
   302.8160 302.9328 302.9328 303.1511 303.1991 303.1991 303.2124 303.3341
   303.3341 303.4684 303.4684 303.6098 304.6375 304.6375 304.6734 305.5891
   305.6603 305.6603 305.9652 307.2681 307.3595 307.3595 308.1574 308.4479
   308.4479 309.1252 309.1252 309.2087 310.9024 310.9491 310.9491 311.4212
   311.5859 311.5859 312.4644 312.7712 312.7712 312.8894 313.3641 313.3641
   313.6364 314.2862 314.6300 314.6300 315.1476 315.1476 315.2765 315.2765
   315.5051 315.8058 315.8058 316.0318 316.3047 316.3571 316.9520 316.9520
   317.1419 317.1419 317.2627 317.6722 317.6722 318.1686 318.1686 318.2051
   318.6249 318.6249 319.2802 319.3811 319.3811 319.5047 319.7082 319.7082
   320.1514 320.1514 320.3105 320.7942 321.1988 321.1988 321.2978 321.3064
   321.3064 321.4482 321.4482 321.4834 322.0823 322.3232 322.3232 322.3385
   322.5753 322.5753 322.7333 323.4385 323.4385 323.6028 323.6712 323.6712
   323.7191 324.2506 324.2506 324.9135 325.8678 325.8678 325.9259 326.6277
   326.6383 326.6383 326.6758 326.6758 326.7236 326.7419 326.7419 326.7468
   326.8826 326.8826 327.4033 328.1873 328.1873 329.0000 329.1898 330.3260
   330.3260 330.9717 331.0202 331.0202 331.1330 331.1661 331.1661 331.2181
   331.6741 331.6741 331.6949 331.8223 331.8223 331.8433 332.1113 332.1113
   332.1414 332.2451 332.2451 332.4465 333.3150 333.3150 333.5481 334.8702
   334.8702 335.1061 335.2359 335.2391 335.2391 335.5246 335.5246 336.2275
   336.3723 336.3723 336.7914 336.9790 336.9790 337.0056 337.2524 337.2524
   337.3385 337.6627 338.3400 338.3400 339.2298 339.3298 339.5114 339.5114
   339.9002 339.9002 340.0037 340.0037 340.4012 340.7633 340.7633 340.9536
   341.4084 341.4084 341.4871 341.9464 341.9464 341.9639 342.4385 342.5762
   342.5762 342.7189 342.7189 343.1281 343.1281 343.1906 343.2781 343.6364
   343.6364 343.6571 343.6571 343.7177 344.1054 344.1622 344.1622 344.9292
   345.5883 345.5883 345.6768 345.9658 346.0245 346.0245 346.0904 346.8011
   347.3334 347.3334 347.8224 347.8326 347.8326 348.1105 348.2067 348.2067
   348.2113 348.6629 348.8545 348.8545 349.8169 349.8169 350.7305 350.7305
   351.0960 351.0960 351.3269 351.3269 351.3631 351.4589 351.4948 351.4948
   351.5741 351.6268 351.6268 351.7509 352.7533 353.0097 353.0097 353.1483
   353.4520 353.4520 353.8453 353.8776 353.8776 354.0032 354.0032 354.0803
   354.1606 354.5127 354.5127 354.6644 354.6644 354.8735 354.8735 355.0263
   355.0478 355.3720 355.5556 355.5556 356.0708 356.0708 356.4006 356.9717
   357.4171 357.4171 358.1178 358.1178 358.3548 358.3548 358.5723 358.6334
   358.6334 358.6667 358.8705 358.8705 358.9160 359.1659 359.6831 359.6831
   360.2290 360.2290 360.8638 361.0767 361.0767 361.0868 361.6171 362.4953
   362.4953 363.1524 363.2327 363.2327 364.6676 364.6971 364.6971 364.9260
   364.9260 365.0810 365.1513 365.1513 365.1763 365.3311 365.3311 365.3767
   366.2460 366.4707 366.5748 366.5748 366.9360 366.9360 367.0506 367.2800
   368.0878 368.0878 368.1242 368.5623 368.5623 368.8081 368.8081 368.8304
   369.0268 369.2800 369.2800 369.3318 369.4941 369.4941 369.7133 369.7133
   369.8518 369.8631 369.8849 369.8849 369.9344 369.9344 369.9525 370.0156
   370.0419 370.0419 370.3079 372.4838 372.4838 372.5440 373.0528 373.1266
   373.1266 373.2237 373.2237 373.3990 373.9798 373.9798 374.0454 374.1738
   374.1738 374.2362 374.5851 374.5851 374.7788 374.9943 374.9943 375.2770
   375.5405 375.5405 375.6035 377.0669 377.0669 377.1634 377.4713 377.4713
   377.5401 377.5401 377.6107 378.3883 378.3883 378.4641 378.6633 378.6633
   378.7729 379.8734 380.2124 380.2124 381.1046 381.1056 381.1056 381.4445
   381.4445 381.5383 381.5383 381.5400 381.7611 381.7770 381.7770 382.1950
   383.3947 383.3947 383.3965 383.5411 383.6509 383.6509 384.3244 384.8755
   384.8755 384.9510 385.4080 385.4080 385.7034 385.7425 385.7425 385.8573
   385.8573 385.8877 386.8708 387.2477 387.2477 387.4086 387.4086 387.6059
   387.6059 387.6303 387.7529 387.8527 388.4124 388.4124 389.1985 389.2572
   389.3883 389.3883 389.5958 389.5958 390.0394 390.0394 390.1985 390.3047
   390.3047 390.4434 390.4943 390.4943 390.5974 391.1422 391.9703 391.9703
   392.0270 392.7724 392.9207 392.9207 393.4998 393.4998 393.5271 394.1625
   394.1625 394.2586 396.3183 396.3183 396.3396 397.5846 397.5846 397.7559
   397.9183 397.9183 398.8154 398.8154 398.8719 399.5797 399.5797 399.7653
   399.9149 399.9239 399.9239 400.5128 400.6688 400.6688 400.7995 400.9747
   400.9747 401.3790 401.8746 401.8746 402.4042 402.5851 402.6805 402.6805
   402.7968 402.7968 402.9465 403.0266 403.0266 403.1423 403.3513 403.8082
   404.0535 404.0535 404.2944 404.8569 404.8569 405.2906 405.5794 405.5794
   405.8440 405.8440 406.2266 406.2266 406.9471 406.9765 407.3244 407.3244
   407.3606 407.7492 407.7492 407.9276 407.9276 408.5199 409.1412 409.4714
   409.4714 409.5365 410.2279 410.2279 410.3605 410.3605 410.6086 410.6086
   410.6732 410.7950 410.9394 410.9518 410.9518 411.3001 411.4647 411.4647
   411.6292 412.1857 412.1857 412.8804 412.9057 412.9057 413.0976 413.1073
   413.1073 413.4776 414.7942 414.7942 415.1315 415.3044 415.3044 415.9339
   416.0158 416.0158 416.0734 416.2566 416.2566 416.6795 416.6795 417.3939
   417.4792 417.4792 417.5610 417.5894 417.8277 417.8277 418.0733 418.0733
   418.2013 418.2013 418.2094 418.3406 418.6486 418.8433 418.9004 418.9004
   418.9994 419.0211 419.0211 419.2630 419.2630 419.2634 419.4515 419.4515
   419.7159 419.7326 419.7326 420.2152 420.2152 420.4827 420.8667 420.9789
   420.9789 421.4736 421.4736 421.5073 422.3468 422.4265 422.4265 422.7461
   422.7461 422.8366 423.7607 423.7655 423.7655 423.9055 423.9595 423.9595
   424.2074 424.2074 424.3020 425.7822 426.3345 426.3345 426.8791 426.8791
   426.8899 427.0139 427.0139 427.0847 429.2990 429.2990 429.7601 429.7601
   429.9206 429.9985 430.6921 430.6921 431.1165 431.5687 431.8050 431.8050
   432.0141 432.0343 432.0343 432.2320 432.4431 432.4856 432.4856 432.6129
   432.9240 432.9240 433.1005 433.1005 433.1183 433.3237 433.3237 433.6846
   433.9766 434.1072 434.1072 434.4064 434.4064 434.5021 434.5228 434.5472
   434.5472 434.6330 434.6731 434.6731 435.0803 435.0803 435.2942 435.6096
   435.6096 435.8781 435.8781 435.9234 436.3045 437.0644 437.0644 438.6124
   438.6124 438.9159 439.0324 439.0830 439.0830 439.1750 439.3801 439.3801
   439.4025 439.4128 439.4128 439.6858 439.8584 439.8584 440.6287 440.6287
   440.6575 440.7169 440.7169 440.7558 441.0976 441.0976 441.3619 441.4416
   441.4416 441.4858 441.5661 441.5661 441.6291 441.6514 441.6514 441.7744
   441.9444 441.9469 441.9469 441.9779 441.9779 442.2022 442.2092 442.2092
   442.4119 442.6046 442.6046 442.7019 442.7542 442.7542 442.8835 443.1094
   443.1094 443.1229 443.6397 444.0068 444.0068 444.7211 444.7211 445.0646
   445.1470 445.1470 445.2248 447.2324 447.2324 447.9158 448.1994 448.6134
   448.6134 449.0911 449.0911 449.2653 449.4596 450.1631 450.1631 450.5892
   450.8496 450.8496 451.0731 451.1580 451.1580 451.5484 451.5484 451.5654
   451.5686 451.6774 451.6774 451.9267 452.0323 452.0323 452.0990 452.0990
   452.2177 452.3626 453.1588 453.1588 453.2977 453.7211 453.7211 453.8513
   453.9001 453.9850 453.9850 454.0253 454.1494 454.1494 454.3269 454.3599
   454.3599 454.7185 454.7664 454.7664 455.0250 455.0250 455.1035 455.1329

          k = 0.5000-0.5000 0.5000 (  3426 PWs)   bands (ev):

   -28.2861 -28.2861 -28.2731 -28.2730 -28.2730 -27.8374  -9.9268  -9.8172
    -9.8172  -2.4459   4.1214   5.8193   5.8193  10.7222  12.0309  12.2182
    12.2182  13.5038  13.5038  14.6474  14.6474  15.7707  17.5868  17.5868
    18.9578  19.1662  22.3697  22.3697  23.2463  24.1182  24.5820  24.5820
    27.1845  27.1845  28.1682  28.6037  28.7427  28.7427  28.8232  31.8098
    31.8098  32.6852  33.8058  34.2248  34.2248  34.6546  34.6546  35.2302
    36.0341  36.9025  36.9025  37.5337  40.1105  40.1105  40.1721  40.1721
    41.6670  41.6670  42.6486  45.7855  45.7855  45.8817  46.2499  47.0697
    47.0697  47.0844  47.0844  47.1461  47.6804  47.7022  47.7022  47.7898
    49.2993  49.2993  50.4695  50.9573  52.8693  52.8693  53.0902  54.5016
    54.5016  56.1082  56.1082  56.5832  56.5832  56.8513  57.4011  57.4011
    57.6643  57.7769  58.7019  59.2333  60.9275  60.9275  61.7720  62.4966
    62.4966  63.8253  63.8315  64.0561  64.0561  66.5042  66.5042  66.6714
    66.7957  66.7957  68.7204  68.7204  69.2203  69.3551  69.4027  69.4027
    70.3360  70.3923  70.3923  71.6098  71.9404  71.9404  72.0036  72.1115
    72.1961  72.1961  73.8058  73.8058  74.8430  76.3590  76.3590  77.2593
    77.3739  77.4700  77.4700  79.0262  79.0262  79.0815  80.4353  80.4353
    80.6899  80.6899  81.0917  81.9615  81.9615  82.1011  82.3209  82.3539
    82.3539  83.0134  84.4349  84.4572  84.4572  85.7584  85.7584  86.2709
    86.2709  86.5191  87.7245  88.0157  88.0659  88.1656  88.1656  88.3221
    89.0316  89.0316  89.8815  89.8815  92.3682  92.5293  93.1294  93.1294
    93.5114  93.5114  94.6376  94.7891  94.7891  94.9781  95.1793  95.2217
    95.2217  97.3857  98.0253  98.0253  98.2569  98.2569  99.2295  99.8867
    99.8867 100.3313 100.4168 100.7330 101.3121 101.3121 101.3523 103.3790
   103.3790 103.4217 103.4217 104.3108 104.4642 104.4642 105.1290 105.1290
   105.2077 105.3033 106.2004 106.4474 106.4474 106.8676 106.8676 108.0364
   108.3355 108.3355 108.7307 108.7307 109.0360 109.1290 109.1290 111.0635
   112.0846 112.1856 112.1856 112.2346 113.3641 113.3641 113.7060 113.7060
   114.7523 114.7523 114.9026 115.2925 115.3721 115.3980 115.3980 115.5753
   115.5753 116.0675 116.0675 117.0077 117.0627 118.1672 118.1672 118.4519
   118.4519 118.8996 118.9113 119.2867 119.5609 119.5609 120.8319 121.1167
   121.1167 121.3253 122.2313 123.0969 123.0969 124.7919 124.7919 125.7790
   125.8998 125.8998 126.2557 126.4124 126.6421 126.6421 127.1753 127.1753
   127.3005 127.3387 127.3387 127.4235 127.4235 127.5578 127.6769 127.9589
   128.1998 128.6100 128.6100 128.7197 128.7197 129.4158 130.4781 130.4781
   130.5868 130.9889 130.9889 133.1774 134.3361 134.3361 135.5977 138.3195
   138.3195 138.5338 138.5338 139.2272 139.2272 139.3885 139.3885 139.4575
   139.5562 139.7566 139.7685 139.8398 140.2890 140.2890 140.5907 140.8651
   140.8651 141.1026 141.1026 141.1779 142.7164 143.1411 143.6054 143.6054
   143.7571 144.0046 144.1466 144.1466 144.4334 144.4334 144.5094 144.5094
   144.5893 145.2315 145.3436 145.3436 145.7701 145.9590 145.9590 146.2906
   147.1207 147.1207 149.3265 149.3265 149.3515 149.3515 149.8247 149.8247
   150.6589 150.6617 151.7686 151.7686 152.6159 153.9898 153.9898 154.0087
   154.5958 154.5958 154.7217 154.7217 155.3434 155.5523 155.5523 155.7597
   155.7643 155.7643 156.0316 156.0316 156.1896 156.2270 156.2270 156.4719
   157.2688 157.3272 157.7943 157.7943 158.0306 158.0441 158.0441 158.2639
   158.7187 159.3308 159.3308 159.6088 159.6088 159.8750 161.0621 161.0621
   161.5414 161.5414 161.8364 161.9937 162.3738 162.3738 165.0681 165.1477
   165.4847 165.4847 165.8625 165.8625 166.8699 166.8699 167.0636 167.0636
   167.4252 167.4629 167.5401 167.7633 167.7633 169.0837 169.5369 169.5369
   169.9935 170.4443 170.8139 170.8139 171.0738 171.2925 172.1511 172.1511
   172.6889 172.6889 173.1445 173.3635 173.6864 173.6864 173.8454 173.8487
   173.8487 173.8665 175.4669 175.4669 175.5981 175.5981 175.6511 175.9227
   176.4644 176.4644 176.6573 176.7317 176.7637 176.7637 177.4080 177.8367
   177.8541 177.8541 178.8822 178.8822 179.9558 179.9558 180.3732 180.3732
   181.5546 181.5546 182.2967 182.6432 182.9039 182.9039 184.0994 184.0994
   184.9501 185.0799 185.0799 185.3037 185.3037 185.4693 186.8855 186.8855
   187.6588 187.6751 187.6751 187.7247 187.9077 188.0573 188.0573 188.3537
   189.4023 189.4023 189.4812 189.5237 189.5237 189.6717 189.9303 189.9303
   190.1651 190.1651 190.5709 190.6134 190.6428 191.5664 191.5664 192.1309
   192.1375 192.1375 193.6318 193.6318 193.6479 193.8220 194.1797 194.1797
   195.3855 195.3855 197.1879 197.2732 197.8398 197.8398 198.0076 198.0566
   198.0566 198.6442 198.8043 198.8043 198.8135 198.8639 199.1953 199.1953
   199.2609 199.2609 199.6659 199.6659 199.7887 199.7887 200.1010 200.1994
   200.8978 201.3099 201.5772 201.5772 201.7906 201.7906 202.1695 202.3866
   204.0430 204.2192 204.4484 204.4484 204.6828 204.6828 204.9487 204.9487
   205.1042 205.1042 205.8756 205.8941 206.1207 206.4390 207.1482 207.1482
   207.1495 207.1495 207.3644 207.3644 207.3865 207.3865 207.9145 207.9284
   210.9665 210.9665 211.7000 211.7356 211.8097 211.8097 211.8544 211.8544
   212.5404 212.5404 212.9669 213.2893 213.4868 213.4868 213.8545 213.8545
   214.2456 214.2481 214.2569 214.2569 214.5457 214.5457 215.0710 215.8941
   215.8966 215.9804 215.9804 216.1033 216.1033 216.4139 217.4666 217.4666
   217.9986 217.9986 218.3340 218.8639 219.0098 219.0798 219.0798 219.2536
   219.2536 219.7583 220.7154 220.7154 220.8605 220.9347 220.9347 221.0535
   221.7319 221.7319 221.9452 221.9452 222.6021 222.6852 222.6944 223.0558
   223.4635 223.4635 223.5595 223.5595 223.8559 223.8559 223.9226 223.9226
   223.9634 225.1470 227.2806 227.2806 227.8177 227.8906 227.9009 227.9009
   228.4189 228.4189 228.4424 228.4424 229.6161 229.6895 230.0768 230.0768
   230.1733 230.1749 230.2609 230.2609 230.3228 231.9125 231.9125 231.9136
   231.9136 232.2671 232.3314 232.3314 232.4897 232.5520 232.6830 232.6830
   235.0599 235.0747 235.9293 235.9293 235.9293 235.9293 236.1801 236.1808
   239.4893 239.4893 239.6189 239.6189 241.4606 241.4606 241.4687 241.4687
   242.3645 242.6438 242.6899 242.6899 242.7605 242.8697 242.8697 242.9685
   242.9810 242.9810 243.1556 243.3535 243.3535 243.7293 243.8329 243.8329
   244.1196 244.1196 244.3224 244.5451 244.5453 244.5453 244.5660 244.5660
   244.7259 244.9764 246.4983 246.4983 246.5845 246.5845 246.8071 246.8983
   246.9488 247.0018 247.0867 247.0867 247.1892 247.1892 247.4140 247.4140
   247.5976 247.5976 247.9999 248.0177 248.0546 248.5357 248.5357 248.5964
   248.5964 248.8392 249.4963 249.4963 249.5155 249.5155 249.6097 249.6436
   251.5927 251.5927 251.6395 251.8552 251.8552 252.2581 254.9465 254.9465
   255.0550 255.0550 255.4119 255.4809 256.2410 256.2410 256.8130 256.8130
   257.3103 257.9830 257.9925 258.0275 258.2730 258.2730 258.3659 258.3659
   258.7670 258.7670 258.9382 258.9382 259.0822 259.1588 259.1764 259.6813
   259.6813 259.8846 260.0470 260.0470 260.8483 260.8483 260.9846 260.9846
   261.1243 261.3375 261.4947 261.7695 262.2182 262.2182 262.5989 262.5989
   263.2698 263.2698 263.4017 263.4372 263.5887 264.0477 264.1381 264.1381
   265.9445 265.9445 266.0647 266.0647 266.6355 266.7999 266.9693 266.9693
   267.2282 267.2282 267.5532 267.5629 268.2849 268.2849 268.9729 268.9729
   269.0802 269.0802 269.4230 269.4230 269.7002 269.9455 271.3165 271.3165
   271.3821 271.9431 272.3223 272.3223 272.4980 272.4980 272.8773 273.4759
   273.8033 273.8033 274.3739 274.3739 274.6331 274.6331 275.1450 275.2151
   275.2151 275.2265 275.2265 275.2494 275.2903 275.6704 275.6704 275.7068
   275.7068 275.9922 276.0187 276.1195 276.7040 276.7040 276.9406 276.9406
   277.0070 277.1188 277.3848 277.3848 278.4531 278.4531 279.4650 279.5653
   279.6228 279.6228 279.9486 279.9486 280.8354 280.8779 280.8779 280.9098
   280.9316 280.9316 282.1831 282.6505 285.1400 285.1503 285.4357 285.4357
   285.6514 285.6514 285.7225 285.7225 285.8241 285.8501 285.9094 285.9094
   286.1069 286.1069 286.2758 286.2758 286.7074 286.7363 288.0392 289.2566
   289.2566 289.3775 289.5720 289.5758 289.5758 289.5828 289.5951 289.5951
   290.2733 290.2733 291.6878 291.6878 291.8147 291.8147 291.9122 291.9197
   292.2192 292.2606 292.2606 292.4129 292.4533 292.4533 293.7568 293.7568
   294.5547 295.1613 295.1613 295.6328 295.6328 295.7230 295.7230 295.8071
   295.8071 295.9750 295.9755 296.5690 296.9759 297.0647 297.0647 297.3610
   297.4718 297.5855 297.6078 297.7822 298.0550 298.0550 298.0679 298.0679
   300.6340 300.6340 301.0061 301.0739 301.0739 301.2143 301.5824 301.5824
   301.7576 301.7576 302.0555 302.0817 302.3281 302.3281 302.5751 302.7811
   302.7851 302.7851 303.1960 303.2503 303.2503 303.4011 303.4011 303.4184
   303.5041 303.5041 303.6079 303.6079 304.0299 304.0491 304.1341 304.1447
   304.4273 304.4273 304.4644 304.4644 307.4109 307.4109 307.7904 307.7904
   307.8934 307.9126 308.2683 308.2683 308.4504 308.4504 308.5807 308.5818
   309.0931 309.0931 309.5246 310.9486 310.9486 311.7119 312.6968 312.6968
   313.6660 313.6738 313.7084 313.7084 313.7822 313.7822 314.2216 314.2216
   314.3255 314.3255 314.3409 314.3409 314.4911 314.4933 314.5146 314.9196
   314.9196 315.2065 315.2065 315.3135 315.3242 315.5167 315.9985 316.9200
   316.9200 317.2411 317.6378 317.6378 317.8857 317.8857 318.0598 318.0598
   318.1099 318.7718 319.0596 319.1507 319.2789 319.2993 319.2993 319.3613
   319.3613 319.6985 319.6985 319.7369 319.7369 319.8522 319.9412 319.9826
   319.9826 320.0010 320.1565 320.3904 320.4710 320.4710 321.5771 321.5771
   321.9342 322.0335 322.0335 322.5015 322.5015 322.5920 323.3633 323.3633
   325.7767 325.7767 326.3720 326.3720 326.5919 326.6854 326.9966 326.9966
   327.3172 327.3172 327.4482 327.4676 328.1063 328.1063 328.1320 328.1320
   328.4683 328.4683 328.5330 328.5330 328.6453 328.6462 330.1322 330.1324
   330.5565 330.5565 331.2234 331.2234 331.6864 331.9726 331.9726 332.8536
   333.1559 333.2274 333.2274 333.2454 333.2454 333.3252 333.7089 334.0403
   334.0403 334.2569 334.2569 334.6263 334.9534 334.9534 335.0926 335.1216
   335.1216 335.2342 335.3249 335.3249 335.5567 335.6971 335.7322 335.7322
   335.9205 335.9205 336.0761 336.0916 336.4649 336.5365 336.5365 336.6410
   336.6410 336.6515 337.5688 338.2543 338.5486 338.5486 339.0727 339.0727
   339.1431 339.3440 341.1253 341.1253 342.6106 342.6106 343.6390 343.6390
   344.1285 344.1672 344.1672 344.2977 344.3893 344.4218 344.6531 344.6531
   345.1180 345.4421 345.4421 345.6288 345.6728 345.6728 345.6861 345.6861
   345.7681 345.8386 345.9855 345.9855 345.9936 345.9936 346.0346 346.0701
   346.3904 346.3904 347.2579 347.2579 347.3439 347.3439 347.5366 347.5822
   347.7478 347.7478 347.7844 347.7844 347.8521 347.8521 347.8581 347.8581
   347.8604 348.0075 348.1954 348.1954 348.2787 348.2787 348.7816 348.8028
   348.8028 348.8210 349.2308 349.5934 349.6060 349.6060 349.6164 349.6165
   349.6462 349.6462 352.8544 352.8544 353.2125 353.2125 353.2860 353.3014
   356.9511 356.9511 357.0128 357.7215 357.7215 358.1667 358.1667 358.6696
   358.6758 358.6758 358.7482 358.7619 358.8359 359.2846 359.2846 359.7802
   359.7802 359.8266 359.8323 359.8323 359.9013 359.9013 359.9061 359.9318
   360.1257 361.3822 361.3822 361.5784 361.9485 361.9485 361.9948 361.9948
   362.1330 362.1330 362.2179 362.3200 363.2157 363.2157 363.3852 364.1654
   364.1654 364.4809 364.6447 364.6447 364.7445 365.1476 365.1476 365.4464
   365.4464 365.6175 365.6728 365.6776 365.6776 365.6818 365.7275 365.7275
   365.7824 367.3462 367.8731 367.8731 369.6111 369.6111 369.8349 369.8349
   370.0825 370.1584 370.5205 370.5205 370.7068 370.7213 370.8115 370.8115
   371.6215 371.6215 371.7113 371.7113 371.9513 372.0253 372.9074 374.1086
   374.1086 374.2904 374.4152 374.4152 374.4263 374.5089 374.5089 374.6592
   374.6592 374.7208 374.7295 374.7400 374.7400 374.7946 375.3785 375.3785
   375.6174 375.9157 375.9214 375.9214 376.3708 376.4870 376.4870 376.5593
   376.9700 376.9700 377.4538 377.4538 377.6146 377.6146 378.1834 378.1834
   378.4377 378.4422 379.7961 379.9088 380.3866 380.3866 380.4330 380.4391
   380.4509 380.4509 380.4606 380.4606 380.5835 380.5835 381.4384 381.4406
   381.5647 381.5647 381.7863 381.7863 381.7944 381.8051 381.9290 381.9290
   382.2974 382.3715 382.3715 382.4375 382.4375 382.4773 382.5131 382.6664
   382.6664 382.7932 384.5193 384.5193 384.7757 384.7757 385.0514 385.0558
   385.3755 385.4692 385.4992 385.4992 385.5040 385.5040 388.0420 388.0420
   388.0942 388.0942 388.3069 388.3069 388.4513 388.4513 388.4598 388.4806
   388.8829 388.8829 389.1289 389.1289 389.1704 389.1704 389.2873 389.2902
   390.0403 390.3019 390.3019 390.3225 390.3225 390.4450 390.9043 390.9043
   391.0323 391.1545 392.1568 392.1568 393.0895 393.2290 393.2290 393.3635
   393.8248 393.8248 393.8879 393.8879 393.9396 393.9485 394.0790 394.0790
   394.2633 394.2804 394.3544 394.3544 394.3601 394.3601 394.4019 394.4019
   394.4826 394.4834 394.9399 395.8329 395.8329 396.2019 396.2019 396.3134
   396.3352 396.7267 396.7267 396.8268 397.0810 397.0810 399.1623 399.1623
   400.6724 401.0442 401.0442 401.3205 401.3666 401.3666 401.5033 401.5033
   401.6886 401.6886 401.8370 401.8374 402.2865 402.2865 402.4065 402.5043
   403.4793 403.4793 403.8481 404.0439 404.0439 404.3290 404.3290 404.3979
   404.5320 404.5320 404.5577 404.5577 404.6596 404.6708 404.9108 405.1791
   405.1791 405.2362 405.2418 405.2418 405.4751 405.4751 405.5354 405.5388
   406.0148 406.1602 406.1602 406.1774 406.2675 406.2675 406.6438 406.9006
   406.9006 407.0237 407.0930 407.0930 407.5981 407.5981 407.6910 407.6910
   407.8763 407.8787 411.8469 411.8469 411.8593 412.3926 412.3957 412.3957
   412.5263 412.7278 412.8208 412.8208 412.8853 412.8853 413.4850 413.4850
   414.7809 414.9125 414.9125 415.9695 415.9695 416.0211 416.2547 416.2547
   416.3245 416.3263 416.5154 416.5154 416.5970 416.6430 416.8825 416.8825
   416.8943 416.8943 417.1134 417.1755 417.2032 417.2032 417.7230 418.7694
   418.7694 419.0026 419.0424 419.3415 419.3415 419.4569 419.5536 419.5536
   419.6833 419.6833 419.8083 419.8312 420.2002 420.2002 420.6491 420.7040
   420.7436 420.7436 420.8395 420.8395 421.2751 421.2751 421.3790 421.3790
   421.4220 421.4304 421.6218 421.6218 421.7758 422.1297 424.5528 424.5528
   425.1839 425.1839 425.2135 425.2135 425.3227 425.3874 425.4123 425.4545
   425.5227 425.5227 427.7565 427.7565 427.7857 427.8338 427.8338 427.8533
   428.0127 428.4703 428.4703 428.8323 428.8323 428.8532 428.9190 428.9190
   428.9973 429.0166 429.0169 429.0169 430.2931 430.4875 430.4875 430.9006
   430.9006 431.1698 432.6583 432.9007 432.9007 433.2403 433.2403 433.4396
   433.4577 433.5132 433.5132 433.5926 433.5926 433.6150 434.6799 435.1003
   435.1003 435.3126 435.4602 435.4602 435.6071 435.6071 435.6566 435.7626
   435.8953 435.8953 435.9137 435.9322 435.9322 436.0444 436.0444 436.1271
   437.7022 438.3747 438.3747 438.4920 438.5484 438.5484 438.7170 439.0440
   439.0440 439.2686 439.5135 439.5135 439.5264 439.5754 440.8717 440.8717
   440.8743 440.8743 441.2451 441.2451 441.2616 441.3044 441.3229 441.3229
   441.3324 441.3348 441.6294 441.6294 441.6677 441.6677 441.8271 441.8272
   442.0173 442.0173 442.4589 442.4589 443.3716 443.3716 443.4595 443.5280
   443.5496 443.5496 443.8284 443.8284 444.1336 444.1336 444.1423 444.1764
   444.7455 444.7455 444.9633 445.1969 445.1969 445.2346 445.2346 445.2864
   445.4139 445.4370 445.4370 445.4778 445.6845 445.6845 445.7379 445.8054
   445.8054 445.8378 447.6874 447.6874 447.7008 447.7008 447.7362 447.7484
   447.7484 447.7671 447.8319 447.9191 447.9191 447.9212 447.9212 447.9896
   447.9896 448.0308 450.2134 450.2134 450.4848 450.7438 450.8565 450.8565
   451.1839 451.1839 452.6150 452.6150 453.0011 453.2130 453.2130 453.2558
   455.3623 455.3623 455.4747 455.4747 455.5073 455.5073 455.5694 455.5694
   455.7814 455.7814 455.7871 455.8221 457.4354 457.4354 458.1490 458.1951

          k = 0.0000 0.5000 0.0000 (  3399 PWs)   bands (ev):

   -28.2877 -28.2859 -28.2733 -28.2730 -28.2730 -27.8370  -9.8589  -9.8282
    -9.8282  -2.7446   5.0915   6.3889   6.3889   9.2533  10.6870  11.2072
    11.9045  11.9045  13.9542  14.8838  16.1502  16.1502  16.4688  19.5065
    20.3424  20.8206  21.1368  21.1368  23.8128  24.3332  24.3332  24.5672
    27.2807  27.2807  27.8087  29.3530  29.3530  29.7100  31.1846  31.2102
    33.1139  33.1139  33.2079  33.4458  33.9093  33.9275  33.9275  35.1612
    35.9146  35.9870  36.0673  36.0673  37.2959  39.6067  39.8060  42.0192
    42.0192  43.1517  43.1517  43.4984  43.6948  43.7613  44.5512  44.5512
    46.1078  46.1078  47.5895  47.5895  47.7186  48.0928  48.7616  49.6768
    50.4579  50.4888  51.3304  51.3304  52.0511  54.2136  54.2136  54.6827
    54.8254  56.5912  56.7444  56.7444  57.1760  57.6173  57.6360  58.1032
    58.1032  60.4251  60.4251  60.8629  62.2150  62.2150  62.3014  62.5156
    63.7165  63.7190  64.0722  65.2994  65.5158  65.5158  66.1240  66.2705
    66.2705  67.2388  67.2388  67.4077  67.6447  68.6417  68.6417  68.8357
    69.0895  70.5292  71.2130  71.8350  71.8350  72.7668  73.0247  73.0247
    73.1317  73.1923  73.8490  73.8490  74.0706  74.3905  74.8997  74.8997
    75.4493  75.4493  75.7457  76.5307  77.4865  77.4865  77.8471  77.9659
    79.0629  79.9428  79.9428  79.9451  80.8366  81.2781  83.2524  83.2524
    84.0706  85.0820  85.5753  85.7892  85.7892  85.8779  86.0283  86.5001
    86.5001  86.5727  86.9832  87.5207  88.0520  88.5452  88.5452  89.1494
    90.1700  90.1700  91.4133  91.5952  91.7552  91.8477  91.8477  92.9915
    93.0471  93.5916  93.9390  93.9390  95.1124  95.1124  95.2430  96.4850
    97.2584  97.7132  97.9021  97.9021  99.5577  99.5577  99.6097  99.7742
   100.6147 100.9292 100.9292 101.1392 101.3932 101.9626 101.9626 102.7115
   102.7115 103.0359 103.1092 103.9177 103.9177 103.9194 104.8792 104.8792
   106.3419 106.3989 106.6884 106.6884 106.7790 107.1630 107.9412 107.9412
   108.2867 108.2867 108.5252 109.0528 109.6552 110.4959 111.0762 111.0762
   111.6188 111.7046 111.7714 111.8602 111.8602 112.2705 112.8709 112.9797
   112.9825 112.9825 113.5215 113.5215 113.8153 114.0160 115.9797 116.6506
   117.3795 117.5142 117.5142 119.0012 119.0012 119.8945 120.1582 120.2267
   120.7829 120.7829 120.8657 121.4943 121.5576 121.5817 121.5817 122.6471
   123.0021 123.0021 123.8101 123.9904 124.1330 124.5428 124.5428 125.0133
   125.2247 125.3036 125.3636 125.3636 125.8132 126.1001 126.1001 126.5028
   126.7700 128.1294 128.1294 128.3029 128.7959 128.7959 128.9935 129.0957
   129.4275 129.4275 129.5903 129.7805 129.9485 129.9648 129.9648 131.0096
   131.4920 131.4993 131.4993 132.4845 132.7719 132.7719 132.8317 133.0297
   133.1166 133.7462 133.7462 134.7450 134.8204 135.4292 135.4292 135.8089
   136.5165 136.6591 136.6591 136.8196 137.6712 138.2635 138.2635 138.9265
   139.0729 139.2423 139.2423 139.4946 139.6008 141.8065 141.8065 142.5805
   143.0392 143.0712 143.0712 143.3555 143.7220 144.1334 144.1334 144.5519
   145.3784 145.3784 145.7464 145.8460 145.8460 146.5407 146.7519 146.7519
   147.2778 147.6666 149.8892 149.8892 150.3230 150.7747 151.0980 151.0980
   151.1079 151.3589 151.7905 152.4085 152.4085 152.6219 152.8525 153.7617
   153.7617 153.8147 153.9324 154.3825 154.6648 154.8809 154.9908 154.9908
   155.6043 156.0674 156.0674 157.3743 157.8577 157.8577 158.1632 158.3169
   158.8894 158.8894 159.6281 160.3661 160.3953 160.3953 161.5862 162.1503
   162.1503 162.6976 163.0679 163.2910 163.2910 164.1980 164.2134 164.6879
   164.9352 164.9352 165.3626 165.5135 165.5135 165.6928 165.8978 166.2478
   166.2711 166.2711 166.3580 167.5660 167.8815 167.8815 167.9910 168.4082
   168.4665 168.8417 168.8983 169.6927 169.7162 169.7162 170.1674 170.1674
   170.6859 171.0846 171.0846 171.4053 171.4256 171.9126 171.9859 172.1041
   172.1731 172.1731 172.4162 172.4162 172.6045 172.9996 172.9996 173.2409
   173.7067 175.0702 175.2189 175.2189 175.2428 175.3200 175.3200 175.3301
   175.8561 175.8561 176.1210 176.6359 176.6605 177.3460 177.3460 177.5827
   177.6661 177.7750 177.7750 178.0845 178.9611 179.1644 180.4020 180.4020
   180.5937 180.8113 181.0108 181.0141 181.0141 181.0354 183.0797 183.6014
   183.6014 184.1528 184.4865 184.8832 185.0907 185.7474 185.7474 185.9643
   185.9643 186.5696 187.1391 187.2319 187.2619 187.2619 187.6919 187.6919
   187.9049 187.9103 187.9103 188.0454 188.6184 189.1393 189.4585 189.6152
   189.6152 189.7885 189.7885 189.8541 190.0593 190.0593 191.4781 191.5445
   191.5445 191.5656 193.0732 193.0732 193.2938 194.1342 194.1342 194.2924
   194.7459 194.8951 194.9169 195.9899 196.0958 196.0958 196.4642 196.4642
   196.5393 196.6716 197.2742 197.5696 197.5832 197.5832 197.7915 197.8136
   197.8136 198.3947 198.4923 199.0912 199.0912 199.1722 199.6451 200.3340
   200.6560 200.9833 200.9833 201.1044 201.1358 201.1358 201.2492 201.3891
   202.4549 202.9122 202.9122 203.3446 204.5067 205.5271 205.5271 206.1771
   206.3794 207.1573 207.3470 207.3470 207.5560 207.7193 207.7193 208.0620
   208.1187 208.2010 208.2010 208.2747 208.5043 208.5043 208.5302 208.8547
   208.9303 208.9303 209.6218 209.8972 210.4301 210.4829 210.4829 210.5400
   210.7148 210.9671 211.8522 211.8660 211.8660 212.0051 212.0051 212.0880
   212.1149 213.0767 213.0837 213.0837 213.2609 213.2917 213.2917 213.5358
   213.5358 213.5388 214.0360 214.2516 215.1913 215.9205 216.1995 216.1995
   216.3107 217.3926 218.2040 218.2040 218.5985 219.3309 219.3562 220.2662
   220.6436 220.9550 220.9550 222.2298 222.2298 222.5099 223.5961 224.1975
   224.7632 224.7632 225.2207 225.3906 225.3906 226.2437 226.2437 226.5673
   226.6833 227.6776 227.6776 227.7198 228.0780 228.0956 228.3893 228.6265
   228.6265 228.7330 228.7474 228.9849 228.9849 229.1426 229.4921 229.4921
   229.5433 229.9474 230.1368 230.2511 230.2511 230.3067 230.3178 230.4110
   230.4110 231.1213 231.5709 231.6481 231.6481 231.7686 232.5211 232.6113
   232.7509 232.7635 232.7635 232.8952 233.0236 233.0236 233.3571 233.4073
   234.3168 234.3168 234.5308 234.8855 234.9996 234.9996 235.1088 235.1088
   235.1164 235.5125 236.9418 238.1305 238.4585 238.4585 238.6239 239.6862
   239.6862 241.2381 241.2381 241.5139 242.3519 242.7546 242.7546 243.1466
   243.4196 243.4196 243.6245 243.6950 243.7089 243.9992 243.9992 244.0018
   244.5008 244.7168 244.7168 244.9892 245.0391 245.2069 245.2069 245.3779
   245.4141 246.0187 246.0252 246.0252 246.2587 246.5444 246.5444 246.6474
   246.9893 246.9893 247.0026 247.4543 247.9029 248.2125 248.2125 249.0206
   249.0206 249.1417 249.4841 249.7738 249.8512 250.0967 250.2490 250.2490
   250.7804 250.7841 250.7841 251.4053 251.4053 251.9391 251.9539 251.9688
   252.2834 252.2834 253.0125 253.5441 253.5574 253.5800 253.8408 253.8408
   254.0559 254.1420 254.1717 254.1717 254.2242 254.4129 254.7041 256.2310
   256.2405 256.2405 256.2710 256.2710 256.6282 257.4210 257.4789 257.5817
   257.5817 257.7147 258.5072 258.9037 258.9037 258.9962 259.2100 259.2100
   259.8655 260.0543 260.8276 260.8617 260.8617 262.3134 262.3134 262.3208
   262.6743 262.9839 262.9839 263.0164 263.0703 263.5181 263.5615 263.5615
   263.6864 263.8409 263.9966 263.9966 264.5880 264.9165 264.9165 264.9959
   265.2617 265.9797 265.9797 266.0730 266.1933 266.5773 266.5773 266.8531
   266.8644 266.9160 266.9160 266.9641 267.3257 267.6720 267.6720 267.7064
   267.8804 269.1199 269.1199 269.5123 269.6053 270.1243 270.2043 270.2043
   270.4928 270.7366 271.6374 271.6374 271.7180 272.1169 272.3327 272.4003
   272.4003 272.5278 272.5924 272.5924 272.6178 272.7354 272.7354 272.7582
   273.1814 273.2276 273.2276 273.2540 273.2635 273.2881 273.4514 274.2160
   274.6420 274.6420 274.6697 274.9306 274.9306 275.1217 275.5430 275.5430
   276.1526 276.9879 277.3819 278.2486 278.2717 278.4445 278.4445 278.7517
   278.9715 278.9715 280.3449 280.8139 280.8213 281.5822 281.5822 281.5987
   281.9987 281.9987 282.2052 283.0314 283.0314 283.0508 283.1068 283.4516
   283.4516 283.4833 284.8358 284.8358 284.8826 284.9122 285.0570 285.5692
   285.5692 285.7284 287.5836 287.5836 287.6789 288.0952 288.2635 288.2635
   289.5555 289.7776 289.8206 289.8995 290.2764 290.6618 290.6618 291.0590
   291.0656 291.1163 291.1163 291.1516 291.4884 291.5323 291.5323 291.5644
   291.6433 291.6433 291.7202 292.2987 292.2987 292.5709 293.0195 293.0950
   293.9072 293.9072 294.1730 294.1730 294.4662 294.5306 294.7644 295.4523
   295.4523 295.6376 295.8105 296.1789 296.5386 296.5386 296.5913 296.5972
   296.6050 297.0921 297.0921 297.7427 298.4392 298.4392 299.1394 299.4072
   299.7363 299.7363 300.2944 300.2944 300.2956 300.3599 300.4646 300.6326
   300.7720 301.3539 302.0886 302.1660 302.2333 302.2333 302.3936 302.3936
   302.5509 302.5509 302.7535 303.1655 303.1655 303.1924 303.1924 303.2027
   303.4730 305.1087 305.3366 305.3366 305.3624 305.7826 305.7826 306.1370
   306.5911 306.7989 307.0500 307.0500 307.3737 307.4133 307.4769 307.7732
   307.7732 307.8482 307.8903 307.8946 307.8946 308.2149 308.2777 308.5825
   308.5825 308.8369 308.8369 308.9690 309.3701 309.7862 309.7862 309.8325
   309.9395 310.7940 311.4315 311.6577 312.0308 312.0308 312.2203 312.4041
   312.7615 312.7615 312.8204 312.8506 313.6779 313.6779 314.0797 314.5942
   314.7455 315.2825 315.2825 315.2991 315.3250 315.6057 315.6057 316.0634
   316.2786 316.3519 316.3519 316.6791 316.6791 316.9537 317.5450 317.6237
   317.6375 317.6375 317.9118 317.9371 317.9544 317.9544 318.1259 318.1259
   318.1654 318.3514 318.7317 319.4763 319.9043 319.9043 321.0650 322.4100
   322.4100 324.0270 324.7229 324.7229 324.8771 324.8919 324.9923 324.9923
   325.3427 325.4027 325.4027 325.7607 326.0976 326.7023 326.7023 326.8451
   327.2825 327.6839 327.6877 327.6877 327.8790 328.7054 328.7054 328.8683
   328.9012 329.1408 329.1408 329.3738 329.5055 329.6592 329.7661 330.3774
   330.3774 330.9676 330.9747 330.9747 331.0064 331.0092 331.0092 331.0104
   331.0488 331.2020 332.2566 332.5307 332.6122 332.7748 332.7748 333.0159
   333.0159 333.4572 334.0596 334.1825 334.1825 334.3852 334.5949 335.2087
   335.5510 335.5510 335.6031 335.6031 335.6788 335.8804 336.1596 336.1596
   336.2699 336.9311 337.0772 337.4014 337.5316 337.5316 337.6881 338.1373
   338.6258 338.6258 338.7303 338.7967 338.7967 339.0498 339.0884 339.0884
   339.2239 339.5126 340.6307 340.7921 340.9111 340.9111 340.9497 340.9497
   340.9937 341.0064 341.0786 341.7443 341.7443 341.7751 341.9503 342.3710
   342.6373 342.6373 342.6643 342.7464 342.7464 343.0658 343.4729 344.1403
   344.1403 344.5770 344.6025 345.2744 345.4057 346.1949 346.1949 346.2062
   346.2547 346.2547 346.3367 346.4566 346.4566 346.5949 347.1777 347.3678
   347.3678 347.5015 347.5831 347.8184 348.0092 348.0563 348.0563 348.1696
   348.6556 348.6556 348.8360 349.1314 349.1314 349.1329 349.1992 349.4062
   350.2811 350.4841 350.4841 350.8162 352.0675 352.2202 352.2202 352.3192
   352.3652 352.4883 352.4883 352.7500 353.0727 353.2169 353.2169 353.3415
   353.3843 353.3933 353.3933 353.4219 353.4295 353.4295 353.4452 353.7887
   354.5386 354.7130 354.7130 354.8676 355.0344 355.0344 355.0569 355.5606
   357.1101 357.3657 357.3657 357.6703 357.7603 358.1107 358.1107 358.2307
   358.2449 358.4062 358.4062 358.5722 359.1841 359.2067 359.2067 359.2328
   360.2280 360.3269 361.1848 361.1848 361.3668 361.7794 361.7794 361.9349
   362.1913 362.3768 362.3781 362.3781 362.7362 362.7833 362.8615 362.8615
   362.8962 362.9442 362.9478 362.9478 363.8558 363.8727 363.8727 364.0524
   364.0524 364.0578 364.1178 364.2443 364.3560 364.3560 364.3563 364.4439
   364.4768 364.4768 364.4857 364.4977 364.5581 364.5890 364.5890 364.8955
   365.6129 365.7768 365.7768 365.8472 367.1622 367.3609 367.3639 367.3639
   367.6229 367.6229 367.6356 367.6908 368.8323 369.1420 369.2512 369.2512
   369.4494 369.4494 370.6842 370.6842 370.7146 371.2043 371.2160 371.5535
   371.5535 371.6673 371.6701 371.8403 371.8773 371.8773 371.8973 371.9108
   371.9108 372.6340 373.2478 373.2478 373.2514 373.4335 373.4479 373.4479
   373.6525 373.6525 373.6889 373.8830 373.9347 374.1800 374.1800 374.3834
   374.9522 374.9571 375.1873 375.1873 375.3418 376.7819 376.8147 377.1935
   377.1935 377.5462 377.6432 377.6432 377.6671 377.6797 377.8786 378.5657
   378.5960 379.3734 379.3981 379.3981 379.4964 379.5251 379.5251 379.5940
   379.6352 379.6977 379.6977 380.8472 382.1096 384.1338 384.1338 384.2045
   384.2204 384.2717 384.2717 384.8136 384.8136 385.1518 385.3040 385.8141
   385.8141 385.8638 386.1420 387.3795 387.5133 387.5133 387.9220 388.1766
   388.4202 388.4202 388.6446 389.1634 389.1634 389.4804 389.4804 389.5223
   389.5244 389.5706 389.6689 389.6689 389.9815 390.2618 390.7609 391.0398
   391.2205 391.3641 391.3641 391.5038 391.6405 391.6405 391.9768 392.0399
   392.0399 392.0596 392.5271 392.8771 393.0646 393.0646 393.0841 393.1338
   393.1713 393.1713 393.1820 393.3667 393.4895 393.4895 393.9256 393.9446
   393.9446 394.2229 395.3787 397.3637 397.6650 397.6650 397.9073 398.1488
   398.1488 398.2422 398.2949 398.3910 398.3988 398.3988 398.4272 398.6571
   401.4276 401.4861 401.4861 401.6209 401.9895 401.9895 402.5277 402.6932
   402.6932 402.7419 403.1542 403.3635 403.5339 403.5339 403.7756 403.8296
   403.8296 403.8304 403.8559 404.0837 404.2224 404.2945 404.3225 404.3225
   404.4565 404.4993 404.5248 404.5248 404.9994 404.9994 405.0191 405.1809
   405.1809 405.3752 405.6189 406.5992 406.9013 406.9970 406.9970 407.1980
   407.1980 407.2426 407.2493 407.5001 407.7856 407.7856 407.9950 408.2286
   408.5430 408.5430 408.6078 409.3807 409.8215 409.8215 409.8824 410.3493
   410.3493 410.4428 410.8777 411.4119 412.0266 412.0266 412.0294 412.0896
   412.2846 412.7514 412.9210 412.9210 412.9943 413.0162 413.1297 413.1297
   413.3993 413.4666 413.4666 413.5071 413.7831 414.2426 414.2859 414.2859
   414.3972 414.3972 414.4565 414.4638 414.7661 414.8418 414.8418 414.8818
   415.1008 415.2087 415.3217 415.3217 415.3496 415.4214 415.5169 415.5169
   415.6945 416.1762 416.2750 416.2750 417.0087 417.0087 417.0204 417.9091
   417.9309 418.2416 418.3080 418.3080 418.7568 418.7568 418.8281 419.1644
   419.1644 419.6298 419.6390 420.0088 420.4555 420.5966 420.5966 420.9805
   421.3382 421.7513 422.5733 422.5733 423.0138 423.0240 423.2990 423.2990
   423.4034 423.6679 423.7114 423.7114 423.9172 424.8997 425.1016 425.1016
   425.3040 425.8949 427.4486 427.4486 427.5822 427.5822 427.7023 427.7552
   427.8851 428.0133 428.9224 428.9224 429.3025 429.3025 429.4244 429.4661
   429.5621 429.5938 429.5938 429.6240 429.6367 429.7958 429.7958 429.8125
   429.8403 429.8403 429.8993 429.9096 429.9581 429.9581 430.0891 430.1240
   430.3549 431.0599 431.0599 431.0601 431.0989 431.1703 431.3156 431.3156
   431.4298 432.1152 432.1152 432.3085 432.4027 432.4492 432.4782 432.4782
   432.4852 432.5321 432.6455 432.6455 432.7168 433.0292 433.0667 433.0667
   433.0979 433.8244 434.0820 434.0820 434.3010 435.0094 435.2031 435.2031
   435.5879 436.7733 436.9392 436.9392 437.0951 438.1194 438.1486 438.1486
   438.1984 438.2849 438.3220 438.3220 438.3452 438.6674 438.8144 438.8144
   438.9115 440.7094 440.8650 440.8650 440.9007 441.1342 441.3140 441.3190
   441.3190 441.4232 441.7297 441.7297 441.9678 442.4372 442.7826 442.7826
   443.1352 443.1352 443.7009 444.0304 444.0589 444.0589 444.1078 444.1821
   444.2081 444.2358 444.2358 444.5066 444.9781 444.9781 445.5403 445.5464
   445.7108 445.7108 445.7308 445.7308 445.7410 446.2781 446.2781 446.5100
   446.5507 446.9406 447.4274 447.8700 447.8700 447.9009 447.9303 448.3618
   448.4779 448.4779 448.5294 448.5607 448.5896 448.5896 449.6720 449.7592
   449.7592 449.8165 449.9171 449.9319 449.9319 449.9344 450.2207 450.2614
   450.3283 450.3283 450.4332 450.6145 450.6147 450.6147 450.6503 450.6692
   450.6692 450.7532 450.7532 450.7911 450.7927 450.7994 450.9438 450.9574
   450.9613 450.9613 450.9845 450.9863 451.0991 451.0991 451.1435 453.6317
   453.6690 453.6690 453.7032 454.2567 454.7867 455.0291 455.0291 455.3160

          k = 0.7500-0.2500 0.7500 (  3415 PWs)   bands (ev):

   -28.2892 -28.2860 -28.2732 -28.2729 -28.2729 -27.8334  -9.8958  -9.8438
    -9.8307  -2.5303   4.7087   5.5745   5.9760   9.8361  12.1172  12.2413
    12.4029  12.5904  12.8748  14.6258  15.6586  16.1554  18.5224  18.7382
    19.3857  20.4301  20.6077  22.0912  22.9412  23.0474  24.1879  24.7658
    25.6170  27.1496  28.1381  28.3921  29.1182  29.1973  29.7849  29.9226
    31.1326  31.9568  33.1211  33.8494  34.4328  34.6847  35.6057  36.5023
    37.0266  37.7475  38.9001  39.3244  39.5058  39.8579  40.2347  41.0279
    41.7310  41.8947  42.8255  43.0307  44.3089  44.3472  45.4991  45.7074
    45.8211  46.6343  48.2267  48.3786  48.8628  49.0290  49.4287  49.7822
    50.1099  50.8706  50.9744  51.3529  51.5345  52.3814  53.1916  53.2347
    53.7655  54.7874  55.2866  55.7097  56.6317  56.9004  57.4803  57.6661
    58.2120  58.7236  58.9524  60.0487  60.6979  60.7202  61.5412  62.3950
    62.5141  62.6998  62.9832  63.8812  64.1846  64.4852  65.1542  65.3682
    66.0862  66.5460  66.6211  67.3931  67.9991  68.2635  68.5782  68.9747
    69.2032  69.4152  70.4879  71.5034  71.7457  73.1511  73.6255  74.0939
    74.5084  74.6440  75.5704  75.6726  76.1645  76.2839  77.0289  77.2469
    77.3762  77.8063  77.8937  78.2318  78.7207  78.7259  79.5633  79.6369
    80.6145  81.2569  81.3913  81.3945  81.8073  83.0733  83.2846  83.3770
    84.1480  84.3785  84.8128  85.0093  85.2672  85.6077  86.3236  86.8491
    87.3105  87.6610  88.3358  88.6495  88.7466  89.3013  89.3502  90.2050
    90.4044  90.7000  90.9058  91.0809  91.3888  91.4617  91.9213  92.0803
    92.4164  93.2745  93.7137  94.0832  94.3512  94.5323  95.2400  95.6348
    96.4920  96.8104  96.8106  97.3764  97.8892  98.0391  98.2680  98.3315
    98.6701  98.7089  98.9794  99.4135 100.5449 100.5504 100.6456 101.1270
   101.9407 102.1989 102.8843 103.1306 103.2153 103.5576 103.6850 104.1352
   105.0779 105.1810 106.0404 106.2208 106.3506 106.5607 106.7402 107.2130
   107.4529 108.0433 108.7348 109.2143 109.7774 110.4923 111.0706 111.1795
   111.3065 111.4669 111.8160 111.9669 112.0752 113.1634 113.4907 113.6718
   113.9984 114.0682 114.1803 114.5348 114.6015 114.8686 115.0348 115.3278
   115.7150 116.3268 116.3640 116.4518 116.8649 117.0499 117.7939 118.2792
   118.3414 118.8332 119.2050 120.1132 121.1105 121.4795 122.6925 122.9945
   123.1845 123.6525 124.2182 124.2356 124.4844 124.4864 124.8225 124.8293
   125.3305 125.4710 125.6604 126.0771 126.2969 126.5549 126.7988 127.5381
   127.6529 127.8037 128.4853 128.7027 129.1455 129.5064 129.7453 129.9126
   130.5628 131.0836 131.5868 131.5942 131.6151 131.6807 131.6952 132.0102
   132.7226 132.7384 132.8404 133.3780 133.4733 134.3252 134.7653 135.5106
   135.5772 136.1418 136.3124 136.5037 136.7893 137.5422 137.9723 138.3500
   138.7125 139.0388 139.3001 139.5428 139.6066 139.9899 140.1026 140.7373
   140.9576 141.0437 141.5594 141.5720 142.1120 142.1816 142.5566 142.9226
   142.9320 143.0896 143.2566 143.4025 143.4666 144.2799 144.3095 144.7498
   145.2103 145.4005 145.6326 145.7003 146.5348 146.8662 147.3360 147.7487
   147.9797 148.1503 148.5448 148.7949 149.4489 149.5667 149.9497 150.5213
   150.6977 151.3318 151.6157 151.7209 151.7457 151.7756 152.4791 152.6111
   152.8639 152.9428 152.9947 153.4557 154.2876 154.8435 154.9369 155.1953
   155.6394 155.8588 155.9324 156.2678 156.6175 157.0153 157.2383 157.6598
   157.6885 158.2051 158.2714 158.4537 158.5866 158.9384 159.2381 159.2912
   159.9010 159.9446 160.2008 160.2641 160.5352 160.6435 160.7228 160.8151
   162.0383 162.2042 162.5478 162.7766 163.0050 163.1138 163.2510 163.3331
   163.6425 164.1112 164.1193 165.3563 165.5942 166.1565 166.4058 166.4849
   166.6422 167.4259 167.5339 167.7818 167.9303 168.5099 168.7814 170.2362
   170.5195 170.5879 170.8764 171.1002 171.4779 171.4931 171.6690 172.0805
   172.4508 172.6785 172.8256 173.2493 173.7740 173.8659 174.1014 174.3493
   174.5121 174.5231 174.6149 175.0076 175.1551 175.4065 175.6118 176.3223
   176.8366 176.8620 177.2911 177.4504 177.6018 178.1417 178.2697 178.3931
   178.3978 178.5762 178.9615 179.1369 179.4438 180.0012 180.0110 180.0688
   180.4159 180.6778 181.1511 181.5192 181.8891 181.9550 182.1942 182.4733
   183.2990 183.7475 184.0796 184.1288 184.5591 185.7341 186.0565 186.8951
   187.0053 187.0719 187.4683 187.7598 188.0253 188.5979 188.8182 188.8332
   188.8487 189.3189 189.4225 189.8479 189.8618 190.2485 190.6093 190.7550
   190.8917 190.9773 191.4110 191.5247 191.9536 192.1564 192.2530 192.5373
   192.5557 193.1693 193.4429 193.4971 193.4992 193.7487 193.8435 194.1031
   194.2322 194.6855 194.6957 195.2120 195.4820 195.5382 196.2850 196.5953
   196.7725 197.6043 198.1065 198.4404 198.8935 199.3583 199.5663 199.6239
   199.7615 200.2679 200.2912 200.6595 200.6923 201.4746 201.7223 201.8693
   202.2172 202.3356 202.4824 202.6906 202.9795 203.0591 203.6602 203.7222
   204.0931 204.2487 204.2806 204.5623 204.8477 204.9467 205.5031 206.1571
   206.2322 206.3338 206.8869 207.0665 207.2606 207.3856 207.6152 207.9652
   208.4472 208.5532 208.8274 208.9647 209.0888 209.3234 209.4431 209.6200
   209.6442 209.6965 210.2415 210.4155 210.6492 210.7732 210.9854 211.0788
   211.5600 211.8034 211.9037 212.3517 212.9504 213.3467 213.5565 213.8163
   213.8351 213.9234 214.0806 214.1131 214.3859 214.5114 214.7665 215.5122
   215.8494 216.4664 216.5687 216.7320 217.3387 217.6056 217.8121 218.1415
   218.3471 218.3886 218.6089 218.9081 219.0771 219.5632 219.5651 220.1845
   220.5196 220.7542 220.7763 221.1361 221.2711 221.3774 221.5981 222.0650
   222.5914 222.6601 223.2203 223.3498 223.4701 223.6865 223.8053 223.9335
   224.0850 225.3320 225.7738 225.9074 226.2479 226.3379 226.4557 226.5710
   226.9178 227.2951 227.4717 227.6061 227.8109 228.0985 228.2558 228.3260
   228.5982 228.7020 228.9066 228.9538 229.0420 229.1250 229.6191 229.6485
   229.8113 229.8715 230.1517 230.3351 230.9371 231.1862 231.2423 231.6035
   232.1266 232.1655 232.4495 232.4784 232.7834 232.7904 233.0997 233.3957
   233.4921 233.8619 234.4466 234.5062 234.7905 234.8346 235.3140 235.6022
   235.9241 236.0109 236.1963 236.3068 236.7068 236.9330 237.0916 237.4482
   237.7935 237.8422 238.9327 239.3004 239.5057 239.6569 239.7915 239.9066
   240.2734 240.2890 241.0777 241.3171 241.4273 241.4530 241.6894 241.8394
   242.6308 242.9498 243.1163 243.1777 243.4106 243.5179 243.5646 243.6444
   243.6928 244.0441 244.1392 244.2257 244.4345 244.6686 244.7597 244.8908
   245.3047 245.3060 246.2882 246.9584 246.9747 247.3406 247.4763 247.8262
   248.0437 248.0650 248.1849 248.4752 248.5683 248.9190 249.3209 249.3862
   250.4393 250.7207 250.8416 250.9129 251.0349 251.8433 251.9378 252.0579
   252.3899 253.3109 253.7487 253.8616 253.9185 254.2578 254.4110 254.6332
   254.7033 254.9776 255.1362 255.1743 255.2880 255.5802 255.7171 255.7540
   255.8862 256.2259 256.5058 256.6254 256.7260 257.1132 257.5799 257.9878
   258.4366 258.5694 258.6907 258.6957 258.9208 259.0361 259.3527 259.5623
   259.9116 259.9346 259.9670 261.7804 261.9133 262.2330 262.8771 263.3223
   263.4100 263.4288 263.8486 263.8940 264.2179 264.4906 264.8191 264.9326
   265.1064 265.1421 265.3721 265.4154 265.4902 265.7744 265.7985 265.8415
   265.9923 266.0486 266.5443 266.5776 267.0145 267.0852 267.2618 267.3541
   267.9347 268.1613 268.2049 268.3441 268.7874 269.0346 269.2817 269.3590
   269.5927 269.6413 269.7572 269.9270 270.0018 270.1572 270.1846 270.5786
   270.7645 270.7955 271.6801 271.9116 271.9592 272.5394 272.5888 272.6775
   272.7066 272.8778 273.3035 273.5824 273.8158 274.0042 274.0712 274.4462
   274.6594 274.9530 275.1512 275.4046 276.2295 276.7333 276.7811 276.8735
   276.8902 277.4961 278.4390 278.6991 278.7570 278.7767 278.8058 279.1859
   279.5130 279.5659 279.7665 280.1362 280.4455 280.8436 280.8585 281.0088
   281.2369 281.2977 281.3809 282.4275 282.7313 283.0641 283.2035 283.2202
   283.3496 283.4930 283.8475 284.9073 285.1027 285.2651 285.2860 285.3843
   285.6941 285.7869 285.9289 286.1083 286.2989 286.6679 286.7196 286.8802
   287.1136 287.4789 287.6337 287.8432 288.1383 288.2792 288.6057 288.8818
   289.0248 289.0559 289.1767 289.5339 289.7064 289.9360 290.0354 290.1344
   290.3628 290.4645 290.5852 290.9651 291.2073 291.6955 292.0426 292.0454
   292.3157 292.5859 292.6208 292.6590 292.8240 292.8680 293.2690 293.5496
   293.6691 293.9330 293.9530 294.1255 294.1625 294.2436 294.5135 294.9185
   295.0229 295.2666 295.3367 295.3855 295.5528 295.6055 295.8984 295.9007
   296.1351 296.4142 296.6788 296.7758 297.2775 297.3490 297.4496 297.5396
   297.8204 298.4496 298.6237 298.7607 298.8398 299.1293 299.3029 299.7866
   299.8465 299.8982 299.9879 300.2161 300.5171 301.6807 302.5203 302.7951
   302.9472 303.2004 303.4594 303.6703 303.8672 304.0808 304.1972 304.4900
   305.1304 305.4314 305.6119 305.6607 306.0499 306.3955 306.4718 306.4908
   306.6278 306.7313 306.8157 306.8591 306.9465 307.0223 307.0799 307.2635
   307.2723 307.5078 307.5561 307.6303 307.7280 307.8026 307.8720 308.5007
   308.6466 309.1451 309.3550 309.4442 309.5510 309.9557 310.2046 310.3153
   310.3764 310.4329 310.6990 311.0107 311.1449 311.8293 312.3368 312.3556
   312.3728 312.8396 312.9500 313.2972 313.7810 313.8494 314.0499 314.2028
   314.3612 314.5457 314.9399 315.0594 315.1684 315.6058 315.7082 316.1763
   316.3618 316.4004 316.4692 316.5841 317.0320 317.2112 317.5859 317.7666
   317.8500 317.9422 317.9923 318.5596 318.5754 318.6144 318.9390 319.0908
   319.2513 319.3521 319.3558 319.4276 319.6303 320.2405 320.2790 320.2911
   320.8083 321.3593 321.5256 321.7510 322.0938 322.3204 322.6845 322.7178
   323.0020 323.0534 323.1807 323.7487 323.8334 323.9922 324.1377 324.4961
   324.7744 324.9008 325.1589 325.2745 325.3004 325.7548 325.8692 326.4322
   326.4665 326.5535 326.7190 326.8499 326.8611 327.2615 327.2840 327.3224
   327.8731 327.9618 328.1284 328.4918 328.7801 328.8457 328.9237 329.7469
   329.8286 329.9720 330.4030 330.9466 330.9632 331.2515 331.5288 331.6698
   331.7514 332.3087 332.3417 332.4971 332.5675 333.0345 333.0786 333.1343
[...]
   414.2029 414.3934 415.4297 416.0789 416.0789 416.1032 416.1032 416.1065
   416.1065 416.1248 416.1369 416.6349 416.7082 416.7094 416.8578 416.8578
   416.8998 416.8998 416.9260 417.1599 417.2091 417.2165 417.2200 417.2200
   417.2264 417.2264 417.2672 417.3622 417.3748 417.3953 417.4598 417.4598
   417.5045 418.7107 419.3727 419.3727 419.5959 420.0916 420.3006 420.3006
   420.6342 420.6372 420.8269 420.8269 420.8522 420.8584 420.8584 420.8604
   420.8822 420.8822 421.1320 421.1357 424.1225 424.1225 424.7523 425.0020
   425.0236 425.1236 425.1236 425.2193 425.2583 425.4105 425.4105 425.5578
   425.6362 425.7521 425.7521 425.9256 426.1981 426.5988 426.6011 426.9671
   426.9671 427.3107 427.3426 427.6937 427.6937 427.8049 427.8049 427.9499
   428.0108 428.0108 428.0224 428.2064 428.2798 428.3329 428.3329 428.3616
   428.3616 428.4003 428.4189 428.4336 428.9658 428.9754 428.9923 429.0344
   429.0344 429.0380 429.0380 429.1075 430.4249 430.4249 430.4552 430.4633
   430.7365 430.7740 430.7740 430.8134 435.2828 435.2828 436.5605 437.0495
   437.1176 437.1176 437.1317 437.1486 437.1486 437.1591 437.1658 438.3731
   438.3913 438.4197 439.1463 439.1463 439.7897 439.7897 439.9753 440.0148
   440.0210 440.5878 440.8185 440.8185 441.4376 441.7452 441.7875 441.7875
   441.8281 442.2030 442.2030 442.2253 442.5503 442.6022 442.6052 442.6052
   442.6186 442.6186 442.6825 442.6871 442.7068 442.8576 443.1236 443.1236
   443.1349 443.2603 443.3245 443.3497 443.3497 443.8734 443.8734 444.0419
   444.3097 444.3235 444.5470 444.5470 444.8254 445.1299 445.2053 445.9020
   445.9020 445.9442 445.9480 445.9484 445.9484 445.9667 445.9667 446.0106
   446.0690 446.0690 446.1272 446.2192 446.2192 446.2597 446.4291 446.4291
   446.5980 446.7001 446.7001 446.7353 448.4998 449.0662 449.0662 449.3285
   449.7521 449.7521 450.0454 450.1759 450.4288 450.8025 450.8025 451.0945
   451.0945 451.0990 451.2207 451.2266 451.6194 451.6194 451.7945 451.8078
   453.7511 453.7511 453.7875 453.9704 453.9710 453.9710 454.0907 454.2189
   454.2693 454.2890 454.3067 454.3067 455.8192 457.2337 457.3498 457.3498

          k =-0.5000-1.0000 0.0000 (  3400 PWs)   bands (ev):

   -28.2907 -28.2860 -28.2731 -28.2731 -28.2728 -27.8312  -9.8670  -9.8670
    -9.8508  -2.5198   5.3433   5.3433   5.4076  10.8172  10.8172  11.3048
    12.5399  13.0052  14.4004  15.0099  15.6282  15.6282  18.4464  18.4464
    18.4987  21.5745  21.9128  22.7433  22.7433  24.0892  24.0892  24.2948
    25.6799  25.6861  25.8234  26.4481  26.4481  29.8498  29.8498  30.6190
    31.9227  31.9891  34.8452  35.2210  35.6815  35.6815  36.1207  36.1207
    37.3286  38.0652  38.9698  39.1446  39.1446  39.1818  41.0917  41.0917
    41.3263  41.5961  42.9727  42.9727  43.1911  44.5391  44.5391  46.1581
    47.1598  47.1598  47.3363  48.2562  48.2595  48.8359  49.7505  50.0360
    50.0360  50.6553  50.9437  50.9437  52.1795  52.1795  52.2813  54.7252
    55.3997  56.0539  56.0539  56.3857  57.0891  57.0891  57.8558  57.8807
    57.9829  58.1561  58.2713  59.4029  59.4029  59.8711  60.0230  61.3041
    61.3041  61.7137  63.1876  63.2624  63.8315  63.8315  64.6782  64.9901
    65.1073  65.1073  65.9949  66.1138  66.1138  67.2933  68.5637  68.5637
    68.7418  71.6840  71.6840  71.6944  73.0044  73.2324  73.2324  73.9957
    75.3956  75.3956  76.2812  76.2812  76.2901  76.3843  76.9351  77.4924
    78.7279  78.7279  79.9517  79.9517  80.2003  80.3829  80.4452  80.7709
    81.3387  81.3387  81.5499  81.6921  83.6537  83.7429  84.5148  84.5848
    84.6016  84.6016  85.2722  85.2722  85.4167  85.5332  85.8433  87.3094
    87.3094  87.6365  88.4599  88.4691  88.8080  88.8080  89.1598  89.1598
    89.3634  89.5256  89.7977  89.8651  89.8651  91.0172  91.1463  91.1463
    91.3921  92.0701  92.7008  93.4916  93.4916  94.1994  96.2463  96.8793
    96.8793  96.8991  97.7832  97.8551  98.1361  98.1674  98.1674  98.3608
    99.7240  99.7499  99.7499 100.0086 100.3502 100.3632 100.3632 101.1025
   101.4930 101.4930 102.3612 102.5249 102.5249 102.5756 102.7298 103.3800
   103.3800 104.0955 104.0955 105.0347 105.0387 106.0503 106.0503 106.1619
   107.2972 107.5533 108.0805 108.0805 109.3783 109.3783 109.8782 110.2364
   111.0447 111.0447 111.6758 112.6853 113.5096 113.5096 114.1454 114.4656
   114.5471 114.7707 114.7707 115.0666 115.4066 115.9362 116.2422 116.2422
   116.5375 116.9644 117.4958 117.4995 118.0605 118.0605 118.2463 118.2463
   118.9084 119.2484 119.6965 119.6965 120.7036 121.2533 121.5531 121.9846
   121.9846 123.3061 123.3061 123.3185 124.0747 124.2658 124.3910 124.3910
   124.5751 124.8003 125.1394 125.2320 125.7808 125.7808 126.3316 126.6658
   127.1922 127.3801 127.3801 128.0281 128.3363 128.3363 129.1279 129.1279
   131.3151 131.8180 131.8841 131.9535 131.9535 132.9875 133.2247 133.3806
   133.3806 134.6316 135.1013 135.1430 135.1430 135.2145 135.5555 135.5555
   137.1582 137.2732 137.7054 139.2701 139.2701 140.1281 140.4009 140.4153
   140.4153 140.9059 140.9390 141.1585 141.2188 141.2188 141.6452 141.7081
   141.7081 141.7624 142.1602 142.2002 142.2117 142.2117 142.7669 142.7669
   143.1791 143.1791 143.2912 143.3389 144.1949 144.6385 144.6385 144.9252
   145.0338 145.3372 145.3372 145.4480 145.7836 146.1497 146.1497 146.2179
   146.3142 146.3967 146.3967 146.6759 147.0022 147.2569 147.2569 147.8385
   148.1295 148.1295 150.6881 151.5110 151.5820 152.6183 152.6183 153.2796
   153.3779 153.4185 153.8035 153.8035 154.1970 154.1970 154.2949 154.4580
   154.8349 154.8351 155.0742 155.0742 156.1768 156.1768 157.6046 157.6046
   157.7240 157.7817 157.9806 157.9947 158.0547 158.1282 158.3335 158.3335
   159.3138 159.3138 159.4096 160.3973 160.9482 161.0707 161.0707 161.2295
   161.4781 161.7269 162.5322 162.5322 162.7190 164.9109 165.0964 165.1165
   165.1165 165.2726 165.4502 165.4502 165.5211 165.8836 166.1077 166.1077
   166.1953 166.8498 166.9977 166.9977 167.1777 167.2906 167.3978 167.7900
   167.7900 167.7904 168.4706 168.4706 170.1103 170.1692 170.1692 170.4892
   170.9225 170.9323 171.1383 171.8451 171.8451 172.2964 173.7667 173.7667
   174.6928 175.4739 175.6057 175.6057 176.3748 177.2321 178.3765 178.3765
   178.6216 178.6688 178.7961 179.2699 179.2699 179.4814 179.8674 180.2572
   180.2572 180.2981 180.3619 180.4331 180.5780 180.9217 180.9217 181.0928
   181.0928 181.1660 181.3451 182.4187 182.4187 182.4489 182.7092 182.8517
   183.1296 183.1296 183.1815 184.3746 184.9561 185.8467 185.8467 186.1795
   187.0970 187.0970 188.3712 188.3712 188.4719 188.6880 188.9657 189.0313
   189.2761 189.2761 189.8552 189.8552 190.0806 190.5577 190.5577 190.9572
   190.9583 191.1799 191.6247 191.6247 191.7615 191.7615 191.9788 192.1080
   193.1703 193.1703 193.6228 193.6228 193.6862 193.7730 194.2201 194.2201
   194.3066 194.3846 194.4393 194.5500 194.9888 194.9888 195.7683 196.2211
   196.4338 196.4338 196.9627 197.2218 197.3638 197.3638 197.7310 197.7577
   198.1118 198.1118 198.4912 198.5378 198.5378 198.6915 199.0091 199.2557
   199.2557 199.2871 199.5561 199.6229 203.2990 203.2990 204.7064 204.7069
   204.9074 204.9074 206.4615 206.6109 206.8997 207.1272 207.5833 207.5833
   208.2196 208.2196 208.7269 208.9722 209.5768 209.5768 209.6778 209.7836
   209.9786 210.1406 210.1406 210.1603 210.7194 210.7194 211.0349 211.0938
   211.4001 211.4016 211.7997 211.8850 211.8850 212.0145 212.0145 212.1089
   212.4555 212.5482 212.5482 212.9760 213.9104 213.9131 213.9131 213.9686
   214.6139 214.6139 214.8657 214.9887 215.0220 215.0430 215.2698 215.2698
   216.7837 217.1938 217.2666 217.2666 217.4925 217.5050 219.7257 219.7257
   220.1346 220.1854 220.3716 220.4162 220.4162 220.9037 220.9037 220.9253
   221.0371 221.1422 221.4213 221.4213 222.0183 222.4103 222.4179 222.4468
   222.5119 222.5119 222.9543 222.9543 222.9782 223.0786 223.2988 223.2988
   223.2994 223.3866 224.2191 224.3472 224.3472 224.3791 224.6961 224.6961
   225.2033 225.2141 225.2819 225.2819 225.7217 226.1971 226.3949 226.4013
   226.7006 226.7006 227.0298 227.6387 227.6387 227.7438 229.3362 229.6682
   230.1789 230.1789 230.7009 230.7009 231.1818 231.4309 231.5949 231.7445
   231.7445 232.1555 232.8845 233.1991 233.2028 233.2028 234.0422 234.1697
   234.5303 234.5303 234.5312 234.7287 234.7420 234.7699 234.8739 234.8739
   234.9421 234.9421 235.3455 235.3681 235.3681 235.4690 235.7391 235.8798
   236.7521 236.7521 238.6976 238.8177 239.0838 239.0838 239.8249 239.8249
   240.2892 240.3544 240.7837 240.7837 240.7876 240.8369 240.8459 240.8537
   241.9171 241.9171 242.0542 242.0542 242.0647 242.0827 242.4361 242.4361
   242.6870 242.6870 243.0652 243.3770 244.3447 244.3447 244.4177 244.4269
   245.3017 245.3017 245.5054 245.7149 246.4022 246.4022 247.7941 247.7941
   247.7964 247.7964 248.5316 248.5763 248.5985 248.5985 249.1107 249.1131
   249.1337 249.1337 249.7771 249.7771 249.8051 250.2748 250.3783 250.8246
   250.8246 250.9743 251.4246 251.4246 251.4269 251.4401 251.5769 251.6558
   252.3148 253.1342 253.3756 253.3756 254.6055 254.7689 254.9049 254.9049
   255.3603 256.1810 256.1810 256.9444 258.0626 258.1086 258.4949 258.4949
   258.6313 258.6603 258.6750 258.6750 258.6843 258.9311 258.9311 259.0027
   262.0227 262.1411 262.1411 262.4470 262.7957 263.0763 263.3144 263.3144
   263.5466 263.7138 263.8499 263.8499 264.3728 264.7294 264.7437 264.8436
   264.8436 264.8706 265.3949 265.3949 265.7516 265.7516 266.0403 266.4855
   267.5118 267.5880 267.7195 267.7195 268.0432 268.0818 270.2875 270.6368
   270.6368 270.7831 271.2887 271.2887 271.8570 272.1632 272.2910 272.5711
   272.5711 272.8364 272.8364 272.9291 273.0931 273.0931 273.1062 273.2300
   273.2378 273.2378 273.2482 273.2710 274.1571 274.1571 274.3279 274.3613
   275.1111 275.1111 275.2202 275.4519 275.8887 276.1679 276.1679 276.3266
   276.8417 277.1467 277.9007 278.1102 278.1102 278.3581 278.3581 278.5404
   279.3805 279.5643 279.5643 279.8266 280.0034 280.0034 280.2530 280.2911
   280.3082 280.5747 280.5972 280.8206 280.8206 280.9381 281.0937 281.0937
   281.2629 281.2822 281.4764 281.5119 281.5789 281.5789 281.6542 281.6542
   281.6875 281.7084 282.4347 282.4347 282.9506 283.0187 283.9860 284.1005
   284.1005 284.1028 285.0374 285.0374 285.4978 285.5484 285.6327 285.6327
   286.2995 286.3886 286.9686 287.5799 287.6928 287.6928 287.8048 287.8588
   287.8588 287.9895 288.0073 288.0160 288.0613 288.0613 288.4101 288.8193
   289.0404 289.2181 289.2181 289.2339 289.5369 289.6994 289.6994 289.7438
   289.8427 289.8427 289.8786 290.3127 290.3127 290.3140 290.4479 290.4847
   290.5772 290.5772 291.5886 291.5886 292.3856 292.3856 293.4003 293.7710
   294.6816 295.8275 295.8662 296.7869 296.7869 296.9217 298.1649 298.4544
   298.4544 298.4621 298.4960 298.5095 298.5970 298.5970 298.6608 299.5489
   299.5703 299.5703 299.6692 299.8930 299.9353 299.9353 301.1413 301.2276
   301.2276 301.2569 301.2988 301.7664 301.7664 301.8741 302.1409 302.1409
   302.1936 302.4630 302.7555 302.7919 302.7919 302.7954 303.0093 303.0093
   303.1041 303.3280 303.3582 303.3582 304.7490 304.7997 305.5600 305.5600
   305.9478 306.1223 306.1223 306.2816 306.4235 306.4235 307.4830 307.6904
   309.0002 309.0002 309.4458 310.0917 310.0917 310.2593 310.5283 310.6311
   310.6981 310.8385 310.8385 311.1659 311.3181 311.4324 311.4324 311.6921
   311.9947 312.3349 312.7739 312.7739 312.8446 313.0699 313.0699 313.1398
   313.7048 314.0367 314.0367 314.0507 314.7806 314.8397 315.0683 315.2047
   315.2047 315.2830 315.3401 315.3913 315.4209 315.4209 315.4896 315.8919
   316.1744 316.1744 316.2192 316.2192 316.5658 316.5658 317.3716 317.5360
   317.5490 317.5490 317.8654 317.8954 318.0938 318.1568 318.1568 318.1747
   318.8123 318.8123 319.4950 319.5824 319.7010 319.7638 319.8917 319.8917
   320.0722 320.0722 320.2086 320.2743 320.7205 320.7205 320.7239 320.8307
   320.9022 321.0322 321.0322 321.1123 321.2021 321.2021 321.3224 321.3504
   321.3504 321.3822 321.3976 321.5251 322.0841 322.0841 322.0999 322.2173
   324.4977 324.7865 325.1657 325.1657 328.2571 328.2571 329.0555 329.2154
   329.5535 329.7206 329.7312 329.7312 329.8106 329.8250 329.8250 329.8306
   329.8378 330.1725 330.1725 331.3253 331.7977 331.7977 331.8833 332.1022
   332.9041 333.3222 333.3222 333.3447 334.0268 334.0360 334.0539 334.0539
   334.1574 334.1574 334.2533 334.2731 334.5062 334.5062 334.9017 335.0367
   335.2205 335.2421 335.2421 335.4064 335.4285 335.4285 335.4530 336.3207
   336.4251 336.6767 336.6826 336.6826 336.7409 336.7841 336.7841 337.0227
   338.5115 338.5732 339.0360 339.0360 339.4311 339.5687 339.5687 339.6422
   339.7619 339.8348 339.9238 339.9238 340.4126 340.4126 340.5373 340.5506
   341.2463 341.4144 341.6229 341.6229 341.9304 341.9304 341.9681 342.0278
   342.0725 342.1242 342.1822 342.1822 342.3444 342.5227 342.5227 342.8050
   344.0078 345.2068 345.3438 345.3717 345.3717 346.5613 346.5893 347.1342
   347.1342 347.1774 347.2209 347.2209 347.3894 347.5218 347.9378 348.2471
   348.2471 348.2641 348.2761 348.3428 348.4734 348.4734 348.5476 348.5811
   348.5811 348.8840 349.1496 349.1496 349.2355 349.2619 351.1763 353.7106
   354.0911 354.0911 354.3024 354.4117 354.4117 354.4475 354.5822 354.6113
   354.6113 354.6972 355.2694 355.5863 355.5863 356.0918 356.2235 356.5100
   356.5830 356.7915 356.7915 357.1653 357.1653 357.1733 357.2486 357.4735
   357.4735 358.0097 358.1660 358.3865 358.4567 358.4567 358.4614 358.5149
   358.6011 358.6011 359.6186 359.7503 359.8277 359.8277 359.9536 359.9536
   360.3613 360.3930 360.4491 360.4762 360.5697 360.5697 360.6729 360.8583
   360.8583 360.9316 361.2055 361.4355 361.4355 361.4579 364.0004 364.4650
   364.6293 364.6293 364.8245 364.8647 364.8930 365.0006 365.0282 365.0282
   365.2076 365.2076 365.2435 365.4612 365.7605 365.7605 365.8332 366.2873
   367.7527 367.7527 368.1622 368.1622 368.7654 368.7689 368.7689 368.7758
   370.5811 370.5811 371.2078 371.2842 371.3774 371.3774 372.2074 372.3008
   372.3008 372.9001 373.0317 373.0440 373.5343 373.5343 373.9953 374.0584
   374.0584 374.2075 374.7495 375.6272 375.6272 375.9137 376.0883 376.5289
   376.8450 376.8464 376.8464 377.6350 378.2550 378.6948 378.7037 378.7064
   378.7064 378.8271 378.8271 379.0323 379.2713 379.5597 379.5597 379.6246
   379.7369 379.7499 379.7499 379.8070 379.8902 379.9993 380.7655 380.7655
   380.8747 380.9754 380.9794 381.0175 381.0175 381.1374 381.1898 381.1898
   381.1928 381.2214 381.2390 381.2432 381.2432 381.2632 381.5174 381.8792
   381.9084 381.9084 381.9204 381.9948 381.9948 381.9956 382.2278 382.2278
   382.3882 382.5218 382.5218 382.6236 382.7357 383.3374 383.3374 383.5732
   383.6156 383.6156 384.5542 384.7116 384.8931 384.8958 385.0683 385.0683
   385.8674 385.8674 386.4696 386.4954 386.4962 386.4962 386.6926 386.7561
   386.7857 386.7857 387.1887 387.2090 387.2299 387.3334 387.3334 387.4143
   388.3045 388.3112 388.3112 388.4262 388.4324 388.4324 388.4336 388.4644
   389.5427 390.2450 390.2608 390.2608 390.4245 390.4245 390.8970 391.2323
   392.6955 393.1030 393.1725 393.1725 393.4248 393.4480 393.4934 393.5647
   393.5647 393.6430 393.6430 393.7387 393.7830 393.7830 393.8173 393.9121
   394.0575 394.0575 394.1223 394.2267 394.3508 394.4707 394.4707 394.4816
   394.6227 394.6775 394.6775 394.7323 395.5214 395.5396 395.5396 395.6671
   395.9013 396.0017 396.0372 396.0372 396.0598 396.2235 396.2872 396.2872
   400.2424 400.2898 400.4083 400.5535 400.5535 400.6642 400.7031 400.7031
   400.8558 400.8558 400.9781 400.9984 401.0081 401.0249 401.0289 401.0289
   404.3681 404.3681 404.6075 404.6201 404.6330 404.6330 404.6381 404.7204
   404.8755 405.0428 405.0463 405.0463 405.7492 405.7891 405.9585 405.9585
   405.9675 406.2292 406.2292 406.5817 407.0975 407.1488 407.5479 407.5479
   407.5704 407.8314 407.8912 407.9109 407.9109 407.9227 408.3376 408.5316
   408.5316 408.8865 408.9601 408.9601 409.0659 409.1198 409.2776 409.8589
   409.8589 409.8834 410.0118 410.0118 411.8490 411.8490 411.9517 412.0572
   412.2624 412.4548 412.7526 412.7526 413.0392 413.0392 413.2123 413.2349
   413.4898 413.4898 413.5928 413.6676 413.6856 413.9138 413.9138 414.1002
   414.3659 414.3659 414.9072 414.9233 415.1073 415.3314 415.3314 415.3710
   417.1381 417.2765 417.2765 417.8935 417.9252 417.9252 418.0058 418.0909
   418.6077 418.6077 418.7321 418.7891 419.0729 419.1876 419.1996 419.4277
   419.4277 419.4635 419.6272 419.6272 419.8087 421.6048 421.6048 421.6262
   421.6335 421.7614 422.4445 422.6415 422.6415 422.7175 422.7193 422.7261
   422.7261 422.7280 422.7388 422.7388 422.8223 422.8254 422.8314 422.8315
   422.8334 422.8334 423.2194 423.4220 423.4359 423.4359 423.6372 423.6372
   423.6613 423.8631 424.5551 424.6061 424.6061 425.1320 425.1667 425.1667
   425.1770 425.4441 425.6239 425.8613 425.8871 425.8871 425.8957 425.9637
   425.9814 425.9814 427.4783 427.5711 427.5711 427.5878 428.2199 428.3562
   428.4246 428.4251 428.4251 428.4539 428.4539 428.4540 429.2155 429.2465
   429.3189 429.3189 432.0237 432.0237 432.4459 432.6942 432.6942 432.7520
   432.8415 432.8470 432.8537 432.8537 433.0615 433.0750 433.2754 433.3026
   433.3026 433.3761 434.0384 434.1779 434.1887 434.1887 434.6971 434.7103
   434.9666 435.0420 435.0420 435.0621 435.1016 435.1052 435.1052 435.2748
   435.3273 435.3273 436.8277 437.1066 437.1066 437.2623 438.3964 438.4340
   438.4340 438.4397 438.7653 439.0484 439.0484 439.5391 439.6477 439.6477
   439.7951 439.8002 440.8659 440.9814 440.9814 441.3683 441.4149 441.4149
   441.4189 441.4749 442.0710 442.0710 442.6251 443.0435 443.0435 443.1722
   443.9416 443.9416 444.0619 444.1151 444.9216 444.9216 445.3032 446.3750
   446.3750 446.4616 447.1612 447.3232 447.3999 447.5081 447.5081 447.5873
   447.9419 447.9419 447.9773 448.0330 448.1191 448.1386 448.1386 448.2539
   448.2868 448.3237 448.3237 448.7730 449.1140 449.2552 449.3141 449.3141
   449.5286 449.5286 451.1472 451.5917 451.5917 451.6733 451.7053 451.8079
   451.8725 451.8725 451.8767 451.8863 451.9420 452.0203 452.3279 452.3279
   452.7425 452.9049 452.9069 452.9069 454.0428 454.0491 454.0545 454.0545
   454.3742 454.4627 454.4664 454.4664 454.5503 454.5818 454.5818 454.5880
   455.4495 455.4850 455.4976 455.4976 456.7138 456.7138 457.1729 457.9077

     the Fermi energy is     7.7609 ev
     (compare with:     7.5768 eV, computed in scf)

     Writing all to output data dir out/mp-1958.save/
 
     init_run     :      0.05s CPU      0.06s WALL (       1 calls)
     electrons    :   1963.83s CPU   2113.52s WALL (       1 calls)

     Called by init_run:
     wfcinit      :      0.00s CPU      0.00s WALL (       1 calls)
     potinit      :      0.01s CPU      0.02s WALL (       1 calls)
     hinit0       :      0.01s CPU      0.02s WALL (       1 calls)

     Called by electrons:
     c_bands      :   1963.83s CPU   2113.50s WALL (       1 calls)
     v_of_rho     :      0.01s CPU      0.01s WALL (       1 calls)

     Called by c_bands:
     init_us_2    :      0.00s CPU      0.00s WALL (       8 calls)
     init_us_2:cp :      0.00s CPU      0.00s WALL (       8 calls)
     paro_k       :   1908.00s CPU   2053.81s WALL (       8 calls)

     Called by paro_*:
     h_psi        :     26.95s CPU     27.82s WALL (    1134 calls)
     g_psi        :      0.40s CPU      0.45s WALL (  114312 calls)

     Called by h_psi:
     h_psi:calbec :      0.49s CPU      0.51s WALL (    1134 calls)
     vloc_psi     :     25.95s CPU     26.78s WALL (    1134 calls)
     add_vuspsi   :      0.38s CPU      0.39s WALL (    1134 calls)

     General routines
     calbec       :      0.49s CPU      0.51s WALL (    1134 calls)
     fft          :      0.01s CPU      0.01s WALL (      10 calls)
     fftw         :     23.51s CPU     24.25s WALL (  187584 calls)
 
     Parallel routines
 
     PWSCF        :  32m44.90s CPU  35m15.09s WALL

 
   This run was terminated on:  22:22:51  20Dec2023            

=------------------------------------------------------------------------------=
   JOB DONE.
=------------------------------------------------------------------------------=
