
     Program PWSCF v.7.1 starts on 20Dec2023 at 21:45:44 

     This program is part of the open-source Quantum ESPRESSO suite
     for quantum simulation of materials; please cite
         "P. Giannozzi et al., J. Phys.:Condens. Matter 21 395502 (2009);
         "P. Giannozzi et al., J. Phys.:Condens. Matter 29 465901 (2017);
         "P. Giannozzi et al., J. Chem. Phys. 152 154105 (2020);
          URL http://www.quantum-espresso.org", 
     in publications or presentations arising from this work. More details at
     http://www.quantum-espresso.org/quote

     Parallel version (MPI), running on     8 processors

     MPI processes distributed on     1 nodes
     123189 MiB available memory on the printing compute node when the environment starts
 
     Reading input from pw_mp-1958_scf_k3000_E54.in
Warning: card &CELL ignored
Warning: card / ignored

     Current dimensions of program PWSCF are:
     Max number of different atomic species (ntypx) = 10
     Max number of k-points (npk) =  40000
     Max angular momentum in pseudopotentials (lmaxx) =  4
 
     R & G space division:  proc/nbgrp/npool/nimage =       8
     Subspace diagonalization in iterative solution of the eigenvalue problem:
     a serial algorithm will be used

 
     Parallelization info
     --------------------
     sticks:   dense  smooth     PW     G-vecs:    dense   smooth      PW
     Min         148     148     45                 3413     3413     558
     Max         149     149     46                 3416     3416     560
     Sum        1189    1189    361                27317    27317    4477
 
     Using Slab Decomposition
 


     bravais-lattice index     =            2
     lattice parameter (alat)  =      12.6832  a.u.
     unit-cell volume          =     510.0684 (a.u.)^3
     number of atoms/cell      =            2
     number of atomic types    =            2
     number of electrons       =        26.00
     number of Kohn-Sham states=           26
     kinetic-energy cutoff     =      54.0000  Ry
     charge density cutoff     =     216.0000  Ry
     scf convergence threshold =      1.0E-10
     mixing beta               =       0.7000
     number of iterations used =            8  plain     mixing
     Exchange-correlation= PBE
                           (   1   4   3   4   0   0   0)

     celldm(1)=  12.683218  celldm(2)=   0.000000  celldm(3)=   0.000000
     celldm(4)=   0.000000  celldm(5)=   0.000000  celldm(6)=   0.000000

     crystal axes: (cart. coord. in units of alat)
               a(1) = (  -0.500000   0.000000   0.500000 )  
               a(2) = (   0.000000   0.500000   0.500000 )  
               a(3) = (  -0.500000   0.500000   0.000000 )  

     reciprocal axes: (cart. coord. in units 2 pi/alat)
               b(1) = ( -1.000000 -1.000000  1.000000 )  
               b(2) = (  1.000000  1.000000  1.000000 )  
               b(3) = ( -1.000000  1.000000 -1.000000 )  


     PseudoPot. # 1 for Sr read from file:
     /usr/scratch4/magr4985/MG/HTDF/pseudo/SG15/Sr.upf
     MD5 check sum: 3f9bc8d6f3e8472da0cbe0e6a3044a9f
     Pseudo is Norm-conserving, Zval = 10.0
     Generated using ONCVPSP code by D. R. Hamann
     Using radial grid of  602 points,  6 beta functions with: 
                l(1) =   0
                l(2) =   0
                l(3) =   1
                l(4) =   1
                l(5) =   2
                l(6) =   2

     PseudoPot. # 2 for Te read from file:
     /usr/scratch4/magr4985/MG/HTDF/pseudo/SG15/Te.upf
     MD5 check sum: dd4de4dac1e38587f63aaf3700bb29d3
     Pseudo is Norm-conserving, Zval = 16.0
     Generated using ONCVPSP code by D. R. Hamann
     Using radial grid of  602 points,  6 beta functions with: 
                l(1) =   0
                l(2) =   0
                l(3) =   1
                l(4) =   1
                l(5) =   2
                l(6) =   2

     atomic species   valence    mass     pseudopotential
        Sr            10.00    87.62000     Sr( 1.00)
        Te            16.00   127.60000     Te( 1.00)

     48 Sym. Ops., with inversion, found



   Cartesian axes

     site n.     atom                  positions (alat units)
         1           Sr  tau(   1) = (   0.0000000   0.0000000   0.0000000  )
         2           Te  tau(   2) = (  -0.5000000   0.5000000   0.5000000  )

     number of k points=    72  Gaussian smearing, width (Ry)=  0.0005
                       cart. coord. in units 2pi/alat
        k(    1) = (   0.0000000   0.0000000   0.0000000), wk =   0.0011574
        k(    2) = (  -0.0833333   0.0833333  -0.0833333), wk =   0.0092593
        k(    3) = (  -0.1666667   0.1666667  -0.1666667), wk =   0.0092593
        k(    4) = (  -0.2500000   0.2500000  -0.2500000), wk =   0.0092593
        k(    5) = (  -0.3333333   0.3333333  -0.3333333), wk =   0.0092593
        k(    6) = (  -0.4166667   0.4166667  -0.4166667), wk =   0.0092593
        k(    7) = (   0.5000000  -0.5000000   0.5000000), wk =   0.0046296
        k(    8) = (   0.0000000   0.1666667   0.0000000), wk =   0.0069444
        k(    9) = (  -0.0833333   0.2500000  -0.0833333), wk =   0.0277778
        k(   10) = (  -0.1666667   0.3333333  -0.1666667), wk =   0.0277778
        k(   11) = (  -0.2500000   0.4166667  -0.2500000), wk =   0.0277778
        k(   12) = (  -0.3333333   0.5000000  -0.3333333), wk =   0.0277778
        k(   13) = (   0.5833333  -0.4166667   0.5833333), wk =   0.0277778
        k(   14) = (   0.5000000  -0.3333333   0.5000000), wk =   0.0277778
        k(   15) = (   0.4166667  -0.2500000   0.4166667), wk =   0.0277778
        k(   16) = (   0.3333333  -0.1666667   0.3333333), wk =   0.0277778
        k(   17) = (   0.2500000  -0.0833333   0.2500000), wk =   0.0277778
        k(   18) = (   0.1666667  -0.0000000   0.1666667), wk =   0.0138889
        k(   19) = (   0.0000000   0.3333333   0.0000000), wk =   0.0069444
        k(   20) = (  -0.0833333   0.4166667  -0.0833333), wk =   0.0277778
        k(   21) = (  -0.1666667   0.5000000  -0.1666667), wk =   0.0277778
        k(   22) = (  -0.2500000   0.5833333  -0.2500000), wk =   0.0277778
        k(   23) = (   0.6666667  -0.3333333   0.6666667), wk =   0.0277778
        k(   24) = (   0.5833333  -0.2500000   0.5833333), wk =   0.0277778
        k(   25) = (   0.5000000  -0.1666667   0.5000000), wk =   0.0277778
        k(   26) = (   0.4166667  -0.0833333   0.4166667), wk =   0.0277778
        k(   27) = (   0.3333333   0.0000000   0.3333333), wk =   0.0138889
        k(   28) = (   0.0000000   0.5000000   0.0000000), wk =   0.0069444
        k(   29) = (  -0.0833333   0.5833333  -0.0833333), wk =   0.0277778
        k(   30) = (  -0.1666667   0.6666667  -0.1666667), wk =   0.0277778
        k(   31) = (   0.7500000  -0.2500000   0.7500000), wk =   0.0277778
        k(   32) = (   0.6666667  -0.1666667   0.6666667), wk =   0.0277778
        k(   33) = (   0.5833333  -0.0833333   0.5833333), wk =   0.0277778
        k(   34) = (   0.5000000   0.0000000   0.5000000), wk =   0.0138889
        k(   35) = (   0.0000000   0.6666667   0.0000000), wk =   0.0069444
        k(   36) = (  -0.0833333   0.7500000  -0.0833333), wk =   0.0277778
        k(   37) = (   0.8333333  -0.1666667   0.8333333), wk =   0.0277778
        k(   38) = (   0.7500000  -0.0833333   0.7500000), wk =   0.0277778
        k(   39) = (   0.6666667  -0.0000000   0.6666667), wk =   0.0138889
        k(   40) = (   0.0000000   0.8333333   0.0000000), wk =   0.0069444
        k(   41) = (   0.9166667  -0.0833333   0.9166667), wk =   0.0277778
        k(   42) = (   0.8333333   0.0000000   0.8333333), wk =   0.0138889
        k(   43) = (   0.0000000  -1.0000000   0.0000000), wk =   0.0034722
        k(   44) = (  -0.1666667   0.3333333   0.0000000), wk =   0.0277778
        k(   45) = (  -0.2500000   0.4166667  -0.0833333), wk =   0.0555556
        k(   46) = (  -0.3333333   0.5000000  -0.1666667), wk =   0.0555556
        k(   47) = (   0.5833333  -0.4166667   0.7500000), wk =   0.0555556
        k(   48) = (   0.5000000  -0.3333333   0.6666667), wk =   0.0277778
        k(   49) = (  -0.1666667   0.5000000   0.0000000), wk =   0.0277778
        k(   50) = (  -0.2500000   0.5833333  -0.0833333), wk =   0.0555556
        k(   51) = (   0.6666667  -0.3333333   0.8333333), wk =   0.0555556
        k(   52) = (   0.5833333  -0.2500000   0.7500000), wk =   0.0555556
        k(   53) = (   0.5000000  -0.1666667   0.6666667), wk =   0.0555556
        k(   54) = (   0.4166667  -0.0833333   0.5833333), wk =   0.0555556
        k(   55) = (   0.3333333   0.0000000   0.5000000), wk =   0.0277778
        k(   56) = (  -0.1666667   0.6666667  -0.0000000), wk =   0.0277778
        k(   57) = (   0.7500000  -0.2500000   0.9166667), wk =   0.0555556
        k(   58) = (   0.6666667  -0.1666667   0.8333333), wk =   0.0555556
        k(   59) = (   0.5833333  -0.0833333   0.7500000), wk =   0.0555556
        k(   60) = (   0.5000000   0.0000000   0.6666667), wk =   0.0277778
        k(   61) = (   0.8333333  -0.1666667   1.0000000), wk =   0.0277778
        k(   62) = (   0.7500000  -0.0833333   0.9166667), wk =   0.0555556
        k(   63) = (   0.6666667   0.0000000   0.8333333), wk =   0.0277778
        k(   64) = (  -0.1666667  -1.0000000  -0.0000000), wk =   0.0138889
        k(   65) = (   0.6666667  -0.3333333   1.0000000), wk =   0.0277778
        k(   66) = (   0.5833333  -0.2500000   0.9166667), wk =   0.0555556
        k(   67) = (   0.5000000  -0.1666667   0.8333333), wk =   0.0277778
        k(   68) = (   0.6666667  -0.1666667   1.0000000), wk =   0.0277778
        k(   69) = (   0.5833333  -0.0833333   0.9166667), wk =   0.0555556
        k(   70) = (   0.5000000   0.0000000   0.8333333), wk =   0.0277778
        k(   71) = (  -0.3333333  -1.0000000   0.0000000), wk =   0.0138889
        k(   72) = (  -0.5000000  -1.0000000   0.0000000), wk =   0.0069444

     Dense  grid:    27317 G-vectors     FFT dimensions: (  45,  45,  45)

     Estimated max dynamical RAM per process >       5.94 MB

     Estimated total dynamical RAM >      47.51 MB

     Initial potential from superposition of free atoms

     starting charge      25.6804, renormalised to      26.0000
     Starting wfcs are random

     total cpu time spent up to now is        1.0 secs

     Self-consistent Calculation

     iteration #  1     ecut=    54.00 Ry     beta= 0.70
     Davidson diagonalization with overlap
     ethr =  1.00E-02,  avg # of iterations =  8.7

     Threshold (ethr) on eigenvalues was too large:
     Diagonalizing with lowered threshold

     Davidson diagonalization with overlap
     ethr =  1.31E-04,  avg # of iterations =  3.6

     total cpu time spent up to now is        9.5 secs

     total energy              =    -237.30290488 Ry
     estimated scf accuracy    <       0.02918730 Ry

     iteration #  2     ecut=    54.00 Ry     beta= 0.70
     Davidson diagonalization with overlap
     ethr =  1.12E-04,  avg # of iterations =  2.2

     total cpu time spent up to now is       12.1 secs

     total energy              =    -237.30767972 Ry
     estimated scf accuracy    <       0.00116238 Ry

     iteration #  3     ecut=    54.00 Ry     beta= 0.70
     Davidson diagonalization with overlap
     ethr =  4.47E-06,  avg # of iterations =  5.5

     total cpu time spent up to now is       15.1 secs

     total energy              =    -237.30783021 Ry
     estimated scf accuracy    <       0.00010544 Ry

     iteration #  4     ecut=    54.00 Ry     beta= 0.70
     Davidson diagonalization with overlap
     ethr =  4.06E-07,  avg # of iterations =  2.1

     total cpu time spent up to now is       17.5 secs

     total energy              =    -237.30784281 Ry
     estimated scf accuracy    <       0.00001081 Ry

     iteration #  5     ecut=    54.00 Ry     beta= 0.70
     Davidson diagonalization with overlap
     ethr =  4.16E-08,  avg # of iterations =  2.0

     total cpu time spent up to now is       19.7 secs

     total energy              =    -237.30784581 Ry
     estimated scf accuracy    <       0.00000043 Ry

     iteration #  6     ecut=    54.00 Ry     beta= 0.70
     Davidson diagonalization with overlap
     ethr =  1.64E-09,  avg # of iterations =  2.0

     total cpu time spent up to now is       22.2 secs

     total energy              =    -237.30784590 Ry
     estimated scf accuracy    <          5.0E-09 Ry

     iteration #  7     ecut=    54.00 Ry     beta= 0.70
     Davidson diagonalization with overlap
     ethr =  1.91E-11,  avg # of iterations =  2.9

     total cpu time spent up to now is       24.6 secs

     total energy              =    -237.30784590 Ry
     estimated scf accuracy    <          2.9E-10 Ry

     iteration #  8     ecut=    54.00 Ry     beta= 0.70
     Davidson diagonalization with overlap
     ethr =  1.10E-12,  avg # of iterations =  2.0

     total cpu time spent up to now is       27.0 secs

     End of self-consistent calculation

          k = 0.0000 0.0000 0.0000 (  3479 PWs)   bands (ev):

   -28.2861 -28.2861 -28.2733 -28.2733 -28.2733 -27.8411  -9.8126  -9.8126
    -9.8126  -3.0402   6.8712   6.8712   6.8712   9.6243  10.1893  10.1893
    10.1893  10.8151  10.8151  14.3987  18.6677  18.6677  18.6677  18.9246
    18.9246  18.9246

          k =-0.0833 0.0833-0.0833 (  3449 PWs)   bands (ev):

   -28.2861 -28.2861 -28.2732 -28.2732 -28.2732 -27.8409  -9.8205  -9.8129
    -9.8129  -3.0038   6.5391   6.7701   6.7701   9.8909  10.2844  10.2844
    10.3046  10.9949  10.9949  14.6328  17.6348  18.0927  18.0927  19.1875
    19.1875  19.7189

          k =-0.1667 0.1667-0.1667 (  3425 PWs)   bands (ev):

   -28.2861 -28.2861 -28.2732 -28.2732 -28.2732 -27.8402  -9.8419  -9.8138
    -9.8138  -2.9026   5.8665   6.5287   6.5287  10.0242  10.5353  10.5353
    11.0217  11.4968  11.4968  15.1981  16.5669  17.2037  17.2037  19.2375
    19.2375  20.2990

          k =-0.2500 0.2500-0.2500 (  3416 PWs)   bands (ev):

   -28.2861 -28.2861 -28.2732 -28.2731 -28.2731 -27.8393  -9.8707  -9.8149
    -9.8149  -2.7586   5.1819   6.2548   6.2548  10.1068  10.9108  10.9108
    11.9296  12.2090  12.2090  15.1274  16.2360  16.2360  16.6335  18.9989
    18.9989  20.7202

          k =-0.3333 0.3333-0.3333 (  3428 PWs)   bands (ev):

   -28.2861 -28.2861 -28.2732 -28.2731 -28.2731 -27.8383  -9.8990  -9.8161
    -9.8161  -2.6070   4.6192   6.0227   6.0227  10.2881  11.3918  11.3918
    12.4604  12.9799  12.9799  14.8369  15.3226  15.3226  17.6205  18.4958
    18.4958  21.1088

          k =-0.4167 0.4167-0.4167 (  3416 PWs)   bands (ev):

   -28.2861 -28.2861 -28.2731 -28.2730 -28.2730 -27.8376  -9.9194  -9.8169
    -9.8169  -2.4901   4.2502   5.8715   5.8715  10.5543  11.9164  11.9164
    12.2616  13.5102  13.5102  14.7065  14.7065  15.3462  17.8926  17.8926
    18.4757  19.9932

          k = 0.5000-0.5000 0.5000 (  3426 PWs)   bands (ev):

   -28.2861 -28.2861 -28.2731 -28.2730 -28.2730 -27.8374  -9.9267  -9.8172
    -9.8172  -2.4459   4.1214   5.8193   5.8193  10.7222  12.0309  12.2182
    12.2182  13.5038  13.5038  14.6474  14.6474  15.7707  17.5868  17.5868
    18.9578  19.1662

          k = 0.0000 0.1667 0.0000 (  3439 PWs)   bands (ev):

   -28.2861 -28.2861 -28.2733 -28.2732 -28.2732 -27.8408  -9.8197  -9.8147
    -9.8147  -2.9930   6.3984   6.7803   6.7803   9.9590  10.0251  10.4368
    10.4368  10.8636  11.2895  14.7063  17.7510  17.7510  17.7561  18.9758
    19.8021  19.8021

          k =-0.0833 0.2500-0.0833 (  3433 PWs)   bands (ev):

   -28.2862 -28.2860 -28.2733 -28.2732 -28.2732 -27.8401  -9.8354  -9.8168
    -9.8149  -2.9170   5.9082   6.5808   6.6220   9.9477  10.2810  10.7054
    10.8200  11.1208  11.9216  15.1715  16.5808  17.1241  17.4604  18.8151
    20.0286  20.3401

          k =-0.1667 0.3333-0.1667 (  3426 PWs)   bands (ev):

   -28.2863 -28.2860 -28.2732 -28.2731 -28.2731 -27.8392  -9.8610  -9.8187
    -9.8153  -2.7925   5.3258   6.2815   6.3773   9.9837  10.6920  11.0379
    11.4828  11.7047  12.6935  15.2862  16.0553  16.3273  16.9937  18.5379
    19.8246  20.6967

          k =-0.2500 0.4167-0.2500 (  3424 PWs)   bands (ev):

   -28.2864 -28.2861 -28.2732 -28.2731 -28.2731 -27.8381  -9.8887  -9.8199
    -9.8168  -2.6489   4.7902   6.0175   6.1328  10.1385  11.1572  11.4836
    12.2157  12.3956  13.2126  14.8622  15.5193  15.6725  17.5216  18.1828
    19.2776  21.0493

          k =-0.3333 0.5000-0.3333 (  3425 PWs)   bands (ev):

   -28.2865 -28.2861 -28.2731 -28.2730 -28.2730 -27.8373  -9.9110  -9.8200
    -9.8190  -2.5245   4.3943   5.8406   5.9438  10.4146  11.6600  11.9933
    12.3275  12.9623  13.5603  14.7553  14.9317  15.3887  17.8534  18.4193
    18.4961  20.3760

          k = 0.5833-0.4167 0.5833 (  3411 PWs)   bands (ev):

   -28.2865 -28.2861 -28.2731 -28.2730 -28.2730 -27.8368  -9.9223  -9.8211
    -9.8190  -2.4573   4.1995   5.7682   5.8395  10.7196  11.8493  12.2238
    12.2566  13.3181  13.6158  14.6179  14.7845  15.5505  17.7929  17.9616
    18.9576  19.3953

          k = 0.5000-0.3333 0.5000 (  3415 PWs)   bands (ev):

   -28.2865 -28.2861 -28.2731 -28.2730 -28.2730 -27.8370  -9.9200  -9.8227
    -9.8173  -2.4703   4.2365   5.8039   5.8327  10.7018  11.9204  11.9551
    12.3024  13.1084  13.8966  14.6386  14.7770  15.4819  17.6003  18.0486
    18.9400  19.7254

          k = 0.4167-0.2500 0.4167 (  3421 PWs)   bands (ev):

   -28.2864 -28.2861 -28.2731 -28.2731 -28.2730 -27.8376  -9.9045  -9.8231
    -9.8152  -2.5589   4.5006   5.9245   5.9423  10.4352  11.3985  11.8764
    12.3179  12.6226  13.7316  15.0190  15.0505  15.1499  17.9184  18.0345
    18.7172  20.9595

          k = 0.3333-0.1667 0.3333 (  3421 PWs)   bands (ev):

   -28.2863 -28.2861 -28.2732 -28.2731 -28.2731 -27.8385  -9.8800  -9.8223
    -9.8133  -2.6937   4.9533   6.1045   6.1670  10.2380  10.9207  11.3375
    11.6869  12.5946  12.9199  14.9299  15.7175  15.9698  17.2473  18.3044
    19.1936  20.9989

          k = 0.2500-0.0833 0.2500 (  3427 PWs)   bands (ev):

   -28.2862 -28.2861 -28.2732 -28.2732 -28.2731 -27.8396  -9.8528  -9.8202
    -9.8121  -2.8352   5.5283   6.3459   6.4407  10.1719  10.5541  10.7535
    11.0597  11.9865  12.1079  15.4330  15.9043  16.9782  17.0150  18.5371
    19.5171  20.8890

          k = 0.1667-0.0000 0.1667 (  3419 PWs)   bands (ev):

   -28.2861 -28.2861 -28.2732 -28.2732 -28.2732 -27.8405  -9.8309  -9.8168
    -9.8120  -2.9471   6.1222   6.5963   6.6811  10.1658  10.2328  10.3313
    10.6751  11.2628  11.4348  14.9842  16.8099  17.4977  17.8653  18.6791
    19.5793  20.3995

          k = 0.0000 0.3333 0.0000 (  3439 PWs)   bands (ev):

   -28.2865 -28.2860 -28.2733 -28.2731 -28.2731 -27.8395  -9.8377  -9.8204
    -9.8204  -2.8753   5.6340   6.5827   6.5827   9.6530  10.3431  11.0019
    11.0785  11.0785  12.6267  15.4867  16.1606  16.8182  16.8182  19.1457
    20.6239  20.6239

          k =-0.0833 0.4167-0.0833 (  3431 PWs)   bands (ev):

   -28.2869 -28.2860 -28.2733 -28.2731 -28.2731 -27.8383  -9.8550  -9.8236
    -9.8219  -2.7872   5.2681   6.3696   6.4295   9.5822  10.6327  11.1630
    11.5270  11.5807  13.3730  15.2527  15.9461  16.3046  16.7064  18.9876
    20.5652  20.8253

          k =-0.1667 0.5000-0.1667 (  3420 PWs)   bands (ev):

   -28.2873 -28.2860 -28.2733 -28.2730 -28.2730 -27.8371  -9.8778  -9.8255
    -9.8237  -2.6736   4.9100   6.0554   6.2256   9.7166  11.1264  11.5269
    12.0609  12.1471  13.5013  14.8728  15.6941  15.8990  17.3999  18.5625
    20.1250  20.8359

          k =-0.2500 0.5833-0.2500 (  3423 PWs)   bands (ev):

   -28.2876 -28.2860 -28.2732 -28.2730 -28.2730 -27.8360  -9.8981  -9.8271
    -9.8256  -2.5637   4.6102   5.7946   6.0337  10.0001  11.7013  12.0378
    12.4051  12.5841  13.1228  14.7305  15.2263  15.9567  17.9987  18.6186
    19.2543  20.3538

          k = 0.6667-0.3333 0.6667 (  3415 PWs)   bands (ev):

   -28.2877 -28.2860 -28.2731 -28.2730 -28.2729 -27.8354  -9.9105  -9.8314
    -9.8240  -2.4885   4.4173   5.6532   5.8959  10.4197  11.8240  12.3527
    12.3654  12.9094  13.3086  14.5161  15.1359  15.7216  18.2880  18.4479
    19.1117  19.7983

          k = 0.5833-0.2500 0.5833 (  3427 PWs)   bands (ev):

   -28.2876 -28.2861 -28.2731 -28.2730 -28.2730 -27.8355  -9.9122  -9.8351
    -9.8210  -2.4714   4.3729   5.6411   5.8351  10.8739  11.4422  12.0267
    12.6102  12.9148  13.6381  14.8671  15.1171  15.3389  17.6434  18.3735
    19.6092  19.8798

          k = 0.5000-0.1667 0.5000 (  3419 PWs)   bands (ev):

   -28.2872 -28.2861 -28.2731 -28.2730 -28.2730 -27.8361  -9.9032  -9.8367
    -9.8174  -2.5182   4.4919   5.7488   5.8600  10.8000  11.5326  11.8286
    12.1459  12.4679  14.4965  14.6236  15.1197  15.3526  17.6101  18.0998
    19.3288  20.7608

          k = 0.4167-0.0833 0.4167 (  3423 PWs)   bands (ev):

   -28.2868 -28.2861 -28.2731 -28.2731 -28.2730 -27.8373  -9.8867  -9.8350
    -9.8142  -2.6141   4.7565   5.9558   5.9674  10.6297  11.0823  11.4110
    11.9132  12.4633  13.7654  15.0625  15.4422  15.4827  17.8616  18.1282
    18.7468  20.9776

          k = 0.3333 0.0000 0.3333 (  3421 PWs)   bands (ev):

   -28.2864 -28.2861 -28.2732 -28.2731 -28.2731 -27.8385  -9.8681  -9.8291
    -9.8123  -2.7303   5.1229   6.1406   6.2176  10.5237  10.7446  10.8184
    11.3921  12.5832  12.8900  15.0568  15.7119  16.3308  17.3987  18.1303
    19.1495  21.2489

          k = 0.0000 0.5000 0.0000 (  3399 PWs)   bands (ev):

   -28.2877 -28.2860 -28.2733 -28.2730 -28.2730 -27.8370  -9.8589  -9.8282
    -9.8282  -2.7446   5.0915   6.3889   6.3889   9.2533  10.6870  11.2072
    11.9045  11.9045  13.9542  14.8838  16.1502  16.1502  16.4688  19.5065
    20.3424  20.8206

          k =-0.0833 0.5833-0.0833 (  3434 PWs)   bands (ev):

   -28.2885 -28.2859 -28.2733 -28.2730 -28.2730 -27.8354  -9.8724  -9.8316
    -9.8314  -2.6757   4.9162   6.1900   6.2708   9.2263  10.9833  11.4244
    12.3096  12.3274  13.5791  15.0337  15.8697  16.0490  17.1712  19.4942
    20.0847  20.5677

          k =-0.1667 0.6667-0.1667 (  3418 PWs)   bands (ev):

   -28.2891 -28.2859 -28.2733 -28.2729 -28.2729 -27.8341  -9.8866  -9.8366
    -9.8323  -2.5974   4.7889   5.8622   6.1180   9.4494  11.5294  11.8390
    12.5646  12.6199  12.9468  14.8582  15.6306  16.3731  17.9215  19.2948
    19.7633  20.3625

          k = 0.7500-0.2500 0.7500 (  3415 PWs)   bands (ev):

   -28.2893 -28.2860 -28.2732 -28.2729 -28.2729 -27.8334  -9.8958  -9.8438
    -9.8307  -2.5303   4.7087   5.5745   5.9760   9.8361  12.1172  12.2413
    12.4029  12.5904  12.8748  14.6258  15.6586  16.1554  18.5224  18.7382
    19.3857  20.4301

          k = 0.6667-0.1667 0.6667 (  3412 PWs)   bands (ev):

   -28.2890 -28.2860 -28.2731 -28.2730 -28.2729 -27.8335  -9.8980  -9.8508
    -9.8269  -2.4930   4.6498   5.4442   5.8779  10.3639  11.6583  12.2275
    12.5392  12.9010  13.1204  14.7540  15.5025  15.8143  17.8179  18.5921
    19.8454  20.7164

          k = 0.5833-0.0833 0.5833 (  3419 PWs)   bands (ev):

   -28.2884 -28.2861 -28.2731 -28.2730 -28.2729 -27.8343  -9.8951  -9.8534
    -9.8221  -2.4970   4.6128   5.5037   5.8421  11.0212  11.3650  11.7866
    11.9599  13.0216  13.8953  15.0778  15.2361  15.5072  17.4669  18.2232
    20.2187  20.8261

          k = 0.5000 0.0000 0.5000 (  3418 PWs)   bands (ev):

   -28.2876 -28.2861 -28.2731 -28.2730 -28.2730 -27.8357  -9.8911  -9.8475
    -9.8174  -2.5416   4.6399   5.7013   5.8740  11.1441  11.3821  11.4103
    11.7753  12.5378  14.6097  14.7756  15.2866  15.3539  17.6020  18.1297
    19.4252  20.6465

          k = 0.0000 0.6667 0.0000 (  3423 PWs)   bands (ev):

   -28.2897 -28.2859 -28.2734 -28.2729 -28.2729 -27.8337  -9.8763  -9.8361
    -9.8361  -2.6552   4.8754   6.2502   6.2502   8.9270  10.9397  11.4362
    12.6200  12.6200  13.2828  15.4840  16.0163  16.0163  17.3354  19.5346
    20.2416  20.6677

          k =-0.0833 0.7500-0.0833 (  3415 PWs)   bands (ev):

   -28.2905 -28.2859 -28.2733 -28.2729 -28.2728 -27.8322  -9.8835  -9.8410
    -9.8383  -2.6174   4.8634   6.0617   6.1707   8.9653  11.1166  11.6479
    12.7646  12.8085  12.9556  15.3029  16.1356  16.4507  17.7648  19.2852
    20.0672  20.4124

          k = 0.8333-0.1667 0.8333 (  3409 PWs)   bands (ev):

   -28.2908 -28.2859 -28.2733 -28.2728 -28.2728 -27.8315  -9.8867  -9.8503
    -9.8374  -2.5715   4.9092   5.6900   6.0603   9.2673  11.4872  12.0442
    12.5403  12.7602  12.9161  15.0055  16.3319  16.4732  18.3085  18.6927
    19.6622  20.3966

          k = 0.7500-0.0833 0.7500 (  3416 PWs)   bands (ev):

   -28.2905 -28.2860 -28.2732 -28.2729 -28.2728 -27.8317  -9.8833  -9.8634
    -9.8336  -2.5289   4.9925   5.3128   5.9528   9.7275  11.7871  12.3893
    12.4905  12.5846  12.8718  14.9428  15.8200  16.5957  17.7990  18.6340
    20.0073  20.8408

          k = 0.6667-0.0000 0.6667 (  3444 PWs)   bands (ev):

   -28.2896 -28.2860 -28.2731 -28.2729 -28.2729 -27.8327  -9.8831  -9.8678
    -9.8280  -2.5013   4.8476   5.2856   5.8748  10.3198  11.8382  11.9682
    12.1281  13.1654  13.2210  15.0190  15.2111  16.3693  17.3642  18.4952
    20.5425  20.8914

          k = 0.0000 0.8333 0.0000 (  3419 PWs)   bands (ev):

   -28.2916 -28.2859 -28.2734 -28.2728 -28.2728 -27.8307  -9.8868  -9.8419
    -9.8419  -2.6189   4.8950   6.1733   6.1733   8.7191  10.8572  11.6233
    12.8849  12.9416  12.9416  15.5402  16.6559  16.6559  17.8311  18.9571
    19.7816  19.7816

          k = 0.9167-0.0833 0.9167 (  3402 PWs)   bands (ev):

   -28.2919 -28.2859 -28.2734 -28.2728 -28.2728 -27.8301  -9.8881  -9.8469
    -9.8423  -2.6012   4.9459   5.9872   6.1251   8.8291  10.9158  11.7874
    12.8270  12.9269  12.9529  15.3180  16.9378  17.0771  18.1362  18.4510
    19.2152  19.6413

          k = 0.8333 0.0000 0.8333 (  3400 PWs)   bands (ev):

   -28.2915 -28.2859 -28.2733 -28.2728 -28.2728 -27.8304  -9.8840  -9.8576
    -9.8392  -2.5685   5.0287   5.5899   6.0431   9.2019  11.2968  12.1213
    12.7068  12.7532  12.8422  15.1429  16.4110  17.3034  17.6780  18.5556
    19.4508  20.4450

          k = 0.0000-1.0000 0.0000 (  3378 PWs)   bands (ev):

   -28.2923 -28.2858 -28.2734 -28.2728 -28.2728 -27.8296  -9.8902  -9.8441
    -9.8441  -2.6120   4.9428   6.1495   6.1495   8.6480  10.7030  11.6970
    12.9069  12.9945  12.9945  15.3717  17.4853  17.4853  17.9762  18.7116
    18.7116  18.7476

          k =-0.1667 0.3333 0.0000 (  3431 PWs)   bands (ev):

   -28.2864 -28.2860 -28.2733 -28.2731 -28.2731 -27.8393  -9.8496  -9.8227
    -9.8149  -2.8332   5.4924   6.3937   6.4662   9.9240  10.5159  10.9500
    11.0513  11.6216  12.6632  15.6174  15.6826  16.8537  16.9296  18.6721
    19.8681  21.1923

          k =-0.2500 0.4167-0.0833 (  3429 PWs)   bands (ev):

   -28.2867 -28.2860 -28.2732 -28.2731 -28.2731 -27.8381  -9.8713  -9.8273
    -9.8155  -2.7152   5.0509   6.1344   6.2288  10.0339  10.8942  11.3640
    11.4445  12.2938  13.2708  14.9677  15.7584  16.1157  17.2537  18.3631
    19.5331  21.0095

          k =-0.3333 0.5000-0.1667 (  3419 PWs)   bands (ev):

   -28.2870 -28.2861 -28.2732 -28.2730 -28.2730 -27.8370  -9.8937  -9.8296
    -9.8176  -2.5925   4.6661   5.8941   6.0184  10.2386  11.3452  11.9250
    12.0283  12.4729  13.5574  14.8771  15.3323  15.6256  17.8653  18.1881
    19.0888  20.8760

          k = 0.5833-0.4167 0.7500 (  3415 PWs)   bands (ev):

   -28.2872 -28.2861 -28.2731 -28.2730 -28.2730 -27.8361  -9.9102  -9.8300
    -9.8200  -2.4992   4.4031   5.7365   5.8785  10.5570  11.7453  12.0219
    12.4005  12.6659  13.8653  14.5775  15.0093  15.6233  17.8247  18.2346
    19.2139  20.1241

          k = 0.5000-0.3333 0.6667 (  3418 PWs)   bands (ev):

   -28.2873 -28.2861 -28.2731 -28.2730 -28.2730 -27.8358  -9.9162  -9.8298
    -9.8213  -2.4643   4.3096   5.6828   5.8296  10.8258  11.4743  12.3206
    12.3810  13.1867  13.4783  14.8227  14.9251  15.4224  17.6929  18.5434
    19.3179  19.4945

          k =-0.1667 0.5000 0.0000 (  3435 PWs)   bands (ev):

   -28.2876 -28.2860 -28.2733 -28.2730 -28.2730 -27.8370  -9.8679  -9.8308
    -9.8228  -2.7085   5.0137   6.2228   6.2542   9.5469  10.8801  11.4128
    11.8033  12.1619  13.6916  14.8753  15.8357  16.1019  17.0060  19.0273
    20.1333  20.5975

          k =-0.2500 0.5833-0.0833 (  3430 PWs)   bands (ev):

   -28.2881 -28.2860 -28.2733 -28.2730 -28.2730 -27.8356  -9.8837  -9.8361
    -9.8246  -2.6166   4.7974   5.9412   6.0775   9.7395  11.2741  11.8919
    12.1805  12.4895  13.3064  14.8327  15.5494  16.1551  17.6793  18.9024
    19.5247  20.4751

          k = 0.6667-0.3333 0.8333 (  3419 PWs)   bands (ev):

   -28.2885 -28.2860 -28.2732 -28.2730 -28.2729 -27.8346  -9.8968  -9.8393
    -9.8269  -2.5359   4.6404   5.6834   5.9350  10.0705  11.8128  12.0283
    12.4930  12.5334  13.2642  14.6234  15.3464  16.1847  18.0742  18.5424
    19.6264  20.2384

          k = 0.5833-0.2500 0.7500 (  3409 PWs)   bands (ev):

   -28.2886 -28.2860 -28.2731 -28.2730 -28.2729 -27.8342  -9.9033  -9.8424
    -9.8271  -2.4892   4.5528   5.5505   5.8446  10.5276  11.4390  12.3771
    12.5328  12.7815  13.3596  14.7256  15.3797  15.6300  17.8306  18.7498
    19.6556  20.1615

          k = 0.5000-0.1667 0.6667 (  3407 PWs)   bands (ev):

   -28.2883 -28.2861 -28.2731 -28.2730 -28.2729 -27.8345  -9.9017  -9.8450
    -9.8242  -2.4906   4.5471   5.5692   5.8224  10.8944  11.1891  12.0049
    12.4769  12.8391  13.7183  14.9572  15.1038  15.6183  17.6128  18.4163
    20.0000  20.3222

          k = 0.4167-0.0833 0.5833 (  3425 PWs)   bands (ev):

   -28.2879 -28.2861 -28.2731 -28.2730 -28.2730 -27.8354  -9.8936  -9.8441
    -9.8202  -2.5401   4.6328   5.7254   5.8719  10.5766  11.5083  11.8404
    11.9956  12.5302  14.0971  14.6245  15.2757  15.8824  17.6747  18.2283
    19.5204  20.5167

          k = 0.3333 0.0000 0.5000 (  3430 PWs)   bands (ev):

   -28.2873 -28.2861 -28.2732 -28.2730 -28.2730 -27.8368  -9.8824  -9.8378
    -9.8170  -2.6228   4.8065   5.9731   5.9849  10.2839  11.1398  11.5600
    11.9273  12.4609  13.6303  14.9056  15.5368  15.8106  17.6965  18.5886
    18.7902  20.7318

          k =-0.1667 0.6667-0.0000 (  3428 PWs)   bands (ev):

   -28.2894 -28.2859 -28.2733 -28.2729 -28.2729 -27.8339  -9.8805  -9.8389
    -9.8329  -2.6255   4.8449   6.0872   6.0991   9.2391  11.1631  11.7123
    12.5643  12.6170  13.1231  15.0516  15.8008  16.3957  17.5893  19.6409
    19.8166  20.1900

          k = 0.7500-0.2500 0.9167 (  3413 PWs)   bands (ev):

   -28.2899 -28.2859 -28.2733 -28.2729 -28.2728 -27.8327  -9.8870  -9.8454
    -9.8353  -2.5705   4.8321   5.7705   5.9794   9.5095  11.4517  12.2730
    12.3167  12.7556  12.9403  14.8902  15.7903  16.6055  17.9989  18.8177
    19.9890  20.4765

          k = 0.6667-0.1667 0.8333 (  3405 PWs)   bands (ev):

   -28.2900 -28.2860 -28.2732 -28.2729 -28.2728 -27.8323  -9.8888  -9.8540
    -9.8347  -2.5249   4.8590   5.4640   5.8807   9.9263  11.6799  12.0362
    12.6406  12.8006  13.0013  14.8515  15.8883  16.0958  17.9854  18.6199
    19.8515  20.7443

          k = 0.5833-0.0833 0.7500 (  3410 PWs)   bands (ev):

   -28.2896 -28.2860 -28.2731 -28.2730 -28.2729 -27.8327  -9.8874  -9.8610
    -9.8306  -2.5012   4.8214   5.3587   5.8206  10.4619  11.3993  11.9311
    12.5560  12.7965  13.6210  14.9806  15.2874  16.0332  17.5400  18.5531
    20.2812  20.8841

          k = 0.5000 0.0000 0.6667 (  3426 PWs)   bands (ev):

   -28.2888 -28.2861 -28.2731 -28.2731 -28.2729 -27.8339  -9.8895  -9.8572
    -9.8251  -2.5066   4.7001   5.5002   5.8134  11.0149  11.1145  11.6561
    12.2300  13.0155  13.8382  14.9881  15.1703  15.8649  17.5005  18.2528
    20.4721  20.7147

          k = 0.8333-0.1667 1.0000 (  3404 PWs)   bands (ev):

   -28.2912 -28.2859 -28.2733 -28.2728 -28.2728 -27.8311  -9.8860  -9.8449
    -9.8419  -2.5943   4.9112   5.9839   6.0106   9.0441  11.1124  11.8982
    12.6239  12.9222  12.9302  15.2403  16.3522  16.8110  17.9716  18.7473
    19.7972  20.1445

          k = 0.7500-0.0833 0.9167 (  3401 PWs)   bands (ev):

   -28.2912 -28.2859 -28.2733 -28.2729 -28.2728 -27.8308  -9.8836  -9.8546
    -9.8418  -2.5616   5.0102   5.6226   5.9245   9.3862  11.2789  12.2863
    12.3916  12.8594  12.9394  15.1475  16.3282  16.7832  18.0165  18.4579
    19.3311  20.7647

          k = 0.6667 0.0000 0.8333 (  3407 PWs)   bands (ev):

   -28.2907 -28.2860 -28.2732 -28.2729 -28.2728 -27.8314  -9.8757  -9.8694
    -9.8372  -2.5275   5.1594   5.2019   5.8593   9.8679  11.6002  11.9298
    12.5752  12.7798  13.2149  15.1255  15.6666  16.6352  17.5569  18.6508
    19.7379  21.0512

          k =-0.1667-1.0000-0.0000 (  3394 PWs)   bands (ev):

   -28.2920 -28.2859 -28.2733 -28.2728 -28.2728 -27.8300  -9.8870  -9.8471
    -9.8457  -2.5894   4.9860   5.9359   5.9825   8.9778  10.9601  11.9548
    12.7124  12.8719  12.9972  15.2600  16.9111  17.2382  18.1393  18.4300
    18.6542  20.0931

          k = 0.6667-0.3333 1.0000 (  3417 PWs)   bands (ev):

   -28.2889 -28.2860 -28.2732 -28.2730 -28.2729 -27.8342  -9.8875  -9.8466
    -9.8276  -2.5591   4.7535   5.7920   5.8598  10.0127  11.4007  12.0422
    12.4168  12.5282  13.3671  14.7288  15.4556  16.4998  17.7319  18.5202
    19.8549  20.4899

          k = 0.5833-0.2500 0.9167 (  3415 PWs)   bands (ev):

   -28.2894 -28.2860 -28.2731 -28.2730 -28.2729 -27.8331  -9.8895  -9.8529
    -9.8319  -2.5168   4.7733   5.5554   5.7740  10.3991  11.3689  11.7466
    12.6685  12.8591  13.4550  14.8765  15.4232  16.0865  17.7265  18.3888
    20.3878  20.6552

          k = 0.5000-0.1667 0.8333 (  3394 PWs)   bands (ev):

   -28.2896 -28.2860 -28.2731 -28.2731 -28.2728 -27.8327  -9.8902  -9.8546
    -9.8342  -2.5012   4.7994   5.4470   5.7470  10.8463  10.8560  11.9869
    12.6033  12.7836  13.8181  15.0003  15.4028  15.6510  17.6511  18.6440
    20.0003  20.8596

          k = 0.6667-0.1667 1.0000 (  3405 PWs)   bands (ev):

   -28.2905 -28.2860 -28.2732 -28.2729 -28.2728 -27.8318  -9.8835  -9.8531
    -9.8411  -2.5427   4.9409   5.6861   5.7025   9.8398  11.3379  11.9145
    12.7292  12.8955  13.0107  15.0773  15.8365  16.4682  17.9361  18.2984
    19.9167  20.9059

          k = 0.5833-0.0833 0.9167 (  3406 PWs)   bands (ev):

   -28.2905 -28.2860 -28.2732 -28.2730 -28.2728 -27.8315  -9.8773  -9.8621
    -9.8434  -2.5212   5.0863   5.3851   5.6567  10.2930  11.2743  11.5621
    12.5731  12.9367  13.7761  15.1911  15.6391  15.9111  17.8621  18.5020
    19.3660  21.2639

          k = 0.5000 0.0000 0.8333 (  3413 PWs)   bands (ev):

   -28.2902 -28.2860 -28.2731 -28.2731 -28.2728 -27.8320  -9.8784  -9.8644
    -9.8388  -2.5115   4.9917   5.3819   5.6738  10.7957  10.8678  11.6075
    12.6476  12.8408  14.0735  15.0067  15.3903  15.8515  17.7080  18.4369
    19.8707  21.0998

          k =-0.3333-1.0000 0.0000 (  3394 PWs)   bands (ev):

   -28.2911 -28.2859 -28.2732 -28.2729 -28.2728 -27.8308  -9.8785  -9.8555
    -9.8491  -2.5433   5.1182   5.5696   5.6517   9.7811  11.2279  11.8921
    12.5248  13.0025  13.2206  15.2823  16.2029  16.2673  18.1624  18.5481
    18.6555  21.2443

          k =-0.5000-1.0000 0.0000 (  3400 PWs)   bands (ev):

   -28.2907 -28.2860 -28.2731 -28.2731 -28.2728 -27.8312  -9.8670  -9.8670
    -9.8508  -2.5198   5.3433   5.3433   5.4076  10.8172  10.8172  11.3048
    12.5399  13.0052  14.4004  15.0099  15.6282  15.6282  18.4464  18.4464
    18.4987  21.5745

     the Fermi energy is     7.5768 ev

!    total energy              =    -237.30784590 Ry
     estimated scf accuracy    <          1.9E-12 Ry
     smearing contrib. (-TS)   =      -0.00000000 Ry
     internal energy E=F+TS    =    -237.30784590 Ry

     The total energy is F=E-TS. E is the sum of the following terms:
     one-electron contribution =    -115.99349654 Ry
     hartree contribution      =      62.15968460 Ry
     xc contribution           =     -27.28927394 Ry
     ewald contribution        =    -156.18476002 Ry

     convergence has been achieved in   8 iterations

     Writing all to output data dir out/mp-1958.save/
 
     init_run     :      0.79s CPU      0.86s WALL (       1 calls)
     electrons    :     24.81s CPU     26.07s WALL (       1 calls)

     Called by init_run:
     wfcinit      :      0.73s CPU      0.78s WALL (       1 calls)
     potinit      :      0.02s CPU      0.02s WALL (       1 calls)
     hinit0       :      0.01s CPU      0.02s WALL (       1 calls)

     Called by electrons:
     c_bands      :     21.08s CPU     22.05s WALL (       9 calls)
     sum_band     :      3.67s CPU      3.94s WALL (       9 calls)
     v_of_rho     :      0.06s CPU      0.06s WALL (       9 calls)
     mix_rho      :      0.01s CPU      0.01s WALL (       9 calls)

     Called by c_bands:
     init_us_2    :      0.22s CPU      0.25s WALL (    1368 calls)
     init_us_2:cp :      0.22s CPU      0.24s WALL (    1368 calls)
     cegterg      :     19.71s CPU     20.22s WALL (     648 calls)

     Called by *egterg:
     cdiaghg      :      2.31s CPU      2.35s WALL (    2803 calls)
     h_psi        :     16.36s CPU     16.83s WALL (    2947 calls)
     g_psi        :      0.09s CPU      0.09s WALL (    2227 calls)

     Called by h_psi:
     h_psi:calbec :      0.35s CPU      0.36s WALL (    2947 calls)
     vloc_psi     :     15.68s CPU     16.13s WALL (    2947 calls)
     add_vuspsi   :      0.28s CPU      0.28s WALL (    2947 calls)

     General routines
     calbec       :      0.34s CPU      0.35s WALL (    2947 calls)
     fft          :      0.02s CPU      0.04s WALL (      90 calls)
     ffts         :      0.00s CPU      0.00s WALL (       9 calls)
     fftw         :     17.24s CPU     17.77s WALL (  113530 calls)
     davcio       :      0.15s CPU      0.57s WALL (    2156 calls)
 
     Parallel routines
 
     PWSCF        :     25.78s CPU     27.35s WALL

 
   This run was terminated on:  21:46:12  20Dec2023            

=------------------------------------------------------------------------------=
   JOB DONE.
=------------------------------------------------------------------------------=
