
     Program PWSCF v.7.1 starts on 20Dec2023 at 23:13:50 

     This program is part of the open-source Quantum ESPRESSO suite
     for quantum simulation of materials; please cite
         "P. Giannozzi et al., J. Phys.:Condens. Matter 21 395502 (2009);
         "P. Giannozzi et al., J. Phys.:Condens. Matter 29 465901 (2017);
         "P. Giannozzi et al., J. Chem. Phys. 152 154105 (2020);
          URL http://www.quantum-espresso.org", 
     in publications or presentations arising from this work. More details at
     http://www.quantum-espresso.org/quote

     Parallel version (MPI), running on    24 processors

     MPI processes distributed on     1 nodes
     122979 MiB available memory on the printing compute node when the environment starts
 
     Reading input from pw_mp-1958_nscf_k260_E55.in
Warning: card &IONS ignored
Warning: card / ignored
Warning: card &CELL ignored
Warning: card / ignored

     Current dimensions of program PWSCF are:
     Max number of different atomic species (ntypx) = 10
     Max number of k-points (npk) =  40000
     Max angular momentum in pseudopotentials (lmaxx) =  4

     Atomic positions and unit cell read from directory:
     out/mp-1958.save/
     Atomic positions from file used, from input discarded
 
 
     K-points division:     npool     =       2
     R & G space division:  proc/nbgrp/npool/nimage =      12
     Subspace diagonalization in iterative solution of the eigenvalue problem:
     one sub-group per band group will be used
     scalapack distributed-memory algorithm (size of sub-group:  3*  3 procs)

 
     Parallelization info
     --------------------
     sticks:   dense  smooth     PW     G-vecs:    dense   smooth      PW
     Min         102     102     30                 2332     2332     372
     Max         103     103     31                 2334     2334     375
     Sum        1225    1225    361                27989    27989    4477
 
     Using Slab Decomposition
 


     bravais-lattice index     =            2
     lattice parameter (alat)  =      12.6832  a.u.
     unit-cell volume          =     510.0684 (a.u.)^3
     number of atoms/cell      =            2
     number of atomic types    =            2
     number of electrons       =        26.00
     number of Kohn-Sham states=         1720
     kinetic-energy cutoff     =      55.0000  Ry
     charge density cutoff     =     220.0000  Ry
     Exchange-correlation= PBE
                           (   1   4   3   4   0   0   0)

     celldm(1)=  12.683218  celldm(2)=   0.000000  celldm(3)=   0.000000
     celldm(4)=   0.000000  celldm(5)=   0.000000  celldm(6)=   0.000000

     crystal axes: (cart. coord. in units of alat)
               a(1) = (  -0.500000   0.000000   0.500000 )  
               a(2) = (   0.000000   0.500000   0.500000 )  
               a(3) = (  -0.500000   0.500000   0.000000 )  

     reciprocal axes: (cart. coord. in units 2 pi/alat)
               b(1) = ( -1.000000 -1.000000  1.000000 )  
               b(2) = (  1.000000  1.000000  1.000000 )  
               b(3) = ( -1.000000  1.000000 -1.000000 )  


     PseudoPot. # 1 for Sr read from file:
     /usr/scratch4/magr4985/MG/HTDF/pseudo/SG15/Sr.upf
     MD5 check sum: 3f9bc8d6f3e8472da0cbe0e6a3044a9f
     Pseudo is Norm-conserving, Zval = 10.0
     Generated using ONCVPSP code by D. R. Hamann
     Using radial grid of  602 points,  6 beta functions with: 
                l(1) =   0
                l(2) =   0
                l(3) =   1
                l(4) =   1
                l(5) =   2
                l(6) =   2

     PseudoPot. # 2 for Te read from file:
     /usr/scratch4/magr4985/MG/HTDF/pseudo/SG15/Te.upf
     MD5 check sum: dd4de4dac1e38587f63aaf3700bb29d3
     Pseudo is Norm-conserving, Zval = 16.0
     Generated using ONCVPSP code by D. R. Hamann
     Using radial grid of  602 points,  6 beta functions with: 
                l(1) =   0
                l(2) =   0
                l(3) =   1
                l(4) =   1
                l(5) =   2
                l(6) =   2

     atomic species   valence    mass     pseudopotential
        Sr            10.00    87.62000     Sr( 1.00)
        Te            16.00   127.60000     Te( 1.00)

     48 Sym. Ops., with inversion, found



   Cartesian axes

     site n.     atom                  positions (alat units)
         1           Sr  tau(   1) = (   0.0000000   0.0000000   0.0000000  )
         2           Te  tau(   2) = (  -0.5000000   0.5000000   0.5000000  )

     number of k points=    16  Gaussian smearing, width (Ry)=  0.0005
                       cart. coord. in units 2pi/alat
        k(    1) = (   0.0000000   0.0000000   0.0000000), wk =   0.0092593
        k(    2) = (  -0.1666667   0.1666667  -0.1666667), wk =   0.0740741
        k(    3) = (  -0.3333333   0.3333333  -0.3333333), wk =   0.0740741
        k(    4) = (   0.5000000  -0.5000000   0.5000000), wk =   0.0370370
        k(    5) = (   0.0000000   0.3333333   0.0000000), wk =   0.0555556
        k(    6) = (  -0.1666667   0.5000000  -0.1666667), wk =   0.2222222
        k(    7) = (   0.6666667  -0.3333333   0.6666667), wk =   0.2222222
        k(    8) = (   0.5000000  -0.1666667   0.5000000), wk =   0.2222222
        k(    9) = (   0.3333333   0.0000000   0.3333333), wk =   0.1111111
        k(   10) = (   0.0000000   0.6666667   0.0000000), wk =   0.0555556
        k(   11) = (   0.8333333  -0.1666667   0.8333333), wk =   0.2222222
        k(   12) = (   0.6666667  -0.0000000   0.6666667), wk =   0.1111111
        k(   13) = (   0.0000000  -1.0000000   0.0000000), wk =   0.0277778
        k(   14) = (   0.6666667  -0.3333333   1.0000000), wk =   0.2222222
        k(   15) = (   0.5000000  -0.1666667   0.8333333), wk =   0.2222222
        k(   16) = (  -0.3333333  -1.0000000   0.0000000), wk =   0.1111111

     Dense  grid:    27989 G-vectors     FFT dimensions: (  45,  45,  45)

     Estimated max dynamical RAM per process >     155.50 MB

     Estimated total dynamical RAM >       3.64 GB

     The potential is recalculated from file :
     out/mp-1958.save/charge-density

     Starting wfcs are random

     Band Structure Calculation
     ParO style diagonalization

     ethr =  5.00E-06,  avg # of iterations =  6.1

     total cpu time spent up to now is     1365.5 secs

     End of band structure calculation

          k = 0.0000 0.0000 0.0000 (  3527 PWs)   bands (ev):

   -28.2860 -28.2860 -28.2732 -28.2732 -28.2732 -27.8411  -9.8126  -9.8126
    -9.8126  -3.0402   6.8713   6.8713   6.8713   9.6242  10.1893  10.1893
    10.1893  10.8151  10.8151  14.3987  18.6677  18.6677  18.6677  18.9246
    18.9246  18.9246  21.9142  21.9142  23.3750  25.9508  25.9508  25.9508
    27.3254  27.3254  27.3254  28.4666  28.4666  31.0768  31.0768  31.0768
    33.4744  33.4744  33.4744  34.4963  34.4963  34.4963  34.8410  35.5770
    36.7197  37.1349  37.1349  37.1349  39.0789  39.0789  39.0789  39.3736
    39.3736  39.3736  39.9525  39.9525  39.9525  40.6246  40.6246  42.4598
    44.6622  44.6622  45.1624  45.1624  45.1624  51.2580  51.2580  51.2580
    52.6577  55.0759  55.0759  55.0759  55.5801  55.5801  55.5801  57.2812
    57.2812  57.2812  57.7454  57.8427  57.8427  61.8559  62.1218  62.1218
    62.1218  62.1247  62.1247  62.6321  62.6321  62.6321  63.6197  63.6197
    63.6197  63.8823  63.8823  63.8823  64.8989  64.8989  64.8989  65.1548
    65.1548  65.1548  65.7131  65.7131  65.7131  65.7469  65.7469  66.1503
    66.1503  67.3094  67.3094  67.3094  68.2288  68.9365  71.9878  73.6116
    73.6116  73.6116  74.1602  74.1602  74.1602  76.2458  76.2458  78.2452
    78.2452  78.2452  79.1192  79.1192  79.1900  79.1900  79.1900  79.2583
    79.2583  79.2583  79.4976  79.4976  79.4976  80.1683  80.4614  80.4614
    80.4614  83.1314  83.1314  84.0423  84.4054  85.1523  85.1523  85.1523
    86.1784  86.1784  86.1784  87.1138  87.5578  87.5578  87.5578  88.0525
    88.0525  88.0525  88.3552  88.3552  88.3552  88.9890  88.9890  88.9890
    93.0463  93.0463  93.1717  93.1717  93.1717  93.3769  97.7614  98.1999
    98.1999  98.1999  99.6311  99.6311  99.6311  99.9345  99.9345 102.0126
   102.0126 102.0126 102.7321 102.7321 102.7321 102.8463 102.8463 104.7570
   104.7570 104.7570 105.7572 107.9437 107.9437 107.9437 107.9649 109.3687
   109.3687 109.3687 110.3028 110.3028 110.3028 110.3171 110.3171 110.3171
   110.6094 110.6094 111.3401 112.1357 112.8661 112.8661 112.8661 113.1887
   113.1887 113.1887 114.2082 115.1202 115.1202 115.1202 115.5316 115.5316
   116.6754 116.6754 116.6754 117.3624 117.4344 117.4344 117.4344 117.5323
   117.5323 117.5323 118.3538 118.3538 118.3538 118.4690 118.4690 118.5063
   118.5063 118.5063 118.5169 118.5169 118.5169 118.7451 118.7451 118.9968
   118.9968 118.9968 119.2438 119.2438 119.2881 119.2881 119.2881 119.6838
   119.6838 119.6838 119.9873 122.0364 122.0364 122.1086 122.1086 122.1086
   125.4333 125.4333 125.4333 125.8747 125.8747 125.8747 126.0261 126.0261
   126.0261 127.8142 127.8142 127.8142 128.5294 128.7901 128.7901 128.7901
   129.8772 129.8772 133.0396 133.0396 133.0396 133.0591 133.0591 133.1893
   133.2790 133.8819 133.8819 133.8819 135.9857 138.5603 138.5603 138.5603
   140.7346 140.7346 140.7346 141.4329 141.4329 141.4329 141.7145 141.7145
   141.7145 141.8075 141.8075 141.8075 141.9549 141.9549 142.0175 142.9919
   142.9919 143.2048 143.2048 143.2105 143.2105 143.2105 143.2147 143.2147
   143.2147 144.1860 144.1860 144.1860 144.2792 144.2792 144.2792 144.5911
   144.5911 144.5911 144.8760 144.8760 144.9861 146.2098 146.2098 146.2098
   147.7808 147.7808 147.7808 149.3003 153.8228 153.8228 153.8228 154.3622
   154.3622 154.3622 154.7044 155.1099 155.2857 155.2857 156.6814 156.6814
   156.6814 157.6172 157.6172 157.6172 158.9565 158.9565 159.7490 159.7490
   159.7490 160.5778 160.9269 160.9269 160.9269 161.4270 161.4270 161.4270
   164.1112 165.1061 165.1061 165.1061 165.9708 165.9708 165.9708 166.1172
   166.1172 166.1172 166.3815 166.3815 166.3815 167.6401 167.6401 168.8191
   168.8779 168.8779 168.8779 169.4724 169.4724 169.4724 169.9535 169.9535
   169.9535 170.1937 170.1937 170.1937 170.3929 170.3929 170.3929 170.4031
   170.4031 170.5658 170.5658 170.5658 170.7246 173.1321 173.1321 173.1584
   173.1584 173.1584 173.2167 174.4159 174.4159 174.4159 176.2927 176.2927
   176.4415 178.3953 178.3953 178.3953 178.8629 178.8629 178.8629 180.3775
   180.3775 180.7518 180.7518 180.7518 181.3543 181.5240 181.5240 181.5240
   181.5974 181.5974 181.6285 181.6285 181.6285 181.7629 181.7629 181.7629
   182.3810 182.3810 182.3810 184.7136 184.7530 184.8090 184.8090 184.8090
   185.8788 185.8788 185.8788 185.9636 185.9636 185.9636 185.9723 185.9723
   186.0076 186.0076 186.0625 186.0625 186.0625 186.2731 186.2731 186.2731
   186.2754 186.2754 186.2754 186.2775 186.2775 186.2775 187.7274 187.7766
   187.7766 187.7766 187.8401 187.8401 187.8401 187.9182 188.1543 188.1543
   188.1543 188.8743 188.8743 189.3609 189.4708 189.4708 189.4708 189.8755
   189.8755 190.1718 190.1718 190.1718 190.4096 193.1956 193.1956 194.0492
   194.0492 194.0492 194.3667 194.3667 194.3667 194.8789 194.8789 194.8789
   195.0301 195.0301 195.0301 195.9585 195.9585 196.0181 196.0181 196.0181
   196.1049 196.5059 196.5068 196.5068 196.5068 196.5420 196.5420 197.9800
   197.9800 197.9800 198.1575 198.1575 198.1575 198.3768 198.3768 198.3768
   198.5220 198.5220 198.5220 199.4261 199.4758 199.4758 199.4758 199.4944
   199.4944 203.4123 203.4123 203.4123 213.0222 213.0222 213.0222 213.2809
   213.2809 213.2809 213.7159 213.7159 215.0366 216.2544 216.2544 216.2563
   217.2051 217.2051 217.2051 217.5985 217.5985 217.5985 217.7150 217.7150
   217.7150 218.1281 218.1281 218.1281 218.4348 218.4348 218.4348 219.2780
   219.4495 219.4495 219.4495 219.5281 219.5281 219.5281 219.5905 219.5905
   219.5905 219.6217 219.6217 219.6581 219.6581 219.6581 219.6682 219.8377
   219.8377 219.8377 220.7501 224.1058 224.1058 224.5463 224.5463 224.5463
   224.7100 224.7100 224.7896 224.7896 224.7896 225.0474 225.0474 225.0474
   225.2342 225.2342 225.2342 226.0619 226.0619 226.1693 226.1693 226.1693
   226.4315 227.7421 227.7421 227.7421 227.9521 227.9521 228.9816 228.9816
   228.9816 229.9875 229.9875 230.6702 230.6702 230.6702 230.7944 230.7944
   230.7944 232.2808 232.6697 232.6697 232.6697 233.9043 233.9043 233.9043
   235.9918 236.5093 236.5093 236.5093 236.5136 236.5887 236.5887 237.1629
   237.1629 237.6235 237.6235 237.6235 237.6315 237.6315 237.6315 237.6704
   237.6704 237.6704 237.8413 237.8413 237.8413 238.4016 238.4016 238.4016
   238.9249 239.2206 239.2206 242.0215 242.0215 242.0215 242.5459 243.6066
   243.6066 243.6066 243.9261 243.9261 243.9261 244.1970 244.1970 244.1970
   244.3337 244.3337 244.3337 244.4820 244.8900 246.7372 246.7372 246.7372
   247.5716 247.5716 248.6875 248.6875 248.7185 248.7185 248.7185 248.9914
   248.9914 248.9914 248.9919 249.3237 249.3237 249.4130 249.4130 249.4130
   249.4203 249.4203 249.4203 249.5472 249.5472 249.5481 249.5481 249.5481
   249.8900 249.8900 249.8900 249.8955 250.0240 250.0240 250.0240 250.5560
   250.5560 250.5560 250.6106 251.3082 251.3082 251.3082 251.8528 251.8528
   251.8528 251.9031 251.9031 251.9607 251.9607 251.9607 252.0761 252.0761
   252.0761 252.1858 253.1633 255.2878 255.2878 258.3863 258.3863 258.3863
   258.8572 258.8572 258.8572 259.2583 259.2583 259.2583 259.5759 259.5759
   259.5759 260.0458 260.2320 260.2320 260.2320 260.7428 260.7428 260.9280
   260.9280 260.9280 261.1170 261.6907 261.6907 261.6907 266.8213 266.8213
   266.8213 267.0936 268.5645 269.1174 269.1174 269.1174 269.1672 269.1672
   269.6377 269.6377 269.6377 269.6561 269.6561 269.6561 270.1510 270.1510
   270.1510 270.1670 270.1670 270.1670 270.2493 270.2493 272.3183 272.3183
   272.3183 272.3713 272.5199 272.5199 272.5199 272.5458 272.5458 272.5458
   272.7280 272.7280 272.7280 273.2533 273.2533 273.5385 273.5385 273.5385
   273.5469 273.5469 273.5469 273.8260 273.8260 274.5648 274.5648 274.5648
   274.6711 274.6711 274.6711 275.4687 275.4687 275.4687 275.7176 275.7176
   275.7508 275.7508 275.7508 275.7805 275.7805 275.7826 275.8604 275.8604
   275.8604 275.8698 275.8698 275.8698 275.9647 275.9647 275.9647 277.6094
   277.6349 277.6349 277.6349 277.6524 277.6524 277.6524 277.6607 279.3079
   279.3079 279.3079 279.3305 279.3305 279.3678 279.3678 279.3678 279.4691
   279.6239 279.6239 279.6239 279.7036 279.7036 279.7036 279.7733 279.7733
   279.7733 279.7789 279.7789 279.9198 279.9446 279.9446 279.9446 279.9584
   279.9584 279.9663 279.9663 279.9663 280.0746 282.0633 282.0633 282.0633
   283.3876 283.3876 283.3876 283.5588 283.7617 285.8842 285.8842 289.4356
   289.4356 289.4356 290.9506 290.9506 290.9506 291.5495 291.5495 291.8729
   291.8729 291.8729 291.9579 291.9579 291.9579 292.0426 292.0426 292.0426
   292.0571 292.0571 292.0603 292.0603 292.0603 292.3361 292.8575 292.8575
   292.8575 292.9511 292.9511 292.9511 293.0077 293.0077 293.0077 296.6349
   296.6349 296.8315 296.8315 296.8315 296.8818 298.8334 298.8334 301.2919
   301.2919 301.2919 301.4938 301.4938 301.5061 303.8003 303.8003 303.8003
   304.7229 304.7229 304.7229 304.7506 304.7506 304.7506 304.7531 304.7531
   304.7531 304.9273 304.9273 304.9273 306.1761 306.1761 306.1980 306.1980
   306.1980 306.2331 309.8815 309.8815 309.8815 311.9487 311.9487 311.9487
   313.8527 313.8527 313.9785 313.9785 313.9785 314.5693 314.7223 314.7223
   314.7223 315.1576 315.4752 315.4752 315.4752 315.6372 315.6372 315.6372
   315.6475 315.6475 315.6475 315.6485 315.7936 315.7936 316.3671 316.3671
   316.3671 316.4532 316.4532 316.8343 316.8343 316.8343 317.1550 317.7510
   318.4410 318.4410 318.4410 319.3663 319.3663 319.6121 319.6121 319.6121
   319.8060 319.8060 319.8060 320.3887 320.3887 320.3887 320.5337 321.0140
   321.0140 321.0140 321.9784 323.8703 323.8703 324.7746 324.7746 324.7746
   324.8636 324.8636 324.9309 324.9309 324.9309 325.2129 325.2129 325.2129
   325.3542 325.3542 325.3542 326.7125 326.7125 326.7125 326.8710 326.9324
   326.9324 326.9324 327.1964 329.1572 329.1572 329.1572 329.2257 329.2257
   329.3040 329.3040 329.3040 329.4620 329.4620 329.4620 329.4890 329.4890
   329.5295 329.5295 329.5295 329.7290 329.7290 329.7290 329.8009 329.8009
   329.8009 329.8566 329.8566 329.8761 329.9752 329.9752 329.9752 330.7656
   330.7656 330.7656 330.7665 330.7665 330.7668 330.7668 330.7668 330.7722
   330.7722 330.7722 330.8183 336.0237 336.0237 336.0237 338.2207 338.2207
   338.2903 338.2903 338.2903 338.3825 338.3825 338.3825 338.4199 338.4199
   338.4199 339.4488 339.4488 339.4488 339.7510 340.0465 340.0465 340.0465
   340.1232 340.1232 340.1232 340.1490 340.1490 340.2165 340.2165 340.2165
   340.3792 342.1407 342.1407 342.1407 342.6784 342.6784 342.7988 342.7988
   342.7988 343.0395 343.0967 343.0967 343.0967 343.2040 343.2040 343.6276
   343.6276 343.6276 345.6493 345.6493 345.6931 345.6931 345.6931 345.8162
   345.8162 345.8162 345.8710 345.8710 345.8710 345.9123 345.9258 346.0401
   346.0401 346.0835 346.0835 346.0835 346.2279 346.2279 346.2279 346.3186
   346.3186 346.3186 346.3977 346.4147 346.4147 346.4147 346.4525 346.4525
   346.4525 346.4707 346.4707 346.5760 346.5760 346.5760 346.7093 346.7093
   346.7093 346.7350 346.7350 346.7350 346.8030 346.8030 346.9782 346.9782
   346.9782 347.1338 347.4306 351.2965 351.2965 351.2965 351.6899 351.8907
   351.8907 351.8907 352.0336 352.0336 352.0336 352.0346 352.0346 353.1541
   353.1541 353.1541 353.8787 353.8787 353.8787 353.8912 353.8912 353.8912
   353.9058 354.0373 354.0373 354.0741 354.0741 354.0741 354.4111 354.4111
   354.4111 354.4589 354.5595 356.6149 356.6149 356.6149 356.6204 356.6335
   356.6335 357.1187 357.1187 357.2209 357.2209 357.2209 357.2268 357.2268
   357.3791 357.3791 357.3791 357.4695 357.4695 357.4695 357.5289 357.5289
   357.5289 357.6915 357.7999 357.7999 357.7999 357.8226 357.8226 357.8226
   357.8233 357.8233 357.8233 358.0922 358.1353 358.1353 358.1353 358.1966
   358.1966 358.1966 358.2771 358.2771 358.2771 358.2922 358.2922 358.3653
   358.3653 358.3653 358.5546 369.3334 369.3334 370.3224 370.3224 370.3224
   375.1197 375.1197 375.1197 375.5891 375.5891 375.6944 375.6944 375.6944
   375.9953 376.5427 376.5427 376.5427 376.7122 376.7122 376.7122 376.7395
   376.7515 376.7515 376.7515 376.7671 376.7671 376.7671 376.8072 376.8072
   377.1769 377.1769 377.1769 377.5018 377.5649 378.4548 378.4548 378.4548
   378.5935 378.5935 378.5935 378.8327 378.8327 378.8327 378.8810 378.8810
   378.8810 379.7971 379.7971 379.8402 379.8402 379.8647 379.8647 379.8647
   379.8661 379.8661 379.8661 379.9372 379.9418 380.6416 380.6416 380.6416
   380.7870 380.7870 380.7870 380.8473 380.8473 380.8473 381.1282 381.1282
   381.2019 381.2019 381.2019 381.4910 381.4910 382.4595 382.4595 382.4595
   382.5488 382.5488 382.5638 382.5638 382.5638 382.5693 382.5693 382.5693
   382.5710 382.5710 382.5710 382.6506 382.6506 382.6901 382.6910 382.6910
   382.6910 382.7018 382.7018 382.7018 382.7232 384.6954 384.6954 384.6954
   385.0972 385.6140 385.6140 385.6140 385.6368 385.6368 385.7404 385.7404
   385.7404 385.8478 385.8478 385.8478 385.9190 385.9190 385.9190 385.9230
   385.9230 387.6986 387.7247 387.7247 387.7247 387.7629 387.7629 387.7629
   387.8117 393.8403 393.8403 393.8403 393.9242 394.0615 394.0615 394.3746
   394.3746 394.3746 395.1814 395.1814 395.1814 395.2283 395.2283 395.2283
   395.2322 395.2322 395.2322 395.5416 395.5416 396.3942 396.3942 396.3942
   396.5087 396.6305 396.6305 396.6305 398.9812 398.9812 398.9812 399.0700
   399.2368 399.6174 399.6174 399.6257 399.6257 399.6257 399.6647 399.8379
   399.8379 399.8379 399.9092 399.9092 399.9092 399.9328 399.9328 399.9328
   399.9508 399.9508 399.9508 400.0910 400.0910 400.1403 400.1403 400.1403
   400.1818 404.6569 404.6569 404.6569 405.4409 405.4409 405.4409 405.4455
   405.4455 405.4455 405.4589 405.4589 405.4589 408.0877 408.0877 408.3580
   408.3580 408.3580 408.4869 408.4869 408.4869 408.5491 408.5491 408.5491
   408.5989 408.5989 408.5989 408.6074 408.6074 412.7721 412.7721 412.7721
   413.4262 413.4335 413.4335 413.4406 413.4406 413.4406 414.5618 414.5618
   416.0782 416.0782 416.0782 416.1535 416.1535 416.1535 416.2342 416.2342
   416.2342 416.2996 416.2996 416.6347 419.7062 419.7062 419.7062 420.0110
   420.0110 420.0110 420.0254 422.9941 422.9941 424.3560 424.3560 424.3560
   425.2846 425.5162 425.5162 425.5162 425.9990 425.9990 425.9990 426.2757
   426.2757 426.2757 426.4096 426.4096 426.4096 428.8557 429.7101 429.7101
   429.7101 429.9594 429.9594 430.4299 430.4299 430.4299 430.7768 431.0995
   431.0995 431.0995 431.1091 431.1091 431.1091 431.3460 431.3460 431.3460
   431.4564 431.4564 431.4895 431.4895 431.9188 431.9188 431.9188 431.9837
   431.9837 431.9837 432.2897 432.2897 432.2897 432.3827 432.4868 432.4868
   432.4868 432.7272 432.7272 432.7272 432.7442 432.7442 432.7905 433.0959
   433.0959 433.0959 433.2368 433.2368 433.6259 433.9374 433.9374 433.9374
   434.4315 434.7629 434.7629 434.7629 434.8276 434.8276 434.8917 434.8917
   434.8917 435.0217 435.0217 435.0217 435.2595 435.2595 435.2595 435.3654
   435.3989 435.3989 435.3995 435.3995 435.3995 435.7329 435.7329 435.7381
   435.7381 435.7381 435.9790 435.9790 435.9790 436.1777 436.1777 436.1777
   436.3917 436.5745 436.5745 436.5745 436.6474 436.6474 436.7392 436.7392
   436.7392 436.9865 436.9865 436.9865 437.4363 437.4758 437.4758 437.5395
   437.5395 437.5395 437.8475 437.8475 437.8475 438.0343 438.0343 438.0343
   438.1279 438.2452 438.2452 438.2452 438.2957 438.2957 438.2957 438.3015
   438.3015 438.3015 438.3628 438.3628 438.3628 438.8869 438.9968 438.9968
   438.9968 439.0131 439.0131 439.0639 439.0639 439.0639 439.0808 439.0808
   439.0808 439.7823 439.7823 439.8009 439.8009 439.8009 439.8347 442.5804
   442.5804 442.5804 443.0437 443.0718 443.0718 443.0718 443.1781 445.1393
   445.1393 445.6103 445.8042 445.8042 445.8042 446.0131 446.0131 446.0131
   446.1737 446.1737 446.1737 446.8286 446.8286 446.8286 446.8467 446.8467
   447.3981 447.3981 447.3981 447.5346 447.5346 447.5346 447.7116 452.0681
   452.0681 452.0776 452.0776 452.0776 452.0896 452.0896 452.0946 452.0946
   452.0946 452.1168 452.1168 452.1168 452.1212 452.1212 452.1212 454.9122
   454.9122 455.1983 455.1983 455.1983 457.0337 457.0959 457.0959 457.0959
   457.2350 457.2350 457.2350 457.2388 457.2388 457.2807 457.2807 457.2807
   457.3287 457.3287 457.3287 457.3427 457.4613 457.4613 457.4613 458.1753
   458.1753 459.2761 459.2761 459.3916 459.3916 459.3916 459.6135 459.6135

          k =-0.1667 0.1667-0.1667 (  3545 PWs)   bands (ev):

   -28.2860 -28.2860 -28.2732 -28.2731 -28.2731 -27.8402  -9.8420  -9.8138
    -9.8138  -2.9028   5.8665   6.5288   6.5288  10.0241  10.5353  10.5353
    11.0217  11.4968  11.4968  15.1981  16.5669  17.2037  17.2037  19.2375
    19.2375  20.2990  22.4325  22.4325  24.2696  24.4771  24.4771  25.9173
    26.2203  27.6665  27.6665  29.7178  29.7178  30.5506  31.7530  31.7530
    31.7661  31.7661  32.5820  32.6492  34.5490  35.0689  35.0689  35.5339
    36.4822  37.3643  37.4373  37.4373  38.0108  38.0108  39.1958  39.1958
    39.5650  41.3579  41.3579  41.4922  41.7842  41.7842  42.1237  43.8016
    44.4891  44.4891  46.2096  48.2519  48.2736  48.2736  48.9265  48.9265
    53.2783  53.2783  54.2202  54.9947  54.9947  55.1731  55.4190  55.5338
    55.5338  56.2385  56.6638  58.1737  58.1737  59.1573  59.1573  59.2714
    60.7587  60.7587  61.3119  61.3687  61.3687  61.5273  62.7782  63.3000
    63.3000  64.5908  64.5908  64.6650  65.3467  65.3467  65.5231  65.6144
    65.6144  66.1217  66.2880  66.6183  66.6183  67.4660  68.7702  68.7702
    68.8810  70.4691  70.6660  70.6660  70.9561  70.9561  71.9693  71.9693
    72.4395  72.4395  73.4233  73.4233  73.6804  73.9623  74.9789  74.9789
    75.1606  75.3898  78.0457  78.4161  78.4161  78.6948  78.6948  79.5027
    80.0724  80.0724  80.5593  80.5778  80.7171  81.4232  81.4232  82.3006
    82.8290  82.8290  83.2658  83.4720  83.4720  84.0123  84.4231  84.4231
    84.8779  86.1587  86.3375  86.3375  88.0291  88.0291  88.1778  88.6311
    88.6311  89.5722  90.6438  90.6438  91.1403  91.5328  91.5328  92.1616
    92.7482  92.7482  93.4688  93.4688  94.5766  95.5472  96.3475  96.3475
    98.2776  98.3879  99.1002  99.1002  99.3059  99.3059  99.8807 100.7968
   101.1616 101.1616 101.4089 101.6582 102.1836 102.1836 102.4868 102.4868
   104.4381 105.0321 106.0080 106.2113 106.2113 107.0095 107.3537 107.3537
   107.6887 107.6887 108.2829 108.2829 108.8351 109.1477 109.1477 110.0115
   110.0115 110.4759 110.5497 111.2778 111.2778 111.4914 111.4914 112.0992
   113.0395 113.2237 113.2237 113.8268 113.9158 113.9158 113.9877 114.3729
   114.3729 114.8480 115.1907 115.1907 116.0566 116.0740 116.0740 116.3003
   116.3456 116.3456 116.8930 118.0353 118.0353 118.4882 118.5007 118.5007
   119.3169 119.3169 119.6038 119.6342 119.8841 119.9075 119.9075 120.2813
   121.0809 121.1387 121.1387 121.3777 121.3777 121.6746 121.6746 122.3546
   122.5618 122.9439 123.3660 123.3660 123.5344 125.2447 125.2447 125.6278
   125.6622 125.6622 125.7407 125.7407 127.2479 127.3260 127.3260 128.1349
   128.1349 128.5177 129.1169 129.4301 129.4301 130.2336 130.2336 130.6567
   131.5243 131.5243 131.7902 131.9502 131.9502 132.4972 133.5770 133.5770
   133.9716 133.9716 134.6208 135.3914 135.3914 136.1876 136.4238 136.7868
   136.7868 137.1332 137.2505 137.2505 137.7206 137.7206 138.0127 138.6461
   139.4128 139.8116 139.8116 140.3171 140.3171 140.4748 140.9375 140.9375
   141.0186 142.3023 142.8721 142.8721 143.4544 144.0786 144.0786 145.3480
   145.3480 145.4074 145.9733 146.1499 146.1499 146.6915 147.2949 148.1092
   148.1092 148.8952 148.8952 149.2201 149.6328 149.6328 150.2459 150.7926
   150.7926 151.0987 151.3236 151.7808 151.7808 152.8382 152.8382 153.2557
   154.7264 154.7349 154.7349 154.9247 154.9247 155.1825 155.7430 156.0090
   156.0090 156.9417 156.9417 158.3698 158.3698 158.6380 158.9952 159.2088
   159.2088 159.3272 159.6367 159.6367 159.6613 159.7560 159.7560 159.7631
   160.1836 160.1836 160.7954 161.2807 161.2807 161.3631 164.0961 164.0961
   164.9412 165.7977 165.8371 165.8371 166.1948 167.8537 167.8537 167.8803
   168.5807 168.5807 169.0085 169.7098 169.7098 170.0224 170.0727 170.4150
   170.4150 170.5461 170.5461 170.6717 171.1419 171.1419 171.1703 171.6999
   171.6999 172.1364 172.2405 172.2405 173.1057 173.2493 173.2493 173.3298
   173.3298 173.5627 174.1861 174.1861 174.5003 174.7663 174.7663 174.7941
   175.5733 175.5733 175.7395 176.3768 177.1903 177.1903 177.3204 178.2253
   178.6215 178.6440 178.6440 179.5117 179.5117 179.9481 179.9481 180.2755
   180.3195 180.3195 180.5448 180.8157 180.9354 180.9354 181.1587 181.1587
   181.5041 181.9442 181.9442 182.0003 182.0003 182.0351 182.2947 182.5576
   182.5576 183.2155 183.4266 183.4266 183.6521 184.2769 184.2769 184.8367
   184.8367 185.0527 185.4357 185.7549 185.7549 186.2529 186.7007 186.7007
   186.9013 186.9013 187.0754 187.1062 187.1062 187.2962 187.7681 187.7681
   188.0922 188.1336 188.4248 188.4248 188.8935 188.8935 189.0203 189.3307
   190.7574 190.7888 190.7888 191.3216 191.3216 191.7899 192.3624 192.4282
   192.4282 192.7503 192.9145 193.1249 193.2258 193.2258 193.8937 193.8937
   193.9458 194.2536 194.2536 194.8880 194.8880 194.9912 195.4959 195.4959
   195.7503 195.7503 195.7787 196.5906 198.3338 198.3338 198.7578 198.7578
   198.7750 199.2313 199.2313 199.7532 199.7882 200.1275 200.1275 200.7335
   200.7335 201.3597 201.8962 201.8962 202.2950 202.8879 202.8879 203.0053
   203.3005 203.7130 203.7130 203.7758 204.1896 204.7231 204.7231 207.1893
   207.4645 207.4645 207.5213 207.5213 208.7078 208.7102 209.0004 209.0004
   209.2800 209.7647 209.7647 210.0439 210.0439 210.3371 210.3371 210.4749
   210.7500 210.7500 210.9692 210.9692 211.2574 211.2574 211.5310 212.1038
   212.4009 215.0965 215.8518 215.8518 216.2352 216.2352 216.4423 216.7230
   216.7230 217.6445 218.1712 218.1712 218.6078 218.6078 218.7276 218.7276
   219.0574 219.1021 219.3902 219.3902 219.7946 220.8982 221.0227 221.0227
   221.4696 223.7500 223.9750 223.9750 224.5817 224.5817 224.9846 224.9846
   225.0532 225.2468 225.2665 225.2665 225.9579 225.9579 226.9213 227.0909
   227.0909 227.2800 227.5281 227.7253 228.5546 228.5546 228.6001 228.6001
   228.8336 228.9531 228.9531 229.0114 229.5521 229.6552 229.6552 229.7732
   230.2689 230.2689 230.6320 230.9210 230.9210 231.0896 231.0896 231.1316
   231.2345 231.9161 232.1691 232.1691 232.5206 232.7073 232.7073 233.4216
   233.4216 233.6486 233.6486 233.7226 233.7561 234.0525 234.3842 234.8539
   234.8539 235.3435 235.3435 235.5516 235.5516 235.6859 236.0956 236.9826
   236.9826 237.9990 237.9990 238.8805 238.9954 238.9954 239.1524 239.1633
   239.1633 239.4073 240.0356 240.0356 241.1758 242.1792 242.1792 242.3928
   242.7526 242.7526 243.4816 243.4816 243.7327 244.3353 244.3353 244.7011
   244.9047 244.9249 244.9249 245.1481 245.1481 245.9074 246.2789 246.2789
   246.3369 246.6108 246.6108 246.7700 246.8434 246.8784 247.0422 247.1543
   247.1543 247.2556 247.2556 247.8388 247.8388 248.0018 248.1733 248.1877
   248.1877 248.2412 248.2412 248.3756 249.4696 250.4807 250.4807 250.7192
   250.7192 250.8583 250.9066 250.9066 250.9498 251.6041 251.9786 251.9786
   252.1754 253.3381 253.3381 253.6131 253.6234 253.7036 253.7036 253.7915
   253.7915 254.7497 254.7497 255.2463 255.2463 255.5259 255.9933 255.9933
   256.2548 257.0270 257.0561 257.0561 257.6776 258.3739 259.2152 259.2152
   259.3382 259.3382 259.5218 259.5218 259.6316 260.4748 260.4748 261.0876
   261.3223 261.5331 261.6628 261.9550 261.9550 262.0874 262.2058 262.2058
   262.3463 262.3463 262.4413 262.4413 263.1617 263.1689 263.1689 263.9200
   263.9200 264.0051 264.2550 264.2550 264.3689 264.5369 264.6060 264.7646
   264.7646 264.9966 265.2410 265.2815 265.2815 265.4280 265.4280 265.5638
   265.7029 265.7029 265.8808 266.0471 266.0824 266.0824 266.3214 268.6528
   268.6528 268.8818 269.1338 269.1338 269.5568 270.5846 270.5846 270.7165
   270.7165 270.8631 271.2875 271.2875 271.3624 271.5217 271.6770 271.6770
   271.7224 271.7224 272.0313 272.0868 272.4165 272.4165 272.8842 273.2604
   273.2604 273.8481 274.3650 274.3650 274.5759 274.5759 274.9294 274.9294
   274.9561 275.3380 275.3380 275.5062 275.5837 275.6442 275.6442 277.2174
   277.5330 277.5330 277.6196 277.6401 277.6401 278.1143 278.2934 278.2934
   278.4885 279.2978 279.5253 279.5253 280.1877 280.4839 280.4839 281.2073
   281.2073 281.5199 281.8002 281.9138 281.9138 281.9272 282.2030 282.2030
   282.2881 282.2881 282.4872 282.4872 282.6151 283.0406 283.0406 283.0598
   283.1948 283.5458 284.4452 284.4452 285.4585 285.6038 285.6286 285.6286
   286.5511 286.5511 286.6250 286.9814 286.9814 287.4427 287.5707 287.5707
   287.7567 287.7567 287.8435 287.9732 287.9732 288.1748 289.0138 289.0138
   289.2105 289.8257 289.8257 289.8271 289.9023 290.0511 290.0511 290.4159
   290.4159 290.4891 290.5182 290.5477 290.5477 292.5785 292.5785 292.6366
   292.6883 292.6883 293.1236 293.1236 294.0658 294.5651 295.2696 295.2696
   295.5108 295.7390 296.1625 296.1625 296.7286 296.7286 296.7714 296.8328
   296.9032 296.9032 297.5932 297.5932 299.0474 299.0474 299.1052 299.4474
   299.4474 299.4479 300.0113 300.0113 300.0524 300.4842 300.6597 300.6597
   301.6381 301.7616 301.7616 302.7282 303.1903 304.2549 304.6368 304.6368
   304.8480 306.9228 306.9228 306.9685 307.1007 307.1007 307.1861 307.5461
   307.5461 307.8617 307.8617 308.0532 308.5492 308.5492 309.4653 309.9864
   309.9864 310.4014 310.4812 310.4812 310.9977 311.3609 311.3609 311.9793
   311.9793 312.6032 312.6032 312.6447 313.1604 313.1604 313.1838 314.4729
   314.4729 314.5547 314.8917 314.8917 314.9284 314.9578 315.4014 315.4014
   315.6600 316.2134 316.2602 316.2602 316.8193 316.8193 316.8544 317.0035
   317.0035 317.0266 317.0266 317.1271 317.3050 317.7671 317.7671 318.7633
   318.7633 319.1488 319.4438 319.4438 319.4952 319.7359 320.3347 320.3347
   321.3154 321.3154 321.7065 322.0344 322.0344 322.0539 322.8979 323.8226
   323.8226 323.9369 323.9369 323.9840 324.0090 324.0090 324.0944 324.4057
   324.4057 324.8880 325.1179 325.5515 325.5515 326.1565 326.1723 326.1723
   326.4768 326.7096 326.7096 326.9372 328.5038 328.5337 328.5337 328.8216
   328.8216 328.8433 328.8499 328.9477 328.9477 329.6208 329.6208 329.8982
   330.1449 330.1449 330.2201 330.4204 330.4349 330.4349 330.5629 330.7195
   330.7316 330.7316 330.9072 330.9072 330.9273 331.1021 331.1021 331.1978
   331.2383 331.2383 331.3005 331.4172 331.4172 332.0696 332.6794 332.6794
   332.9904 332.9904 333.0688 333.5294 334.3199 334.3199 334.4257 334.4576
   334.4576 334.7673 334.9306 334.9306 335.0575 335.2328 335.2328 336.1399
   336.1399 336.1787 336.2754 337.2699 337.3254 337.3254 337.6755 337.8179
   337.8179 338.2712 338.2712 338.3010 338.3431 338.5843 338.5843 338.6631
   339.9475 339.9475 340.2265 340.6823 340.6823 341.8739 341.8739 342.1279
   342.1728 342.1728 342.2352 342.2615 342.2615 342.4264 342.4264 342.4421
   342.4958 342.6774 342.6774 342.9168 343.3261 343.3261 343.4400 343.5153
   343.5656 343.5656 343.9538 344.6086 344.6427 344.6427 345.2699 345.2699
   345.3217 345.3738 345.3738 345.3807 346.2060 346.2060 346.3791 346.3791
   346.6800 346.6800 346.7081 346.7443 347.0856 347.6165 347.6165 347.9566
   347.9566 348.0424 348.3109 348.3637 348.3637 348.4308 348.4308 348.4945
   348.4945 348.6050 348.6737 349.1013 349.1013 349.1758 349.5452 349.6558
   349.6558 350.0440 350.0440 350.2047 350.8062 350.8062 351.0546 351.1934
   351.1934 351.3712 351.3712 351.3792 351.7820 352.2713 352.2713 352.5113
   353.3911 353.3911 353.4108 353.6016 353.6016 353.6374 354.3704 354.3704
   354.3882 355.7460 356.6159 356.6159 356.7343 357.0237 357.0237 357.0712
   357.3780 357.4416 357.4416 358.2480 358.2480 358.2821 358.5616 358.5616
   359.2771 359.7459 359.7459 359.8185 359.8185 359.9561 360.3707 360.3707
   360.8950 360.8950 361.2141 361.6389 361.7536 361.7536 362.0373 362.4333
   362.4491 362.4491 362.6447 362.6447 362.6715 363.3381 363.3381 363.7573
   363.7573 363.8935 363.9386 363.9386 363.9941 363.9941 364.0784 364.2165
   364.4458 364.6441 364.6441 364.8935 365.1838 365.1838 365.5581 365.5581
   365.8564 366.1449 366.1449 366.2794 366.2794 366.2983 366.5194 367.3395
   367.3395 368.0265 368.0689 368.1210 368.1210 368.8610 369.0962 369.0962
   369.2773 369.3629 369.3629 370.4643 370.8371 370.8371 371.3506 371.3506
   371.5734 371.6564 372.5186 372.7064 372.7064 373.1119 373.1119 373.2321
   373.2321 373.2819 373.2819 373.3134 373.4928 373.5723 373.5723 373.6001
   373.6807 373.7654 373.7654 373.8183 374.0962 374.5931 374.6873 374.6873
   374.8055 374.8055 375.0007 375.7998 375.8267 375.8267 377.2892 377.5596
   377.5596 377.7019 377.7047 377.7047 377.7997 377.9032 377.9032 378.3959
   380.0159 380.0590 380.0590 380.2360 380.2360 381.0349 381.7217 381.7217
   381.7475 382.3140 382.3140 382.3589 383.1232 383.1232 383.4818 383.4818
   383.6362 383.6570 383.9373 383.9373 383.9632 384.1809 384.1809 384.3844
   384.7568 384.7568 384.9560 384.9560 385.3028 385.6255 385.6255 385.8302
   385.9743 385.9743 386.1682 386.5938 386.6775 386.6775 387.2257 387.6438
   387.6438 387.9218 387.9218 388.1748 389.7244 389.7244 389.7388 390.0281
   390.0281 390.0934 390.5260 390.5260 390.6957 390.6957 390.8004 390.9357
   391.2390 391.2390 391.5940 392.4095 392.6091 392.6091 393.1229 393.1229
   393.3890 393.3890 393.3893 393.4016 393.4016 393.4529 393.6739 393.6739
   393.6863 393.7371 394.1403 394.1403 394.3741 394.3741 394.4249 394.9070
   395.1513 395.3481 395.3481 395.6464 395.6464 395.6555 396.4806 396.4806
   396.7819 397.4040 397.8450 397.8450 397.9296 398.2248 398.2248 398.5028
   399.8721 399.8721 399.9247 400.1550 400.1550 400.1753 400.5148 400.5148
   401.0355 401.0355 401.6050 401.7341 401.7341 401.7890 401.7890 401.8439
   401.8626 403.1292 403.1292 403.2511 404.5386 404.5386 404.5539 404.7694
   404.7694 405.4882 405.4882 405.6325 405.7177 405.7291 405.7291 405.8782
   406.0455 406.0455 408.0196 408.1209 408.1209 409.8741 411.0939 411.3188
   411.6163 411.7535 411.7535 411.8247 411.8575 411.8575 412.0249 412.0249
   412.3099 412.3101 412.3101 413.1503 413.1503 413.5487 413.5547 413.5547
   414.2090 414.3469 414.3469 414.4302 414.4302 414.6839 414.9851 414.9851
   415.1271 415.3204 415.3204 416.1583 416.1583 416.1717 416.2189 416.9408
   416.9408 417.2637 417.2637 417.4810 417.7078 417.7078 417.7615 417.7802
   417.7802 417.8193 417.8193 417.8284 417.8971 417.9145 417.9145 417.9554
   418.1390 418.1390 418.2228 418.5361 419.0651 419.6516 419.6516 420.0625
   420.0625 420.4175 420.4712 420.4712 420.5819 420.8524 420.9610 420.9610
   421.3218 421.4336 421.6881 421.9966 421.9966 422.8680 422.8680 423.1557
   423.2434 423.2465 423.2465 423.9432 423.9432 424.0628 424.1376 424.1376
   424.5269 424.5380 424.5380 424.9601 426.2205 426.2388 426.2388 427.9962
   427.9962 428.0038 428.5219 428.5219 428.5281 429.2753 429.2753 429.4854
   429.5781 429.5781 429.8760 429.8760 429.9485 430.2319 430.2319 430.7181
   430.7414 430.7414 430.9175 430.9175 431.2879 431.6131 431.6131 432.0889
   432.0889 432.1093 432.5244 432.6945 432.6945 432.7556 433.4662 433.4662
   433.6264 433.7406 433.7406 434.0536 434.2277 434.2277 434.4958 434.7279
   434.7279 434.9522 434.9522 435.0317 435.1893 435.4685 435.5061 435.5061
   435.7166 435.7166 435.8078 436.2731 436.3039 436.3039 436.6918 436.6918
   436.9558 437.5492 437.5963 437.5963 437.9347 437.9347 438.3091 438.4350
   438.4350 438.4887 438.6517 438.6517 438.7234 439.9513 439.9513 440.1979
   440.2341 440.2341 440.2564 440.3871 440.3871 440.7193 440.7193 441.4958
   441.7368 441.7595 442.0885 442.0885 442.4343 442.4857 442.4857 442.5678
   442.5678 442.6278 442.7263 442.7908 442.7908 443.0115 443.0115 443.0341
   443.1039 443.1039 443.1296 443.5096 443.5096 443.5153 443.9902 444.0029
   444.1854 444.1854 444.2103 444.2103 444.5697 444.5697 444.7770 445.4461
   445.4461 445.5015 445.5015 446.1906 446.2616 446.2616 446.3519 446.8750
   446.8750 446.9003 446.9190 446.9409 446.9409 447.1255 447.1255 447.1481
   447.4284 447.8146 447.8146 448.1812 448.2455 448.3816 448.3816 448.7371
   448.7371 448.8859 448.8859 448.9265 448.9864 449.0557 449.1403 449.1403
   449.4084 449.4084 449.6162 449.8183 449.8183 449.9338 450.9471 451.1208
   451.1208 451.2903 451.4907 451.4907 451.6029 452.0433 452.0433 452.5108
   452.8042 452.8042 453.0444 453.2567 453.2567 453.3192 453.4789 453.4789
   453.6719 453.6719 453.6968 453.8500 454.1794 454.1794 454.3528 454.5044
   454.5044 454.6120 454.6965 454.6965 455.0179 455.0179 455.2076 455.2110
   455.3345 455.3345 457.0733 457.0733 457.2380 457.3421 457.3421 457.7295

          k =-0.3333 0.3333-0.3333 (  3500 PWs)   bands (ev):

   -28.2861 -28.2861 -28.2731 -28.2730 -28.2730 -27.8383  -9.8990  -9.8161
    -9.8161  -2.6071   4.6192   6.0227   6.0227  10.2881  11.3918  11.3918
    12.4604  12.9799  12.9799  14.8369  15.3226  15.3226  17.6205  18.4958
    18.4958  21.1088  21.6161  22.7872  22.7872  23.6301  23.6301  27.0247
    27.8205  28.2539  28.5588  28.5588  29.2059  29.2059  30.1130  30.1130
    30.2670  30.5280  34.1253  34.1253  34.4448  35.0956  35.8395  35.8395
    36.4820  36.4820  36.8374  38.0521  38.0521  38.8268  39.4727  39.4727
    41.8688  43.0248  43.0248  43.4120  44.2807  44.3178  44.3178  44.6482
    44.8994  44.8994  46.5058  48.7043  48.7043  49.9947  49.9947  50.7037
    50.7037  51.0247  51.8641  51.8641  52.1773  52.8755  53.5221  53.7567
    53.7567  54.9552  54.9552  56.0913  56.3177  57.4927  57.4927  57.8066
    58.8425  60.1690  60.4600  60.4600  62.2123  62.3485  62.3485  63.1516
    63.1516  63.8269  63.8269  64.6560  65.3009  66.0706  66.0706  67.1338
    67.1338  67.3343  67.5867  67.9612  67.9612  68.4479  68.4479  68.6355
    69.9318  69.9318  69.9966  71.3491  71.3491  71.7293  72.0357  72.0777
    72.0777  73.9606  73.9606  74.6597  75.5912  76.0363  76.1059  76.1059
    76.2792  77.1133  77.1133  78.4449  78.4904  78.4904  79.8268  79.8268
    79.9987  79.9987  80.3319  80.4046  80.4046  80.6112  81.4971  81.7188
    81.7188  82.5463  84.1948  84.1948  84.4422  85.1097  85.1448  85.1448
    85.8015  85.8015  85.8519  87.5535  88.2313  88.2313  89.2368  89.3031
    89.3031  90.3844  90.3844  90.7443  91.9394  93.5121  93.5121  93.9276
    94.7844  95.3699  95.4027  95.4027  96.6416  96.6416  96.7418  96.7700
    97.5387  97.5387  98.4066  98.4066  98.6828  98.6828  98.9105  98.9105
    99.2207  99.3369  99.6866  99.6866 100.5932 101.1572 101.3700 101.3700
   102.6627 102.7307 102.7307 103.1413 103.1413 104.1414 104.3047 104.8375
   104.8375 106.2435 106.5508 106.5508 107.3827 108.1889 108.1889 108.3914
   108.3914 109.1762 110.7658 110.7658 110.9921 111.2203 112.0433 112.3067
   112.3067 112.4088 112.4443 112.4443 112.7450 113.0299 113.0299 114.2483
   114.2483 114.4177 115.0821 115.0821 115.7226 115.7523 115.7523 116.3470
   116.3470 116.3782 116.8130 117.4727 117.7234 117.7234 118.6291 118.6291
   119.0561 119.0561 119.4165 120.5219 120.5464 120.5464 120.9442 121.4602
   121.4602 122.2726 122.4495 122.5131 122.5131 123.3877 123.3877 123.5563
   123.8420 123.8420 124.0167 124.4080 124.4342 124.4342 124.8768 124.8768
   125.4446 125.4446 126.5732 127.5238 129.0075 129.0075 129.4146 129.4146
   130.4712 130.6420 131.3383 131.7458 131.8455 131.8455 131.9953 132.2370
   132.2370 132.4585 132.4585 132.5197 132.9344 133.8191 133.8191 133.9344
   135.0433 135.1228 135.1228 136.0104 136.0104 137.5255 137.5654 137.5654
   137.7510 138.2493 138.2493 138.6217 138.6217 138.8505 138.8505 139.4164
   139.5305 139.6226 139.6226 139.7305 140.1761 140.1761 140.5155 140.9398
   140.9398 141.8606 143.6397 143.7164 143.7164 144.0787 144.0787 146.3983
   147.2725 147.2725 147.4983 147.4983 147.8732 148.7733 148.7733 148.9299
   148.9323 148.9323 149.4077 149.7233 149.8614 149.8614 150.1945 150.3880
   150.3880 150.4407 151.1064 151.1064 151.1563 151.7439 151.7439 152.3998
   153.3800 153.7072 153.7072 154.5958 154.9459 154.9459 156.8696 156.8696
   157.0153 157.0801 157.0801 157.4510 157.5187 157.5552 157.5552 158.1580
   158.1580 159.1675 159.2854 159.6690 159.6690 159.8027 159.8123 159.8123
   160.3198 160.3198 160.3738 160.5614 160.9617 160.9617 162.2433 162.4414
   162.6468 162.6468 163.5104 163.5104 163.9763 165.2219 165.2219 165.2409
   165.7371 165.9890 166.1774 166.1774 166.5342 166.5342 167.2962 167.2962
   167.5960 168.1042 168.1042 168.2395 168.2395 168.5831 169.7180 169.7180
   170.5111 170.5111 170.5942 171.2160 171.6296 171.6296 171.9746 172.4163
   172.4163 172.7826 173.2913 173.3067 173.3067 173.6977 173.6977 174.5326
   174.5326 175.6066 176.0246 176.0246 176.2209 176.2971 176.4066 176.4066
   176.7646 176.7646 176.8601 177.3695 178.1701 178.1701 178.3079 178.6064
   178.6064 179.2748 179.4128 180.2274 180.2274 180.7011 180.7011 180.8163
   181.3174 181.3174 181.4509 181.8606 182.3481 182.3481 183.2975 183.4230
   183.4230 183.5105 183.6067 183.6067 184.2979 185.2793 185.3112 185.3112
   185.6523 186.1943 186.1943 186.3253 187.3949 187.5120 187.5120 187.8499
   187.8499 187.9503 189.4127 189.7224 189.7224 189.8281 190.4381 190.4381
   190.6770 190.6930 190.6930 191.0930 191.0930 191.7340 191.7340 191.8771
   192.0720 192.0720 192.3252 192.6895 193.1954 193.1954 193.4250 193.4877
   193.4877 193.7740 193.7740 194.3825 194.3825 194.6280 194.6807 194.6807
   195.0212 195.9993 195.9993 196.6015 197.2136 198.2296 198.9935 198.9935
   199.0972 199.0972 199.6270 200.3627 200.3627 200.9445 201.5632 201.5632
   202.1429 202.1798 202.1798 202.6697 202.6697 203.0713 203.0713 203.2062
   203.9389 204.0259 204.4840 204.4840 204.8539 205.1957 205.3056 205.3056
   205.4339 205.5601 205.5601 205.7657 205.7657 206.1833 206.2898 206.9340
   206.9686 206.9686 207.3579 207.3579 207.5798 208.2718 208.2718 208.4656
   209.3470 209.3470 209.9468 209.9468 210.2628 210.2628 210.5150 210.5403
   210.8523 210.8523 211.7890 212.7007 212.7120 212.7120 212.7236 212.7236
   212.9198 212.9198 212.9549 213.1918 213.3696 213.8302 213.8302 215.0017
   215.1320 215.1320 215.4828 217.6137 217.6137 217.9881 218.3136 218.3136
   218.3417 218.3504 219.2700 219.2700 219.7911 219.8111 219.8111 220.3103
   220.3103 220.6646 220.6646 220.8146 220.8146 220.9392 221.1751 221.3618
   221.5139 221.5139 221.8162 222.6290 222.6290 222.9605 222.9993 223.1490
   223.1490 223.4791 224.5447 224.5447 225.7853 225.7853 227.1132 227.1361
   227.1361 227.3444 227.3444 227.6791 227.6791 228.1568 228.3571 228.3571
   228.8542 229.1613 229.3375 229.3431 229.3431 229.9443 230.8116 230.8116
   231.3937 231.3937 231.5995 232.3589 232.3589 232.5938 233.9184 233.9184
   234.1784 234.4397 234.4397 234.4701 234.5003 235.2208 235.2208 235.2661
   235.2661 235.3153 235.4546 235.5086 235.6064 236.1128 236.1128 236.3894
   236.3894 236.4919 236.5139 236.6770 236.6770 238.4585 238.4585 238.9259
   238.9259 239.4224 239.7490 240.7287 240.7287 242.2654 243.6114 243.6114
   244.9108 244.9108 245.0993 245.0993 245.2227 245.3054 245.3054 245.3917
   245.3917 245.4258 245.7439 246.2572 246.2572 246.2893 246.5454 246.7122
   246.7360 246.7360 246.8528 246.8528 247.0741 247.1565 247.3794 247.3794
   247.4869 247.5994 248.0409 248.0409 248.3770 248.3770 248.7744 249.3481
   249.3481 249.5435 249.5435 249.8537 249.8537 250.0337 250.0528 250.8100
   250.8100 251.0143 251.4015 251.4066 252.2421 252.4634 252.4634 252.5344
   252.8295 252.8295 253.1812 253.1812 253.8250 253.8250 254.4171 254.8839
   254.8839 255.0813 255.3009 255.3009 255.4084 255.4084 255.4202 255.5197
   255.5197 255.9106 255.9554 255.9554 256.0609 256.1468 256.5914 256.5914
   256.6135 256.8152 256.8152 256.9057 257.2062 257.2062 257.3180 257.3180
   257.3595 257.4275 257.7012 257.7012 258.2437 258.5278 258.5278 258.7919
   258.7919 259.0910 261.4828 261.4828 261.9063 262.0245 262.0245 262.7275
   262.9955 262.9955 263.5304 263.9730 263.9730 264.4419 264.4419 264.7736
   264.7736 264.8065 265.3087 265.5786 265.8034 265.8034 266.0863 266.7736
   266.7736 267.0693 267.0693 267.8872 268.9212 268.9212 269.2285 269.2285
   269.5712 269.8586 269.9435 269.9435 270.1913 270.2192 270.2859 270.2859
   270.4948 270.4948 270.7016 271.2712 271.6432 271.7290 271.7290 272.3287
   272.3691 272.3691 273.3183 273.3183 273.6301 274.4382 275.0098 275.0098
   275.0458 276.0825 276.0825 276.1333 276.6665 276.6665 276.7586 276.7621
   276.7621 277.3229 277.3562 277.3562 277.8317 278.2850 278.2850 278.4584
   278.4584 278.6658 278.6658 278.6861 278.9946 279.6626 280.0780 280.3065
   280.3065 280.5338 280.8251 280.9247 280.9247 281.3254 281.3254 281.3295
   282.3217 282.3217 282.7653 282.7653 282.7952 282.9622 282.9960 282.9960
   283.2831 283.2831 283.6871 283.8852 283.8852 284.7375 284.9858 284.9858
   285.0372 285.0618 285.0618 285.2050 285.2050 285.8600 286.0757 286.0757
   286.5474 287.4178 287.5082 287.5082 287.6386 288.2730 288.7548 288.7548
   290.3988 290.3988 290.5124 290.7039 290.7039 290.7969 290.9350 290.9350
   291.0372 291.1097 291.1097 291.5562 291.8873 291.8873 292.6162 292.6162
   292.8682 293.0379 293.0612 293.2675 293.2675 294.1226 294.1226 294.1325
   294.3524 294.3524 294.6168 294.8908 295.0245 295.0245 297.1217 297.1217
   297.2540 298.2438 298.2438 298.3241 298.3779 298.6154 298.6154 298.9234
   298.9234 299.0746 300.4373 300.4439 300.4439 300.5035 301.1573 301.1573
   301.1644 301.3635 301.3635 301.5264 301.5490 301.5490 302.0056 302.0056
   302.2319 302.2319 302.2678 302.4087 303.3372 303.3686 303.3686 304.7486
   304.9197 304.9197 305.7523 306.1310 306.1310 306.2475 306.2475 306.4845
   306.5774 307.7714 307.7714 308.5299 308.5299 308.7308 308.8247 308.8247
   309.3472 309.3472 309.4290 309.4767 310.1303 310.1303 310.6742 310.6742
   311.5378 311.5773 311.5773 311.6664 311.6664 311.7356 312.0540 312.1194
   312.9044 313.2683 313.2683 313.7825 313.7825 314.2457 314.2737 314.2737
   314.6968 314.6968 315.0573 315.2033 315.3141 315.3141 315.5699 315.5699
   315.9956 316.0399 316.0399 316.0598 316.2186 316.2186 316.2298 316.3136
   316.4908 316.4908 316.6885 317.2059 317.2115 317.3323 317.3323 318.1769
   318.1769 318.3016 318.3016 318.5091 318.5730 318.5730 318.6364 318.8399
   319.5312 319.5437 319.5437 319.9434 320.2479 320.3579 320.3579 320.4181
   320.4181 320.5450 320.6486 320.6486 320.9927 321.5532 321.5532 321.6849
   321.8412 321.8412 322.2164 322.7144 322.7144 322.9248 326.2081 326.2081
   326.7734 326.7734 326.8456 326.9002 327.5280 327.5280 327.7936 327.7936
   328.0423 328.3690 328.3690 328.4190 328.6195 328.6195 329.2036 329.2247
   329.2247 330.6575 330.6575 330.7571 330.8032 330.8032 330.9125 330.9584
   330.9584 331.5572 331.5775 331.5798 331.5798 332.0585 332.7203 332.7203
   332.8310 333.0832 333.0832 333.9478 333.9478 334.1574 334.1574 334.1968
   334.1988 334.3224 334.6312 334.6312 334.7294 334.9481 334.9481 335.5617
   335.5617 335.6468 335.8521 335.8521 336.0469 336.1443 336.8965 336.8965
   336.9311 337.1680 337.1680 337.2399 337.2417 337.7031 337.7031 337.7489
   337.7489 337.7584 338.5975 339.5079 339.6691 339.6691 340.1079 340.1079
   340.7778 340.8669 340.8669 341.2563 341.2563 341.7162 342.8110 342.8110
   342.9933 343.5687 343.5687 343.8984 344.1239 344.1239 344.2164 345.3231
   345.3231 345.4034 345.7092 345.7092 345.9714 346.0470 346.0470 346.0908
   346.1084 346.1084 346.1971 346.2744 346.2949 346.2949 346.5532 346.5532
   346.6795 346.6795 347.1017 347.1017 347.1278 347.4133 347.6123 347.6123
   347.9312 348.1323 348.2285 348.2285 348.3229 348.5579 348.7037 348.7037
   349.2271 349.5411 349.5411 350.0189 350.0189 350.1209 350.1509 350.1509
   350.2059 350.3404 350.3573 350.3573 352.6873 352.6873 353.3353 353.3353
   353.5976 353.9657 353.9657 354.1459 354.1609 354.1609 354.1755 354.8501
   354.8542 354.8542 355.3878 355.6708 355.8256 355.8256 356.4363 356.4363
   356.5362 356.5692 357.3896 357.3896 357.7357 357.9593 357.9593 358.3258
   359.0875 359.1430 359.1430 359.6315 359.6315 359.6514 359.9441 359.9441
   360.4358 360.5590 360.5590 360.8945 360.9732 360.9732 361.0068 361.2278
   361.2278 361.3498 361.6585 361.6585 361.7949 362.2118 362.4645 362.4645
   362.6437 362.9774 362.9774 363.5964 365.2537 365.2537 365.5240 365.6441
   365.6441 365.6600 365.6600 365.7643 366.1130 366.1130 366.2133 366.2798
   366.3166 366.3166 366.4816 366.5141 366.5141 367.0012 367.1548 367.1548
   367.4365 367.4365 367.4467 367.9504 367.9504 368.0255 368.0255 368.0367
   368.2403 368.2403 368.2894 369.8792 369.8792 369.9685 370.5550 370.5550
   370.6560 371.0187 371.0187 371.1114 371.2708 371.2708 371.2858 371.3806
   371.4355 371.4355 371.7283 371.7283 371.7607 372.9027 372.9027 373.0131
   374.1689 374.1689 374.2995 374.4125 374.4125 374.6183 375.5351 375.5351
   376.5405 376.7755 377.4807 377.4807 377.6946 377.6946 377.7881 377.9172
   377.9172 377.9337 378.8400 378.8400 379.1203 380.2274 380.2274 380.5684
   380.6787 380.6787 380.8051 380.9231 380.9231 380.9807 380.9807 381.0139
   381.3583 381.3974 381.3974 381.4015 381.4324 381.5141 381.5141 381.5748
   381.5748 381.5751 381.6978 381.6978 381.8381 381.9008 381.9008 382.0455
   382.3777 382.3777 382.6617 382.6617 382.7291 382.7291 382.7342 382.7499
   383.1481 383.3283 383.3283 383.9701 384.4318 385.0148 385.0148 385.9635
   385.9635 385.9951 388.3347 388.3347 388.4670 388.5356 389.0174 389.0174
   389.1804 389.1804 389.3045 389.4933 389.4933 389.6476 389.9908 389.9908
   390.2062 390.4937 390.4937 391.0645 391.1637 391.1637 391.2572 392.1145
   392.1188 392.1188 392.2001 392.4103 392.4103 392.9838 393.0378 393.0378
   393.6744 393.6744 393.8187 393.9299 393.9299 394.2929 394.4380 394.4380
   394.9168 395.0159 395.0159 395.0949 395.1475 395.1632 395.1632 395.3364
   395.5873 395.6072 395.9470 395.9470 396.4484 396.4484 396.7850 396.8380
   396.8380 397.4849 397.4849 397.6286 398.3798 398.3798 398.4758 398.6021
   398.6021 398.9711 398.9711 399.0919 399.4552 400.7424 401.2362 401.2362
   401.3066 403.1269 403.1269 403.7156 403.7156 404.5168 404.7825 404.7825
   404.9557 404.9557 404.9707 405.3531 405.7508 405.8202 405.8202 405.8716
   405.9294 405.9294 406.2015 406.2412 406.2412 406.3457 406.7241 406.7241
   407.2917 407.2917 407.3802 408.6755 408.6755 408.8348 408.8348 408.8403
   409.0390 409.1387 409.5530 409.5530 410.0213 410.0213 410.1881 410.2188
   410.2188 410.4305 410.4305 410.6052 410.6509 411.1549 411.1549 411.4918
   411.4918 411.5233 411.7084 411.9163 411.9163 412.0000 412.4872 412.4872
   412.6570 413.3960 413.3960 413.4717 413.6578 413.6610 413.6610 413.7707
   413.9104 413.9104 414.6327 414.6327 414.8325 415.0020 415.3517 415.3984
   415.3984 415.6711 415.6711 415.8001 415.8943 415.8943 416.1265 416.4617
   416.4617 417.0111 417.0111 417.1068 417.1068 417.1429 417.1637 417.5386
   417.6914 417.6914 419.0185 419.5529 419.6486 419.6486 419.7966 419.8481
   419.8481 420.7663 420.7663 420.9607 420.9607 421.1337 421.1337 421.1992
   421.4156 421.4156 421.5182 421.5532 423.2214 423.2214 423.2374 423.5028
   423.7549 423.7549 425.0178 425.2322 425.2322 425.7401 425.7401 425.9145
   425.9145 425.9712 426.0497 426.0497 426.1736 426.3716 426.3755 426.3755
   426.7717 426.8675 426.8675 427.8984 427.8984 428.0654 428.8545 428.9666
   428.9666 429.2828 429.2828 429.3564 429.6260 430.1113 430.1113 430.5219
   430.5219 430.6522 430.9411 431.0999 431.0999 431.4481 431.7822 431.7822
   431.7937 432.5405 432.5405 432.7434 432.7434 432.8107 432.8800 433.0544
   433.0544 433.2280 433.2796 433.3930 433.3930 433.4762 433.4762 433.5449
   433.6948 433.6948 433.7838 433.7838 433.8742 433.9740 433.9740 434.0210
   434.1998 434.2073 434.2108 434.2108 434.4249 434.4275 434.4275 434.4397
   434.4397 434.8918 435.9857 436.0004 436.0004 436.2481 436.2481 436.3807
   436.3807 436.4274 436.4803 436.4803 436.4957 436.6739 436.7425 436.7425
   436.7983 437.8584 437.8584 438.0116 438.1147 438.5624 438.5624 438.6479
   439.9913 440.0282 440.0282 440.0536 440.1163 440.1163 441.7108 442.0941
   442.0941 442.3571 442.3971 442.3971 442.4163 443.1584 443.1584 443.3603
   443.3603 443.4456 443.4466 443.8911 443.8911 443.9006 443.9531 443.9531
   444.3968 444.9895 444.9895 445.2544 445.4466 445.4466 445.4878 447.5698
   447.5698 447.8564 448.8465 448.8465 449.1263 449.3443 449.3443 449.4979
   449.6570 449.6570 449.7051 450.4126 450.4126 451.0878 451.2377 451.2377
   451.7150 451.7150 451.8062 452.2399 452.2399 452.3234 452.3406 452.3406
   452.4656 452.5523 452.5523 452.9349 453.0040 453.0040 453.3404 454.2346
   454.5032 454.5032 454.7710 454.7710 455.1812 455.5290 455.5290 455.6689
   455.8615 455.8615 455.9081 456.0872 456.0872 456.0990 456.2915 456.2915
   456.3263 456.6503 456.8206 456.8541 456.8541 456.9345 456.9345 457.0795
   457.0795 457.0897 457.5824 457.6042 457.6042 457.7490 457.7490 457.8475
   458.8023 458.8023 459.1622 459.1622 459.2768 459.3786 459.4432 459.4432

          k = 0.5000-0.5000 0.5000 (  3498 PWs)   bands (ev):

   -28.2861 -28.2861 -28.2731 -28.2730 -28.2730 -27.8374  -9.9268  -9.8172
    -9.8172  -2.4460   4.1214   5.8193   5.8193  10.7222  12.0309  12.2182
    12.2182  13.5038  13.5038  14.6474  14.6474  15.7707  17.5868  17.5868
    18.9578  19.1662  22.3697  22.3697  23.2463  24.1182  24.5820  24.5820
    27.1845  27.1845  28.1682  28.6037  28.7427  28.7427  28.8232  31.8098
    31.8098  32.6852  33.8058  34.2247  34.2247  34.6546  34.6546  35.2302
    36.0341  36.9025  36.9025  37.5337  40.1105  40.1105  40.1721  40.1721
    41.6670  41.6670  42.6486  45.7855  45.7855  45.8817  46.2499  47.0697
    47.0697  47.0844  47.0844  47.1461  47.6804  47.7021  47.7021  47.7898
    49.2993  49.2993  50.4695  50.9572  52.8692  52.8692  53.0902  54.5016
    54.5016  56.1082  56.1082  56.5832  56.5832  56.8513  57.4011  57.4011
    57.6643  57.7769  58.7019  59.2333  60.9275  60.9275  61.7720  62.4966
    62.4966  63.8253  63.8314  64.0561  64.0561  66.5041  66.5041  66.6713
    66.7957  66.7957  68.7204  68.7204  69.2202  69.3551  69.4027  69.4027
    70.3360  70.3923  70.3923  71.6098  71.9403  71.9403  72.0036  72.1115
    72.1961  72.1961  73.8058  73.8058  74.8429  76.3589  76.3589  77.2592
    77.3739  77.4700  77.4700  79.0261  79.0261  79.0815  80.4352  80.4352
    80.6898  80.6898  81.0917  81.9614  81.9614  82.1011  82.3209  82.3539
    82.3539  83.0133  84.4337  84.4571  84.4571  85.7583  85.7583  86.2709
    86.2709  86.5182  87.7245  88.0157  88.0659  88.1655  88.1655  88.3220
    89.0316  89.0316  89.8814  89.8814  92.3682  92.5292  93.1291  93.1291
    93.5115  93.5115  94.6376  94.7890  94.7890  94.9781  95.1793  95.2217
    95.2217  97.3856  98.0253  98.0253  98.2565  98.2565  99.2295  99.8867
    99.8867 100.3308 100.4166 100.7330 101.3119 101.3119 101.3522 103.3789
   103.3789 103.4217 103.4217 104.3108 104.4642 104.4642 105.1290 105.1290
   105.2077 105.3033 106.2003 106.4474 106.4474 106.8674 106.8674 108.0363
   108.3354 108.3354 108.7306 108.7306 109.0360 109.1289 109.1289 111.0634
   112.0846 112.1853 112.1853 112.2342 113.3641 113.3641 113.7058 113.7058
   114.7522 114.7522 114.9025 115.2924 115.3721 115.3980 115.3980 115.5753
   115.5753 116.0670 116.0670 117.0076 117.0626 118.1671 118.1671 118.4516
   118.4516 118.8996 118.9113 119.2866 119.5608 119.5608 120.8318 121.1154
   121.1154 121.3251 122.2311 123.0944 123.0944 124.7918 124.7918 125.7789
   125.8993 125.8993 126.2557 126.4121 126.6421 126.6421 127.1749 127.1749
   127.3005 127.3383 127.3383 127.4235 127.4235 127.5578 127.6769 127.9580
   128.1998 128.6099 128.6099 128.7196 128.7196 129.4155 130.4780 130.4780
   130.5868 130.9882 130.9882 133.1765 134.3359 134.3359 135.5976 138.3194
   138.3194 138.5335 138.5335 139.2268 139.2268 139.3885 139.3885 139.4575
   139.5561 139.7566 139.7684 139.8397 140.2884 140.2884 140.5907 140.8651
   140.8651 141.1009 141.1009 141.1761 142.7161 143.1411 143.6054 143.6054
   143.7570 144.0046 144.1466 144.1466 144.4328 144.4328 144.5089 144.5089
   144.5892 145.2314 145.3436 145.3436 145.7701 145.9588 145.9588 146.2899
   147.1205 147.1205 149.3265 149.3265 149.3515 149.3515 149.8244 149.8244
   150.6589 150.6617 151.7668 151.7668 152.6157 153.9897 153.9897 154.0083
   154.5956 154.5956 154.7217 154.7217 155.3433 155.5511 155.5511 155.7594
   155.7627 155.7627 156.0316 156.0316 156.1895 156.2210 156.2210 156.4715
   157.2688 157.3270 157.7942 157.7942 158.0306 158.0428 158.0428 158.2639
   158.7187 159.3298 159.3298 159.6088 159.6088 159.8717 161.0621 161.0621
   161.5405 161.5405 161.8363 161.9937 162.3736 162.3736 165.0681 165.1473
   165.4807 165.4807 165.8623 165.8623 166.8696 166.8696 167.0636 167.0636
   167.4251 167.4629 167.5401 167.7587 167.7587 169.0822 169.5367 169.5367
   169.9934 170.4439 170.8124 170.8124 171.0717 171.2925 172.1510 172.1510
   172.6872 172.6872 173.1440 173.3634 173.6864 173.6864 173.8454 173.8486
   173.8486 173.8664 175.4668 175.4668 175.5968 175.5968 175.6510 175.9213
   176.4642 176.4642 176.6572 176.7316 176.7630 176.7630 177.4079 177.8346
   177.8536 177.8536 178.8810 178.8810 179.9556 179.9556 180.3711 180.3711
   181.5543 181.5543 182.2964 182.6417 182.9004 182.9004 184.0988 184.0988
   184.9500 185.0785 185.0785 185.3036 185.3036 185.4678 186.8741 186.8741
   187.6584 187.6749 187.6749 187.7246 187.9075 188.0564 188.0564 188.3513
   189.4022 189.4022 189.4812 189.5235 189.5235 189.6717 189.9301 189.9301
   190.1648 190.1648 190.5708 190.6130 190.6428 191.5659 191.5659 192.1241
   192.1241 192.1247 193.6305 193.6305 193.6476 193.8200 194.1794 194.1794
   195.3847 195.3847 197.1878 197.2727 197.8298 197.8298 198.0045 198.0560
   198.0560 198.6439 198.8032 198.8032 198.8133 198.8639 199.1950 199.1950
   199.2580 199.2580 199.6650 199.6650 199.7885 199.7885 200.1002 200.1991
   200.8975 201.3095 201.5771 201.5771 201.7895 201.7895 202.1695 202.3865
   204.0429 204.2190 204.4482 204.4482 204.6825 204.6825 204.9485 204.9485
   205.1018 205.1018 205.8756 205.8941 206.1206 206.4376 207.1478 207.1478
   207.1495 207.1495 207.3644 207.3644 207.3861 207.3861 207.9145 207.9284
   210.9658 210.9658 211.6981 211.7354 211.8093 211.8093 211.8500 211.8500
   212.5295 212.5295 212.9666 213.2887 213.4865 213.4865 213.8512 213.8512
   214.2456 214.2481 214.2565 214.2565 214.5299 214.5299 215.0706 215.8940
   215.8966 215.9803 215.9803 216.0998 216.0998 216.4004 217.4660 217.4660
   217.9883 217.9883 218.3335 218.8624 219.0068 219.0794 219.0794 219.2475
   219.2475 219.7581 220.7146 220.7146 220.8601 220.9345 220.9345 221.0511
   221.7316 221.7316 221.9296 221.9296 222.6004 222.6851 222.6944 223.0542
   223.4633 223.4633 223.5590 223.5590 223.8559 223.8559 223.9222 223.9222
   223.9612 225.1462 227.2802 227.2802 227.8137 227.8905 227.8905 227.8905
   228.4189 228.4189 228.4422 228.4422 229.6155 229.6886 230.0764 230.0764
   230.1733 230.1748 230.2570 230.2570 230.3223 231.9125 231.9125 231.9133
   231.9133 232.2670 232.3304 232.3304 232.4895 232.5491 232.6829 232.6829
   235.0597 235.0748 235.9292 235.9292 235.9292 235.9292 236.1801 236.1808
   239.4883 239.4883 239.5977 239.5977 241.4604 241.4604 241.4687 241.4687
   242.3630 242.6434 242.6849 242.6849 242.7570 242.8692 242.8692 242.9681
   242.9768 242.9768 243.1553 243.3532 243.3532 243.7288 243.8311 243.8311
   244.1195 244.1195 244.3212 244.5442 244.5442 244.5446 244.5659 244.5659
   244.7258 244.9764 246.4971 246.4971 246.5844 246.5844 246.8058 246.8983
   246.9487 247.0016 247.0865 247.0865 247.1874 247.1874 247.4129 247.4129
   247.5975 247.5975 247.9998 248.0176 248.0474 248.5329 248.5329 248.5960
   248.5960 248.8387 249.4962 249.4962 249.5153 249.5153 249.6099 249.6435
   251.5805 251.5805 251.6321 251.8544 251.8544 252.2573 254.9436 254.9436
   255.0548 255.0548 255.4110 255.4807 256.2243 256.2243 256.8118 256.8118
   257.2982 257.9830 257.9916 258.0274 258.2722 258.2722 258.3636 258.3636
   258.7641 258.7641 258.9376 258.9376 259.0818 259.1583 259.1705 259.6753
   259.6753 259.8842 260.0462 260.0462 260.8461 260.8461 260.9846 260.9846
   261.1243 261.3376 261.4923 261.7691 262.2076 262.2076 262.5975 262.5975
   263.2609 263.2609 263.4004 263.4353 263.5871 264.0473 264.1373 264.1373
   265.9402 265.9402 266.0642 266.0642 266.6348 266.7995 266.9640 266.9640
   267.2277 267.2277 267.5530 267.5627 268.2751 268.2751 268.9714 268.9714
   269.0677 269.0677 269.4186 269.4186 269.6970 269.9438 271.3101 271.3101
   271.3746 271.9398 272.3107 272.3107 272.4971 272.4971 272.8706 273.4742
   273.8017 273.8017 274.3728 274.3728 274.6319 274.6319 275.1409 275.2148
   275.2148 275.2263 275.2263 275.2492 275.2901 275.6685 275.6685 275.7064
   275.7064 275.9916 276.0147 276.1190 276.7024 276.7024 276.9392 276.9392
   277.0058 277.1178 277.3811 277.3811 278.4521 278.4521 279.4640 279.5648
   279.6222 279.6222 279.9484 279.9484 280.8353 280.8777 280.8777 280.9099
   280.9314 280.9314 282.1811 282.6491 285.1396 285.1498 285.4299 285.4299
   285.6510 285.6510 285.7214 285.7214 285.8240 285.8498 285.9091 285.9091
   286.1043 286.1043 286.2751 286.2751 286.7067 286.7355 288.0297 289.2440
   289.2440 289.3769 289.5721 289.5758 289.5758 289.5828 289.5946 289.5946
   290.2722 290.2722 291.6861 291.6861 291.8144 291.8144 291.9121 291.9196
   292.2179 292.2578 292.2578 292.4125 292.4530 292.4530 293.7461 293.7461
   294.5413 295.1594 295.1594 295.6245 295.6245 295.7229 295.7229 295.8019
   295.8019 295.9750 295.9755 296.5678 296.9735 297.0637 297.0637 297.3593
   297.4717 297.5847 297.6071 297.7813 298.0536 298.0536 298.0667 298.0667
   300.6297 300.6297 301.0035 301.0726 301.0726 301.2127 301.5793 301.5793
   301.7569 301.7569 302.0556 302.0815 302.3236 302.3236 302.5726 302.7797
   302.7840 302.7840 303.1939 303.2483 303.2483 303.4002 303.4002 303.4178
   303.5034 303.5034 303.6074 303.6074 304.0296 304.0489 304.1325 304.1429
   304.4262 304.4262 304.4634 304.4634 307.4007 307.4007 307.7891 307.7891
   307.8924 307.9118 308.2658 308.2658 308.4503 308.4503 308.5806 308.5817
   309.0821 309.0821 309.5107 310.9453 310.9453 311.7085 312.6878 312.6878
   313.6654 313.6730 313.7079 313.7079 313.7785 313.7785 314.2200 314.2200
   314.3254 314.3254 314.3409 314.3409 314.4911 314.4931 314.5072 314.9179
   314.9179 315.2059 315.2059 315.3126 315.3228 315.5141 315.9967 316.9132
   316.9132 317.2409 317.6362 317.6362 317.8836 317.8836 318.0586 318.0586
   318.1075 318.7711 319.0590 319.1500 319.2780 319.2985 319.2985 319.3590
   319.3590 319.6965 319.6965 319.7362 319.7362 319.8517 319.9404 319.9810
   319.9810 320.0001 320.1557 320.3898 320.4706 320.4706 321.5645 321.5645
   321.9319 322.0327 322.0327 322.4987 322.4987 322.5912 323.3628 323.3628
   325.7712 325.7712 326.3714 326.3714 326.5912 326.6850 326.9933 326.9933
   327.3168 327.3168 327.4481 327.4675 328.1058 328.1058 328.1318 328.1318
   328.4671 328.4671 328.5328 328.5328 328.6453 328.6462 330.1322 330.1324
   330.5372 330.5372 331.1947 331.1947 331.6785 331.9676 331.9676 332.8508
   333.1552 333.2270 333.2270 333.2448 333.2448 333.3251 333.7016 334.0371
   334.0371 334.2496 334.2496 334.6244 334.9511 334.9511 335.0899 335.1175
   335.1175 335.2321 335.3230 335.3230 335.5550 335.6945 335.7295 335.7295
   335.9188 335.9188 336.0755 336.0912 336.4578 336.5316 336.5316 336.6364
   336.6364 336.6450 337.5652 338.2537 338.5392 338.5392 339.0689 339.0689
   339.1389 339.3405 341.0903 341.0903 342.5944 342.5944 343.6347 343.6347
   344.1231 344.1639 344.1639 344.2946 344.3866 344.4180 344.6458 344.6458
   345.1148 345.4347 345.4347 345.6285 345.6726 345.6726 345.6855 345.6855
   345.7644 345.8351 345.9837 345.9837 345.9916 345.9916 346.0337 346.0690
   346.3857 346.3857 347.2477 347.2477 347.3360 347.3360 347.5339 347.5801
   347.7473 347.7473 347.7839 347.7839 347.8514 347.8514 347.8556 347.8556
   347.8603 348.0075 348.1867 348.1867 348.2722 348.2722 348.7546 348.7980
   348.7980 348.8007 349.2243 349.5799 349.6054 349.6054 349.6163 349.6165
   349.6453 349.6453 352.8533 352.8533 353.2122 353.2122 353.2857 353.3012
   356.9365 356.9365 356.9808 357.7176 357.7176 358.1652 358.1652 358.6689
   358.6752 358.6752 358.7476 358.7548 358.8355 359.2779 359.2779 359.7776
   359.7776 359.8231 359.8296 359.8296 359.8991 359.8991 359.9041 359.9295
   360.1199 361.3771 361.3771 361.5692 361.9459 361.9459 361.9895 361.9895
   362.1301 362.1301 362.2177 362.3199 363.1844 363.1844 363.3736 364.1278
   364.1278 364.4557 364.6159 364.6159 364.6991 365.1438 365.1438 365.4231
   365.4231 365.6103 365.6715 365.6727 365.6767 365.6767 365.7272 365.7272
   365.7823 367.3254 367.8514 367.8514 369.5995 369.5995 369.8249 369.8249
   370.0707 370.1463 370.5119 370.5119 370.6989 370.7137 370.8038 370.8038
   371.6170 371.6170 371.7083 371.7083 371.9452 372.0194 372.9037 374.1003
   374.1003 374.2880 374.4136 374.4136 374.4252 374.5063 374.5063 374.6590
   374.6590 374.7208 374.7294 374.7369 374.7369 374.7939 375.3714 375.3714
   375.6096 375.9093 375.9141 375.9141 376.3667 376.4835 376.4835 376.5556
   376.9641 376.9641 377.4518 377.4518 377.6113 377.6113 378.1820 378.1820
   378.4376 378.4421 379.7885 379.9016 380.3815 380.3815 380.4324 380.4386
   380.4503 380.4503 380.4601 380.4601 380.5798 380.5798 381.4380 381.4402
   381.5576 381.5576 381.7861 381.7861 381.7943 381.8052 381.9243 381.9243
   382.2865 382.3636 382.3636 382.4328 382.4328 382.4736 382.5078 382.6575
   382.6575 382.7825 384.5166 384.5166 384.7746 384.7746 385.0506 385.0551
   385.3719 385.4655 385.4963 385.4963 385.5011 385.5011 388.0402 388.0402
   388.0942 388.0942 388.3021 388.3021 388.4503 388.4503 388.4588 388.4799
   388.8604 388.8604 389.1274 389.1274 389.1702 389.1702 389.2872 389.2901
   390.0294 390.2917 390.2917 390.3153 390.3153 390.4383 390.8924 390.8924
   391.0200 391.1411 392.1422 392.1422 393.0824 393.2240 393.2240 393.3591
   393.8199 393.8199 393.8822 393.8822 393.9335 393.9428 394.0740 394.0740
   394.2572 394.2742 394.3491 394.3491 394.3546 394.3546 394.3971 394.3971
   394.4789 394.4795 394.9323 395.8285 395.8285 396.1972 396.1972 396.3080
   396.3295 396.7216 396.7216 396.8248 397.0788 397.0788 399.1427 399.1427
   400.6587 401.0321 401.0321 401.3068 401.3615 401.3615 401.5026 401.5026
   401.6768 401.6768 401.8370 401.8374 402.2760 402.2760 402.3958 402.4943
   403.4700 403.4700 403.8416 404.0417 404.0417 404.3237 404.3237 404.3917
   404.5301 404.5301 404.5510 404.5510 404.6578 404.6695 404.9039 405.1728
   405.1728 405.2333 405.2388 405.2388 405.4717 405.4717 405.5317 405.5353
   406.0078 406.1533 406.1533 406.1703 406.2609 406.2609 406.6427 406.8996
   406.8996 407.0231 407.0926 407.0926 407.5978 407.5978 407.6909 407.6909
   407.8762 407.8786 411.8371 411.8371 411.8544 412.3919 412.3950 412.3950
   412.5257 412.7276 412.8199 412.8199 412.8852 412.8852 413.4669 413.4669
   414.7683 414.8897 414.8897 415.9642 415.9642 416.0174 416.2517 416.2517
   416.3145 416.3261 416.5064 416.5064 416.5893 416.6410 416.8747 416.8747
   416.8801 416.8801 417.0995 417.1674 417.1832 417.1832 417.7136 418.7460
   418.7460 418.9812 419.0200 419.3357 419.3357 419.4519 419.5479 419.5479
   419.6816 419.6816 419.8076 419.8302 420.1953 420.1953 420.6299 420.6867
   420.7259 420.7259 420.8245 420.8245 421.2710 421.2710 421.3781 421.3781
   421.4220 421.4302 421.6184 421.6184 421.7671 422.1208 424.5447 424.5447
   425.1799 425.1799 425.2107 425.2107 425.3195 425.3842 425.4099 425.4521
   425.5205 425.5205 427.7558 427.7558 427.7850 427.8335 427.8335 427.8534
   427.9992 428.4630 428.4630 428.8266 428.8266 428.8457 428.9163 428.9163
   428.9970 429.0147 429.0147 429.0162 430.2712 430.4661 430.4661 430.8812
   430.8812 431.1523 432.6517 432.8967 432.8967 433.2362 433.2362 433.4372
   433.4551 433.5116 433.5116 433.5920 433.5920 433.6146 434.6765 435.0966
   435.0966 435.3107 435.4571 435.4571 435.6052 435.6052 435.6537 435.7617
   435.8947 435.8947 435.9119 435.9298 435.9298 436.0432 436.0432 436.1250
   437.6934 438.3549 438.3549 438.4724 438.5296 438.5296 438.7026 439.0202
   439.0202 439.2664 439.4953 439.4953 439.5083 439.5577 440.8710 440.8710
   440.8736 440.8736 441.2434 441.2434 441.2606 441.3034 441.3225 441.3225
   441.3323 441.3349 441.6277 441.6277 441.6665 441.6665 441.8269 441.8270
   442.0121 442.0121 442.4577 442.4577 443.3684 443.3684 443.4564 443.5252
   443.5467 443.5467 443.8238 443.8238 444.1327 444.1327 444.1404 444.1759
   444.7142 444.7142 444.9341 445.1740 445.1740 445.2080 445.2080 445.2615
   445.3901 445.4132 445.4132 445.4530 445.6770 445.6770 445.7340 445.8024
   445.8024 445.8338 447.6857 447.6857 447.6991 447.6991 447.7349 447.7475
   447.7475 447.7660 447.8301 447.9177 447.9177 447.9199 447.9199 447.9880
   447.9880 448.0294 450.2134 450.2134 450.4767 450.7374 450.8465 450.8465
   451.1787 451.1787 452.6007 452.6007 452.9892 453.2027 453.2027 453.2456
   455.3581 455.3581 455.4723 455.4723 455.5062 455.5062 455.5693 455.5693
   455.7772 455.7772 455.7826 455.8176 457.4136 457.4136 458.1484 458.1944
   458.1944 458.2248 458.6279 458.6279 459.0099 459.3800 459.3800 459.5347
   459.7670 459.7670 459.8526 459.9773 459.9773 460.0017 460.1189 460.1189

          k = 0.0000 0.3333 0.0000 (  3539 PWs)   bands (ev):

   -28.2865 -28.2860 -28.2732 -28.2731 -28.2731 -27.8395  -9.8377  -9.8204
    -9.8204  -2.8755   5.6340   6.5827   6.5827   9.6530  10.3431  11.0019
    11.0785  11.0785  12.6267  15.4867  16.1606  16.8182  16.8182  19.1457
    20.6239  20.6239  21.1605  21.6518  24.3626  25.0100  25.6832  25.6832
    25.8369  26.8937  26.8937  29.8205  29.8205  30.5674  30.6126  31.5625
    33.0884  33.5847  33.5847  33.8761  33.8761  33.9730  34.3322  35.1736
    35.9376  35.9376  36.0942  36.4050  37.7929  38.6812  38.9550  40.6298
    40.6298  41.6943  41.7611  41.7611  42.0896  43.3572  43.3572  44.3318
    45.1502  45.1502  45.8098  46.8263  48.0966  48.0966  48.3250  50.5706
    50.9932  52.1075  53.5785  53.5785  54.4506  55.2851  55.5684  55.5684
    55.9777  56.8651  57.8859  57.8859  58.3862  58.9031  58.9031  59.4507
    59.9575  60.4702  60.4702  60.5404  61.4742  61.4742  62.0603  62.2002
    63.8342  64.3418  64.4875  64.8660  65.4371  65.4371  65.5063  65.8039
    65.8039  66.3039  66.6826  67.6823  67.6823  68.0271  68.2730  69.4668
    69.4668  69.9309  70.7626  71.0934  71.0934  71.4845  71.4845  72.7490
    72.9666  73.2751  73.5580  73.5580  74.1338  74.4305  75.1553  75.1553
    75.5544  75.5700  75.5700  76.0631  76.4155  76.8447  77.9705  77.9705
    79.3826  79.6360  80.9066  81.2531  81.2531  82.4206  82.4206  82.8001
    83.4726  83.9499  84.2380  84.2380  84.5865  85.0818  85.1645  85.7019
    85.8511  86.2967  86.2967  87.0110  87.3915  87.3915  87.7523  87.9172
    88.6721  88.6721  90.0208  91.2890  91.9528  91.9528  92.0606  92.9931
    93.7265  93.7265  94.0824  94.6370  94.6370  94.7416  95.0553  95.3211
    95.8903  96.9305  96.9305  98.5592  98.5592  99.3178  99.6328 101.0716
   101.0716 102.5893 102.7821 103.2731 103.2731 103.7081 103.7206 103.8052
   104.0534 104.0534 104.5473 104.9435 104.9435 105.3052 106.7459 106.7459
   107.3565 107.6477 108.1182 108.3898 108.9908 108.9908 109.5025 110.2152
   110.2152 110.2951 110.5145 110.6179 110.6179 110.8555 110.9471 111.6255
   111.8432 111.8432 112.4110 112.5541 112.5541 112.5544 112.8582 113.1582
   113.1582 113.7691 114.0056 114.8374 114.8374 114.8629 115.9031 116.1598
   116.1598 116.8583 117.1413 117.1413 117.6321 118.7765 118.7765 118.9430
   119.4612 119.8658 120.0464 120.8519 120.8519 120.8767 121.0486 121.1150
   121.9709 121.9709 123.1825 123.5827 123.6263 124.1756 124.1756 124.1763
   124.4601 124.4601 124.6285 124.9285 125.1056 125.1844 125.2794 125.2794
   125.9709 125.9709 126.2978 126.8233 127.1709 127.4659 127.8980 127.8980
   128.3993 128.8308 129.4225 129.4225 129.6427 129.6427 129.6767 129.9324
   130.2638 130.2638 130.3809 130.8374 131.8653 132.2006 132.7626 132.7626
   133.5414 133.5414 134.4117 134.5770 134.5870 134.7514 134.7514 135.3339
   135.6594 135.8061 135.8061 136.9792 138.0156 139.2409 139.3478 139.3478
   139.7254 139.7254 140.2169 140.3806 140.3806 140.6581 140.6896 141.9341
   142.3277 142.8659 142.8659 143.9719 144.8026 144.8026 145.7997 146.3001
   146.3001 146.6659 147.0268 147.1683 147.3919 147.3919 148.2078 148.3793
   148.4742 148.6421 148.6421 148.8861 148.9329 149.1402 149.1402 149.6253
   149.8684 150.0495 150.2013 150.2013 150.5573 151.6264 151.6264 151.8019
   151.8019 151.9060 152.3445 155.0167 155.6331 155.6331 156.0186 156.9402
   156.9402 157.5476 157.9277 158.0317 158.9715 159.0153 159.0153 159.2379
   159.3953 159.4448 159.4448 159.7091 160.1385 160.1385 160.2657 160.9302
   160.9302 160.9582 163.3897 163.8392 164.1292 164.1292 164.4387 164.9719
   165.2486 165.6758 165.8010 165.8010 166.2346 166.2647 166.5250 166.5250
   167.0772 168.2238 168.2238 168.7314 169.6087 169.6101 169.7375 169.7375
   169.9104 169.9104 170.5173 170.6555 170.6555 170.8500 170.9537 170.9537
   171.0113 171.2252 171.4944 172.2778 172.2778 172.4430 172.5293 172.7097
   173.5238 173.9661 173.9661 173.9911 174.0862 174.0862 174.1013 174.2567
   174.8472 175.4267 175.4267 175.5630 175.7205 175.8943 175.9497 175.9497
   176.8245 177.0136 179.1114 179.5379 179.5379 179.5471 179.6192 180.0351
   180.0351 180.0849 180.5616 180.5616 180.6588 181.7461 181.7461 181.7714
   181.8914 181.9173 182.1283 182.1283 182.3751 182.5340 182.6537 182.6537
   182.6715 182.8811 182.8811 183.1934 184.0568 184.0568 184.1400 184.2958
   184.4316 184.6310 184.6310 185.3110 185.5752 185.8373 185.8623 185.8623
   186.4140 186.4293 186.4293 187.0272 188.1553 188.1553 188.2964 188.6134
   188.6134 188.7630 188.7803 189.0192 190.4748 190.4748 190.5471 190.9928
   191.0999 191.3490 191.4623 191.4623 191.8264 192.0378 192.0378 192.6394
   192.6602 193.4583 193.4873 193.6179 193.6179 193.6873 193.8516 193.8516
   194.5294 195.1842 195.1842 195.9407 196.2012 196.4931 196.4931 197.2806
   197.2806 197.3398 197.4676 198.1699 198.1716 198.1716 198.8583 199.1907
   199.1907 199.3580 199.9854 200.1522 200.1666 200.3520 200.3520 200.5237
   201.1459 201.1459 201.3665 202.8602 203.1195 203.1195 203.5429 203.5429
   203.6581 204.2773 204.2881 204.2881 204.3004 204.8998 205.0944 205.2316
   205.4306 205.7488 205.7488 207.2561 207.2561 207.3520 207.9350 208.4885
   208.9955 209.7619 209.8431 210.1552 210.1552 211.1831 211.3513 212.0710
   212.0710 212.3989 212.5755 213.1505 213.1505 213.3459 213.6934 213.7704
   213.7704 214.0179 214.0179 215.3542 215.5239 215.6170 215.6727 216.7344
   216.7344 217.0623 217.6004 217.6004 217.8322 218.0787 218.0787 218.1018
   218.2676 218.5525 218.5525 218.8343 219.2949 219.3777 219.6423 219.9377
   219.9377 220.7434 220.7434 220.8849 221.1721 221.4375 223.3753 223.4414
   223.4414 224.3624 224.4224 224.4224 224.5564 225.6836 226.3610 226.3610
   226.5521 226.9694 227.2214 227.2214 227.2309 227.3457 228.5020 229.6952
   229.7052 230.0347 230.0347 230.7332 230.7332 230.7454 231.8734 231.8734
   231.8859 232.7165 232.7544 232.9511 232.9511 233.2224 233.2856 233.3478
   233.3478 233.6905 233.6905 233.6979 234.0018 234.0018 234.0558 234.0605
   234.1244 234.2896 234.2896 234.3521 234.6163 234.6163 234.8643 235.2276
   235.3809 235.7136 235.9156 235.9156 236.1463 236.2092 236.2272 236.2272
   236.5556 236.7167 236.8865 237.0346 237.0346 237.4280 237.4470 238.5711
   238.5711 238.8824 240.1255 240.2086 240.2086 240.2879 240.7009 241.3451
   241.4082 241.4082 241.4481 241.7228 241.8390 241.8390 242.3531 242.3531
   242.7192 242.8419 242.8419 243.2185 243.4849 243.6940 243.6940 243.9477
   244.3857 244.3857 244.8348 244.9064 245.5949 245.6880 246.1739 246.1739
   246.1794 246.4340 248.2705 248.6508 248.7576 248.8816 248.8816 249.2044
   249.9800 250.1685 250.1685 250.7022 250.7022 251.4596 251.4596 251.5427
   251.5943 252.4388 252.9776 252.9995 252.9995 253.0139 253.6295 253.8697
   253.8697 254.1968 254.1968 254.3263 254.3779 254.6504 255.2951 255.2951
   255.4455 255.4455 255.7562 255.9467 256.3579 256.3579 256.4591 257.4650
   257.4913 257.8709 258.3820 258.3954 258.3954 258.4372 258.4372 258.4636
   258.6176 258.6459 259.2779 259.3226 259.3226 259.4237 260.3885 260.3977
   260.4021 260.4021 260.6520 260.6520 260.8031 261.1859 261.5161 261.5161
   261.6619 261.6619 261.8098 261.9883 262.4133 262.4133 262.4638 262.7373
   263.0831 263.0910 263.0977 263.0977 263.1035 263.2521 263.2521 263.4955
   263.8780 265.3661 265.5149 265.5149 266.1466 266.2984 266.5351 266.5351
   266.6517 266.7836 266.7836 266.9148 267.0317 267.3277 267.4684 267.4684
   267.6120 268.0162 268.8917 268.9746 269.2821 269.2821 269.7524 269.8339
   269.8339 269.9538 270.0702 270.7416 270.7416 271.2684 271.2926 271.5536
   271.5536 271.9020 271.9020 272.0155 272.0360 272.4810 272.5829 273.0915
   273.0915 274.1458 274.4407 274.4754 274.4754 274.5940 274.5997 274.6064
   274.6064 274.8047 275.5163 275.5163 275.6262 276.6471 277.0468 277.0468
   277.1426 277.7242 278.3629 278.8064 279.0761 279.0761 279.1932 279.2117
   279.3505 279.3505 279.5666 280.0158 280.0158 280.1807 280.2611 280.3724
   280.6445 280.6445 280.9132 281.2171 281.2171 281.4721 281.8602 281.9141
   281.9141 282.4292 282.4702 282.5632 282.5632 283.0176 283.0504 284.1031
   285.0795 285.0795 285.4119 285.4119 285.5892 285.6332 286.0434 286.0434
   286.3825 286.5382 286.8560 286.8560 286.9255 286.9619 287.1145 287.3873
   287.3873 287.6027 287.7954 287.9866 287.9866 288.2721 288.3693 288.5308
   289.8964 289.8964 290.3702 292.0143 292.0143 292.2007 292.2285 292.2818
   292.2818 292.4574 292.5021 292.6496 292.6937 292.6937 293.2263 293.8950
   293.8950 294.1115 294.5805 294.5805 295.5411 296.0414 296.0414 296.1401
   296.6113 296.6113 297.4870 297.8126 297.8126 298.0464 298.1196 298.1491
   298.3408 298.4642 298.4653 298.4653 299.2590 299.6770 300.0111 300.0111
   300.3161 300.7001 300.9223 300.9234 301.5231 301.5231 303.1874 303.4300
   303.4300 303.4433 303.9876 304.2848 304.3344 304.3344 304.3852 304.5043
[...]
   419.4542 420.1523 420.3568 420.4262 420.5119 420.5897 420.7219 420.7801
   421.1165 421.1287 421.3668 421.8863 422.0047 422.0996 423.0570 423.3452
   423.9053 424.0782 424.2410 424.4318 424.5891 424.6234 424.7005 424.7553
   424.9052 424.9082 425.0919 425.1358 425.2397 425.2670 425.7711 425.8617
   426.0772 426.4513 427.6780 427.7165 427.7388 428.0560 428.4116 428.5440
   429.0007 429.2506 429.7109 429.8103 429.8854 429.9260 429.9845 430.1016
   430.2058 430.3412 430.3657 430.6922 431.2368 431.2745 431.5779 431.7094
   431.9443 432.0069 432.1196 432.1599 432.5446 432.6022 432.8470 432.9232
   433.1019 433.1467 433.4165 433.4433 433.7774 433.8664 434.1570 434.1886
   434.5749 434.5925 434.8200 434.8479 435.5753 435.7148 435.9146 435.9984
   436.3474 436.4142 436.6233 436.7399 437.0726 437.2419 437.4819 437.5061
   437.9156 437.9916 438.0400 438.0916 438.9174 438.9667 439.3611 439.4635
   439.6601 439.9585 440.0686 440.1735 440.2258 440.2815 440.3473 440.3525
   440.4154 440.4663 440.6118 440.7928 441.3682 441.4124 441.4907 441.5361
   441.6515 441.7734 442.0946 442.1087 443.0281 443.1704 443.2895 443.3674
   444.2652 444.5399 444.8370 444.8654 444.9888 445.0746 445.1986 445.2663
   445.3229 445.3257 445.9084 446.0568 446.0736 446.2694 446.6012 446.6958
   446.8827 447.0055 447.0946 447.1481 447.1803 447.3692 447.6596 447.6977
   448.1192 448.4086 448.6416 448.6609 448.6845 448.8877 449.1496 449.2519
   449.2762 449.3146 449.3551 449.4027 449.5661 449.6231 449.8336 449.8490
   450.0224 450.2544 450.9540 451.2098 451.2169 451.2587 451.3791 451.3842
   451.5537 451.6961 452.1289 452.3531 452.3570 452.3870 453.0330 453.4724
   453.5032 453.9520 454.1133 454.3358 454.5701 454.6946 454.8554 455.3578
   455.4562 455.4995 455.5308 455.5325 455.5605 455.7654 456.1700 456.1788
   456.2113 456.3114 456.3717 456.5657 457.1079 457.1481 457.1779 457.3774
   457.6975 457.8092 457.8302 457.8710 457.9591 458.0709 458.1589 458.1874

          k =-0.3333-1.0000 0.0000 (  3496 PWs)   bands (ev):

   -28.2911 -28.2859 -28.2732 -28.2729 -28.2727 -27.8308  -9.8785  -9.8555
    -9.8491  -2.5435   5.1182   5.5696   5.6518   9.7811  11.2279  11.8921
    12.5248  13.0025  13.2206  15.2823  16.2029  16.2673  18.1624  18.5481
    18.6555  21.2442  21.9541  22.2912  22.5450  23.3501  23.7028  25.2475
    25.2597  26.3403  26.5175  26.7326  27.0544  29.0487  29.2075  31.2028
    31.6939  32.8594  34.2992  34.4663  34.8028  35.3417  36.5818  36.7451
    37.1859  37.2447  38.7150  39.6179  39.9963  40.1012  40.4772  40.7608
    41.2581  42.1908  42.5518  42.8463  43.2685  45.0087  45.3001  45.7506
    46.9468  47.2293  47.5650  48.5160  48.6559  48.9798  49.3961  49.4939
    49.5113  49.9949  51.1494  51.9023  52.3883  52.5048  53.7728  54.2255
    54.5639  54.9070  55.7103  56.2335  56.2982  56.7641  57.2435  57.6159
    57.8757  58.0196  58.0230  58.9005  60.0733  60.9124  61.1346  61.4878
    61.8439  61.9165  62.8067  63.0659  63.6337  63.9417  64.5297  65.1328
    65.2373  65.3064  65.8742  66.5835  67.0873  67.5627  68.2353  68.6753
    69.3479  71.6368  71.8598  72.4374  72.6599  73.0244  73.5746  74.4862
    74.5091  74.5380  74.9540  75.2961  76.6869  76.8069  77.0830  77.1581
    78.0076  78.2873  78.7486  79.2456  79.3442  79.8502  80.9628  80.9933
    81.1596  81.5344  81.7821  82.0645  83.1045  83.3746  84.0819  84.6881
    84.8979  84.9387  84.9750  85.4172  86.1314  86.6921  87.4025  87.6374
    87.6859  87.8761  88.3141  88.9503  89.0089  89.2563  89.3057  89.5419
    89.6349  89.6736  90.0213  90.5294  90.5804  90.9291  91.3005  91.4066
    91.4788  93.1464  93.5081  93.5599  94.5310  94.8474  94.9516  95.2207
    95.4382  95.4704  96.3571  96.7376  97.6859  97.7380  98.0143  98.4534
    98.6294  98.7451  99.6820 100.6231 101.0634 101.1010 101.4303 101.6535
   101.9913 102.0905 102.3631 102.5599 102.8482 103.0165 103.3918 103.5715
   103.6041 103.6475 103.9522 104.4767 104.7886 105.0625 105.5283 106.0859
   106.2923 106.8928 107.8007 108.1471 109.1391 109.6531 109.6792 111.1927
   111.3070 111.6440 111.7437 112.2321 112.5685 112.9180 113.0258 113.3672
   113.3717 113.5603 114.1545 115.5701 115.6749 115.8393 115.9498 116.1525
   116.6610 117.1978 117.6900 118.5010 118.6007 119.0266 119.3320 119.4691
   119.6133 119.6694 120.3312 120.5143 120.6219 120.8033 120.9516 121.9327
   121.9662 122.1512 123.1336 123.2135 123.3902 123.8038 124.1230 124.6034
   125.2254 125.3603 125.7585 126.1480 126.1743 126.9308 127.4835 127.7969
   128.3374 128.8702 129.0460 129.0526 129.4236 129.8267 129.8610 130.3868
   130.6995 130.7805 130.9638 131.5971 132.1334 132.1561 132.5901 133.3769
   133.4385 133.7962 134.0218 134.0539 135.1093 135.1346 135.6987 136.1750
   136.4671 136.7126 136.7279 137.1235 137.3124 138.2547 138.3397 138.3849
   138.9920 139.0720 139.4667 139.7164 140.5777 140.9963 141.1374 141.1396
   141.3804 141.5764 141.7053 142.0667 142.1186 142.4538 142.4832 143.2528
   143.4479 143.7249 143.8164 144.3409 144.6242 144.6798 145.1864 145.3023
   145.3699 145.4546 145.4865 145.6491 146.2492 146.3119 146.4059 146.8149
   147.6197 147.9961 148.0654 148.0816 148.4441 149.3487 149.9481 150.0863
   150.4276 150.4896 150.7601 150.8000 150.9680 151.0647 151.1950 151.3366
   151.3578 151.3734 151.4907 151.8252 154.0546 154.0554 154.1733 154.2291
   155.1078 155.5083 155.9162 156.0582 156.1226 156.2829 156.2966 156.3581
   156.4989 156.8549 156.8574 157.0595 157.5054 157.9089 158.0158 158.9785
   159.4898 159.5279 159.9870 160.6901 160.9981 161.4550 161.6338 161.8644
   162.2041 163.2311 163.6476 163.7135 163.9064 164.0321 164.7603 164.8321
   165.0727 165.2759 165.3610 165.8816 166.0893 166.3492 166.4827 166.4977
   166.9551 166.9879 167.8701 168.1473 168.3100 168.5883 169.0594 169.0714
   169.1043 169.3223 169.4408 169.9819 170.2040 170.2551 170.3514 170.7596
   170.8082 171.3906 171.7156 172.7355 172.7369 172.8002 173.0743 173.1846
   173.6069 173.8319 173.8681 174.3943 174.5861 174.7369 174.9426 175.0127
   175.1578 175.3583 177.4253 177.4856 178.0976 178.8619 179.2397 179.9014
   180.1157 180.6790 180.8256 181.1535 181.3576 181.4402 182.0466 182.4629
   182.6474 182.8072 183.0655 183.3634 183.4118 183.6634 183.6806 183.7541
   184.1089 184.1846 184.3496 184.3908 185.0507 185.6965 185.8937 186.0532
   186.3151 186.4153 186.8938 186.9864 186.9941 187.6929 187.7791 187.7793
   188.0548 188.2151 188.4125 188.5553 189.0903 189.1896 189.8795 190.0434
   190.5873 190.5891 191.0278 191.3467 191.3626 191.4630 192.0582 192.6734
   192.9834 193.2844 193.2926 193.8187 194.1634 194.3166 194.3217 194.3498
   194.6985 195.0772 195.0860 195.1405 195.1928 195.8074 195.8308 196.2270
   196.5030 196.6684 196.7030 196.8306 197.0138 197.0819 197.2580 197.9693
   198.4146 198.8124 199.4700 199.7679 200.3519 200.9606 201.7831 202.2142
   202.8336 203.0172 203.3464 203.4562 203.4974 203.6308 203.9311 204.3596
   204.5099 204.9926 205.5567 205.7321 205.8615 205.9240 206.7315 206.8991
   206.9046 206.9492 207.1844 207.5985 207.7616 208.7401 208.8300 208.8600
   208.8919 209.0312 209.0812 209.3393 210.0265 210.7500 210.8076 210.9090
   211.3142 211.7501 211.7807 211.9266 212.0807 212.1875 212.4133 213.1075
   213.3506 213.6425 213.7124 213.9797 214.3885 214.4766 214.6817 214.8507
   215.0356 215.0480 215.1380 215.7262 216.3548 216.6505 216.7404 216.8995
   216.9519 216.9685 217.7022 217.7222 217.7234 217.8308 218.0690 218.1883
   218.2657 218.3162 218.5201 218.7295 218.8134 219.0269 219.1340 219.2900
   219.3045 219.4782 219.7756 219.8350 220.0650 221.3549 221.3587 221.3719
   221.4336 222.9610 223.1550 223.9801 223.9818 224.0951 224.1396 224.2938
   224.3303 224.5075 224.5140 224.6494 224.7589 224.8633 224.9682 225.1037
   225.1392 225.3862 225.7103 225.9159 226.2360 226.2613 226.8312 227.1801
   227.2681 227.4882 227.5225 228.0046 228.1160 228.2675 228.9978 229.3685
   229.9343 230.1207 230.2085 230.3675 230.4255 230.5548 230.9328 231.1934
   231.5518 232.3933 232.6154 232.6548 233.4408 233.5903 233.7855 233.9448
   234.0579 234.1225 234.5309 235.2360 235.4508 235.5158 235.7202 236.2419
   236.3749 236.4310 236.4987 236.5322 236.6354 236.9060 236.9737 236.9925
   237.3233 237.3631 237.6860 237.8227 237.8898 237.9514 238.0691 238.4058
   238.6275 238.6838 239.0618 240.0394 240.2082 240.2306 240.6401 240.7886
   241.6863 241.8162 241.8763 242.1050 242.1158 242.3401 242.5001 242.7768
   243.0374 243.4667 243.8969 244.2618 244.2749 244.3445 244.3475 244.4613
   244.5875 245.5467 246.4294 246.5693 247.1909 247.2352 247.5388 247.8065
   247.8334 248.1272 248.2764 248.4354 248.5215 248.8147 248.9981 249.2661
   249.4553 249.4576 249.8011 250.1408 250.1915 250.8992 250.9115 251.0136
   251.1314 251.3403 251.7766 252.2445 252.2483 252.7145 252.9421 253.9610
   254.8220 254.8325 254.8523 254.9617 255.0006 255.2858 255.3224 255.3618
   255.4884 255.6377 255.9230 256.2057 256.7403 257.0196 257.0519 257.1060
   257.2543 257.3146 258.0129 258.0207 258.4412 258.9400 259.2909 259.3057
   259.3382 259.3864 259.5669 259.8446 259.9007 260.1688 260.2388 261.4918
   262.5687 262.5952 262.9536 263.0039 264.7514 264.9921 265.5906 266.0161
   266.2514 266.5014 266.6174 266.6260 267.0056 267.0125 267.2954 267.5363
   268.3640 268.5189 268.6901 268.7461 268.9145 269.1646 269.5118 269.9343
   270.7313 270.9261 270.9535 271.1097 271.6124 271.6578 271.7110 271.8384
   272.0272 272.0481 272.3984 272.5803 272.5829 272.7353 272.9183 273.1068
   273.3107 273.4879 273.6009 273.7335 273.9744 274.0357 274.5403 274.5557
   274.5737 274.6621 274.7938 274.9919 275.2531 275.5424 275.5914 276.0464
   276.0639 276.1171 276.3341 276.3378 276.4183 276.7595 277.0165 277.5996
   277.8474 278.2110 278.2942 278.4867 278.5886 278.7999 278.8404 278.9489
   279.4485 279.4771 279.7362 279.9143 279.9413 280.3228 280.4051 281.0062
   281.3377 281.3870 281.4139 281.6374 281.6723 282.4330 282.5708 282.9795
   283.2655 283.5938 283.9738 283.9947 284.0251 284.8685 285.5422 285.5942
   286.3697 286.5326 286.5799 286.6503 286.9234 287.1235 287.3268 287.4875
   287.5732 287.7756 288.2180 288.3057 288.4042 288.8315 289.0309 289.0443
   289.0929 289.1725 289.1891 289.2225 289.3446 289.5836 289.6241 289.7088
   289.7460 289.7684 289.8400 289.9429 290.0276 290.2038 290.2217 290.2429
   290.3141 290.5649 290.7023 290.7972 290.8271 290.9912 291.0111 291.3838
   291.4151 291.4236 291.5607 291.6823 291.7491 292.4124 292.5831 293.9966
   294.3508 294.7746 294.8023 295.7427 296.0071 296.2507 296.8245 297.2422
   297.7526 298.0813 298.2856 298.7120 298.7291 298.8058 299.0696 299.1696
   299.5652 299.8349 300.5292 300.6436 300.6764 300.9028 301.0547 301.1590
   301.1827 301.1850 301.1896 301.7712 301.8112 302.0544 302.1780 302.2318
   302.5493 302.5839 302.6218 302.7420 302.8763 303.1280 303.1844 303.5530
   303.9744 304.1176 304.2184 304.3162 304.5456 304.7436 304.8737 305.0110
   305.0193 305.0560 305.2749 305.3521 305.5516 305.6275 305.8176 305.8727
   306.0605 306.6070 307.1747 307.4547 307.6061 307.9611 307.9949 308.0370
   308.8886 309.4098 309.6501 310.0560 310.0926 310.3225 310.7881 311.0769
   311.1423 311.4512 311.4951 311.7677 311.8497 311.9655 312.1114 312.1786
   312.2773 312.3828 312.4220 312.5066 312.5553 312.8812 313.3410 313.7355
   314.2843 314.5782 314.6555 314.7271 314.8248 314.8862 315.3667 315.3856
   315.5156 315.7425 315.8217 316.3248 317.0669 317.1467 317.2321 317.4114
   317.4364 317.6472 318.1500 318.1650 318.2410 318.3521 318.3588 318.3634
   318.4943 318.6821 318.7312 318.8003 318.8537 318.8951 319.1059 320.1200
   320.1682 320.3850 321.2273 321.6069 322.7990 323.9201 324.2122 324.2914
   324.3784 324.4979 324.5091 324.5365 324.6269 324.6729 324.7382 324.7583
   324.7766 324.8824 325.1153 325.1902 325.5181 325.7796 325.8172 325.9742
   326.1012 326.2424 326.6950 326.8394 327.5634 328.1914 328.2707 328.4875
   328.5264 328.5302 328.5760 328.5872 328.7946 328.8564 329.0030 329.0038
   329.1291 329.1883 329.2538 329.7030 329.7943 329.8151 329.8510 329.9778
   330.1610 330.1770 330.4933 330.5089 331.4459 331.4807 331.4871 331.4917
   332.3572 332.4218 332.6220 333.3171 333.6379 333.8862 334.4777 334.7968
   334.8489 334.9313 335.0897 335.1939 335.5832 335.6993 335.7589 335.8117
   336.1441 336.1947 336.2474 336.2733 336.5774 336.6027 336.6288 336.7604
   336.9220 337.0580 337.3427 337.9879 338.0050 338.2138 338.2671 339.3217
   340.1430 340.9836 341.5899 341.6805 341.6858 341.7726 342.0611 342.1265
   342.1268 342.2199 342.3322 343.1504 343.5431 343.5488 343.5596 343.5940
   344.0938 344.1481 344.1723 344.2482 344.2811 344.4672 344.8462 344.9118
   345.0482 345.5497 345.6644 346.4932 346.6333 346.8533 347.2919 347.3737
   347.7150 347.7737 347.7774 347.7791 347.8437 347.9331 347.9837 348.0283
   348.2060 348.2396 348.3743 348.4386 348.7191 349.2737 349.7304 350.1092
   350.1552 350.1559 351.1059 351.2151 351.2305 351.7706 351.7829 352.0097
   352.2126 352.5661 352.6733 352.7586 352.7636 353.1131 353.1705 353.2570
   353.4633 354.0106 354.0540 354.2207 354.3318 354.7542 354.8203 355.3600
   355.4601 355.5843 355.5935 355.6963 355.7126 355.7162 355.9556 356.1333
   356.9233 356.9478 357.2534 357.3374 357.9244 358.1983 358.5453 358.9687
   358.9821 359.0475 359.1046 360.6335 360.6471 360.9886 361.4263 361.5721
   361.6132 361.6630 361.7038 361.7858 361.8191 362.5938 362.9042 362.9353
   362.9766 363.4928 363.5415 363.7190 363.7889 364.1710 364.5334 364.7097
   364.8341 364.8833 364.9295 365.2864 365.3790 365.4034 365.4210 365.7778
   365.8719 366.3357 366.4486 366.4953 366.7042 367.1062 367.5517 367.6989
   367.7815 367.8829 367.9416 368.0224 368.4284 368.4679 368.5155 368.5737
   368.8221 369.0231 369.0967 369.1200 369.2928 369.5778 369.5839 370.0730
   370.0810 370.8440 370.9210 371.0845 371.2652 371.4586 371.8678 371.9351
   372.0384 372.1686 372.4644 372.5250 373.3499 373.6807 373.8333 374.1900
   374.2358 374.8209 375.0591 375.0752 375.1533 375.1631 376.1873 376.6987
   377.0969 377.4964 377.7951 378.1753 378.2620 378.2797 378.8594 378.8945
   379.0003 379.1602 379.4290 379.4623 379.4654 379.5228 379.5482 379.8281
   380.0265 380.4168 380.5637 380.6012 380.7783 380.8379 380.9206 381.1302
   381.1663 381.5627 381.6306 381.7106 382.1378 382.3182 382.4004 382.4245
   382.4546 382.5759 382.5826 382.8297 383.0100 383.1008 383.1399 383.2252
   383.3506 383.3878 383.4759 383.6403 383.6931 383.7950 383.9301 383.9306
   383.9814 384.0390 384.6041 384.6285 384.6352 384.6925 384.7258 385.0364
   385.0596 385.1277 385.1298 385.1598 385.2358 386.3750 386.7302 387.2570
   387.3303 387.4356 387.4693 387.6188 387.6437 387.7405 387.7512 387.9160
   387.9706 388.6486 388.7232 388.7389 389.6487 389.8099 389.9672 390.0017
   390.5866 390.8383 390.8965 391.1432 391.2681 391.3222 391.3590 391.3652
   391.4355 391.4397 392.5012 392.6831 392.7019 392.7140 394.1518 394.6862
   394.6930 394.7085 394.7586 394.9698 395.0647 395.1201 395.2262 395.2752
   395.5332 395.6121 395.9833 396.1711 396.3545 396.4490 396.5774 396.6997
   396.8099 396.8319 396.8801 396.9836 397.0349 397.0551 397.0764 397.2084
   397.3679 397.3686 397.4423 397.5258 397.7010 397.7621 397.7774 397.9225
   398.4838 398.6415 399.4438 399.5091 399.5330 399.6305 399.9348 400.1415
   400.1522 400.2773 400.7909 400.9002 402.6931 402.9854 403.2666 403.3114
   403.5696 403.6334 403.9533 404.2347 404.2860 404.4468 404.6233 404.6755
   404.8938 404.9232 404.9332 404.9690 405.0976 405.1645 405.2826 405.3040
   405.6191 405.7199 406.0056 406.0285 406.6498 406.6673 406.8526 407.4289
   408.3972 408.4146 408.4232 408.4790 408.7331 408.7744 408.9203 409.2886
   409.3564 409.4171 409.4389 409.5951 409.6353 409.6940 409.9714 410.0858
   410.1440 410.1975 410.2921 410.3756 410.5787 410.7300 410.7858 410.8319
   410.9343 410.9349 411.0779 411.0967 411.1579 411.4228 411.8424 412.3205
   412.6283 413.0323 413.0355 413.2247 413.4252 413.5364 413.5572 413.7148
   413.7168 413.7994 413.8216 413.9392 413.9970 414.3441 414.3705 415.3993
   415.4035 416.4474 417.0519 417.1301 417.2960 417.4537 417.8024 417.9572
   417.9808 418.1293 418.6409 418.6891 418.8668 419.2520 419.5463 420.0176
   420.0678 420.4179 420.4495 420.4763 420.7061 421.1869 421.3188 421.5866
   421.5941 421.6138 421.7376 421.7597 421.7709 421.8513 422.0461 422.2268
   422.7392 422.7622 422.8237 423.1719 423.2286 423.3108 423.3625 423.3807
   423.4265 423.7110 423.7215 424.1566 424.2059 424.2169 424.4126 424.4147
   424.4199 424.4789 424.5177 424.5238 424.5601 424.8624 425.0927 425.6172
   425.6646 425.6704 425.6941 425.7056 425.8116 425.9917 426.0214 426.1133
   426.1192 426.8508 427.0452 428.9981 429.2042 429.2338 429.3982 429.5588
   429.8101 430.1011 430.1692 430.3857 430.4531 430.6039 430.6584 430.8238
   431.4948 431.6071 431.7466 431.7962 431.8512 431.8639 432.0522 432.2101
   432.3055 432.3792 432.3965 432.5194 432.6335 432.6599 432.6640 432.7221
   432.7260 432.7718 433.2129 433.2401 433.3362 433.4869 433.5270 433.6770
   434.7196 434.9206 435.8927 436.0451 436.1760 436.1780 436.2668 436.4234
   436.7311 436.7403 436.7827 436.8183 436.8450 436.8476 436.9179 436.9470
   436.9615 436.9765 437.1623 437.2070 437.4698 437.4874 437.5388 437.5416
   438.0040 438.0120 438.1411 438.1713 438.1716 438.2097 439.0877 439.7559
   440.1180 440.2388 440.2388 440.9584 441.0183 442.8676 443.3307 443.4283
   443.6104 443.7029 443.7537 443.7559 443.7960 444.3096 444.6641 444.6984
   445.6617 445.7924 445.9064 446.1514 446.2082 446.8209 447.0930 447.4999
   447.5293 447.5631 447.6305 447.8209 447.8282 448.2761 448.3080 448.4258
   448.6251 448.6268 448.6312 448.7184 449.1698 449.3479 449.3905 449.5027
   449.6166 449.7830 449.7989 449.8554 449.9973 450.2730 450.2784 451.2260
   451.2485 451.8316 451.8939 452.3636 452.3902 452.6275 453.1018 453.1338
   453.3055 453.3233 453.5596 454.0949 454.3545 454.3810 454.7980 454.9131
   454.9905 455.0095 455.0680 455.1061 455.3761 455.5237 456.0352 456.0748
   456.0873 456.0890 456.3996 456.4552 456.5440 456.7393 457.4144 457.4326
   457.4573 457.6296 457.8497 458.0946 458.1029 458.1868 458.3261 458.3379
   458.5019 458.5270 458.6741 458.7929 458.9114 458.9890 459.0615 459.0944

     the Fermi energy is     7.9619 ev
     (compare with:     7.5768 eV, computed in scf)

     Writing all to output data dir out/mp-1958.save/
 
     init_run     :      0.03s CPU      0.04s WALL (       1 calls)
     electrons    :   1287.33s CPU   1365.21s WALL (       1 calls)

     Called by init_run:
     wfcinit      :      0.00s CPU      0.00s WALL (       1 calls)
     potinit      :      0.01s CPU      0.01s WALL (       1 calls)
     hinit0       :      0.01s CPU      0.01s WALL (       1 calls)

     Called by electrons:
     c_bands      :   1287.32s CPU   1365.18s WALL (       1 calls)
     v_of_rho     :      0.00s CPU      0.00s WALL (       1 calls)

     Called by c_bands:
     init_us_2    :      0.00s CPU      0.00s WALL (       8 calls)
     init_us_2:cp :      0.00s CPU      0.00s WALL (       8 calls)
     paro_k       :   1246.50s CPU   1321.94s WALL (       8 calls)

     Called by paro_*:
     h_psi        :     19.79s CPU     20.52s WALL (    1163 calls)
     g_psi        :      0.32s CPU      0.36s WALL (  117477 calls)

     Called by h_psi:
     h_psi:calbec :      0.43s CPU      0.44s WALL (    1163 calls)
     vloc_psi     :     18.90s CPU     19.60s WALL (    1163 calls)
     add_vuspsi   :      0.30s CPU      0.30s WALL (    1163 calls)

     General routines
     calbec       :      0.42s CPU      0.44s WALL (    1163 calls)
     fft          :      0.00s CPU      0.00s WALL (      10 calls)
     fftw         :     17.26s CPU     17.90s WALL (  192724 calls)
 
     Parallel routines
 
     PWSCF        :  21m28.35s CPU  22m46.78s WALL

 
   This run was terminated on:  23:36:37  20Dec2023            

=------------------------------------------------------------------------------=
   JOB DONE.
=------------------------------------------------------------------------------=
