
     Program PWSCF v.7.1 starts on 17Nov2023 at 19:35:56 

     This program is part of the open-source Quantum ESPRESSO suite
     for quantum simulation of materials; please cite
         "P. Giannozzi et al., J. Phys.:Condens. Matter 21 395502 (2009);
         "P. Giannozzi et al., J. Phys.:Condens. Matter 29 465901 (2017);
         "P. Giannozzi et al., J. Chem. Phys. 152 154105 (2020);
          URL http://www.quantum-espresso.org", 
     in publications or presentations arising from this work. More details at
     http://www.quantum-espresso.org/quote

     Parallel version (MPI), running on    24 processors

     MPI processes distributed on     1 nodes
     123498 MiB available memory on the printing compute node when the environment starts
 
     Reading input from pw_mp-2472_scf_k3000_E72.in
Warning: card &CELL ignored
Warning: card / ignored

     Current dimensions of program PWSCF are:
     Max number of different atomic species (ntypx) = 10
     Max number of k-points (npk) =  40000
     Max angular momentum in pseudopotentials (lmaxx) =  4
 
     K-points division:     npool     =       2
     R & G space division:  proc/nbgrp/npool/nimage =      12
     Subspace diagonalization in iterative solution of the eigenvalue problem:
     a serial algorithm will be used

 
     Parallelization info
     --------------------
     sticks:   dense  smooth     PW     G-vecs:    dense   smooth      PW
     Min          79      79     23                 1599     1599     260
     Max          80      80     24                 1601     1601     263
     Sum         955     955    283                19195    19195    3143
 
     Using Slab Decomposition
 


     bravais-lattice index     =            2
     lattice parameter (alat)  =       9.7653  a.u.
     unit-cell volume          =     232.8067 (a.u.)^3
     number of atoms/cell      =            2
     number of atomic types    =            2
     number of electrons       =        16.00
     number of Kohn-Sham states=           16
     kinetic-energy cutoff     =      72.0000  Ry
     charge density cutoff     =     288.0000  Ry
     scf convergence threshold =      1.0E-10
     mixing beta               =       0.7000
     number of iterations used =            8  plain     mixing
     Exchange-correlation= PBE
                           (   1   4   3   4   0   0   0)

     celldm(1)=   9.765290  celldm(2)=   0.000000  celldm(3)=   0.000000
     celldm(4)=   0.000000  celldm(5)=   0.000000  celldm(6)=   0.000000

     crystal axes: (cart. coord. in units of alat)
               a(1) = (  -0.500000   0.000000   0.500000 )  
               a(2) = (   0.000000   0.500000   0.500000 )  
               a(3) = (  -0.500000   0.500000   0.000000 )  

     reciprocal axes: (cart. coord. in units 2 pi/alat)
               b(1) = ( -1.000000 -1.000000  1.000000 )  
               b(2) = (  1.000000  1.000000  1.000000 )  
               b(3) = ( -1.000000  1.000000 -1.000000 )  


     PseudoPot. # 1 for O  read from file:
     /usr/scratch4/magr4985/MG/HTDF/pseudo/SG15/O.upf
     MD5 check sum: e36c48deb68f4e355fffe4602be2c42c
     Pseudo is Norm-conserving, Zval =  6.0
     Generated using ONCVPSP code by D. R. Hamann
     Using radial grid of  602 points,  4 beta functions with: 
                l(1) =   0
                l(2) =   0
                l(3) =   1
                l(4) =   1

     PseudoPot. # 2 for Sr read from file:
     /usr/scratch4/magr4985/MG/HTDF/pseudo/SG15/Sr.upf
     MD5 check sum: 3f9bc8d6f3e8472da0cbe0e6a3044a9f
     Pseudo is Norm-conserving, Zval = 10.0
     Generated using ONCVPSP code by D. R. Hamann
     Using radial grid of  602 points,  6 beta functions with: 
                l(1) =   0
                l(2) =   0
                l(3) =   1
                l(4) =   1
                l(5) =   2
                l(6) =   2

     atomic species   valence    mass     pseudopotential
        O              6.00    15.99940     O ( 1.00)
        Sr            10.00    87.62000     Sr( 1.00)

     48 Sym. Ops., with inversion, found



   Cartesian axes

     site n.     atom                  positions (alat units)
         1           Sr  tau(   1) = (  -0.5000000   0.5000000   0.5000000  )
         2           O   tau(   2) = (   0.0000000   0.0000000   0.0000000  )

     number of k points=    72  Gaussian smearing, width (Ry)=  0.0005
                       cart. coord. in units 2pi/alat
        k(    1) = (   0.0000000   0.0000000   0.0000000), wk =   0.0011574
        k(    2) = (  -0.0833333   0.0833333  -0.0833333), wk =   0.0092593
        k(    3) = (  -0.1666667   0.1666667  -0.1666667), wk =   0.0092593
        k(    4) = (  -0.2500000   0.2500000  -0.2500000), wk =   0.0092593
        k(    5) = (  -0.3333333   0.3333333  -0.3333333), wk =   0.0092593
        k(    6) = (  -0.4166667   0.4166667  -0.4166667), wk =   0.0092593
        k(    7) = (   0.5000000  -0.5000000   0.5000000), wk =   0.0046296
        k(    8) = (   0.0000000   0.1666667   0.0000000), wk =   0.0069444
        k(    9) = (  -0.0833333   0.2500000  -0.0833333), wk =   0.0277778
        k(   10) = (  -0.1666667   0.3333333  -0.1666667), wk =   0.0277778
        k(   11) = (  -0.2500000   0.4166667  -0.2500000), wk =   0.0277778
        k(   12) = (  -0.3333333   0.5000000  -0.3333333), wk =   0.0277778
        k(   13) = (   0.5833333  -0.4166667   0.5833333), wk =   0.0277778
        k(   14) = (   0.5000000  -0.3333333   0.5000000), wk =   0.0277778
        k(   15) = (   0.4166667  -0.2500000   0.4166667), wk =   0.0277778
        k(   16) = (   0.3333333  -0.1666667   0.3333333), wk =   0.0277778
        k(   17) = (   0.2500000  -0.0833333   0.2500000), wk =   0.0277778
        k(   18) = (   0.1666667  -0.0000000   0.1666667), wk =   0.0138889
        k(   19) = (   0.0000000   0.3333333   0.0000000), wk =   0.0069444
        k(   20) = (  -0.0833333   0.4166667  -0.0833333), wk =   0.0277778
        k(   21) = (  -0.1666667   0.5000000  -0.1666667), wk =   0.0277778
        k(   22) = (  -0.2500000   0.5833333  -0.2500000), wk =   0.0277778
        k(   23) = (   0.6666667  -0.3333333   0.6666667), wk =   0.0277778
        k(   24) = (   0.5833333  -0.2500000   0.5833333), wk =   0.0277778
        k(   25) = (   0.5000000  -0.1666667   0.5000000), wk =   0.0277778
        k(   26) = (   0.4166667  -0.0833333   0.4166667), wk =   0.0277778
        k(   27) = (   0.3333333   0.0000000   0.3333333), wk =   0.0138889
        k(   28) = (   0.0000000   0.5000000   0.0000000), wk =   0.0069444
        k(   29) = (  -0.0833333   0.5833333  -0.0833333), wk =   0.0277778
        k(   30) = (  -0.1666667   0.6666667  -0.1666667), wk =   0.0277778
        k(   31) = (   0.7500000  -0.2500000   0.7500000), wk =   0.0277778
        k(   32) = (   0.6666667  -0.1666667   0.6666667), wk =   0.0277778
        k(   33) = (   0.5833333  -0.0833333   0.5833333), wk =   0.0277778
        k(   34) = (   0.5000000   0.0000000   0.5000000), wk =   0.0138889
        k(   35) = (   0.0000000   0.6666667   0.0000000), wk =   0.0069444
        k(   36) = (  -0.0833333   0.7500000  -0.0833333), wk =   0.0277778
        k(   37) = (   0.8333333  -0.1666667   0.8333333), wk =   0.0277778
        k(   38) = (   0.7500000  -0.0833333   0.7500000), wk =   0.0277778
        k(   39) = (   0.6666667  -0.0000000   0.6666667), wk =   0.0138889
        k(   40) = (   0.0000000   0.8333333   0.0000000), wk =   0.0069444
        k(   41) = (   0.9166667  -0.0833333   0.9166667), wk =   0.0277778
        k(   42) = (   0.8333333   0.0000000   0.8333333), wk =   0.0138889
        k(   43) = (   0.0000000  -1.0000000   0.0000000), wk =   0.0034722
        k(   44) = (  -0.1666667   0.3333333   0.0000000), wk =   0.0277778
        k(   45) = (  -0.2500000   0.4166667  -0.0833333), wk =   0.0555556
        k(   46) = (  -0.3333333   0.5000000  -0.1666667), wk =   0.0555556
        k(   47) = (   0.5833333  -0.4166667   0.7500000), wk =   0.0555556
        k(   48) = (   0.5000000  -0.3333333   0.6666667), wk =   0.0277778
        k(   49) = (  -0.1666667   0.5000000   0.0000000), wk =   0.0277778
        k(   50) = (  -0.2500000   0.5833333  -0.0833333), wk =   0.0555556
        k(   51) = (   0.6666667  -0.3333333   0.8333333), wk =   0.0555556
        k(   52) = (   0.5833333  -0.2500000   0.7500000), wk =   0.0555556
        k(   53) = (   0.5000000  -0.1666667   0.6666667), wk =   0.0555556
        k(   54) = (   0.4166667  -0.0833333   0.5833333), wk =   0.0555556
        k(   55) = (   0.3333333   0.0000000   0.5000000), wk =   0.0277778
        k(   56) = (  -0.1666667   0.6666667  -0.0000000), wk =   0.0277778
        k(   57) = (   0.7500000  -0.2500000   0.9166667), wk =   0.0555556
        k(   58) = (   0.6666667  -0.1666667   0.8333333), wk =   0.0555556
        k(   59) = (   0.5833333  -0.0833333   0.7500000), wk =   0.0555556
        k(   60) = (   0.5000000   0.0000000   0.6666667), wk =   0.0277778
        k(   61) = (   0.8333333  -0.1666667   1.0000000), wk =   0.0277778
        k(   62) = (   0.7500000  -0.0833333   0.9166667), wk =   0.0555556
        k(   63) = (   0.6666667   0.0000000   0.8333333), wk =   0.0277778
        k(   64) = (  -0.1666667  -1.0000000  -0.0000000), wk =   0.0138889
        k(   65) = (   0.6666667  -0.3333333   1.0000000), wk =   0.0277778
        k(   66) = (   0.5833333  -0.2500000   0.9166667), wk =   0.0555556
        k(   67) = (   0.5000000  -0.1666667   0.8333333), wk =   0.0277778
        k(   68) = (   0.6666667  -0.1666667   1.0000000), wk =   0.0277778
        k(   69) = (   0.5833333  -0.0833333   0.9166667), wk =   0.0555556
        k(   70) = (   0.5000000   0.0000000   0.8333333), wk =   0.0277778
        k(   71) = (  -0.3333333  -1.0000000   0.0000000), wk =   0.0138889
        k(   72) = (  -0.5000000  -1.0000000   0.0000000), wk =   0.0069444

     Dense  grid:    19195 G-vectors     FFT dimensions: (  40,  40,  40)

     Estimated max dynamical RAM per process >       6.01 MB

     Estimated total dynamical RAM >     139.64 MB

     Initial potential from superposition of free atoms

     starting charge      15.7183, renormalised to      16.0000
     Starting wfcs are random

     total cpu time spent up to now is        0.3 secs

     Self-consistent Calculation

     iteration #  1     ecut=    72.00 Ry     beta= 0.70
     Davidson diagonalization with overlap
     ethr =  1.00E-02,  avg # of iterations =  8.2

     total cpu time spent up to now is        1.1 secs

     total energy              =     -94.27972571 Ry
     estimated scf accuracy    <       0.39149363 Ry

     iteration #  2     ecut=    72.00 Ry     beta= 0.70
     Davidson diagonalization with overlap
     ethr =  2.45E-03,  avg # of iterations =  2.0

     total cpu time spent up to now is        1.4 secs

     total energy              =     -94.24682306 Ry
     estimated scf accuracy    <       1.15044506 Ry

     iteration #  3     ecut=    72.00 Ry     beta= 0.70
     Davidson diagonalization with overlap
     ethr =  2.45E-03,  avg # of iterations =  2.0

     total cpu time spent up to now is        1.7 secs

     total energy              =     -94.47043718 Ry
     estimated scf accuracy    <       0.01362810 Ry

     iteration #  4     ecut=    72.00 Ry     beta= 0.70
     Davidson diagonalization with overlap
     ethr =  8.52E-05,  avg # of iterations =  1.6

     total cpu time spent up to now is        1.9 secs

     total energy              =     -94.47277650 Ry
     estimated scf accuracy    <       0.00010911 Ry

     iteration #  5     ecut=    72.00 Ry     beta= 0.70
     Davidson diagonalization with overlap
     ethr =  6.82E-07,  avg # of iterations =  4.8

     total cpu time spent up to now is        2.3 secs

     total energy              =     -94.47279995 Ry
     estimated scf accuracy    <       0.00000261 Ry

     iteration #  6     ecut=    72.00 Ry     beta= 0.70
     Davidson diagonalization with overlap
     ethr =  1.63E-08,  avg # of iterations =  1.9

     total cpu time spent up to now is        2.6 secs

     total energy              =     -94.47280044 Ry
     estimated scf accuracy    <       0.00000089 Ry

     iteration #  7     ecut=    72.00 Ry     beta= 0.70
     Davidson diagonalization with overlap
     ethr =  5.55E-09,  avg # of iterations =  1.1

     total cpu time spent up to now is        2.9 secs

     total energy              =     -94.47280057 Ry
     estimated scf accuracy    <          1.4E-09 Ry

     iteration #  8     ecut=    72.00 Ry     beta= 0.70
     Davidson diagonalization with overlap
     ethr =  8.89E-12,  avg # of iterations =  2.6

     total cpu time spent up to now is        3.3 secs

     total energy              =     -94.47280057 Ry
     estimated scf accuracy    <          1.2E-10 Ry

     iteration #  9     ecut=    72.00 Ry     beta= 0.70
     Davidson diagonalization with overlap
     ethr =  7.43E-13,  avg # of iterations =  2.0

     total cpu time spent up to now is        3.6 secs

     End of self-consistent calculation

          k = 0.0000 0.0000 0.0000 (  2421 PWs)   bands (ev):

   -24.6559  -7.2930  -6.3026  -6.3026  -6.3026   7.7306   7.7306   7.7306
    11.6311  13.9602  13.9602  13.9602  16.0995  16.0995  20.2232  30.8618

          k =-0.0833 0.0833-0.0833 (  2409 PWs)   bands (ev):

   -24.6474  -7.4828  -6.3080  -6.3080  -6.1340   7.5155   7.6435   7.6435
    11.9573  13.8752  14.0942  14.0942  16.2790  16.2790  20.6826  30.1543

          k =-0.1667 0.1667-0.1667 (  2397 PWs)   bands (ev):

   -24.6241  -7.8505  -6.3226  -6.3226  -5.8248   7.0247   7.4191   7.4191
    12.7675  13.7481  14.4807  14.4807  16.7728  16.7728  21.8562  28.4751

          k =-0.2500 0.2500-0.2500 (  2418 PWs)   bands (ev):

   -24.5920  -8.2207  -6.3425  -6.3425  -5.5352   6.4827   7.1381   7.1381
    13.6842  13.8748  15.0676  15.0676  17.4783  17.4783  23.1676  26.9911

          k =-0.3333 0.3333-0.3333 (  2424 PWs)   bands (ev):

   -24.5595  -8.5234  -6.3621  -6.3621  -5.3129   6.0226   6.8816   6.8816
    13.9018  14.8840  15.7438  15.7438  18.2927  18.2927  23.3655  25.5188

          k =-0.4167 0.4167-0.4167 (  2413 PWs)   bands (ev):

   -24.5356  -8.7201  -6.3763  -6.3763  -5.1750   5.7188   6.7070   6.7070
    14.1373  15.7123  16.3125  16.3125  19.1099  19.1099  22.6767  23.8571

          k = 0.5000-0.5000 0.5000 (  2392 PWs)   bands (ev):

   -24.5268  -8.7881  -6.3814  -6.3814  -5.1283   5.6134   6.6455   6.6455
    14.2503  16.0367  16.5386  16.5386  19.5536  19.5536  22.3471  23.1054

          k = 0.0000 0.1667 0.0000 (  2389 PWs)   bands (ev):

   -24.6446  -7.5190  -6.3264  -6.3264  -6.0758   7.3343   7.6970   7.6970
    12.0231  13.6258  14.2522  14.2522  16.1931  16.4744  20.8256  30.3468

          k =-0.0833 0.2500-0.0833 (  2403 PWs)   bands (ev):

   -24.6263  -7.7793  -6.3524  -6.3391  -5.8582   6.9545   7.5412   7.5877
    12.5925  13.3935  14.5849  14.6522  16.4613  16.9501  21.7461  28.7149

          k =-0.1667 0.3333-0.1667 (  2412 PWs)   bands (ev):

   -24.5972  -8.1082  -6.3787  -6.3519  -5.6165   6.5438   7.2373   7.3603
    13.3600  13.4855  15.0489  15.2371  17.0390  17.5857  23.0467  26.8405

          k =-0.2500 0.4167-0.2500 (  2408 PWs)   bands (ev):

   -24.5649  -8.4078  -6.3984  -6.3748  -5.4120   6.1700   6.9407   7.0939
    13.5556  14.4404  15.6680  15.8917  17.8452  18.2735  23.5596  25.5700

          k =-0.3333 0.5000-0.3333 (  2412 PWs)   bands (ev):

   -24.5382  -8.6257  -6.4062  -6.4032  -5.2698   5.8849   6.7471   6.8599
    13.9036  15.1436  16.3906  16.4273  18.7662  18.9613  22.6668  23.9783

          k = 0.5833-0.4167 0.5833 (  2406 PWs)   bands (ev):

   -24.5243  -8.7316  -6.4291  -6.4003  -5.1994   5.7360   6.6912   6.7095
    14.1968  15.4445  16.6342  16.9081  19.4389  19.5411  21.9452  23.2131

          k = 0.5000-0.3333 0.5000 (  2408 PWs)   bands (ev):

   -24.5272  -8.7123  -6.4450  -6.3822  -5.2053   5.7534   6.6702   6.7721
    14.1822  15.4247  16.3977  16.8499  19.3078  19.4493  22.0288  23.5901

          k = 0.4167-0.2500 0.4167 (  2407 PWs)   bands (ev):

   -24.5461  -8.5710  -6.4454  -6.3567  -5.2893   5.9416   6.7489   6.9682
    13.9118  14.9948  15.8160  16.3716  18.6009  18.7142  22.9060  24.4057

          k = 0.3333-0.1667 0.3333 (  2414 PWs)   bands (ev):

   -24.5756  -8.3266  -6.4285  -6.3303  -5.4501   6.2782   6.9324   7.2349
    13.6490  14.1545  15.1372  15.7653  17.6697  18.0135  23.5917  25.2899

          k = 0.2500-0.0833 0.2500 (  2413 PWs)   bands (ev):

   -24.6078  -8.0153  -6.3959  -6.3103  -5.6770   6.7155   7.1860   7.4991
    13.1968  13.5671  14.5631  15.1185  16.9198  17.3027  22.6088  26.9279

          k = 0.1667-0.0000 0.1667 (  2401 PWs)   bands (ev):

   -24.6340  -7.6972  -6.3515  -6.3021  -5.9371   7.1780   7.4495   7.6574
    12.3998  13.6813  14.2003  14.5272  16.4340  16.6835  21.3707  28.9264

          k = 0.0000 0.3333 0.0000 (  2405 PWs)   bands (ev):

   -24.6138  -7.8469  -6.3913  -6.3913  -5.7920   6.6956   7.6306   7.6306
    12.7867  12.9013  15.0528  15.0528  16.4620  17.3438  22.3411  28.5681

          k =-0.0833 0.4167-0.0833 (  2411 PWs)   bands (ev):

   -24.5899  -8.0298  -6.4289  -6.4201  -5.6961   6.4676   7.4802   7.5313
    12.6606  13.3814  15.5638  15.6236  16.8082  17.8244  23.4456  26.7379

          k =-0.1667 0.5000-0.1667 (  2398 PWs)   bands (ev):

   -24.5608  -8.2513  -6.4551  -6.4503  -5.5917   6.3083   7.1822   7.3299
    12.7441  14.2089  16.0812  16.2387  17.4824  18.3293  23.9523  25.5012

          k =-0.2500 0.5833-0.2500 (  2401 PWs)   bands (ev):

   -24.5342  -8.4439  -6.4995  -6.4633  -5.4890   6.1923   6.9128   7.0939
    13.1262  14.9032  16.5855  16.7236  18.3772  18.9244  22.6125  24.2238

          k = 0.6667-0.3333 0.6667 (  2390 PWs)   bands (ev):

   -24.5175  -8.5657  -6.5569  -6.4513  -5.4019   6.0723   6.8198   6.8871
    13.6982  15.0622  16.9149  17.0232  19.1369  19.6615  21.5211  23.5066

          k = 0.5833-0.2500 0.5833 (  2400 PWs)   bands (ev):

   -24.5152  -8.5973  -6.6001  -6.4223  -5.3469   5.9807   6.7544   6.9090
    14.1745  14.8452  16.6878  17.0391  19.2935  20.1168  21.2495  23.8094

          k = 0.5000-0.1667 0.5000 (  2407 PWs)   bands (ev):

   -24.5281  -8.5375  -6.6092  -6.3838  -5.3404   5.9894   6.7212   7.1011
    14.0015  14.8151  16.1140  16.6289  19.0037  19.5450  21.8371  24.0669

          k = 0.4167-0.0833 0.4167 (  2402 PWs)   bands (ev):

   -24.5524  -8.4008  -6.5736  -6.3459  -5.3949   6.1253   6.7937   7.3177
    13.6495  14.4536  15.4491  16.2532  18.4225  18.5232  23.1074  24.4073

          k = 0.3333 0.0000 0.3333 (  2411 PWs)   bands (ev):

   -24.5816  -8.2144  -6.4958  -6.3189  -5.5134   6.3790   6.9593   7.4752
    13.4862  13.8014  14.8984  15.8010  17.4624  17.9264  23.6893  24.8949

          k = 0.0000 0.5000 0.0000 (  2413 PWs)   bands (ev):

   -24.5720  -8.0243  -6.4792  -6.4792  -5.7844   6.4242   7.5899   7.5899
    12.1536  13.6174  16.1803  16.1803  16.8664  18.0583  24.3530  26.7027

          k =-0.0833 0.5833-0.0833 (  2407 PWs)   bands (ev):

   -24.5482  -8.0942  -6.5266  -6.5164  -5.8439   6.4551   7.4644   7.5174
    11.9982  14.1990  16.6996  16.7526  17.2983  18.3137  24.4474  25.5192

          k =-0.1667 0.6667-0.1667 (  2395 PWs)   bands (ev):

   -24.5248  -8.2009  -6.6134  -6.5311  -5.8152   6.5333   7.1933   7.3456
    12.2188  14.9136  16.8424  17.1579  18.0596  18.9118  22.6440  24.4960

          k = 0.7500-0.2500 0.7500 (  2405 PWs)   bands (ev):

   -24.5082  -8.3033  -6.7264  -6.5197  -5.7082   6.5332   7.0052   7.1324
    12.7564  15.2753  16.7972  17.3511  18.7490  19.9230  21.2873  23.8851

          k = 0.6667-0.1667 0.6667 (  2397 PWs)   bands (ev):

   -24.5028  -8.3800  -6.8035  -6.4849  -5.5768   6.3460   6.9358   7.0716
    13.4920  14.9417  16.8509  17.1642  19.0658  20.5248  21.1125  23.9000

          k = 0.5833-0.0833 0.5833 (  2393 PWs)   bands (ev):

   -24.5103  -8.4246  -6.8019  -6.4355  -5.4639   6.1668   6.7987   7.2088
    14.1817  14.4027  16.6152  16.6334  19.0875  20.6047  21.2640  23.5816

          k = 0.5000 0.0000 0.5000 (  2395 PWs)   bands (ev):

   -24.5285  -8.4331  -6.7158  -6.3846  -5.3982   6.0865   6.7474   7.3069
    13.8868  14.5877  15.9733  16.3895  18.9017  19.6722  21.8186  24.1929

          k = 0.0000 0.6667 0.0000 (  2397 PWs)   bands (ev):

   -24.5305  -7.9810  -6.5660  -6.5660  -6.1148   6.6360   7.5953   7.5953
    11.5572  14.4700  17.3267  17.3911  17.3911  18.1679  24.1084  25.2779

          k =-0.0833 0.7500-0.0833 (  2405 PWs)   bands (ev):

   -24.5124  -7.9366  -6.6808  -6.5915  -6.2169   6.8318   7.4866   7.5415
    11.5210  14.9937  17.3469  17.5643  18.0080  18.6965  22.6222  24.5743

          k = 0.8333-0.1667 0.8333 (  2398 PWs)   bands (ev):

   -24.4988  -7.9652  -6.8948  -6.5865  -6.0791   6.9749   7.2344   7.3827
    11.8815  15.5665  16.7152  17.8322  18.4342  19.8836  21.3015  24.1430

          k = 0.7500-0.0833 0.7500 (  2389 PWs)   bands (ev):

   -24.4933  -8.0783  -7.0059  -6.5523  -5.8647   6.7746   7.1703   7.2076
    12.5546  15.5339  16.4675  17.7613  18.6941  20.4897  21.2682  23.7918

          k = 0.6667-0.0000 0.6667 (  2381 PWs)   bands (ev):

   -24.4976  -8.2543  -6.9577  -6.4973  -5.6470   6.4438   6.9602   7.2474
    13.4095  14.8857  16.6203  17.2364  18.9566  20.3310  22.5328  22.6095

          k = 0.0000 0.8333 0.0000 (  2394 PWs)   bands (ev):

   -24.5003  -7.7076  -6.6597  -6.6290  -6.6290   7.0675   7.6233   7.6233
    11.1814  15.1906  17.7123  17.9719  18.3703  18.3703  22.1158  24.3242

          k = 0.9167-0.0833 0.9167 (  2407 PWs)   bands (ev):

   -24.4918  -7.5859  -7.0402  -6.6346  -6.4533   7.2190   7.5078   7.5688
    11.2745  15.5346  17.2849  17.9309  18.5712  19.3621  21.3156  24.1013

          k = 0.8333 0.0000 0.8333 (  2402 PWs)   bands (ev):

   -24.4893  -7.7434  -7.1462  -6.6068  -6.1738   7.1888   7.2676   7.4012
    11.7662  15.9747  16.3832  18.2801  18.3216  20.5380  20.7364  23.9115

          k = 0.0000-1.0000 0.0000 (  2402 PWs)   bands (ev):

   -24.4893  -7.2602  -7.2171  -6.6520  -6.6520   7.2873   7.6384   7.6384
    11.0537  15.4662  17.8668  17.9366  18.7588  18.7588  21.2750  23.9870

          k =-0.1667 0.3333 0.0000 (  2403 PWs)   bands (ev):

   -24.6051  -7.9825  -6.4195  -6.3420  -5.6980   6.6278   7.3321   7.5790
    13.1374  13.1446  14.9007  15.2706  16.7614  17.4739  22.7425  26.9111

          k =-0.2500 0.4167-0.0833 (  2409 PWs)   bands (ev):

   -24.5760  -8.2260  -6.4796  -6.3552  -5.5370   6.3394   7.0579   7.4209
    13.1565  13.9149  15.3678  15.9011  17.4007  18.0745  23.8244  25.0428

          k =-0.3333 0.5000-0.1667 (  2408 PWs)   bands (ev):

   -24.5467  -8.4438  -6.5161  -6.3842  -5.4109   6.1157   6.8380   7.1793
    13.4366  14.6638  15.9754  16.3994  18.2973  18.7084  22.9970  24.5232

          k = 0.5833-0.4167 0.7500 (  2403 PWs)   bands (ev):

   -24.5250  -8.5916  -6.5290  -6.4171  -5.3329   5.9683   6.7396   6.9467
    13.8876  14.9935  16.5622  16.8320  19.0511  19.4805  21.8386  23.7466

          k = 0.5000-0.3333 0.6667 (  2398 PWs)   bands (ev):

   -24.5171  -8.6437  -6.5296  -6.4331  -5.3068   5.9156   6.7605   6.8084
    14.1869  14.9487  16.7811  17.1036  19.3808  19.8809  21.3864  23.5996

          k =-0.1667 0.5000 0.0000 (  2402 PWs)   bands (ev):

   -24.5660  -8.1400  -6.5114  -6.4312  -5.6789   6.3727   7.3031   7.5252
    12.4613  13.9192  16.0500  16.2276  17.2158  18.2158  24.4200  24.9344

          k =-0.2500 0.5833-0.0833 (  2403 PWs)   bands (ev):

   -24.5398  -8.2719  -6.5795  -6.4657  -5.6356   6.3469   7.0570   7.3885
    12.6049  14.5935  16.5082  16.6235  17.9504  18.7614  23.1152  24.7005

          k = 0.6667-0.3333 0.8333 (  2412 PWs)   bands (ev):

   -24.5183  -8.3851  -6.6316  -6.5100  -5.5703   6.3262   6.8948   7.1790
    13.0538  14.9971  16.6872  17.0608  18.6747  19.6155  21.7261  23.9499

          k = 0.5833-0.2500 0.7500 (  2400 PWs)   bands (ev):

   -24.5075  -8.4531  -6.6824  -6.5152  -5.5040   6.2447   6.9120   6.9866
    13.6987  14.7523  16.9173  17.2002  19.1573  20.3924  20.9486  23.8333

          k = 0.5000-0.1667 0.6667 (  2403 PWs)   bands (ev):

   -24.5102  -8.4651  -6.7090  -6.4787  -5.4578   6.1678   6.8231   7.0882
    14.0533  14.4697  16.8025  16.9396  19.1288  20.4644  21.0954  23.6918

          k = 0.4167-0.0833 0.5833 (  2404 PWs)   bands (ev):

   -24.5258  -8.4233  -6.6824  -6.4252  -5.4456   6.1525   6.7887   7.2673
    13.5573  14.7090  16.3910  16.4817  18.7927  19.6584  21.8251  24.1570

          k = 0.3333 0.0000 0.5000 (  2403 PWs)   bands (ev):

   -24.5499  -8.3383  -6.5987  -6.3782  -5.4734   6.2073   6.8757   7.3989
    13.2188  14.4128  15.8118  16.2986  18.1745  18.6671  23.1714  24.4616

          k =-0.1667 0.6667-0.0000 (  2409 PWs)   bands (ev):

   -24.5273  -8.0913  -6.6023  -6.5688  -5.9358   6.5917   7.3261   7.5188
    11.9017  14.7054  16.9151  17.3071  17.7100  18.6988  23.1282  24.8375

          k = 0.7500-0.2500 0.9167 (  2396 PWs)   bands (ev):

   -24.5089  -8.1195  -6.7266  -6.6236  -5.8863   6.7222   7.1181   7.3988
    12.1823  15.2184  16.6465  17.6869  18.2990  19.6191  21.7432  24.1149

          k = 0.6667-0.1667 0.8333 (  2395 PWs)   bands (ev):

   -24.4980  -8.1749  -6.8620  -6.6148  -5.7623   6.6494   7.0899   7.2080
    12.7743  15.1683  16.5401  17.7908  18.8174  20.6764  20.8243  23.7884

          k = 0.5833-0.0833 0.7500 (  2390 PWs)   bands (ev):

   -24.4976  -8.2587  -6.9027  -6.5653  -5.6295   6.4418   7.0000   7.2067
    13.5580  14.5539  16.6298  17.5226  19.0077  20.3972  21.7679  23.2090

          k = 0.5000 0.0000 0.6667 (  2386 PWs)   bands (ev):

   -24.5078  -8.3530  -6.8305  -6.4938  -5.5193   6.2668   6.8480   7.2773
    13.9484  14.3164  16.5252  16.9667  18.9902  20.5885  21.3657  23.4891

          k = 0.8333-0.1667 1.0000 (  2399 PWs)   bands (ev):

   -24.4991  -7.8344  -6.8495  -6.6681  -6.2274   7.0349   7.3666   7.5388
    11.5466  15.4017  16.9498  17.9715  18.3431  19.3846  21.6659  24.0734

          k = 0.7500-0.0833 0.9167 (  2396 PWs)   bands (ev):

   -24.4912  -7.8397  -7.0465  -6.6869  -6.0490   7.0490   7.2296   7.4183
    11.9599  15.7579  16.2498  18.2987  18.5478  20.4159  20.8772  23.6439

          k = 0.6667 0.0000 0.8333 (  2393 PWs)   bands (ev):

   -24.4906  -8.0145  -7.0490  -6.6443  -5.8341   6.7531   7.2191   7.2563
    12.6750  15.2191  16.3574  18.1280  18.7371  20.3804  21.6206  23.1986

          k =-0.1667-1.0000-0.0000 (  2406 PWs)   bands (ev):

   -24.4889  -7.5388  -7.1813  -6.6920  -6.3176   7.2774   7.3698   7.5505
    11.4257  15.7175  16.8000  18.0974  18.7626  19.7835  20.9891  23.7459

          k = 0.6667-0.3333 1.0000 (  2409 PWs)   bands (ev):

   -24.5188  -8.2763  -6.7000  -6.5390  -5.6401   6.4213   6.9345   7.3759
    12.7977  14.8830  16.4797  17.1093  18.4579  19.6857  21.8569  24.1929

          k = 0.5833-0.2500 0.9167 (  2408 PWs)   bands (ev):

   -24.5033  -8.2685  -6.7820  -6.6293  -5.6228   6.4480   6.9555   7.2670
    13.2873  14.6595  16.5146  17.5912  18.8729  20.5243  21.1905  23.5355

          k = 0.5000-0.1667 0.8333 (  2396 PWs)   bands (ev):

   -24.4976  -8.2631  -6.8099  -6.6701  -5.6132   6.4401   7.0739   7.1318
    13.9206  14.0431  16.6378  17.7685  19.0953  20.5373  21.2390  23.4897

          k = 0.6667-0.1667 1.0000 (  2399 PWs)   bands (ev):

   -24.4963  -8.0433  -6.8435  -6.7731  -5.8291   6.7668   7.1090   7.3857
    12.5019  15.1634  16.3037  18.2681  18.5798  20.4074  21.1673  23.4524

          k = 0.5833-0.0833 0.9167 (  2400 PWs)   bands (ev):

   -24.4905  -8.0307  -6.9508  -6.8044  -5.7404   6.6531   7.2175   7.2816
    13.1181  14.5208  16.3450  18.4389  18.9212  20.4038  21.5975  22.8931

          k = 0.5000 0.0000 0.8333 (  2402 PWs)   bands (ev):

   -24.4931  -8.1257  -6.9130  -6.7497  -5.6704   6.5418   7.1146   7.2845
    13.8057  13.9152  16.4371  18.1725  18.9686  20.3498  22.0818  22.6168

          k =-0.3333-1.0000 0.0000 (  2402 PWs)   bands (ev):

   -24.4881  -7.8456  -7.0819  -6.7997  -5.8953   6.8748   7.2653   7.3941
    12.3984  15.2630  16.1228  18.6593  18.7704  20.5325  21.0242  23.0930

          k =-0.5000-1.0000 0.0000 (  2400 PWs)   bands (ev):

   -24.4878  -7.9583  -6.9429  -6.9429  -5.7228   6.6433   7.2924   7.2924
    13.7400  13.7400  16.2872  18.7744  18.9876  20.3405  22.1530  22.1530

     the Fermi energy is    10.0583 ev

!    total energy              =     -94.47280057 Ry
     estimated scf accuracy    <          2.7E-11 Ry
     smearing contrib. (-TS)   =      -0.00000000 Ry
     internal energy E=F+TS    =     -94.47280057 Ry

     The total energy is F=E-TS. E is the sum of the following terms:
     one-electron contribution =     -18.77292560 Ry
     hartree contribution      =      17.45856157 Ry
     xc contribution           =     -15.91452708 Ry
     ewald contribution        =     -77.24390946 Ry

     convergence has been achieved in   9 iterations

     Writing all to output data dir out/mp-2472.save/
 
     init_run     :      0.11s CPU      0.20s WALL (       1 calls)
     electrons    :      3.00s CPU      3.32s WALL (       1 calls)

     Called by init_run:
     wfcinit      :      0.09s CPU      0.13s WALL (       1 calls)
     potinit      :      0.00s CPU      0.01s WALL (       1 calls)
     hinit0       :      0.00s CPU      0.04s WALL (       1 calls)

     Called by electrons:
     c_bands      :      2.60s CPU      2.86s WALL (       9 calls)
     sum_band     :      0.38s CPU      0.40s WALL (       9 calls)
     v_of_rho     :      0.03s CPU      0.03s WALL (      10 calls)
     mix_rho      :      0.00s CPU      0.00s WALL (       9 calls)

     Called by c_bands:
     init_us_2    :      0.04s CPU      0.04s WALL (     684 calls)
     init_us_2:cp :      0.04s CPU      0.04s WALL (     684 calls)
     cegterg      :      2.38s CPU      2.52s WALL (     324 calls)

     Called by *egterg:
     cdiaghg      :      0.35s CPU      0.39s WALL (    1294 calls)
     h_psi        :      1.91s CPU      2.04s WALL (    1330 calls)
     g_psi        :      0.01s CPU      0.01s WALL (     970 calls)

     Called by h_psi:
     h_psi:calbec :      0.05s CPU      0.06s WALL (    1330 calls)
     vloc_psi     :      1.81s CPU      1.93s WALL (    1330 calls)
     add_vuspsi   :      0.03s CPU      0.04s WALL (    1330 calls)

     General routines
     calbec       :      0.05s CPU      0.06s WALL (    1330 calls)
     fft          :      0.01s CPU      0.05s WALL (      99 calls)
     ffts         :      0.00s CPU      0.00s WALL (       9 calls)
     fftw         :      1.91s CPU      2.04s WALL (   34512 calls)
 
     Parallel routines
 
     PWSCF        :      3.19s CPU      3.76s WALL

 
   This run was terminated on:  19:36: 0  17Nov2023            

=------------------------------------------------------------------------------=
   JOB DONE.
=------------------------------------------------------------------------------=
