
     Program PWSCF v.7.1 starts on 22Nov2023 at 22: 5:49 

     This program is part of the open-source Quantum ESPRESSO suite
     for quantum simulation of materials; please cite
         "P. Giannozzi et al., J. Phys.:Condens. Matter 21 395502 (2009);
         "P. Giannozzi et al., J. Phys.:Condens. Matter 29 465901 (2017);
         "P. Giannozzi et al., J. Chem. Phys. 152 154105 (2020);
          URL http://www.quantum-espresso.org", 
     in publications or presentations arising from this work. More details at
     http://www.quantum-espresso.org/quote

     Parallel version (MPI), running on    24 processors

     MPI processes distributed on     1 nodes
     123722 MiB available memory on the printing compute node when the environment starts
 
     Reading input from pw_mp-22922_scf_k3000_E51.in
Warning: card &CELL ignored
Warning: card / ignored

     Current dimensions of program PWSCF are:
     Max number of different atomic species (ntypx) = 10
     Max number of k-points (npk) =  40000
     Max angular momentum in pseudopotentials (lmaxx) =  4
 
     K-points division:     npool     =       2
     R & G space division:  proc/nbgrp/npool/nimage =      12
     Subspace diagonalization in iterative solution of the eigenvalue problem:
     a serial algorithm will be used

 
     Parallelization info
     --------------------
     sticks:   dense  smooth     PW     G-vecs:    dense   smooth      PW
     Min          63      63     20                 1180     1180     201
     Max          65      65     21                 1181     1181     203
     Sum         769     769    241                14163    14163    2421
 
     Using Slab Decomposition
 


     bravais-lattice index     =            2
     lattice parameter (alat)  =      10.4791  a.u.
     unit-cell volume          =     287.6854 (a.u.)^3
     number of atoms/cell      =            2
     number of atomic types    =            2
     number of electrons       =        26.00
     number of Kohn-Sham states=           26
     kinetic-energy cutoff     =      51.0000  Ry
     charge density cutoff     =     204.0000  Ry
     scf convergence threshold =      1.0E-10
     mixing beta               =       0.7000
     number of iterations used =            8  plain     mixing
     Exchange-correlation= PBE
                           (   1   4   3   4   0   0   0)

     celldm(1)=  10.479147  celldm(2)=   0.000000  celldm(3)=   0.000000
     celldm(4)=   0.000000  celldm(5)=   0.000000  celldm(6)=   0.000000

     crystal axes: (cart. coord. in units of alat)
               a(1) = (  -0.500000   0.000000   0.500000 )  
               a(2) = (   0.000000   0.500000   0.500000 )  
               a(3) = (  -0.500000   0.500000   0.000000 )  

     reciprocal axes: (cart. coord. in units 2 pi/alat)
               b(1) = ( -1.000000 -1.000000  1.000000 )  
               b(2) = (  1.000000  1.000000  1.000000 )  
               b(3) = ( -1.000000  1.000000 -1.000000 )  


     PseudoPot. # 1 for Ag read from file:
     /usr/scratch4/magr4985/MG/HTDF/pseudo/SG15/Ag.upf
     MD5 check sum: 2fe2fe769560ddf16f28d1c82859634b
     Pseudo is Norm-conserving, Zval = 19.0
     Generated using ONCVPSP code by D. R. Hamann
     Using radial grid of  602 points,  6 beta functions with: 
                l(1) =   0
                l(2) =   0
                l(3) =   1
                l(4) =   1
                l(5) =   2
                l(6) =   2

     PseudoPot. # 2 for Cl read from file:
     /usr/scratch4/magr4985/MG/HTDF/pseudo/SG15/Cl.upf
     MD5 check sum: 0f993535b366f580ecbcdacce103c843
     Pseudo is Norm-conserving, Zval =  7.0
     Generated using ONCVPSP code by D. R. Hamann
     Using radial grid of  602 points,  4 beta functions with: 
                l(1) =   0
                l(2) =   0
                l(3) =   1
                l(4) =   1

     atomic species   valence    mass     pseudopotential
        Ag            19.00   107.86820     Ag( 1.00)
        Cl             7.00    35.45300     Cl( 1.00)

     48 Sym. Ops., with inversion, found



   Cartesian axes

     site n.     atom                  positions (alat units)
         1           Ag  tau(   1) = (   0.0000000   0.0000000   0.0000000  )
         2           Cl  tau(   2) = (  -0.5000000   0.5000000   0.5000000  )

     number of k points=    72  Gaussian smearing, width (Ry)=  0.0005
                       cart. coord. in units 2pi/alat
        k(    1) = (   0.0000000   0.0000000   0.0000000), wk =   0.0011574
        k(    2) = (  -0.0833333   0.0833333  -0.0833333), wk =   0.0092593
        k(    3) = (  -0.1666667   0.1666667  -0.1666667), wk =   0.0092593
        k(    4) = (  -0.2500000   0.2500000  -0.2500000), wk =   0.0092593
        k(    5) = (  -0.3333333   0.3333333  -0.3333333), wk =   0.0092593
        k(    6) = (  -0.4166667   0.4166667  -0.4166667), wk =   0.0092593
        k(    7) = (   0.5000000  -0.5000000   0.5000000), wk =   0.0046296
        k(    8) = (   0.0000000   0.1666667   0.0000000), wk =   0.0069444
        k(    9) = (  -0.0833333   0.2500000  -0.0833333), wk =   0.0277778
        k(   10) = (  -0.1666667   0.3333333  -0.1666667), wk =   0.0277778
        k(   11) = (  -0.2500000   0.4166667  -0.2500000), wk =   0.0277778
        k(   12) = (  -0.3333333   0.5000000  -0.3333333), wk =   0.0277778
        k(   13) = (   0.5833333  -0.4166667   0.5833333), wk =   0.0277778
        k(   14) = (   0.5000000  -0.3333333   0.5000000), wk =   0.0277778
        k(   15) = (   0.4166667  -0.2500000   0.4166667), wk =   0.0277778
        k(   16) = (   0.3333333  -0.1666667   0.3333333), wk =   0.0277778
        k(   17) = (   0.2500000  -0.0833333   0.2500000), wk =   0.0277778
        k(   18) = (   0.1666667  -0.0000000   0.1666667), wk =   0.0138889
        k(   19) = (   0.0000000   0.3333333   0.0000000), wk =   0.0069444
        k(   20) = (  -0.0833333   0.4166667  -0.0833333), wk =   0.0277778
        k(   21) = (  -0.1666667   0.5000000  -0.1666667), wk =   0.0277778
        k(   22) = (  -0.2500000   0.5833333  -0.2500000), wk =   0.0277778
        k(   23) = (   0.6666667  -0.3333333   0.6666667), wk =   0.0277778
        k(   24) = (   0.5833333  -0.2500000   0.5833333), wk =   0.0277778
        k(   25) = (   0.5000000  -0.1666667   0.5000000), wk =   0.0277778
        k(   26) = (   0.4166667  -0.0833333   0.4166667), wk =   0.0277778
        k(   27) = (   0.3333333   0.0000000   0.3333333), wk =   0.0138889
        k(   28) = (   0.0000000   0.5000000   0.0000000), wk =   0.0069444
        k(   29) = (  -0.0833333   0.5833333  -0.0833333), wk =   0.0277778
        k(   30) = (  -0.1666667   0.6666667  -0.1666667), wk =   0.0277778
        k(   31) = (   0.7500000  -0.2500000   0.7500000), wk =   0.0277778
        k(   32) = (   0.6666667  -0.1666667   0.6666667), wk =   0.0277778
        k(   33) = (   0.5833333  -0.0833333   0.5833333), wk =   0.0277778
        k(   34) = (   0.5000000   0.0000000   0.5000000), wk =   0.0138889
        k(   35) = (   0.0000000   0.6666667   0.0000000), wk =   0.0069444
        k(   36) = (  -0.0833333   0.7500000  -0.0833333), wk =   0.0277778
        k(   37) = (   0.8333333  -0.1666667   0.8333333), wk =   0.0277778
        k(   38) = (   0.7500000  -0.0833333   0.7500000), wk =   0.0277778
        k(   39) = (   0.6666667  -0.0000000   0.6666667), wk =   0.0138889
        k(   40) = (   0.0000000   0.8333333   0.0000000), wk =   0.0069444
        k(   41) = (   0.9166667  -0.0833333   0.9166667), wk =   0.0277778
        k(   42) = (   0.8333333   0.0000000   0.8333333), wk =   0.0138889
        k(   43) = (   0.0000000  -1.0000000   0.0000000), wk =   0.0034722
        k(   44) = (  -0.1666667   0.3333333   0.0000000), wk =   0.0277778
        k(   45) = (  -0.2500000   0.4166667  -0.0833333), wk =   0.0555556
        k(   46) = (  -0.3333333   0.5000000  -0.1666667), wk =   0.0555556
        k(   47) = (   0.5833333  -0.4166667   0.7500000), wk =   0.0555556
        k(   48) = (   0.5000000  -0.3333333   0.6666667), wk =   0.0277778
        k(   49) = (  -0.1666667   0.5000000   0.0000000), wk =   0.0277778
        k(   50) = (  -0.2500000   0.5833333  -0.0833333), wk =   0.0555556
        k(   51) = (   0.6666667  -0.3333333   0.8333333), wk =   0.0555556
        k(   52) = (   0.5833333  -0.2500000   0.7500000), wk =   0.0555556
        k(   53) = (   0.5000000  -0.1666667   0.6666667), wk =   0.0555556
        k(   54) = (   0.4166667  -0.0833333   0.5833333), wk =   0.0555556
        k(   55) = (   0.3333333   0.0000000   0.5000000), wk =   0.0277778
        k(   56) = (  -0.1666667   0.6666667  -0.0000000), wk =   0.0277778
        k(   57) = (   0.7500000  -0.2500000   0.9166667), wk =   0.0555556
        k(   58) = (   0.6666667  -0.1666667   0.8333333), wk =   0.0555556
        k(   59) = (   0.5833333  -0.0833333   0.7500000), wk =   0.0555556
        k(   60) = (   0.5000000   0.0000000   0.6666667), wk =   0.0277778
        k(   61) = (   0.8333333  -0.1666667   1.0000000), wk =   0.0277778
        k(   62) = (   0.7500000  -0.0833333   0.9166667), wk =   0.0555556
        k(   63) = (   0.6666667   0.0000000   0.8333333), wk =   0.0277778
        k(   64) = (  -0.1666667  -1.0000000  -0.0000000), wk =   0.0138889
        k(   65) = (   0.6666667  -0.3333333   1.0000000), wk =   0.0277778
        k(   66) = (   0.5833333  -0.2500000   0.9166667), wk =   0.0555556
        k(   67) = (   0.5000000  -0.1666667   0.8333333), wk =   0.0277778
        k(   68) = (   0.6666667  -0.1666667   1.0000000), wk =   0.0277778
        k(   69) = (   0.5833333  -0.0833333   0.9166667), wk =   0.0555556
        k(   70) = (   0.5000000   0.0000000   0.8333333), wk =   0.0277778
        k(   71) = (  -0.3333333  -1.0000000   0.0000000), wk =   0.0138889
        k(   72) = (  -0.5000000  -1.0000000   0.0000000), wk =   0.0069444

     Dense  grid:    14163 G-vectors     FFT dimensions: (  36,  36,  36)

     Estimated max dynamical RAM per process >       5.67 MB

     Estimated total dynamical RAM >     132.66 MB

     Initial potential from superposition of free atoms

     starting charge      25.9563, renormalised to      26.0000
     Starting wfcs are random

     total cpu time spent up to now is        0.3 secs

     Self-consistent Calculation

     iteration #  1     ecut=    51.00 Ry     beta= 0.70
     Davidson diagonalization with overlap
     ethr =  1.00E-02,  avg # of iterations =  8.3

     Threshold (ethr) on eigenvalues was too large:
     Diagonalizing with lowered threshold

     Davidson diagonalization with overlap
     ethr =  3.76E-04,  avg # of iterations =  2.0

     total cpu time spent up to now is        1.8 secs

     total energy              =    -317.85774370 Ry
     estimated scf accuracy    <       0.10792429 Ry

     iteration #  2     ecut=    51.00 Ry     beta= 0.70
     Davidson diagonalization with overlap
     ethr =  4.15E-04,  avg # of iterations =  2.0

     total cpu time spent up to now is        2.2 secs

     total energy              =    -317.88114114 Ry
     estimated scf accuracy    <       0.04793160 Ry

     iteration #  3     ecut=    51.00 Ry     beta= 0.70
     Davidson diagonalization with overlap
     ethr =  1.84E-04,  avg # of iterations =  2.1

     total cpu time spent up to now is        2.5 secs

     total energy              =    -317.89391524 Ry
     estimated scf accuracy    <       0.00189299 Ry

     iteration #  4     ecut=    51.00 Ry     beta= 0.70
     Davidson diagonalization with overlap
     ethr =  7.28E-06,  avg # of iterations =  4.2

     total cpu time spent up to now is        3.0 secs

     total energy              =    -317.89433871 Ry
     estimated scf accuracy    <       0.00013715 Ry

     iteration #  5     ecut=    51.00 Ry     beta= 0.70
     Davidson diagonalization with overlap
     ethr =  5.27E-07,  avg # of iterations =  2.0

     total cpu time spent up to now is        3.4 secs

     total energy              =    -317.89436169 Ry
     estimated scf accuracy    <       0.00000157 Ry

     iteration #  6     ecut=    51.00 Ry     beta= 0.70
     Davidson diagonalization with overlap
     ethr =  6.02E-09,  avg # of iterations =  2.0

     total cpu time spent up to now is        3.8 secs

     total energy              =    -317.89436223 Ry
     estimated scf accuracy    <       0.00000011 Ry

     iteration #  7     ecut=    51.00 Ry     beta= 0.70
     Davidson diagonalization with overlap
     ethr =  4.33E-10,  avg # of iterations =  2.0

     total cpu time spent up to now is        4.2 secs

     total energy              =    -317.89436225 Ry
     estimated scf accuracy    <       0.00000002 Ry

     iteration #  8     ecut=    51.00 Ry     beta= 0.70
     Davidson diagonalization with overlap
     ethr =  8.85E-11,  avg # of iterations =  1.5

     total cpu time spent up to now is        4.5 secs

     total energy              =    -317.89436226 Ry
     estimated scf accuracy    <          1.9E-10 Ry

     iteration #  9     ecut=    51.00 Ry     beta= 0.70
     Davidson diagonalization with overlap
     ethr =  7.21E-13,  avg # of iterations =  2.9

     total cpu time spent up to now is        4.9 secs

     End of self-consistent calculation

          k = 0.0000 0.0000 0.0000 (  1807 PWs)   bands (ev):

   -81.5885 -45.0782 -45.0782 -45.0782  -6.8246   5.8223   5.8223   5.8223
     5.8687   5.8687   5.9881   5.9881   5.9881   9.2376  19.2646  19.2646
    19.2646  20.7529  21.6677  21.6677  21.6677  22.2420  22.2420  28.0825
    33.4760  33.4760

          k =-0.0833 0.0833-0.0833 (  1792 PWs)   bands (ev):

   -81.5885 -45.0784 -45.0782 -45.0782  -6.7972   5.4249   5.4249   5.4627
     5.8493   5.8493   6.0779   6.4593   6.4593   9.5835  18.4713  19.1578
    19.1578  20.7412  20.7412  21.1169  22.0664  23.5089  23.5089  28.5270
    32.4253  32.8751

          k =-0.1667 0.1667-0.1667 (  1781 PWs)   bands (ev):

   -81.5884 -45.0789 -45.0783 -45.0783  -6.7209   4.8068   4.9868   4.9868
     5.9117   5.9117   6.1637   6.9870   6.9870  10.3707  17.2738  18.5316
    18.5316  20.3998  20.3998  21.0301  23.4612  25.1721  25.1721  28.9797
    31.3900  31.3900

          k =-0.2500 0.2500-0.2500 (  1787 PWs)   bands (ev):

   -81.5884 -45.0796 -45.0784 -45.0784  -6.6130   4.1290   4.6250   4.6250
     5.9991   5.9991   6.2639   7.4792   7.4792  11.2622  16.1886  17.6044
    17.6044  20.7171  20.7171  20.9566  25.1995  26.9133  26.9133  27.6967
    29.6668  29.6668

          k =-0.3333 0.3333-0.3333 (  1790 PWs)   bands (ev):

   -81.5884 -45.0803 -45.0785 -45.0785  -6.5003   3.5668   4.3560   4.3560
     6.0888   6.0888   6.3735   7.8904   7.8904  12.0247  15.3820  16.8035
    16.8035  21.1046  21.2927  21.2927  25.8181  27.3521  27.9582  27.9582
    28.7309  28.7309

          k =-0.4167 0.4167-0.4167 (  1772 PWs)   bands (ev):

   -81.5884 -45.0808 -45.0786 -45.0786  -6.4145   3.1983   4.1904   4.1904
     6.1561   6.1561   6.4636   8.1697   8.1697  12.4747  14.9603  16.2732
    16.2732  21.5201  21.9215  21.9215  24.3611  26.7395  26.7395  29.4345
    30.1529  30.1529

          k = 0.5000-0.5000 0.5000 (  1772 PWs)   bands (ev):

   -81.5884 -45.0810 -45.0786 -45.0786  -6.3823   3.0701   4.1346   4.1346
     6.1811   6.1811   6.4991   8.2697   8.2697  12.5983  14.8580  16.0869
    16.0869  21.8975  22.2385  22.2385  23.5973  26.2078  26.2078  30.8033
    30.8033  30.8664

          k = 0.0000 0.1667 0.0000 (  1788 PWs)   bands (ev):

   -81.5884 -45.0784 -45.0782 -45.0782  -6.7885   5.0695   5.6054   5.6054
     5.8007   5.8810   6.2062   6.2062   6.5583   9.7135  18.6325  18.9757
    18.9757  19.4981  21.6612  22.2394  22.2394  22.3120  24.0270  28.7569
    32.5311  32.5353

          k =-0.0833 0.2500-0.0833 (  1783 PWs)   bands (ev):

   -81.5884 -45.0787 -45.0783 -45.0783  -6.7299   4.6287   5.2588   5.2715
     5.8305   5.9289   6.2380   6.5551   6.9643  10.3608  17.6452  18.2414
    18.6367  19.3267  21.5505  21.8576  23.2416  23.9100  25.1956  29.3953
    31.3549  31.3613

          k =-0.1667 0.3333-0.1667 (  1792 PWs)   bands (ev):

   -81.5884 -45.0794 -45.0785 -45.0784  -6.6343   4.1696   4.7751   4.8730
     5.9034   6.0168   6.2824   7.0179   7.4477  11.1981  16.4337  17.3984
    18.0103  19.7718  21.4568  21.6842  24.7741  25.5929  26.6476  28.4169
    29.7434  30.8379

          k =-0.2500 0.4167-0.2500 (  1780 PWs)   bands (ev):

   -81.5884 -45.0801 -45.0786 -45.0785  -6.5250   3.7088   4.4122   4.5429
     5.9967   6.1054   6.3621   7.4686   7.8406  11.9947  15.4221  16.7764
    17.2813  20.3347  21.7010  21.8003  26.0322  26.6859  26.9285  28.5487
    28.9310  29.3684

          k =-0.3333 0.5000-0.3333 (  1782 PWs)   bands (ev):

   -81.5884 -45.0806 -45.0786 -45.0786  -6.4314   3.3388   4.2075   4.3068
     6.0896   6.1685   6.4404   7.8594   8.0709  12.5775  14.7372  16.4181
    16.6674  20.9587  22.0717  22.2442  24.5838  26.4557  27.7194  28.8457
    29.4434  30.4066

          k = 0.5833-0.4167 0.5833 (  1768 PWs)   bands (ev):

   -81.5884 -45.0809 -45.0787 -45.0787  -6.3815   3.1505   4.1401   4.1752
     6.1553   6.1876   6.4844   8.0999   8.1385  12.8487  14.4417  16.2980
    16.3041  21.6105  22.3077  22.6386  23.4761  26.1182  26.6959  30.6284
    30.6865  30.9143

          k = 0.5000-0.3333 0.5000 (  1765 PWs)   bands (ev):

   -81.5884 -45.0809 -45.0788 -45.0786  -6.3916   3.1849   4.1520   4.2000
     6.1575   6.1716   6.4753   7.9348   8.2509  12.8116  14.5287  16.2526
    16.3622  21.7515  21.8566  22.6147  23.7505  26.3907  26.7727  29.6791
    30.7944  30.8753

          k = 0.4167-0.2500 0.4167 (  1777 PWs)   bands (ev):

   -81.5884 -45.0805 -45.0787 -45.0785  -6.4584   3.4379   4.2359   4.3842
     6.0878   6.1350   6.4184   7.6197   8.1632  12.4389  14.9860  16.5668
    16.6015  20.9809  21.5985  22.2767  24.9500  26.9576  27.7452  28.0179
    29.4468  29.9681

          k = 0.3333-0.1667 0.3333 (  1778 PWs)   bands (ev):

   -81.5884 -45.0798 -45.0786 -45.0784  -6.5605   3.8664   4.4214   4.6882
     5.9990   6.0643   6.3387   7.2084   7.8861  11.7472  15.7983  17.0374
    17.2245  20.2847  21.5527  21.7181  25.7449  26.4042  26.8561  28.2820
    29.3717  29.7259

          k = 0.2500-0.0833 0.2500 (  1777 PWs)   bands (ev):

   -81.5884 -45.0792 -45.0785 -45.0783  -6.6684   4.3986   4.6975   5.0841
     5.9156   5.9874   6.2772   6.7505   7.4667  10.8911  16.8774  17.6029
    18.1756  19.7493  21.2634  21.7045  24.1731  24.9376  26.6507  28.3553
    30.7167  31.2890

          k = 0.1667-0.0000 0.1667 (  1787 PWs)   bands (ev):

   -81.5884 -45.0786 -45.0783 -45.0782  -6.7540   4.9570   5.0458   5.4373
     5.8596   5.9173   6.2958   6.3270   6.9665  10.0763  17.9341  18.3242
    19.3610  19.3870  21.0434  21.6039  23.1377  23.4276  25.0096  29.0460
    31.3802  32.0635

          k = 0.0000 0.3333 0.0000 (  1792 PWs)   bands (ev):

   -81.5884 -45.0788 -45.0785 -45.0785  -6.6932   4.3084   5.3818   5.3818
     5.7418   5.9145   6.4189   6.4189   6.8545  10.8164  17.2565  17.8078
    18.6139  18.6139  22.5220  23.3032  23.4005  23.4005  25.2236  30.2191
    31.0006  31.0006

          k =-0.0833 0.4167-0.0833 (  1780 PWs)   bands (ev):

   -81.5884 -45.0793 -45.0786 -45.0786  -6.6194   4.0067   5.0914   5.1277
     5.7757   6.0066   6.3982   6.6348   7.1509  11.4570  16.2456  17.2152
    18.3732  18.9330  22.3328  23.2005  24.6283  24.7922  26.0788  29.0925
    29.8490  30.7223

          k =-0.1667 0.5000-0.1667 (  1775 PWs)   bands (ev):

   -81.5884 -45.0799 -45.0787 -45.0787  -6.5260   3.7467   4.6565   4.7861
     5.8651   6.1184   6.3964   6.9989   7.5086  12.0797  15.3421  16.7368
    17.8963  19.5480  22.4255  22.9769  25.8025  26.0397  26.3546  28.7459
    29.1590  30.0977

          k =-0.2500 0.5833-0.2500 (  1773 PWs)   bands (ev):

   -81.5884 -45.0804 -45.0789 -45.0788  -6.4376   3.5309   4.3176   4.4977
     5.9726   6.1878   6.4277   7.4051   7.7095  12.6008  14.6400  16.5389
    17.3432  20.2453  22.6856  23.0153  24.8023  25.8695  27.9002  29.0964
    29.3034  30.6939

          k = 0.6667-0.3333 0.6667 (  1767 PWs)   bands (ev):

   -81.5884 -45.0807 -45.0790 -45.0788  -6.3793   3.3744   4.1681   4.2963
     6.0766   6.2055   6.4529   7.6977   7.7877  13.0583  14.1331  16.5052
    16.8811  20.9710  22.5061  23.3957  23.7559  25.8419  27.5035  30.2687
    30.5083  31.1899

          k = 0.5833-0.2500 0.5833 (  1767 PWs)   bands (ev):

   -81.5884 -45.0807 -45.0791 -45.0787  -6.3691   3.3241   4.1926   4.2070
     6.1452   6.1744   6.4594   7.5055   8.0805  13.4923  13.7999  16.4369
    16.6207  21.7501  21.8007  23.0459  24.0627  26.6204  26.6237  29.6394
    31.0988  31.8095

          k = 0.5000-0.1667 0.5000 (  1771 PWs)   bands (ev):

   -81.5884 -45.0805 -45.0791 -45.0786  -6.4102   3.4141   4.1881   4.3985
     6.1084   6.1589   6.4540   7.2033   8.2148  13.1737  14.2985  16.3467
    16.6344  20.9024  22.6458  22.8670  24.2866  26.4034  27.7975  27.8636
    30.9116  31.1859

          k = 0.4167-0.0833 0.4167 (  1771 PWs)   bands (ev):

   -81.5884 -45.0800 -45.0790 -45.0785  -6.4898   3.6412   4.2782   4.6896
     6.0285   6.1337   6.4532   6.8564   8.1458  12.4939  15.1731  16.4030
    16.9516  20.2110  22.6347  22.9049  25.1080  25.4384  27.0892  28.7830
    30.1220  30.6230

          k = 0.3333 0.0000 0.3333 (  1773 PWs)   bands (ev):

   -81.5884 -45.0796 -45.0788 -45.0784  -6.5844   3.9809   4.4532   4.9728
     5.9578   6.0790   6.5190   6.5305   7.8789  11.6750  16.2281  16.6788
    17.5288  19.7770  21.9695  22.7418  24.3360  25.9461  26.7399  28.1327
    30.4990  30.8945

          k = 0.0000 0.5000 0.0000 (  1748 PWs)   bands (ev):

   -81.5884 -45.0795 -45.0787 -45.0787  -6.5718   3.8388   5.2466   5.2466
     5.6620   5.9606   6.5061   6.5061   6.9428  11.7484  15.7938  17.1675
    18.5849  18.5849  22.8727  24.4899  24.4899  25.2710  25.9812  29.0251
    29.7683  29.7683

          k =-0.0833 0.5833-0.0833 (  1762 PWs)   bands (ev):

   -81.5884 -45.0799 -45.0789 -45.0789  -6.5032   3.7225   4.9978   5.0528
     5.7143   6.0796   6.4518   6.6146   7.0953  11.9161  15.5139  16.7797
    18.5141  18.9976  23.0032  24.3192  25.0320  26.1908  26.5850  28.6977
    29.0847  29.7188

          k =-0.1667 0.6667-0.1667 (  1769 PWs)   bands (ev):

   -81.5884 -45.0803 -45.0791 -45.0790  -6.4314   3.6747   4.5923   4.7543
     5.8300   6.1988   6.4200   6.9079   7.2500  12.0606  15.2707  16.5483
    18.1729  19.6773  23.1746  23.9100  25.1372  25.5518  27.9075  29.0138
    29.0832  30.7580

          k = 0.7500-0.2500 0.7500 (  1770 PWs)   bands (ev):

   -81.5883 -45.0805 -45.0793 -45.0790  -6.3759   3.6689   4.2704   4.4950
     5.9560   6.2298   6.4181   7.2302   7.3093  12.3513  14.9347  16.5446
    17.7196  20.2786  22.8104  23.6954  25.1558  25.3882  27.8389  29.8574
    30.2626  31.4426

          k = 0.6667-0.1667 0.6667 (  1762 PWs)   bands (ev):

   -81.5883 -45.0805 -45.0796 -45.0789  -6.3527   3.6084   4.2004   4.3124
     6.0712   6.2041   6.4324   7.0605   7.7142  12.8308  14.5714  16.4399
    17.2955  20.8331  21.9294  23.8704  25.2526  26.2791  26.9047  29.5727
    30.6155  32.1182

          k = 0.5833-0.0833 0.5833 (  1772 PWs)   bands (ev):

   -81.5884 -45.0804 -45.0796 -45.0788  -6.3688   3.5212   4.2164   4.3550
     6.1479   6.1479   6.4817   6.8307   8.0364  13.4257  14.1490  16.2089
    16.9895  21.0856  21.6776  24.1594  25.2892  26.0641  27.3652  27.8234
    31.2234  32.1377

          k = 0.5000 0.0000 0.5000 (  1780 PWs)   bands (ev):

   -81.5884 -45.0802 -45.0794 -45.0786  -6.4194   3.5221   4.2069   4.5605
     6.0829   6.1733   6.5815   6.6368   8.1975  13.2841  14.3768  16.1469
    16.8642  20.4887  22.7046  24.1654  24.5632  25.3139  27.3433  28.3036
    31.3761  31.9269

          k = 0.0000 0.6667 0.0000 (  1752 PWs)   bands (ev):

   -81.5884 -45.0802 -45.0790 -45.0790  -6.4625   3.7178   5.2063   5.2063
     5.5827   6.0071   6.4622   6.4622   6.8433  11.5868  15.8589  16.7266
    18.9421  18.9421  23.3403  24.7378  24.7378  26.6111  27.4836  27.9807
    29.5276  29.6220

          k =-0.0833 0.7500-0.0833 (  1756 PWs)   bands (ev):

   -81.5884 -45.0804 -45.0792 -45.0791  -6.4145   3.7687   4.9700   5.0458
     5.6719   6.1526   6.4001   6.4993   6.8281  11.4069  16.0860  16.5236
    18.9875  19.3898  23.5861  24.2569  24.5116  26.5870  27.9739  28.6513
    28.9218  30.3690

          k = 0.8333-0.1667 0.8333 (  1758 PWs)   bands (ev):

   -81.5883 -45.0805 -45.0795 -45.0791  -6.3721   3.8783   4.5556   4.7623
     5.8165   6.2525   6.3758   6.7935   6.8062  11.5577  15.8814  16.5627
    18.6629  19.8117  23.1798  23.8944  24.8282  26.6262  27.6631  29.1103
    30.0267  31.4074

          k = 0.7500-0.0833 0.7500 (  1757 PWs)   bands (ev):

   -81.5883 -45.0804 -45.0798 -45.0791  -6.3467   3.9787   4.2001   4.5087
     5.9552   6.2399   6.4037   6.7165   7.2401  12.0202  15.5151  16.4985
    18.1319  20.0738  22.2994  24.2037  25.7301  26.6872  27.1470  29.4413
    29.6764  31.3638

          k = 0.6667-0.0000 0.6667 (  1766 PWs)   bands (ev):

   -81.5883 -45.0801 -45.0801 -45.0789  -6.3455   3.7502   4.2469   4.3236
     6.0743   6.1966   6.4846   6.6493   7.6839  12.6804  14.9651  16.2682
    17.5329  20.6634  21.5547  24.6588  26.2007  26.6547  26.6966  27.9176
    30.4211  31.8383

          k = 0.0000 0.8333 0.0000 (  1748 PWs)   bands (ev):

   -81.5883 -45.0806 -45.0792 -45.0792  -6.3917   3.8616   5.2306   5.2306
     5.5251   6.0413   6.3554   6.3554   6.5701  10.9877  16.4716  16.6100
    19.5192  19.5192  23.8378  24.0957  24.0957  26.4243  28.2675  28.5736
    29.8182  30.6461

          k = 0.9167-0.0833 0.9167 (  1754 PWs)   bands (ev):

   -81.5883 -45.0807 -45.0794 -45.0793  -6.3690   3.9649   4.9706   5.0670
     5.6583   6.2370   6.3253   6.3540   6.5018  10.9694  16.3356  16.7954
    19.4916  19.7426  23.5233  23.8227  24.3088  26.4188  28.1750  28.9298
    30.5126  31.1462

          k = 0.8333 0.0000 0.8333 (  1756 PWs)   bands (ev):

   -81.5883 -45.0806 -45.0796 -45.0792  -6.3527   4.0542   4.5251   4.7722
     5.8170   6.2723   6.3547   6.5420   6.7404  11.3548  16.0861  16.7099
    18.9431  19.7659  22.8598  24.0206  25.0136  26.6139  28.5901  28.7409
    29.6527  31.0944

          k = 0.0000-1.0000 0.0000 (  1756 PWs)   bands (ev):

   -81.5883 -45.0808 -45.0793 -45.0793  -6.3679   3.9895   5.2535   5.2535
     5.5041   6.0538   6.2983   6.2983   6.3874  10.7488  16.3883  16.9592
    19.8510  19.8510  23.6643  23.6643  24.0881  26.1812  27.7597  30.0089
    30.6327  31.4715

          k =-0.1667 0.3333 0.0000 (  1779 PWs)   bands (ev):

   -81.5884 -45.0791 -45.0785 -45.0784  -6.6630   4.2496   4.9009   5.2160
     5.8560   5.9959   6.4444   6.4528   7.3264  11.0266  16.9588  17.2583
    18.3814  19.2341  21.7430  22.5992  23.9413  24.5661  26.2802  28.7928
    30.8878  31.2750

          k =-0.2500 0.4167-0.0833 (  1777 PWs)   bands (ev):

   -81.5884 -45.0797 -45.0787 -45.0785  -6.5689   3.8889   4.5539   4.9042
     5.9231   6.0802   6.3928   6.8055   7.7313  11.8045  15.8385  16.7819
    17.7212  19.6685  22.0906  22.6427  24.9823  26.0653  26.4977  28.4258
    29.7412  30.5317

          k =-0.3333 0.5000-0.1667 (  1774 PWs)   bands (ev):

   -81.5884 -45.0802 -45.0789 -45.0786  -6.4713   3.5721   4.3045   4.5629
     6.0080   6.1492   6.4194   7.1990   8.0008  12.5176  14.9037  16.5065
    17.1052  20.3006  22.4757  22.6238  25.0474  26.2768  27.2378  28.6008
    29.7625  30.2213

          k = 0.5833-0.4167 0.7500 (  1771 PWs)   bands (ev):

   -81.5884 -45.0807 -45.0790 -45.0787  -6.3976   3.3468   4.1781   4.3118
     6.0951   6.1853   6.4537   7.5523   8.0825  13.0616  14.2277  16.4372
    16.6821  21.0437  22.4666  22.8927  23.9891  26.1745  27.5739  28.9162
    30.6940  31.1704

          k = 0.5000-0.3333 0.6667 (  1764 PWs)   bands (ev):

   -81.5884 -45.0808 -45.0790 -45.0787  -6.3701   3.2645   4.1699   4.1926
     6.1446   6.1838   6.4672   7.7353   8.0492  13.3375  13.9028  16.4516
    16.5282  21.8417  21.8446  23.2630  23.4381  26.3758  26.7068  30.5137
    30.7146  31.4801

          k =-0.1667 0.5000 0.0000 (  1766 PWs)   bands (ev):

   -81.5884 -45.0797 -45.0788 -45.0786  -6.5480   3.8008   4.8172   5.0584
     5.8167   6.0721   6.5237   6.5258   7.3695  11.9358  15.5933  16.8019
    18.2412  19.1097  22.6061  23.9775  24.5647  26.0539  26.1997  28.7352
    29.7131  29.8559

          k =-0.2500 0.5833-0.0833 (  1767 PWs)   bands (ev):

   -81.5884 -45.0801 -45.0790 -45.0788  -6.4668   3.6567   4.5054   4.7872
     5.9036   6.1612   6.4481   6.7773   7.6117  12.3408  15.0755  16.4782
    17.8437  19.6930  22.9648  23.7978  25.0228  25.6617  27.1198  28.7575
    29.9483  30.1583

          k = 0.6667-0.3333 0.8333 (  1761 PWs)   bands (ev):

   -81.5884 -45.0805 -45.0792 -45.0789  -6.3976   3.5702   4.2708   4.4994
     5.9963   6.2071   6.4345   7.0968   7.6931  12.7021  14.6315  16.4387
    17.3949  20.4024  22.8996  23.5292  24.6569  25.6894  28.0043  28.5741
    30.7643  31.4965

          k = 0.5833-0.2500 0.7500 (  1771 PWs)   bands (ev):

   -81.5883 -45.0806 -45.0793 -45.0789  -6.3602   3.5135   4.1920   4.3009
     6.0867   6.1995   6.4349   7.2780   7.7315  13.0897  14.2495  16.4785
    17.0535  21.0634  22.1886  23.4671  24.6170  26.1714  27.1522  30.0725
    30.7813  31.6962

          k = 0.5000-0.1667 0.6667 (  1767 PWs)   bands (ev):

   -81.5884 -45.0805 -45.0794 -45.0788  -6.3662   3.4864   4.2079   4.3057
     6.1206   6.1759   6.4455   7.1146   7.9267  13.4021  14.0305  16.3610
    16.9370  21.2100  21.9450  23.5570  24.7815  26.2624  27.1921  28.8169
    31.2923  31.9804

          k = 0.4167-0.0833 0.5833 (  1773 PWs)   bands (ev):

   -81.5884 -45.0803 -45.0793 -45.0787  -6.4135   3.5301   4.2308   4.5370
     6.0635   6.1769   6.4782   6.8354   8.0530  13.1193  14.4187  16.2370
    17.0434  20.4821  22.7773  23.7444  24.5620  25.8113  27.4580  28.2011
    31.1519  31.6141

          k = 0.3333 0.0000 0.5000 (  1775 PWs)   bands (ev):

   -81.5884 -45.0800 -45.0791 -45.0786  -6.4881   3.6665   4.3512   4.7826
     5.9915   6.1460   6.5659   6.5851   7.9873  12.5011  15.1111  16.3537
    17.3323  19.9220  22.7815  23.7381  24.7466  25.2437  26.9992  28.8792
    30.2722  30.5964

          k =-0.1667 0.6667-0.0000 (  1773 PWs)   bands (ev):

   -81.5884 -45.0802 -45.0791 -45.0790  -6.4460   3.7036   4.7911   4.9779
     5.7854   6.1415   6.4736   6.5154   7.1565  11.8425  15.6146  16.5135
    18.5306  19.3511  23.3320  24.5027  24.6222  26.2014  27.4762  28.3411
    29.5385  30.0792

          k = 0.7500-0.2500 0.9167 (  1766 PWs)   bands (ev):

   -81.5883 -45.0804 -45.0794 -45.0791  -6.3914   3.7551   4.4929   4.7360
     5.8981   6.2198   6.4103   6.6683   7.2236  11.9448  15.5683  16.3877
    18.1732  19.9862  23.2260  23.9859  24.7772  26.2035  27.8791  28.4712
    30.1467  31.3931

          k = 0.6667-0.1667 0.8333 (  1771 PWs)   bands (ev):

   -81.5883 -45.0804 -45.0796 -45.0791  -6.3544   3.8302   4.2457   4.4872
     5.9972   6.2315   6.3974   6.8399   7.2983  12.2902  15.2722  16.4556
    17.6801  20.4883  22.5297  23.7760  25.5420  26.1553  27.4168  29.6874
    30.5787  31.0064

          k = 0.5833-0.0833 0.7500 (  1766 PWs)   bands (ev):

   -81.5883 -45.0803 -45.0798 -45.0790  -6.3455   3.7480   4.2522   4.3153
     6.0916   6.1962   6.4344   6.7545   7.5920  12.7841  14.8881  16.3152
    17.3379  20.9575  21.6735  24.2135  25.9940  26.2617  27.0409  28.6809
    30.6815  31.9362

          k = 0.5000 0.0000 0.6667 (  1764 PWs)   bands (ev):

   -81.5883 -45.0803 -45.0797 -45.0788  -6.3672   3.5977   4.2305   4.4152
     6.1354   6.1603   6.5228   6.6392   7.8950  13.2414  14.4264  16.1455
    17.1524  20.9284  21.7996  24.6043  25.2554  26.0416  27.5091  27.5862
    31.3871  32.0134

          k = 0.8333-0.1667 1.0000 (  1756 PWs)   bands (ev):

   -81.5883 -45.0806 -45.0793 -45.0792  -6.3809   3.8756   4.7999   4.9536
     5.7838   6.2049   6.3608   6.4201   6.7872  11.2954  16.3468  16.4059
    18.8631  19.8676  23.5236  24.0857  24.2784  26.7127  28.0722  28.9385
    29.1813  31.5332

          k = 0.7500-0.0833 0.9167 (  1761 PWs)   bands (ev):

   -81.5883 -45.0805 -45.0796 -45.0792  -6.3540   4.0144   4.4682   4.7255
     5.9116   6.2666   6.3465   6.4778   6.8828  11.5688  16.0863  16.5638
    18.2495  20.3136  22.9514  23.8442  24.8609  26.9006  28.1620  29.1450
    29.9777  30.5102

          k = 0.6667 0.0000 0.8333 (  1769 PWs)   bands (ev):

   -81.5883 -45.0803 -45.0799 -45.0791  -6.3410   4.0921   4.1557   4.4903
     6.0037   6.2457   6.4012   6.5618   7.1900  12.1159  15.6770  16.4436
    17.7117  20.5257  22.2146  24.1857  25.4411  27.0120  27.8264  28.8380
    29.8375  31.1302

          k =-0.1667-1.0000-0.0000 (  1758 PWs)   bands (ev):

   -81.5883 -45.0807 -45.0794 -45.0793  -6.3592   4.0225   4.8046   4.9511
     5.7939   6.2604   6.2984   6.3125   6.5920  11.0774  16.2911  16.8260
    18.9446  20.1900  23.3829  23.6560  24.4768  26.5319  28.3265  29.4893
    30.1886  30.2956

          k = 0.6667-0.3333 1.0000 (  1764 PWs)   bands (ev):

   -81.5884 -45.0803 -45.0794 -45.0789  -6.4066   3.6459   4.3440   4.6659
     6.0121   6.1887   6.5045   6.5878   7.6764  12.5726  14.9884  16.2242
    17.6341  20.1650  22.9778  24.4586  24.4960  25.8383  27.4582  28.1652
    31.2135  31.3351

          k = 0.5833-0.2500 0.9167 (  1764 PWs)   bands (ev):

   -81.5883 -45.0804 -45.0796 -45.0790  -6.3619   3.7012   4.2511   4.4552
     6.0855   6.1957   6.4302   6.7376   7.5796  12.7927  14.8784  16.2496
    17.3368  20.8189  22.2490  24.0334  25.3397  26.0683  27.6030  28.3762
    31.5823  31.6958

          k = 0.5000-0.1667 0.8333 (  1776 PWs)   bands (ev):

   -81.5883 -45.0804 -45.0797 -45.0790  -6.3455   3.7458   4.2593   4.3052
     6.1143   6.1885   6.4045   6.8604   7.4815  12.8959  14.8021  16.3737
    17.1510  21.1783  21.9562  23.6757  25.9363  25.9971  27.2206  29.7106
    30.5788  31.4509

          k = 0.6667-0.1667 1.0000 (  1765 PWs)   bands (ev):

   -81.5883 -45.0804 -45.0796 -45.0792  -6.3574   3.8948   4.3455   4.6115
     6.0554   6.2179   6.3802   6.4986   7.1884  12.1145  15.8366  16.1844
    17.6749  20.6536  22.6843  24.0850  24.7957  26.9307  27.8445  28.5952
    30.4282  31.3528

          k = 0.5833-0.0833 0.9167 (  1763 PWs)   bands (ev):

   -81.5883 -45.0803 -45.0799 -45.0792  -6.3388   4.0135   4.2420   4.4280
     6.1184   6.2366   6.3579   6.5157   7.1752  12.4472  15.7034  16.3145
    17.0811  21.2196  22.2227  23.8003  25.1451  27.2157  27.9514  29.3958
    30.2424  30.7553

          k = 0.5000 0.0000 0.8333 (  1766 PWs)   bands (ev):

   -81.5883 -45.0802 -45.0800 -45.0791  -6.3404   3.8918   4.2958   4.3398
     6.1509   6.1948   6.4080   6.5460   7.3462  12.7244  15.3225  16.2158
    17.1153  21.4977  21.6310  24.1406  25.2469  27.0493  27.8183  28.4456
    31.2298  31.3305

          k =-0.3333-1.0000 0.0000 (  1766 PWs)   bands (ev):

   -81.5883 -45.0804 -45.0797 -45.0793  -6.3418   4.1277   4.2926   4.5971
     6.0980   6.2978   6.2986   6.3268   6.9696  11.9316  16.1753  16.5213
    17.3077  20.9937  22.7484  23.6403  24.7958  27.3214  29.1979  29.3844
    29.4719  29.7679

          k =-0.5000-1.0000 0.0000 (  1768 PWs)   bands (ev):

   -81.5883 -45.0801 -45.0801 -45.0793  -6.3331   4.1000   4.3175   4.3175
     6.2749   6.2749   6.2986   6.3033   7.1002  12.5508  16.2505  16.2505
    16.3946  21.9215  21.9215  23.6326  24.8625  27.6287  29.1669  29.1669
    29.3769  31.2728

     the Fermi energy is     8.3408 ev

!    total energy              =    -317.89436226 Ry
     estimated scf accuracy    <          1.1E-11 Ry
     smearing contrib. (-TS)   =      -0.00000000 Ry
     internal energy E=F+TS    =    -317.89436226 Ry

     The total energy is F=E-TS. E is the sum of the following terms:
     one-electron contribution =    -172.60679764 Ry
     hartree contribution      =      94.78942896 Ry
     xc contribution           =     -33.03127968 Ry
     ewald contribution        =    -207.04571390 Ry

     convergence has been achieved in   9 iterations

     Writing all to output data dir out/mp-22922.save/
 
     init_run     :      0.12s CPU      0.21s WALL (       1 calls)
     electrons    :      4.35s CPU      4.66s WALL (       1 calls)

     Called by init_run:
     wfcinit      :      0.10s CPU      0.15s WALL (       1 calls)
     potinit      :      0.00s CPU      0.01s WALL (       1 calls)
     hinit0       :      0.00s CPU      0.04s WALL (       1 calls)

     Called by electrons:
     c_bands      :      3.87s CPU      4.12s WALL (      10 calls)
     sum_band     :      0.46s CPU      0.50s WALL (      10 calls)
     v_of_rho     :      0.02s CPU      0.02s WALL (      10 calls)
     mix_rho      :      0.00s CPU      0.00s WALL (      10 calls)

     Called by c_bands:
     init_us_2    :      0.03s CPU      0.04s WALL (     756 calls)
     init_us_2:cp :      0.03s CPU      0.04s WALL (     756 calls)
     cegterg      :      3.57s CPU      3.77s WALL (     360 calls)

     Called by *egterg:
     cdiaghg      :      0.96s CPU      1.02s WALL (    1355 calls)
     h_psi        :      2.36s CPU      2.53s WALL (    1427 calls)
     g_psi        :      0.02s CPU      0.02s WALL (    1031 calls)

     Called by h_psi:
     h_psi:calbec :      0.07s CPU      0.08s WALL (    1427 calls)
     vloc_psi     :      2.24s CPU      2.39s WALL (    1427 calls)
     add_vuspsi   :      0.04s CPU      0.04s WALL (    1427 calls)

     General routines
     calbec       :      0.06s CPU      0.08s WALL (    1427 calls)
     fft          :      0.01s CPU      0.04s WALL (     100 calls)
     ffts         :      0.00s CPU      0.00s WALL (      10 calls)
     fftw         :      2.39s CPU      2.55s WALL (   61018 calls)
 
     Parallel routines
 
     PWSCF        :      4.57s CPU      5.17s WALL

 
   This run was terminated on:  22: 5:55  22Nov2023            

=------------------------------------------------------------------------------=
   JOB DONE.
=------------------------------------------------------------------------------=
