
     Program PWSCF v.7.1 starts on 20Dec2023 at 23:12: 0 

     This program is part of the open-source Quantum ESPRESSO suite
     for quantum simulation of materials; please cite
         "P. Giannozzi et al., J. Phys.:Condens. Matter 21 395502 (2009);
         "P. Giannozzi et al., J. Phys.:Condens. Matter 29 465901 (2017);
         "P. Giannozzi et al., J. Chem. Phys. 152 154105 (2020);
          URL http://www.quantum-espresso.org", 
     in publications or presentations arising from this work. More details at
     http://www.quantum-espresso.org/quote

     Parallel version (MPI), running on    24 processors

     MPI processes distributed on     1 nodes
     122885 MiB available memory on the printing compute node when the environment starts
 
     Reading input from pw_mp-252_nscf_k260_E91.in
Warning: card &IONS ignored
Warning: card / ignored
Warning: card &CELL ignored
Warning: card / ignored

     Current dimensions of program PWSCF are:
     Max number of different atomic species (ntypx) = 10
     Max number of k-points (npk) =  40000
     Max angular momentum in pseudopotentials (lmaxx) =  4

     Atomic positions and unit cell read from directory:
     out/mp-252.save/
     Atomic positions from file used, from input discarded
 
 
     R & G space division:  proc/nbgrp/npool/nimage =      24
     Subspace diagonalization in iterative solution of the eigenvalue problem:
     one sub-group per band group will be used
     scalapack distributed-memory algorithm (size of sub-group:  4*  4 procs)

 
     Parallelization info
     --------------------
     sticks:   dense  smooth     PW     G-vecs:    dense   smooth      PW
     Min          59      59     17                 1489     1489     232
     Max          60      60     18                 1494     1494     235
     Sum        1417    1417    421                35749    35749    5601
 
     Using Slab Decomposition
 


     bravais-lattice index     =            2
     lattice parameter (alat)  =      10.7014  a.u.
     unit-cell volume          =     306.3778 (a.u.)^3
     number of atoms/cell      =            2
     number of atomic types    =            2
     number of electrons       =        20.00
     number of Kohn-Sham states=         1112
     kinetic-energy cutoff     =      91.0000  Ry
     charge density cutoff     =     364.0000  Ry
     Exchange-correlation= PBE
                           (   1   4   3   4   0   0   0)

     celldm(1)=  10.701363  celldm(2)=   0.000000  celldm(3)=   0.000000
     celldm(4)=   0.000000  celldm(5)=   0.000000  celldm(6)=   0.000000

     crystal axes: (cart. coord. in units of alat)
               a(1) = (  -0.500000   0.000000   0.500000 )  
               a(2) = (   0.000000   0.500000   0.500000 )  
               a(3) = (  -0.500000   0.500000   0.000000 )  

     reciprocal axes: (cart. coord. in units 2 pi/alat)
               b(1) = ( -1.000000 -1.000000  1.000000 )  
               b(2) = (  1.000000  1.000000  1.000000 )  
               b(3) = ( -1.000000  1.000000 -1.000000 )  


     PseudoPot. # 1 for Be read from file:
     /usr/scratch4/magr4985/MG/HTDF/pseudo/SG15/Be.upf
     MD5 check sum: dc1f98d164da9dc61a6fd2fad64b4ce2
     Pseudo is Norm-conserving, Zval =  4.0
     Generated using ONCVPSP code by D. R. Hamann
     Using radial grid of  602 points,  4 beta functions with: 
                l(1) =   0
                l(2) =   0
                l(3) =   1
                l(4) =   1

     PseudoPot. # 2 for Te read from file:
     /usr/scratch4/magr4985/MG/HTDF/pseudo/SG15/Te.upf
     MD5 check sum: dd4de4dac1e38587f63aaf3700bb29d3
     Pseudo is Norm-conserving, Zval = 16.0
     Generated using ONCVPSP code by D. R. Hamann
     Using radial grid of  602 points,  6 beta functions with: 
                l(1) =   0
                l(2) =   0
                l(3) =   1
                l(4) =   1
                l(5) =   2
                l(6) =   2

     atomic species   valence    mass     pseudopotential
        Be             4.00     9.01220     Be( 1.00)
        Te            16.00   127.60000     Te( 1.00)

     24 Sym. Ops. (no inversion) found



   Cartesian axes

     site n.     atom                  positions (alat units)
         1           Be  tau(   1) = (   0.0000000   0.0000000   0.0000000  )
         2           Te  tau(   2) = (  -0.7500000   0.7500000   0.7500000  )

     number of k points=    16  Gaussian smearing, width (Ry)=  0.0005
                       cart. coord. in units 2pi/alat
        k(    1) = (   0.0000000   0.0000000   0.0000000), wk =   0.0092593
        k(    2) = (  -0.1666667   0.1666667  -0.1666667), wk =   0.0740741
        k(    3) = (  -0.3333333   0.3333333  -0.3333333), wk =   0.0740741
        k(    4) = (   0.5000000  -0.5000000   0.5000000), wk =   0.0370370
        k(    5) = (   0.0000000   0.3333333   0.0000000), wk =   0.0555556
        k(    6) = (  -0.1666667   0.5000000  -0.1666667), wk =   0.2222222
        k(    7) = (   0.6666667  -0.3333333   0.6666667), wk =   0.2222222
        k(    8) = (   0.5000000  -0.1666667   0.5000000), wk =   0.2222222
        k(    9) = (   0.3333333   0.0000000   0.3333333), wk =   0.1111111
        k(   10) = (   0.0000000   0.6666667   0.0000000), wk =   0.0555556
        k(   11) = (   0.8333333  -0.1666667   0.8333333), wk =   0.2222222
        k(   12) = (   0.6666667  -0.0000000   0.6666667), wk =   0.1111111
        k(   13) = (   0.0000000  -1.0000000   0.0000000), wk =   0.0277778
        k(   14) = (   0.6666667  -0.3333333   1.0000000), wk =   0.2222222
        k(   15) = (   0.5000000  -0.1666667   0.8333333), wk =   0.2222222
        k(   16) = (  -0.3333333  -1.0000000   0.0000000), wk =   0.1111111

     Dense  grid:    35749 G-vectors     FFT dimensions: (  45,  45,  45)

     Estimated max dynamical RAM per process >      92.26 MB

     Estimated total dynamical RAM >       2.16 GB

     The potential is recalculated from file :
     out/mp-252.save/charge-density

     Starting wfcs are random

     Band Structure Calculation
     Davidson diagonalization with overlap

     ethr =  5.00E-06,  avg # of iterations =  9.9

     total cpu time spent up to now is      631.7 secs

     End of band structure calculation

          k = 0.0000 0.0000 0.0000 (  4477 PWs)   bands (ev):

   -92.4213 -28.1759 -28.1759 -28.1759 -28.1640 -28.1640  -4.1124   8.0774
     8.0774   8.0774  11.7361  11.7361  11.7361  11.8023  16.5322  18.5009
    18.5009  19.5411  19.5411  19.5411  23.2307  31.7584  31.7584  31.7584
    33.9842  33.9842  33.9842  35.8607  35.8607  35.8607  36.6783  36.6783
    43.4651  43.4651  43.4651  44.0587  46.1838  47.3399  47.3399  47.3399
    49.7040  49.7040  49.7040  50.8043  50.8043  50.8058  50.8058  50.8058
    50.8612  50.8612  50.8612  51.3586  51.3586  52.0623  52.0623  52.0623
    56.0255  56.4904  56.4904  56.4904  57.5206  57.5206  57.5206  61.6322
    62.7071  71.6864  71.6864  71.6864  74.1561  74.1561  74.3964  74.3964
    74.3964  74.9665  77.5807  77.5807  77.5807  82.9413  82.9413  82.9413
    83.8997  83.8997  84.4410  85.1170  86.8723  86.8723  86.8723  87.1267
    87.1268  87.1268  87.2777  87.2777  88.5364  88.5364  88.5364  90.7138
    90.7139  90.7139  91.4778  91.4778  91.4778  92.1948  92.1948  92.1948
    93.9186  94.2942  94.2942  94.2942  94.3176  94.3176  95.0859  95.0859
    95.0859  95.4379  95.4379  95.4379  95.6134  95.8092  95.8092 103.1003
   105.8429 105.8429 105.8429 108.2896 108.2896 108.2896 108.3339 108.3339
   108.3339 108.8906 108.8906 108.8906 109.3984 109.3984 109.3984 110.1766
   110.1766 113.1535 113.1535 113.5176 113.5176 113.5176 113.5569 116.6941
   118.5936 118.5936 118.5936 121.0363 121.0363 121.0363 123.4981 123.9938
   123.9938 123.9938 124.5708 124.5708 124.5708 124.8473 124.8473 124.8473
   125.1668 125.1668 125.1668 125.5030 125.5030 125.5039 125.5406 125.5406
   125.5406 127.3743 127.3743 128.2772 128.2772 128.2772 135.9557 135.9557
   135.9557 136.8230 136.8230 136.8230 136.9266 139.5049 144.5045 144.5045
   145.1761 145.1761 145.1761 146.9295 146.9295 146.9295 150.5685 151.8839
   151.8839 151.8839 153.3915 153.3915 153.3915 155.6925 155.6925 155.6925
   156.0808 156.0808 156.2267 156.2267 156.2267 158.9361 158.9361 158.9361
   159.0988 159.0988 159.0988 159.3611 159.3611 159.4309 160.7060 160.7060
   160.7060 160.7238 161.1527 161.1527 161.1527 162.4347 162.5404 162.5404
   162.5404 162.7552 162.7552 163.7719 163.7719 163.7719 163.8907 163.8907
   163.9714 163.9714 163.9714 164.3693 164.3693 164.3693 164.8151 165.4765
   165.4765 165.4765 166.6549 168.5821 168.5821 168.5821 168.5908 168.5908
   168.9744 168.9744 168.9744 169.0584 169.0584 169.0584 169.4344 169.4344
   169.5839 169.5839 169.5839 173.8824 173.8824 176.1256 176.1256 176.1256
   178.0406 178.0406 178.0406 178.2746 183.1670 183.1670 183.1670 183.4618
   183.4618 183.4618 183.4900 183.4900 183.4900 185.6167 185.9677 185.9677
   185.9677 186.9325 186.9325 187.0579 187.0579 187.0579 187.1202 189.6237
   189.6237 189.6237 191.0054 191.0054 191.7534 193.2650 193.2650 193.2650
   195.3483 195.3483 195.3483 195.4461 195.4461 195.4461 195.4757 195.4757
   195.4758 195.7690 195.7690 198.5951 199.9694 199.9694 199.9694 202.6630
   202.6630 203.0820 203.0820 203.0820 204.2856 204.2856 204.2856 204.4237
   204.8306 204.8306 204.8306 204.8440 204.8440 204.8440 205.3492 205.3492
   205.3492 205.5279 205.5279 209.7458 209.7458 209.7458 212.0206 212.0206
   217.9813 217.9813 217.9813 218.8490 219.1488 219.1488 219.1488 220.5319
   221.1545 221.1545 221.1545 221.7333 221.7333 221.7333 223.4602 223.4602
   224.1916 226.0045 226.0045 226.0045 227.7121 229.5817 230.5748 230.5748
   230.5748 234.1719 234.1719 234.1719 234.3252 234.3252 234.3252 234.6214
   234.6214 235.1704 235.1704 235.1704 235.5044 235.5044 235.5044 235.8196
   235.8196 235.8196 235.9283 235.9283 235.9283 235.9320 236.6670 236.6670
   236.6670 237.6865 237.6865 239.1603 239.1603 239.6891 239.9877 239.9877
   239.9877 240.0199 240.0199 240.0199 240.2475 240.2475 240.2475 242.1229
   242.1229 242.1229 242.6812 243.9367 243.9367 243.9386 243.9386 243.9386
   244.0259 244.0259 244.0259 245.9632 245.9632 245.9632 248.1431 248.8598
   248.8598 248.8598 250.4190 250.4190 251.5042 252.9376 252.9376 252.9376
   252.9389 252.9389 252.9389 253.4251 253.4251 253.4251 253.7357 253.7357
   253.7357 254.0131 254.0131 258.0738 258.0738 258.4677 258.4677 258.4677
   258.6512 258.6512 258.6512 258.9366 258.9366 258.9366 259.4410 259.4410
   259.4410 259.7647 259.7647 260.2852 260.9841 260.9841 260.9841 261.3823
   261.3823 261.3823 261.6792 264.9693 264.9693 264.9693 265.6058 266.4270
   266.4270 267.0528 267.0528 267.0528 267.2707 269.3408 269.3408 269.3408
   270.1804 270.1804 270.1804 270.2440 270.2440 270.2440 270.4685 270.4685
   270.4685 271.4116 271.4116 271.4116 271.6001 273.0617 273.0617 273.0617
   273.0668 273.0668 273.1941 273.1941 273.1941 273.3860 273.6930 273.6930
   273.8696 274.8258 274.8258 274.8258 274.8684 274.8684 274.8684 275.3246
   275.3246 275.3898 275.3898 275.3898 275.6852 275.6852 275.6868 275.6868
   275.6868 275.9585 275.9585 275.9585 276.1877 276.1877 276.1877 276.3091
   276.3091 276.3091 276.5405 276.5405 276.5405 276.9011 277.0913 277.0913
   277.0913 277.1238 277.1238 291.2315 291.2315 293.2497 293.2497 293.2497
   293.7126 298.4330 298.4330 298.4330 300.6766 300.6766 300.6766 302.1336
   302.6890 302.6890 303.8603 304.7007 304.7007 304.7007 305.2046 305.2046
   305.2046 305.4042 305.4042 305.4042 305.4136 305.4136 305.4136 306.1696
   306.1696 309.3334 309.9944 309.9944 309.9944 310.7971 310.7971 311.3036
   311.3036 311.3036 312.3425 313.1568 313.1568 313.1568 314.2896 314.6145
   314.6145 314.6145 314.7415 314.7415 314.7415 314.7580 314.7580 314.7580
   315.4260 315.4260 315.4260 317.3002 317.3002 317.6457 317.6457 317.6457
   317.9240 317.9240 317.9240 317.9561 318.2249 318.2249 318.2704 318.2704
   318.2704 318.3002 318.3002 318.3002 318.3375 318.3375 318.3375 318.4072
   318.4072 320.5107 320.5107 320.5107 321.0829 321.0829 321.8598 321.8598
   321.8598 322.0206 322.0206 322.0206 324.4167 330.8331 330.8331 330.8331
   331.9205 331.9205 332.0169 333.2673 333.2673 333.2673 333.3503 333.3503
   333.3503 333.5007 333.5007 333.5007 333.6133 333.6133 333.6133 334.5221
   334.5656 334.5656 334.5656 334.6072 334.6072 338.6783 338.6783 338.6783
   340.3933 340.6360 340.6360 340.6360 340.8501 340.8501 340.8501 340.9945
   340.9945 343.0523 343.0523 343.0523 343.2649 344.0707 344.0707 344.0707
   344.4227 344.4227 344.4299 344.5140 344.5140 344.5140 344.5709 344.5709
   344.6201 344.6201 344.6201 344.7488 344.7488 344.7488 344.8001 344.8001
   344.8001 346.2728 346.2728 346.2728 346.5871 347.3407 347.6041 347.6041
   347.6041 350.4941 350.4941 350.4941 350.5701 350.5701 350.5701 350.6132
   350.6132 350.6513 350.6513 350.6513 350.7193 353.7594 353.7594 353.7594
   354.4015 354.5821 354.5821 354.5821 354.7188 354.7188 354.9555 354.9555
   354.9555 355.9269 355.9269 355.9269 355.9567 355.9567 355.9693 355.9693
   355.9693 356.0730 356.0730 356.0730 356.0901 367.0774 367.0774 368.2877
   368.2877 368.2877 369.3442 369.3442 369.3442 369.5942 370.0576 370.0576
   370.0576 370.1017 370.1017 370.1017 370.1499 370.1499 370.1499 370.9152
   370.9678 370.9678 370.9678 370.9709 370.9709 372.7727 372.7727 372.7727
   374.0099 376.0364 376.0364 376.0364 376.3016 376.3016 376.3016 376.4170
   376.4170 376.5686 376.9943 377.8403 377.8403 377.8403 377.9512 377.9512
   377.9512 377.9518 377.9518 378.1972 378.1972 378.1972 378.4912 378.4912
   378.4912 378.9049 378.9049 383.9492 383.9492 383.9492 383.9868 383.9868
   383.9868 383.9961 383.9961 384.0931 384.0931 384.0931 384.2153 384.2153
   384.2153 384.4232 384.4232 384.8537 384.8537 384.8537 386.0582 386.1177
   386.1177 386.1177 386.1344 386.1344 386.1344 386.2879 386.2879 386.2879
   386.5046 386.5604 386.5604 386.5604 386.6682 386.7037 386.7037 386.7037
   386.7132 386.7132 386.7132 387.9919 387.9919 388.6105 388.6105 388.6105
   388.8378 390.1223 390.4687 390.4687 390.4687 390.9375 390.9375 390.9375
   390.9629 390.9629 390.9629 390.9789 390.9789 391.1637 391.1637 391.1637
   391.2127 391.2127 391.2127 391.5419 391.5419 392.8110 392.8110 392.9539
   392.9539 392.9539 393.2290 393.2290 393.2290 393.2816 393.3577 393.3577
   393.3577 393.3951 393.3951 393.3951 393.6505 393.6505 393.6540 393.6540
   393.6540 393.8917 393.8917 393.8917 394.0252 403.3765 403.3765 403.3765
   404.2559 404.5310 404.7554 404.7554 404.7554 410.7529 410.7529 410.7529
   410.7879 410.7879 410.7944 410.7944 410.7944 410.8011 410.8011 410.8011
   410.8138 410.8138 410.8138 410.8303 410.8303 416.7400 416.7400 416.9999
   416.9999 416.9999 417.4691 418.4975 418.4975 418.4975 418.7200 418.7200
   418.7200 418.7950 418.7950 418.7950 418.8245 418.8245 418.8245 421.4426
   421.4426 421.4426 422.3293 422.3293 422.3471 422.3471 422.3471 422.3727
   422.6643 423.7047 423.7047 425.4754 425.4754 425.4754 425.5141 425.5141
   425.5141 425.5931 425.5931 425.5931 425.7145 425.7145 425.7145 426.6086
   426.6086 426.6144 426.6144 426.6144 426.6305 439.4774 439.4774 439.4774
   440.0201 440.0201 440.0201 440.4194 441.0620 441.2905 441.2905 441.3810
   441.3810 441.3810 441.9257 441.9257 441.9257 442.2299 442.2299 442.2299
   442.2817 442.2817 442.2817 442.2883 442.2883 444.1338 444.1338 444.1338
   444.2847 444.2847 444.2847 444.4546 444.4546 444.8144 444.8144 444.8144
   445.4750 453.4403 453.4403 453.4403 455.4746 455.7988 455.8935 455.8935
   455.8935 457.9065 457.9065 457.9065 458.3813 458.3813 458.7022 458.7022
   458.7022 459.2195 459.2195 459.2195 459.3887 459.3887 459.4467 459.6714
   459.6714 459.6714 459.7423 459.7844 459.7844 459.7844 459.8136 459.8136
   459.8136 460.2373 460.2373 460.2373 460.4771 460.4771 460.4771 460.5919
   460.5919 460.8589 460.8589 460.8589 460.9952 462.2213 462.2213 462.3994
   462.3994 462.3994 462.7935 462.7935 462.7935 462.8275 462.8303 462.8303
   462.8396 462.8396 462.8396 462.8696 462.8696 462.8696 462.9870 462.9870
   462.9870 463.1015 463.1015 463.8633 464.1160 464.1160 464.1160 464.3395
   464.3395 464.3395 464.5426 464.5426 464.5426 464.5715 464.5715 468.6288
   468.6288 468.6288 468.9530 468.9530 468.9530 468.9693 468.9693 469.0537
   469.0999 469.0999 469.0999 476.4399 476.4399 476.4399 478.2104 478.2104
   478.2274 478.2274 478.2274 478.3614 478.6090 478.6090 478.6090 478.6668
   478.6668 478.6668 478.8397 478.8397 479.0011 479.4227 479.4227 479.4227
   479.4262 479.4262 479.5085 479.5085 479.5085 479.7401 479.7401 479.7401
   479.8189 481.5611 481.5611 481.5611 481.8216 481.8216 481.8216 482.0085
   482.0085 482.0085 482.2550 482.6509 482.6509 482.9337 482.9337 482.9337

          k =-0.1667 0.1667-0.1667 (  4498 PWs)   bands (ev):

   -92.4213 -28.1754 -28.1752 -28.1752 -28.1639 -28.1639  -3.8610   6.1225
     7.7112   7.7112  11.5425  12.2705  12.2705  13.8049  17.1415  17.3082
    17.3082  19.1674  21.9794  21.9794  25.0311  29.1195  29.1195  29.2470
    32.8134  32.8134  34.2143  36.4998  36.4998  38.2684  40.0689  40.2742
    40.2742  41.7684  41.7684  43.9763  44.5953  44.5953  45.6271  46.1362
    46.1362  46.3015  46.8887  48.9742  48.9742  50.5095  51.0364  51.0813
    51.0813  52.8422  52.8422  54.6460  54.6460  54.9063  55.1066  55.8147
    55.8147  57.2757  58.2442  58.2442  60.6449  60.6449  61.2774  63.2817
    66.5454  67.5339  67.5339  68.3052  71.3901  71.3901  74.1630  74.7180
    75.2974  75.2974  78.0687  78.0687  79.7200  80.2718  80.2718  80.7850
    81.5701  81.5701  82.3663  83.3849  84.3231  84.3231  85.1531  85.6495
    85.9303  85.9303  87.6308  87.6308  87.7335  88.0565  88.0565  88.9603
    89.4763  89.4763  90.8614  91.3397  91.3397  91.3955  93.1847  93.1847
    93.9661  95.5345  95.5345  96.4634  96.4634  96.8827  96.9364  97.3231
    97.3231  98.4709  98.4709  99.9565 100.5190 100.5190 102.1744 102.8904
   103.0018 103.9867 103.9867 104.8277 104.8277 104.8959 104.8959 104.9694
   107.1805 108.9529 109.4947 109.4947 110.6768 110.6768 111.2427 112.4924
   112.7438 112.7438 114.5525 114.5525 114.5934 115.1466 116.0209 116.0209
   117.2969 117.5392 117.6656 117.6656 118.7031 118.7031 119.7281 119.9265
   119.9265 121.1810 121.7185 121.7185 122.0929 122.0929 123.8517 125.4931
   126.8930 126.8930 128.6964 128.7118 128.7118 130.6112 130.6112 131.2248
   132.3612 132.6599 132.6687 132.6687 134.0785 134.0785 134.1277 136.2325
   136.2345 136.2345 137.2563 137.2563 138.2259 140.3002 141.2331 141.2331
   143.4934 143.4934 145.7199 145.8002 145.8002 146.3565 147.4086 147.4086
   147.4442 148.5542 148.5542 149.5091 150.9576 151.0136 151.0415 151.0415
   153.3560 153.3560 153.8909 154.3750 154.3750 154.5890 155.1304 155.1304
   155.8966 156.1233 156.1233 156.5936 157.1473 157.1473 158.2489 158.3980
   158.3980 158.6345 159.1173 159.1173 160.8319 161.1711 161.4954 161.4954
   162.7973 162.7973 164.0055 164.0055 164.1277 164.2375 165.2774 165.2774
   166.7270 166.9474 166.9474 167.5304 167.5725 167.5725 167.6226 168.2053
   168.2053 168.7092 168.7092 169.0873 170.5253 171.1967 171.3781 171.3781
   172.3000 172.3000 172.5806 172.7250 172.7250 172.9753 173.1529 173.7489
   173.7489 175.4806 175.4806 175.9374 176.4323 176.4323 176.6162 176.8951
   176.8951 178.0124 178.3870 178.3870 178.6876 178.6876 179.7668 179.9114
   180.7658 180.7658 181.3775 182.8368 182.8369 184.4577 184.7175 184.7175
   186.9429 187.0026 187.0026 187.5299 188.5953 188.5953 189.3046 189.3046
   189.3796 191.3262 191.6829 191.6829 191.8953 192.5955 192.5955 193.5597
   193.5597 194.0098 195.3101 195.3101 195.9160 196.2103 196.2103 196.5112
   197.3079 197.3079 198.2723 198.4530 199.1873 199.1873 199.5235 200.2866
   200.2866 202.2749 202.2749 203.1534 204.0424 204.0644 204.0644 204.0844
   205.6603 206.0768 206.0768 206.4059 209.1879 209.1879 210.5219 210.5219
   211.3297 212.8618 212.8618 213.1971 213.7169 213.7169 214.0327 214.0711
   214.0711 215.1621 216.1445 216.5714 216.5714 218.0655 219.0125 219.0877
   219.0877 219.9532 219.9763 219.9763 221.2758 221.2758 222.7471 223.2837
   223.2837 223.3652 224.3447 224.3447 225.4462 225.4462 226.2738 226.2738
   226.4277 226.8604 227.3356 228.1652 228.1652 228.6887 228.9947 228.9947
   230.3891 230.3891 230.5600 232.4308 232.4308 232.8963 234.3540 234.3540
   234.8103 234.8794 235.2629 235.2629 235.4324 235.4324 236.2488 238.2929
   238.2929 238.8220 238.8220 238.8359 238.9628 239.6685 239.6685 239.6994
   239.9047 240.6467 240.6467 242.4941 243.2692 243.5282 243.5282 244.2605
   244.2605 244.4460 245.0662 245.0662 245.2740 245.9517 246.2547 246.2547
   246.7335 247.8054 247.8054 247.8434 248.3413 248.6901 248.6901 249.5926
   249.5926 249.6453 250.2099 250.2099 250.3663 250.7658 250.7658 251.4720
   252.0075 252.0456 252.0456 252.4416 252.4416 253.8513 254.3984 254.3984
   254.9166 255.3222 255.3222 255.4330 255.5753 255.5753 256.5003 256.5003
   256.8680 257.2706 257.7306 257.7306 258.2914 258.2914 258.3108 258.6059
   259.0531 259.0531 259.6158 259.8246 259.8246 260.3787 260.3787 260.6216
   260.7076 260.7076 260.7985 262.2370 262.2370 262.4322 262.6056 262.6056
   262.8030 264.6807 264.6807 264.7605 265.8001 265.8001 265.9882 266.1261
   267.5754 267.5754 267.9249 268.2254 268.2254 268.8087 268.9825 268.9825
   269.2942 271.0429 271.0429 271.1804 271.2892 271.2892 271.6910 271.6910
   271.7499 272.0656 272.5941 272.5941 274.1376 274.1376 274.4491 274.6651
   274.6651 275.4645 277.8640 277.8640 278.1944 278.3039 278.3039 279.6442
   279.6442 279.9716 280.2848 280.2848 280.2951 280.3937 281.0580 281.4916
   281.4916 281.6737 282.3931 282.3931 282.5731 284.4802 285.1147 285.1147
   285.1896 285.3969 285.3969 286.2024 286.2024 287.5611 287.6673 287.6673
   288.0942 290.2517 290.2517 291.0807 291.0807 291.3014 291.8292 293.1419
   293.1419 293.3886 293.4371 293.4630 293.4630 294.8947 296.1788 296.1788
   296.6233 296.7301 296.7301 297.7010 297.7010 300.1489 300.1489 300.4190
   301.0284 301.0284 301.1068 301.9756 301.9756 302.2926 303.2438 303.2438
   304.5483 305.1749 305.1749 305.9863 305.9863 306.0522 306.4980 307.2824
   307.2824 307.3011 307.6671 307.7572 307.7572 308.9845 308.9845 309.0250
   311.7951 311.7951 313.2963 314.2661 314.2661 314.6503 315.4323 315.4323
   315.6872 315.7063 315.7063 315.9972 317.9937 318.2664 318.2664 318.8849
   319.9638 319.9638 320.4691 320.4691 320.6988 320.7447 321.3299 321.5076
   321.5076 321.7383 321.7383 321.9020 322.0108 322.0108 322.1755 322.8041
   322.8041 323.0400 324.6452 325.1305 325.1305 325.3049 325.3049 325.7233
   325.7813 326.1515 326.1515 326.1728 326.4703 326.4703 326.8084 326.8084
   327.2092 327.9185 327.9185 328.0200 328.4261 328.4261 328.4747 329.0742
   330.0710 330.0710 332.4940 332.4940 332.5916 332.5916 332.6620 332.6927
   333.4489 334.2479 334.2479 334.7220 336.7551 336.7551 337.5722 338.1629
   338.1629 339.3282 339.4747 339.4747 339.5426 339.6669 339.6669 339.8993
   340.1928 340.1928 340.6013 340.6013 340.6608 340.8389 340.8389 341.3801
   343.3811 343.3811 343.4971 343.6655 343.6655 343.8106 345.2774 345.2774
   345.4475 345.6279 345.6279 345.7004 346.4823 346.4823 346.5550 346.9839
   347.1261 347.1261 349.9242 350.3106 350.3106 351.1542 351.1542 351.1947
   351.4052 351.4052 351.4353 352.2353 352.2353 352.3022 352.4567 352.5394
   352.5394 353.0183 353.0183 353.1576 353.7372 353.8818 353.8963 353.8963
   354.4815 354.4815 354.5047 356.1189 356.1189 358.1202 358.5326 358.5326
   358.7549 358.8629 358.8629 359.1768 359.4926 359.4926 360.0064 360.0064
   360.7869 361.6179 361.6179 362.7127 362.7127 363.2054 363.3112 363.3609
   363.3609 363.6760 363.7935 364.2129 364.2129 364.2897 364.9166 364.9515
   364.9515 365.3925 365.3925 366.9701 366.9701 367.0487 367.1709 368.8959
   368.8959 369.9584 370.0377 370.0377 370.1536 371.0748 371.0748 371.2638
   371.4589 371.4589 371.6253 371.7235 371.9902 371.9902 372.6837 372.6837
   372.8811 372.8811 373.0722 373.4434 374.6580 374.6580 374.7297 375.0733
   375.1545 375.1545 375.6322 375.6473 375.6473 376.1204 376.2607 376.2607
   376.9909 376.9909 377.0804 377.1163 377.1163 377.2265 377.6026 377.6026
   377.6525 377.9308 377.9308 378.0075 379.0792 379.0792 379.0957 379.8291
   382.9377 382.9642 382.9642 383.3507 383.3507 383.7527 384.5136 384.5136
   384.5187 385.1177 385.1177 385.1930 385.7210 385.7210 386.1153 386.2734
   386.2734 386.7138 386.7138 387.8279 387.8900 388.5382 388.5382 389.5321
   389.5321 390.0470 390.0755 390.3390 390.3390 390.6037 390.7674 390.7674
   392.5267 392.5318 392.5318 392.9246 392.9246 393.1451 394.9884 394.9884
   395.0030 395.9033 395.9587 395.9587 396.0723 396.2411 396.2411 397.7952
   398.5474 398.5474 398.6519 398.8164 398.8164 398.8590 399.2794 399.2794
   399.2801 399.8510 399.8510 400.4475 400.7961 400.9051 400.9051 401.2463
   401.2463 402.1304 402.1304 402.1922 402.2484 402.2484 402.3436 402.4448
   402.4448 402.4739 403.5803 404.1204 404.1204 404.9747 404.9747 404.9902
   405.1116 405.7178 405.7178 406.7875 406.7875 406.8023 407.2336 407.3980
   407.3980 407.6672 407.6672 408.1687 408.3230 408.3230 409.5946 410.0541
   410.0541 410.1171 411.5049 411.6307 411.6307 411.6653 411.9115 411.9115
   412.3542 413.7162 413.7162 414.9855 414.9855 415.0156 415.8668 415.9087
   415.9087 416.4468 417.4275 417.4275 417.4403 417.5848 417.5848 417.9840
   417.9852 417.9852 421.6062 421.6062 422.3022 422.5228 422.5664 422.5664
   426.5799 426.5799 426.8313 428.3136 429.4702 429.4702 429.7868 430.0893
   430.0893 430.1306 430.1767 430.2947 430.2947 430.2963 433.3491 433.3491
   433.5838 434.8892 434.9046 434.9046 435.7136 435.7136 436.1136 436.1136
   436.6252 437.4530 437.4530 437.8948 437.9803 437.9803 438.1722 438.2486
   438.2486 439.6665 439.6665 439.6980 440.7759 440.7759 440.8560 441.2320
   441.2320 441.8625 442.3324 442.5449 442.5449 442.7464 442.9225 442.9225
   443.1641 443.6433 443.6433 444.0340 444.0340 444.4466 445.1521 445.1521
   445.1647 445.9297 445.9297 446.0613 446.1452 446.1452 446.6774 446.7316
   447.3295 447.3295 447.5694 447.5943 447.5943 448.1140 448.1140 448.2874
   452.0570 452.0570 452.0597 453.7506 453.7506 453.8284 454.3395 454.3395
   454.4283 455.1230 455.1230 455.1762 456.0071 456.0071 456.3977 457.1998
   457.1998 457.2836 458.6825 458.6825 458.8985 459.0500 459.0500 459.7558
   459.9965 459.9965 460.0586 460.3375 460.6138 460.6138 461.7061 461.7937
   461.7937 463.4294 463.4294 463.5024 463.5540 463.5540 463.6286 463.7425
   463.7425 463.7476 464.3068 464.5971 464.9104 464.9104 465.0502 465.0502
   465.2748 465.2748 465.3270 466.0329 466.0329 466.3498 467.6023 467.9183
   467.9183 469.1381 469.1381 469.1402 470.0017 470.0017 470.2290 470.2503
   470.3734 470.3734 470.5058 471.0242 471.0242 471.0422 472.1039 472.1039
   472.8905 472.9054 472.9054 473.2178 473.2178 473.2716 473.6293 474.1519
   474.1519 474.3996 474.4724 474.5237 474.5237 474.6851 474.6851 474.7572
   474.7572 474.8952 474.9034 474.9034 475.1168 475.2288 475.2304 475.2304
   475.5579 477.6434 477.8594 477.8594 478.3255 478.9261 478.9261 479.4390
   479.4390 479.4729 480.5162 480.5162 480.6185 480.6905 480.7072 480.7072
   480.8650 481.0968 481.0968 481.4404 481.7160 481.7160 481.9400 482.0322

          k =-0.3333 0.3333-0.3333 (  4462 PWs)   bands (ev):

   -92.4213 -28.1745 -28.1739 -28.1739 -28.1634 -28.1634  -3.2355   3.7117
     7.1847   7.1847  11.2538  12.7328  12.7328  15.9047  17.4797  17.8296
    17.8296  20.7114  24.3731  24.3731  26.0411  26.0411  26.2940  29.1445
    33.1527  33.1527  34.6980  34.7617  36.3205  36.3205  37.3783  37.3783
    39.6431  41.6613  41.6613  41.9084  42.6325  42.6325  43.5340  43.5668
    46.1948  46.6134  46.6134  49.1700  49.1700  49.6705  50.8496  50.8496
    52.9887  55.0848  55.0848  57.0856  57.8101  57.8101  58.7853  60.2307
    60.2307  60.6808  62.7231  62.7231  62.9312  64.0280  64.2467  64.2467
    65.5349  65.5349  67.5557  67.5557  68.1814  70.0680  70.0680  72.1976
    72.5632  73.6189  73.6189  74.4115  75.1903  77.0898  77.1546  77.1546
    78.3677  80.1767  80.1767  82.9958  82.9959  84.2600  84.7988  84.7988
    84.9394  86.3054  87.1968  87.1969  87.4768  88.2494  88.2494  88.4346
    88.9759  88.9759  90.9513  90.9513  91.2544  91.4998  92.0082  92.0082
    93.8422  96.2520  96.2520  97.9922  98.0267  98.6212  98.6212  99.5128
    99.9047  99.9047 100.7961 101.4336 101.6394 101.6394 102.7424 102.7424
   103.5920 104.5462 104.5462 106.0498 106.0498 106.4769 108.6234 108.9372
   108.9372 109.3117 109.6006 109.6006 110.8865 110.8865 111.1195 111.5578
   111.5578 112.0023 112.3479 114.2363 114.2363 115.4851 115.4851 115.7046
   115.7681 115.7681 116.6329 117.4093 117.4093 118.3392 119.6455 119.6455
   120.0784 122.4833 123.2512 124.1342 124.1342 125.4924 125.4924 129.1729
   129.1729 129.1792 130.9141 131.6036 131.6036 131.8659 132.8606 132.8606
   133.8160 134.0409 134.5104 134.5104 134.8899 134.8899 135.8137 136.2693
   137.4232 137.4232 138.7806 138.8940 138.8940 139.7991 139.7991 140.4352
   140.4352 140.9883 141.8430 141.8430 142.3360 143.2270 143.9433 143.9433
   144.5044 145.6697 145.6697 145.6862 146.3580 146.3580 148.6276 148.6276
   149.2795 151.0521 151.3520 151.3520 152.0377 152.0781 152.0781 152.9342
   153.1592 153.1592 153.9111 156.0592 156.0592 156.1079 157.4550 157.4550
   157.7665 158.9730 159.3613 159.3613 160.3542 160.3542 160.3860 161.4092
   161.5680 161.5680 162.1277 162.8234 162.9302 162.9302 163.9412 163.9412
   164.2811 165.0011 165.0011 166.3198 166.9246 166.9246 168.2853 168.7496
   168.7496 169.5707 169.9816 169.9816 171.1088 171.1088 171.7170 172.4527
   172.8968 172.8968 174.2812 174.2812 174.5553 174.8262 175.3734 175.3734
   176.3593 176.3593 176.6358 177.1365 177.4256 177.4256 178.6251 178.6251
   179.3005 180.0343 180.0343 180.4573 182.0864 183.2291 183.4747 184.1512
   184.1512 184.8141 184.8782 184.8782 186.0848 186.0848 187.0672 187.4611
   187.4611 188.4787 188.4787 188.8246 189.1036 189.1721 189.1721 190.0615
   190.0615 191.1746 191.1746 192.3574 192.8000 192.8000 192.8820 193.8152
   194.4019 195.3390 195.3390 196.7057 197.9469 197.9469 198.9383 199.4118
   199.4118 200.1980 201.0196 201.0196 201.7756 201.7756 202.3637 203.7559
   203.7559 204.6449 205.3523 206.3061 206.3061 207.0486 207.0486 207.3985
   208.3198 208.3198 209.4187 209.9077 210.1261 210.1261 210.4336 210.4336
   210.5214 210.8951 211.5734 212.2021 212.2021 212.3147 212.3147 213.2187
   213.2187 213.3842 213.8800 214.2865 214.2865 214.8591 215.4494 215.4494
   216.0014 217.2767 217.2767 217.8152 217.8424 217.8424 219.6061 219.6061
   219.8086 220.6965 221.8515 221.8515 221.9827 222.6367 222.6367 223.3636
   223.3636 224.0957 224.0957 224.3325 224.5349 225.2988 227.0785 227.0785
   227.3353 229.2836 229.2836 230.4963 231.3680 231.3680 232.6412 232.7031
   232.7031 233.2242 233.8468 233.8468 234.6163 235.5047 235.5772 235.5772
   236.0410 236.2119 236.2119 237.4572 237.4572 237.8521 238.4046 238.4046
   238.9919 238.9919 239.1065 239.4125 239.4565 239.4565 241.4870 241.4870
   241.7757 242.5640 242.5640 243.3358 243.8853 243.8853 245.0209 245.3839
   245.3839 245.7873 245.9038 245.9038 246.0531 247.4566 247.4566 247.6833
   248.0334 248.0334 248.6639 248.9463 248.9463 249.0623 250.4684 250.4684
   250.7717 251.4516 251.4516 251.7921 252.5313 252.5313 253.8240 254.2656
   254.2693 254.2693 256.3956 256.8453 256.8453 258.1580 258.1580 258.2066
   258.5035 258.5035 258.5106 259.2378 259.3164 259.6458 259.6458 260.3295
   260.5386 260.5386 260.9592 260.9592 261.0998 261.2217 262.6586 262.9792
   262.9792 264.4943 264.4943 264.5418 265.1991 265.1991 265.5287 265.6876
   265.6876 265.9061 266.7320 266.7320 267.8805 267.9039 267.9039 268.2770
   268.2770 268.3898 268.9016 268.9016 269.4480 269.4480 269.6863 269.7883
   270.0577 270.1144 270.1144 272.4349 272.4349 272.4409 272.6909 276.2691
   276.6699 276.6699 276.9363 276.9363 278.3792 278.3792 279.3614 279.6494
   279.6494 280.3060 280.3060 280.4220 281.3052 281.7354 281.7354 281.9782
   282.3844 282.3844 284.3275 284.6030 284.6261 284.7100 284.7100 285.4167
   285.4167 285.6047 285.7535 285.9023 285.9023 286.2678 286.2678 286.3436
   286.7508 286.7508 287.4403 287.4484 287.4484 287.9729 289.8936 289.8936
   290.0132 290.7417 290.7417 290.9299 291.4076 291.4076 294.2717 294.2717
   294.2845 294.6872 294.9076 294.9076 297.0733 297.0733 297.2195 297.4146
   297.4146 297.6302 297.6302 297.8123 299.2250 299.2250 299.2491 299.4244
   299.6905 300.5207 300.5207 300.6104 301.7149 301.8674 301.8674 302.5771
   302.7399 302.7399 302.8890 302.9102 302.9102 304.3937 304.3937 304.9668
   305.4059 305.6385 305.6385 306.1019 307.0476 307.1243 307.1243 307.9717
   307.9717 309.1732 309.1732 309.6421 310.1783 310.1783 310.5473 310.7878
   311.1070 311.1070 311.4321 311.4321 311.6003 311.8106 314.1291 314.4725
   314.4725 315.4428 315.4428 316.0900 316.0900 316.0968 316.1484 317.4381
   317.4381 317.7127 317.7127 319.3283 319.3283 319.5732 320.2883 320.5381
   320.5381 321.1278 321.6448 321.6448 321.7431 323.6906 323.9577 323.9577
   324.1164 324.3257 324.3257 326.8306 326.8306 327.1695 328.3521 328.3521
   328.3878 328.9690 331.3171 331.3171 331.7746 331.7746 332.0212 332.6068
   332.6068 332.6323 334.6133 334.6133 334.7625 334.9461 335.3581 335.3581
   335.9612 335.9612 336.3205 336.5057 336.8300 336.8300 338.0333 338.0333
   338.5752 338.5758 338.8015 338.8015 339.3852 339.3852 339.4086 339.8757
   339.8757 341.8597 342.1593 342.6698 342.6698 343.1046 343.2476 343.2476
   343.3631 343.6718 343.6718 344.4395 345.4924 345.4924 345.9538 345.9538
   346.2614 346.3738 346.3738 346.5336 347.1526 347.4535 347.4535 347.7591
   348.3616 348.7533 348.7533 348.9374 348.9374 349.1399 349.3947 349.3947
   350.1354 350.1354 350.7293 350.7293 350.7323 350.7393 352.4552 352.4889
   352.4889 353.2790 353.2790 353.3812 353.8462 353.8462 353.8463 355.3563
   355.6449 355.6449 355.9597 356.1615 356.1691 356.1691 356.6529 356.8059
   356.8059 357.0937 358.1785 358.1785 358.7485 358.7485 359.1544 359.1808
   359.5655 359.5655 360.1505 360.2042 360.3422 360.3422 360.9588 360.9588
   361.2714 361.2714 361.2921 361.3763 361.8997 362.0497 362.0497 362.3529
   362.5126 362.5126 362.6953 362.6953 363.1377 363.1377 363.6317 363.6317
   363.6397 364.0384 364.0384 364.0807 365.1443 365.1917 365.1917 365.4231
   365.4461 365.4461 367.0474 367.0474 367.2456 367.5556 367.5576 367.5576
   372.3436 372.4180 372.4180 373.7715 373.7715 374.2036 375.6505 375.6595
   375.6595 376.9186 377.4197 377.4197 377.6797 377.7990 377.7990 377.9392
   377.9392 378.0717 379.8502 379.8502 379.9399 382.0803 382.2470 382.2470
   383.1208 383.1208 383.1853 383.8166 383.8212 383.8212 384.2582 384.2582
   384.3393 384.4104 384.4104 384.6434 384.6593 384.6593 384.7361 385.1436
   385.2358 385.2358 385.5997 385.5997 385.6081 388.5036 388.7218 388.7218
   389.4990 389.5778 389.5778 389.7797 389.8864 389.8864 390.1900 390.2308
   390.2308 390.8733 390.8733 390.9516 391.9844 392.6890 392.6890 392.7026
   393.9164 393.9223 393.9223 394.6680 394.6680 395.3135 397.5425 397.6328
   397.6328 397.7572 397.7572 398.0214 398.3696 398.3696 398.3909 399.4325
   399.4325 399.4571 399.6343 399.6343 400.0177 400.5401 400.5401 400.6663
   400.6663 400.6930 400.8403 400.9687 400.9687 401.5244 401.8034 401.8034
   401.8359 403.1224 403.1224 403.3814 404.5254 407.1211 407.1211 407.5001
   408.4389 408.4389 408.5600 408.7943 408.9794 408.9794 410.3905 410.3905
   410.5486 410.9830 410.9830 410.9969 411.0826 411.1085 411.1085 411.1624
   411.2169 411.2169 411.4455 411.4455 413.6971 413.9519 413.9519 414.5450
   414.7577 414.7577 414.8481 414.8614 414.8614 416.2033 416.3240 416.3240
   416.5878 416.5878 416.6119 418.4603 418.4603 418.5948 418.8241 418.8241
   418.8831 419.6128 419.8836 419.8836 420.8398 421.4353 421.4353 421.8632
   422.1029 422.1029 423.2620 423.9720 424.1164 424.1164 424.4686 424.5042
   424.5042 424.9973 424.9973 425.0046 425.3858 425.3858 426.8874 427.0039
   427.0039 430.4203 430.6819 430.6819 430.8525 430.8525 431.0097 431.5088
   431.5088 433.1381 433.1381 433.3585 433.7803 433.8105 434.2441 434.2441
   435.0988 435.2663 435.2663 435.4598 435.4598 435.4926 435.6768 435.9515
   435.9827 435.9827 436.6083 436.6083 436.6442 437.4029 437.4029 439.4954
   439.4954 439.9698 439.9698 440.0814 440.1970 441.3482 441.4056 441.4056
   441.8987 441.8987 441.9301 442.2388 442.2388 442.3335 443.1831 443.1831
   443.4860 443.6045 444.0025 444.0025 444.3999 444.3999 444.5146 444.6844
   444.6844 444.9224 444.9831 446.1332 446.1402 446.1402 446.3564 446.4311
   446.4311 446.5707 447.0099 447.0099 447.3643 447.3643 448.6679 448.6679
   448.9497 448.9649 452.1953 452.3993 452.3993 452.8538 452.8538 452.8714
   453.2423 453.2423 453.5067 454.3408 454.3408 454.4627 455.4409 456.9639
   456.9639 456.9923 457.6887 457.6887 457.8168 457.8421 457.8421 457.9282
   458.9001 458.9001 459.1139 459.8061 459.8061 459.8509 460.0345 460.0345
   460.1517 460.3137 460.3137 460.3981 460.5175 460.6336 460.6336 461.3651
   461.3694 461.3694 462.2370 462.2370 463.2475 463.5486 463.5486 463.7883
   463.7909 463.7909 463.9365 463.9635 463.9635 465.6908 465.6936 465.6936
   466.9982 466.9982 467.2502 467.2906 467.2906 467.3501 469.0753 469.0753
   469.0777 469.9851 469.9851 470.1944 470.2460 470.2460 470.2947 470.4586
   470.4586 470.7617 470.9494 471.0294 471.0294 472.4013 472.4013 472.4901
   472.5611 472.7302 472.7302 473.0631 473.8616 473.8826 473.8826 474.1071
   474.1071 474.2185 474.7661 474.7661 480.5512 480.5512 480.7053 480.7479
   480.7479 480.7494 481.4131 481.4131 481.8969 481.8969 481.9401 482.3516
   482.3516 482.3915 482.4132 482.4240 482.4240 482.8064 483.8226 483.8226

          k = 0.5000-0.5000 0.5000 (  4476 PWs)   bands (ev):

   -92.4213 -28.1741 -28.1734 -28.1734 -28.1631 -28.1631  -2.8152   2.6539
     6.9774   6.9774  11.1397  12.7106  12.7106  16.0161  19.0540  19.7413
    19.7413  20.4128  21.5132  21.5132  27.2987  29.4227  29.4227  30.6301
    31.2938  31.2938  33.6630  34.5051  34.5051  35.0107  35.1022  37.9641
    37.9641  40.6399  40.6399  41.3090  41.3090  42.1968  42.4482  43.7103
    45.4965  47.4315  47.4315  49.6595  49.6595  51.1186  53.1270  53.6023
    53.6023  56.6137  56.6137  57.5765  58.1940  58.1940  59.5264  60.0566
    60.0566  63.2627  63.2627  63.4855  64.5904  64.5904  65.4549  66.1785
    66.1785  66.2282  67.6453  67.8346  68.3392  68.3392  69.9808  70.6459
    70.6459  71.4142  71.4142  74.2158  74.7422  74.7422  75.6362  76.9468
    76.9468  77.4226  79.8780  80.6552  80.6552  83.3342  83.3342  83.5725
    84.9101  85.9715  86.7315  86.7315  88.0035  88.0035  88.0845  88.4861
    90.0919  90.0919  92.1143  92.7651  93.3106  93.3106  93.3456  94.8422
    94.8422  95.0624  95.3513  95.9043  96.1187  96.1187  96.8093  96.8093
    98.3782  98.3782 101.1726 102.4195 102.4195 104.2177 104.2177 105.0106
   105.1061 105.1061 105.3011 105.7436 106.0915 106.0915 106.5709 106.5710
   107.5022 108.9292 109.4346 110.3206 110.3206 112.0859 112.2414 112.2414
   114.0499 114.0499 114.6857 114.9487 114.9487 115.8703 117.0456 117.0456
   117.7008 117.7008 119.2558 120.0225 120.0225 121.1443 121.1443 122.0067
   123.2063 123.2381 123.2381 123.2825 125.2610 125.5631 126.7081 126.7081
   127.4781 127.5426 127.5426 127.9385 127.9385 129.7326 130.2903 130.2903
   131.1642 132.9179 132.9179 133.7081 133.7081 135.5397 135.9881 135.9881
   136.7620 137.5319 137.9506 138.9212 138.9212 139.2856 139.4640 139.4640
   140.9014 140.9014 141.0098 141.7958 143.9036 143.9036 145.8945 145.8945
   146.7726 147.9418 148.6664 148.6664 149.4684 149.4684 149.9634 150.0341
   150.0341 150.3420 150.5800 150.5800 150.7593 150.7593 151.5203 151.5203
   151.6566 152.2817 152.9846 152.9846 153.2182 154.7442 154.7442 155.0620
   155.3085 157.0109 157.0109 157.6729 159.2726 159.2726 159.2783 159.8912
   159.8912 160.4340 160.4340 161.2463 161.4577 161.4577 162.9067 164.0812
   164.0812 164.9683 166.6266 166.6266 166.8875 167.8757 168.6241 168.6241
   169.3964 170.1197 170.3902 170.3902 170.5031 170.5031 170.7409 170.9168
   171.8065 171.8065 173.0392 173.8277 173.9552 173.9552 174.7857 174.8498
   174.8498 175.5136 176.1762 176.1762 177.5907 178.9594 178.9594 179.4326
   180.1808 180.1808 181.8999 181.8999 182.4079 182.4079 182.5654 182.6982
   184.7627 184.7627 185.9590 187.8157 188.9903 188.9903 190.6821 190.6821
   191.0678 191.4503 191.4503 191.9166 192.5719 192.5719 193.1379 193.2020
   193.2020 194.0233 195.5747 195.9215 195.9763 195.9843 197.0367 197.0367
   197.2387 197.2387 199.2004 199.2004 199.7246 200.1779 200.9042 200.9042
   201.0518 201.0518 201.3443 201.3443 202.1932 202.1932 203.5570 203.5570
   203.6660 204.1339 204.1339 204.2711 205.0160 205.0160 205.0999 206.1145
   206.6750 206.6750 206.7765 206.7765 206.9507 207.1902 207.2600 207.2600
   207.4736 207.4736 208.7567 208.7716 209.2159 211.5785 211.5785 211.7308
   214.0537 214.0537 214.3493 215.4309 215.4309 215.5921 216.8372 216.8372
   217.8717 217.8717 217.9620 218.3496 218.3901 218.3901 218.6400 218.6400
   218.8244 219.7160 220.6182 220.6182 221.5832 221.5832 221.9045 221.9045
   222.2572 222.7682 223.7253 223.8801 224.2555 224.2555 224.4628 224.4628
   226.8081 226.8081 226.8308 226.8308 227.1179 227.2337 230.8468 231.8287
   231.8287 232.6778 233.1281 233.1281 233.8995 233.8995 234.4685 234.8819
   234.8819 234.9688 234.9688 235.0174 235.3874 235.5088 235.5088 235.5373
   237.8525 238.1575 238.1575 239.6515 239.6515 239.7668 240.8099 240.9862
   240.9862 241.1564 242.2184 242.2184 242.7507 243.4919 243.5151 244.1854
   244.1854 244.7786 244.7786 245.0099 245.3174 245.3174 247.3673 247.3673
   248.4403 248.4403 249.5119 251.1095 251.1095 251.8498 252.6661 252.7245
   252.7245 252.9260 253.4114 253.4114 253.6208 253.9681 254.5046 254.5142
   254.5142 255.3831 255.3831 256.4130 256.5447 256.5447 257.1871 257.1871
   257.9105 257.9105 258.5928 259.2460 259.2460 259.5428 260.4160 260.4745
   260.4745 260.9683 260.9683 261.2151 262.1616 262.1616 263.0835 263.3168
   263.3168 264.5555 264.6915 264.6915 266.8575 266.9044 266.9044 267.0666
   267.0666 267.2128 267.2129 267.2129 267.3843 267.8376 268.3619 268.3619
   268.4668 269.4286 269.4286 269.5320 272.0901 272.1485 272.4652 272.4652
   272.8778 272.8778 275.6347 275.6347 275.8534 276.0508 276.9458 276.9458
   277.1509 277.1509 277.5022 277.7004 277.7004 277.8716 277.9067 279.1632
   280.2775 280.2775 280.9367 280.9473 280.9534 280.9534 283.4345 284.1697
   284.1697 284.5063 285.1106 285.1106 285.9899 285.9899 286.3734 286.3734
   286.8549 287.2486 287.6284 287.6284 287.6922 288.3270 288.3270 288.3962
   289.3320 289.3320 289.3961 289.4047 289.5382 289.5382 291.5661 291.5661
   291.6367 291.6903 291.6903 291.7219 292.9301 292.9301 292.9947 292.9947
   293.0079 293.0815 294.2634 294.2634 294.3495 294.6154 294.6154 294.6452
   295.1156 295.8256 295.8256 295.9084 296.2317 296.2317 298.3351 298.3351
   299.0192 299.0192 299.1566 299.1834 299.5430 299.7138 299.7138 299.7587
   300.2588 300.2588 301.0996 301.0996 301.3080 301.3474 301.3490 301.3490
   304.0943 304.4974 304.4974 305.3921 305.3921 305.3970 307.2300 308.0227
   309.8337 309.8337 310.4232 310.5219 310.5219 310.5589 310.8227 310.8227
   311.8832 311.8832 316.5517 316.5517 316.8404 316.8404 317.2608 317.2608
   317.5626 317.7337 317.7389 317.8544 317.8544 317.9116 318.4149 318.4149
   318.5856 318.6262 318.6262 318.8407 319.6217 319.6217 319.6960 319.6960
   320.1219 320.1219 320.9659 320.9720 321.3411 322.1781 322.1781 322.4527
   323.2832 325.3783 325.4858 325.4858 326.8091 326.8091 326.8894 327.2213
   327.2213 327.2934 327.3650 327.3650 330.5075 330.5075 330.5681 330.5681
   330.7513 330.7564 332.3574 332.3574 332.6652 333.5024 333.5916 333.5916
   333.7937 334.3214 335.6263 335.6263 337.1048 337.1048 337.1200 337.2353
   337.6981 337.6981 338.5308 339.1953 339.1953 339.4661 339.5731 339.5731
   339.6136 339.6136 340.4122 340.7345 340.7345 340.9885 340.9885 341.1941
   342.2669 342.2669 342.3921 342.9681 342.9681 343.0557 343.7105 344.2865
   344.2865 344.6771 344.8810 344.8810 346.0553 346.0553 346.2821 346.3603
   346.3603 346.4144 347.1978 347.1978 347.4561 347.4561 347.7698 347.9577
   348.6415 348.8648 348.8931 348.8931 349.8323 349.8323 351.2120 351.2120
   351.3089 351.3208 351.3208 351.3272 353.7571 353.7571 354.1023 354.6400
   354.6400 354.7171 355.5511 355.7350 355.7350 356.4751 356.4751 356.8539
   357.0537 357.5020 357.5020 357.9221 357.9221 357.9950 360.1682 360.1682
   360.3689 360.6892 360.6892 360.7411 361.2011 361.2438 361.2438 361.6740
   361.7014 361.7014 361.8247 361.8247 361.9205 361.9335 361.9644 361.9644
   366.2366 366.2366 366.3185 366.3185 366.4130 366.4197 366.7645 366.7645
   367.5160 367.8620 368.4851 368.4851 368.5484 368.9124 368.9985 368.9985
   369.0860 369.1171 369.1171 369.2679 371.0868 371.0868 371.1540 371.1540
   373.1293 373.2242 373.2242 373.5693 373.5693 373.8261 374.0887 374.2905
   374.2905 374.4844 374.7709 374.7709 374.8016 374.8272 374.8356 374.8356
   374.8932 374.8932 377.3000 377.3000 377.5635 377.7197 377.7947 377.7947
   379.1533 379.8279 379.8279 380.3351 380.3351 380.5251 381.2470 381.6183
   384.0604 384.0604 384.0713 384.0910 384.0910 384.1255 386.6105 386.6105
   386.6748 386.6748 390.8565 390.8565 391.4654 391.5934 391.5934 391.8417
   392.1959 392.1959 392.4989 392.8302 392.8957 392.8957 392.9162 392.9162
   392.9894 393.0817 393.1630 393.1630 393.2483 393.2483 393.2730 393.3913
   393.3913 393.4291 395.7891 395.7891 395.8077 395.8493 395.8493 395.8650
   395.8786 396.6341 396.6341 397.2651 397.4105 397.4105 400.8237 400.8237
   401.3244 401.4321 401.4401 401.5361 401.5859 401.5859 401.6456 401.6456
   401.7637 401.7637 405.1445 405.1445 405.1887 405.2254 405.2332 405.2332
   405.8706 406.3242 406.3242 406.5410 406.6344 406.6344 407.3624 407.3624
   407.4240 407.9870 407.9970 407.9970 408.2091 408.2091 408.2899 408.3888
   408.4586 408.4586 408.6842 408.8383 408.8383 408.9701 408.9757 408.9757
   412.6629 412.6629 412.7124 412.7124 412.7763 412.7791 416.8153 416.8153
   416.8986 416.9668 416.9668 417.2084 418.0141 419.7302 420.7231 420.7231
   421.7203 421.7203 421.7482 421.7633 421.8321 421.9688 421.9688 422.1230
   422.3784 422.3784 422.8529 422.8529 423.1934 423.1934 423.5786 424.0697
   424.6552 424.6552 424.9818 425.1989 425.2153 425.2153 427.2564 427.2564
   427.6018 427.6018 427.6352 427.8171 428.2368 428.2368 428.5620 428.5830
   428.7669 428.7669 428.8660 428.9847 429.6869 429.6869 429.7232 429.7232
   430.8212 430.8212 431.0594 431.0698 431.0698 431.7098 431.7325 431.7362
   431.9029 431.9029 432.1929 432.1929 432.9098 432.9244 432.9381 432.9381
   432.9788 432.9788 433.1890 433.1890 433.2234 433.2911 433.2911 433.3069
   439.2121 439.7329 439.7329 440.2735 440.7105 440.7105 440.9037 440.9037
   441.0620 441.1626 441.1626 441.3358 441.4379 441.4379 441.5004 441.6927
   441.6927 441.8879 441.8988 441.9592 441.9592 442.0131 442.0131 442.2003
   442.9810 443.8850 443.8850 444.2885 444.2885 445.1534 446.8743 446.9200
   446.9200 446.9897 447.0113 447.0113 447.2747 447.9791 449.5573 449.5573
   449.6920 449.6920 450.2103 450.2103 450.3031 450.3732 450.5359 450.5501
   450.5501 450.6200 450.6200 450.7799 450.7799 450.8432 453.0093 453.0093
   453.4691 453.5732 453.5732 453.5872 456.1175 456.1175 456.1511 456.1511
   457.7704 457.7716 457.8401 457.8401 457.8626 458.8165 458.8188 458.8776
   458.8776 458.9449 458.9630 458.9630 459.1222 459.1222 459.2318 459.7137
   459.7137 460.0475 460.1699 460.3621 460.3621 460.8032 461.7786 461.7786
   461.9525 461.9525 464.0669 464.0669 464.0706 464.0706 464.8403 464.8403
   464.9092 464.9131 465.1189 465.1839 465.1900 465.1900 467.7613 467.7613
   468.0825 468.1787 468.1787 468.2169 474.5413 474.5413 475.4338 475.6233
   475.8896 475.8896 476.2628 476.2628 476.2724 476.3273 476.3273 476.3945
   476.4640 476.4640 476.6426 476.6426 476.6629 476.7966 476.8063 476.8702
   476.8702 476.9088 476.9088 476.9514 477.0159 477.3265 477.3265 478.1453
   478.1453 478.4970 478.8105 478.9479 478.9479 479.1646 479.1646 479.2160
   481.5143 481.9628 481.9628 482.1452 482.4098 482.4098 482.6592 482.8881

          k = 0.0000 0.3333 0.0000 (  4504 PWs)   bands (ev):

   -92.4213 -28.1762 -28.1744 -28.1744 -28.1644 -28.1634  -3.7765   6.4031
     7.0977   7.0977  11.1499  13.0573  13.2474  13.2474  15.9929  17.8192
    18.9631  20.4733  20.4733  21.7446  26.1111  28.5733  28.5733  30.0763
    30.1620  33.4836  33.4836  36.0825  38.5387  39.5745  39.9620  39.9620
    40.3778  40.3778  41.2663  42.0469  44.2882  45.1532  45.1532  46.1535
    46.8453  46.8453  47.5900  47.9913  48.6266  50.9823  50.9823  51.1586
    52.1673  52.8340  52.8340  53.7238  54.3025  54.3025  54.3837  56.0478
    56.5884  58.4963  58.6503  58.6503  61.2999  62.3944  63.7001  63.7001
    64.0681  66.6204  69.9278  71.0441  71.0441  72.7210  72.7210  73.9582
    74.8594  74.8594  75.8352  77.2247  77.8439  78.6020  80.1093  80.1093
    80.4070  81.9908  81.9908  82.5861  83.2180  84.4841  84.4841  84.5241
    85.6360  86.0521  86.3923  87.5557  87.5557  88.1267  89.4647  90.1187
    90.1187  90.5071  90.5954  90.9768  92.5183  92.5183  92.7407  94.1371
    95.5308  95.5699  95.5699  96.5454  97.1680  97.1680  97.4799  97.5227
    99.1957  99.2027  99.2027  99.7515  99.7515 100.5817 100.7966 102.2712
   102.2712 102.9347 104.0299 104.6039 104.6039 105.4175 105.4175 105.6548
   106.2071 106.8698 107.4090 107.9031 110.3667 110.3667 110.9784 113.2524
   113.5559 113.5559 114.2844 115.5098 115.5098 116.0484 116.1155 116.3159
   116.3159 117.2493 118.6218 118.7369 118.7369 120.4764 120.5748 120.5748
   121.6659 122.0459 122.0459 122.5009 122.9055 123.0196 125.7945 126.1330
   126.9392 126.9392 127.1349 127.7175 127.7175 128.2055 129.0241 131.5115
   131.5115 131.8552 132.6863 133.1396 134.2996 134.2996 134.6265 135.0800
   136.9219 136.9219 138.8615 139.5868 139.5868 139.8770 141.4207 142.6256
   142.6256 143.6917 144.1101 144.1101 145.7776 145.7776 146.3745 146.6433
   147.2551 147.5493 148.3844 148.9958 148.9958 149.3870 150.9907 151.4530
   151.5629 151.5629 152.5731 153.7318 153.9022 153.9022 154.6052 154.9078
   156.0012 156.0012 156.3710 156.6691 156.7238 156.7238 157.1264 157.2285
   157.8912 157.8912 158.1984 160.7196 161.2795 161.4811 161.4811 162.5975
   162.5975 163.2390 163.5314 163.6538 163.7776 163.7776 163.9652 165.2276
   165.2276 165.7087 165.8563 165.8731 165.8731 167.3528 167.8973 168.9233
   168.9233 168.9365 170.2420 170.2420 170.3619 170.6379 171.0647 172.1578
   172.1578 172.7927 173.1188 173.1627 173.1627 174.6336 174.6555 174.8086
   176.2547 176.2547 176.8122 177.3073 177.3073 177.4356 178.2700 179.2230
   179.7225 179.7225 180.2260 181.6606 181.6696 182.1851 182.1851 182.2759
   182.2884 182.2884 183.0475 183.2596 183.5087 183.5087 183.6100 184.0376
   184.1983 184.1983 184.5666 186.4074 186.4074 186.6073 186.6150 188.0394
   188.0394 188.1516 188.2148 190.5686 190.7420 190.7570 190.7570 191.2422
   193.9758 193.9758 194.1418 195.4882 195.4882 195.6431 196.6729 198.2782
   198.4108 198.4108 198.6552 199.1175 200.9216 200.9871 200.9871 202.3442
   202.4642 202.4642 203.7183 203.7183 203.7476 204.1596 205.1457 206.2342
   206.3763 207.3984 208.2053 208.2053 208.2396 208.7126 209.0788 209.0788
   211.1519 212.0464 212.0464 212.1247 212.6150 213.0012 213.0012 213.2144
   213.8141 214.1026 215.0737 215.0737 217.1896 217.9082 217.9760 218.5746
   218.5746 219.5019 219.5019 219.8174 220.5924 222.1187 222.1187 222.6276
   222.9785 222.9785 223.7269 224.2053 225.7835 225.7835 225.8887 226.1815
   226.1815 227.5626 229.4177 229.4177 230.1098 231.3049 231.4433 231.4433
   231.5454 232.5908 232.9120 233.6960 233.8152 233.8152 234.1211 234.2880
   234.6563 234.6563 235.1746 235.4129 235.5354 235.5354 236.9833 238.0447
   238.1415 238.2407 238.2407 238.4533 238.4533 238.5180 238.7878 239.5545
   239.7609 239.7609 240.1926 240.3305 240.6261 241.0077 241.0077 241.5302
   241.5302 241.8025 241.8038 243.5855 244.3946 244.3946 244.7789 244.9369
   244.9956 244.9956 245.0993 245.9309 247.7681 248.0253 248.5952 248.5952
   249.5111 249.5538 249.5538 249.8115 250.0813 250.2097 250.2097 250.4948
   252.2632 253.3503 253.4823 253.4823 253.6988 253.7996 253.7996 254.0194
   254.0791 254.0791 254.5283 254.8060 255.0501 255.0501 255.3153 255.5586
   256.1171 257.6577 257.6578 258.3977 258.5386 258.5386 258.9081 259.6885
   260.0214 260.0214 260.2472 260.6971 260.9851 261.2701 261.4273 261.4273
   261.6574 261.6574 261.9238 262.6469 262.7315 262.7315 262.9814 264.4080
   264.6410 264.6410 265.4797 265.8870 265.9711 265.9711 266.1199 266.5097
   267.3455 267.3455 268.3347 268.9030 269.3466 269.9516 269.9516 270.0930
   270.1691 270.3668 270.3668 270.4195 270.4897 270.8046 270.8046 271.0299
   271.9144 272.7432 272.7432 273.7557 275.1539 275.1539 275.6372 276.2483
   276.7848 276.9389 276.9389 277.5217 278.1568 278.8252 278.8252 279.3853
   280.4732 281.3067 281.3067 281.3207 281.7357 281.8223 281.8657 281.8657
   282.6140 282.6140 282.6194 283.6794 285.2112 285.3484 285.3484 285.6354
   287.3038 287.8873 288.4801 288.5847 288.5847 290.0639 290.2477 290.2477
   290.2991 291.1918 291.3421 291.3421 291.5096 291.5096 291.5302 291.6289
   292.2810 292.6669 292.6669 293.4341 293.4597 293.4597 293.8386 295.2142
   295.5332 295.9224 295.9224 296.0645 296.3937 297.4376 297.7548 297.7548
   298.3157 298.3157 298.3164 299.2021 302.1024 302.1024 303.0067 303.1568
   304.4340 304.4340 304.5151 304.7964 306.1766 306.4876 306.4876 307.0591
   307.1329 307.4654 307.4654 308.2478 308.4607 309.3909 309.3909 310.0819
   310.4011 311.7586 311.7586 312.3101 312.6456 313.4099 313.4099 313.8689
   315.8492 315.8492 316.0275 316.1971 317.1503 317.1503 317.2042 317.3994
   317.9364 319.7986 320.1644 320.4331 320.4331 321.2278 321.5586 321.5586
   321.9616 322.0532 322.3236 322.4003 322.4003 323.5187 323.5187 324.1507
   324.3436 324.4924 324.5144 324.5144 324.6384 325.9940 326.0277 326.0277
   326.4524 327.2867 327.2867 327.6139 327.9280 328.2710 328.3766 328.4045
   328.4045 328.6252 328.7256 328.7256 329.0347 330.4564 330.6555 330.6555
   330.6785 330.7910 331.0972 331.0972 331.6699 332.4556 332.6970 332.6970
   332.9514 334.7658 336.3507 336.4472 336.4472 336.9138 336.9613 337.0667
   337.0667 337.8165 337.8201 337.8201 338.2971 338.3054 338.3209 338.3209
   338.3720 339.1648 339.1705 339.1705 339.6341 339.8412 340.0623 340.0623
   340.5829 340.7206 340.7206 340.7933 340.8865 341.4641 341.4641 341.8352
   343.2644 343.6808 343.8870 344.0277 344.0277 344.1003 345.8279 345.8279
   346.6803 346.6803 346.7528 346.7920 347.0553 349.5837 350.4114 350.4114
   350.8122 351.1747 352.3497 352.3869 352.3869 352.4754 353.0336 354.1529
   354.1529 355.4945 356.5971 357.4231 357.4894 357.4894 358.0071 358.4700
   358.4700 358.5825 358.8048 358.8048 359.2359 359.2359 359.3604 359.4125
   359.7659 359.7659 359.8961 360.2109 360.7312 361.6302 361.7553 361.7553
   361.8499 361.9427 361.9427 361.9974 362.0522 362.6519 363.1451 363.1452
   363.2486 363.3393 363.8878 363.8878 364.1658 365.1363 365.4297 365.5283
   365.5283 365.7584 365.7584 365.8152 365.8411 367.1232 367.4286 367.4286
   367.6772 369.1719 369.7902 369.7902 369.9012 369.9012 369.9192 369.9771
   370.0769 370.2652 370.2652 370.3331 370.3548 370.7357 370.8779 370.8779
   370.9553 373.0850 373.0850 373.1681 373.3971 373.8264 374.0468 374.0468
   374.2006 374.9540 374.9540 375.1657 375.2781 375.7622 375.7629 375.7629
   375.7764 376.2562 376.3378 376.3378 376.4361 378.2139 378.2139 378.3610
   378.9359 379.1469 379.2309 379.2309 379.4602 383.0117 383.0117 383.1235
   383.2081 383.6336 383.6336 384.1647 384.4793 384.8591 384.8591 385.1637
   385.8447 386.0493 386.2643 386.2643 386.2651 386.4219 386.4798 386.4798
   387.1153 387.2276 387.4983 387.4983 387.8691 388.1291 388.1367 388.1367
   388.5928 388.7749 389.3688 389.3688 389.5540 390.1462 390.7743 391.0660
   391.0660 391.2906 391.2906 391.5175 392.6334 392.6334 392.6424 392.6716
   393.5678 394.5666 394.8463 394.9414 394.9414 396.2098 396.4580 397.1047
   397.1047 397.3489 397.4704 397.4704 397.7630 397.8350 397.8382 397.8460
   397.8460 398.0200 398.0200 398.0814 398.1383 398.1946 398.1946 398.7165
   399.0242 400.2703 400.2703 400.2914 400.4294 400.8028 401.3296 401.3296
   401.7508 404.3089 405.3266 405.4117 405.4117 405.9535 406.0543 406.3968
   406.3968 406.6921 408.2696 408.3866 408.3866 408.5240 409.8256 409.9544
   409.9544 410.1782 413.2463 413.2463 413.5339 414.2505 414.2505 414.5763
   414.9411 415.0502 416.5621 416.5621 416.6009 416.9626 416.9626 416.9989
   417.4229 417.8149 418.3612 418.3612 418.7658 419.1138 419.1138 419.1601
   419.2529 419.5031 419.5745 419.5745 419.6353 419.7323 419.7323 419.7822
   420.2239 421.4029 421.9477 421.9477 422.6209 425.2957 425.2957 425.5048
   425.8248 425.8248 425.8329 426.5079 426.7838 427.2281 427.4434 427.4434
   427.4704 428.6592 429.0448 429.0448 429.2598 430.0182 430.0182 430.0318
   430.0595 430.0820 430.3044 430.4753 430.4753 430.8261 430.8796 430.8796
   430.8953 430.9153 432.3672 432.7075 432.7075 433.7121 434.9399 434.9399
   435.0418 435.2992 437.2222 437.2222 437.2897 437.4956 437.9761 438.0478
   438.2236 438.2236 441.8403 441.9290 441.9290 442.0308 442.8862 442.9844
   442.9844 443.2132 444.7599 444.7599 444.9255 445.0719 445.5429 447.1482
   447.1482 447.2239 447.2848 447.2848 447.3909 447.4822 448.2885 448.4504
   448.4504 448.5898 450.8895 451.0280 451.0280 451.1219 451.1913 451.2910
   451.2910 451.4226 451.5063 451.5960 451.9986 451.9986 454.0965 454.0965
   454.2313 454.2313 454.5108 454.6856 454.7736 454.9832 455.0012 455.0012
   455.1584 455.2649 455.3756 455.6565 455.6565 456.3809 456.7861 456.7861
   456.8160 456.8259 459.4978 459.4978 460.2672 460.6494 461.8176 461.8176
   461.8305 461.9014 462.6530 462.6530 462.6701 462.9166 464.1930 464.2230
   464.2298 464.2298 464.4183 464.4183 464.4230 464.4578 464.5847 464.7129
   464.7129 465.4296 466.7695 467.2330 467.4753 467.4753 468.3814 468.4865
   468.4865 469.1818 469.2035 469.2035 469.5894 469.6654 470.0130 470.0130
   470.1067 470.3936 470.4755 470.4755 470.5329 470.7078 471.1525 471.7243
   471.7243 472.0337 472.7296 472.7296 472.9103 473.0905 473.3801 473.3801
   473.5009 473.5152 473.7403 473.7403 473.8181 473.9121 475.2982 475.2982
   475.6078 475.6528 476.6410 476.7970 476.7970 476.9199 477.3677 477.3959
   477.3959 477.6194 478.0216 478.0764 478.0764 478.1692 478.5028 478.5628
   478.5628 478.6235 480.8550 480.8550 481.1667 481.2915 481.4355 481.7537
   481.7537 481.8827 482.9454 482.9454 483.0725 483.1695 483.2597 483.2597

          k =-0.1667 0.5000-0.1667 (  4512 PWs)   bands (ev):

   -92.4213 -28.1758 -28.1731 -28.1730 -28.1644 -28.1628  -3.2662   4.4439
     6.5131   6.5630  11.3626  13.0273  13.8276  14.0579  17.6841  18.5152
    19.1576  20.7442  23.2066  24.6095  24.8371  25.4736  28.4600  29.9449
    30.0461  32.0806  33.8559  34.5465  37.3662  37.4902  38.0102  38.6222
    40.3375  40.4113  41.0925  41.2652  43.4082  43.6547  43.9208  44.8159
    46.3578  46.3723  47.8333  48.7800  49.6110  49.9346  51.1411  51.6626
    52.7575  53.4064  53.7738  54.6380  56.0594  57.2503  58.0550  58.6311
    59.1684  60.6302  61.4190  62.5191  63.2000  64.8843  65.5426  65.7474
    67.7201  67.9591  68.2873  68.2988  69.6022  70.3103  70.9138  71.3677
    71.8708  73.1011  73.8653  74.4393  76.1551  76.9244  78.3327  78.4293
    79.1943  79.8066  80.3118  80.7924  81.0667  82.3178  82.4287  83.5586
    84.8911  85.2935  85.5260  86.5076  87.7576  88.2731  88.5677  88.7068
    90.0689  90.4378  91.4951  92.1086  92.2240  93.7260  93.8460  94.3257
    94.4246  95.5655  96.3235  96.6484  97.4378  97.4409  98.3127  98.8249
    99.3479  99.5700 100.5802 100.9610 101.1588 101.4359 101.5277 102.4044
   103.2429 103.6989 104.6590 105.2710 105.9684 106.7397 106.8598 107.1571
   108.4745 108.5960 109.2571 109.6874 110.6623 110.8448 111.1918 111.2124
   112.1561 112.4977 113.1361 113.6023 114.9682 115.0655 115.6038 116.1989
   117.4413 118.1733 118.2977 119.1000 119.7138 120.2778 121.1825 122.1100
   122.9107 123.1136 123.9641 124.4151 125.0966 126.1074 126.6524 127.1634
   127.2143 128.6128 128.6660 129.0013 130.0469 130.1270 131.3403 131.4896
   132.2524 132.7658 134.3755 134.5003 134.8670 135.0185 136.0379 136.4016
   136.7231 137.7114 138.0812 138.1827 139.4618 139.7734 139.7983 140.3064
   140.4829 140.8486 140.9603 142.0432 142.6685 143.3588 143.8711 144.7126
   144.9371 145.4958 145.9438 147.0059 147.2738 147.8361 148.1919 148.8398
   149.1632 149.6092 150.0798 150.8780 151.2355 151.5570 152.3137 152.7252
   153.6189 153.7034 153.9456 154.6530 155.5901 155.7735 156.2095 156.2101
   157.2022 157.6152 158.5171 159.1391 159.6080 159.6345 160.3798 161.2994
   162.1140 162.3134 162.4880 162.8054 163.5722 163.8303 164.6606 165.2044
   165.9823 166.0356 166.2880 167.0475 167.2406 167.8584 168.0066 168.2823
   168.7327 169.2763 170.7585 171.3570 171.7681 172.0217 172.5272 172.6829
   173.4331 173.5798 174.0980 174.4571 175.4581 176.0214 176.0414 176.6637
   177.4409 177.6454 177.8578 178.1807 178.5913 179.1674 179.4618 180.0308
   180.3933 180.6329 181.0836 181.3599 182.5675 182.6565 183.0893 183.4893
   183.7839 183.9468 184.1420 184.8453 184.8509 185.7528 186.1289 186.2122
   186.3433 186.7926 186.8391 187.5695 188.3745 188.6538 189.6728 189.7553
   190.1661 190.8535 191.5865 191.7723 192.2921 192.4733 192.4831 192.8357
   193.0210 193.7638 195.4630 195.6519 196.5202 196.8619 198.3226 198.4976
   198.7146 198.8028 199.6002 199.6905 201.1054 201.6070 201.8201 203.0809
   203.5460 203.7774 203.9168 204.5325 204.8072 204.8964 205.2507 205.4356
   205.8163 207.0035 207.1282 207.6004 207.8992 208.3223 208.7423 208.8356
   210.1876 210.7068 211.3677 211.8744 212.5767 212.8198 213.4488 214.2873
   214.8004 215.0613 215.5317 215.8895 216.7644 216.9350 218.2523 218.5737
   218.9065 218.9235 219.5222 220.1878 220.2196 221.1958 221.2488 221.6676
   222.0966 222.1750 222.5658 222.9465 223.3429 223.4364 224.0619 224.5538
   225.0720 225.6508 226.4887 226.5839 227.3029 228.3362 229.2343 229.5173
   229.8107 230.4566 230.4898 230.9807 230.9886 231.3914 231.9015 231.9150
   232.2086 232.3730 232.4879 233.0106 233.0509 233.5524 233.8423 234.3528
   234.7941 235.0984 235.6114 235.6490 236.2078 236.2263 236.4716 236.9577
   238.4212 238.4416 239.0387 239.8913 239.9027 240.5410 240.7480 241.0366
   241.1630 241.6330 242.1794 243.2189 244.2664 244.5820 244.9109 245.1374
   245.5632 245.6023 245.8769 245.9798 246.2689 246.6903 246.9772 247.1186
   247.3795 247.8886 248.1758 248.5505 249.5014 249.9593 250.0325 250.1400
   250.6326 251.2333 251.3305 251.4792 251.6330 251.7430 251.9895 252.8866
   253.1278 253.2901 253.5366 253.8301 254.2900 254.4080 254.4996 255.0706
   255.2941 255.3466 256.5130 256.9166 257.9921 258.9809 259.1468 259.7526
   261.3681 261.5718 261.7558 262.0661 262.4947 263.0161 263.1098 263.4181
   263.6256 263.9921 264.2127 265.0047 265.2774 265.5084 265.7980 266.3517
   266.6490 267.3440 267.6401 268.1686 268.2966 268.3759 269.5551 269.7184
   270.0758 270.3191 271.2122 271.4538 271.7599 271.8225 272.1115 272.4904
   272.7220 272.8992 273.4221 273.5453 274.0489 275.0278 275.0752 276.0016
   276.0393 276.1413 276.2165 276.3965 277.3118 277.4033 277.5302 277.6338
   278.2700 278.7890 278.8878 279.3085 279.4053 280.5208 281.0937 281.2163
   281.8880 282.0384 282.8475 282.9911 283.2480 283.2573 283.6676 283.9092
   284.0811 284.5516 284.8520 285.1565 285.3015 285.6630 285.7437 286.1333
   286.7395 287.2579 287.9570 288.1619 288.2166 288.4623 288.6074 289.5593
   289.9920 290.3672 291.1370 291.7917 293.0096 293.0524 293.9616 294.4266
   294.9035 294.9634 295.1112 295.1896 296.4425 296.9227 297.0958 297.4319
   297.4467 297.5386 297.6582 298.2226 298.3937 298.7858 299.4255 300.8394
   300.9525 301.6822 301.7080 301.9050 302.0935 302.6169 302.8450 303.1220
   303.3650 303.5023 303.8298 304.8209 304.8219 304.9939 305.1220 305.4695
   305.4849 305.8696 305.9936 306.4075 306.8844 306.9336 307.0894 307.5713
   308.0371 308.3979 308.5216 308.7636 309.4191 310.1407 310.1607 310.6424
   310.9679 312.5630 312.8340 312.9414 313.3194 314.3364 314.4491 314.9068
   315.4277 315.4652 316.0590 316.1582 316.3208 316.7361 317.3306 317.3562
   317.5788 318.0553 318.5271 319.6255 319.7287 320.3062 320.3122 321.2542
   321.5198 321.6125 322.0587 323.6774 323.6822 324.1299 324.4632 324.5153
   325.0753 325.1304 326.4064 326.6399 326.9429 327.1256 328.2657 328.5535
   328.6879 328.8152 329.0820 329.4381 329.9631 330.0229 330.4503 330.8631
   331.3108 331.6176 332.6961 333.4733 333.6856 334.0927 334.3385 334.5032
   334.9449 335.0421 335.8485 335.8625 336.7443 336.8151 337.0393 337.2987
   337.5347 337.5828 337.9324 338.0622 338.4467 338.9016 338.9451 339.0654
   339.4363 339.6655 339.8746 340.2029 340.4007 340.5891 340.9571 341.0882
   341.2881 341.5114 341.9782 342.2483 342.7107 343.0083 343.0261 343.1847
   343.2866 343.2878 344.1996 344.6061 345.3880 345.5658 346.0382 346.2656
   346.7857 347.5940 347.9496 348.0178 348.2095 348.4017 348.7184 349.5853
   349.6832 350.0668 350.2141 351.3245 351.4607 351.7506 351.8675 352.8409
   352.8678 353.0153 353.2045 353.3431 353.5263 354.4944 354.7430 354.9360
   355.0357 355.1554 355.5075 355.6758 355.7369 356.0733 357.2099 357.4164
   357.7218 357.9657 358.0579 359.3684 359.4066 359.7242 360.0068 360.0759
   360.4523 360.5397 360.5890 361.0140 361.3976 361.4422 362.2662 362.4691
   362.9500 363.0157 363.6337 364.0150 364.1166 364.1814 364.5997 364.8937
   365.0623 365.2070 365.3609 365.4565 365.7543 366.3292 366.5663 366.7648
   367.1508 367.3807 368.0918 368.1142 368.6417 368.8354 369.5896 370.0079
   370.0255 370.3680 370.4208 371.5427 371.7098 371.7380 372.4940 372.7892
   372.9051 373.1876 373.6420 373.7799 373.8188 373.8603 374.5524 374.9417
   374.9724 375.2992 375.3585 375.5836 376.1364 376.6502 376.9623 377.5094
   378.0043 378.1091 378.3493 378.4444 378.5478 378.5820 378.6243 378.8450
   378.8750 379.7955 379.7987 379.9070 380.3837 380.4246 381.5380 381.7046
   381.8719 382.0084 382.7037 383.1379 384.1471 384.5022 384.5122 384.6614
   385.8029 385.8172 386.0834 386.5665 386.8196 387.1531 387.5317 387.9520
   387.9726 388.1788 388.8862 389.0289 389.5763 389.7938 389.8846 389.8906
   390.0641 390.0908 390.4598 390.9236 391.6008 391.6540 391.8269 392.1255
   392.3290 392.5714 392.5841 392.6745 393.2545 394.6850 396.4070 396.4286
   396.7578 397.0380 397.1712 397.4946 397.5346 397.5360 397.8292 398.0614
   398.1482 398.3332 399.8166 399.9777 400.0987 400.1558 400.2246 400.3517
   400.3899 400.8142 401.7168 401.9958 402.2815 402.5534 402.7493 403.4886
   404.6548 404.8687 404.9218 405.6802 405.7072 405.9206 405.9282 406.6951
   407.1621 407.5633 407.6902 408.7244 408.9474 409.1287 409.2842 409.3344
   409.5478 409.8848 410.0012 410.5711 410.9323 410.9706 411.0277 412.3981
   412.8665 413.1087 413.2314 414.3729 415.5670 415.6878 416.1019 416.5565
   416.7092 417.4794 417.9111 418.3104 418.8272 418.8323 419.1095 419.1766
   419.5288 419.7736 419.9739 420.1146 420.2707 420.4028 420.8735 421.1751
   421.2559 421.3314 421.5073 421.5418 421.6318 421.7720 421.8726 421.9677
   422.0063 422.0581 422.4962 422.6379 422.6397 423.9872 424.6480 424.8177
   424.9850 425.2434 425.7015 425.9073 426.7442 426.7842 427.1134 427.2598
   427.4049 427.4493 427.6974 427.7785 428.3559 428.3819 428.6939 428.8197
   428.8682 429.0951 429.6070 429.9279 430.4369 431.0667 431.2804 431.3433
   432.0764 432.3962 432.5308 432.8677 433.5499 433.5664 435.1201 435.4747
   435.5547 435.6227 435.6943 436.9899 437.1952 437.5963 437.6596 437.8425
   438.0887 438.0903 438.2839 438.3505 438.4027 438.5722 438.5796 439.0744
   439.6379 439.6656 440.6321 441.1768 441.3175 442.1528 442.1796 442.2019
   442.3929 442.8977 442.9836 443.0373 443.2499 443.4713 443.4760 444.2107
   444.2959 444.9903 445.3078 445.6631 445.7659 446.6712 446.7806 446.9291
   446.9446 447.0838 447.6983 448.3654 449.6202 449.7182 450.1305 450.3611
   450.4379 450.7402 451.3632 451.8254 452.1792 452.1949 452.5439 452.6758
   453.2823 454.3331 454.7854 455.0253 455.1970 455.3144 455.5751 455.8800
   455.9027 456.3660 456.3676 456.5313 456.7117 456.7316 456.8439 456.9760
   457.2861 457.3709 457.5127 457.5383 459.2285 459.5277 459.8434 460.2760
   460.5482 460.7350 460.9285 461.0194 461.7144 462.4313 462.9044 462.9174
   463.3039 464.0155 464.3315 464.4112 464.4584 464.7124 464.8282 464.8348
   464.8865 464.9709 465.2028 465.2651 465.6422 465.7400 465.9188 466.2779
   467.0418 467.0852 467.2387 467.9346 468.1812 468.3509 468.4456 468.5331
   468.6213 468.7893 469.1876 469.6026 469.7475 470.7392 470.7855 470.8618
   471.5016 471.5163 472.0959 472.1510 472.3095 472.6846 473.0188 473.2000
   473.5699 474.0437 475.2017 475.5353 475.5686 475.8374 476.0326 477.2149
   477.4616 477.9072 477.9598 478.6137 478.6273 478.7462 478.8542 479.8556
   480.4035 480.6505 481.2082 481.2903 481.4525 481.7390 481.9445 482.1040
   482.3660 482.6897 482.7850 482.9922 483.4294 483.5098 484.7388 484.8665

          k = 0.6667-0.3333 0.6667 (  4484 PWs)   bands (ev):

   -92.4213 -28.1745 -28.1728 -28.1724 -28.1638 -28.1628  -2.7194   3.0106
     5.8425   6.4983  11.5229  13.2146  13.8208  15.3165  17.9917  19.8427
    19.8855  20.6506  21.9759  24.8399  26.8085  27.4189  28.8824  30.2293
    30.6999  31.6181  32.5881  33.4344  34.4340  35.3697  36.2950  36.9199
    37.6576  39.4828  40.2061  40.2637  42.3185  43.3300  43.8689  45.4582
    45.5821  47.6809  48.4216  49.4801  51.5407  51.8265  52.3731  52.8560
    53.1839  54.8183  56.3166  56.8169  57.6452  58.1759  58.4472  59.5574
    61.9060  62.0890  62.5628  63.3721  64.3239  64.6066  65.3406  66.2487
    66.3973  66.6039  68.0184  68.0278  68.7771  70.0543  70.1169  71.5549
    72.2100  72.5611  73.6502  73.7205  74.7404  75.6054  75.7202  77.5287
    77.8670  78.2355  79.1745  80.2600  80.5680  81.4974  82.0741  83.5228
    83.6892  83.9446  85.3913  85.8408  86.1490  87.2208  87.3834  88.3241
    89.7786  89.9038  90.6821  91.1547  91.7730  92.0808  93.6620  93.7375
    95.3696  95.5106  95.9024  96.5371  97.0718  97.3979  98.0289  98.9803
    99.5910  99.7696 100.5714 101.2380 101.8053 101.8895 102.8623 103.3868
   103.7856 103.8303 105.2127 105.9882 106.2524 106.9732 107.3560 108.8325
   109.3815 109.9092 110.4963 111.3901 112.0392 112.3713 112.9612 113.4036
   113.8417 114.4686 114.8599 115.7935 116.0119 117.0974 117.2910 117.9836
   118.0911 118.8887 119.5348 119.9696 120.1698 120.9787 121.7607 122.1186
   122.3917 123.3459 123.7771 124.3453 125.4223 126.1840 126.3619 127.0049
   127.5666 127.8375 128.3951 128.6138 128.8572 129.1393 130.0289 130.4015
   131.1553 131.9291 132.1057 132.8087 133.1985 134.5286 134.9548 135.8853
   136.0001 136.6849 137.5179 138.0657 138.8617 139.0741 139.3190 139.7476
   140.4952 140.5451 141.4760 142.2358 142.3875 143.9432 144.3522 144.8771
   145.1600 145.5114 145.5779 146.1711 146.3861 146.8874 146.9208 148.2721
   148.4016 148.8166 150.0811 150.4455 151.4382 151.6512 151.8915 152.6913
   152.8288 154.0231 154.6464 155.0945 155.2919 155.5804 156.0666 156.4053
   156.6408 157.2755 157.6911 157.8581 158.0771 158.7714 159.4281 159.6667
   160.3410 160.6741 161.6739 161.7882 162.1001 162.7494 163.5631 164.1929
   164.3308 164.5646 164.8816 165.5845 166.1703 166.7044 166.9792 168.0678
   168.2185 168.4672 168.7386 169.4610 170.1582 170.8707 172.1148 172.1702
   172.8221 173.3253 174.2064 174.4289 175.0675 175.1248 175.8047 176.0551
   176.5580 176.5725 177.2084 179.0054 179.7236 180.4426 180.9122 181.3884
   181.8373 182.0330 182.3587 182.7856 182.8159 183.4692 183.9441 184.4786
   185.2066 185.6209 185.7470 187.1577 187.8633 188.2723 188.3308 189.4464
   189.8030 189.8908 190.8989 191.1323 191.3011 191.9309 192.0827 192.4971
   193.3898 193.4697 193.7459 194.4361 194.9663 195.4177 195.6092 196.5231
   196.7574 196.9694 197.8306 197.8476 198.7557 198.8678 199.1811 199.5075
   200.1030 200.2610 200.5407 200.7015 201.4081 201.7005 201.9043 202.6905
   203.0064 203.2746 203.8486 204.0004 204.7091 205.5197 205.6522 205.8227
   205.8657 206.2355 206.6829 207.6333 208.0708 208.6092 209.5686 210.0571
   210.2911 211.1198 211.4844 211.6432 211.7690 212.1336 212.2132 212.8232
   213.0970 213.6796 214.7821 215.0580 215.3020 216.0200 216.8324 217.2069
   217.4668 217.7068 218.3235 218.6684 218.8054 218.9080 219.1766 219.2807
   219.5147 219.6298 219.8236 220.6114 221.1411 221.4939 221.8996 222.2119
   222.4315 223.0856 223.1417 224.2178 224.9034 225.0891 225.7291 226.3197
   226.9111 226.9281 227.2801 227.6300 228.0735 228.5803 228.7052 230.0471
   230.1771 231.1769 231.6517 231.9296 232.1668 232.6492 233.1004 233.2362
   234.0124 234.2904 235.4785 235.6145 236.2672 236.3474 236.7228 237.2985
   237.6007 238.0277 238.2459 238.5650 239.0076 239.1436 239.6793 240.8072
   240.9724 241.4713 241.8988 242.0527 242.2677 242.8054 242.9239 243.4842
   243.7666 244.2194 244.3861 245.1645 246.3607 246.4359 247.3882 247.4242
   247.5482 247.9167 248.8311 248.9399 249.1046 249.6499 250.5967 250.7997
   251.0934 251.1271 251.8216 252.1145 252.9417 252.9520 253.5642 253.5816
   254.9209 255.0750 255.5184 255.5656 256.1455 256.1773 256.7517 257.0058
   257.1146 257.8100 258.3518 258.4816 258.6834 259.2083 260.0715 260.2520
   260.4285 261.5563 261.9598 262.2246 262.5698 263.0574 264.4311 264.5986
   265.0106 265.5175 265.9984 266.1839 267.0234 267.1639 267.6501 268.1116
   268.3211 268.3816 268.5868 268.7250 269.3267 269.4448 270.0839 270.7250
   271.1077 271.8176 272.1279 272.3343 272.4054 272.4568 272.5659 273.0579
   273.4681 273.4769 273.9289 274.0349 274.6199 275.4900 275.5589 276.0117
   276.4420 276.7202 277.1616 278.3347 278.7124 278.9490 279.3486 279.6046
   279.6746 280.0128 280.5756 280.6056 281.0603 281.7885 282.2561 282.2731
   282.5621 282.5778 282.9856 283.1994 283.5613 284.0346 284.1474 284.7961
   285.3985 285.7510 286.3365 286.3379 286.4893 286.6011 287.2412 287.7541
   287.8373 288.2620 288.2856 288.4587 288.8607 289.6857 289.9529 289.9643
   290.1115 292.0366 292.2980 292.6533 292.6795 293.1453 293.5839 294.4281
   294.4447 294.9042 295.0146 295.3129 295.3757 296.0931 296.6498 296.9444
   297.3644 297.4004 297.6074 297.6263 297.7711 297.9075 298.8876 299.2416
   299.6796 299.8500 300.8350 301.3351 301.5350 301.7964 302.4149 302.6469
   303.0803 303.6547 304.0121 304.1395 304.8704 305.0009 305.0710 305.8474
   305.9129 306.2528 307.1655 307.3434 307.4778 307.7220 307.9302 308.1308
   308.3650 309.0802 309.4668 310.6656 311.3587 311.6365 312.2301 312.6677
   312.9810 313.4351 313.6139 313.9649 314.1154 314.4096 314.7430 315.2146
   315.3593 315.5218 315.6945 316.3134 317.2790 317.6427 317.6661 318.1025
   318.2642 318.3823 318.5014 318.5399 319.3901 320.0992 320.2207 320.5156
   320.6453 320.7636 321.4010 321.4635 321.7367 321.8571 322.1898 323.6551
   324.0128 324.1137 324.2178 324.6483 324.9433 325.3061 325.7852 326.2782
   327.0815 327.5110 327.9981 328.1462 328.6504 329.2717 329.3341 329.6642
   330.0233 330.1011 330.2471 330.7359 330.7556 331.4670 331.5795 331.6048
   332.7532 333.5522 333.8874 334.1201 334.4997 334.8699 335.1802 335.3291
   335.7151 335.9274 336.0697 336.6015 336.8414 336.8595 337.5276 337.6797
   337.7973 338.4161 338.4656 338.8832 339.1180 339.6090 339.8484 340.0951
   340.2210 340.4068 340.4969 340.7556 341.2998 341.8114 341.9187 342.2214
   342.2400 343.4520 343.4746 344.1187 344.5362 345.4270 345.4632 345.7613
   345.8235 346.3659 346.5637 346.9091 347.1609 347.1716 347.6559 348.2646
   348.4320 348.6148 348.6448 349.4339 350.3067 350.6119 350.7740 350.9062
   351.5364 351.5485 352.0783 352.1101 353.1950 353.4270 353.4756 354.4052
   354.7461 355.1709 355.7801 355.8765 356.0992 356.2848 356.6564 356.9823
   357.6626 357.8227 358.0991 359.0725 359.1894 359.4508 359.8839 359.9977
   360.3336 360.3981 360.6115 360.8364 361.1265 361.5970 361.7983 361.9559
   362.5891 362.8677 363.0620 363.1727 363.4222 363.6854 364.1253 364.4674
   364.5814 366.0251 366.3421 366.8955 367.2019 367.4348 367.8234 368.0804
   368.4860 369.2593 369.4377 369.9952 370.0482 370.1329 370.3109 370.3459
   370.9133 371.2708 372.0980 372.9709 373.2160 373.3411 373.5633 373.5711
   373.6867 373.9218 374.0860 374.2939 374.4430 374.4719 374.7239 375.3253
   375.4080 375.9268 375.9292 376.2626 376.4990 377.8859 378.1622 378.9041
   379.3682 379.6504 379.7780 380.0310 380.0513 380.1793 380.2753 380.7218
   381.0357 381.0451 381.3658 381.3679 381.7714 382.4066 382.6102 382.7123
   382.8664 383.0128 383.1314 383.9413 384.0225 384.5950 384.7678 384.7987
   384.9996 385.4194 385.4890 386.3328 386.6827 386.9972 387.0602 387.0670
   387.1813 387.8476 387.9843 388.0953 388.1625 388.9868 389.9820 390.3902
   391.1876 393.7035 394.0479 394.3166 394.4746 394.4821 394.6358 394.7891
   394.8688 396.3190 396.7723 397.2599 397.2936 397.3261 397.4267 397.7658
   397.8046 398.6333 398.8700 399.0503 399.7968 399.8397 400.2132 400.6754
   400.6964 400.7831 400.8865 401.0400 401.4430 401.8621 402.0395 402.1358
   403.0602 403.1358 404.0896 404.7440 404.9334 406.0752 406.2490 406.5094
   406.6427 406.9593 407.2365 407.2365 407.6519 407.7686 407.8107 407.9761
   408.0304 408.1011 408.2165 408.5438 408.6282 409.3254 409.4256 410.0306
   410.0426 410.7718 410.9087 411.1278 411.3823 411.6231 411.8530 411.9759
   412.3392 412.7492 413.2391 413.3320 413.7294 413.8858 414.7503 416.2678
   416.2983 416.3839 417.1259 417.3451 417.5810 417.8400 417.8822 418.1863
   418.8273 419.1852 419.5925 420.0033 420.0660 420.2369 420.3460 420.5235
   420.6749 420.7839 420.9056 420.9149 421.4732 421.4872 421.8515 422.3118
   422.6680 422.8251 423.9060 423.9559 424.6921 424.7373 425.0174 425.1427
   425.6209 425.8356 426.0643 426.3432 426.3878 426.5780 426.6785 426.7402
   427.1090 427.6862 428.5609 428.6414 428.7133 428.7872 429.2600 429.2799
   429.6079 429.8844 430.4366 430.8949 431.4473 431.7733 431.7841 431.9917
   432.0290 432.0673 432.1292 432.7229 432.8549 433.6699 433.8111 434.2669
   434.6639 434.8187 434.9007 435.4942 436.7454 436.9420 437.2578 437.3661
   437.5022 437.6426 437.6670 437.7301 437.8424 438.4451 438.6365 438.7303
   438.8152 439.3292 439.3879 440.2401 441.1891 441.3924 442.1664 442.3119
   442.4718 442.7339 442.9717 443.1978 443.2052 443.3461 443.5288 443.7079
   443.7222 444.5568 444.6137 444.7320 444.9231 445.0926 445.6613 445.6936
   445.9820 446.4534 446.4920 447.1552 447.4855 447.9621 448.2085 448.5685
   448.5692 448.9698 449.1391 449.9498 450.3470 450.4149 450.5333 450.6460
   451.0738 451.6075 451.7096 453.4298 454.0925 454.1771 454.4213 454.5744
   454.9900 455.0410 455.0463 455.3815 455.5320 455.6391 455.8348 455.9122
   456.1898 456.2643 456.3421 457.0784 457.1761 457.5487 458.0697 458.4471
   459.2131 459.2838 459.5701 459.6029 459.8193 459.9209 460.2406 460.8881
   460.9521 462.1100 462.5190 462.5272 462.9123 463.8270 464.1259 464.1557
   464.4704 464.7436 465.0160 465.0304 465.1442 465.1720 465.3710 465.7174
   465.9252 466.1451 466.4170 466.4981 466.5645 466.6390 466.9767 467.1586
   467.5407 467.7783 467.8126 467.8788 468.3193 468.4774 468.5915 468.6515
   468.8102 469.3663 469.4400 469.6651 469.8225 470.2010 471.5296 471.6991
   471.8119 471.9225 472.3269 472.5205 472.6511 472.9011 472.9784 474.9048
   474.9635 475.5603 475.9687 476.4123 476.8156 476.8741 477.4961 477.5810
   477.8442 478.1850 478.3248 478.5862 478.8715 479.8909 479.8963 480.0610
   480.2395 481.7050 481.8020 481.8878 481.9942 482.1471 482.3275 482.4009

          k = 0.5000-0.1667 0.5000 (  4506 PWs)   bands (ev):

   -92.4213 -28.1739 -28.1734 -28.1730 -28.1635 -28.1632  -2.8661   3.3548
     5.6051   6.9227  11.8465  13.2710  13.3391  15.7579  17.2218  17.9082
    20.0422  21.2119  23.3464  25.1014  25.2263  26.9408  28.9599  30.9180
[...]
   199.8502 200.2064 200.5220 201.0962 202.1899 203.1303 203.3169 203.6471
   204.2893 204.7459 204.9426 205.4447 205.9279 206.0210 206.6026 206.6404
   207.0212 207.3243 207.9671 208.1776 208.3701 209.5117 209.6794 210.4130
   210.6862 211.0495 211.3114 212.0299 212.0969 212.3818 212.4142 212.7732
   212.9287 213.4776 214.0376 214.2469 215.3010 215.5471 215.7907 216.4441
   216.7705 217.1491 217.5746 217.9919 218.1372 218.4335 218.4650 218.8520
   219.0748 219.1919 220.1909 220.2918 220.3500 220.7211 221.1295 221.8307
   222.7146 222.7962 223.3439 223.4745 224.3061 224.6513 225.0436 225.1808
   225.2750 225.3065 225.8075 226.5621 227.3363 227.9700 229.0409 229.3533
   229.6213 229.6518 230.2908 231.1078 231.5493 232.0307 232.1236 232.4661
   233.7368 233.8809 234.4038 234.6480 235.2751 235.9207 236.3536 236.8600
   236.8815 237.0856 237.5712 237.6639 238.7876 239.1633 239.8881 240.7819
   241.1369 241.2409 241.7311 241.9945 242.6053 242.7162 243.0296 243.4070
   244.0504 244.3400 244.8161 245.0185 246.4141 246.8949 247.1875 247.4336
   247.7702 247.9257 248.2834 248.5748 248.9448 249.5422 249.8727 249.9897
   250.8001 251.1849 251.6860 251.8712 252.3196 252.9108 253.5139 254.2835
   255.2225 255.4120 255.4713 255.7226 256.0180 257.1118 257.6067 257.7967
   258.2005 258.6918 258.9722 259.4592 259.8237 260.1676 260.3040 260.4385
   260.7740 261.1811 261.3499 262.6793 262.8446 263.8274 264.5089 264.8431
   265.3719 265.8772 266.0300 266.2622 266.6171 266.8741 267.0168 267.3207
   267.3692 267.8160 268.0118 268.5868 268.6701 268.8998 268.9252 269.1327
   269.3486 269.5621 269.5735 269.8591 271.3556 271.8512 272.5824 273.1533
   273.2044 273.2109 273.4741 274.3145 275.0257 275.2517 275.4910 275.6783
   277.0028 277.1164 278.3956 278.6936 278.9733 280.1963 280.4407 280.6864
   280.8111 281.4296 281.5561 281.9146 282.1192 282.5175 282.7266 283.1665
   283.3171 283.6816 283.7720 283.8446 284.3324 284.4665 284.5978 284.8701
   285.3506 286.2301 286.4266 286.9814 287.1727 288.2182 288.5260 288.7592
   288.9041 289.0391 289.2678 289.5802 289.6226 290.5307 290.6632 291.0458
   291.6407 292.0750 292.2599 292.9509 293.2463 293.4600 293.7590 295.1850
   295.5620 295.9307 296.3245 296.4207 296.8644 297.2907 297.5679 298.1379
   298.2430 298.3044 298.5494 299.2822 299.4403 299.9589 300.0672 300.8478
   300.9525 301.1241 301.4388 301.5536 302.0074 302.7960 303.8227 304.0799
   304.4954 305.0964 305.2030 305.4983 305.8210 306.4089 306.6749 306.7513
   306.9636 307.4894 307.7599 308.3054 308.6867 309.1089 309.3186 309.4941
   310.0609 310.4820 310.6330 310.8750 311.8104 311.9145 311.9514 312.3808
   312.4181 312.5667 312.7065 312.8341 313.7843 314.2314 314.7104 315.0524
   315.9559 316.1701 316.4739 317.0072 317.6134 317.6474 317.8943 318.1842
   318.6366 318.7526 319.3703 319.4946 319.6128 319.8373 319.9692 320.3970
   320.5986 320.8077 320.9144 321.0672 321.3894 321.6016 322.0085 322.2689
   322.3314 322.5578 323.1715 323.2820 323.3622 323.3876 323.6694 323.9061
   324.1991 324.4070 324.5038 325.4293 325.6882 326.0140 326.8454 327.2495
   329.2000 329.5378 329.9645 330.2014 330.4074 330.8114 330.8896 331.1004
   331.2209 331.3662 331.5309 331.6217 331.7260 331.9665 332.1612 332.2440
   332.4272 332.4586 333.6202 333.6371 334.3393 334.5567 336.0844 336.2400
   336.4348 336.9697 337.0896 337.2007 337.6540 337.8045 338.1897 338.5584
   338.7049 339.0403 340.4504 340.5339 341.1618 341.2429 341.3851 341.6174
   341.7271 342.0907 342.3732 342.4324 343.7411 343.8800 343.9655 344.1651
   344.4692 344.6114 344.7471 344.9126 345.5802 345.6699 346.0010 346.1429
   347.4220 347.4794 349.1402 349.2238 349.3785 349.4583 349.6100 349.6589
   350.4959 350.9302 351.9395 352.0379 352.4019 352.4488 354.5835 355.1911
   355.7735 356.1486 356.2916 356.4719 356.5517 356.6721 356.9637 357.0805
   357.1922 357.3091 357.4394 357.7596 358.1225 358.2599 358.6575 358.8039
   359.0652 359.3158 360.0751 360.5074 360.5710 360.9142 361.0465 361.5266
   361.7503 362.2869 362.5365 363.4574 363.7605 364.2287 364.3462 365.9668
   366.1212 368.4591 368.6250 368.8920 369.0542 369.7723 370.1851 370.3702
   370.5274 370.6814 370.9206 371.4926 371.5253 371.7403 371.7698 372.2953
   372.7255 372.8379 372.9268 373.8106 374.1231 374.1771 374.2005 374.8124
   375.2324 375.3489 375.5011 376.2685 376.3051 376.4023 376.5340 376.9564
   377.1081 377.4157 377.9213 378.2991 379.7220 379.7458 380.1083 380.3182
   380.8674 381.1552 381.1806 381.4795 381.8672 381.9818 382.1522 382.4028
   382.6586 383.2406 383.2633 384.2979 384.5968 384.6461 384.6843 384.7751
   385.0600 385.1845 385.8946 386.2679 386.5299 386.7362 386.9599 387.0571
   387.8245 387.8664 388.0280 388.1688 388.2151 388.2994 388.4589 388.5115
   389.4314 389.6523 391.1600 391.2517 391.3774 391.4938 392.3570 392.5737
   392.7933 392.9717 393.5157 393.8329 393.9935 394.0453 394.2729 394.3105
   394.5338 394.8799 395.0350 395.5729 396.8931 397.1120 397.3197 397.5143
   397.6141 397.6656 398.7726 398.9162 399.0809 399.4258 399.5428 400.1229
   400.2571 400.3278 400.6671 400.8433 400.9025 401.4593 401.5379 401.6270
   401.8234 403.2889 403.3831 404.3792 404.6925 404.9526 405.1560 405.4117
   405.4623 405.6170 405.6756 405.7530 405.8118 406.2755 406.4373 406.6103
   406.7748 407.0928 407.1425 407.2224 407.3582 408.1775 408.3309 410.5062
   410.8644 410.9499 411.1070 411.2154 411.3434 411.4079 411.6017 411.7376
   411.8527 412.0711 412.1197 412.9632 413.0449 415.4720 415.9238 416.5124
   416.6432 416.7103 416.7500 416.8421 416.8851 417.2629 418.0464 418.1820
   418.5289 418.9214 419.2308 419.2779 419.3102 419.3392 419.3585 419.4708
   420.1808 420.2891 420.5960 420.6843 420.7247 421.0262 421.1825 421.3292
   421.5043 421.7239 421.7859 422.4248 422.6012 422.7611 423.0196 423.0821
   423.1959 423.8697 424.2394 424.6806 424.9607 425.1392 425.2493 425.4348
   425.4818 425.5761 425.7495 425.7769 426.3699 426.7004 430.3766 430.4358
   430.7287 430.8081 430.9910 431.0923 431.9959 432.2107 432.7156 433.0694
   433.4369 433.4885 434.2078 434.5859 434.7620 434.9822 435.1197 435.4480
   435.6200 435.8583 435.8879 436.0595 436.5210 436.5362 437.3575 437.6330
   437.8688 438.0575 438.3399 438.7593 439.0187 439.1837 440.2401 440.5391
   440.7362 441.3555 441.4618 441.5646 441.5906 441.6474 441.7998 441.9531
   442.3212 442.3910 442.9802 443.0631 443.5271 443.5885 443.6488 443.8060
   444.5535 444.7620 444.8189 444.8727 444.9404 444.9609 445.2970 445.3587
   445.7376 446.0361 446.1393 446.2529 447.5586 447.6801 447.7359 447.8614
   448.0010 448.2825 448.5145 448.6456 448.6693 448.7332 449.1682 449.6174
   451.0247 451.4261 452.5516 452.6620 452.8152 452.8890 453.9364 454.2671
   454.5043 454.8517 454.9223 454.9835 455.5628 455.5813 456.3314 456.4321
   456.6538 456.7596 456.8247 457.0108 457.1599 457.5527 457.6279 457.7598
   458.9608 459.0446 459.4548 459.7780 459.8745 459.9333 460.0634 460.0972
   460.3704 460.4145 460.6395 460.7532 461.2279 461.3030 461.4519 461.5183
   461.7809 461.8506 462.2641 462.3668 462.7985 462.9645 463.3083 463.3484
   463.3971 463.4530 465.1635 465.2865 465.7439 465.7895 467.0147 467.1190
   468.6759 468.8401 468.9044 469.0455 469.1571 469.3343 469.8039 469.9362
   469.9627 470.1048 470.3344 470.4238 471.3934 471.4792 471.5469 471.5779
   471.6599 471.7757 472.1278 472.4094 473.3481 473.5267 473.7049 473.8912
   473.9461 474.0280 476.4577 477.4935 477.9345 477.9652 478.1878 478.2467
   478.4678 478.5191 479.3423 479.4019 479.6589 480.0004 480.0075 480.4091
   480.9033 480.9901 481.2523 481.4740 481.6430 481.6810 482.4600 482.6114

          k =-0.3333-1.0000 0.0000 (  4486 PWs)   bands (ev):

   -92.4213 -28.1754 -28.1717 -28.1699 -28.1649 -28.1622  -2.3193   3.3891
     4.7803   5.0755  11.8295  12.3945  15.4275  15.7162  19.0799  19.8308
    21.1472  22.1066  25.3922  25.4070  25.5792  26.2052  27.3484  27.7340
    30.3666  31.2284  31.6892  32.6402  32.6961  33.2185  35.8736  37.0764
    37.9867  38.5704  39.8884  41.4084  43.4099  43.4756  44.8621  45.7404
    47.0420  48.2515  49.1565  50.2041  50.8069  50.8519  52.5346  54.3113
    54.7973  55.0877  56.1558  56.5114  57.2795  58.1458  58.3123  59.2013
    61.7765  62.2056  62.3438  63.2808  63.6332  63.9754  65.0730  66.3412
    66.6173  67.5214  68.7576  69.0847  70.1106  70.2382  71.1216  71.4171
    72.3599  73.3669  73.9942  75.0985  75.8484  76.2269  76.9029  78.2549
    78.3892  78.9096  79.6549  80.1761  81.2205  81.4774  81.6973  82.9250
    83.0859  83.3453  83.7641  84.6023  85.6859  85.7662  85.9040  87.1433
    87.6774  87.7037  88.1878  89.1096  89.5338  89.7042  90.9849  91.4524
    91.6938  92.1583  93.2494  94.2502  95.1466  95.6877  97.2773  99.4490
    99.8321 100.7628 101.3393 102.2886 103.7564 103.7736 104.7822 105.1458
   105.5491 106.6491 107.7755 108.2694 108.3331 108.9932 110.2879 111.0703
   111.3714 111.5090 111.6626 112.9220 113.1687 113.4444 113.6314 114.0306
   115.3273 116.1650 116.5500 116.8573 116.9268 117.6237 118.6059 118.8867
   119.2702 119.6003 120.0596 121.0580 121.0757 121.3430 121.6695 122.9795
   123.2813 123.4249 124.4629 125.0496 125.2276 125.7747 126.6840 127.0127
   127.2533 127.3664 127.4894 128.2771 129.4592 129.8632 129.9144 130.3083
   131.1923 132.2237 132.5969 133.2649 133.5359 134.0670 134.3937 134.4761
   135.3220 135.5123 136.0914 136.3540 137.2795 137.3736 138.1076 139.1378
   139.2875 139.6808 139.8222 140.7302 140.8621 141.3738 141.5722 142.0364
   142.5704 142.8608 144.1645 144.5593 144.5993 144.9178 146.3134 146.5069
   146.9097 148.3434 148.7042 148.9860 149.0723 149.2284 149.8909 151.1609
   151.2193 152.3744 152.9630 153.8169 153.9161 154.6726 155.3067 155.3716
   155.6961 156.1286 156.9625 158.8641 159.0671 159.8662 159.9788 161.1088
   162.2149 162.2814 163.2995 163.6449 163.9211 164.6419 164.7516 165.4665
   165.7517 165.8534 167.2456 167.2954 168.2893 168.3541 168.6700 169.8395
   170.9158 171.3292 171.5735 172.2312 172.7243 172.8216 172.9075 173.3730
   173.8921 174.4555 174.8153 174.8268 175.3869 175.6628 175.7874 176.4347
   177.3425 177.8763 178.0451 178.9018 178.9823 179.2997 179.8984 180.0545
   180.3395 180.4574 181.2341 181.5629 181.9288 183.1727 184.1065 184.3053
   185.4638 186.2677 186.3463 187.1123 188.2295 188.9351 188.9863 189.5766
   189.5866 189.7764 190.2823 190.9013 191.1086 191.2727 191.3937 191.9662
   193.0893 193.6475 194.0435 194.5860 194.8357 195.2517 195.4554 195.6664
   196.3234 196.9655 199.0533 199.1424 199.4435 199.7966 200.1749 200.5130
   200.8237 200.9439 201.1396 201.3858 202.7221 202.9317 203.6113 203.7348
   203.8632 204.9580 205.0586 205.5892 206.0398 206.0983 206.4974 206.5396
   206.8843 206.9705 207.4313 207.6733 207.9526 208.5705 208.7863 208.9029
   209.6079 209.9074 210.2630 210.4035 210.5467 210.8654 210.9559 211.2777
   212.7925 212.9828 213.1270 213.4704 214.2416 215.8169 215.8323 216.3806
   216.6374 216.7899 217.1058 217.2953 217.7262 217.8939 219.0174 219.1042
   220.5374 221.1391 221.1512 222.6324 222.7713 223.0255 223.4560 223.8121
   223.9845 223.9936 224.2301 224.3381 224.7642 225.1207 225.1707 225.7159
   226.0096 226.0876 226.3962 226.6177 226.7827 226.8463 227.4721 228.1472
   228.3318 229.1425 229.6083 230.5921 232.0398 232.4045 232.5352 232.5392
   232.8453 233.2200 234.2555 234.2957 235.2576 235.5498 236.2519 236.4720
   236.7427 236.9029 236.9787 238.1200 238.1211 238.5847 239.2747 239.3065
   240.1111 241.2454 241.8356 242.1330 243.2627 243.4427 244.0755 244.1110
   244.8008 245.2401 245.4324 245.9902 246.0509 246.1486 246.7089 246.7105
   248.3822 248.4442 249.0858 249.1182 249.3318 249.8856 250.1843 250.8254
   251.0000 251.3618 251.5856 251.9763 252.0793 252.1780 252.9089 253.6512
   253.9438 254.6390 254.6881 255.2692 255.4736 256.3039 256.5580 256.5777
   256.6810 256.9989 257.5455 257.9459 258.2580 258.3295 258.5308 258.5469
   259.0113 259.0664 259.3835 259.4206 262.2536 263.5564 263.6648 264.0942
   265.0428 265.2075 265.7081 266.0850 266.8870 266.9088 267.1311 267.7526
   268.0266 268.4141 268.4573 268.6869 269.1998 269.2426 269.3077 269.3894
   269.5889 269.7855 270.0090 270.1744 271.0983 271.1873 271.2072 271.3508
   271.9087 272.5649 274.1571 274.6040 275.2036 275.3053 275.6461 275.9494
   276.4179 277.4732 277.7721 277.8464 277.9254 278.9825 279.2215 279.3099
   280.5371 280.6645 282.1687 282.7275 283.0961 283.6150 283.9397 284.8653
   284.9504 285.7812 286.4105 287.0476 287.4132 287.6270 287.7038 287.8817
   288.4095 288.5646 288.7192 288.7401 288.9818 289.1856 289.4913 289.5231
   289.5913 289.7542 290.1348 290.2514 291.8783 292.3470 293.0792 293.3438
   293.4915 293.6003 293.8479 294.6741 294.8384 295.2635 295.4304 296.2503
   296.3956 297.0665 297.4134 297.6308 298.3281 298.9493 299.4156 299.5593
   299.9321 300.1978 300.3463 300.6724 301.1502 301.3871 301.5114 301.6706
   301.8949 302.1148 302.3066 302.4851 302.5044 303.1466 303.4358 303.7215
   303.8822 304.2356 304.3683 304.3844 304.8807 305.1764 305.1841 305.5069
   305.5230 305.5973 307.9892 308.0427 308.4913 308.6000 309.0560 310.0266
   310.3198 310.3642 310.7129 310.7149 310.9634 311.0144 311.1179 311.1898
   311.2708 311.4331 311.6635 311.7211 311.7464 312.0120 312.1369 312.2496
   312.8111 312.9925 314.1087 314.3235 315.0153 315.5027 315.6085 316.3326
   316.7376 317.0938 317.3709 317.4865 318.0968 318.2109 318.2499 318.4010
   318.4778 318.5769 319.7292 319.7882 319.8012 320.3268 320.6424 320.7692
   321.2485 322.0391 322.4896 322.5593 322.7341 323.0857 323.1762 323.2856
   323.3724 326.3895 327.1299 327.7512 327.7874 328.2164 329.0065 329.0105
   329.4287 329.4701 330.1397 330.1516 330.2476 330.3780 330.4148 330.8007
   331.0100 331.0536 331.5642 331.8040 331.8818 331.8980 333.0650 333.3483
   334.0004 334.4492 334.4766 334.8783 335.0075 335.2871 335.8122 336.1729
   336.4359 336.7713 338.2777 338.3924 338.4178 338.5725 338.6298 338.8522
   338.8990 339.3935 339.4481 339.5500 339.9807 340.1810 340.2842 340.5607
   341.5840 341.7106 341.8633 341.8982 342.5778 342.9437 343.8279 344.0842
   345.0450 345.1946 345.3268 345.4520 345.8673 345.8864 346.1396 346.3083
   346.4583 346.4626 346.6383 347.1516 347.4711 348.5609 349.0096 349.1582
   349.3714 349.8534 351.1130 351.3290 351.5134 351.5371 351.6071 351.6413
   351.7438 353.3131 354.0200 355.1899 355.4054 355.4748 356.0997 356.3669
   357.2815 358.2918 358.5228 358.5267 358.5923 358.6666 359.1347 359.2834
   359.5348 359.6797 360.4279 360.6509 361.2042 361.3185 361.5497 361.6536
   362.1336 362.1374 363.4635 363.7441 363.8619 364.0343 364.4659 364.5099
   366.2445 366.4407 366.8390 367.1766 368.3080 368.3434 368.5671 368.7418
   368.7731 368.9059 370.8484 371.2313 371.7394 371.8683 372.6135 373.7589
   373.9129 373.9206 374.0246 374.0399 374.3866 374.5107 375.7297 375.7900
   375.9206 376.1563 376.7580 376.9074 376.9187 377.0292 378.1178 379.3510
   379.4471 379.6081 379.7121 379.7151 380.5321 380.6865 381.2496 381.6758
   381.7470 381.8948 382.0201 382.2083 382.6595 382.9693 383.2058 383.2742
   383.3089 383.4634 383.5769 383.8593 384.0310 384.3361 384.8143 384.9511
   385.2678 385.3138 386.4076 387.0073 388.0062 388.2806 389.1821 389.3366
   390.4074 390.4103 391.0825 391.3929 391.6636 391.7385 392.1176 392.3824
   392.4208 392.6614 392.7438 393.2039 393.3072 393.5133 393.5404 393.6622
   394.5032 394.9193 394.9311 395.0164 395.7783 395.8080 395.8387 395.8945
   395.9727 395.9840 396.0484 396.1071 396.4727 396.6442 396.9057 397.5440
   398.1748 398.3937 398.4017 398.4962 398.7431 399.4612 399.9305 400.3266
   400.8356 400.9793 401.0659 401.1852 401.4704 401.6899 401.8745 402.0106
   402.1520 402.8620 403.6181 403.7277 403.7854 403.7998 404.2184 404.3983
   404.5245 405.1233 405.1889 405.2607 405.3158 405.4718 405.5585 405.8853
   405.9356 406.0061 406.2123 406.2322 406.3700 407.1392 407.6809 408.1646
   408.2239 408.5625 408.6209 409.1142 409.1661 409.7844 409.9311 411.1246
   412.5390 412.7261 412.7384 413.1349 414.0233 414.0978 414.2623 414.3019
   415.4335 415.5488 415.5517 415.5619 416.3008 416.3086 416.4839 416.5865
   417.4991 417.7604 417.9119 418.0828 418.2301 418.4171 419.1725 419.3408
   420.2745 420.3619 420.8838 420.9334 421.1409 421.1544 421.3488 421.3665
   421.6614 421.8177 422.2880 422.4196 422.4400 422.5091 424.7072 424.8145
   424.8384 424.9200 425.0199 425.1538 425.2851 425.6290 426.5759 426.9550
   427.2596 427.3089 427.7211 427.7512 428.0568 428.1213 428.1919 429.5284
   429.6246 429.6784 429.9962 430.2589 430.3961 430.4104 430.7154 430.7495
   432.0532 432.1456 432.1855 432.1906 432.2406 432.3135 432.3570 432.4004
   433.2440 434.6948 434.7153 435.0479 435.0552 435.2214 435.2833 435.3874
   435.7783 436.2922 436.3162 436.4982 436.5913 436.6572 436.6839 438.2473
   438.2919 439.1701 439.2083 439.5212 439.5250 440.2126 440.5679 440.8281
   443.0532 443.1640 443.1815 443.2096 443.4221 443.5269 444.6238 444.6571
   444.6954 444.7050 445.2485 445.8816 446.2763 446.2926 446.4398 446.5290
   446.6119 446.8418 447.6829 447.7619 447.8589 448.0485 450.1369 450.2538
   450.3833 450.3944 450.5890 451.0285 451.0495 451.1419 451.1764 451.4059
   451.7402 451.9485 452.0016 452.0981 452.8070 452.9817 453.3702 453.3892
   453.9339 454.0263 455.0398 455.3388 456.1370 456.6556 456.8146 456.9322
   457.2053 457.5273 457.7463 457.8890 458.2822 458.4411 458.5574 458.6804
   458.7875 458.9120 459.2962 459.3719 459.6061 459.7464 459.8989 459.9779
   460.0966 460.1357 460.2714 460.4122 461.6857 461.8112 462.4430 462.4552
   462.7821 462.8595 463.9304 463.9741 464.0259 464.0490 464.2380 464.3768
   464.8550 464.9199 465.5482 465.5821 465.6369 465.7242 465.7678 465.8296
   465.9397 465.9503 467.9438 468.0459 468.2227 468.2531 468.8765 468.9490
   469.1155 469.3219 470.0220 470.0973 470.5543 470.5962 471.2022 471.3000
   471.3544 471.5077 471.8488 472.4024 473.2521 473.7315 475.2687 475.7375
   475.8552 475.9423 476.1125 476.3270 476.4849 476.4933 477.6133 477.7229
   477.8749 478.0454 478.0581 478.0775 479.8348 480.3589 480.8109 481.0447
   481.3850 481.5264 482.3335 482.4529 482.4693 482.7007 483.0628 483.4609

     the Fermi energy is     9.0856 ev
     (compare with:     9.0856 eV, computed in scf)

     Writing all to output data dir out/mp-252.save/
 
     init_run     :      0.03s CPU      0.04s WALL (       1 calls)
     electrons    :    584.01s CPU    631.06s WALL (       1 calls)

     Called by init_run:
     wfcinit      :      0.00s CPU      0.00s WALL (       1 calls)
     potinit      :      0.01s CPU      0.01s WALL (       1 calls)
     hinit0       :      0.01s CPU      0.01s WALL (       1 calls)

     Called by electrons:
     c_bands      :    584.00s CPU    631.03s WALL (       1 calls)
     v_of_rho     :      0.00s CPU      0.00s WALL (       1 calls)

     Called by c_bands:
     init_us_2    :      0.00s CPU      0.00s WALL (      16 calls)
     init_us_2:cp :      0.00s CPU      0.00s WALL (      16 calls)
     cegterg      :    569.33s CPU    615.16s WALL (      16 calls)

     Called by *egterg:
     cdiaghg      :    515.33s CPU    558.25s WALL (     174 calls)
     h_psi        :     17.22s CPU     18.10s WALL (     190 calls)
     g_psi        :      0.10s CPU      0.10s WALL (     158 calls)

     Called by h_psi:
     h_psi:calbec :      0.28s CPU      0.31s WALL (     190 calls)
     vloc_psi     :     16.54s CPU     17.38s WALL (     190 calls)
     add_vuspsi   :      0.20s CPU      0.20s WALL (     190 calls)

     General routines
     calbec       :      0.28s CPU      0.31s WALL (     190 calls)
     fft          :      0.00s CPU      0.00s WALL (      10 calls)
     fftw         :     15.45s CPU     16.25s WALL (  226826 calls)
 
     Parallel routines
 
     PWSCF        :   9m46.39s CPU  10m34.36s WALL

 
   This run was terminated on:  23:22:34  20Dec2023            

=------------------------------------------------------------------------------=
   JOB DONE.
=------------------------------------------------------------------------------=
