
     Program PWSCF v.7.1 starts on 20Dec2023 at 18:58:39 

     This program is part of the open-source Quantum ESPRESSO suite
     for quantum simulation of materials; please cite
         "P. Giannozzi et al., J. Phys.:Condens. Matter 21 395502 (2009);
         "P. Giannozzi et al., J. Phys.:Condens. Matter 29 465901 (2017);
         "P. Giannozzi et al., J. Chem. Phys. 152 154105 (2020);
          URL http://www.quantum-espresso.org", 
     in publications or presentations arising from this work. More details at
     http://www.quantum-espresso.org/quote

     Parallel version (MPI), running on     8 processors

     MPI processes distributed on     1 nodes
     123134 MiB available memory on the printing compute node when the environment starts
 
     Reading input from pw_mp-252_scf_k3000_E90.in
Warning: card &CELL ignored
Warning: card / ignored

     Current dimensions of program PWSCF are:
     Max number of different atomic species (ntypx) = 10
     Max number of k-points (npk) =  40000
     Max angular momentum in pseudopotentials (lmaxx) =  4
 
     R & G space division:  proc/nbgrp/npool/nimage =       8
     Subspace diagonalization in iterative solution of the eigenvalue problem:
     a serial algorithm will be used

 
     Parallelization info
     --------------------
     sticks:   dense  smooth     PW     G-vecs:    dense   smooth      PW
     Min         177     177     52                 4444     4444     698
     Max         178     178     53                 4448     4448     701
     Sum        1417    1417    421                35557    35557    5601
 
     Using Slab Decomposition
 


     bravais-lattice index     =            2
     lattice parameter (alat)  =      10.7014  a.u.
     unit-cell volume          =     306.3778 (a.u.)^3
     number of atoms/cell      =            2
     number of atomic types    =            2
     number of electrons       =        20.00
     number of Kohn-Sham states=           20
     kinetic-energy cutoff     =      90.0000  Ry
     charge density cutoff     =     360.0000  Ry
     scf convergence threshold =      1.0E-10
     mixing beta               =       0.7000
     number of iterations used =            8  plain     mixing
     Exchange-correlation= PBE
                           (   1   4   3   4   0   0   0)

     celldm(1)=  10.701363  celldm(2)=   0.000000  celldm(3)=   0.000000
     celldm(4)=   0.000000  celldm(5)=   0.000000  celldm(6)=   0.000000

     crystal axes: (cart. coord. in units of alat)
               a(1) = (  -0.500000   0.000000   0.500000 )  
               a(2) = (   0.000000   0.500000   0.500000 )  
               a(3) = (  -0.500000   0.500000   0.000000 )  

     reciprocal axes: (cart. coord. in units 2 pi/alat)
               b(1) = ( -1.000000 -1.000000  1.000000 )  
               b(2) = (  1.000000  1.000000  1.000000 )  
               b(3) = ( -1.000000  1.000000 -1.000000 )  


     PseudoPot. # 1 for Be read from file:
     /usr/scratch4/magr4985/MG/HTDF/pseudo/SG15/Be.upf
     MD5 check sum: dc1f98d164da9dc61a6fd2fad64b4ce2
     Pseudo is Norm-conserving, Zval =  4.0
     Generated using ONCVPSP code by D. R. Hamann
     Using radial grid of  602 points,  4 beta functions with: 
                l(1) =   0
                l(2) =   0
                l(3) =   1
                l(4) =   1

     PseudoPot. # 2 for Te read from file:
     /usr/scratch4/magr4985/MG/HTDF/pseudo/SG15/Te.upf
     MD5 check sum: dd4de4dac1e38587f63aaf3700bb29d3
     Pseudo is Norm-conserving, Zval = 16.0
     Generated using ONCVPSP code by D. R. Hamann
     Using radial grid of  602 points,  6 beta functions with: 
                l(1) =   0
                l(2) =   0
                l(3) =   1
                l(4) =   1
                l(5) =   2
                l(6) =   2

     atomic species   valence    mass     pseudopotential
        Be             4.00     9.01220     Be( 1.00)
        Te            16.00   127.60000     Te( 1.00)

     24 Sym. Ops. (no inversion) found



   Cartesian axes

     site n.     atom                  positions (alat units)
         1           Be  tau(   1) = (   0.0000000   0.0000000   0.0000000  )
         2           Te  tau(   2) = (  -0.7500000   0.7500000   0.7500000  )

     number of k points=    72  Gaussian smearing, width (Ry)=  0.0005
                       cart. coord. in units 2pi/alat
        k(    1) = (   0.0000000   0.0000000   0.0000000), wk =   0.0011574
        k(    2) = (  -0.0833333   0.0833333  -0.0833333), wk =   0.0092593
        k(    3) = (  -0.1666667   0.1666667  -0.1666667), wk =   0.0092593
        k(    4) = (  -0.2500000   0.2500000  -0.2500000), wk =   0.0092593
        k(    5) = (  -0.3333333   0.3333333  -0.3333333), wk =   0.0092593
        k(    6) = (  -0.4166667   0.4166667  -0.4166667), wk =   0.0092593
        k(    7) = (   0.5000000  -0.5000000   0.5000000), wk =   0.0046296
        k(    8) = (   0.0000000   0.1666667   0.0000000), wk =   0.0069444
        k(    9) = (  -0.0833333   0.2500000  -0.0833333), wk =   0.0277778
        k(   10) = (  -0.1666667   0.3333333  -0.1666667), wk =   0.0277778
        k(   11) = (  -0.2500000   0.4166667  -0.2500000), wk =   0.0277778
        k(   12) = (  -0.3333333   0.5000000  -0.3333333), wk =   0.0277778
        k(   13) = (   0.5833333  -0.4166667   0.5833333), wk =   0.0277778
        k(   14) = (   0.5000000  -0.3333333   0.5000000), wk =   0.0277778
        k(   15) = (   0.4166667  -0.2500000   0.4166667), wk =   0.0277778
        k(   16) = (   0.3333333  -0.1666667   0.3333333), wk =   0.0277778
        k(   17) = (   0.2500000  -0.0833333   0.2500000), wk =   0.0277778
        k(   18) = (   0.1666667  -0.0000000   0.1666667), wk =   0.0138889
        k(   19) = (   0.0000000   0.3333333   0.0000000), wk =   0.0069444
        k(   20) = (  -0.0833333   0.4166667  -0.0833333), wk =   0.0277778
        k(   21) = (  -0.1666667   0.5000000  -0.1666667), wk =   0.0277778
        k(   22) = (  -0.2500000   0.5833333  -0.2500000), wk =   0.0277778
        k(   23) = (   0.6666667  -0.3333333   0.6666667), wk =   0.0277778
        k(   24) = (   0.5833333  -0.2500000   0.5833333), wk =   0.0277778
        k(   25) = (   0.5000000  -0.1666667   0.5000000), wk =   0.0277778
        k(   26) = (   0.4166667  -0.0833333   0.4166667), wk =   0.0277778
        k(   27) = (   0.3333333   0.0000000   0.3333333), wk =   0.0138889
        k(   28) = (   0.0000000   0.5000000   0.0000000), wk =   0.0069444
        k(   29) = (  -0.0833333   0.5833333  -0.0833333), wk =   0.0277778
        k(   30) = (  -0.1666667   0.6666667  -0.1666667), wk =   0.0277778
        k(   31) = (   0.7500000  -0.2500000   0.7500000), wk =   0.0277778
        k(   32) = (   0.6666667  -0.1666667   0.6666667), wk =   0.0277778
        k(   33) = (   0.5833333  -0.0833333   0.5833333), wk =   0.0277778
        k(   34) = (   0.5000000   0.0000000   0.5000000), wk =   0.0138889
        k(   35) = (   0.0000000   0.6666667   0.0000000), wk =   0.0069444
        k(   36) = (  -0.0833333   0.7500000  -0.0833333), wk =   0.0277778
        k(   37) = (   0.8333333  -0.1666667   0.8333333), wk =   0.0277778
        k(   38) = (   0.7500000  -0.0833333   0.7500000), wk =   0.0277778
        k(   39) = (   0.6666667  -0.0000000   0.6666667), wk =   0.0138889
        k(   40) = (   0.0000000   0.8333333   0.0000000), wk =   0.0069444
        k(   41) = (   0.9166667  -0.0833333   0.9166667), wk =   0.0277778
        k(   42) = (   0.8333333   0.0000000   0.8333333), wk =   0.0138889
        k(   43) = (   0.0000000  -1.0000000   0.0000000), wk =   0.0034722
        k(   44) = (  -0.1666667   0.3333333   0.0000000), wk =   0.0277778
        k(   45) = (  -0.2500000   0.4166667  -0.0833333), wk =   0.0555556
        k(   46) = (  -0.3333333   0.5000000  -0.1666667), wk =   0.0555556
        k(   47) = (   0.5833333  -0.4166667   0.7500000), wk =   0.0555556
        k(   48) = (   0.5000000  -0.3333333   0.6666667), wk =   0.0277778
        k(   49) = (  -0.1666667   0.5000000   0.0000000), wk =   0.0277778
        k(   50) = (  -0.2500000   0.5833333  -0.0833333), wk =   0.0555556
        k(   51) = (   0.6666667  -0.3333333   0.8333333), wk =   0.0555556
        k(   52) = (   0.5833333  -0.2500000   0.7500000), wk =   0.0555556
        k(   53) = (   0.5000000  -0.1666667   0.6666667), wk =   0.0555556
        k(   54) = (   0.4166667  -0.0833333   0.5833333), wk =   0.0555556
        k(   55) = (   0.3333333   0.0000000   0.5000000), wk =   0.0277778
        k(   56) = (  -0.1666667   0.6666667  -0.0000000), wk =   0.0277778
        k(   57) = (   0.7500000  -0.2500000   0.9166667), wk =   0.0555556
        k(   58) = (   0.6666667  -0.1666667   0.8333333), wk =   0.0555556
        k(   59) = (   0.5833333  -0.0833333   0.7500000), wk =   0.0555556
        k(   60) = (   0.5000000   0.0000000   0.6666667), wk =   0.0277778
        k(   61) = (   0.8333333  -0.1666667   1.0000000), wk =   0.0277778
        k(   62) = (   0.7500000  -0.0833333   0.9166667), wk =   0.0555556
        k(   63) = (   0.6666667   0.0000000   0.8333333), wk =   0.0277778
        k(   64) = (  -0.1666667  -1.0000000  -0.0000000), wk =   0.0138889
        k(   65) = (   0.6666667  -0.3333333   1.0000000), wk =   0.0277778
        k(   66) = (   0.5833333  -0.2500000   0.9166667), wk =   0.0555556
        k(   67) = (   0.5000000  -0.1666667   0.8333333), wk =   0.0277778
        k(   68) = (   0.6666667  -0.1666667   1.0000000), wk =   0.0277778
        k(   69) = (   0.5833333  -0.0833333   0.9166667), wk =   0.0555556
        k(   70) = (   0.5000000   0.0000000   0.8333333), wk =   0.0277778
        k(   71) = (  -0.3333333  -1.0000000   0.0000000), wk =   0.0138889
        k(   72) = (  -0.5000000  -1.0000000   0.0000000), wk =   0.0069444

     Dense  grid:    35557 G-vectors     FFT dimensions: (  45,  45,  45)

     Estimated max dynamical RAM per process >       7.01 MB

     Estimated total dynamical RAM >      56.06 MB

     Initial potential from superposition of free atoms

     starting charge      19.9363, renormalised to      20.0000
     Starting wfcs are random

     total cpu time spent up to now is        0.9 secs

     Self-consistent Calculation

     iteration #  1     ecut=    90.00 Ry     beta= 0.70
     Davidson diagonalization with overlap
     ethr =  1.00E-02,  avg # of iterations =  8.3

     Threshold (ethr) on eigenvalues was too large:
     Diagonalizing with lowered threshold

     Davidson diagonalization with overlap
     ethr =  1.81E-04,  avg # of iterations =  3.0

     total cpu time spent up to now is        7.5 secs

     total energy              =    -201.43879962 Ry
     estimated scf accuracy    <       0.03369148 Ry

     iteration #  2     ecut=    90.00 Ry     beta= 0.70
     Davidson diagonalization with overlap
     ethr =  1.68E-04,  avg # of iterations =  1.5

     total cpu time spent up to now is        9.0 secs

     total energy              =    -201.44314021 Ry
     estimated scf accuracy    <       0.00400383 Ry

     iteration #  3     ecut=    90.00 Ry     beta= 0.70
     Davidson diagonalization with overlap
     ethr =  2.00E-05,  avg # of iterations =  3.1

     total cpu time spent up to now is       10.7 secs

     total energy              =    -201.44402260 Ry
     estimated scf accuracy    <       0.00031351 Ry

     iteration #  4     ecut=    90.00 Ry     beta= 0.70
     Davidson diagonalization with overlap
     ethr =  1.57E-06,  avg # of iterations =  3.7

     total cpu time spent up to now is       12.3 secs

     total energy              =    -201.44407281 Ry
     estimated scf accuracy    <       0.00000414 Ry

     iteration #  5     ecut=    90.00 Ry     beta= 0.70
     Davidson diagonalization with overlap
     ethr =  2.07E-08,  avg # of iterations =  2.1

     total cpu time spent up to now is       13.9 secs

     total energy              =    -201.44407347 Ry
     estimated scf accuracy    <       0.00000008 Ry

     iteration #  6     ecut=    90.00 Ry     beta= 0.70
     Davidson diagonalization with overlap
     ethr =  4.15E-10,  avg # of iterations =  2.2

     total cpu time spent up to now is       15.6 secs

     total energy              =    -201.44407349 Ry
     estimated scf accuracy    <          1.5E-09 Ry

     iteration #  7     ecut=    90.00 Ry     beta= 0.70
     Davidson diagonalization with overlap
     ethr =  7.32E-12,  avg # of iterations =  2.2

     total cpu time spent up to now is       17.2 secs

     End of self-consistent calculation

          k = 0.0000 0.0000 0.0000 (  4477 PWs)   bands (ev):

   -92.4213 -28.1759 -28.1759 -28.1759 -28.1639 -28.1639  -4.1124   8.0774
     8.0774   8.0774  11.7361  11.7361  11.7361  11.8022  16.5321  18.5009
    18.5009  19.5411  19.5411  19.5411

          k =-0.0833 0.0833-0.0833 (  4435 PWs)   bands (ev):

   -92.4213 -28.1758 -28.1757 -28.1757 -28.1639 -28.1639  -4.0480   7.4063
     7.9683   7.9683  11.6789  11.8996  11.8996  12.4928  16.7375  17.8820
    17.8820  19.3247  20.4611  20.4611

          k =-0.1667 0.1667-0.1667 (  4429 PWs)   bands (ev):

   -92.4213 -28.1754 -28.1751 -28.1751 -28.1638 -28.1638  -3.8610   6.1225
     7.7112   7.7112  11.5425  12.2705  12.2705  13.8049  17.1415  17.3082
    17.3082  19.1674  21.9794  21.9794

          k =-0.2500 0.2500-0.2500 (  4420 PWs)   bands (ev):

   -92.4213 -28.1750 -28.1745 -28.1745 -28.1637 -28.1637  -3.5739   4.8218
     7.4243   7.4243  11.3859  12.6005  12.6005  15.0822  17.2476  17.2568
    17.2568  19.7920  23.6966  23.6966

          k =-0.3333 0.3333-0.3333 (  4419 PWs)   bands (ev):

   -92.4213 -28.1745 -28.1739 -28.1739 -28.1634 -28.1634  -3.2355   3.7117
     7.1847   7.1847  11.2538  12.7328  12.7328  15.9047  17.4797  17.8296
    17.8296  20.7113  24.3731  24.3731

          k =-0.4167 0.4167-0.4167 (  4413 PWs)   bands (ev):

   -92.4213 -28.1742 -28.1735 -28.1735 -28.1632 -28.1632  -2.9388   2.9383
     7.0303   7.0303  11.1688  12.7281  12.7281  16.0369  18.3633  18.8778
    18.8778  20.8293  22.6345  22.6345

          k = 0.5000-0.5000 0.5000 (  4446 PWs)   bands (ev):

   -92.4213 -28.1740 -28.1734 -28.1734 -28.1631 -28.1631  -2.8152   2.6539
     6.9774   6.9774  11.1397  12.7106  12.7106  16.0160  19.0540  19.7413
    19.7413  20.4128  21.5132  21.5132

          k = 0.0000 0.1667 0.0000 (  4436 PWs)   bands (ev):

   -92.4213 -28.1760 -28.1755 -28.1755 -28.1641 -28.1638  -4.0265   7.5197
     7.7551   7.7551  11.5367  12.1934  12.1934  12.3826  16.6955  17.2886
    18.6164  19.7734  19.7734  20.7201

          k =-0.0833 0.2500-0.0833 (  4434 PWs)   bands (ev):

   -92.4213 -28.1759 -28.1750 -28.1749 -28.1641 -28.1636  -3.8801   6.4935
     7.4446   7.6211  11.5600  12.1896  12.6628  13.4216  16.4344  17.4148
    18.2407  19.6298  20.8253  21.8948

          k =-0.1667 0.3333-0.1667 (  4427 PWs)   bands (ev):

   -92.4213 -28.1755 -28.1744 -28.1743 -28.1641 -28.1634  -3.6253   5.2310
     7.1498   7.3687  11.6634  12.2741  13.0650  14.3469  16.6398  17.6982
    18.0349  19.7640  22.4431  23.5763

          k =-0.2500 0.4167-0.2500 (  4419 PWs)   bands (ev):

   -92.4213 -28.1749 -28.1738 -28.1737 -28.1639 -28.1632  -3.3006   4.0790
     6.9343   7.0635  11.6012  12.4754  13.2154  15.0084  17.5303  17.6698
    18.4311  20.5127  23.9412  24.9456

          k =-0.3333 0.5000-0.3333 (  4407 PWs)   bands (ev):

   -92.4213 -28.1744 -28.1735 -28.1733 -28.1636 -28.1630  -2.9819   3.1999
     6.7935   6.8268  11.5200  12.5617  13.1480  15.7154  17.6556  18.7784
    19.3220  20.7580  22.4847  24.2365

          k = 0.5833-0.4167 0.5833 (  4420 PWs)   bands (ev):

   -92.4213 -28.1740 -28.1733 -28.1731 -28.1633 -28.1630  -2.7907   2.7491
     6.6054   6.8362  11.4833  12.6149  13.0118  16.1485  18.2472  19.4977
    19.7607  20.5340  21.6404  22.9063

          k = 0.5000-0.3333 0.5000 (  4422 PWs)   bands (ev):

   -92.4213 -28.1740 -28.1734 -28.1732 -28.1632 -28.1631  -2.8325   2.8440
     6.5241   6.9588  11.5033  12.7201  12.8923  16.1899  18.3236  18.5825
    19.6743  20.7704  22.3560  22.9340

          k = 0.4167-0.2500 0.4167 (  4421 PWs)   bands (ev):

   -92.4213 -28.1743 -28.1736 -28.1736 -28.1635 -28.1632  -3.0817   3.4560
     6.5620   7.1793  11.5768  12.7774  12.8630  15.8194  17.4137  17.7648
    19.4344  20.6893  23.2520  24.7123

          k = 0.3333-0.1667 0.3333 (  4432 PWs)   bands (ev):

   -92.4213 -28.1748 -28.1742 -28.1739 -28.1638 -28.1633  -3.4139   4.4399
     6.7234   7.4669  11.6931  12.5757  12.9050  15.0615  16.7069  17.5775
    18.5097  20.2785  23.3869  24.8636

          k = 0.2500-0.0833 0.2500 (  4428 PWs)   bands (ev):

   -92.4213 -28.1753 -28.1749 -28.1745 -28.1640 -28.1636  -3.7213   5.6293
     7.0081   7.7635  11.8234  12.2409  12.6293  14.2211  16.6102  17.2613
    18.0369  19.8087  21.5919  23.4429

          k = 0.1667-0.0000 0.1667 (  4435 PWs)   bands (ev):

   -92.4213 -28.1757 -28.1755 -28.1752 -28.1640 -28.1638  -3.9426   6.7696
     7.4449   7.9686  11.8508  11.9359  12.1690  13.2487  16.9727  17.0597
    17.8839  20.0122  20.0851  21.8270

          k = 0.0000 0.3333 0.0000 (  4428 PWs)   bands (ev):

   -92.4213 -28.1762 -28.1744 -28.1744 -28.1644 -28.1633  -3.7765   6.4031
     7.0977   7.0977  11.1498  13.0573  13.2474  13.2474  15.9929  17.8192
    18.9631  20.4732  20.4732  21.7446

          k =-0.0833 0.4167-0.0833 (  4437 PWs)   bands (ev):

   -92.4213 -28.1762 -28.1737 -28.1737 -28.1645 -28.1631  -3.5617   5.4907
     6.7833   6.8442  11.1576  12.9060  13.7689  13.7883  16.4633  18.3276
    18.9236  20.5169  21.5882  22.9822

          k =-0.1667 0.5000-0.1667 (  4431 PWs)   bands (ev):

   -92.4213 -28.1757 -28.1731 -28.1730 -28.1644 -28.1628  -3.2662   4.4439
     6.5131   6.5630  11.3626  13.0273  13.8276  14.0579  17.6841  18.5152
    19.1576  20.7442  23.2066  24.6095

          k =-0.2500 0.5833-0.2500 (  4419 PWs)   bands (ev):

   -92.4213 -28.1751 -28.1728 -28.1726 -28.1642 -28.1627  -2.9510   3.5593
     6.1480   6.4650  11.4582  13.2365  14.0175  14.2630  18.3305  19.0373
    19.8671  20.8382  22.4987  24.9515

          k = 0.6667-0.3333 0.6667 (  4430 PWs)   bands (ev):

   -92.4213 -28.1745 -28.1728 -28.1724 -28.1638 -28.1628  -2.7194   3.0106
     5.8425   6.4982  11.5229  13.2146  13.8208  15.3164  17.9917  19.8427
    19.8855  20.6506  21.9759  24.8399

          k = 0.5833-0.2500 0.5833 (  4409 PWs)   bands (ev):

   -92.4213 -28.1740 -28.1730 -28.1726 -28.1635 -28.1631  -2.6843   2.9366
     5.6500   6.6574  11.6520  13.2047  13.5905  16.2757  17.5188  18.4648
    19.6584  21.4489  23.3450  23.9113

          k = 0.5000-0.1667 0.5000 (  4414 PWs)   bands (ev):

   -92.4213 -28.1738 -28.1734 -28.1730 -28.1635 -28.1632  -2.8661   3.3548
     5.6051   6.9227  11.8465  13.2710  13.3391  15.7579  17.2218  17.9082
    20.0421  21.2119  23.3464  25.1014

          k = 0.4167-0.0833 0.4167 (  4422 PWs)   bands (ev):

   -92.4213 -28.1744 -28.1736 -28.1736 -28.1638 -28.1632  -3.1682   4.1231
     5.7509   7.2536  12.0487  12.9956  13.3429  14.7699  16.4532  18.2969
    19.6612  21.0856  22.8292  23.9905

          k = 0.3333 0.0000 0.3333 (  4419 PWs)   bands (ev):

   -92.4213 -28.1749 -28.1743 -28.1739 -28.1640 -28.1633  -3.4776   4.9769
     6.1939   7.5743  12.1318  12.5590  13.0326  14.3365  16.2779  17.9902
    18.6590  20.9031  21.6839  24.7538

          k = 0.0000 0.5000 0.0000 (  4432 PWs)   bands (ev):

   -92.4213 -28.1765 -28.1729 -28.1729 -28.1648 -28.1627  -3.3904   5.2195
     6.4453   6.4453  10.7337  12.5101  14.5356  14.5356  16.7044  18.9413
    19.5414  21.6384  21.6384  22.7608

          k =-0.0833 0.5833-0.0833 (  4434 PWs)   bands (ev):

   -92.4213 -28.1765 -28.1722 -28.1722 -28.1649 -28.1624  -3.1359   4.5228
     6.0992   6.2032  10.7690  12.2509  14.8333  15.0393  17.7324  19.4011
    19.8545  21.7953  22.7858  24.2016

          k =-0.1667 0.6667-0.1667 (  4416 PWs)   bands (ev):

   -92.4213 -28.1760 -28.1718 -28.1717 -28.1648 -28.1623  -2.8480   3.8212
     5.6247   6.0889  10.9668  12.6223  14.7414  15.1408  18.9736  19.4588
    20.4227  21.6358  22.6470  24.5719

          k = 0.7500-0.2500 0.7500 (  4415 PWs)   bands (ev):

   -92.4213 -28.1753 -28.1718 -28.1715 -28.1645 -28.1624  -2.6109   3.3280
     5.1605   6.1137  11.0877  13.6480  14.5971  14.9538  18.4981  20.0357
    20.4462  21.2307  22.3853  25.5116

          k = 0.6667-0.1667 0.6667 (  4420 PWs)   bands (ev):

   -92.4213 -28.1746 -28.1722 -28.1717 -28.1641 -28.1628  -2.5250   3.1840
     4.8265   6.2743  11.2595  14.4483  14.6391  15.0605  17.2853  18.5571
    20.7298  21.7705  23.7771  25.4835

          k = 0.5833-0.0833 0.5833 (  4420 PWs)   bands (ev):

   -92.4213 -28.1740 -28.1728 -28.1721 -28.1636 -28.1632  -2.6348   3.4113
     4.7147   6.5520  11.5322  14.2212  14.4143  15.7599  16.7167  17.3180
    20.8130  21.9713  24.0465  25.4631

          k = 0.5000 0.0000 0.5000 (  4403 PWs)   bands (ev):

   -92.4213 -28.1738 -28.1734 -28.1728 -28.1636 -28.1633  -2.8825   3.8039
     4.9883   6.9051  11.8607  13.6402  14.2578  14.7181  16.6080  17.9935
    20.5040  21.7646  22.6344  25.1501

          k = 0.0000 0.6667 0.0000 (  4424 PWs)   bands (ev):

   -92.4213 -28.1768 -28.1714 -28.1714 -28.1652 -28.1621  -2.9300   4.1540
     5.9325   5.9325  10.3950  11.6187  15.8871  15.8871  18.0420  20.0846
    20.3520  23.1861  23.1861  24.1223

          k =-0.0833 0.7500-0.0833 (  4409 PWs)   bands (ev):

   -92.4213 -28.1767 -28.1709 -28.1709 -28.1653 -28.1619  -2.6910   3.6917
     5.5657   5.7889  10.4786  11.5111  16.1630  16.2949  18.9524  20.2686
    20.8926  22.7703  22.9885  24.0887

          k = 0.8333-0.1667 0.8333 (  4403 PWs)   bands (ev):

   -92.4213 -28.1762 -28.1709 -28.1707 -28.1651 -28.1620  -2.4867   3.3961
     4.9808   5.7875  10.6737  12.1602  16.0575  16.2140  18.9048  20.3971
    20.5768  22.6172  22.6353  24.9455

          k = 0.7500-0.0833 0.7500 (  4410 PWs)   bands (ev):

   -92.4213 -28.1754 -28.1712 -28.1708 -28.1647 -28.1623  -2.3947   3.3734
     4.4242   5.9282  10.8621  13.4091  15.8146  15.8866  17.5475  18.9329
    21.3124  22.6964  24.0190  25.3917

          k = 0.6667-0.0000 0.6667 (  4426 PWs)   bands (ev):

   -92.4213 -28.1746 -28.1719 -28.1713 -28.1642 -28.1628  -2.4542   3.5019
     4.2061   6.1955  11.1514  14.9146  15.1356  15.6261  16.2031  17.8435
    21.5258  22.5276  24.4380  25.3182

          k = 0.0000 0.8333 0.0000 (  4416 PWs)   bands (ev):

   -92.4213 -28.1771 -28.1703 -28.1703 -28.1655 -28.1617  -2.5179   3.3667
     5.6110   5.6110  10.1817  11.0076  17.1354  17.1354  19.1682  20.8307
    21.3937  22.5403  22.5403  24.2020

          k = 0.9167-0.0833 0.9167 (  4399 PWs)   bands (ev):

   -92.4213 -28.1769 -28.1702 -28.1701 -28.1655 -28.1616  -2.3836   3.1796
     5.2944   5.5751  10.3228  11.1198  17.2906  17.3072  19.3345  20.6871
    21.0314  22.5986  22.6409  24.1191

          k = 0.8333 0.0000 0.8333 (  4400 PWs)   bands (ev):

   -92.4213 -28.1763 -28.1705 -28.1703 -28.1652 -28.1619  -2.3380   3.2363
     4.7482   5.6847  10.5657  12.0067  16.8089  16.9296  18.2801  19.7483
    21.0701  23.3023  23.6900  24.8633

          k = 0.0000-1.0000 0.0000 (  4432 PWs)   bands (ev):

   -92.4213 -28.1772 -28.1699 -28.1699 -28.1656 -28.1615  -2.3427   3.0643
     5.5018   5.5018  10.1102  10.7962  17.7644  17.7644  19.6584  20.9900
    21.7817  21.7817  22.5342  22.8280

          k =-0.1667 0.3333 0.0000 (  4439 PWs)   bands (ev):

   -92.4213 -28.1758 -28.1744 -28.1743 -28.1642 -28.1634  -3.6993   5.7984
     6.8055   7.4975  11.5977  12.4702  13.1283  13.8493  16.3295  17.7629
    18.3481  20.5136  20.8156  23.1132

          k =-0.2500 0.4167-0.0833 (  4426 PWs)   bands (ev):

   -92.4213 -28.1754 -28.1738 -28.1737 -28.1642 -28.1631  -3.4230   4.7911
     6.3557   7.2573  11.8383  12.5509  13.5456  14.1038  16.8038  18.0886
    18.8174  20.5829  22.4038  24.6426

          k =-0.3333 0.5000-0.1667 (  4421 PWs)   bands (ev):

   -92.4213 -28.1748 -28.1734 -28.1731 -28.1640 -28.1630  -3.0999   3.8118
     6.1142   6.9590  11.9233  12.6031  13.6493  14.7040  17.5362  18.1644
    19.7544  20.7478  23.2654  24.3774

          k = 0.5833-0.4167 0.7500 (  4418 PWs)   bands (ev):

   -92.4213 -28.1742 -28.1733 -28.1727 -28.1636 -28.1629  -2.8195   3.1050
     6.0035   6.7209  11.9136  12.5366  13.6630  15.6230  17.7817  18.7828
    19.8766  20.9036  22.5478  24.5089

          k = 0.5000-0.3333 0.6667 (  4422 PWs)   bands (ev):

   -92.4213 -28.1739 -28.1734 -28.1725 -28.1634 -28.1630  -2.7039   2.8430
     5.9754   6.6286  11.9064  12.4898  13.6559  16.2491  17.5913  19.2577
    19.7396  20.7181  22.7540  23.6880

          k =-0.1667 0.5000 0.0000 (  4443 PWs)   bands (ev):

   -92.4213 -28.1761 -28.1730 -28.1729 -28.1646 -28.1628  -3.3259   4.8637
     6.1677   6.7074  11.2003  12.7998  13.8400  14.4615  17.1700  18.8067
    19.2733  21.3121  22.0109  24.1703

          k =-0.2500 0.5833-0.0833 (  4424 PWs)   bands (ev):

   -92.4213 -28.1757 -28.1727 -28.1722 -28.1645 -28.1626  -3.0311   4.0998
     5.7350   6.4542  11.4861  13.0137  13.6461  14.9091  18.0484  18.9437
    19.9935  21.4335  23.0246  23.8654

          k = 0.6667-0.3333 0.8333 (  4411 PWs)   bands (ev):

   -92.4213 -28.1750 -28.1726 -28.1718 -28.1643 -28.1626  -2.7498   3.4405
     5.4453   6.2491  11.6480  13.3531  13.8903  15.0237  18.2820  19.2374
    20.4848  21.0476  22.7893  24.6850

          k = 0.5833-0.2500 0.7500 (  4411 PWs)   bands (ev):

   -92.4213 -28.1743 -28.1729 -28.1716 -28.1639 -28.1628  -2.5877   3.0981
     5.2324   6.2226  11.7849  13.1322  14.7224  15.3409  17.2069  19.7754
    20.2654  20.7785  23.3892  25.2860

          k = 0.5000-0.1667 0.6667 (  4418 PWs)   bands (ev):

   -92.4213 -28.1738 -28.1734 -28.1718 -28.1638 -28.1630  -2.6278   3.1890
     5.1238   6.3797  11.9966  12.9587  14.6241  15.7363  16.8798  18.6063
    20.3110  21.5480  23.9849  24.7893

          k = 0.4167-0.0833 0.5833 (  4417 PWs)   bands (ev):

   -92.4213 -28.1743 -28.1733 -28.1723 -28.1639 -28.1630  -2.8475   3.6597
     5.1960   6.6669  12.2608  12.7943  14.1782  14.9308  17.4484  18.1138
    20.4527  21.5177  23.0624  24.7957

          k = 0.3333 0.0000 0.5000 (  4430 PWs)   bands (ev):

   -92.4213 -28.1749 -28.1733 -28.1730 -28.1641 -28.1630  -3.1442   4.2756
     5.5797   7.0025  12.2915  12.5967  13.8468  14.2896  16.9108  18.6244
    19.6529  21.6510  22.2958  23.9207

          k =-0.1667 0.6667-0.0000 (  4409 PWs)   bands (ev):

   -92.4213 -28.1764 -28.1717 -28.1714 -28.1650 -28.1622  -2.8854   4.0300
     5.6681   5.9909  10.8703  12.0223  14.9156  15.8635  18.4646  19.6948
    20.4433  22.5430  22.8333  23.9584

          k = 0.7500-0.2500 0.9167 (  4418 PWs)   bands (ev):

   -92.4213 -28.1759 -28.1717 -28.1709 -28.1649 -28.1622  -2.6336   3.5946
     5.1948   5.8008  11.1710  12.4321  14.6883  16.2201  18.7998  19.6266
    21.0145  21.8539  23.1302  24.1782

          k = 0.6667-0.1667 0.8333 (  4406 PWs)   bands (ev):

   -92.4213 -28.1751 -28.1720 -28.1707 -28.1646 -28.1624  -2.4650   3.3634
     4.7244   5.8057  11.3553  13.5430  14.4194  16.0586  17.6337  20.0007
    20.7717  21.6894  23.7883  25.2495

          k = 0.5833-0.0833 0.7500 (  4409 PWs)   bands (ev):

   -92.4213 -28.1743 -28.1726 -28.1710 -28.1642 -28.1628  -2.4541   3.4042
     4.4296   5.9879  11.5924  14.1394  14.9600  15.3908  16.6727  18.7121
    21.2980  22.0773  24.7061  24.8736

          k = 0.5000 0.0000 0.6667 (  4419 PWs)   bands (ev):

   -92.4213 -28.1738 -28.1733 -28.1715 -28.1639 -28.1630  -2.6046   3.5633
     4.5469   6.2994  11.9253  13.6657  14.4965  15.7140  16.8119  17.7758
    21.2209  22.0340  23.6562  25.6745

          k = 0.8333-0.1667 1.0000 (  4407 PWs)   bands (ev):

   -92.4213 -28.1766 -28.1708 -28.1703 -28.1653 -28.1618  -2.4974   3.3994
     5.3622   5.5161  10.6621  11.4466  16.1281  17.0644  19.2420  20.0824
    21.3147  22.2543  23.2583  24.3776

          k = 0.7500-0.0833 0.9167 (  4397 PWs)   bands (ev):

   -92.4213 -28.1760 -28.1711 -28.1701 -28.1651 -28.1620  -2.3686   3.3143
     4.8352   5.4881  10.9889  12.1111  15.8625  16.7954  18.5622  20.1382
    20.8946  22.4813  24.1587  24.8785

          k = 0.6667 0.0000 0.8333 (  4396 PWs)   bands (ev):

   -92.4213 -28.1752 -28.1717 -28.1704 -28.1647 -28.1624  -2.3536   3.4406
     4.3363   5.6699  11.2467  13.4218  15.3929  15.7965  17.7235  19.2185
    21.2733  22.8905  24.7042  24.8570

          k =-0.1667-1.0000-0.0000 (  4400 PWs)   bands (ev):

   -92.4213 -28.1767 -28.1704 -28.1699 -28.1654 -28.1617  -2.3349   3.1529
     5.2676   5.3451  10.5925  11.2472  17.1202  17.1905  19.3011  20.2352
    21.2865  22.0067  23.9564  23.9724

          k = 0.6667-0.3333 1.0000 (  4418 PWs)   bands (ev):

   -92.4213 -28.1752 -28.1726 -28.1715 -28.1645 -28.1626  -2.7647   3.7675
     5.1041   6.1487  12.0665  13.0853  13.3317  15.7956  18.2353  18.5638
    20.8244  22.0355  22.7536  24.9197

          k = 0.5833-0.2500 0.9167 (  4412 PWs)   bands (ev):

   -92.4213 -28.1744 -28.1729 -28.1709 -28.1643 -28.1627  -2.5426   3.4648
     4.7671   5.8555  12.4651  12.9926  13.8717  16.0757  17.2638  19.1532
    21.1516  21.6765  24.0292  24.6148

          k = 0.5000-0.1667 0.8333 (  4418 PWs)   bands (ev):

   -92.4213 -28.1738 -28.1733 -28.1708 -28.1642 -28.1627  -2.4540   3.3327
     4.6755   5.7378  12.6109  12.8007  15.0220  15.2817  16.8282  20.1055
    20.7203  21.3034  24.6292  25.1624

          k = 0.6667-0.1667 1.0000 (  4413 PWs)   bands (ev):

   -92.4213 -28.1753 -28.1720 -28.1703 -28.1648 -28.1623  -2.4467   3.4775
     4.8344   5.4047  11.8888  12.5721  14.3702  16.5689  18.1971  19.7168
    21.2325  22.2321  23.9074  24.7889

          k = 0.5833-0.0833 0.9167 (  4405 PWs)   bands (ev):

   -92.4213 -28.1745 -28.1726 -28.1701 -28.1646 -28.1625  -2.3533   3.4989
     4.4808   5.2819  12.3012  13.5594  14.0771  15.3524  18.1745  20.0815
    20.8715  22.2874  24.5827  25.2859

          k = 0.5000 0.0000 0.8333 (  4411 PWs)   bands (ev):

   -92.4213 -28.1738 -28.1733 -28.1703 -28.1644 -28.1627  -2.3913   3.5458
     4.3703   5.4780  12.6000  13.5471  14.1351  15.1310  17.7287  19.4175
    21.2409  22.4467  24.1379  25.1748

          k =-0.3333-1.0000 0.0000 (  4388 PWs)   bands (ev):

   -92.4213 -28.1754 -28.1717 -28.1699 -28.1649 -28.1622  -2.3193   3.3891
     4.7803   5.0755  11.8295  12.3945  15.4275  15.7162  19.0799  19.8308
    21.1472  22.1066  25.3923  25.4070

          k =-0.5000-1.0000 0.0000 (  4388 PWs)   bands (ev):

   -92.4213 -28.1738 -28.1733 -28.1699 -28.1646 -28.1625  -2.3114   3.5774
     4.4814   4.9565  13.3851  13.6616  13.6962  14.2563  19.0458  19.7556
    21.1265  22.1506  25.3383  25.4043

     the Fermi energy is     9.1122 ev

!    total energy              =    -201.44407350 Ry
     estimated scf accuracy    <          3.3E-11 Ry
     smearing contrib. (-TS)   =      -0.00000000 Ry
     internal energy E=F+TS    =    -201.44407350 Ry

     The total energy is F=E-TS. E is the sum of the following terms:
     one-electron contribution =    -102.35622428 Ry
     hartree contribution      =      49.71747310 Ry
     xc contribution           =     -22.67836542 Ry
     ewald contribution        =    -126.12695689 Ry

     convergence has been achieved in   7 iterations

     Writing all to output data dir out/mp-252.save/
 
     init_run     :      0.84s CPU      0.90s WALL (       1 calls)
     electrons    :     15.35s CPU     16.30s WALL (       1 calls)

     Called by init_run:
     wfcinit      :      0.78s CPU      0.83s WALL (       1 calls)
     potinit      :      0.02s CPU      0.02s WALL (       1 calls)
     hinit0       :      0.01s CPU      0.01s WALL (       1 calls)

     Called by electrons:
     c_bands      :     13.32s CPU     14.09s WALL (       8 calls)
     sum_band     :      1.98s CPU      2.15s WALL (       8 calls)
     v_of_rho     :      0.05s CPU      0.05s WALL (       8 calls)
     mix_rho      :      0.01s CPU      0.01s WALL (       8 calls)

     Called by c_bands:
     init_us_2    :      0.18s CPU      0.20s WALL (    1224 calls)
     init_us_2:cp :      0.18s CPU      0.20s WALL (    1224 calls)
     cegterg      :     12.58s CPU     12.95s WALL (     576 calls)

     Called by *egterg:
     cdiaghg      :      1.05s CPU      1.07s WALL (    2379 calls)
     h_psi        :     11.01s CPU     11.37s WALL (    2523 calls)
     g_psi        :      0.07s CPU      0.07s WALL (    1875 calls)

     Called by h_psi:
     h_psi:calbec :      0.25s CPU      0.26s WALL (    2523 calls)
     vloc_psi     :     10.55s CPU     10.89s WALL (    2523 calls)
     add_vuspsi   :      0.16s CPU      0.17s WALL (    2523 calls)

     General routines
     calbec       :      0.25s CPU      0.26s WALL (    2523 calls)
     fft          :      0.03s CPU      0.03s WALL (      80 calls)
     ffts         :      0.00s CPU      0.00s WALL (       8 calls)
     fftw         :     11.26s CPU     11.63s WALL (   78944 calls)
     davcio       :      0.12s CPU      0.51s WALL (    1924 calls)
 
     Parallel routines
 
     PWSCF        :     16.35s CPU     17.62s WALL

 
   This run was terminated on:  18:58:56  20Dec2023            

=------------------------------------------------------------------------------=
   JOB DONE.
=------------------------------------------------------------------------------=
