
     Program PWSCF v.7.1 starts on 20Dec2023 at 19: 2: 2 

     This program is part of the open-source Quantum ESPRESSO suite
     for quantum simulation of materials; please cite
         "P. Giannozzi et al., J. Phys.:Condens. Matter 21 395502 (2009);
         "P. Giannozzi et al., J. Phys.:Condens. Matter 29 465901 (2017);
         "P. Giannozzi et al., J. Chem. Phys. 152 154105 (2020);
          URL http://www.quantum-espresso.org", 
     in publications or presentations arising from this work. More details at
     http://www.quantum-espresso.org/quote

     Parallel version (MPI), running on     8 processors

     MPI processes distributed on     1 nodes
     123118 MiB available memory on the printing compute node when the environment starts
 
     Reading input from pw_mp-252_nscf_k60_E90.in
Warning: card &IONS ignored
Warning: card / ignored
Warning: card &CELL ignored
Warning: card / ignored

     Current dimensions of program PWSCF are:
     Max number of different atomic species (ntypx) = 10
     Max number of k-points (npk) =  40000
     Max angular momentum in pseudopotentials (lmaxx) =  4

     Atomic positions and unit cell read from directory:
     out/mp-252.save/
     Atomic positions from file used, from input discarded
 
 
     R & G space division:  proc/nbgrp/npool/nimage =       8
     Subspace diagonalization in iterative solution of the eigenvalue problem:
     one sub-group per band group will be used
     scalapack distributed-memory algorithm (size of sub-group:  2*  2 procs)

 
     Parallelization info
     --------------------
     sticks:   dense  smooth     PW     G-vecs:    dense   smooth      PW
     Min         177     177     51                 4444     4444     666
     Max         178     178     52                 4448     4448     667
     Sum        1417    1417    409                35557    35557    5329
 
     Using Slab Decomposition
 


     bravais-lattice index     =            2
     lattice parameter (alat)  =      10.7014  a.u.
     unit-cell volume          =     306.3778 (a.u.)^3
     number of atoms/cell      =            2
     number of atomic types    =            2
     number of electrons       =        20.00
     number of Kohn-Sham states=         2200
     kinetic-energy cutoff     =      90.0000  Ry
     charge density cutoff     =     360.0000  Ry
     Exchange-correlation= PBE
                           (   1   4   3   4   0   0   0)

     celldm(1)=  10.701363  celldm(2)=   0.000000  celldm(3)=   0.000000
     celldm(4)=   0.000000  celldm(5)=   0.000000  celldm(6)=   0.000000

     crystal axes: (cart. coord. in units of alat)
               a(1) = (  -0.500000   0.000000   0.500000 )  
               a(2) = (   0.000000   0.500000   0.500000 )  
               a(3) = (  -0.500000   0.500000   0.000000 )  

     reciprocal axes: (cart. coord. in units 2 pi/alat)
               b(1) = ( -1.000000 -1.000000  1.000000 )  
               b(2) = (  1.000000  1.000000  1.000000 )  
               b(3) = ( -1.000000  1.000000 -1.000000 )  


     PseudoPot. # 1 for Be read from file:
     /usr/scratch4/magr4985/MG/HTDF/pseudo/SG15/Be.upf
     MD5 check sum: dc1f98d164da9dc61a6fd2fad64b4ce2
     Pseudo is Norm-conserving, Zval =  4.0
     Generated using ONCVPSP code by D. R. Hamann
     Using radial grid of  602 points,  4 beta functions with: 
                l(1) =   0
                l(2) =   0
                l(3) =   1
                l(4) =   1

     PseudoPot. # 2 for Te read from file:
     /usr/scratch4/magr4985/MG/HTDF/pseudo/SG15/Te.upf
     MD5 check sum: dd4de4dac1e38587f63aaf3700bb29d3
     Pseudo is Norm-conserving, Zval = 16.0
     Generated using ONCVPSP code by D. R. Hamann
     Using radial grid of  602 points,  6 beta functions with: 
                l(1) =   0
                l(2) =   0
                l(3) =   1
                l(4) =   1
                l(5) =   2
                l(6) =   2

     atomic species   valence    mass     pseudopotential
        Be             4.00     9.01220     Be( 1.00)
        Te            16.00   127.60000     Te( 1.00)

     24 Sym. Ops. (no inversion) found



   Cartesian axes

     site n.     atom                  positions (alat units)
         1           Be  tau(   1) = (   0.0000000   0.0000000   0.0000000  )
         2           Te  tau(   2) = (  -0.7500000   0.7500000   0.7500000  )

     number of k points=     8  Gaussian smearing, width (Ry)=  0.0005
                       cart. coord. in units 2pi/alat
        k(    1) = (   0.0000000   0.0000000   0.0000000), wk =   0.0312500
        k(    2) = (  -0.2500000   0.2500000  -0.2500000), wk =   0.2500000
        k(    3) = (   0.5000000  -0.5000000   0.5000000), wk =   0.1250000
        k(    4) = (   0.0000000   0.5000000   0.0000000), wk =   0.1875000
        k(    5) = (   0.7500000  -0.2500000   0.7500000), wk =   0.7500000
        k(    6) = (   0.5000000   0.0000000   0.5000000), wk =   0.3750000
        k(    7) = (   0.0000000  -1.0000000   0.0000000), wk =   0.0937500
        k(    8) = (  -0.5000000  -1.0000000   0.0000000), wk =   0.1875000

     Dense  grid:    35557 G-vectors     FFT dimensions: (  45,  45,  45)

     Estimated max dynamical RAM per process >     319.47 MB

     Estimated total dynamical RAM >       2.50 GB

     The potential is recalculated from file :
     out/mp-252.save/charge-density

     Starting wfcs are random

     Band Structure Calculation
     ParO style diagonalization

     ethr =  5.00E-06,  avg # of iterations =  5.7

     total cpu time spent up to now is     4529.4 secs

     End of band structure calculation

          k = 0.0000 0.0000 0.0000 (  4477 PWs)   bands (ev):

   -92.4213 -28.1759 -28.1759 -28.1759 -28.1640 -28.1640  -4.1124   8.0774
     8.0774   8.0774  11.7361  11.7361  11.7361  11.8023  16.5322  18.5009
    18.5009  19.5411  19.5411  19.5411  23.2307  31.7584  31.7584  31.7584
    33.9842  33.9842  33.9842  35.8607  35.8607  35.8607  36.6783  36.6783
    43.4651  43.4651  43.4651  44.0587  46.1838  47.3399  47.3399  47.3399
    49.7040  49.7040  49.7040  50.8043  50.8043  50.8058  50.8058  50.8058
    50.8612  50.8612  50.8612  51.3586  51.3586  52.0623  52.0623  52.0623
    56.0255  56.4904  56.4904  56.4904  57.5206  57.5206  57.5206  61.6322
    62.7071  71.6864  71.6864  71.6864  74.1561  74.1561  74.3964  74.3964
    74.3964  74.9665  77.5807  77.5807  77.5807  82.9413  82.9413  82.9413
    83.8997  83.8997  84.4410  85.1170  86.8723  86.8723  86.8723  87.1268
    87.1268  87.1268  87.2777  87.2777  88.5364  88.5364  88.5364  90.7139
    90.7139  90.7139  91.4778  91.4778  91.4778  92.1948  92.1948  92.1948
    93.9186  94.2942  94.2942  94.2942  94.3176  94.3176  95.0859  95.0859
    95.0859  95.4379  95.4379  95.4379  95.6134  95.8092  95.8092 103.1003
   105.8429 105.8429 105.8429 108.2896 108.2896 108.2896 108.3339 108.3339
   108.3339 108.8906 108.8906 108.8906 109.3984 109.3984 109.3984 110.1766
   110.1766 113.1535 113.1535 113.5176 113.5176 113.5176 113.5569 116.6941
   118.5936 118.5936 118.5936 121.0363 121.0363 121.0363 123.4981 123.9938
   123.9938 123.9938 124.5708 124.5708 124.5708 124.8473 124.8473 124.8473
   125.1668 125.1668 125.1668 125.5030 125.5030 125.5039 125.5406 125.5406
   125.5406 127.3743 127.3743 128.2772 128.2772 128.2772 135.9557 135.9557
   135.9557 136.8230 136.8230 136.8230 136.9266 139.5049 144.5045 144.5045
   145.1761 145.1761 145.1761 146.9295 146.9295 146.9295 150.5685 151.8839
   151.8839 151.8839 153.3915 153.3915 153.3915 155.6925 155.6925 155.6925
   156.0808 156.0808 156.2267 156.2267 156.2267 158.9361 158.9361 158.9361
   159.0988 159.0988 159.0988 159.3611 159.3611 159.4309 160.7060 160.7060
   160.7060 160.7238 161.1527 161.1527 161.1527 162.4347 162.5404 162.5404
   162.5404 162.7552 162.7552 163.7719 163.7719 163.7719 163.8907 163.8907
   163.9714 163.9714 163.9714 164.3693 164.3693 164.3693 164.8151 165.4765
   165.4765 165.4765 166.6549 168.5821 168.5821 168.5821 168.5908 168.5908
   168.9744 168.9744 168.9744 169.0584 169.0584 169.0584 169.4344 169.4344
   169.5839 169.5839 169.5839 173.8824 173.8824 176.1256 176.1256 176.1256
   178.0406 178.0406 178.0406 178.2746 183.1670 183.1670 183.1670 183.4618
   183.4618 183.4618 183.4900 183.4900 183.4900 185.6167 185.9677 185.9677
   185.9677 186.9325 186.9325 187.0579 187.0579 187.0579 187.1202 189.6237
   189.6237 189.6237 191.0054 191.0054 191.7534 193.2650 193.2650 193.2650
   195.3483 195.3483 195.3483 195.4461 195.4461 195.4461 195.4758 195.4758
   195.4758 195.7690 195.7690 198.5951 199.9694 199.9694 199.9694 202.6630
   202.6630 203.0820 203.0820 203.0820 204.2856 204.2856 204.2856 204.4237
   204.8306 204.8306 204.8306 204.8440 204.8440 204.8440 205.3492 205.3492
   205.3492 205.5279 205.5279 209.7458 209.7458 209.7458 212.0206 212.0206
   217.9813 217.9813 217.9813 218.8490 219.1488 219.1488 219.1488 220.5319
   221.1545 221.1545 221.1545 221.7333 221.7333 221.7333 223.4602 223.4602
   224.1916 226.0045 226.0045 226.0045 227.7121 229.5817 230.5748 230.5748
   230.5748 234.1719 234.1719 234.1719 234.3252 234.3252 234.3252 234.6214
   234.6214 235.1704 235.1704 235.1704 235.5044 235.5044 235.5044 235.8196
   235.8196 235.8196 235.9283 235.9283 235.9283 235.9320 236.6670 236.6670
   236.6670 237.6865 237.6865 239.1603 239.1603 239.6891 239.9877 239.9877
   239.9877 240.0199 240.0199 240.0199 240.2475 240.2475 240.2475 242.1229
   242.1229 242.1229 242.6812 243.9367 243.9367 243.9386 243.9386 243.9386
   244.0259 244.0259 244.0259 245.9632 245.9632 245.9632 248.1432 248.8598
   248.8598 248.8598 250.4190 250.4190 251.5042 252.9376 252.9376 252.9376
   252.9389 252.9389 252.9389 253.4251 253.4251 253.4251 253.7357 253.7357
   253.7357 254.0131 254.0131 258.0738 258.0738 258.4677 258.4677 258.4677
   258.6512 258.6512 258.6512 258.9366 258.9366 258.9366 259.4410 259.4410
   259.4410 259.7647 259.7647 260.2852 260.9841 260.9841 260.9841 261.3823
   261.3823 261.3823 261.6792 264.9693 264.9693 264.9693 265.6058 266.4270
   266.4270 267.0528 267.0528 267.0528 267.2707 269.3408 269.3408 269.3408
   270.1804 270.1804 270.1804 270.2440 270.2440 270.2440 270.4684 270.4684
   270.4684 271.4116 271.4116 271.4116 271.6001 273.0617 273.0617 273.0617
   273.0668 273.0668 273.1941 273.1941 273.1941 273.3860 273.6930 273.6930
   273.8696 274.8258 274.8258 274.8258 274.8684 274.8684 274.8684 275.3246
   275.3246 275.3898 275.3898 275.3898 275.6852 275.6852 275.6868 275.6868
   275.6868 275.9586 275.9586 275.9586 276.1877 276.1877 276.1877 276.3091
   276.3091 276.3091 276.5405 276.5405 276.5405 276.9011 277.0913 277.0913
   277.0913 277.1238 277.1238 291.2315 291.2315 293.2497 293.2497 293.2497
   293.7126 298.4330 298.4330 298.4330 300.6765 300.6765 300.6765 302.1336
   302.6890 302.6890 303.8603 304.7007 304.7007 304.7007 305.2046 305.2046
   305.2046 305.4042 305.4042 305.4042 305.4136 305.4136 305.4136 306.1696
   306.1696 309.3333 309.9944 309.9944 309.9944 310.7971 310.7971 311.3036
   311.3036 311.3036 312.3425 313.1568 313.1568 313.1568 314.2896 314.6146
   314.6146 314.6146 314.7415 314.7415 314.7415 314.7580 314.7580 314.7580
   315.4260 315.4260 315.4260 317.3002 317.3002 317.6457 317.6457 317.6457
   317.9240 317.9240 317.9240 317.9561 318.2249 318.2249 318.2703 318.2703
   318.2703 318.3002 318.3002 318.3002 318.3375 318.3375 318.3375 318.4072
   318.4072 320.5107 320.5107 320.5107 321.0829 321.0829 321.8598 321.8598
   321.8598 322.0206 322.0206 322.0206 324.4167 330.8331 330.8331 330.8331
   331.9205 331.9205 332.0168 333.2673 333.2673 333.2673 333.3504 333.3504
   333.3504 333.5007 333.5007 333.5007 333.6133 333.6133 333.6133 334.5221
   334.5656 334.5656 334.5656 334.6072 334.6072 338.6783 338.6783 338.6783
   340.3933 340.6360 340.6360 340.6360 340.8501 340.8501 340.8501 340.9944
   340.9944 343.0523 343.0523 343.0523 343.2649 344.0707 344.0707 344.0707
   344.4227 344.4227 344.4299 344.5140 344.5140 344.5140 344.5709 344.5709
   344.6201 344.6201 344.6201 344.7488 344.7488 344.7488 344.8001 344.8001
   344.8001 346.2728 346.2729 346.2729 346.5871 347.3407 347.6041 347.6041
   347.6041 350.4941 350.4941 350.4941 350.5701 350.5701 350.5701 350.6132
   350.6132 350.6513 350.6513 350.6513 350.7193 353.7594 353.7594 353.7594
   354.4015 354.5821 354.5821 354.5821 354.7187 354.7187 354.9555 354.9555
   354.9555 355.9269 355.9269 355.9269 355.9567 355.9567 355.9693 355.9693
   355.9693 356.0730 356.0730 356.0730 356.0901 367.0774 367.0774 368.2878
   368.2878 368.2878 369.3442 369.3442 369.3442 369.5942 370.0576 370.0576
   370.0576 370.1017 370.1017 370.1017 370.1499 370.1499 370.1499 370.9152
   370.9678 370.9678 370.9678 370.9709 370.9709 372.7727 372.7727 372.7727
   374.0099 376.0364 376.0364 376.0364 376.3016 376.3016 376.3016 376.4170
   376.4170 376.5686 376.9943 377.8403 377.8403 377.8403 377.9512 377.9512
   377.9512 377.9518 377.9518 378.1972 378.1972 378.1972 378.4912 378.4912
   378.4912 378.9049 378.9049 383.9492 383.9492 383.9492 383.9868 383.9868
   383.9868 383.9961 383.9961 384.0931 384.0931 384.0931 384.2153 384.2153
   384.2153 384.4232 384.4232 384.8537 384.8537 384.8537 386.0582 386.1177
   386.1177 386.1177 386.1344 386.1344 386.1344 386.2879 386.2879 386.2879
   386.5046 386.5604 386.5604 386.5604 386.6682 386.7037 386.7037 386.7037
   386.7131 386.7131 386.7131 387.9919 387.9919 388.6105 388.6105 388.6105
   388.8378 390.1223 390.4687 390.4687 390.4687 390.9375 390.9375 390.9375
   390.9629 390.9629 390.9629 390.9789 390.9789 391.1638 391.1638 391.1638
   391.2128 391.2128 391.2128 391.5419 391.5419 392.8110 392.8110 392.9538
   392.9538 392.9538 393.2290 393.2290 393.2290 393.2816 393.3576 393.3576
   393.3576 393.3951 393.3951 393.3951 393.6505 393.6505 393.6540 393.6540
   393.6540 393.8917 393.8917 393.8917 394.0252 403.3765 403.3765 403.3765
   404.2560 404.5310 404.7555 404.7555 404.7555 410.7529 410.7529 410.7529
   410.7879 410.7879 410.7944 410.7944 410.7944 410.8011 410.8011 410.8011
   410.8138 410.8138 410.8138 410.8303 410.8303 416.7400 416.7400 416.9999
   416.9999 416.9999 417.4691 418.4975 418.4975 418.4975 418.7200 418.7200
   418.7200 418.7950 418.7950 418.7950 418.8245 418.8245 418.8245 421.4426
   421.4426 421.4426 422.3293 422.3293 422.3471 422.3471 422.3471 422.3728
   422.6643 423.7047 423.7047 425.4753 425.4753 425.4753 425.5141 425.5141
   425.5141 425.5931 425.5931 425.5931 425.7144 425.7144 425.7144 426.6086
   426.6086 426.6144 426.6144 426.6144 426.6305 439.4774 439.4774 439.4774
   440.0201 440.0201 440.0201 440.4195 441.0620 441.2905 441.2905 441.3810
   441.3810 441.3810 441.9257 441.9257 441.9257 442.2299 442.2299 442.2299
   442.2817 442.2817 442.2817 442.2883 442.2883 444.1338 444.1338 444.1338
   444.2847 444.2847 444.2847 444.4546 444.4546 444.8144 444.8144 444.8144
   445.4750 453.4403 453.4403 453.4403 455.4746 455.7988 455.8935 455.8935
   455.8935 457.9065 457.9065 457.9065 458.3813 458.3813 458.7022 458.7022
   458.7022 459.2195 459.2195 459.2195 459.3887 459.3887 459.4467 459.6715
   459.6715 459.6715 459.7423 459.7844 459.7844 459.7844 459.8136 459.8136
   459.8136 460.2373 460.2373 460.2373 460.4771 460.4771 460.4771 460.5919
   460.5919 460.8589 460.8589 460.8589 460.9952 462.2213 462.2213 462.3994
   462.3994 462.3994 462.7935 462.7935 462.7935 462.8275 462.8303 462.8303
   462.8396 462.8396 462.8396 462.8696 462.8696 462.8696 462.9870 462.9870
   462.9870 463.1015 463.1015 463.8632 464.1160 464.1160 464.1160 464.3395
   464.3395 464.3395 464.5426 464.5426 464.5426 464.5715 464.5715 468.6288
   468.6288 468.6288 468.9530 468.9530 468.9530 468.9693 468.9693 469.0537
   469.0999 469.0999 469.0999 476.4399 476.4399 476.4399 478.2104 478.2104
   478.2274 478.2274 478.2274 478.3614 478.6090 478.6090 478.6090 478.6668
   478.6668 478.6668 478.8397 478.8397 479.0011 479.4227 479.4227 479.4227
   479.4262 479.4262 479.5085 479.5085 479.5085 479.7401 479.7401 479.7401
   479.8189 481.5611 481.5611 481.5611 481.8216 481.8216 481.8216 482.0085
   482.0085 482.0085 482.2550 482.6509 482.6509 482.9337 482.9337 482.9337
   483.4592 483.4592 483.4592 483.5413 483.5413 483.5413 483.8160 483.8160
   483.8160 484.3110 484.3110 484.3180 484.3180 484.3180 484.3707 484.3707
   484.3707 484.4099 484.4099 484.4099 484.4628 486.6493 486.6493 486.7074
   486.7074 486.7074 486.8083 494.0326 494.0326 494.0326 495.1202 495.4002
   495.4002 495.4002 495.4783 495.4783 495.4783 495.5293 495.5293 495.8438
   495.8438 495.8438 496.1152 496.1152 496.1152 496.1510 496.1510 496.1963
   496.1963 496.1963 496.2973 496.2973 496.2973 496.4315 497.5352 497.9228
   498.1226 498.1226 498.1226 498.1767 498.1767 498.1767 498.2568 498.2568
   498.4806 498.4806 498.4806 498.7373 498.7373 498.7373 499.1486 499.1486
   499.1781 499.1781 499.1781 499.9212 499.9212 499.9212 500.1081 500.1081
   500.1081 500.2152 500.2962 500.2962 500.2962 500.3338 500.3338 500.3504
   500.3504 500.3504 500.5043 500.7807 500.7807 500.7807 500.9663 500.9663
   500.9663 501.0161 501.0161 501.7108 501.7108 501.7108 501.9538 502.4243
   502.4243 502.4243 502.5278 502.5278 502.5278 502.5736 502.5736 502.6486
   502.7174 502.7174 502.7174 502.7549 502.7549 502.7549 502.7839 502.7839
   502.7839 502.8238 503.1194 503.1194 503.1194 503.4460 503.4460 503.4460
   503.5583 503.5686 503.5686 525.1883 525.1883 525.1883 526.0502 526.2091
   526.2091 526.2091 526.4587 526.7539 526.7539 526.8440 526.8440 526.8440
   526.9137 526.9137 526.9137 527.0054 527.0054 527.0054 527.0644 527.0644
   527.0644 527.4927 527.4927 533.6541 533.6541 533.7196 533.7196 533.7196
   533.7643 533.7643 533.7643 533.8374 533.8374 533.8374 533.8954 533.8954
   533.8954 533.9827 533.9827 534.4006 534.6199 534.6199 534.6199 534.8173
   534.8173 534.8173 535.0096 536.7106 536.7106 536.7106 537.1901 537.8552
   537.8552 537.8552 538.4035 538.4035 538.7394 538.7394 538.7394 538.8367
   538.8519 538.8519 538.8519 539.1643 539.1643 539.1643 539.2658 539.2658
   539.2658 539.5070 539.5070 539.6615 539.6615 539.6615 539.7813 540.0324
   540.0324 540.0324 540.5582 540.5582 540.6888 540.6888 540.6888 540.6914
   540.7703 540.7703 540.7703 541.2106 541.2106 541.2106 541.2421 541.2421
   541.2421 541.5446 541.5446 543.5081 543.5081 543.5081 543.5140 543.5140
   543.5140 543.5201 543.5201 543.5375 543.5375 543.5375 543.5730 543.5730
   543.5730 543.5892 543.5892 544.6655 544.6717 544.6717 544.6717 544.6835
   544.6835 544.6835 544.7006 554.8452 554.8452 554.8452 556.2809 556.4262
   556.4262 556.4262 556.5202 556.5202 556.5202 556.5259 556.5259 556.6096
   556.6096 556.6096 556.8351 556.8351 556.8351 557.1314 557.1314 557.1314
   557.1441 557.1441 557.1776 560.2367 560.2367 560.2428 560.2428 560.2428
   560.2525 560.8337 560.8337 560.8337 560.8537 560.8537 560.8537 560.8674
   560.8674 560.8674 560.8709 560.8709 560.8709 561.3271 561.3271 561.3319
   561.3319 561.3319 561.3415 563.7229 563.7229 563.7229 563.8409 563.8514
   563.8514 567.1788 567.1788 567.1788 568.0374 568.0940 568.2439 568.2439
   568.2439 574.1249 574.1249 574.1249 574.1338 574.1338 574.1338 574.1522
   574.1522 574.1522 574.1603 574.1603 574.1603 574.5117 574.5117 574.5311
   574.5311 574.5311 574.5325 574.5325 574.5325 574.5880 574.5880 574.5880
   574.6014 574.6014 574.6326 574.6326 574.6326 575.0427 575.0427 575.0427
   575.4832 575.9033 575.9033 583.2457 583.2457 583.2457 583.2682 583.2682
   583.2682 583.3242 583.3419 583.3419 583.3977 583.3977 583.3977 601.3971
   601.3971 601.3971 602.0532 602.1728 602.1728 602.2702 602.2702 602.2702
   602.5736 602.5736 602.5736 602.6522 602.6522 602.6522 603.1143 603.1143
   603.1834 603.3954 603.3954 603.3954 603.8706 603.8706 603.8706 604.0955
   604.0955 604.0955 604.2598 604.2598 604.2598 605.0489 605.0489 605.1177
   605.1177 605.1177 605.3270 606.0622 606.0622 606.0784 606.0784 606.0784
   606.1574 606.1613 606.1613 606.1613 606.3222 606.3222 606.3222 606.5353
   606.5353 606.5353 606.5484 606.5484 606.5484 606.5857 606.9022 606.9022
   606.9330 606.9330 606.9330 607.4554 607.4554 607.4554 607.5110 607.5110
   607.5110 607.5761 607.5761 607.6074 607.6074 607.6074 607.6872 607.6872
   607.6872 608.0074 608.0074 608.0074 608.3226 609.8020 609.8020 609.9211
   609.9211 609.9211 610.1188 610.3435 610.3435 610.3435 610.6956 611.1177
   611.1177 612.9951 612.9951 612.9951 613.0284 613.0284 613.0284 613.0955
   613.0955 613.0955 613.1105 613.1105 613.1105 613.1301 613.1493 613.1493
   613.1493 613.1685 613.1685 613.1685 613.2352 613.2352 613.2352 613.4032
   613.4032 614.1072 614.1144 614.1144 614.1144 614.1196 614.1196 616.1586
   616.1586 616.1586 616.5998 616.6328 616.6328 616.6328 616.8025 616.8025
   616.8025 616.8134 616.8134 616.8281 616.8281 616.8281 616.9543 616.9721
   616.9721 616.9721 616.9885 616.9885 616.9885 617.0366 617.0366 617.2099
   617.2099 617.2099 617.6016 617.6016 617.6016 617.8936 617.8936 618.0480
   618.0480 618.0480 618.4810 618.5182 618.5182 618.5189 618.5189 618.5189
   618.5395 618.5395 618.5395 618.6555 618.6555 618.6555 618.6621 628.1464
   628.1464 628.1464 628.8517 628.9306 628.9644 628.9644 628.9644 633.1594
   633.1594 633.1594 633.1604 633.1859 633.1859 633.1859 633.1939 633.1939
   633.1956 633.1956 633.1956 633.2294 633.2294 633.2294 633.3551 633.3551
   633.3551 633.3965 633.3965 633.3983 633.3983 633.3983 633.5194 635.4205
   635.4205 635.4512 635.4512 635.4512 635.4660 635.4660 635.4660 635.4841
   635.4841 635.4841 635.5262 635.5262 635.5289 635.5289 635.5289 641.8088
   641.8088 641.8088 641.9948 641.9948 642.0796 642.0796 642.0796 642.2063
   642.2063 642.2063 642.4838 642.4838 642.5031 642.5031 642.5031 642.6063
   642.6063 642.6063 642.6085 642.9935 642.9935 642.9935 643.1015 645.1139
   645.1139 645.1505 645.1505 645.1505 645.2175 645.2175 645.2175 645.2437
   645.2437 645.2437 645.4641 645.4641 645.4641 645.4978 645.5795 645.5795
   645.7344 645.7344 645.7344 645.8761 645.8761 645.8761 645.9924 646.8404
   646.8404 646.8404 647.1026 647.2878 647.2878 647.2878 647.4175 647.4175
   647.6217 647.6217 647.6217 647.7523 647.7523 647.7523 647.7580 647.7580
   647.7580 647.8954 647.8954 647.8954 648.2139 648.5520 648.5520 653.5930
   653.5930 653.5930 653.8235 653.8235 653.8502 653.8502 653.8502 654.0597
   654.0597 654.0597 654.5501 654.5501 654.5501 654.5501 654.5501 654.5907
   654.5907 654.5907 654.6524 654.6854 654.7834 654.7834 654.7834 654.8557
   654.8557 654.8557 654.9397 654.9397 654.9397 655.0018 655.0018 655.0018
   655.0166 655.1152 655.1152 655.4920 655.5263 655.5263 655.5263 655.5630
   655.5630 655.5630 655.5653 655.5653 655.5768 655.5768 655.5768 667.5551
   667.5551 667.5551 667.5705 667.5705 667.5817 670.8951 670.8951 670.8951
   671.2746 671.2918 671.2918 671.2918 671.4073 671.4073 671.4139 671.4139
   671.4139 671.4236 671.4236 671.4236 671.4813 671.5821 671.5821 671.6081
   671.6081 671.6081 671.6433 671.6433 671.6433 681.1261 681.1261 681.1441
   681.1441 681.1441 681.1684 681.6378 681.6378 681.6378 681.6682 681.6682
   681.6682 681.6694 681.6694 681.6694 681.6806 681.6806 681.6806 682.1027
   682.1027 682.1145 682.1145 682.1145 682.1355 684.2242 684.2242 684.2242
   684.4361 684.5482 684.5482 684.5482 684.5898 685.8736 685.8736 685.8736
   686.2325 686.3007 686.3007 687.2348 687.2348 687.2348 687.3320 687.3320
   687.3320 687.3565 687.3565 687.3565 687.4120 687.4856 687.4856 687.5170
   687.5170 687.5170 687.6763 687.6763 687.6763 687.7420 687.7420 687.7420
   688.0942 688.0942 688.1185 689.8793 689.8793 689.8793 689.8810 689.8810
   689.8810 689.8876 689.8876 689.8876 689.8996 689.8996 689.8996 693.2961
   693.2961 693.2968 693.2968 693.2968 693.2983 701.1656 701.1656 701.2204
   701.2204 701.2204 701.2801 701.2801 701.2801 701.3783 701.3783 701.3783
   701.5063 701.5262 701.5262 701.5262 701.5683 701.5683 701.5683 701.7546
   701.7546 701.7546 701.8646 701.8646 702.1295 707.6947 707.6947 707.6947
   708.0262 708.2206 708.2206 708.3239 708.3239 708.3239 708.3449 708.3449
   708.3449 708.3634 708.3634 708.3634 708.3884 708.3884 708.3884 708.4957
   708.4957 708.5215 708.5215 708.5215 708.5218 708.5218 708.5218 708.5792
   708.5792 708.5792 708.6184 708.6184 708.6327 708.6327 708.6327 708.8321
   708.8665 708.8665 708.8665 708.8918 708.8918 708.8918 708.9103 709.3119
   709.3119 709.3119 709.3668 709.3764 709.3764 718.1994 718.1994 718.1994
   719.1483 719.3349 719.3349 719.3349 719.8986 719.8986 719.9383 720.2010
   720.2010 720.2010 720.4230 720.4230 720.4230 720.4495 720.4495 720.4495
   720.6176 720.6176 720.6176 721.1405 721.1405 722.1129 722.1293 722.1293
   722.1293 722.2117 722.2117 722.2117 722.5504 722.5504 722.5603 722.5603
   722.5603 722.5633 722.5633 722.5633 722.5843 722.5843 722.5843 722.6486
   722.6742 722.6742 722.6742 722.7455 722.7455 724.7189 724.7189 724.7302
   724.7302 724.7302 724.7611 724.7611 724.7611 724.8172 724.8172 724.8172
   724.8277 724.8455 724.8455 724.8481 724.8481 724.8481 724.8654 724.8654
   724.8654 724.8879 724.8879 724.8879 724.9047 725.8289 725.8289 725.8335
   725.8335 725.8335 725.8402 725.8402 725.8402 725.8488 725.8488 725.8488
   725.8676 725.8676 725.8676 725.8718 725.8718 727.0117 727.0117 727.0117
   727.0122 727.0144 727.0144 727.0144 727.0204 742.7564 742.7564 742.7564
   742.7618 742.7618 742.7618 742.7620 742.7972 742.7972 742.8151 742.8151
   742.8151 745.1189 745.1189 745.1189 745.1569 745.1569 745.1569 745.1863
   745.1863 745.2161 745.2161 745.2161 745.2394 745.2394 745.2394 745.3310
   745.3389 745.3644 745.3644 745.3644 745.4773 745.4773 745.4773 745.4972
   745.4972 759.1693 759.1693 759.1693 759.1877 759.3481 759.3481 759.3481
   759.6736 759.6736 759.7345 759.7345 759.7345 759.8408 759.8408 759.8408
   759.9744 760.3626 760.3626 760.3626 760.5177 762.2084 762.2084 762.2084
   762.2863 762.2863 762.2863 762.4752 762.4752 762.4752 762.5810 762.5810
   762.5810 762.7607 762.7607 762.7644 762.7644 762.7644 762.8603 762.8641
   762.8641 762.8641 763.2102 763.2102 763.5706 763.7300 763.9270 763.9270
   763.9270 764.0865 764.0865 764.0865 764.1543 764.1543 764.1543 764.1575
   764.1575 766.4150 766.4150 766.4664 766.4664 766.4664 766.6038 766.6473
   766.6473 766.6493 766.6493 766.6493 766.6587 766.6587 766.6587 766.6902
   766.6902 766.6902 766.7140 766.7140 766.7140 766.7164 766.7164 766.9666

          k =-0.2500 0.2500-0.2500 (  4420 PWs)   bands (ev):

   -92.4213 -28.1750 -28.1745 -28.1745 -28.1637 -28.1637  -3.5739   4.8218
     7.4243   7.4243  11.3860  12.6005  12.6005  15.0822  17.2477  17.2568
    17.2568  19.7921  23.6966  23.6966  26.4273  26.9098  26.9098  27.9980
    32.9980  32.9980  34.4705  36.8279  36.8279  37.2325  38.7958  38.7958
    39.9997  42.5741  42.5741  42.9155  43.5080  43.5080  44.2493  44.7536
    45.1953  45.1953  46.6199  48.7481  48.7481  49.4339  50.9859  50.9859
    52.0072  53.9651  53.9651  56.0535  56.0535  56.6100  57.5346  57.8025
    57.8574  57.8574  61.8954  61.8954  62.1277  62.7298  62.7298  65.1247
    65.3541  65.3541  66.2802  68.6960  68.6960  70.8857  72.7939  72.7939
    73.3673  73.7320  76.5319  76.5319  77.8171  79.0491  79.0491  79.6956
    79.8014  81.9357  81.9357  82.5547  82.5547  82.9297  85.1275  85.2126
    85.2126  85.6438  86.9098  86.9098  87.8529  88.1380  88.3695  88.3695
    89.8541  89.8541  90.7129  90.7129  91.0324  92.1117  93.1259  93.1259
    94.4800  94.8503  94.8503  96.5768  97.8213  97.8213  98.6362  98.8783
    98.8783 100.3817 100.7479 101.2878 101.2878 102.1945 102.1945 103.1023
   103.1023 103.1970 104.8592 104.8592 105.0935 105.9353 107.1592 108.4790
   108.4790 108.5372 109.4176 109.4176 109.5148 110.9376 110.9376 111.1483
   111.5172 111.5172 113.2900 113.2900 114.2194 114.6722 114.6722 114.7297
   116.5724 116.5724 116.7203 118.1785 118.1785 118.6493 118.7347 119.8018
   119.8018 121.8135 121.8135 122.2089 124.4436 125.2970 125.2970 126.6034
   128.6458 128.7296 128.7296 130.7450 130.7450 130.8857 131.5933 131.5933
   134.1031 134.4713 134.4713 134.7676 135.5489 135.5489 136.9344 137.1479
   137.1479 137.8622 138.3887 138.3887 139.4875 140.0075 140.0075 141.0354
   141.1794 141.1794 141.2538 144.0706 144.0706 144.3152 145.2483 145.2483
   145.8982 146.8219 146.8219 146.8952 147.3667 147.3667 148.0222 148.6387
   148.6387 151.6588 152.6973 152.6973 152.7175 153.0265 153.8496 153.8496
   154.1444 154.1444 154.6558 155.9301 155.9301 156.2753 158.7271 158.7271
   158.9493 159.1838 159.7028 159.7028 160.9656 160.9656 160.9775 161.3919
   162.3162 162.4292 162.4292 163.6525 163.6525 164.9324 165.0307 165.2434
   165.2434 166.7579 166.7579 166.9256 167.3544 167.6263 167.6263 168.1964
   169.6587 169.6587 170.2578 170.2578 170.7570 171.4350 171.4350 172.7942
   172.7942 173.6222 173.8097 173.8097 174.3170 174.4816 174.4816 174.5781
   175.0649 175.0649 176.9911 177.1429 177.2196 177.9398 177.9398 178.0999
   178.9602 178.9602 179.4232 179.4232 179.9496 180.5178 180.5178 181.7164
   182.9116 182.9116 183.3416 183.3416 183.7904 183.7904 183.8866 185.3264
   185.7503 186.4565 186.4565 187.5132 188.3388 189.2822 189.2822 190.6621
   190.6621 191.4804 192.2559 192.2559 192.6904 192.7796 192.7796 193.7112
   193.9657 193.9657 194.3466 194.5917 194.5917 195.0665 195.1668 195.1668
   197.7022 199.3180 199.3180 200.0644 200.7232 200.7232 200.9944 203.0171
   203.0171 204.7264 204.7264 204.7485 205.5253 206.3565 206.3565 207.0634
   207.6217 207.6217 208.5873 208.7868 208.8170 208.8170 209.5324 209.9222
   209.9222 210.5882 212.5164 212.5164 213.4255 214.6176 214.6176 215.7605
   216.2162 216.4172 216.4172 216.6779 216.9279 216.9279 218.3853 218.4586
   218.4586 218.9051 218.9051 219.3105 219.4828 220.2336 220.2336 220.6889
   220.6889 220.9928 221.0430 221.0430 221.9619 222.2200 222.2200 223.1862
   224.8013 224.8013 225.0244 226.1187 226.1187 226.8092 228.6992 228.6992
   229.8626 229.8626 230.1475 231.3850 231.3850 232.0494 232.0494 232.2480
   233.4520 233.4520 233.8497 234.8680 235.0024 235.0024 235.0301 236.3906
   236.3906 237.8078 238.1629 238.2288 238.2288 239.1987 239.5393 239.5393
   239.8600 240.1063 240.1063 241.6049 241.6049 241.8610 242.6260 244.4465
   244.4465 244.7244 245.1204 245.1204 245.7962 246.4114 246.4114 246.6593
   246.6594 246.6964 247.7965 247.7965 248.1012 248.1012 248.2365 248.7001
   248.7623 249.0052 249.0052 249.3709 250.1726 250.4138 250.4138 250.9766
   251.2835 251.2835 252.5308 252.5308 252.6323 253.4920 253.5261 253.5261
   253.8435 253.8435 253.9088 254.5683 254.5683 254.6333 256.0795 256.8960
   256.8960 257.6190 257.6190 257.6380 257.9318 258.5217 258.5217 258.7006
   258.7006 258.8850 259.8093 259.8093 259.9751 261.0369 261.0369 261.3961
   262.6420 262.6420 262.7862 263.3366 263.3366 263.4786 263.5040 263.5040
   263.6275 265.5930 265.5930 266.2098 266.3491 266.4834 266.4834 267.1063
   267.2934 267.2934 268.0912 268.4912 268.4912 269.5747 269.5985 269.5985
   269.9398 269.9398 270.0471 270.2548 273.0183 273.0183 273.7401 274.0955
   274.0955 275.5237 276.4131 276.4131 276.4481 277.2342 277.2342 277.6813
   277.6813 277.7290 278.5419 278.5419 278.6039 279.3062 281.3411 281.3411
   281.5325 281.6103 281.6103 281.8288 283.0074 283.0074 283.2336 285.1678
   285.1678 285.3101 285.7698 285.7698 286.3569 286.3569 286.5455 286.6894
   286.6894 287.4130 287.5666 287.5666 288.0713 288.0713 289.6776 289.7374
   290.4785 291.0317 291.0708 291.0708 291.5622 291.5622 292.9341 293.3249
   293.3249 293.9650 293.9650 294.0560 294.2590 294.6505 294.6505 295.0406
   295.1383 295.1383 296.3742 298.0247 298.0247 298.4720 298.4720 298.5487
   299.2724 299.4964 299.4964 301.5706 302.1595 302.1595 302.3675 303.2617
   303.2617 303.3378 304.3113 304.3113 304.7155 304.9774 304.9774 305.2341
   305.7810 305.7810 306.0195 306.2032 306.2032 306.2990 306.7058 306.7058
   309.7691 311.6495 311.6495 312.3454 312.3454 312.5668 312.8399 313.9723
   313.9723 314.7440 314.7440 314.9034 315.4461 315.8787 315.8787 315.9327
   316.4127 316.4127 317.2003 317.2003 317.3251 317.4593 318.4264 318.4264
   318.6131 319.2969 319.2969 320.2387 321.3970 321.3970 321.4675 322.7395
   322.7395 322.7732 323.4389 323.4564 323.4564 323.8517 324.1800 324.1800
   324.2303 324.3146 324.3146 325.5147 325.5147 325.5587 326.6019 326.8550
   326.8550 330.1367 330.1367 330.8554 330.9547 331.0412 331.0412 331.1415
   332.0352 332.0352 332.9875 333.7149 333.7149 333.8278 334.5646 334.5646
   335.6068 335.6068 335.8119 337.6331 337.7495 337.7495 338.7028 339.1666
   339.2763 339.2763 339.4502 339.4502 339.8562 340.5925 340.5925 340.7946
   340.9840 340.9840 342.2988 342.2988 342.4653 343.2507 343.2507 343.3809
   343.4425 343.4425 343.4672 343.6787 344.0191 344.0191 344.2298 345.4839
   345.6432 345.6432 346.2600 346.2600 346.4693 346.5403 346.5403 346.7750
   349.0883 349.0883 350.3840 350.5707 350.5707 351.1255 351.1255 351.5478
   351.5478 351.5655 351.5701 351.7640 351.7640 352.6845 352.9891 353.0255
   353.0255 353.3602 353.3602 353.5440 353.6623 353.7717 353.7717 354.3066
   354.3066 354.5139 354.7013 354.7863 354.7863 356.4313 356.5973 356.5973
   357.5749 357.9435 357.9435 358.2711 358.5850 358.5850 359.2824 359.8111
   359.8111 360.8344 360.8344 360.9006 360.9386 360.9386 361.2669 361.4462
   361.4729 361.4729 362.2188 362.3423 362.3423 362.4214 362.4218 362.4218
   362.6969 362.6969 362.9868 364.4385 364.7887 364.7887 366.3339 366.3339
   366.6812 367.1055 368.0758 368.0758 368.3929 368.7054 369.3592 369.3592
   369.8341 369.8341 370.0819 370.5066 370.5066 370.7169 370.7262 370.8416
   370.8416 371.1589 371.2041 371.2041 372.5945 372.7567 372.7567 374.2321
   374.2841 374.2841 374.5815 374.5815 375.5894 375.5894 376.0646 377.5353
   377.5353 377.7577 379.2390 379.2390 379.2437 379.5219 379.5219 379.6387
   380.0113 380.3156 380.3156 380.4010 380.4420 380.4420 380.5712 380.5831
   380.5831 381.3578 381.3578 381.4443 382.0812 384.6634 384.6813 384.6813
   384.7835 384.7835 384.8500 387.4783 387.4783 388.2581 388.3015 388.3015
   388.7026 389.0831 389.1209 389.1209 389.4833 389.4833 389.6569 391.1689
   391.1689 391.2188 392.5849 392.5849 392.8821 393.2522 393.2522 393.3845
   393.4467 393.4467 393.7550 394.1920 394.2210 394.2210 396.1996 396.1996
   396.4282 397.0779 397.6533 397.6533 397.9419 397.9419 397.9512 398.3304
   398.3452 398.3452 399.4194 399.4194 399.4396 399.4868 399.5017 399.5017
   399.9609 400.0998 400.0998 402.4148 402.4148 402.4311 402.9816 403.2709
   403.2709 403.7486 404.8694 404.8694 404.9692 405.0983 405.3075 405.3075
   405.4594 405.4594 405.5832 405.7647 405.7647 406.5670 406.5670 406.5950
   406.7409 406.7409 406.8028 407.2361 407.2943 407.2943 409.0303 409.0303
   409.0536 409.6172 410.6165 410.6165 411.0060 411.0293 411.0293 411.8054
   411.9615 411.9615 412.7776 413.9612 413.9612 414.3746 414.3746 414.4105
   414.7411 414.9646 414.9646 416.2629 416.2687 416.2688 416.4423 416.4423
   416.4841 417.0529 419.4578 419.4578 421.0650 421.0650 421.0755 421.3801
   422.7641 423.2554 423.2554 423.5780 423.5780 423.8017 424.3098 424.3098
   424.3453 425.4281 425.4281 425.8611 425.9957 425.9957 427.5778 427.5778
   427.5933 427.7891 427.7891 428.1957 429.0769 429.1315 429.1315 431.0567
   431.0567 431.3105 431.9720 432.2258 432.2258 435.2684 435.2684 435.2984
   436.7379 436.9253 436.9253 437.7396 437.7396 437.9470 438.6413 438.6413
   439.3290 439.6802 439.6802 439.7386 440.0323 440.4420 440.4658 440.4658
   440.5190 440.5190 440.9497 440.9497 440.9798 441.4386 441.4386 441.7577
   441.9992 442.3835 442.3835 442.8279 443.1909 443.1909 443.2592 443.7777
   444.1191 444.1191 444.6194 444.6194 445.2096 447.0260 447.0260 447.0480
   447.1081 447.1081 447.1361 447.4725 447.4725 447.5040 448.5981 448.5981
   448.6250 449.0864 449.0864 451.1651 451.4751 451.4751 452.7092 452.8009
   452.8009 453.1615 453.3982 453.3982 454.5726 454.5726 454.8270 455.4861
   455.6092 455.6092 455.7255 455.8921 455.8921 456.5313 456.5397 456.5397
   457.2227 457.2227 457.4955 457.5773 458.7159 458.7159 459.6345 459.6417
   459.6417 459.6689 459.7736 459.7736 460.9020 460.9020 461.1602 461.6203
   461.8228 461.8228 461.8301 462.6630 462.6630 462.9202 463.4846 463.4846
   463.5559 463.5666 463.6685 463.6685 463.9057 463.9057 463.9170 464.2330
   464.2639 464.2639 466.7669 466.7669 467.0960 467.1593 467.1593 467.1832
   467.7503 467.7503 467.7929 468.6757 469.3038 469.3038 469.6307 469.6307
   469.6701 470.5634 470.6803 470.6803 471.1561 471.1561 471.3496 471.5537
   471.5537 471.7001 472.9922 472.9922 473.0511 473.1048 473.1048 473.1649
   473.7160 473.7511 473.7511 475.6741 475.9450 475.9450 476.6248 476.9181
   476.9181 479.1379 479.1379 479.3426 479.3494 479.4520 479.4520 479.5180
   479.6125 479.6125 480.3131 480.6352 480.6352 480.8114 480.8114 481.0302
   481.0784 481.0784 481.1070 481.8372 481.9263 481.9263 482.1583 482.1724
   482.1724 482.3760 482.3760 482.3990 482.4819 482.4819 482.4982 485.7021
   485.9654 485.9654 486.1430 486.7729 486.7729 487.3018 487.5060 487.5060
   487.5140 487.5685 487.5685 487.7678 487.7678 487.9647 489.0021 489.0021
   489.0853 491.2887 491.2887 491.3779 491.4663 491.4663 491.4952 492.7059
   493.0310 493.0310 493.0845 493.1489 493.1489 493.5258 493.5258 493.6454
   494.0238 494.0238 494.0460 494.2286 494.2286 494.3281 494.3281 494.3502
   494.7804 495.5544 495.9522 495.9522 497.5428 497.6266 498.1086 498.1086
   498.1618 499.5490 499.5642 499.5642 500.1127 500.1127 502.6789 502.6789
   502.6982 502.6982 502.7470 502.9828 502.9879 502.9879 503.3025 503.3025
   503.7229 503.9270 503.9410 503.9410 504.6881 504.6881 504.7106 505.1119
   505.1195 505.1195 505.7735 505.7735 505.9554 506.0912 506.0912 506.3292
   506.6214 506.6465 506.6465 507.4085 507.6467 507.6467 507.7976 507.9140
   507.9140 508.0273 508.0273 508.0536 510.0278 510.0278 510.0881 511.4823
   511.4823 511.6845 511.7083 511.7609 511.7609 512.3616 512.7044 512.7044
   514.0260 514.0260 514.2969 515.8728 515.8728 516.0847 516.4330 516.5519
   516.5519 516.6874 516.6874 516.7216 516.9726 517.0211 517.0211 517.2253
   517.2253 517.3881 517.3881 517.4409 517.4976 519.8756 520.1435 520.1435
   520.2660 520.2846 520.2846 521.4201 521.4201 521.4754 523.8889 524.1162
   524.1162 524.1461 524.2816 524.2816 524.3809 525.0389 525.0389 525.2212
   525.4042 525.4042 525.7379 525.7732 526.0003 526.0003 526.0269 526.2171
   526.2171 526.2980 526.2980 526.3200 527.6603 527.6603 528.0116 528.0375
   528.2434 528.2434 529.3881 529.3881 529.4361 529.4739 529.4831 529.4831
   529.5565 529.5565 529.7017 530.9624 530.9624 530.9814 531.1545 531.1545
   531.1984 531.2726 531.2726 533.9332 533.9410 533.9410 533.9534 534.3260
   534.3260 535.0516 535.0516 535.0706 535.0880 535.0880 535.3827 536.6544
   536.9627 536.9627 537.2936 537.2936 537.3175 538.6214 539.4266 539.4266
   539.5516 539.5516 539.8649 541.2750 541.2750 541.3689 541.5824 541.5824
   541.6060 542.4641 542.4641 542.4805 542.8479 542.8479 543.3079 545.0091
   545.0182 545.0182 545.1329 546.2478 546.2478 546.2946 546.4200 546.5057
   546.5057 547.0060 547.0060 547.1030 548.3538 548.3591 548.3591 549.0169
   549.0661 549.0661 549.2827 549.2863 549.2863 550.8592 550.8592 550.9714
   552.5366 552.5366 552.5449 553.7012 553.7012 553.7383 553.8135 553.8998
   553.8998 554.0439 554.0439 554.1218 556.6720 556.6720 556.6880 557.6702
   557.6702 557.7110 557.8270 557.8958 557.8958 558.7018 558.7267 558.7267
   560.5758 560.5758 560.6990 560.8967 561.4887 561.4887 563.7370 563.7370
   563.7548 565.3813 565.5300 565.5300 565.9725 565.9851 565.9851 566.8194
   566.8194 567.0457 567.4624 567.7235 567.7235 568.3359 568.4113 568.4113
   569.0297 569.0297 569.0675 570.8426 570.9486 570.9486 570.9706 571.2036
   571.2036 571.6459 571.8475 571.8475 572.3636 572.3636 572.3972 572.7405
   572.9825 572.9825 575.3073 575.4674 575.4674 575.6868 575.6868 575.7759
   575.7759 575.7788 576.3467 577.2287 577.2287 577.3356 577.3358 577.4895
   577.4895 577.8446 577.8446 577.8685 577.9383 577.9561 577.9561 579.6849
   580.3361 580.3361 580.6380 580.7100 580.7100 581.1059 581.6085 581.6085
   581.8710 582.8879 582.8879 582.9257 582.9257 582.9629 583.0230 583.0457
   583.0776 583.0776 584.3202 584.4069 584.4069 584.7763 584.7798 584.7798
   585.6500 585.6628 585.6628 586.1565 586.1565 587.2715 587.2715 587.2827
   587.4414 587.5848 587.6192 587.6192 587.9426 587.9426 587.9685 588.1083
   588.1808 588.1808 589.1624 589.1624 589.1746 589.2707 589.2789 589.2789
   589.6195 589.6195 593.5297 593.5297 593.6947 594.7467 594.7467 594.8017
   595.0731 595.1181 595.1253 595.1253 595.1858 595.1858 595.3001 595.3536
   595.3536 596.3010 596.3010 596.4257 596.4836 596.5369 596.5369 597.1201
   597.1201 597.1364 598.8476 598.9261 598.9261 599.1753 599.1753 599.1764
   599.5802 599.5802 599.9780 600.8043 600.8050 600.8050 601.3402 601.3402
   601.9794 602.0607 602.0607 602.0711 603.0768 603.0768 603.1586 603.7262
   603.7262 603.7812 604.3690 604.3690 604.7489 605.1099 605.2787 605.2787
   605.7221 606.0557 606.0557 606.7802 606.7802 607.3857 607.9538 608.2218
   608.2218 608.8572 608.9014 608.9014 609.1285 609.1285 609.2554 610.6005
   610.6005 610.6711 612.5269 612.5269 612.6556 613.0250 613.3801 613.3801
   613.4133 613.5875 613.5875 613.7559 614.3905 614.3905 614.4071 614.5325
   614.5325 614.5758 614.9452 614.9649 614.9649 615.9977 615.9977 616.1076
   617.0480 617.0480 617.2107 617.3217 617.3217 617.5564 617.8994 617.8994
   617.9062 619.7998 619.7998 620.0076 620.0076 620.1331 621.2175 621.3906
   621.3906 621.4939 621.5020 621.5020 621.9675 622.0772 622.0772 623.0761
   623.0761 623.3398 623.3933 623.4387 623.4387 623.5350 623.5350 623.6096
   624.4008 624.4032 624.4032 624.4352 624.4352 624.4839 625.1493 625.4298
   625.4298 625.4711 625.4817 625.4817 625.5033 625.6538 625.6538 626.0650
   626.0650 626.1106 626.6833 626.7263 626.7263 627.3764 627.3764 627.3931
   627.9935 627.9935 628.0312 632.1657 632.1657 632.1887 632.5819 632.5819
   632.6029 632.6603 632.6603 632.7723 632.8573 632.8573 633.0249 636.0998
   636.1384 636.1384 636.2901 638.8033 638.8033 638.8995 639.5591 639.5852
   639.5852 640.0507 640.0588 640.0588 640.5257 640.5607 640.5607 640.7034
   640.7334 640.7334 640.9924 641.0464 641.0464 641.1004 641.1004 641.4477
   641.4720 641.5963 641.5963 641.8003 641.8003 641.8253 642.8603 642.8691
   642.8691 642.9391 642.9391 642.9423 643.9749 643.9749 644.0103 644.0724
   644.1019 644.1019 644.4662 644.4912 644.4912 644.5303 644.5303 644.5739
   644.6075 644.6075 644.6189 644.9642 645.0816 645.0816 645.3373 645.3373
   645.3547 645.3698 645.3698 645.4372 645.6616 645.6616 645.6870 646.1969
   646.3784 646.3784 648.7434 648.7547 648.7547 649.9405 649.9405 650.5360
   651.6292 651.6343 651.6977 651.6977 651.7524 651.7524 651.9217 651.9392
   651.9392 652.2559 652.5594 652.5594 652.6773 652.6773 652.7493 652.7579
   652.8902 652.8902 653.4494 653.4494 653.5590 655.2283 655.2283 655.2482
   655.3989 655.3989 655.4040 655.6230 655.8080 655.8080 657.7842 657.7842
   657.9279 657.9807 657.9807 658.1614 658.1873 658.1873 658.1912 658.8287
   658.8287 658.8623 659.1282 659.1295 659.1295 660.0508 660.1861 660.1861
   660.7754 660.7754 660.9382 660.9990 660.9990 661.0776 662.4955 662.4955
   662.7768 662.7768 662.9228 662.9379 663.2597 663.2597 663.2940 663.9312
   663.9312 663.9470 666.8192 666.8192 666.8302 668.6153 668.6153 668.7463
   668.7625 668.7779 668.7779 669.0094 669.0094 669.0467 669.1470 669.1470
   669.3024 670.2484 670.2484 670.2575 670.7051 671.0869 671.0869 671.2131
   671.2481 671.2936 671.2936 671.6430 671.6430 671.9931 673.3667 673.3667
   674.0501 674.0501 674.1194 674.1365 674.2463 674.2463 674.7951 674.8381
   674.8381 675.3408 675.3408 675.4342 675.4504 675.4504 675.5067 676.1426
   676.6073 676.6073 676.6073 676.7254 676.7254 676.8251 676.8958 676.8958
   678.2081 678.2648 678.2648 678.2838 678.4550 678.5572 678.5572 681.1877
   681.1877 681.2336 681.3430 681.4137 681.4137 681.4672 681.5037 681.5037
   681.5422 681.5422 681.7367 681.7367 681.7452 681.7966 682.9941 682.9941
   686.6320 686.8627 686.8627 687.5667 687.5827 687.5827 687.7390 687.7390
   688.0933 688.2469 688.2469 688.3943 688.3943 688.4065 688.4065 688.4083
   688.4197 689.0679 690.0472 690.5305 690.5305 690.6334 690.7443 690.7443
   693.2665 693.2665 693.3298 693.4785 693.5727 693.5727 694.9339 694.9339
   694.9833 696.0748 696.0748 696.0861 696.4028 696.4028 696.4344 697.1897
   697.1897 697.2003 697.7501 697.7501 698.1264 699.1580 699.2407 699.2407
   699.6484 699.6523 699.6523 700.0732 700.0732 700.0930 701.2609 701.2959
   701.2959 701.3542 701.3602 701.3602 701.5261 701.5261 701.6484 702.9797
   702.9797 703.1676 703.2767 703.2806 703.2806 703.3781 703.4070 703.4070
   703.4589 703.4589 703.5113 703.6935 703.6935 703.8825 707.4138 707.4138
   707.4311 707.9862 707.9862 708.1254 708.4647 708.4647 708.4924 708.6653
   708.7542 708.7542 709.1527 709.1527 709.1586 709.2358 709.6944 709.6944
   709.7041 711.4850 711.5056 711.5056 715.2248 715.2248 715.2338 715.9740
   715.9740 716.2208 716.2208 716.4643 716.8240 716.8240 716.9842 718.1953
   718.2928 718.2928 718.3351 718.4987 718.4987 719.0176 719.1312 719.1312
   719.1891 719.2134 719.2134 719.4095 719.4095 719.4140 719.7898 719.7898
   719.7938 721.3800 721.4441 721.4441 722.3217 722.3329 722.3329 722.4948
   722.7125 722.7125 723.2592 723.2592 723.2812 723.4149 723.4149 723.4647
   725.3482 725.3997 725.3997 725.6253 725.6253 725.7244 726.8798 726.8798
   726.9577 727.0534 727.1559 727.1559 727.1713 727.1713 727.2169 727.2618
   727.3352 727.3352 727.3453 727.3540 727.3540 727.9978 728.0279 728.0279
   728.9339 728.9339 729.0806 730.3714 730.3714 730.4676 732.2765 732.2765
   732.3357 732.4213 732.4213 732.4592 732.4666 732.5721 732.5721 732.7733
   732.7733 732.7828 733.1972 733.2862 733.2862 734.5138 734.8874 734.8874
   734.8900 735.3926 735.4342 735.4342 737.2779 737.2779 737.3109 737.5139
   737.5785 737.5785 737.6337 737.6337 737.7260 740.1243 740.1243 740.2281
   740.6897 740.6897 740.7881 740.8295 740.8741 740.8741 742.4118 742.4118
   742.4803 742.4845 742.4845 742.4940 742.6332 742.7078 742.7078 743.1186
   743.1186 743.1219 743.1325 743.1424 743.1424 743.6798 743.6798 743.8701
   745.2416 745.2416 745.2922 745.3092 745.3228 745.3228 746.3705 746.3858
   746.3858 746.6188 746.6918 746.6918 748.5867 748.6281 748.6281 749.3208
   749.3208 749.4240 749.4240 749.5027 749.6400 750.2908 750.2908 750.3594
   750.4141 750.4141 750.6235 752.1563 752.1663 752.1663 753.4473 753.4515
   753.4515 753.7382 753.7382 753.7509 754.0359 754.0359 754.0719 754.1160
   754.1773 754.1773 754.5896 754.5896 754.6422 755.0380 755.0380 755.0563
   755.0667 755.1091 755.1091 756.2627 756.2627 756.5366 757.2701 757.2701
   757.2739 759.9739 759.9739 760.2003 760.2711 760.2711 760.2834 760.4620
   760.4620 760.4819 760.4955 760.5433 760.5433 763.5286 763.5286 763.5450
   763.5721 763.5750 763.5750 764.4953 764.5380 764.5380 764.7960 764.7960
   764.8111 764.9871 764.9871 764.9969 766.8827 766.8967 766.8967 767.5277

          k = 0.5000-0.5000 0.5000 (  4446 PWs)   bands (ev):

   -92.4213 -28.1740 -28.1734 -28.1734 -28.1631 -28.1631  -2.8152   2.6539
     6.9774   6.9774  11.1397  12.7106  12.7106  16.0161  19.0540  19.7413
    19.7413  20.4128  21.5132  21.5132  27.2987  29.4227  29.4227  30.6301
    31.2938  31.2938  33.6630  34.5051  34.5051  35.0107  35.1022  37.9641
    37.9641  40.6399  40.6399  41.3090  41.3090  42.1968  42.4482  43.7103
    45.4965  47.4315  47.4315  49.6595  49.6595  51.1186  53.1270  53.6023
    53.6023  56.6137  56.6137  57.5765  58.1940  58.1940  59.5264  60.0566
    60.0566  63.2627  63.2627  63.4855  64.5904  64.5904  65.4549  66.1785
    66.1785  66.2282  67.6453  67.8346  68.3392  68.3392  69.9808  70.6459
    70.6459  71.4142  71.4142  74.2158  74.7422  74.7422  75.6362  76.9468
    76.9468  77.4226  79.8780  80.6552  80.6552  83.3342  83.3342  83.5725
    84.9101  85.9715  86.7315  86.7315  88.0035  88.0035  88.0845  88.4861
    90.0919  90.0919  92.1143  92.7651  93.3106  93.3106  93.3456  94.8422
    94.8422  95.0624  95.3513  95.9043  96.1187  96.1187  96.8093  96.8093
    98.3782  98.3782 101.1726 102.4195 102.4196 104.2177 104.2177 105.0106
   105.1061 105.1061 105.3011 105.7436 106.0915 106.0915 106.5710 106.5710
   107.5022 108.9292 109.4346 110.3206 110.3206 112.0859 112.2414 112.2414
   114.0499 114.0499 114.6857 114.9487 114.9487 115.8703 117.0456 117.0456
   117.7008 117.7008 119.2558 120.0225 120.0225 121.1443 121.1443 122.0067
   123.2063 123.2381 123.2381 123.2825 125.2610 125.5631 126.7081 126.7081
   127.4781 127.5426 127.5426 127.9385 127.9385 129.7326 130.2903 130.2903
   131.1642 132.9179 132.9179 133.7081 133.7081 135.5397 135.9881 135.9881
   136.7621 137.5319 137.9506 138.9212 138.9212 139.2856 139.4640 139.4640
   140.9014 140.9014 141.0099 141.7958 143.9036 143.9036 145.8946 145.8946
   146.7726 147.9418 148.6664 148.6664 149.4684 149.4684 149.9634 150.0341
   150.0341 150.3420 150.5800 150.5800 150.7593 150.7593 151.5203 151.5203
   151.6566 152.2817 152.9846 152.9846 153.2182 154.7442 154.7442 155.0620
   155.3085 157.0109 157.0109 157.6729 159.2726 159.2726 159.2784 159.8912
   159.8912 160.4340 160.4340 161.2463 161.4577 161.4577 162.9068 164.0812
   164.0812 164.9683 166.6266 166.6266 166.8875 167.8757 168.6241 168.6241
   169.3964 170.1197 170.3902 170.3902 170.5031 170.5031 170.7409 170.9168
   171.8065 171.8065 173.0392 173.8277 173.9552 173.9552 174.7857 174.8498
   174.8498 175.5136 176.1762 176.1762 177.5907 178.9594 178.9594 179.4326
   180.1808 180.1808 181.8999 181.8999 182.4079 182.4079 182.5655 182.6982
   184.7627 184.7627 185.9590 187.8158 188.9903 188.9903 190.6821 190.6821
   191.0678 191.4503 191.4503 191.9166 192.5719 192.5719 193.1379 193.2020
   193.2020 194.0233 195.5747 195.9215 195.9763 195.9843 197.0367 197.0367
   197.2387 197.2387 199.2004 199.2004 199.7246 200.1780 200.9042 200.9042
   201.0518 201.0518 201.3443 201.3443 202.1932 202.1932 203.5570 203.5570
   203.6660 204.1339 204.1339 204.2711 205.0160 205.0160 205.0999 206.1145
   206.6750 206.6750 206.7765 206.7765 206.9507 207.1902 207.2600 207.2600
   207.4736 207.4736 208.7567 208.7716 209.2160 211.5785 211.5785 211.7308
   214.0537 214.0537 214.3493 215.4309 215.4309 215.5922 216.8372 216.8372
   217.8717 217.8717 217.9620 218.3496 218.3901 218.3901 218.6400 218.6400
   218.8244 219.7160 220.6182 220.6182 221.5832 221.5832 221.9045 221.9045
   222.2572 222.7682 223.7253 223.8801 224.2555 224.2555 224.4628 224.4628
   226.8081 226.8081 226.8308 226.8308 227.1179 227.2337 230.8469 231.8287
   231.8287 232.6778 233.1281 233.1281 233.8995 233.8995 234.4685 234.8819
   234.8819 234.9688 234.9688 235.0174 235.3874 235.5089 235.5089 235.5373
   237.8525 238.1575 238.1575 239.6515 239.6515 239.7668 240.8099 240.9862
   240.9862 241.1564 242.2184 242.2184 242.7508 243.4919 243.5151 244.1854
   244.1854 244.7786 244.7786 245.0099 245.3174 245.3174 247.3673 247.3673
   248.4403 248.4403 249.5119 251.1095 251.1095 251.8498 252.6661 252.7245
   252.7245 252.9260 253.4114 253.4114 253.6208 253.9681 254.5046 254.5142
   254.5142 255.3831 255.3831 256.4131 256.5447 256.5447 257.1871 257.1871
   257.9105 257.9105 258.5928 259.2460 259.2460 259.5428 260.4161 260.4745
   260.4745 260.9683 260.9683 261.2151 262.1616 262.1616 263.0835 263.3168
   263.3168 264.5556 264.6916 264.6916 266.8575 266.9044 266.9044 267.0666
   267.0666 267.2128 267.2129 267.2129 267.3843 267.8376 268.3619 268.3619
   268.4668 269.4286 269.4286 269.5320 272.0901 272.1485 272.4652 272.4652
   272.8778 272.8778 275.6347 275.6347 275.8534 276.0509 276.9458 276.9458
   277.1509 277.1509 277.5022 277.7004 277.7004 277.8716 277.9067 279.1633
   280.2775 280.2775 280.9367 280.9473 280.9534 280.9534 283.4345 284.1697
   284.1697 284.5063 285.1106 285.1106 285.9899 285.9899 286.3735 286.3735
   286.8549 287.2486 287.6284 287.6284 287.6922 288.3271 288.3271 288.3962
   289.3320 289.3320 289.3961 289.4047 289.5382 289.5382 291.5661 291.5661
   291.6367 291.6903 291.6903 291.7219 292.9301 292.9301 292.9947 292.9947
   293.0079 293.0815 294.2634 294.2634 294.3495 294.6154 294.6154 294.6452
   295.1156 295.8256 295.8256 295.9085 296.2317 296.2317 298.3351 298.3351
   299.0192 299.0192 299.1566 299.1834 299.5430 299.7138 299.7138 299.7588
   300.2588 300.2588 301.0996 301.0996 301.3080 301.3474 301.3490 301.3490
   304.0943 304.4974 304.4974 305.3921 305.3921 305.3971 307.2301 308.0228
   309.8337 309.8337 310.4233 310.5219 310.5219 310.5590 310.8228 310.8228
   311.8832 311.8832 316.5517 316.5517 316.8404 316.8404 317.2609 317.2609
   317.5626 317.7337 317.7389 317.8545 317.8545 317.9116 318.4149 318.4149
   318.5856 318.6262 318.6262 318.8407 319.6217 319.6217 319.6960 319.6960
   320.1219 320.1219 320.9659 320.9720 321.3411 322.1781 322.1781 322.4528
   323.2833 325.3784 325.4858 325.4858 326.8091 326.8091 326.8894 327.2213
   327.2213 327.2935 327.3650 327.3650 330.5075 330.5075 330.5681 330.5681
   330.7513 330.7564 332.3574 332.3574 332.6652 333.5024 333.5916 333.5916
   333.7937 334.3214 335.6263 335.6263 337.1048 337.1048 337.1200 337.2354
   337.6981 337.6981 338.5308 339.1954 339.1954 339.4661 339.5731 339.5731
   339.6136 339.6136 340.4123 340.7345 340.7345 340.9885 340.9885 341.1941
   342.2669 342.2669 342.3922 342.9682 342.9682 343.0557 343.7105 344.2866
   344.2866 344.6771 344.8810 344.8810 346.0553 346.0553 346.2821 346.3603
   346.3603 346.4144 347.1978 347.1978 347.4561 347.4561 347.7698 347.9577
   348.6416 348.8648 348.8931 348.8931 349.8323 349.8323 351.2120 351.2120
   351.3089 351.3208 351.3208 351.3272 353.7572 353.7572 354.1024 354.6400
   354.6400 354.7171 355.5512 355.7350 355.7350 356.4752 356.4752 356.8539
   357.0537 357.5020 357.5020 357.9221 357.9221 357.9951 360.1682 360.1682
   360.3689 360.6892 360.6892 360.7411 361.2012 361.2438 361.2438 361.6740
   361.7014 361.7014 361.8247 361.8247 361.9205 361.9336 361.9644 361.9644
   366.2366 366.2366 366.3185 366.3185 366.4130 366.4197 366.7645 366.7645
   367.5160 367.8621 368.4852 368.4852 368.5485 368.9125 368.9985 368.9985
   369.0860 369.1172 369.1172 369.2679 371.0868 371.0868 371.1541 371.1541
   373.1293 373.2242 373.2242 373.5693 373.5693 373.8261 374.0887 374.2905
   374.2905 374.4845 374.7709 374.7709 374.8016 374.8272 374.8356 374.8356
   374.8933 374.8933 377.3000 377.3000 377.5636 377.7198 377.7947 377.7947
   379.1534 379.8279 379.8279 380.3351 380.3351 380.5252 381.2470 381.6183
   384.0604 384.0604 384.0713 384.0910 384.0910 384.1255 386.6105 386.6105
   386.6748 386.6748 390.8566 390.8566 391.4655 391.5935 391.5935 391.8418
   392.1959 392.1959 392.4989 392.8302 392.8957 392.8957 392.9162 392.9162
   392.9895 393.0818 393.1630 393.1630 393.2483 393.2483 393.2731 393.3914
   393.3914 393.4292 395.7891 395.7891 395.8078 395.8493 395.8493 395.8650
   395.8786 396.6342 396.6342 397.2652 397.4106 397.4106 400.8237 400.8237
   401.3245 401.4321 401.4401 401.5362 401.5860 401.5860 401.6456 401.6456
   401.7638 401.7638 405.1445 405.1445 405.1887 405.2254 405.2332 405.2332
   405.8706 406.3242 406.3242 406.5410 406.6344 406.6344 407.3625 407.3625
   407.4240 407.9871 407.9971 407.9971 408.2092 408.2092 408.2899 408.3888
   408.4587 408.4587 408.6842 408.8383 408.8383 408.9702 408.9757 408.9757
   412.6629 412.6629 412.7124 412.7124 412.7763 412.7791 416.8153 416.8153
   416.8986 416.9668 416.9668 417.2084 418.0143 419.7305 420.7231 420.7231
   421.7203 421.7203 421.7482 421.7634 421.8322 421.9689 421.9689 422.1231
   422.3784 422.3784 422.8529 422.8529 423.1934 423.1934 423.5786 424.0698
   424.6552 424.6552 424.9819 425.1990 425.2154 425.2154 427.2564 427.2564
   427.6018 427.6018 427.6353 427.8171 428.2369 428.2369 428.5620 428.5830
   428.7670 428.7670 428.8661 428.9848 429.6869 429.6869 429.7232 429.7232
   430.8212 430.8212 431.0595 431.0698 431.0698 431.7099 431.7325 431.7362
   431.9029 431.9029 432.1929 432.1929 432.9099 432.9244 432.9381 432.9381
   432.9788 432.9788 433.1890 433.1890 433.2234 433.2911 433.2911 433.3070
   439.2122 439.7330 439.7330 440.2737 440.7105 440.7105 440.9038 440.9038
   441.0622 441.1627 441.1627 441.3358 441.4379 441.4379 441.5004 441.6927
   441.6927 441.8879 441.8988 441.9592 441.9592 442.0131 442.0131 442.2005
   442.9810 443.8850 443.8850 444.2886 444.2886 445.1534 446.8743 446.9201
   446.9201 446.9898 447.0113 447.0113 447.2749 447.9793 449.5573 449.5573
   449.6921 449.6921 450.2104 450.2104 450.3031 450.3732 450.5359 450.5501
   450.5501 450.6201 450.6201 450.7799 450.7799 450.8433 453.0094 453.0094
   453.4692 453.5733 453.5733 453.5873 456.1175 456.1175 456.1512 456.1512
   457.7704 457.7716 457.8401 457.8401 457.8627 458.8165 458.8188 458.8776
   458.8776 458.9450 458.9630 458.9630 459.1222 459.1222 459.2321 459.7137
   459.7137 460.0477 460.1702 460.3622 460.3622 460.8035 461.7786 461.7786
   461.9526 461.9526 464.0669 464.0669 464.0706 464.0706 464.8404 464.8404
   464.9092 464.9131 465.1190 465.1840 465.1901 465.1901 467.7614 467.7614
   468.0827 468.1788 468.1788 468.2171 474.5413 474.5413 475.4338 475.6234
   475.8897 475.8897 476.2629 476.2629 476.2724 476.3273 476.3273 476.3945
   476.4640 476.4640 476.6426 476.6426 476.6629 476.7966 476.8063 476.8702
   476.8702 476.9088 476.9088 476.9514 477.0160 477.3266 477.3266 478.1454
   478.1454 478.4972 478.8105 478.9479 478.9479 479.1646 479.1646 479.2160
   481.5147 481.9629 481.9629 482.1455 482.4101 482.4101 482.6596 482.8883
   482.9365 482.9365 483.0451 483.0645 483.1985 483.1985 483.2635 483.2835
   483.2835 483.4542 483.4542 483.4946 483.7679 483.7679 484.0108 484.1322
   484.1829 484.1829 484.8499 485.4077 485.4077 485.8298 485.8298 485.8324
   489.1120 489.1120 489.1290 489.1290 489.3957 489.3972 489.4061 489.4061
   489.4441 489.4441 490.5106 490.5106 490.8510 490.8766 490.8766 490.9776
   490.9776 490.9871 491.0996 491.1978 491.2401 491.2401 495.0712 495.0712
   495.1975 495.6341 495.9351 495.9351 498.9742 498.9742 498.9748 499.0200
   499.0375 499.0375 502.5310 502.5310 502.6933 502.8224 502.8243 502.8243
   502.8343 502.8401 502.8401 502.9034 502.9076 502.9076 505.5785 505.5785
   505.6340 506.0016 506.1629 506.1629 506.1726 506.1925 506.1925 506.2652
   506.3014 506.3014 510.5457 510.5995 510.7123 510.7123 510.7982 510.7982
   511.0495 511.0609 511.0609 511.0872 511.0872 511.2189 514.1588 514.1588
   514.1882 514.2300 514.2300 514.3135 514.4290 514.4290 514.5042 514.5217
   514.5258 514.5258 515.2747 515.2747 515.9180 516.1514 516.1514 516.1809
   516.3534 516.3534 516.3640 516.4556 516.5059 516.5059 519.3061 520.0390
   520.2566 520.2566 520.3520 520.3520 522.1541 522.1541 522.2787 522.5779
   522.8455 522.8455 524.6555 524.6555 524.6869 524.7383 524.7383 524.7991
   525.4108 525.4108 525.5474 525.8383 525.8383 525.8432 526.6906 526.6906
   526.7480 526.7636 526.7636 526.8038 526.8275 526.8275 526.9072 527.1788
   527.1788 527.1839 527.7410 528.4900 528.4900 528.8347 528.8347 529.3879
   532.2712 532.2712 532.3894 532.3894 532.5073 532.5073 532.6606 532.6613
   532.8169 533.0222 533.1834 533.1834 533.4259 533.9832 534.0862 534.0862
   534.0986 534.1064 534.1064 534.1254 534.1254 534.1368 534.2813 534.4033
   534.4033 534.5020 534.6862 534.6862 534.7925 534.7925 537.6665 537.8823
   537.8823 537.9348 538.0398 538.0398 538.5929 539.1356 539.5005 539.7496
   539.7496 540.2464 540.2464 540.5402 540.6695 540.6695 540.7630 540.7652
   540.7652 540.9481 542.3769 542.3769 542.8574 543.0349 543.0349 543.1892
   543.4396 543.4466 543.7789 543.7789 543.7873 543.7873 544.4986 544.4986
   544.5028 544.5028 544.7945 544.7971 545.5306 545.5306 545.5372 545.5372
   546.0199 546.0199 546.0308 546.0596 546.0596 546.0744 550.8354 550.8354
   551.2246 551.3578 551.3578 551.4413 551.9315 552.1658 552.1658 552.4356
   552.4942 552.5541 552.5541 552.5826 552.5826 552.6682 552.9212 552.9212
   554.0225 554.2319 554.2319 554.4275 554.5590 554.5590 554.6331 554.6331
   554.6358 554.6910 554.6910 554.7063 556.7983 556.7983 556.8838 556.8838
   556.9698 557.5576 560.0734 560.0734 560.0780 560.0780 560.0839 560.0850
   562.3612 562.4857 562.4857 562.5432 562.5432 562.5958 563.2796 563.2796
   563.3001 563.3001 563.3248 563.3318 564.2654 564.2654 564.4943 564.5603
   564.6471 564.6471 564.6543 564.6894 564.6972 564.6972 564.7354 564.7354
   569.7264 570.1696 570.1696 570.1735 570.1815 570.1815 570.2061 570.4494
   570.4494 570.6753 570.6753 570.6879 570.6879 570.6974 570.7212 570.7212
   570.7403 570.7517 572.7494 572.7494 572.8376 572.8376 573.1600 573.1628
   573.2539 573.8251 573.8251 573.9144 573.9144 573.9247 574.7689 574.7689
   575.0631 575.3001 575.3501 575.3501 575.3742 575.4251 575.4251 575.4586
   575.5527 575.5527 578.6638 578.6638 579.0765 579.4168 579.4403 579.4403
   580.7345 581.2570 581.6074 581.6074 581.6273 581.6273 582.6475 582.6852
   582.6852 582.8969 582.8969 583.0991 583.2696 583.3099 583.3099 583.3192
   583.5005 583.5005 583.8138 583.8669 583.8669 583.9493 583.9493 584.0572
   585.9352 585.9630 585.9694 585.9694 585.9859 585.9859 589.5893 589.9153
   592.4468 592.4468 592.5171 592.9677 593.1808 593.1808 595.0409 595.0503
   595.0503 595.0625 595.1027 595.1027 596.1406 596.1406 596.2854 596.4588
   596.4588 596.4921 598.9159 598.9159 599.1204 599.1572 599.2321 599.2321
   599.3469 599.3469 599.3923 599.4491 599.4547 599.4547 600.5883 600.5883
   600.7314 600.9080 600.9080 601.3458 601.6162 601.6282 601.6282 601.8614
   601.8614 601.8961 603.8401 604.0206 604.0206 604.2192 604.2192 604.9610
   605.6855 606.1021 606.1021 606.5842 606.5842 606.7622 607.0113 607.0113
   607.1523 607.1523 607.2013 607.3135 607.9288 607.9313 607.9424 607.9424
   607.9654 607.9654 608.9179 608.9390 608.9390 609.1304 609.1304 609.3200
   611.0211 611.4409 611.5974 611.5974 611.6407 611.6407 614.1334 614.1334
   614.1418 614.1799 614.1799 614.1826 617.4149 617.4149 617.6343 617.6491
   617.6491 617.6570 618.1161 618.1161 618.1194 618.1194 618.4527 618.5198
   618.5198 618.5539 618.5665 618.6350 618.6694 618.6694 618.7833 618.8646
   618.8646 618.8808 618.8808 618.8844 618.8997 618.9480 618.9480 619.1450
   619.2202 619.2202 619.2345 619.2429 619.2429 619.3034 619.3034 619.4865
   619.5112 619.5215 619.5215 619.6828 619.6828 619.7616 622.8774 622.8774
   623.0470 623.1194 623.1194 623.2795 624.1175 624.2204 624.2204 624.2843
   624.3306 624.3306 624.4840 625.5042 625.6492 625.6492 625.7582 625.9898
   625.9898 626.2297 627.0952 627.0952 627.2258 627.2258 627.5579 627.5579
   627.6828 627.7462 627.7518 627.7518 629.1257 629.1275 629.1275 629.1313
   629.1358 629.1358 630.6607 630.6607 630.6672 630.6672 631.3060 631.3060
   631.5377 631.5717 631.5717 631.6374 631.6480 631.6533 631.6533 631.7887
   631.7887 631.9910 632.0711 632.0714 634.5553 634.8959 634.8959 635.0549
   635.0549 635.0633 638.2091 638.3926 638.3926 638.5898 638.6097 638.6097
   639.3942 639.3942 639.4021 639.4035 639.4040 639.4040 642.8934 642.8934
   643.0919 643.1455 643.1455 643.1628 643.3911 643.3912 643.4161 643.4407
   643.4407 643.4571 644.0102 644.0102 644.0696 644.0799 644.0836 644.0836
   647.1963 647.1963 647.1974 647.2098 647.2098 647.2214 650.1169 650.1169
   650.2664 650.4775 650.4775 650.6308 651.0345 651.0501 651.0501 651.2284
   651.2621 651.2621 653.8695 653.9590 653.9590 654.1871 654.1871 654.5094
   654.7074 654.7074 654.7790 654.7833 654.7833 654.7977 654.8337 654.8350
   654.8350 655.2330 655.2330 655.6333 656.2545 656.3234 656.3234 656.4844
   656.4844 656.6206 656.6369 656.6823 656.7353 656.7353 656.8294 656.8294
   657.0411 657.0436 657.0436 657.1739 657.1739 657.2650 657.8200 657.8200
   657.8985 658.0775 658.0775 658.2838 659.8561 660.4562 660.7365 660.7365
   660.8212 660.8212 660.9255 660.9367 665.6103 665.6103 665.7736 665.8067
   665.8067 665.8149 665.8294 665.8294 665.8833 665.8941 665.9812 665.9893
   665.9893 666.0222 666.0222 666.1120 666.1315 666.1315 666.2461 666.2461
   666.3892 666.4983 666.4983 666.6219 667.1372 667.1372 667.1451 667.1451
   671.4580 671.4580 671.5147 671.5681 671.5681 671.5860 671.7700 671.7700
   671.7814 671.8493 671.8493 671.9024 673.2648 673.2648 673.3122 673.3256
   673.3256 673.3371 673.4524 673.4524 673.6146 673.6196 673.6196 673.7037
   673.8473 673.8538 673.9429 673.9429 674.0072 674.0072 674.4653 674.4653
   674.6379 674.7021 674.7021 674.7768 677.0791 677.0791 677.0905 677.1307
   677.1307 677.1494 678.3467 678.8576 678.8576 679.0620 679.0802 679.0802
   681.7165 682.0206 682.0206 682.2682 682.2682 682.4904 682.7584 682.7633
   682.9987 682.9987 683.0310 683.0310 685.0231 685.0231 685.0753 685.1060
   685.1199 685.1199 685.1990 685.1991 685.3114 685.3501 685.3501 685.4399
   686.1649 686.1649 686.1783 686.1783 686.2864 686.2880 687.8166 688.0143
   688.0143 688.0163 688.0336 688.0336 689.7027 690.1034 690.1034 690.2857
   690.2857 690.3174 693.2862 693.2862 693.4482 693.5312 693.5312 693.6489
   693.6489 693.6580 693.6580 693.6667 693.7213 693.7283 693.7283 693.8589
   693.8589 693.8663 693.9895 693.9988 696.2115 696.3860 696.3860 696.4110
   696.4110 696.5758 701.9430 701.9430 701.9763 701.9763 701.9872 702.0068
   702.0545 702.0545 702.1406 702.1632 702.1846 702.1846 702.2512 702.2512
   702.2555 702.5147 702.5283 702.5283 704.3031 704.3886 704.3886 704.4596
   704.4596 704.6312 706.3638 706.5405 706.5405 706.5461 706.5461 706.6162
   706.7714 706.9449 706.9449 707.1437 707.1437 707.3495 709.2363 709.2397
   709.2397 709.2828 709.2828 709.3028 710.0733 710.0733 710.0749 710.0785
   710.0785 710.0798 710.7629 710.7693 710.7693 710.7988 710.8220 710.8220
   711.5330 711.5330 711.5370 711.5513 711.5513 711.5703 712.5270 712.5691
   712.5691 712.5999 712.5999 712.7184 713.3507 713.3579 713.4270 713.4270
   713.4425 713.4425 714.6509 714.6509 715.0028 715.0568 715.0568 715.2017
   717.3426 717.3489 717.3489 717.3865 717.3865 717.4045 720.2478 720.2478
   720.4322 720.4794 720.5611 720.5611 721.7958 721.7958 721.8470 721.8692
   721.8692 721.8952 721.8952 721.9354 722.0316 722.1268 722.1268 722.1525
   722.7002 722.9586 722.9586 723.1308 723.1693 723.1693 723.2291 723.2357
   723.2915 723.2915 723.3370 723.3370 725.3250 725.6718 726.4042 726.4217
   726.4217 726.4265 726.4265 726.4539 730.1276 730.2048 730.2048 730.2425
   730.2425 730.3113 731.7196 731.7314 731.7314 731.7816 731.7816 731.7938
   732.0473 732.0473 732.1095 732.1095 733.9752 733.9752 734.0044 734.0044
   734.4855 735.1873 735.6780 735.6787 736.2957 736.2957 736.3186 736.3186
   737.2489 737.2489 737.3576 737.4413 737.4767 737.4767 738.1549 738.1549
   738.3238 738.3600 738.3739 738.3739 738.9774 738.9774 739.2026 739.2973
   739.3191 739.3191 741.2568 741.3260 741.3260 741.4524 741.4524 741.4544
   741.4678 741.4678 741.4785 741.5886 741.5886 741.7383 742.2413 742.2599
   742.2599 742.3567 742.3567 742.4459 742.6984 742.9329 742.9329 743.2170
   743.2170 743.2836 743.2836 743.3110 743.3110 743.3564 743.5027 743.9496
   745.2396 745.2396 745.2815 745.2866 745.2866 745.2889 745.3239 745.3239
   745.3400 745.3780 745.4073 745.4073 745.5497 745.5497 745.5635 745.6629
   745.6629 745.6800 750.2342 750.2342 750.3666 750.3879 750.4782 750.4782
   754.8120 754.8732 754.8732 754.8735 754.8830 754.8830 756.7687 756.7719
   756.7812 756.7812 756.7870 756.7870 758.8643 758.9663 758.9663 759.0015
   759.0015 759.0321 759.6563 759.6563 759.6932 759.7756 759.7756 759.7883
   759.8891 759.9055 759.9055 759.9318 759.9519 759.9519 760.2987 760.2987
   760.6234 760.6716 760.6716 760.8120 760.9745 760.9882 761.0253 761.0253
   761.0544 761.0544 764.9079 764.9079 764.9557 765.0183 765.0183 765.0745
   765.0746 765.0746 765.0776 765.1976 765.1976 765.2619 765.4739 765.5399

          k = 0.0000 0.5000 0.0000 (  4432 PWs)   bands (ev):

   -92.4213 -28.1765 -28.1729 -28.1729 -28.1648 -28.1627  -3.3904   5.2195
     6.4453   6.4453  10.7337  12.5102  14.5356  14.5356  16.7044  18.9413
    19.5414  21.6384  21.6384  22.7608  26.3413  26.3413  27.7484  27.9072
    30.2573  33.7494  33.7494  36.4759  36.6912  37.3803  37.3803  38.4785
    40.1632  41.1763  41.1763  42.9537  44.0989  45.2012  45.2012  46.0759
    46.4221  46.4221  47.1859  47.1953  48.0706  49.7703  49.7703  50.4787
    53.2642  54.2172  54.2172  55.1367  55.5329  56.5741  56.5741  56.5929
    57.2193  58.5171  62.2614  62.2614  62.5694  64.2305  66.7650  67.1451
    67.5664  67.5664  68.6051  68.6051  70.2254  71.7109  71.7109  73.3590
    74.0563  74.0563  74.6143  74.6869  76.1742  76.1742  76.3614  77.1227
    77.8471  78.1353  79.8915  79.8915  82.8427  83.1545  83.1545  84.1500
    84.4542  85.7879  86.3859  86.9434  86.9434  87.9209  90.5427  90.5427
    91.0049  91.0673  91.9946  92.3808  93.2123  93.2123  93.7615  94.4405
    94.6299  94.6299  94.6334  96.6130  98.0767  98.4470  98.4470  98.7312
    99.3428  99.9103  99.9103 101.5397 101.5397 101.7549 102.3213 102.3213
   102.4184 102.5664 103.3793 103.7872 104.1345 104.1345 104.8219 104.8219
   106.2451 106.3018 107.4619 110.9016 111.0206 111.0206 111.9670 112.1936
   112.1936 112.9426 114.0126 116.1119 116.1119 117.6398 118.0775 118.0775
   118.1078 118.9730 119.2298 119.2298 119.4780 120.0642 120.2046 121.2812
   121.2812 121.7755 123.4107 124.9945 124.9945 125.0939 127.0101 127.7257
   127.7997 127.9745 127.9745 128.9213 129.5361 129.5361 130.4139 131.0288
   131.0288 131.3644 133.9471 134.4663 135.2734 135.2734 136.3060 136.3060
   136.9955 137.0575 137.9306 138.2140 138.2140 138.5940 139.3851 140.0696
   140.1522 140.2957 140.2957 143.6266 143.6266 143.8383 145.0892 145.0892
   145.7371 145.7880 146.1219 147.9293 148.4875 148.4875 149.0198 150.1833
   150.1834 151.0745 151.2918 151.7434 151.7792 151.7792 152.4207 152.4207
   152.5234 152.8322 155.2286 155.7330 155.7330 155.9958 156.1231 156.1668
   156.9044 156.9044 157.2203 159.0712 159.0712 159.3136 160.2959 161.0336
   161.0336 161.4281 161.9577 163.0709 163.0709 163.4672 165.4016 165.4016
   165.4221 165.6847 165.7694 166.9938 166.9938 167.5311 168.8983 170.4335
   170.4335 170.5764 171.4993 172.5375 173.1744 173.1841 173.1841 174.0355
   174.3496 174.3496 174.7984 175.6467 175.6467 175.7066 176.0981 176.5089
   176.9770 177.0100 177.0100 178.2066 178.2066 179.9839 180.6600 180.6600
   180.8048 180.9967 181.4634 182.2717 182.4546 182.4546 182.5856 183.1137
   183.4621 183.4621 184.0505 184.6842 184.6842 184.7157 185.2318 185.6779
   185.6779 185.6910 186.1256 187.0626 187.0626 187.6089 189.1650 189.3616
   189.5615 189.5615 190.5718 190.5718 190.5807 191.5616 191.7204 193.1668
   193.6265 193.6265 194.4124 194.6674 194.9290 194.9290 195.3250 195.8998
   195.8998 195.9993 197.0574 197.5816 198.7576 201.2488 202.2690 202.2690
   202.6979 203.1464 203.1464 204.2322 205.1265 205.1265 205.1551 205.2418
   206.5537 207.6608 207.6608 208.5045 209.5503 210.9907 210.9907 211.2115
   211.5911 211.5911 212.1154 212.7799 213.9465 213.9465 214.5787 214.6909
   215.1260 215.4570 215.4570 216.2011 216.8623 216.9724 217.5210 217.5210
   217.8252 218.7104 218.7104 219.5776 219.5917 220.0229 220.0229 220.3929
   221.4372 221.6649 221.6649 223.4806 223.4806 224.6330 224.8919 225.3603
   226.2506 226.2506 226.8731 228.9380 230.3958 230.3958 230.7644 231.0863
   231.5352 231.5352 232.1207 232.2751 232.2751 233.1162 233.4097 233.4760
   233.4760 234.2826 234.9761 234.9761 235.1874 235.5820 236.2354 236.3818
   237.5831 237.5831 237.6981 238.2574 238.2574 238.2648 238.3970 238.7060
   239.3746 239.3746 239.9628 239.9628 240.0940 240.3613 240.5400 240.7531
   240.7531 240.7621 241.0854 242.3153 242.3812 242.3812 242.4610 242.9330
   243.4249 243.4249 243.6541 244.4835 244.4835 245.0112 245.4034 245.4471
   245.5393 245.5393 245.8800 246.7604 246.8356 246.8356 247.2793 248.4081
   248.6906 248.6906 249.2891 250.9718 251.2560 251.2560 251.2782 253.1373
   253.1404 253.1404 253.2997 254.5466 255.9931 256.5040 256.8452 256.8452
   257.8168 257.9512 257.9778 257.9778 258.6041 258.7336 260.1308 260.1308
   261.1464 261.6772 261.6899 261.6899 261.9276 261.9606 262.0541 262.0541
   262.1653 262.6049 262.6049 262.9200 263.3697 265.0582 266.1290 266.1290
   266.2501 267.8699 268.4198 268.4198 269.2207 269.4146 269.4146 269.4819
   269.8649 270.0207 270.0207 270.1648 270.7937 270.8776 271.7065 271.7146
   271.7146 272.0027 272.0027 273.7259 274.4879 274.8286 274.8286 275.1284
   276.0203 276.4891 276.4891 276.7741 277.3339 277.3339 277.3523 277.7282
   278.3833 279.1072 279.1072 279.1967 279.5868 279.5868 279.9933 281.5894
   281.7466 282.0023 282.0023 282.7744 283.4438 284.5097 284.5097 285.5352
   285.8425 286.6392 286.6392 286.8748 287.2884 287.3231 287.3231 287.4339
   287.8510 288.6638 288.6827 288.6827 289.1404 289.9714 289.9714 290.1960
   290.6479 290.6495 290.6495 291.1224 291.1436 291.3075 291.3075 291.8852
   293.5185 293.9245 293.9245 294.2912 294.6144 294.6144 294.7032 295.3389
   296.3543 296.7940 296.8885 296.8885 297.2784 297.8358 297.8358 298.5156
   299.5537 299.5918 299.5918 300.0059 300.0093 300.0460 300.0460 300.0724
   301.7952 301.8299 301.8616 301.8616 302.0068 303.7879 303.7879 305.2572
   305.2572 305.5594 305.7706 306.4726 306.9718 309.7468 309.7468 310.7436
   310.7465 311.9053 311.9053 311.9735 312.5566 313.5949 313.6055 313.6055
   314.1112 314.7767 314.7767 314.8533 314.9685 314.9685 314.9879 315.0894
   318.0439 318.8630 318.8630 318.9920 319.1976 319.3984 319.3984 320.4091
   320.7841 320.7841 321.2254 321.3127 321.6543 321.9126 321.9126 322.1947
   322.8661 322.8661 322.8893 323.5574 323.9226 324.0698 324.0698 324.7715
   325.1297 325.2480 325.2480 325.7215 325.8852 326.0051 326.0051 326.0333
   326.1951 326.3588 326.3588 326.5206 328.5871 328.8212 328.8618 328.8618
   330.1832 330.1995 330.1995 330.4121 330.6935 330.9372 331.2756 331.2756
   331.5283 332.2295 334.2470 334.2470 335.1420 337.0517 337.0663 337.0663
   337.3538 337.4677 337.5948 337.5948 337.6947 337.9463 337.9463 338.1841
   338.5299 338.9966 341.9464 342.3347 342.3355 342.3355 342.7286 342.9497
   342.9497 343.3200 343.6189 343.6189 344.2201 344.5129 344.8253 344.9541
   344.9541 345.1517 346.2305 346.2305 346.6150 346.7377 347.4205 347.4903
   347.4903 348.0885 348.0885 348.2915 348.4736 349.3885 349.4738 349.4738
   349.6725 349.8972 349.9495 349.9495 350.2278 350.8516 351.2077 351.2077
   351.2895 351.4714 352.1901 352.1901 352.2193 352.5055 353.5143 353.5143
   354.1504 354.1890 354.2215 354.2215 354.3355 354.7224 354.7656 354.7656
   356.6940 357.3420 357.3733 357.3733 357.7624 358.6368 358.7739 358.7739
   359.6769 360.0386 360.1476 360.1476 360.2734 363.6664 363.6664 363.8044
   364.4048 367.1215 367.5376 367.5376 367.6603 367.8062 368.0775 368.0775
   368.2826 368.8809 369.3229 369.3487 369.3487 369.9955 370.0520 370.0520
   370.0528 370.5776 370.7964 370.7964 371.0465 371.3981 371.5445 371.5445
   371.9309 371.9472 371.9556 371.9556 372.5034 372.6460 372.6460 372.7360
   373.1480 373.1974 373.2606 373.2606 373.3987 373.6058 373.7179 373.7179
   374.0676 375.7592 375.9473 376.1299 376.1299 376.2210 376.3816 376.4388
   376.4892 376.4892 377.8787 377.8787 378.3181 378.6532 378.6532 379.2790
   379.9409 379.9409 379.9716 380.0053 381.4812 381.5617 382.2087 382.2087
   382.5388 382.7604 383.0345 383.0345 383.1247 383.5269 383.9064 383.9064
   383.9860 384.0250 384.1730 384.1730 384.2056 384.4191 384.4599 384.5658
   384.5658 384.7818 384.8672 384.8672 385.6248 386.3591 386.3625 386.3723
   386.3723 387.8260 387.8260 387.8275 388.0121 390.6224 390.6224 390.8020
   392.0170 392.0170 392.0335 392.0847 392.1408 392.1408 392.1426 392.1883
   392.4506 392.7432 393.0676 393.0676 393.4680 394.7421 394.8422 394.8422
   395.0203 402.1621 402.1621 402.4286 403.1245 404.3161 404.5193 404.5193
   404.7221 404.7560 404.8220 404.8220 404.8972 405.0807 405.0807 405.2170
   405.4424 405.4997 405.5536 405.5536 405.7021 405.8142 406.1043 406.1043
   406.2308 406.9226 408.0545 408.0545 409.2584 410.4477 410.4477 410.6149
   410.9433 411.0368 411.3270 411.3270 411.4386 411.7421 411.7421 411.7636
   412.0115 413.1459 413.3087 413.3087 413.7584 414.6233 414.9470 414.9470
   415.0776 415.2133 418.2193 418.2193 418.2791 418.3031 418.4231 418.4231
   418.4231 418.4820 418.6805 419.4523 419.4805 419.4805 419.5765 419.7321
   419.7321 419.8753 420.0148 422.6242 422.6667 422.6667 423.3228 424.4404
   424.4404 424.5045 425.0774 425.2093 425.7616 425.7616 426.9235 427.2407
   427.2407 427.4463 427.7700 427.7700 427.7849 427.9811 427.9882 428.0308
   428.0308 428.1291 428.1303 428.1303 428.3139 428.4114 428.5590 428.7433
   428.7433 428.7869 428.9019 430.7598 430.7873 430.7873 430.9897 431.0119
   431.0253 431.0253 431.1923 431.3654 431.3654 431.7450 432.9410 435.7203
   435.7203 435.7264 435.7594 436.7349 436.7349 436.8810 437.0928 437.2079
   437.2079 437.3657 437.4063 437.4063 437.5779 438.9484 438.9484 438.9882
   438.9897 440.0193 440.0193 440.0260 440.0997 440.3127 440.3197 440.3197
   440.3537 440.4797 440.4797 440.5235 440.6718 440.7805 442.9439 443.0674
   443.0674 443.2276 443.7403 443.8822 443.8822 443.9100 445.2660 445.2660
   445.2701 445.2790 446.9440 446.9541 446.9541 447.0866 447.0866 447.2120
   447.3897 447.4532 452.5320 453.2566 453.2566 453.6498 454.5871 454.8589
   454.8589 455.0386 455.1932 455.4495 455.4495 456.5147 456.9842 457.6680
   457.6680 457.7998 458.9711 458.9711 459.7221 459.7609 459.8049 459.9730
   459.9748 459.9748 460.2097 461.2834 461.3910 461.3910 461.6787 461.8158
   461.8158 462.0309 462.0309 462.0618 462.3577 462.3577 462.5596 462.6153
   462.7981 465.0465 465.0526 465.0526 465.0972 465.5503 465.5864 466.4606
   466.4606 466.5781 466.8152 467.0725 467.1826 467.1826 467.4371 468.8899
   468.8899 469.7928 469.7928 469.9072 469.9605 469.9858 471.4570 471.4570
   471.8884 471.9954 472.2149 472.2149 472.2577 472.2885 473.9590 473.9590
   474.5546 475.0128 475.1802 475.1802 475.3297 475.3355 475.4238 475.4238
   475.7464 475.8233 475.8663 475.8710 475.8710 475.9211 475.9741 475.9741
   476.0056 476.2078 476.3145 476.5139 476.5139 476.9444 477.8887 477.8887
   477.9138 478.1727 479.1473 479.7945 479.7945 480.3117 482.2538 482.5825
   482.5825 482.8289 483.5579 483.5579 483.7373 483.7813 483.8224 483.8309
   483.8309 483.8724 486.1717 486.1717 486.1955 486.5138 486.5374 486.6722
   486.6722 486.9059 486.9193 486.9578 486.9578 486.9957 489.2037 489.2037
   489.2729 489.5098 491.7068 491.7068 491.9187 492.1359 492.1987 492.4591
   492.4591 492.7318 492.7318 492.7850 493.0703 493.1028 493.3652 493.3652
   493.6539 493.7171 493.8915 493.9486 493.9486 494.0637 494.1102 494.1436
   494.1436 494.1505 494.3153 495.0673 495.0673 495.2091 495.3130 495.3199
   495.3199 495.4107 495.5798 495.5798 495.5879 495.7355 495.7481 495.9494
   495.9494 496.0784 496.6664 496.6664 496.6747 496.7103 501.0977 501.6893
   501.6893 501.7869 502.6186 503.1836 503.1836 503.6115 504.0424 504.0424
   504.1234 504.3174 504.3584 504.3584 504.6591 504.7816 504.8524 504.9964
   504.9964 505.0196 505.0213 505.0709 505.0709 505.2257 505.9167 505.9167
   506.0591 506.1969 507.2334 507.2708 507.2708 507.4400 508.8835 509.0991
   509.1663 509.1663 509.5940 509.9564 510.6445 510.7050 510.7050 510.7716
   511.0881 511.0881 511.7905 511.9593 511.9593 512.3035 512.7909 513.2144
   513.2144 513.2292 513.2370 513.4995 513.4995 513.5815 513.7346 514.4903
   514.6721 515.2764 515.2764 515.6864 515.6864 515.7096 515.7384 515.9743
   516.3384 516.4844 516.4844 516.6242 516.6242 516.7836 516.8431 516.9269
   518.5147 518.5596 518.5596 518.6053 518.8440 519.0530 519.0530 519.0811
   520.4730 520.4840 520.4840 520.5064 521.7911 521.7911 521.8503 521.9199
   522.2186 522.2186 522.2291 522.2448 523.8463 523.8463 524.5263 524.8445
   524.8445 525.3775 525.4332 525.4879 525.5153 525.5153 525.5976 526.3975
   527.2075 527.2225 527.2225 527.2932 529.4253 529.5960 529.5960 529.8504
   530.6343 530.6343 532.5079 532.7722 532.7722 532.9417 533.6282 533.7962
[...]
   180.8791 181.1104 181.2997 181.9467 182.4023 182.5936 182.8411 185.1639
   185.2605 185.6869 185.8873 186.8805 187.4944 188.7510 188.7911 189.4326
   190.0416 190.2202 190.2702 191.0899 192.9546 193.4776 193.4878 194.8826
   195.0105 195.6301 195.8665 195.9207 196.1100 196.8808 197.2157 197.3129
   197.5074 197.8842 197.9618 198.1739 198.2532 198.4842 198.5215 198.9010
   198.9352 199.0085 199.4428 200.1059 200.5704 201.1616 201.2334 201.2995
   204.3598 204.4491 205.6235 205.6496 205.7670 206.0152 206.9927 207.0188
   207.0347 208.1806 208.6540 208.8100 209.0427 209.0490 209.2794 209.3110
   211.1192 211.2355 211.3184 211.9327 212.0609 212.7576 212.8175 212.8463
   213.7135 214.2940 214.3274 214.3575 215.4725 215.4842 215.5457 215.7386
   215.9083 216.7001 216.9423 217.7084 217.9531 218.7334 218.8558 219.6981
   220.0085 220.1706 220.2416 220.2805 220.6225 220.8026 220.8043 220.9911
   221.3922 221.4261 222.0522 222.2438 224.0403 224.4684 224.6055 224.6926
   225.3015 225.5418 225.6891 225.6898 227.9680 228.5195 228.6962 229.1640
   229.4459 229.5199 230.2823 230.3730 231.2136 231.3910 231.5861 231.6803
   231.8045 232.3820 232.4213 232.5626 235.4214 235.6840 235.9122 236.2144
   236.3096 236.4949 236.5034 236.5571 238.6602 238.9560 239.7749 240.7080
   241.7466 242.2314 243.2754 243.5248 243.8390 244.3782 244.3813 244.5051
   244.9210 244.9448 245.0279 245.6165 245.7510 245.8257 245.8534 245.9106
   248.0342 248.0641 248.4835 249.1512 249.5962 249.6855 249.9567 250.1708
   253.3987 253.6042 253.7491 253.9920 254.1551 254.5683 254.7724 255.0708
   255.2948 255.9781 255.9906 256.0562 256.1827 256.3245 256.7770 257.3413
   257.4281 257.9528 257.9545 258.5185 259.4550 259.7739 259.9080 260.4754
   260.5026 260.5098 260.6149 261.2924 261.3798 261.5011 261.6066 261.6590
   261.6919 262.6353 263.5961 263.6019 263.7436 263.8936 265.2343 265.7443
   265.7590 267.3855 268.4870 268.5535 268.6361 268.8197 268.8323 269.3652
   271.5148 271.7748 272.0866 272.1281 272.5783 272.6980 273.0683 273.1477
   274.6930 274.7965 274.9267 275.0576 275.5604 275.8881 276.0611 276.4426
   277.7571 277.8883 278.0607 278.6028 279.7279 279.9652 280.0309 280.6088
   281.1051 281.3185 281.6405 281.7158 281.7698 282.1564 282.2114 282.3543
   282.6837 283.0294 283.1388 283.3372 283.5141 283.5410 283.7011 283.8902
   284.7205 284.8604 285.7819 285.7897 288.1063 288.9625 289.3218 289.5935
   290.6234 291.3213 291.5045 291.5895 291.8936 291.9629 292.8442 293.7376
   293.8615 293.8688 294.3537 294.4223 294.9254 295.0872 295.1503 295.9162
   296.5943 296.6180 296.6469 296.8443 300.0511 300.5617 300.6986 300.7221
   301.1041 301.1685 301.2514 301.6998 302.0932 302.1273 302.4479 303.2015
   303.3662 303.8649 303.9006 303.9090 304.3892 304.5037 304.5410 304.6444
   304.7599 304.8236 304.8486 304.9195 306.5944 306.8905 306.9296 307.2074
   307.2937 307.6533 307.7087 307.8778 308.0653 308.1181 308.1493 308.2568
   308.3320 308.4991 308.6176 308.7321 309.1796 309.3030 309.5046 309.5390
   310.6184 310.6678 310.7022 310.7948 311.9813 312.2030 312.5188 313.2817
   313.8479 313.8917 313.9373 313.9909 314.4721 314.8267 314.8445 315.0007
   315.1080 315.1656 315.1784 315.1905 318.9926 319.7694 320.1210 320.5016
   321.3839 321.6085 321.6303 321.6982 321.7491 321.7997 321.8882 321.9660
   323.1751 323.2757 324.2893 324.3437 324.5800 324.6989 325.2227 325.8419
   326.3264 326.6419 326.8916 326.9304 327.2556 327.3089 327.4561 327.4818
   328.0498 328.1891 328.2053 328.2768 329.0289 329.5931 329.6051 329.6939
   330.1397 330.1470 330.1761 330.4465 331.3090 331.4298 331.5684 331.9072
   332.8346 333.3487 336.4704 336.4986 336.7535 336.9829 337.8340 337.9452
   338.0281 338.1409 338.5110 338.6896 338.7008 338.8780 338.9134 338.9235
   338.9274 339.0868 339.1158 339.1629 339.3377 339.6722 339.7879 339.8479
   339.9142 340.1279 340.5151 340.5251 340.6006 340.6136 340.9827 341.8432
   342.4180 342.4690 342.6530 342.6783 347.6175 348.0706 348.2627 348.2710
   348.5713 348.5766 348.7122 348.8788 348.8851 349.2065 349.2650 349.9936
   350.1580 350.2114 350.2512 350.2623 350.3056 350.3206 350.4004 350.7878
   353.7123 353.9248 354.1648 354.2750 354.3808 354.4651 354.6407 354.6776
   355.5625 355.6438 355.7452 355.8120 356.4531 356.5642 356.5832 356.6756
   357.8601 359.2918 360.4476 360.4633 360.7261 360.7485 360.8339 360.9269
   365.5200 365.7771 365.7953 366.0697 367.0070 367.0731 367.2768 367.3771
   367.4711 368.0060 368.0351 368.2170 369.7735 369.9845 370.0337 370.0872
   371.0690 371.3958 371.5362 371.9908 372.2607 372.3101 372.4278 372.5262
   373.3718 373.8149 373.8503 373.9253 375.0441 375.2192 375.3553 375.4138
   375.7801 375.9147 376.1027 376.1252 377.4378 377.4668 377.4959 377.5475
   378.0623 378.1741 378.2849 378.4448 379.4055 380.0231 380.0951 380.1028
   381.9960 382.5230 382.5559 382.6470 384.5003 384.5048 384.5353 384.5406
   385.0532 385.1469 385.4317 385.5426 385.7779 386.1716 386.2393 386.2694
   386.3749 386.5282 386.5614 386.7558 388.5350 388.8365 389.0633 389.2169
   389.2437 389.6114 389.6515 389.6556 391.8957 392.1944 392.2024 392.3264
   393.4925 393.6534 393.6805 393.7641 394.1638 394.3217 394.5076 394.5651
   394.7478 394.8760 394.8774 394.8826 394.9440 395.0954 395.1063 395.2485
   395.5147 395.6459 395.8888 395.9259 396.1080 396.4353 396.6977 396.7332
   396.8186 396.8535 397.1017 397.3113 398.3575 398.3871 398.6517 398.6550
   399.2276 399.3133 399.4152 399.4884 399.5126 399.5272 399.6569 399.6867
   401.5780 401.6481 401.7036 401.8290 403.6864 403.7987 404.4524 404.5104
   404.5898 404.7373 404.9050 405.0935 405.2875 405.3912 405.4132 405.4733
   405.6640 405.7246 405.7332 405.7467 405.9251 406.0170 406.0616 406.0877
   406.1829 406.2484 406.3464 406.4021 410.7733 410.7745 410.8688 411.1881
   411.9205 411.9335 412.3622 412.3940 413.5461 413.6580 413.8588 413.9233
   415.3763 415.5464 415.5609 415.6512 416.4135 416.9662 416.9933 417.1735
   418.3081 418.4496 418.5332 418.6339 418.7187 418.7278 419.8783 419.9102
   419.9426 420.0062 421.1252 421.2974 421.9172 422.5123 422.5708 422.7279
   422.7445 422.9434 422.9925 423.3117 423.3527 423.6239 424.1156 424.1425
   424.1698 424.2884 425.4540 426.0176 426.9625 427.1230 427.3395 427.5205
   427.5874 427.7125 427.7560 427.7582 428.3226 428.3608 428.4083 428.4281
   428.4916 428.6058 428.8638 428.9754 429.2814 429.6267 429.6476 429.9246
   431.9225 431.9439 431.9719 432.0596 433.2691 433.3189 433.3208 433.3436
   436.4902 436.5366 436.6682 436.6943 439.2522 439.3193 439.3408 439.3548
   440.0899 440.1284 440.1303 440.2189 440.2296 440.2483 440.2638 440.3031
   440.3990 440.7650 440.7775 440.8370 441.0238 441.3671 441.8196 442.1533
   442.3938 442.4150 442.5221 442.5597 443.2583 443.6428 444.0777 444.4973
   445.2020 445.5140 445.5471 445.5478 445.9979 446.0125 446.0241 446.0571
   446.5889 446.6366 446.6668 446.7633 447.5680 447.5998 447.6393 447.6818
   450.0188 450.2831 450.3230 450.4294 450.6198 450.7587 450.7838 450.8481
   451.2326 451.3340 452.0219 452.1790 452.3235 452.3507 452.3801 452.4687
   452.5343 452.5601 452.6108 452.6775 452.8347 453.0590 453.0898 453.1746
   453.1997 453.2575 453.2833 453.3747 454.9546 455.3871 455.4747 455.5512
   455.5672 455.6437 455.8490 455.8813 460.8926 461.0084 461.0602 461.0645
   461.6123 461.6678 461.9883 462.0201 462.1887 462.2030 462.2521 462.4310
   464.0818 464.1226 464.2011 464.2208 464.5182 464.6986 464.9764 465.0052
   465.0870 465.1279 465.1339 465.1826 466.2876 466.3062 466.3731 466.3874
   466.4604 466.4788 466.5197 466.5581 469.8810 469.9363 469.9581 469.9763
   472.2313 472.3092 472.7119 472.7949 472.9671 473.3795 473.5891 473.6254
   473.9332 473.9573 474.2593 474.3336 475.7279 475.8904 476.0126 476.1943
   477.0644 477.5519 477.8707 477.9349 478.1161 478.1256 478.1329 478.1395
   478.4338 478.5101 478.5749 478.6245 478.7300 478.8575 478.9252 479.0686
   479.1730 479.2492 479.2653 479.3442 479.4727 479.5395 479.7922 480.0341
   480.3476 480.3565 480.4100 480.5050 480.5226 480.5301 480.5371 480.5431
   481.2668 481.3420 481.5866 481.6077 482.3569 482.6161 482.7730 482.9762
   489.1327 489.2601 489.3945 489.6061 489.6551 489.6629 489.6895 489.8283
   490.4991 490.5091 490.5338 490.5491 491.2960 491.3249 491.3269 491.3276
   493.9501 494.0290 494.1366 494.1522 495.3035 495.7089 495.7612 495.7980
   496.0446 496.0772 496.1759 496.1879 497.4831 497.5878 497.6010 497.6273
   498.6797 499.0050 499.2206 499.4245 499.4255 499.4761 499.4806 499.4869
   499.6933 499.7412 499.7804 499.8264 500.9610 501.2215 501.2334 501.4202
   501.5612 501.8026 501.8047 501.8162 501.9057 502.0514 502.0889 502.1296
   502.5996 502.6085 502.6236 502.6361 506.3001 506.3665 506.3768 506.3798
   507.3620 507.3677 507.3686 507.4020 507.4911 507.5204 507.5304 507.5501
   510.8380 510.8408 510.9974 511.2276 511.2497 511.3165 511.3364 511.4068
   511.5644 511.6084 511.8718 511.8922 511.9820 512.0177 512.0868 512.2217
   512.2239 512.2763 513.0554 513.1306 513.2099 513.2110 516.7147 516.8562
   516.8605 517.0285 517.0413 517.2181 517.6547 517.6668 517.8125 517.8289
   517.8868 518.0261 519.3299 519.6559 521.9404 522.2835 522.2905 522.3198
   522.3360 522.5168 522.5837 522.8275 524.5207 524.5316 524.5376 524.5491
   527.5247 527.6898 528.1072 528.3020 529.1909 529.2511 529.4286 529.4863
   530.2988 530.4658 530.4808 530.4940 530.6913 530.7641 530.7896 530.8221
   531.6863 531.7420 532.0088 532.0207 532.6076 532.6083 532.6246 532.6320
   533.6992 533.8167 533.9476 534.5299 534.6230 534.8138 534.8430 535.1222
   535.6441 535.6956 535.7294 535.7442 535.8066 535.8142 535.8780 535.9762
   536.1519 536.2901 536.3062 536.3254 536.5347 536.6065 536.6069 536.6471
   536.6783 536.9090 536.9626 536.9946 537.4190 537.4233 537.4546 537.9289
   538.4981 538.9751 539.3382 539.3461 539.6298 539.6343 539.6368 539.6505
   540.0541 540.1586 540.2119 540.2658 541.3067 541.4965 541.4994 541.5154
   541.5672 541.5984 541.6343 541.6896 543.4935 543.5885 543.5981 543.6197
   543.9282 543.9348 543.9391 543.9447 544.9436 545.0445 545.1437 545.1590
   545.9001 545.9647 546.1593 546.1957 546.3117 546.3456 546.4872 546.5533
   546.7889 546.8623 546.8799 546.9515 547.2846 547.3190 547.3217 547.3672
   550.1335 550.3544 550.4609 550.6146 551.5479 551.6329 551.6859 551.7242
   554.3991 554.4657 554.5520 554.5530 555.5135 555.7505 555.7531 555.9823
   555.9832 556.0576 556.2305 556.2333 556.2677 556.3126 556.3759 556.3854
   556.7084 556.7342 556.8163 556.8358 558.6024 558.7279 558.9226 558.9684
   558.9923 559.0240 559.0471 559.1865 559.6870 559.7653 559.8180 559.8249
   561.9784 561.9812 561.9922 561.9988 563.1219 563.3843 563.3980 563.8378
   564.2590 564.2797 564.3934 564.4003 564.4197 564.4276 564.4416 564.4421
   564.8138 564.8383 564.8540 564.9322 564.9695 565.0517 565.0915 565.1364
   566.7371 566.7616 566.9195 566.9530 566.9634 566.9763 567.0024 567.0060
   571.0417 571.0781 571.2117 571.2175 571.2488 571.2501 571.3025 571.3447
   572.6654 572.7112 572.7745 572.9546 572.9577 573.1167 573.2735 573.4918
   573.7714 573.8317 573.9494 573.9840 575.0261 575.0616 575.1836 575.2205
   579.3413 579.6790 579.7262 579.8889 580.3809 580.4277 580.4555 580.4755
   580.7223 580.8059 580.8654 580.8733 581.0194 581.0199 581.0307 581.0327
   583.0662 583.1204 583.3452 583.4336 583.5233 583.5400 583.7568 583.7632
   583.9190 584.1453 584.1490 584.2812 584.3465 584.3631 584.3746 584.4383
   587.4526 587.5741 587.5781 587.6521 587.7089 587.7498 587.8338 587.8730
   588.9387 588.9988 589.0640 589.0910 589.5705 589.5965 589.6281 589.6383
   590.4224 590.4592 590.5308 590.5332 591.0455 591.3929 591.4248 591.8976
   591.9149 591.9554 591.9801 592.0453 592.1629 592.1688 592.1971 592.2089
   592.3732 592.4490 592.4760 592.5008 592.8794 592.8909 593.0171 593.0433
   593.0581 593.1018 593.1143 593.2516 593.4600 593.4802 593.5907 593.6056
   593.6203 593.6425 593.8513 593.8641 594.7301 594.8900 594.9073 595.0770
   595.6050 595.8493 595.8744 596.0781 599.6033 599.6119 599.6201 599.6223
   599.6362 599.6883 599.6884 599.7384 602.4303 602.5149 602.6199 602.6857
   602.6905 602.8191 602.8681 602.9781 602.9858 603.0682 603.1465 603.1636
   603.3096 603.5383 603.5399 603.5439 606.6248 606.6905 606.7226 606.7423
   606.7644 606.8290 606.8690 607.0173 608.4920 608.5236 608.7312 608.7668
   610.9861 611.0274 611.1053 611.1566 611.1698 611.1869 611.2705 611.4116
   611.4863 611.4978 611.5128 611.5971 611.6866 611.6926 611.8808 611.8810
   612.6711 612.6716 612.6992 612.7162 612.7276 612.7556 612.8404 612.8974
   614.1260 614.1531 614.2473 614.2837 614.3304 614.3809 619.7615 619.7833
   619.8062 619.8221 620.9707 621.0031 621.0320 621.0330 621.0418 621.0899
   621.1492 621.1776 621.3573 621.6067 621.6716 621.7721 621.8168 621.8392
   621.9026 621.9178 622.0108 622.0342 622.0502 622.0615 622.6078 622.8778
   625.4897 625.4915 625.6560 625.6982 626.7202 626.9222 626.9437 627.0694
   629.8710 629.9082 630.1196 630.1526 630.2170 630.3562 630.3711 630.4736
   630.5706 630.6142 630.6177 631.1361 631.5095 631.6065 631.6862 631.7252
   631.7519 631.7895 631.8571 631.9164 637.1994 637.2072 637.3565 637.3588
   637.4305 637.4994 637.5873 637.6172 637.8452 637.8481 637.8508 637.8519
   638.3748 638.6251 638.6920 638.7574 639.0142 639.0463 639.1536 639.3692
   639.5264 639.5864 639.6847 639.7711 639.9078 639.9676 639.9776 640.0334
   640.0889 640.1324 640.1790 640.2519 640.7470 641.4777 641.9640 641.9681
   641.9798 641.9832 642.0736 642.0749 643.0213 643.0630 643.1816 643.2100
   643.2895 643.3028 643.4196 643.4819 644.4584 644.4735 644.4772 644.4948
   644.5477 644.6064 644.6082 644.6428 649.0931 649.1350 649.1479 649.3690
   649.4014 649.4068 649.4075 649.4453 649.4695 649.5569 649.5827 649.6826
   649.9543 649.9563 649.9808 649.9890 650.0220 650.1238 650.1634 650.2784
   652.4472 652.5512 652.5629 652.5635 652.7886 652.9068 652.9298 653.0146
   654.3869 654.4171 654.4220 654.4892 655.5827 655.6006 655.6073 655.6076
   656.7129 656.7671 656.9027 657.1975 657.3314 657.3653 657.4002 657.4098
   657.4712 657.5613 657.5731 657.6323 657.6647 657.6706 657.6763 657.7533
   660.6694 660.7239 660.7743 660.7828 664.1663 664.3802 664.4379 664.4499
   665.7053 665.7378 665.7743 665.7781 666.7399 666.7477 666.9011 666.9864
   666.9955 667.0198 667.0295 667.0336 667.3466 667.3820 667.3907 667.4421
   667.4437 667.4438 667.4527 667.4541 667.4673 667.4694 667.6265 667.6396
   670.2653 670.2958 670.3185 670.3363 670.7318 670.7472 670.7702 670.8253
   672.6310 672.7134 672.7216 672.8114 672.8737 672.8772 672.9631 673.1394
   675.7884 675.7926 675.8808 676.5837 676.7743 676.7766 676.8596 676.9020
   676.9341 676.9584 676.9659 676.9986 677.2687 677.2761 677.2863 677.3187
   677.3225 677.3679 677.3993 677.4954 677.8370 677.8672 677.8982 677.9001
   678.0384 678.1016 678.1259 678.1720 678.1782 678.2285 678.3060 678.3726
   678.6227 678.6346 678.6353 678.6637 678.9666 679.0152 679.2700 679.2893
   683.0180 683.0884 683.2045 683.2403 684.7617 684.7655 684.7854 684.7859
   685.0011 685.0114 685.0155 685.0159 686.1331 686.2095 686.2255 686.2490
   687.2483 687.2524 687.3499 687.3596 687.3939 687.4315 687.5699 687.6452
   688.4103 688.4399 688.7549 688.7617 689.0379 689.1947 689.2042 689.2495
   692.3894 692.3961 692.4104 692.4312 694.5083 694.7125 694.7223 694.7409
   694.9075 695.0493 695.1540 695.1828 695.4719 695.5396 695.6024 695.6234
   696.9190 696.9207 696.9567 697.0023 697.0228 697.1863 697.2197 697.3541
   698.0614 698.1083 698.1316 698.2286 698.8627 698.8643 698.9164 698.9441
   700.2006 700.3432 700.3442 700.3769 700.5426 700.6558 700.7526 700.7644
   701.2649 701.2961 701.3290 701.3341 701.5651 701.6369 701.6621 701.6856
   702.2149 702.2885 702.2933 702.3559 702.4081 702.4129 702.4232 702.4236
   705.9535 706.0089 706.0321 706.0412 706.8925 706.8925 707.0665 707.1267
   708.6219 708.6935 708.7074 708.7409 708.7428 708.8295 708.8788 708.9343
   708.9442 708.9610 708.9802 709.0186 709.0615 709.0939 709.2088 709.2432
   713.6618 713.6655 713.6692 713.6696 713.6741 713.6857 713.6898 713.6924
   714.4418 714.5382 714.5672 714.5800 714.6672 714.6851 714.8415 714.8988
   718.5193 718.5307 718.6162 718.6206 718.7368 718.8561 718.9090 718.9097
   718.9147 718.9316 718.9484 718.9631 719.0526 719.0950 719.0959 719.1451
   720.6144 720.6723 720.7104 720.7666 720.8108 720.8185 720.8450 720.8501
   720.9408 720.9703 720.9853 721.0553 722.6300 722.6381 722.6448 722.7616
   722.7648 722.7786 722.8761 722.9324 723.0063 723.1841 723.2358 723.3114
   723.3362 723.4399 723.4936 723.5503 723.7290 723.8175 723.8433 723.8544
   724.2629 724.2690 724.5172 724.6184 724.9017 724.9524 724.9606 724.9788
   726.1185 726.1264 727.2106 727.2424 727.2459 727.2680 727.3535 727.4155
   727.6214 727.6815 727.7230 727.8970 727.9579 727.9633 730.5639 730.5695
   730.5740 730.5760 731.4783 731.4876 731.4900 731.4905 732.0884 732.0889
   732.4844 732.4908 732.5046 732.5261 732.5755 732.5952 732.6185 732.6815
   732.7420 732.7704 732.7740 732.7779 732.8789 732.9037 733.0683 733.0981
   733.1035 733.1487 733.1709 733.2744 733.3179 733.3357 733.5321 733.5834
   733.5930 733.8478 733.8654 733.9273 733.9794 734.0896 734.3743 734.3750
   734.3985 734.4159 734.4469 734.4776 734.6204 734.6382 734.7429 734.7891
   734.9168 735.0854 735.4841 735.6576 736.1272 736.2617 736.2907 736.3205
   736.7453 736.8612 736.8931 737.1110 738.2816 738.3126 738.3739 738.4099
   741.5570 741.6095 741.6228 741.6585 741.7696 741.8237 742.0211 742.0549
   742.8530 742.8850 742.8872 742.8904 743.1354 743.1417 743.1747 743.1937
   743.1946 743.2120 743.2205 743.2384 744.0685 744.1149 744.1356 744.1405
   744.1968 744.2949 744.4200 744.4458 748.8885 748.9329 748.9924 749.0061
   749.3533 749.3670 749.3685 749.3851 749.4219 749.4671 749.5306 749.5499
   752.0232 752.0443 752.0759 752.0876 752.1013 752.1032 752.1196 752.1323
   752.2455 752.4165 752.4506 752.4666 752.6499 752.6679 752.6790 752.8431
   753.9330 754.2282 754.8982 754.9015 755.7609 755.9453 756.0047 756.0819
   756.1248 756.1304 756.1648 756.2117 760.5335 760.5435 760.5459 760.5831
   762.3439 762.3536 762.3692 762.4144 762.4381 762.4481 762.6140 762.6494

     the Fermi energy is     8.3061 ev
     (compare with:     9.1122 eV, computed in scf)

     Writing all to output data dir out/mp-252.save/
 
     init_run     :      0.05s CPU      0.06s WALL (       1 calls)
     electrons    :   4216.93s CPU   4529.10s WALL (       1 calls)

     Called by init_run:
     wfcinit      :      0.00s CPU      0.00s WALL (       1 calls)
     potinit      :      0.01s CPU      0.02s WALL (       1 calls)
     hinit0       :      0.01s CPU      0.01s WALL (       1 calls)

     Called by electrons:
     c_bands      :   4216.93s CPU   4529.08s WALL (       1 calls)
     v_of_rho     :      0.01s CPU      0.01s WALL (       1 calls)

     Called by c_bands:
     init_us_2    :      0.00s CPU      0.00s WALL (       8 calls)
     init_us_2:cp :      0.00s CPU      0.00s WALL (       8 calls)
     paro_k       :   4079.08s CPU   4380.30s WALL (       8 calls)

     Called by paro_*:
     h_psi        :     34.57s CPU     35.77s WALL (    1359 calls)
     g_psi        :      0.59s CPU      0.67s WALL (  141909 calls)

     Called by h_psi:
     h_psi:calbec :      0.61s CPU      0.64s WALL (    1359 calls)
     vloc_psi     :     33.32s CPU     34.45s WALL (    1359 calls)
     add_vuspsi   :      0.45s CPU      0.46s WALL (    1359 calls)

     General routines
     calbec       :      0.60s CPU      0.63s WALL (    1359 calls)
     fft          :      0.01s CPU      0.01s WALL (      10 calls)
     fftw         :     30.25s CPU     31.25s WALL (  233164 calls)
 
     Parallel routines
 
     PWSCF        :      1h10m CPU      1h15m WALL

 
   This run was terminated on:  20:17:33  20Dec2023            

=------------------------------------------------------------------------------=
   JOB DONE.
=------------------------------------------------------------------------------=
