
     Program PWSCF v.7.1 starts on 20Dec2023 at 17:52:35 

     This program is part of the open-source Quantum ESPRESSO suite
     for quantum simulation of materials; please cite
         "P. Giannozzi et al., J. Phys.:Condens. Matter 21 395502 (2009);
         "P. Giannozzi et al., J. Phys.:Condens. Matter 29 465901 (2017);
         "P. Giannozzi et al., J. Chem. Phys. 152 154105 (2020);
          URL http://www.quantum-espresso.org", 
     in publications or presentations arising from this work. More details at
     http://www.quantum-espresso.org/quote

     Parallel version (MPI), running on     8 processors

     MPI processes distributed on     1 nodes
     123050 MiB available memory on the printing compute node when the environment starts
 
     Reading input from pw_mp-252_nscf_k0_E90.in
Warning: card &IONS ignored
Warning: card / ignored
Warning: card &CELL ignored
Warning: card / ignored

     Current dimensions of program PWSCF are:
     Max number of different atomic species (ntypx) = 10
     Max number of k-points (npk) =  40000
     Max angular momentum in pseudopotentials (lmaxx) =  4

     Atomic positions and unit cell read from directory:
     out/mp-252.save/
     Atomic positions from file used, from input discarded
 
 
     R & G space division:  proc/nbgrp/npool/nimage =       8
     Subspace diagonalization in iterative solution of the eigenvalue problem:
     one sub-group per band group will be used
     scalapack distributed-memory algorithm (size of sub-group:  2*  2 procs)

 
     Parallelization info
     --------------------
     sticks:   dense  smooth     PW     G-vecs:    dense   smooth      PW
     Min         177     177     45                 4444     4444     558
     Max         178     178     46                 4448     4448     560
     Sum        1417    1417    361                35557    35557    4477
 
     Using Slab Decomposition
 


     bravais-lattice index     =            2
     lattice parameter (alat)  =      10.7014  a.u.
     unit-cell volume          =     306.3778 (a.u.)^3
     number of atoms/cell      =            2
     number of atomic types    =            2
     number of electrons       =        20.00
     number of Kohn-Sham states=         1672
     kinetic-energy cutoff     =      90.0000  Ry
     charge density cutoff     =     360.0000  Ry
     Exchange-correlation= PBE
                           (   1   4   3   4   0   0   0)

     celldm(1)=  10.701363  celldm(2)=   0.000000  celldm(3)=   0.000000
     celldm(4)=   0.000000  celldm(5)=   0.000000  celldm(6)=   0.000000

     crystal axes: (cart. coord. in units of alat)
               a(1) = (  -0.500000   0.000000   0.500000 )  
               a(2) = (   0.000000   0.500000   0.500000 )  
               a(3) = (  -0.500000   0.500000   0.000000 )  

     reciprocal axes: (cart. coord. in units 2 pi/alat)
               b(1) = ( -1.000000 -1.000000  1.000000 )  
               b(2) = (  1.000000  1.000000  1.000000 )  
               b(3) = ( -1.000000  1.000000 -1.000000 )  


     PseudoPot. # 1 for Be read from file:
     /usr/scratch4/magr4985/MG/HTDF/pseudo/SG15/Be.upf
     MD5 check sum: dc1f98d164da9dc61a6fd2fad64b4ce2
     Pseudo is Norm-conserving, Zval =  4.0
     Generated using ONCVPSP code by D. R. Hamann
     Using radial grid of  602 points,  4 beta functions with: 
                l(1) =   0
                l(2) =   0
                l(3) =   1
                l(4) =   1

     PseudoPot. # 2 for Te read from file:
     /usr/scratch4/magr4985/MG/HTDF/pseudo/SG15/Te.upf
     MD5 check sum: dd4de4dac1e38587f63aaf3700bb29d3
     Pseudo is Norm-conserving, Zval = 16.0
     Generated using ONCVPSP code by D. R. Hamann
     Using radial grid of  602 points,  6 beta functions with: 
                l(1) =   0
                l(2) =   0
                l(3) =   1
                l(4) =   1
                l(5) =   2
                l(6) =   2

     atomic species   valence    mass     pseudopotential
        Be             4.00     9.01220     Be( 1.00)
        Te            16.00   127.60000     Te( 1.00)

     24 Sym. Ops. (no inversion) found



   Cartesian axes

     site n.     atom                  positions (alat units)
         1           Be  tau(   1) = (   0.0000000   0.0000000   0.0000000  )
         2           Te  tau(   2) = (  -0.7500000   0.7500000   0.7500000  )

     number of k points=     1  Gaussian smearing, width (Ry)=  0.0005
                       cart. coord. in units 2pi/alat
        k(    1) = (   0.0000000   0.0000000   0.0000000), wk =   2.0000000

     Dense  grid:    35557 G-vectors     FFT dimensions: (  45,  45,  45)

     Estimated max dynamical RAM per process >     203.89 MB

     Estimated total dynamical RAM >       1.59 GB

     The potential is recalculated from file :
     out/mp-252.save/charge-density

     Starting wfcs are random

     Band Structure Calculation
     Davidson diagonalization with overlap

     ethr =  5.00E-06,  avg # of iterations =  4.0

     total cpu time spent up to now is      235.8 secs

     End of band structure calculation

          k = 0.0000 0.0000 0.0000 (  4477 PWs)   bands (ev):

   -92.4213 -28.1759 -28.1759 -28.1759 -28.1640 -28.1640  -4.1124   8.0774
     8.0774   8.0774  11.7361  11.7361  11.7361  11.8023  16.5322  18.5009
    18.5009  19.5411  19.5411  19.5411  23.2307  31.7584  31.7584  31.7584
    33.9842  33.9842  33.9842  35.8607  35.8607  35.8607  36.6783  36.6783
    43.4651  43.4651  43.4651  44.0587  46.1838  47.3399  47.3399  47.3399
    49.7040  49.7040  49.7040  50.8043  50.8043  50.8058  50.8058  50.8058
    50.8612  50.8612  50.8612  51.3586  51.3586  52.0623  52.0623  52.0623
    56.0255  56.4904  56.4904  56.4904  57.5206  57.5206  57.5206  61.6322
    62.7071  71.6864  71.6864  71.6864  74.1561  74.1561  74.3964  74.3964
    74.3964  74.9665  77.5807  77.5807  77.5807  82.9413  82.9413  82.9413
    83.8997  83.8997  84.4410  85.1170  86.8723  86.8723  86.8723  87.1268
    87.1268  87.1268  87.2777  87.2777  88.5364  88.5364  88.5364  90.7139
    90.7139  90.7139  91.4778  91.4778  91.4778  92.1948  92.1948  92.1948
    93.9186  94.2942  94.2942  94.2942  94.3176  94.3176  95.0859  95.0859
    95.0859  95.4379  95.4379  95.4379  95.6134  95.8092  95.8092 103.1003
   105.8429 105.8429 105.8429 108.2896 108.2896 108.2896 108.3339 108.3339
   108.3339 108.8906 108.8906 108.8906 109.3984 109.3984 109.3984 110.1766
   110.1766 113.1535 113.1535 113.5176 113.5176 113.5176 113.5569 116.6941
   118.5936 118.5936 118.5936 121.0363 121.0363 121.0363 123.4981 123.9938
   123.9938 123.9938 124.5708 124.5708 124.5708 124.8473 124.8473 124.8473
   125.1668 125.1668 125.1668 125.5030 125.5030 125.5039 125.5406 125.5406
   125.5406 127.3743 127.3743 128.2772 128.2772 128.2772 135.9557 135.9557
   135.9557 136.8230 136.8230 136.8230 136.9266 139.5049 144.5045 144.5045
   145.1761 145.1761 145.1761 146.9295 146.9295 146.9295 150.5685 151.8839
   151.8839 151.8839 153.3915 153.3915 153.3915 155.6925 155.6925 155.6925
   156.0808 156.0808 156.2267 156.2267 156.2267 158.9361 158.9361 158.9361
   159.0988 159.0988 159.0988 159.3611 159.3611 159.4309 160.7060 160.7060
   160.7060 160.7238 161.1527 161.1527 161.1527 162.4347 162.5404 162.5404
   162.5404 162.7552 162.7552 163.7719 163.7719 163.7719 163.8907 163.8907
   163.9714 163.9714 163.9714 164.3693 164.3693 164.3693 164.8151 165.4765
   165.4765 165.4765 166.6549 168.5821 168.5821 168.5821 168.5908 168.5908
   168.9744 168.9744 168.9744 169.0584 169.0584 169.0584 169.4344 169.4344
   169.5839 169.5839 169.5839 173.8824 173.8824 176.1256 176.1256 176.1256
   178.0406 178.0406 178.0406 178.2746 183.1670 183.1670 183.1670 183.4618
   183.4618 183.4618 183.4900 183.4900 183.4900 185.6167 185.9677 185.9677
   185.9677 186.9325 186.9325 187.0579 187.0579 187.0579 187.1202 189.6237
   189.6237 189.6237 191.0054 191.0054 191.7534 193.2650 193.2650 193.2650
   195.3483 195.3483 195.3483 195.4461 195.4461 195.4461 195.4758 195.4758
   195.4758 195.7690 195.7690 198.5951 199.9694 199.9694 199.9694 202.6630
   202.6630 203.0820 203.0820 203.0820 204.2856 204.2856 204.2856 204.4237
   204.8306 204.8306 204.8306 204.8440 204.8440 204.8440 205.3492 205.3492
   205.3492 205.5279 205.5279 209.7458 209.7458 209.7458 212.0206 212.0206
   217.9813 217.9813 217.9813 218.8490 219.1488 219.1488 219.1488 220.5319
   221.1545 221.1545 221.1545 221.7333 221.7333 221.7333 223.4602 223.4602
   224.1916 226.0045 226.0045 226.0045 227.7121 229.5817 230.5748 230.5748
   230.5748 234.1719 234.1719 234.1719 234.3252 234.3252 234.3252 234.6214
   234.6214 235.1704 235.1704 235.1704 235.5044 235.5044 235.5044 235.8196
   235.8196 235.8196 235.9283 235.9283 235.9283 235.9320 236.6670 236.6670
   236.6670 237.6865 237.6865 239.1603 239.1603 239.6891 239.9877 239.9877
   239.9877 240.0199 240.0199 240.0199 240.2475 240.2475 240.2475 242.1229
   242.1229 242.1229 242.6812 243.9367 243.9367 243.9386 243.9386 243.9386
   244.0259 244.0259 244.0259 245.9632 245.9632 245.9632 248.1432 248.8598
   248.8598 248.8598 250.4190 250.4190 251.5042 252.9376 252.9376 252.9376
   252.9389 252.9389 252.9389 253.4251 253.4251 253.4251 253.7357 253.7357
   253.7357 254.0131 254.0131 258.0738 258.0738 258.4677 258.4677 258.4677
   258.6512 258.6512 258.6512 258.9366 258.9366 258.9366 259.4410 259.4410
   259.4410 259.7647 259.7647 260.2852 260.9841 260.9841 260.9841 261.3823
   261.3823 261.3823 261.6792 264.9693 264.9693 264.9693 265.6058 266.4270
   266.4270 267.0528 267.0528 267.0528 267.2707 269.3408 269.3408 269.3408
   270.1804 270.1804 270.1804 270.2440 270.2440 270.2440 270.4684 270.4684
   270.4684 271.4116 271.4116 271.4116 271.6001 273.0617 273.0617 273.0617
   273.0668 273.0668 273.1941 273.1941 273.1941 273.3860 273.6930 273.6930
   273.8696 274.8258 274.8258 274.8258 274.8684 274.8684 274.8684 275.3246
   275.3246 275.3898 275.3898 275.3898 275.6852 275.6852 275.6868 275.6868
   275.6868 275.9586 275.9586 275.9586 276.1877 276.1877 276.1877 276.3091
   276.3091 276.3091 276.5405 276.5405 276.5405 276.9011 277.0913 277.0913
   277.0913 277.1238 277.1238 291.2315 291.2315 293.2497 293.2497 293.2497
   293.7126 298.4330 298.4330 298.4330 300.6765 300.6765 300.6765 302.1336
   302.6890 302.6890 303.8603 304.7007 304.7007 304.7007 305.2046 305.2046
   305.2046 305.4042 305.4042 305.4042 305.4136 305.4136 305.4136 306.1696
   306.1696 309.3333 309.9944 309.9944 309.9944 310.7971 310.7971 311.3036
   311.3036 311.3036 312.3425 313.1568 313.1568 313.1568 314.2896 314.6146
   314.6146 314.6146 314.7415 314.7415 314.7415 314.7580 314.7580 314.7580
   315.4260 315.4260 315.4260 317.3002 317.3002 317.6457 317.6457 317.6457
   317.9240 317.9240 317.9240 317.9561 318.2249 318.2249 318.2703 318.2703
   318.2703 318.3002 318.3002 318.3002 318.3375 318.3375 318.3375 318.4072
   318.4072 320.5107 320.5107 320.5107 321.0829 321.0829 321.8598 321.8598
   321.8598 322.0206 322.0206 322.0206 324.4167 330.8331 330.8331 330.8331
   331.9205 331.9205 332.0168 333.2673 333.2673 333.2673 333.3504 333.3504
   333.3504 333.5007 333.5007 333.5007 333.6133 333.6133 333.6133 334.5221
   334.5656 334.5656 334.5656 334.6072 334.6072 338.6783 338.6783 338.6783
   340.3933 340.6360 340.6360 340.6360 340.8501 340.8501 340.8501 340.9944
   340.9944 343.0523 343.0523 343.0523 343.2649 344.0707 344.0707 344.0707
   344.4227 344.4227 344.4299 344.5140 344.5140 344.5140 344.5709 344.5709
   344.6201 344.6201 344.6201 344.7488 344.7488 344.7488 344.8001 344.8001
   344.8001 346.2728 346.2729 346.2729 346.5871 347.3407 347.6041 347.6041
   347.6041 350.4941 350.4941 350.4941 350.5701 350.5701 350.5701 350.6132
   350.6132 350.6513 350.6513 350.6513 350.7193 353.7594 353.7594 353.7594
   354.4015 354.5821 354.5821 354.5821 354.7187 354.7187 354.9555 354.9555
   354.9555 355.9269 355.9269 355.9269 355.9567 355.9567 355.9693 355.9693
   355.9693 356.0730 356.0730 356.0730 356.0901 367.0774 367.0774 368.2878
   368.2878 368.2878 369.3442 369.3442 369.3442 369.5942 370.0576 370.0576
   370.0576 370.1017 370.1017 370.1017 370.1499 370.1499 370.1499 370.9152
   370.9678 370.9678 370.9678 370.9709 370.9709 372.7727 372.7727 372.7727
   374.0099 376.0364 376.0364 376.0364 376.3016 376.3016 376.3016 376.4170
   376.4170 376.5686 376.9943 377.8403 377.8403 377.8403 377.9512 377.9512
   377.9512 377.9518 377.9518 378.1972 378.1972 378.1972 378.4912 378.4912
   378.4912 378.9049 378.9049 383.9492 383.9492 383.9492 383.9868 383.9868
   383.9868 383.9961 383.9961 384.0931 384.0931 384.0931 384.2153 384.2153
   384.2153 384.4232 384.4232 384.8537 384.8537 384.8537 386.0582 386.1177
   386.1177 386.1177 386.1344 386.1344 386.1344 386.2879 386.2879 386.2879
   386.5046 386.5604 386.5604 386.5604 386.6682 386.7037 386.7037 386.7037
   386.7131 386.7131 386.7131 387.9919 387.9919 388.6105 388.6105 388.6105
   388.8378 390.1223 390.4687 390.4687 390.4687 390.9375 390.9375 390.9375
   390.9629 390.9629 390.9629 390.9789 390.9789 391.1638 391.1638 391.1638
   391.2128 391.2128 391.2128 391.5419 391.5419 392.8110 392.8110 392.9538
   392.9538 392.9538 393.2290 393.2290 393.2290 393.2816 393.3576 393.3576
   393.3576 393.3951 393.3951 393.3951 393.6505 393.6505 393.6540 393.6540
   393.6540 393.8917 393.8917 393.8917 394.0252 403.3765 403.3765 403.3765
   404.2560 404.5310 404.7555 404.7555 404.7555 410.7529 410.7529 410.7529
   410.7879 410.7879 410.7944 410.7944 410.7944 410.8011 410.8011 410.8011
   410.8138 410.8138 410.8138 410.8303 410.8303 416.7400 416.7400 416.9999
   416.9999 416.9999 417.4691 418.4975 418.4975 418.4975 418.7200 418.7200
   418.7200 418.7950 418.7950 418.7950 418.8245 418.8245 418.8245 421.4426
   421.4426 421.4426 422.3293 422.3293 422.3471 422.3471 422.3471 422.3728
   422.6643 423.7047 423.7047 425.4753 425.4753 425.4753 425.5141 425.5141
   425.5141 425.5931 425.5931 425.5931 425.7144 425.7144 425.7144 426.6086
   426.6086 426.6144 426.6144 426.6144 426.6305 439.4774 439.4774 439.4774
   440.0201 440.0201 440.0201 440.4195 441.0620 441.2905 441.2905 441.3810
   441.3810 441.3810 441.9257 441.9257 441.9257 442.2299 442.2299 442.2299
   442.2817 442.2817 442.2817 442.2883 442.2883 444.1338 444.1338 444.1338
   444.2847 444.2847 444.2847 444.4546 444.4546 444.8144 444.8144 444.8144
   445.4750 453.4403 453.4403 453.4403 455.4746 455.7988 455.8935 455.8935
   455.8935 457.9065 457.9065 457.9065 458.3813 458.3813 458.7022 458.7022
   458.7022 459.2195 459.2195 459.2195 459.3887 459.3887 459.4467 459.6715
   459.6715 459.6715 459.7423 459.7844 459.7844 459.7844 459.8136 459.8136
   459.8136 460.2373 460.2373 460.2373 460.4771 460.4771 460.4771 460.5919
   460.5919 460.8589 460.8589 460.8589 460.9952 462.2213 462.2213 462.3994
   462.3994 462.3994 462.7935 462.7935 462.7935 462.8275 462.8303 462.8303
   462.8396 462.8396 462.8396 462.8696 462.8696 462.8696 462.9870 462.9870
   462.9870 463.1015 463.1015 463.8632 464.1160 464.1160 464.1160 464.3395
   464.3395 464.3395 464.5426 464.5426 464.5426 464.5715 464.5715 468.6288
   468.6288 468.6288 468.9530 468.9530 468.9530 468.9693 468.9693 469.0537
   469.0999 469.0999 469.0999 476.4399 476.4399 476.4399 478.2104 478.2104
   478.2274 478.2274 478.2274 478.3614 478.6090 478.6090 478.6090 478.6668
   478.6668 478.6668 478.8397 478.8397 479.0011 479.4227 479.4227 479.4227
   479.4262 479.4262 479.5085 479.5085 479.5085 479.7401 479.7401 479.7401
   479.8189 481.5611 481.5611 481.5611 481.8216 481.8216 481.8216 482.0085
   482.0085 482.0085 482.2550 482.6509 482.6509 482.9337 482.9337 482.9337
   483.4592 483.4592 483.4592 483.5413 483.5413 483.5413 483.8160 483.8160
   483.8160 484.3110 484.3110 484.3180 484.3180 484.3180 484.3707 484.3707
   484.3707 484.4099 484.4099 484.4099 484.4628 486.6493 486.6493 486.7074
   486.7074 486.7074 486.8083 494.0326 494.0326 494.0326 495.1202 495.4002
   495.4002 495.4002 495.4783 495.4783 495.4783 495.5293 495.5293 495.8438
   495.8438 495.8438 496.1152 496.1152 496.1152 496.1510 496.1510 496.1963
   496.1963 496.1963 496.2973 496.2973 496.2973 496.4315 497.5352 497.9228
   498.1226 498.1226 498.1226 498.1767 498.1767 498.1767 498.2568 498.2568
   498.4806 498.4806 498.4806 498.7373 498.7373 498.7373 499.1486 499.1486
   499.1781 499.1781 499.1781 499.9212 499.9212 499.9212 500.1081 500.1081
   500.1081 500.2152 500.2962 500.2962 500.2962 500.3338 500.3338 500.3504
   500.3504 500.3504 500.5043 500.7807 500.7807 500.7807 500.9663 500.9663
   500.9663 501.0161 501.0161 501.7108 501.7108 501.7108 501.9538 502.4243
   502.4243 502.4243 502.5278 502.5278 502.5278 502.5736 502.5736 502.6486
   502.7174 502.7174 502.7174 502.7549 502.7549 502.7549 502.7839 502.7839
   502.7839 502.8238 503.1194 503.1194 503.1194 503.4460 503.4460 503.4460
   503.5583 503.5686 503.5686 525.1883 525.1883 525.1883 526.0502 526.2091
   526.2091 526.2091 526.4587 526.7539 526.7539 526.8440 526.8440 526.8440
   526.9137 526.9137 526.9137 527.0054 527.0054 527.0054 527.0644 527.0644
   527.0644 527.4927 527.4927 533.6541 533.6541 533.7196 533.7196 533.7196
   533.7643 533.7643 533.7643 533.8374 533.8374 533.8374 533.8954 533.8954
   533.8954 533.9827 533.9827 534.4006 534.6199 534.6199 534.6199 534.8173
   534.8173 534.8173 535.0096 536.7106 536.7106 536.7106 537.1901 537.8552
   537.8552 537.8552 538.4035 538.4035 538.7394 538.7394 538.7394 538.8367
   538.8519 538.8519 538.8519 539.1643 539.1643 539.1643 539.2658 539.2658
   539.2658 539.5070 539.5070 539.6615 539.6615 539.6615 539.7813 540.0324
   540.0324 540.0324 540.5582 540.5582 540.6888 540.6888 540.6888 540.6914
   540.7703 540.7703 540.7703 541.2106 541.2106 541.2106 541.2421 541.2421
   541.2421 541.5446 541.5446 543.5081 543.5081 543.5081 543.5140 543.5140
   543.5140 543.5201 543.5201 543.5375 543.5375 543.5375 543.5730 543.5730
   543.5730 543.5892 543.5892 544.6655 544.6717 544.6717 544.6717 544.6835
   544.6835 544.6835 544.7006 554.8452 554.8452 554.8452 556.2809 556.4262
   556.4262 556.4262 556.5202 556.5202 556.5202 556.5259 556.5259 556.6096
   556.6096 556.6096 556.8351 556.8351 556.8351 557.1314 557.1314 557.1314
   557.1441 557.1441 557.1776 560.2367 560.2367 560.2428 560.2428 560.2428
   560.2525 560.8337 560.8337 560.8337 560.8537 560.8537 560.8537 560.8674
   560.8674 560.8674 560.8709 560.8709 560.8709 561.3271 561.3271 561.3319
   561.3319 561.3319 561.3415 563.7229 563.7229 563.7229 563.8409 563.8514
   563.8514 567.1788 567.1788 567.1788 568.0374 568.0940 568.2439 568.2439
   568.2439 574.1249 574.1249 574.1249 574.1338 574.1338 574.1338 574.1522
   574.1522 574.1522 574.1603 574.1603 574.1603 574.5117 574.5117 574.5311
   574.5311 574.5311 574.5325 574.5325 574.5325 574.5880 574.5880 574.5880
   574.6014 574.6014 574.6326 574.6326 574.6326 575.0427 575.0427 575.0427
   575.4832 575.9033 575.9033 583.2457 583.2457 583.2457 583.2682 583.2682
   583.2682 583.3242 583.3419 583.3419 583.3977 583.3977 583.3977 601.3971
   601.3971 601.3971 602.0532 602.1728 602.1728 602.2702 602.2702 602.2702
   602.5736 602.5736 602.5736 602.6522 602.6522 602.6522 603.1143 603.1143
   603.1834 603.3954 603.3954 603.3954 603.8706 603.8706 603.8706 604.0955
   604.0955 604.0955 604.2598 604.2598 604.2598 605.0489 605.0489 605.1177
   605.1177 605.1177 605.3270 606.0622 606.0622 606.0784 606.0784 606.0784
   606.1574 606.1613 606.1613 606.1613 606.3222 606.3222 606.3222 606.5353
   606.5353 606.5353 606.5484 606.5484 606.5484 606.5857 606.9022 606.9022
   606.9330 606.9330 606.9330 607.4554 607.4554 607.4554 607.5110 607.5110
   607.5110 607.5761 607.5761 607.6074 607.6074 607.6074 607.6872 607.6872
   607.6872 608.0074 608.0074 608.0074 608.3226 609.8020 609.8020 609.9211
   609.9211 609.9211 610.1188 610.3435 610.3435 610.3435 610.6956 611.1177
   611.1177 612.9951 612.9951 612.9951 613.0284 613.0284 613.0284 613.0955
   613.0955 613.0955 613.1105 613.1105 613.1105 613.1301 613.1493 613.1493
   613.1493 613.1685 613.1685 613.1685 613.2352 613.2352 613.2352 613.4032
   613.4032 614.1072 614.1144 614.1144 614.1144 614.1196 614.1196 616.1586
   616.1586 616.1586 616.5998 616.6328 616.6328 616.6328 616.8025 616.8025
   616.8025 616.8134 616.8134 616.8281 616.8281 616.8281 616.9543 616.9721
   616.9721 616.9721 616.9885 616.9885 616.9885 617.0366 617.0366 617.2099
   617.2099 617.2099 617.6016 617.6016 617.6016 617.8936 617.8936 618.0480
   618.0480 618.0480 618.4810 618.5182 618.5182 618.5189 618.5189 618.5189
   618.5395 618.5395 618.5395 618.6555 618.6555 618.6555 618.6621 628.1464
   628.1464 628.1464 628.8517 628.9306 628.9644 628.9644 628.9644 633.1594
   633.1594 633.1594 633.1604 633.1859 633.1859 633.1859 633.1939 633.1939
   633.1956 633.1956 633.1956 633.2294 633.2294 633.2294 633.3551 633.3552
   633.3552 633.3965 633.3965 633.3983 633.3983 633.3983 633.5194 635.4210

     the Fermi energy is     9.8866 ev
     (compare with:     9.8866 eV, computed in scf)

     Writing all to output data dir out/mp-252.save/
 
     init_run     :      0.06s CPU      0.06s WALL (       1 calls)
     electrons    :    219.52s CPU    235.58s WALL (       1 calls)

     Called by init_run:
     wfcinit      :      0.00s CPU      0.00s WALL (       1 calls)
     potinit      :      0.01s CPU      0.02s WALL (       1 calls)
     hinit0       :      0.01s CPU      0.02s WALL (       1 calls)

     Called by electrons:
     c_bands      :    219.52s CPU    235.58s WALL (       1 calls)
     v_of_rho     :      0.01s CPU      0.01s WALL (       1 calls)

     Called by c_bands:
     init_us_2    :      0.00s CPU      0.00s WALL (       1 calls)
     init_us_2:cp :      0.00s CPU      0.00s WALL (       1 calls)
     cegterg      :    212.77s CPU    228.29s WALL (       1 calls)

     Called by *egterg:
     cdiaghg      :    202.71s CPU    218.18s WALL (       5 calls)
     h_psi        :      2.63s CPU      2.73s WALL (       6 calls)
     g_psi        :      0.02s CPU      0.02s WALL (       4 calls)

     Called by h_psi:
     h_psi:calbec :      0.05s CPU      0.05s WALL (       6 calls)
     vloc_psi     :      2.53s CPU      2.62s WALL (       6 calls)
     add_vuspsi   :      0.03s CPU      0.04s WALL (       6 calls)

     General routines
     calbec       :      0.05s CPU      0.05s WALL (       6 calls)
     fft          :      0.01s CPU      0.01s WALL (      10 calls)
     fftw         :      2.29s CPU      2.37s WALL (   18214 calls)
 
     Parallel routines
 
     PWSCF        :   3m39.83s CPU   3m56.01s WALL

 
   This run was terminated on:  17:56:31  20Dec2023            

=------------------------------------------------------------------------------=
   JOB DONE.
=------------------------------------------------------------------------------=
