
     Program PWSCF v.7.1 starts on 22Dec2023 at  5:20:19 

     This program is part of the open-source Quantum ESPRESSO suite
     for quantum simulation of materials; please cite
         "P. Giannozzi et al., J. Phys.:Condens. Matter 21 395502 (2009);
         "P. Giannozzi et al., J. Phys.:Condens. Matter 29 465901 (2017);
         "P. Giannozzi et al., J. Chem. Phys. 152 154105 (2020);
          URL http://www.quantum-espresso.org", 
     in publications or presentations arising from this work. More details at
     http://www.quantum-espresso.org/quote

     Parallel version (MPI), running on     8 processors

     MPI processes distributed on     1 nodes
     123210 MiB available memory on the printing compute node when the environment starts
 
     Reading input from pw_mp-252_nscf_k10_E80.in
Warning: card &IONS ignored
Warning: card / ignored
Warning: card &CELL ignored
Warning: card / ignored

     Current dimensions of program PWSCF are:
     Max number of different atomic species (ntypx) = 10
     Max number of k-points (npk) =  40000
     Max angular momentum in pseudopotentials (lmaxx) =  4

     Atomic positions and unit cell read from directory:
     out/mp-252.save/
     Atomic positions from file used, from input discarded
 
 
     R & G space division:  proc/nbgrp/npool/nimage =       8
     Subspace diagonalization in iterative solution of the eigenvalue problem:
     one sub-group per band group will be used
     scalapack distributed-memory algorithm (size of sub-group:  2*  2 procs)

 
     Parallelization info
     --------------------
     sticks:   dense  smooth     PW     G-vecs:    dense   smooth      PW
     Min         157     157     45                 3701     3701     558
     Max         158     158     46                 3705     3705     560
     Sum        1261    1261    361                29627    29627    4477
 
     Using Slab Decomposition
 


     bravais-lattice index     =            2
     lattice parameter (alat)  =      10.7014  a.u.
     unit-cell volume          =     306.3778 (a.u.)^3
     number of atoms/cell      =            2
     number of atomic types    =            2
     number of electrons       =        20.00
     number of Kohn-Sham states=         1200
     kinetic-energy cutoff     =      80.0000  Ry
     charge density cutoff     =     320.0000  Ry
     Exchange-correlation= PBE
                           (   1   4   3   4   0   0   0)

     celldm(1)=  10.701363  celldm(2)=   0.000000  celldm(3)=   0.000000
     celldm(4)=   0.000000  celldm(5)=   0.000000  celldm(6)=   0.000000

     crystal axes: (cart. coord. in units of alat)
               a(1) = (  -0.500000   0.000000   0.500000 )  
               a(2) = (   0.000000   0.500000   0.500000 )  
               a(3) = (  -0.500000   0.500000   0.000000 )  

     reciprocal axes: (cart. coord. in units 2 pi/alat)
               b(1) = ( -1.000000 -1.000000  1.000000 )  
               b(2) = (  1.000000  1.000000  1.000000 )  
               b(3) = ( -1.000000  1.000000 -1.000000 )  


     PseudoPot. # 1 for Be read from file:
     /usr/scratch4/magr4985/MG/HTDF/pseudo/SG15/Be.upf
     MD5 check sum: dc1f98d164da9dc61a6fd2fad64b4ce2
     Pseudo is Norm-conserving, Zval =  4.0
     Generated using ONCVPSP code by D. R. Hamann
     Using radial grid of  602 points,  4 beta functions with: 
                l(1) =   0
                l(2) =   0
                l(3) =   1
                l(4) =   1

     PseudoPot. # 2 for Te read from file:
     /usr/scratch4/magr4985/MG/HTDF/pseudo/SG15/Te.upf
     MD5 check sum: dd4de4dac1e38587f63aaf3700bb29d3
     Pseudo is Norm-conserving, Zval = 16.0
     Generated using ONCVPSP code by D. R. Hamann
     Using radial grid of  602 points,  6 beta functions with: 
                l(1) =   0
                l(2) =   0
                l(3) =   1
                l(4) =   1
                l(5) =   2
                l(6) =   2

     atomic species   valence    mass     pseudopotential
        Be             4.00     9.01220     Be( 1.00)
        Te            16.00   127.60000     Te( 1.00)

     24 Sym. Ops. (no inversion) found



   Cartesian axes

     site n.     atom                  positions (alat units)
         1           Be  tau(   1) = (   0.0000000   0.0000000   0.0000000  )
         2           Te  tau(   2) = (  -0.7500000   0.7500000   0.7500000  )

     number of k points=     3  Gaussian smearing, width (Ry)=  0.0005
                       cart. coord. in units 2pi/alat
        k(    1) = (   0.0000000   0.0000000   0.0000000), wk =   0.2500000
        k(    2) = (   0.5000000  -0.5000000   0.5000000), wk =   1.0000000
        k(    3) = (   0.0000000  -1.0000000   0.0000000), wk =   0.7500000

     Dense  grid:    29627 G-vectors     FFT dimensions: (  45,  45,  45)

     Estimated max dynamical RAM per process >     138.56 MB

     Estimated total dynamical RAM >       1.08 GB

     The potential is recalculated from file :
     out/mp-252.save/charge-density

     Starting wfcs are random

     Band Structure Calculation
     Davidson diagonalization with overlap

     ethr =  5.00E-06,  avg # of iterations = 10.3

     total cpu time spent up to now is      390.0 secs

     End of band structure calculation

          k = 0.0000 0.0000 0.0000 (  3719 PWs)   bands (ev):

   -92.4213 -28.1759 -28.1759 -28.1759 -28.1639 -28.1639  -4.1124   8.0774
     8.0774   8.0774  11.7361  11.7361  11.7361  11.8023  16.5322  18.5010
    18.5010  19.5411  19.5411  19.5411  23.2307  31.7584  31.7584  31.7584
    33.9842  33.9842  33.9842  35.8608  35.8608  35.8608  36.6783  36.6783
    43.4651  43.4651  43.4651  44.0587  46.1838  47.3400  47.3400  47.3400
    49.7040  49.7040  49.7040  50.8045  50.8045  50.8058  50.8058  50.8058
    50.8613  50.8613  50.8613  51.3586  51.3586  52.0623  52.0623  52.0623
    56.0255  56.4905  56.4905  56.4905  57.5206  57.5206  57.5206  61.6322
    62.7072  71.6865  71.6865  71.6865  74.1563  74.1563  74.3964  74.3964
    74.3964  74.9665  77.5810  77.5810  77.5810  82.9418  82.9418  82.9418
    83.8997  83.8997  84.4410  85.1167  86.8724  86.8724  86.8724  87.1269
    87.1269  87.1269  87.2781  87.2781  88.5365  88.5365  88.5365  90.7139
    90.7139  90.7139  91.4780  91.4780  91.4780  92.1948  92.1948  92.1948
    93.9186  94.2943  94.2943  94.2943  94.3178  94.3178  95.0860  95.0860
    95.0860  95.4379  95.4379  95.4379  95.6134  95.8094  95.8094 103.1004
   105.8431 105.8431 105.8431 108.2897 108.2897 108.2897 108.3340 108.3340
   108.3340 108.8906 108.8906 108.8906 109.3985 109.3985 109.3985 110.1766
   110.1766 113.1539 113.1539 113.5181 113.5181 113.5181 113.5570 116.6941
   118.5937 118.5937 118.5937 121.0364 121.0364 121.0364 123.4982 123.9941
   123.9941 123.9941 124.5708 124.5708 124.5708 124.8474 124.8474 124.8474
   125.1670 125.1670 125.1670 125.5039 125.5039 125.5039 125.5407 125.5407
   125.5407 127.3743 127.3743 128.2773 128.2773 128.2773 135.9558 135.9558
   135.9558 136.8230 136.8230 136.8230 136.9268 139.5050 144.5047 144.5047
   145.1765 145.1765 145.1765 146.9306 146.9306 146.9306 150.5687 151.8840
   151.8840 151.8840 153.3920 153.3920 153.3920 155.6926 155.6926 155.6926
   156.0822 156.0822 156.2268 156.2268 156.2268 158.9363 158.9363 158.9363
   159.0989 159.0989 159.0989 159.3611 159.3611 159.4309 160.7060 160.7060
   160.7060 160.7238 161.1529 161.1529 161.1529 162.4348 162.5406 162.5406
   162.5406 162.7555 162.7555 163.7719 163.7719 163.7719 163.8908 163.8908
   163.9717 163.9717 163.9717 164.3693 164.3693 164.3693 164.8151 165.4778
   165.4778 165.4778 166.6551 168.5823 168.5823 168.5823 168.5914 168.5914
   168.9745 168.9745 168.9745 169.0585 169.0585 169.0585 169.4344 169.4344
   169.5839 169.5839 169.5839 173.8829 173.8829 176.1259 176.1259 176.1259
   178.0409 178.0409 178.0409 178.2748 183.1672 183.1672 183.1672 183.4618
   183.4618 183.4618 183.4901 183.4901 183.4901 185.6170 185.9677 185.9677
   185.9677 186.9326 186.9326 187.0579 187.0579 187.0579 187.1202 189.6247
   189.6247 189.6247 191.0072 191.0072 191.7539 193.2653 193.2653 193.2653
   195.3485 195.3485 195.3485 195.4463 195.4463 195.4463 195.4759 195.4759
   195.4759 195.7694 195.7694 198.5955 199.9696 199.9696 199.9696 202.6634
   202.6634 203.0828 203.0828 203.0828 204.2861 204.2861 204.2861 204.4238
   204.8307 204.8307 204.8307 204.8442 204.8442 204.8442 205.3492 205.3492
   205.3492 205.5281 205.5281 209.7460 209.7460 209.7460 212.0209 212.0209
   217.9815 217.9815 217.9815 218.8495 219.1489 219.1489 219.1489 220.5323
   221.1549 221.1549 221.1549 221.7339 221.7339 221.7339 223.4604 223.4604
   224.1919 226.0045 226.0045 226.0045 227.7121 229.5826 230.5749 230.5749
   230.5749 234.1733 234.1733 234.1733 234.3260 234.3260 234.3260 234.6224
   234.6224 235.1710 235.1710 235.1710 235.5046 235.5046 235.5046 235.8197
   235.8197 235.8197 235.9290 235.9290 235.9290 235.9321 236.6675 236.6675
   236.6675 237.6895 237.6895 239.1603 239.1603 239.6891 239.9877 239.9877
   239.9877 240.0199 240.0199 240.0199 240.2476 240.2476 240.2476 242.1232
   242.1232 242.1232 242.6815 243.9369 243.9369 243.9392 243.9392 243.9392
   244.0262 244.0262 244.0262 245.9637 245.9637 245.9637 248.1435 248.8611
   248.8611 248.8611 250.4211 250.4211 251.5051 252.9385 252.9385 252.9385
   252.9394 252.9394 252.9394 253.4254 253.4254 253.4254 253.7360 253.7360
   253.7360 254.0131 254.0131 258.0739 258.0739 258.4679 258.4679 258.4679
   258.6513 258.6513 258.6513 258.9366 258.9366 258.9366 259.4410 259.4410
   259.4410 259.7649 259.7649 260.2852 260.9841 260.9841 260.9841 261.3823
   261.3823 261.3823 261.6792 264.9694 264.9694 264.9694 265.6073 266.4276
   266.4276 267.0559 267.0559 267.0559 267.2716 269.3420 269.3420 269.3420
   270.1806 270.1806 270.1806 270.2441 270.2441 270.2441 270.4688 270.4688
   270.4688 271.4117 271.4117 271.4117 271.6005 273.0624 273.0624 273.0624
   273.0669 273.0669 273.1941 273.1941 273.1941 273.3860 273.6966 273.6966
   273.8697 274.8264 274.8264 274.8264 274.8690 274.8690 274.8690 275.3246
   275.3246 275.3900 275.3900 275.3900 275.6855 275.6855 275.6868 275.6868
   275.6868 275.9586 275.9586 275.9586 276.1878 276.1878 276.1878 276.3092
   276.3092 276.3092 276.5408 276.5408 276.5408 276.9011 277.0914 277.0914
   277.0914 277.1239 277.1239 291.2317 291.2317 293.2500 293.2500 293.2500
   293.7128 298.4339 298.4339 298.4339 300.6769 300.6769 300.6769 302.1351
   302.6902 302.6902 303.8614 304.7020 304.7020 304.7020 305.2048 305.2048
   305.2048 305.4043 305.4043 305.4043 305.4141 305.4141 305.4141 306.1717
   306.1717 309.3338 309.9951 309.9951 309.9951 310.7980 310.7980 311.3044
   311.3044 311.3044 312.3437 313.1579 313.1579 313.1579 314.2909 314.6148
   314.6148 314.6148 314.7416 314.7416 314.7416 314.7581 314.7581 314.7581
   315.4271 315.4271 315.4271 317.3002 317.3002 317.6457 317.6457 317.6457
   317.9244 317.9244 317.9244 317.9561 318.2250 318.2250 318.2704 318.2704
   318.2704 318.3004 318.3004 318.3004 318.3379 318.3379 318.3379 318.4082
   318.4082 320.5117 320.5117 320.5117 321.0838 321.0838 321.8606 321.8606
   321.8606 322.0210 322.0210 322.0210 324.4173 330.8342 330.8342 330.8342
   331.9240 331.9240 332.0183 333.2674 333.2674 333.2674 333.3510 333.3510
   333.3510 333.5013 333.5013 333.5013 333.6139 333.6139 333.6139 334.5222
   334.5657 334.5657 334.5657 334.6072 334.6072 338.6789 338.6789 338.6789
   340.3951 340.6386 340.6386 340.6386 340.8534 340.8534 340.8534 340.9973
   340.9973 343.0528 343.0528 343.0528 343.2657 344.0713 344.0713 344.0713
   344.4228 344.4228 344.4300 344.5141 344.5141 344.5141 344.5710 344.5710
   344.6201 344.6201 344.6201 344.7490 344.7490 344.7490 344.8003 344.8003
   344.8003 346.2734 346.2734 346.2734 346.5883 347.3423 347.6071 347.6071
   347.6071 350.4946 350.4946 350.4946 350.5702 350.5702 350.5702 350.6138
   350.6138 350.6513 350.6513 350.6513 350.7194 353.7596 353.7596 353.7596
   354.4025 354.5840 354.5840 354.5840 354.7204 354.7204 354.9578 354.9578
   354.9578 355.9270 355.9270 355.9270 355.9567 355.9567 355.9696 355.9696
   355.9696 356.0735 356.0735 356.0735 356.0906 367.0784 367.0784 368.2887
   368.2887 368.2887 369.3454 369.3454 369.3454 369.5956 370.0585 370.0585
   370.0585 370.1021 370.1021 370.1021 370.1506 370.1506 370.1506 370.9155
   370.9680 370.9680 370.9680 370.9712 370.9712 372.7734 372.7734 372.7734
   374.0139 376.0399 376.0399 376.0399 376.3031 376.3031 376.3031 376.4192
   376.4192 376.5705 376.9956 377.8415 377.8415 377.8415 377.9534 377.9534
   377.9534 377.9539 377.9539 378.1978 378.1978 378.1978 378.4923 378.4923
   378.4923 378.9065 378.9065 383.9497 383.9497 383.9497 383.9876 383.9876
   383.9876 383.9964 383.9964 384.0933 384.0933 384.0933 384.2156 384.2156
   384.2156 384.4236 384.4236 384.8543 384.8543 384.8543 386.0585 386.1189
   386.1189 386.1189 386.1345 386.1345 386.1345 386.2880 386.2880 386.2880
   386.5048 386.5605 386.5605 386.5605 386.6716 386.7038 386.7038 386.7038
   386.7138 386.7138 386.7138 387.9955 387.9955 388.6116 388.6116 388.6116
   388.8407 390.1242 390.4727 390.4727 390.4727 390.9388 390.9388 390.9388
   390.9639 390.9639 390.9639 390.9805 390.9805 391.1647 391.1647 391.1647
   391.2142 391.2142 391.2142 391.5453 391.5453 392.8112 392.8112 392.9540
   392.9540 392.9540 393.2292 393.2292 393.2292 393.2818 393.3578 393.3578
   393.3578 393.3952 393.3952 393.3952 393.6504 393.6504 393.6541 393.6541
   393.6541 393.8917 393.8917 393.8917 394.0253 403.3785 403.3785 403.3785
   404.2593 404.5353 404.7607 404.7607 404.7607 410.7531 410.7531 410.7531
   410.7880 410.7880 410.7946 410.7946 410.7946 410.8015 410.8015 410.8015
   410.8145 410.8145 410.8145 410.8308 410.8308 416.7422 416.7422 417.0022
   417.0022 417.0022 417.4717 418.4988 418.4988 418.4988 418.7213 418.7213
   418.7213 418.7964 418.7964 418.7964 418.8263 418.8263 418.8263 421.4449
   421.4449 421.4449 422.3297 422.3297 422.3476 422.3476 422.3476 422.3733
   422.6683 423.7122 423.7122 425.4761 425.4761 425.4761 425.5142 425.5142
   425.5142 425.5940 425.5940 425.5940 425.7157 425.7157 425.7157 426.6088
   426.6088 426.6145 426.6145 426.6145 426.6307 439.4824 439.4824 439.4824
   440.0264 440.0264 440.0264 440.4264 441.0669 441.2955 441.2955 441.3854
   441.3854 441.3854 441.9281 441.9281 441.9281 442.2326 442.2326 442.2326
   442.2835 442.2835 442.2835 442.2901 442.2901 444.1377 444.1377 444.1377
   444.2886 444.2886 444.2886 444.4589 444.4589 444.8188 444.8188 444.8188
   445.4797 453.4436 453.4436 453.4436 455.4793 455.8049 455.8981 455.8981
   455.8981 457.9084 457.9084 457.9084 458.3852 458.3852 458.7060 458.7060
   458.7060 459.2232 459.2232 459.2232 459.3913 459.3913 459.4513 459.6728
   459.6728 459.6728 459.7497 459.7873 459.7873 459.7873 459.8183 459.8183
   459.8183 460.2440 460.2440 460.2440 460.4784 460.4784 460.4784 460.5977
   460.5977 460.8597 460.8597 460.8597 460.9959 462.2228 462.2228 462.4005
   462.4005 462.4005 462.7940 462.7940 462.7940 462.8290 462.8307 462.8307
   462.8406 462.8406 462.8406 462.8706 462.8706 462.8706 462.9877 462.9877
   462.9877 463.1024 463.1024 463.8644 464.1171 464.1171 464.1171 464.3402
   464.3402 464.3402 464.5432 464.5432 464.5432 464.5725 464.5725 468.6293
   468.6293 468.6293 468.9541 468.9541 468.9541 468.9703 468.9703 469.0552
   469.1018 469.1018 469.1018 476.4456 476.4456 476.4456 478.2142 478.2142
   478.2342 478.2342 478.2342 478.3728 478.6167 478.6167 478.6167 478.6721
   478.6721 478.6721 478.8529 478.8529 479.0069 479.4248 479.4248 479.4248
   479.4281 479.4281 479.5117 479.5117 479.5117 479.7453 479.7453 479.7453
   479.8231 481.5642 481.5642 481.5642 481.8243 481.8243 481.8243 482.0113
   482.0113 482.0113 482.2563 482.6529 482.6529 482.9357 482.9357 482.9357
   483.4604 483.4604 483.4604 483.5424 483.5424 483.5424 483.8169 483.8169
   483.8169 484.3116 484.3116 484.3186 484.3186 484.3186 484.3714 484.3714
   484.3714 484.4105 484.4105 484.4105 484.4629 486.6496 486.6496 486.7078
   486.7078 486.7078 486.8087 494.0377 494.0377 494.0377 495.1249 495.4035
   495.4035 495.4035 495.4807 495.4807 495.4807 495.5319 495.5319 495.8467
   495.8467 495.8467 496.1175 496.1175 496.1175 496.1538 496.1538 496.1990
   496.1990 496.1990 496.2991 496.2991 496.2991 496.4332 497.5428 497.9278
   498.1282 498.1282 498.1282 498.1802 498.1802 498.1802 498.2598 498.2598
   498.4844 498.4844 498.4844 498.7391 498.7391 498.7391 499.1500 499.1500
   499.1794 499.1794 499.1794 499.9239 499.9239 499.9239 500.1089 500.1089
   500.1089 500.2193 500.2972 500.2972 500.2972 500.3373 500.3373 500.3516

          k = 0.5000-0.5000 0.5000 (  3708 PWs)   bands (ev):

   -92.4213 -28.1740 -28.1734 -28.1734 -28.1631 -28.1631  -2.8152   2.6539
     6.9774   6.9774  11.1397  12.7107  12.7107  16.0161  19.0541  19.7414
    19.7414  20.4128  21.5132  21.5132  27.2987  29.4227  29.4227  30.6302
    31.2938  31.2938  33.6630  34.5051  34.5051  35.0107  35.1022  37.9642
    37.9642  40.6399  40.6399  41.3090  41.3090  42.1968  42.4482  43.7103
    45.4965  47.4315  47.4315  49.6596  49.6596  51.1187  53.1271  53.6024
    53.6024  56.6138  56.6138  57.5766  58.1941  58.1941  59.5265  60.0566
    60.0566  63.2629  63.2629  63.4856  64.5905  64.5905  65.4549  66.1786
    66.1786  66.2282  67.6453  67.8347  68.3393  68.3393  69.9809  70.6460
    70.6460  71.4142  71.4142  74.2158  74.7423  74.7423  75.6362  76.9469
    76.9469  77.4228  79.8781  80.6554  80.6554  83.3345  83.3345  83.5726
    84.9099  85.9714  86.7317  86.7317  88.0036  88.0036  88.0847  88.4862
    90.0920  90.0920  92.1144  92.7652  93.3108  93.3108  93.3456  94.8424
    94.8424  95.0624  95.3514  95.9044  96.1189  96.1189  96.8093  96.8093
    98.3783  98.3783 101.1727 102.4196 102.4196 104.2180 104.2180 105.0106
   105.1063 105.1063 105.3011 105.7436 106.0916 106.0916 106.5712 106.5712
   107.5025 108.9294 109.4348 110.3207 110.3207 112.0863 112.2415 112.2415
   114.0502 114.0502 114.6859 114.9491 114.9491 115.8704 117.0458 117.0458
   117.7010 117.7010 119.2561 120.0228 120.0228 121.1443 121.1443 122.0068
   123.2063 123.2381 123.2381 123.2825 125.2611 125.5632 126.7083 126.7083
   127.4782 127.5426 127.5426 127.9389 127.9389 129.7327 130.2906 130.2906
   131.1643 132.9181 132.9181 133.7082 133.7082 135.5400 135.9882 135.9882
   136.7621 137.5319 137.9508 138.9214 138.9214 139.2858 139.4642 139.4642
   140.9021 140.9021 141.0102 141.7961 143.9040 143.9040 145.8948 145.8948
   146.7729 147.9422 148.6666 148.6666 149.4685 149.4685 149.9637 150.0343
   150.0343 150.3421 150.5804 150.5804 150.7598 150.7598 151.5208 151.5208
   151.6566 152.2820 152.9847 152.9847 153.2183 154.7443 154.7443 155.0627
   155.3087 157.0114 157.0114 157.6731 159.2727 159.2727 159.2786 159.8913
   159.8913 160.4343 160.4343 161.2464 161.4578 161.4578 162.9072 164.0818
   164.0818 164.9685 166.6267 166.6267 166.8877 167.8762 168.6244 168.6244
   169.3964 170.1199 170.3903 170.3903 170.5032 170.5032 170.7409 170.9169
   171.8069 171.8069 173.0394 173.8280 173.9555 173.9555 174.7858 174.8501
   174.8501 175.5138 176.1768 176.1768 177.5909 178.9595 178.9595 179.4328
   180.1816 180.1816 181.9001 181.9001 182.4083 182.4083 182.5656 182.6982
   184.7628 184.7628 185.9592 187.8172 188.9905 188.9905 190.6824 190.6824
   191.0678 191.4510 191.4510 191.9169 192.5723 192.5723 193.1381 193.2024
   193.2024 194.0234 195.5749 195.9220 195.9763 195.9843 197.0369 197.0369
   197.2389 197.2389 199.2012 199.2012 199.7249 200.1781 200.9046 200.9046
   201.0530 201.0530 201.3446 201.3446 202.1940 202.1940 203.5573 203.5573
   203.6661 204.1341 204.1341 204.2713 205.0164 205.0164 205.1004 206.1151
   206.6751 206.6751 206.7766 206.7766 206.9508 207.1902 207.2602 207.2602
   207.4736 207.4736 208.7567 208.7716 209.2165 211.5790 211.5790 211.7319
   214.0539 214.0539 214.3499 215.4315 215.4315 215.5927 216.8376 216.8376
   217.8719 217.8719 217.9620 218.3499 218.3903 218.3903 218.6402 218.6402
   218.8245 219.7162 220.6183 220.6183 221.5835 221.5835 221.9047 221.9047
   222.2576 222.7684 223.7254 223.8802 224.2557 224.2557 224.4636 224.4636
   226.8083 226.8083 226.8309 226.8309 227.1180 227.2337 230.8482 231.8288
   231.8288 232.6780 233.1295 233.1295 233.9002 233.9002 234.4689 234.8824
   234.8824 234.9690 234.9690 235.0175 235.3877 235.5105 235.5105 235.5382
   237.8529 238.1578 238.1578 239.6519 239.6519 239.7670 240.8102 240.9865
   240.9865 241.1571 242.2197 242.2197 242.7526 243.4923 243.5155 244.1857
   244.1857 244.7792 244.7792 245.0102 245.3177 245.3177 247.3677 247.3677
   248.4406 248.4406 249.5122 251.1097 251.1097 251.8502 252.6664 252.7247
   252.7247 252.9263 253.4118 253.4118 253.6213 253.9682 254.5065 254.5144
   254.5144 255.3835 255.3835 256.4136 256.5453 256.5453 257.1873 257.1873
   257.9107 257.9107 258.5932 259.2461 259.2461 259.5429 260.4164 260.4746
   260.4746 260.9683 260.9683 261.2152 262.1619 262.1619 263.0845 263.3170
   263.3170 264.5564 264.6932 264.6932 266.8580 266.9047 266.9047 267.0666
   267.0666 267.2129 267.2131 267.2131 267.3844 267.8377 268.3625 268.3625
   268.4670 269.4300 269.4300 269.5327 272.0902 272.1487 272.4654 272.4654
   272.8783 272.8783 275.6349 275.6349 275.8539 276.0513 276.9461 276.9461
   277.1520 277.1520 277.5025 277.7011 277.7011 277.8721 277.9068 279.1647
   280.2780 280.2780 280.9370 280.9475 280.9546 280.9546 283.4348 284.1706
   284.1706 284.5080 285.1120 285.1120 285.9913 285.9913 286.3742 286.3742
   286.8557 287.2500 287.6289 287.6289 287.6927 288.3289 288.3289 288.3970
   289.3321 289.3321 289.3962 289.4048 289.5384 289.5384 291.5661 291.5661
   291.6367 291.6904 291.6904 291.7220 292.9303 292.9303 292.9951 292.9951
   293.0083 293.0815 294.2635 294.2635 294.3496 294.6155 294.6155 294.6457
   295.1157 295.8262 295.8262 295.9095 296.2333 296.2333 298.3357 298.3357
   299.0204 299.0204 299.1567 299.1838 299.5437 299.7140 299.7140 299.7595
   300.2598 300.2598 301.0999 301.0999 301.3082 301.3476 301.3498 301.3498
   304.0946 304.4977 304.4977 305.3927 305.3927 305.3976 307.2308 308.0248
   309.8342 309.8342 310.4236 310.5230 310.5230 310.5595 310.8231 310.8231
   311.8841 311.8841 316.5519 316.5519 316.8406 316.8406 317.2611 317.2611
   317.5630 317.7339 317.7389 317.8552 317.8552 317.9119 318.4156 318.4156
   318.5864 318.6269 318.6269 318.8417 319.6221 319.6221 319.6962 319.6962
   320.1222 320.1222 320.9659 320.9721 321.3416 322.1785 322.1785 322.4533
   323.2837 325.3804 325.4860 325.4860 326.8107 326.8107 326.8916 327.2224
   327.2224 327.2950 327.3670 327.3670 330.5078 330.5078 330.5684 330.5684
   330.7514 330.7564 332.3577 332.3577 332.6659 333.5035 333.5920 333.5920
   333.7945 334.3217 335.6270 335.6270 337.1064 337.1064 337.1218 337.2376
   337.6992 337.6992 338.5330 339.1972 339.1972 339.4672 339.5732 339.5732
   339.6138 339.6138 340.4139 340.7358 340.7358 340.9901 340.9901 341.1943
   342.2671 342.2671 342.3929 342.9688 342.9688 343.0562 343.7116 344.2874
   344.2874 344.6776 344.8822 344.8822 346.0557 346.0557 346.2829 346.3609
   346.3609 346.4152 347.1982 347.1982 347.4565 347.4565 347.7698 347.9578
   348.6425 348.8657 348.8934 348.8934 349.8345 349.8345 351.2124 351.2124
   351.3094 351.3214 351.3214 351.3273 353.7578 353.7578 354.1039 354.6418
   354.6418 354.7186 355.5518 355.7354 355.7354 356.4764 356.4764 356.8549
   357.0541 357.5024 357.5024 357.9226 357.9226 357.9952 360.1686 360.1686
   360.3701 360.6904 360.6904 360.7422 361.2017 361.2450 361.2450 361.6754
   361.7016 361.7016 361.8253 361.8253 361.9210 361.9341 361.9656 361.9656
   366.2368 366.2368 366.3187 366.3187 366.4132 366.4199 366.7653 366.7653
   367.5171 367.8640 368.4875 368.4875 368.5504 368.9140 368.9990 368.9990
   369.0864 369.1187 369.1187 369.2702 371.0878 371.0878 371.1551 371.1551
   373.1304 373.2249 373.2249 373.5713 373.5713 373.8274 374.0896 374.2918
   374.2918 374.4858 374.7717 374.7717 374.8019 374.8277 374.8366 374.8366
   374.8956 374.8956 377.3008 377.3008 377.5652 377.7212 377.7967 377.7967
   379.1556 379.8292 379.8292 380.3362 380.3362 380.5288 381.2482 381.6210
   384.0605 384.0605 384.0719 384.0912 384.0912 384.1257 386.6109 386.6109
   386.6752 386.6752 390.8576 390.8576 391.4670 391.5947 391.5947 391.8433
   392.1965 392.1965 392.4995 392.8306 392.8962 392.8962 392.9167 392.9167
   392.9901 393.0845 393.1642 393.1642 393.2493 393.2493 393.2748 393.3938
   393.3938 393.4307 395.7892 395.7892 395.8084 395.8497 395.8497 395.8658
   395.8790 396.6368 396.6368 397.2688 397.4142 397.4142 400.8248 400.8248
   401.3261 401.4327 401.4407 401.5382 401.5866 401.5866 401.6462 401.6462
   401.7664 401.7664 405.1447 405.1447 405.1889 405.2262 405.2336 405.2336
   405.8722 406.3256 406.3256 406.5431 406.6359 406.6359 407.3640 407.3640
   407.4254 407.9898 408.0006 408.0006 408.2110 408.2110 408.2910 408.3908
   408.4606 408.4606 408.6852 408.8393 408.8393 408.9722 408.9775 408.9775
   412.6636 412.6636 412.7131 412.7131 412.7766 412.7794 416.8174 416.8174
   416.9007 416.9688 416.9688 417.2106 418.0170 419.7364 420.7246 420.7246
   421.7227 421.7227 421.7491 421.7659 421.8342 421.9701 421.9701 422.1259
   422.3802 422.3802 422.8542 422.8542 423.1951 423.1951 423.5793 424.0716
   424.6574 424.6574 424.9848 425.2021 425.2198 425.2198 427.2582 427.2582
   427.6045 427.6045 427.6372 427.8194 428.2386 428.2386 428.5629 428.5842
   428.7703 428.7703 428.8683 428.9875 429.6878 429.6878 429.7248 429.7248
   430.8220 430.8220 431.0603 431.0711 431.0711 431.7119 431.7328 431.7365
   431.9041 431.9041 432.1948 432.1948 432.9101 432.9247 432.9384 432.9384
   432.9793 432.9793 433.1895 433.1895 433.2239 433.2917 433.2917 433.3074
   439.2135 439.7352 439.7352 440.2773 440.7137 440.7137 440.9081 440.9081
   441.0667 441.1661 441.1661 441.3364 441.4407 441.4407 441.5022 441.6956
   441.6956 441.8883 441.8993 441.9598 441.9598 442.0143 442.0143 442.2039
   442.9870 443.8903 443.8903 444.2927 444.2927 445.1581 446.8760 446.9213
   446.9213 446.9912 447.0128 447.0128 447.2803 447.9875 449.5607 449.5607
   449.6957 449.6957 450.2117 450.2117 450.3046 450.3744 450.5367 450.5523
   450.5523 450.6207 450.6207 450.7805 450.7805 450.8439 453.0106 453.0106
   453.4710 453.5751 453.5751 453.5892 456.1188 456.1188 456.1526 456.1526
   457.7710 457.7721 457.8422 457.8422 457.8650 458.8181 458.8219 458.8796
   458.8796 458.9467 458.9648 458.9648 459.1263 459.1263 459.2364 459.7157
   459.7157 460.0514 460.1758 460.3671 460.3671 460.8108 461.7803 461.7803
   461.9548 461.9548 464.0671 464.0671 464.0708 464.0708 464.8424 464.8424
   464.9093 464.9132 465.1217 465.1872 465.1931 465.1931 467.7636 467.7636
   468.0852 468.1818 468.1818 468.2205 474.5466 474.5466 475.4389 475.6294
   475.8955 475.8955 476.2664 476.2664 476.2761 476.3311 476.3311 476.3980
   476.4673 476.4673 476.6462 476.6462 476.6658 476.7991 476.8089 476.8725
   476.8725 476.9112 476.9112 476.9536 477.0212 477.3286 477.3286 478.1485
   478.1485 478.5000 478.8120 478.9490 478.9490 479.1655 479.1655 479.2167
   481.5196 481.9658 481.9658 482.1490 482.4136 482.4136 482.6640 482.8940
   482.9407 482.9407 483.0508 483.0677 483.2032 483.2032 483.2684 483.2872
   483.2872 483.4578 483.4578 483.4974 483.7696 483.7696 484.0130 484.1364
   484.1870 484.1870 484.8526 485.4124 485.4124 485.8360 485.8360 485.8396
   489.1131 489.1131 489.1302 489.1302 489.3962 489.3978 489.4069 489.4069
   489.4449 489.4449 490.5121 490.5121 490.8531 490.8777 490.8777 490.9781
   490.9781 490.9878 491.1013 491.2015 491.2431 491.2431 495.0742 495.0742
   495.2009 495.6384 495.9404 495.9404 498.9754 498.9754 498.9758 499.0214
   499.0390 499.0390 502.5362 502.5362 502.6993 502.8288 502.8300 502.8300
   502.8388 502.8452 502.8452 502.9087 502.9134 502.9134 505.5827 505.5827
   505.6385 506.0077 506.1670 506.1670 506.1747 506.1975 506.1975 506.2681
   506.3056 506.3056 510.5567 510.6112 510.7218 510.7218 510.8083 510.8083

          k = 0.0000-1.0000 0.0000 (  3692 PWs)   bands (ev):

   -92.4213 -28.1772 -28.1699 -28.1699 -28.1656 -28.1615  -2.3427   3.0643
     5.5018   5.5018  10.1102  10.7962  17.7644  17.7644  19.6585  20.9901
    21.7818  21.7818  22.5342  22.8281  27.1855  27.1855  27.6351  28.1214
    28.4925  28.4925  29.1252  30.2129  35.8804  35.8804  37.3163  39.4661
    39.4661  39.8068  41.4030  41.6850  43.7124  44.4048  44.4048  44.8998
    45.7570  46.6984  47.1094  47.1095  47.8597  50.0636  51.9173  53.7861
    55.4174  55.4174  56.3114  56.3114  58.4211  60.9781  62.0133  62.0360
    62.0360  63.2471  63.3831  63.3831  63.3923  64.6440  64.6440  64.9953
    65.0872  65.5420  65.5420  66.9945  69.1776  69.7659  72.1321  72.1321
    73.0977  75.3424  75.3424  75.9771  76.0311  76.6401  76.6401  78.6526
    78.6596  78.6879  80.3029  80.3029  80.3856  81.3810  81.8743  81.8743
    82.0999  82.6231  83.8186  83.8186  84.4246  84.4246  84.7483  84.7517
    85.2383  89.4148  89.7865  89.7865  90.1024  91.1535  92.6748  93.6808
    93.6808  94.8721  95.7354  95.7354  96.2736  97.0513  97.0513  97.5752
    98.3743  99.2746 100.7151 100.8308 100.8308 101.4716 103.0722 103.0722
   103.6584 105.0562 105.0998 106.4600 108.4848 108.4848 109.8293 110.2349
   111.4514 112.1220 112.1220 114.0929 114.0929 114.5218 114.8058 117.1327
   117.1327 118.1711 118.4580 118.8292 118.9043 119.4507 119.4507 119.8383
   119.8383 119.9656 120.0147 120.4627 120.4627 121.0658 121.2730 121.2730
   121.2941 121.5004 122.3660 124.1369 126.2482 127.2360 127.2360 128.7064
   129.0539 129.7974 129.8047 129.8047 130.2789 130.2789 130.8560 130.8560
   131.5451 131.5942 132.1786 132.8987 133.4338 133.4338 134.3468 135.0723
   135.0723 135.4513 135.9883 136.6693 137.2308 137.2308 137.5246 138.2086
   138.2086 138.5865 138.5944 139.3820 139.3820 139.7512 140.0398 140.4972
   140.4972 140.8881 141.4062 141.4062 143.4024 144.4187 145.5296 146.9802
   146.9802 147.3023 147.7392 149.4208 149.4208 149.4554 150.4429 152.1563
   152.1563 152.7509 154.6168 154.6380 154.6380 155.0489 155.5363 155.7106
   156.9757 156.9757 157.1453 158.4487 159.1400 159.3538 159.3538 160.0141
   160.0141 160.6643 162.2222 163.4906 163.4906 165.4427 166.0792 167.1576
   167.1576 167.2477 169.3294 169.4455 170.7495 170.8448 171.0202 171.1550
   171.1550 171.3304 171.3304 172.1377 172.6221 172.6221 173.4478 173.8990
   174.2290 174.4538 174.4728 174.4728 174.8203 174.8203 176.3347 176.6495
   176.8297 176.9921 176.9921 177.5723 177.8233 177.8233 179.3120 183.0145
   183.4283 183.4283 184.4741 185.3400 185.8897 185.8897 186.3534 186.8440
   187.1206 187.1206 187.3229 187.5862 187.6799 187.6799 189.5301 189.5301
   189.7918 189.8538 189.9376 190.6906 190.6906 191.0420 191.2499 191.3752
   191.3752 191.5904 191.8849 192.0039 192.1711 192.1711 192.6570 194.0241
   194.0241 194.1506 194.1882 194.3022 194.3022 194.4363 195.9600 197.4909
   198.3203 198.3203 200.4437 200.4437 201.0963 202.1015 203.6998 205.0150
   205.1931 205.5163 205.5163 205.7706 205.8105 206.5684 206.5684 207.2013
   207.3016 208.0001 208.0001 208.2377 208.2526 208.2526 208.3387 208.9046
   209.1770 210.5382 210.5382 211.4206 211.4206 212.0468 212.4551 213.6761
   213.9891 214.6742 215.2907 215.2907 215.5958 215.5958 216.1962 216.4167
   216.4167 216.4478 216.5053 216.5982 216.5982 218.7410 219.9384 220.9079
   220.9079 221.1747 221.1747 221.9111 222.3418 222.3721 222.6652 222.6652
   222.8678 222.9707 223.5266 224.0197 224.9338 225.9751 225.9751 226.2566
   227.6013 227.6013 227.8832 229.7180 229.8189 230.3769 230.3769 230.6622
   231.9599 231.9599 232.0250 232.3142 233.8863 233.8952 233.8952 233.9152
   234.0092 234.0092 234.0450 234.1560 235.5426 237.1255 237.6026 237.6026
   238.7337 239.1615 239.7857 239.7857 240.0204 241.3758 241.4284 241.4284
   241.4565 241.7277 241.7694 241.7694 242.6863 242.6863 244.6472 245.2355
   245.6329 245.7931 245.7931 246.4195 246.6239 246.7115 246.7115 246.7299
   247.0261 247.0261 247.0885 247.4183 247.4183 247.4426 247.6277 247.6277
   247.7402 247.7447 247.7479 247.9753 248.1041 248.8375 248.8375 251.1565
   251.1759 251.6579 251.6579 251.9125 251.9329 251.9558 252.0129 252.0129
   252.4651 252.7596 252.7596 252.7920 257.5283 258.4574 258.4574 259.3093
   261.1616 261.1616 261.7484 262.6361 262.6450 262.8059 263.1488 263.3183
   263.3183 263.9795 263.9795 265.0328 265.1719 266.4068 266.4068 266.5668
   267.2437 267.3712 267.4807 267.4807 267.6543 267.6543 267.7096 267.7610
   268.8002 268.8002 269.5084 271.2353 273.5369 273.7680 273.7680 275.1574
   275.6976 276.4707 276.4707 276.4962 278.1208 278.4420 278.4420 278.8061
   278.9331 279.4009 279.4009 279.6200 280.9767 283.0385 283.4490 283.4490
   285.1821 285.1941 285.2486 285.2486 285.2789 285.7277 285.7277 286.4595
   286.6481 286.8563 286.9960 286.9960 287.3133 287.4209 287.4209 288.0128
   288.0433 288.3852 288.3852 288.4458 288.4659 288.5124 288.5124 288.8854
   289.4821 289.4821 289.5028 289.5186 292.1399 293.3869 293.9843 294.9133
   294.9133 294.9636 294.9636 295.1212 295.5689 296.1107 296.6209 296.9660
   296.9660 297.3367 297.8773 297.9978 297.9978 298.5846 298.5967 298.5967
   298.9777 299.0143 300.6901 300.6901 301.0992 301.0992 302.0002 302.0067
   302.0337 302.0337 302.1069 302.1412 302.6921 302.7195 303.0077 303.2252
   303.2252 303.3930 304.5580 304.6737 304.6737 304.8454 306.0857 306.0857
   306.1860 306.2330 306.2343 306.5303 306.6515 306.6515 307.0034 307.0034
   307.0750 307.0750 307.2532 307.7758 308.7719 308.7719 308.8403 308.8514
   308.9616 309.0028 309.0028 309.1570 311.9799 312.5227 312.5227 312.8698
   313.1026 313.1907 313.2674 313.2674 314.4948 315.7659 316.4091 316.4091
   316.8166 316.8224 316.8224 316.9382 318.8175 318.8532 318.8852 318.8852
   319.3409 319.3409 319.4636 319.4636 319.8131 319.8202 320.1140 320.8313
   321.1037 321.9366 321.9366 321.9740 321.9763 322.1857 322.4486 322.4486
   323.2633 323.7652 323.7652 323.9920 324.3827 324.4654 324.7047 324.7047
   327.2831 327.3465 327.3752 327.3752 327.4536 327.4536 327.5175 327.5676
   334.7884 334.7884 335.3738 335.5800 335.6421 335.6421 336.1148 336.5430
   336.7373 336.8166 336.8166 336.8588 337.8833 338.0103 338.4685 338.4685
   338.8745 339.2583 339.2979 339.2979 339.3408 339.6296 339.6296 339.7648
   339.7648 339.7773 340.3723 340.6220 340.6574 340.6574 340.7173 340.7173
   340.9056 341.0520 341.8479 342.7161 342.7161 342.7616 342.8430 343.0066
   343.0169 343.4519 345.8476 345.8476 346.0445 346.0445 346.6639 346.6639
   346.9310 346.9943 346.9951 347.1359 351.3178 351.3178 352.0778 352.3677
   353.2585 353.5944 353.5944 354.2575 355.3138 355.4768 355.4768 355.8535
   355.9140 356.0734 356.0734 356.5196 356.6571 356.6571 356.8570 357.0862
   357.2765 357.2765 357.3133 357.3640 358.4677 358.4677 358.5059 358.9154
   358.9465 359.1417 359.1417 359.3054 359.4369 359.5049 359.5049 359.5509
   359.6531 359.6531 359.6575 359.6600 361.2969 361.4062 361.4062 361.5580
   362.8566 362.8851 362.8851 362.9234 369.6699 370.1606 370.1606 370.3002
   370.5157 370.8718 370.8718 371.0137 371.9264 372.2019 372.2598 372.2598
   372.6769 372.9343 373.2495 373.7531 373.7531 374.1767 375.0057 375.0057
   375.9070 375.9535 376.2998 376.2998 376.4934 376.6481 377.2326 377.4299
   377.4299 377.5586 378.3903 378.3903 378.4878 378.6671 378.8585 378.8585
   379.0118 379.1280 379.2134 379.2134 379.3606 379.8242 380.1134 380.2326
   380.2326 380.4404 381.6376 381.8942 381.8942 382.0165 382.1907 382.1907
   382.4003 382.4077 382.4358 382.4358 382.7424 382.8807 388.6532 389.9413
   393.9561 393.9561 394.0275 394.0275 394.7915 394.7915 395.1397 395.3443
   395.5862 395.7078 395.7908 395.7908 396.3830 396.5054 396.5054 396.5075
   396.6489 396.7623 396.7623 396.8802 396.8802 397.3350 397.3549 397.5525
   397.5974 397.6459 398.2212 398.3129 398.9246 398.9246 399.4951 399.4951
   399.7965 399.8698 399.9701 399.9701 399.9999 400.1032 400.1032 400.1041
   400.2148 400.8954 401.4150 401.4989 401.5670 401.5670 407.0243 407.0243
   407.2241 407.5121 407.7049 407.7049 407.8200 407.8804 408.2091 408.2123
   408.2354 408.2354 408.4521 408.5016 408.5016 408.5383 408.6546 408.9921
   408.9921 409.0232 409.1751 409.1751 409.2928 409.3038 410.3157 411.1196
   411.1587 411.1587 411.1844 411.2334 411.2334 411.3825 411.4319 412.7750
   412.8752 412.8752 413.2958 413.2958 414.0356 414.0543 414.4076 414.4076
   414.4700 414.5275 414.5275 414.6159 414.6215 414.6330 416.8059 416.8059
   416.8796 416.9573 417.5819 417.5819 417.6271 417.6547 417.7023 417.7023
   418.2161 418.3209 418.5610 418.5635 418.6519 418.6519 418.8670 418.8670
   418.8820 419.0065 419.0629 419.1453 419.1453 419.3775 421.1241 421.1844
   421.1844 421.2200 421.3130 421.3815 421.3871 421.3871 421.4372 421.6423
   421.6423 421.6960 421.7013 421.7013 421.7365 421.7560 428.1669 428.1669
   428.4273 428.5026 428.5290 428.6566 428.6566 428.7946 429.2171 429.2184
   429.2505 429.2505 429.2796 429.2796 429.2819 429.2942 434.3718 434.3718
   435.6550 435.8693 435.8693 436.0462 436.0506 436.4038 436.7025 436.7807
   436.8202 436.8202 436.9242 437.1164 437.2168 437.2168 437.9101 437.9101
   437.9666 438.1165 438.2142 438.4347 438.4746 438.4746 438.7055 438.8144
   438.8309 438.8309 439.0213 439.0213 439.0301 439.0472 442.9433 443.1432
   443.1432 443.2743 446.5150 446.6311 447.1448 447.1448 447.4705 447.4705
   447.8591 448.4259 449.4285 449.4285 449.4736 449.6618 449.8755 449.8755
   449.8787 449.8799 450.2790 450.7273 451.3471 451.3471 451.7325 451.7325
   451.9586 452.1768 452.7514 452.8317 452.8317 452.9089 453.0261 453.0261
   453.0588 453.0659 455.7363 455.7407 456.0132 456.0132 456.0297 456.0297
   456.2768 456.2788 457.3858 457.3858 457.6824 457.9403 457.9575 457.9990
   457.9990 458.3082 461.7544 461.7544 462.3913 462.8797 463.4537 463.5831
   463.6552 463.6552 463.7051 463.7539 466.0535 466.0691 466.0691 466.0830
   466.1302 466.1868 466.1868 466.1871 466.2116 466.2116 466.4014 467.0028
   467.0935 467.1463 467.1463 468.0225 469.2515 469.2515 469.3666 469.3666
   469.7937 469.8033 469.9518 470.1684 470.8455 470.8784 471.1361 471.1361
   471.2241 471.2241 471.2961 471.2961 471.3126 471.3275 471.6022 471.8047
   472.2007 472.2079 472.3939 472.3939 472.4259 472.4929 472.4929 472.5229
   472.5354 472.5354 472.8261 472.8428 475.8026 475.8026 475.9924 475.9924
   476.0173 476.0173 476.3644 476.5068 476.8939 477.3021 477.7304 477.7304
   477.7413 477.7600 482.1172 482.1172 482.4200 482.5947 482.6675 482.6843
   482.6843 482.7060 482.7918 482.7918 483.0726 483.1447 483.1447 483.2716
   483.3034 483.4797 485.4904 485.5295 485.5295 485.5555 485.5720 485.5996
   485.5996 485.6324 488.7665 488.7665 489.4258 489.7163 490.6066 490.6273
   490.6273 490.6442 492.9088 492.9088 492.9287 492.9798 492.9798 493.0686
   493.0759 493.1617 493.9080 493.9080 494.5028 494.7237 494.7627 494.7788
   494.7788 494.8505 494.8845 494.8845 494.9805 495.0011 495.0741 495.0741
   495.1553 495.4438 501.0926 501.0926 501.3888 501.3982 501.7650 501.7650
   501.7829 501.8856 505.1364 505.1594 505.1594 505.2065 505.5545 505.5569
   505.5569 505.5596 505.5660 505.5729 506.2984 506.2984 506.4602 506.4922
   506.4922 506.5018 506.5088 506.5465 507.0241 507.0241 507.1896 507.1896
   507.5512 507.8059 507.8059 508.5526 508.7928 508.8108 508.8108 508.9989

     the Fermi energy is     8.8609 ev
     (compare with:     9.1122 eV, computed in scf)

     Writing all to output data dir out/mp-252.save/
 
     init_run     :      0.04s CPU      0.05s WALL (       1 calls)
     electrons    :    362.11s CPU    389.79s WALL (       1 calls)

     Called by init_run:
     wfcinit      :      0.00s CPU      0.00s WALL (       1 calls)
     potinit      :      0.01s CPU      0.02s WALL (       1 calls)
     hinit0       :      0.01s CPU      0.01s WALL (       1 calls)

     Called by electrons:
     c_bands      :    362.11s CPU    389.79s WALL (       1 calls)
     v_of_rho     :      0.01s CPU      0.01s WALL (       1 calls)

     Called by c_bands:
     init_us_2    :      0.00s CPU      0.00s WALL (       3 calls)
     init_us_2:cp :      0.00s CPU      0.00s WALL (       3 calls)
     cegterg      :    354.37s CPU    381.58s WALL (       3 calls)

     Called by *egterg:
     cdiaghg      :    332.63s CPU    359.52s WALL (      34 calls)
     h_psi        :      6.47s CPU      6.67s WALL (      37 calls)
     g_psi        :      0.04s CPU      0.04s WALL (      31 calls)

     Called by h_psi:
     h_psi:calbec :      0.10s CPU      0.11s WALL (      37 calls)
     vloc_psi     :      6.27s CPU      6.45s WALL (      37 calls)
     add_vuspsi   :      0.07s CPU      0.07s WALL (      37 calls)

     General routines
     calbec       :      0.10s CPU      0.11s WALL (      37 calls)
     fft          :      0.01s CPU      0.01s WALL (      10 calls)
     fftw         :      5.69s CPU      5.84s WALL (   44646 calls)
 
     Parallel routines
 
     PWSCF        :   6m 2.55s CPU   6m30.41s WALL

 
   This run was terminated on:   5:26:50  22Dec2023            

=------------------------------------------------------------------------------=
   JOB DONE.
=------------------------------------------------------------------------------=
