
     Program PWSCF v.7.1 starts on 15Nov2023 at  3:17: 0 

     This program is part of the open-source Quantum ESPRESSO suite
     for quantum simulation of materials; please cite
         "P. Giannozzi et al., J. Phys.:Condens. Matter 21 395502 (2009);
         "P. Giannozzi et al., J. Phys.:Condens. Matter 29 465901 (2017);
         "P. Giannozzi et al., J. Chem. Phys. 152 154105 (2020);
          URL http://www.quantum-espresso.org", 
     in publications or presentations arising from this work. More details at
     http://www.quantum-espresso.org/quote

     Parallel version (MPI), running on    24 processors

     MPI processes distributed on     1 nodes
     122458 MiB available memory on the printing compute node when the environment starts
 
     Reading input from pw_mp-1550_nscf_k690_E65.in
Warning: card &IONS ignored
Warning: card / ignored
Warning: card &CELL ignored
Warning: card / ignored

     Current dimensions of program PWSCF are:
     Max number of different atomic species (ntypx) = 10
     Max number of k-points (npk) =  40000
     Max angular momentum in pseudopotentials (lmaxx) =  4

     Atomic positions and unit cell read from directory:
     out/mp-1550.save/
     Atomic positions from file used, from input discarded
 
 
     K-points division:     npool     =       2
     R & G space division:  proc/nbgrp/npool/nimage =      12
     Subspace diagonalization in iterative solution of the eigenvalue problem:
     one sub-group per band group will be used
     scalapack distributed-memory algorithm (size of sub-group:  3*  3 procs)

 
     Parallelization info
     --------------------
     sticks:   dense  smooth     PW     G-vecs:    dense   smooth      PW
     Min          79      79     24                 1632     1632     267
     Max          80      80     26                 1635     1635     269
     Sum         955     955    295                19603    19603    3215
 
     Using Slab Decomposition
 


     bravais-lattice index     =            2
     lattice parameter (alat)  =      10.3424  a.u.
     unit-cell volume          =     276.5700 (a.u.)^3
     number of atoms/cell      =            2
     number of atomic types    =            2
     number of electrons       =        16.00
     number of Kohn-Sham states=         1200
     kinetic-energy cutoff     =      65.0000  Ry
     charge density cutoff     =     260.0000  Ry
     Exchange-correlation= PBE
                           (   1   4   3   4   0   0   0)

     celldm(1)=  10.342409  celldm(2)=   0.000000  celldm(3)=   0.000000
     celldm(4)=   0.000000  celldm(5)=   0.000000  celldm(6)=   0.000000

     crystal axes: (cart. coord. in units of alat)
               a(1) = (  -0.500000   0.000000   0.500000 )  
               a(2) = (   0.000000   0.500000   0.500000 )  
               a(3) = (  -0.500000   0.500000   0.000000 )  

     reciprocal axes: (cart. coord. in units 2 pi/alat)
               b(1) = ( -1.000000 -1.000000  1.000000 )  
               b(2) = (  1.000000  1.000000  1.000000 )  
               b(3) = ( -1.000000  1.000000 -1.000000 )  


     PseudoPot. # 1 for Al read from file:
     /usr/scratch4/magr4985/MG/HTDF/pseudo/SG15/Al.upf
     MD5 check sum: 2d9e7bc02555220d62fad08c3c4858e7
     Pseudo is Norm-conserving, Zval = 11.0
     Generated using ONCVPSP code by D. R. Hamann
     Using radial grid of  602 points,  4 beta functions with: 
                l(1) =   0
                l(2) =   0
                l(3) =   1
                l(4) =   1

     PseudoPot. # 2 for P  read from file:
     /usr/scratch4/magr4985/MG/HTDF/pseudo/SG15/P.upf
     MD5 check sum: 0688a67b2b263c6b42d3d97c42745426
     Pseudo is Norm-conserving, Zval =  5.0
     Generated using ONCVPSP code by D. R. Hamann
     Using radial grid of  602 points,  4 beta functions with: 
                l(1) =   0
                l(2) =   0
                l(3) =   1
                l(4) =   1

     atomic species   valence    mass     pseudopotential
        Al            11.00    26.98150     Al( 1.00)
        P              5.00    30.97380     P ( 1.00)

     24 Sym. Ops. (no inversion) found



   Cartesian axes

     site n.     atom                  positions (alat units)
         1           Al  tau(   1) = (   0.0000000   0.0000000   0.0000000  )
         2           P   tau(   2) = (  -0.7500000   0.7500000   0.7500000  )

     number of k points=    29  Gaussian smearing, width (Ry)=  0.0005
                       cart. coord. in units 2pi/alat
        k(    1) = (   0.0000000   0.0000000   0.0000000), wk =   0.0039062
        k(    2) = (  -0.1250000   0.1250000  -0.1250000), wk =   0.0312500
        k(    3) = (  -0.2500000   0.2500000  -0.2500000), wk =   0.0312500
        k(    4) = (  -0.3750000   0.3750000  -0.3750000), wk =   0.0312500
        k(    5) = (   0.5000000  -0.5000000   0.5000000), wk =   0.0156250
        k(    6) = (   0.0000000   0.2500000   0.0000000), wk =   0.0234375
        k(    7) = (  -0.1250000   0.3750000  -0.1250000), wk =   0.0937500
        k(    8) = (  -0.2500000   0.5000000  -0.2500000), wk =   0.0937500
        k(    9) = (   0.6250000  -0.3750000   0.6250000), wk =   0.0937500
        k(   10) = (   0.5000000  -0.2500000   0.5000000), wk =   0.0937500
        k(   11) = (   0.3750000  -0.1250000   0.3750000), wk =   0.0937500
        k(   12) = (   0.2500000   0.0000000   0.2500000), wk =   0.0468750
        k(   13) = (   0.0000000   0.5000000   0.0000000), wk =   0.0234375
        k(   14) = (  -0.1250000   0.6250000  -0.1250000), wk =   0.0937500
        k(   15) = (   0.7500000  -0.2500000   0.7500000), wk =   0.0937500
        k(   16) = (   0.6250000  -0.1250000   0.6250000), wk =   0.0937500
        k(   17) = (   0.5000000   0.0000000   0.5000000), wk =   0.0468750
        k(   18) = (   0.0000000   0.7500000   0.0000000), wk =   0.0234375
        k(   19) = (   0.8750000  -0.1250000   0.8750000), wk =   0.0937500
        k(   20) = (   0.7500000   0.0000000   0.7500000), wk =   0.0468750
        k(   21) = (   0.0000000  -1.0000000   0.0000000), wk =   0.0117188
        k(   22) = (  -0.2500000   0.5000000   0.0000000), wk =   0.0937500
        k(   23) = (   0.6250000  -0.3750000   0.8750000), wk =   0.1875000
        k(   24) = (   0.5000000  -0.2500000   0.7500000), wk =   0.0937500
        k(   25) = (   0.7500000  -0.2500000   1.0000000), wk =   0.0937500
        k(   26) = (   0.6250000  -0.1250000   0.8750000), wk =   0.1875000
        k(   27) = (   0.5000000   0.0000000   0.7500000), wk =   0.0937500
        k(   28) = (  -0.2500000  -1.0000000   0.0000000), wk =   0.0468750
        k(   29) = (  -0.5000000  -1.0000000   0.0000000), wk =   0.0234375

     Dense  grid:    19603 G-vectors     FFT dimensions: (  40,  40,  40)

     Estimated max dynamical RAM per process >     101.69 MB

     Estimated total dynamical RAM >       2.38 GB

     The potential is recalculated from file :
     out/mp-1550.save/charge-density

     Starting wfcs are random

     Band Structure Calculation
     ParO style diagonalization

     ethr =  5.00E-06,  avg # of iterations =  5.9

     total cpu time spent up to now is      781.9 secs

     End of band structure calculation

          k = 0.0000 0.0000 0.0000 (  2445 PWs)   bands (ev):

   -96.2795 -57.7718 -57.7718 -57.7718  -5.2917   6.1831   6.1831   6.1831
     9.4032  10.7296  10.7296  10.7296  15.0398  15.0398  16.4296  18.4360
    18.4360  18.4360  22.3736  30.0108  30.0108  30.0108  31.2995  31.2995
    32.4611  32.4611  32.4611  36.2548  36.2548  36.2548  41.8882  41.8882
    41.8882  44.7792  44.8081  44.8081  48.0769  48.0769  48.6912  48.6912
    48.6912  50.7175  50.7175  50.7175  51.2671  51.7982  51.7982  51.7982
    52.5446  52.5446  52.5446  53.0762  53.0762  53.0762  56.8347  57.9131
    57.9131  57.9131  58.8942  58.8942  58.8942  61.4540  66.7651  71.6596
    71.6596  75.0492  75.0492  75.0492  77.0598  77.0598  77.0598  77.5382
    77.5382  79.0351  79.5252  79.5252  79.5252  83.7310  83.7310  83.7310
    88.9017  88.9017  89.5761  89.5761  89.5761  89.6986  89.6986  89.6986
    92.1637  92.3971  92.3971  92.9459  92.9459  92.9459  94.4083  94.4083
    94.4083  96.3046  96.3046  96.3046  97.2318  97.4307  97.4307  97.4307
    98.2348  98.2348  98.2348  98.8170  99.7933  99.7933  99.7933  99.8627
    99.8627 100.4684 100.4684 100.4684 101.0822 106.1314 106.1314 106.1314
   107.1309 107.1309 108.3899 111.9514 111.9514 111.9514 114.5269 114.5269
   114.5269 115.4068 115.4068 115.4068 116.0156 116.0156 116.0156 116.7348
   116.7348 117.9796 120.2623 120.2623 120.2623 123.4805 123.4805 125.5667
   125.5667 125.5667 125.8653 127.4323 127.4323 128.4564 128.4564 128.4564
   129.4207 130.5904 130.5904 130.5904 131.1150 131.8987 131.8987 131.8987
   132.0100 132.0100 132.0100 132.1239 132.1239 132.1239 133.1193 133.1193
   133.1193 137.1113 137.1113 137.1113 141.8814 144.4478 144.4478 144.4478
   146.7489 146.7489 146.9559 148.0435 148.0435 148.0435 149.9968 149.9968
   149.9968 155.6453 155.6453 157.3695 157.3695 157.3695 160.0537 160.0537
   160.0537 161.0291 163.8457 163.8457 164.8229 164.8229 164.8229 165.9989
   165.9989 165.9989 167.2388 167.2388 167.2388 168.2036 169.3636 169.3636
   169.5592 169.5592 169.5592 170.0091 170.0091 170.0091 170.3638 170.3638
   170.3638 171.0260 171.0260 171.0260 171.3070 171.3070 171.6379 171.6379
   171.6379 172.3820 172.6242 172.6242 172.6242 172.9986 172.9986 172.9986
   173.2013 173.3428 173.5775 173.5775 173.5775 174.8465 175.0905 175.0905
   175.7964 175.7964 175.7964 177.6398 177.6398 178.0608 178.0608 178.0608
   178.4829 178.4829 178.4829 178.7829 178.7829 178.7829 179.0733 179.0733
   179.0733 179.0897 179.0897 185.3942 185.3942 185.3942 186.1697 186.1697
   186.8361 191.8106 191.8106 191.8106 193.6853 193.6853 193.6853 195.1092
   195.1092 195.1092 195.5127 195.5127 195.5127 196.2150 197.1702 197.1702
   197.1702 198.4141 198.4141 198.4704 198.4704 198.4704 198.5640 199.8214
   200.2969 200.2969 200.2969 202.3559 202.3559 203.8705 203.8705 203.8705
   207.1938 207.1938 207.1938 207.9583 207.9583 207.9583 207.9628 207.9628
   207.9628 209.0276 209.0276 210.3528 211.0040 211.0040 211.0040 214.1269
   214.1269 214.1269 214.8219 214.8219 215.7102 215.7102 215.7102 216.0053
   216.7112 216.7112 216.7112 216.7949 216.7949 216.7949 217.5467 217.5467
   217.5467 217.8023 217.8023 225.2570 225.2570 225.2570 229.0506 230.0569
   230.0569 230.0569 232.4927 233.0979 233.0979 233.0979 234.8103 234.8103
   235.9862 236.0646 236.0646 236.0646 237.2315 237.2315 237.2315 238.2389
   238.2389 238.2389 239.7020 239.7020 241.4619 242.7222 242.7222 242.7222
   243.7623 243.7623 243.7623 244.3191 244.3191 244.3191 244.3720 244.3720
   246.4835 247.1063 247.1063 247.1063 247.3219 247.3219 248.2791 251.2880
   251.2880 251.2880 251.4216 251.4216 251.4216 251.4603 251.4603 251.4603
   251.5362 251.5362 251.5362 256.0089 256.0089 256.0089 256.0411 256.0411
   256.0411 256.0541 256.0541 256.1721 256.1721 256.1721 256.3431 256.8548
   256.8548 256.8548 256.9333 257.7180 257.7180 257.7180 258.6706 258.6706
   258.6706 258.6769 258.6769 260.5599 260.5599 260.5599 261.6471 262.3432
   262.3432 262.3432 264.2902 265.7923 265.7923 267.5023 267.5023 267.5023
   267.9982 267.9982 267.9982 269.9545 269.9545 269.9545 270.0164 270.0164
   270.0164 271.8347 271.8347 274.5520 274.5520 275.2825 275.2825 275.2825
   275.6706 275.6706 275.6706 275.7510 275.7510 275.7510 275.9537 275.9537
   275.9537 276.8554 276.8554 277.0066 277.0066 277.0066 277.2784 277.9724
   277.9724 277.9724 278.3487 278.3487 278.3487 278.6250 279.4655 279.4655
   279.4655 280.0234 280.9751 283.3978 283.3978 285.2199 285.2199 285.2199
   286.8387 286.8387 286.8387 287.0922 287.0922 287.0922 287.1884 287.1884
   287.8373 287.8373 287.8373 288.5528 289.2700 289.2700 289.2700 289.5466
   289.6538 289.6538 289.6538 291.5153 291.5153 291.5628 291.5628 291.5628
   291.6192 291.6192 291.6192 291.9468 291.9468 291.9468 292.1419 292.1419
   292.1419 292.2645 292.2645 292.4643 292.5246 292.5246 292.5246 292.8424
   292.8424 292.8424 293.2556 293.3518 293.3518 293.3518 293.3717 293.3717
   293.3717 293.3748 293.3748 293.5523 293.5523 293.5523 293.7638 293.7638
   293.7695 293.7695 293.7695 311.9110 311.9110 311.9110 312.1588 312.1588
   312.6162 313.4822 313.4822 313.4822 317.2341 317.2341 317.2341 317.7345
   319.3416 319.3416 319.3830 321.8298 321.8298 321.8298 324.3761 324.3761
   324.3761 324.8920 324.8920 324.8920 325.2244 325.2244 325.2244 325.6220
   325.6220 327.6083 328.3343 328.3343 328.3343 328.9463 328.9463 328.9463
   330.4359 330.4359 330.6744 331.1513 331.1513 331.1513 332.5624 335.6261
   335.6261 335.6261 335.7194 335.7194 335.7194 335.7267 335.7267 335.7267
   335.8723 335.8723 335.8723 337.6481 337.6481 337.8511 337.8511 337.8511
   338.0145 338.0145 338.0145 338.1802 338.1802 338.1802 338.2036 338.2036
   338.2870 338.2870 338.2870 338.7481 338.7481 338.7524 338.7524 338.7524
   338.8198 342.6077 342.6077 342.6077 343.9855 343.9855 343.9855 344.2952
   344.2952 344.6484 344.8579 344.8579 344.8579 350.5022 350.5022 350.6168
   350.6168 350.6168 352.9657 354.2241 354.2241 354.2241 354.3500 354.3500
   354.3500 354.9235 354.9235 354.9235 355.1228 355.1228 355.1228 355.3020
   355.3020 355.3020 355.6684 355.6684 355.6684 356.3800 356.4063 356.4063
   356.4063 356.4699 356.4699 356.6994 356.6994 356.6994 356.8191 356.8191
   357.7011 365.1623 365.7615 365.7615 365.7615 366.4205 366.4205 366.4205
   366.8568 367.9439 367.9439 367.9439 368.0851 368.0851 368.0851 368.3306
   368.3306 368.3306 368.3699 368.3699 368.6565 370.1038 370.1038 370.1185
   370.1185 370.1185 370.3103 370.3103 370.3103 370.5038 370.5038 370.5038
   370.6739 371.3541 371.3541 371.3584 371.3584 371.3584 371.7094 371.7094
   371.7094 371.9690 371.9690 371.9690 372.2342 376.3549 376.3549 376.3549
   376.4453 376.4453 376.4453 376.4486 376.4486 376.4486 376.4616 376.4616
   376.6635 378.3945 378.3945 378.3945 378.3952 378.4373 378.4373 378.4373
   378.5006 378.5006 378.5006 378.5010 378.5010 390.8492 390.8492 390.9115
   390.9115 390.9115 391.0742 392.2266 392.2266 392.2266 393.2374 393.2374
   393.2374 394.0603 394.0603 394.0603 394.7172 394.7172 394.7172 394.8775
   394.8775 394.8775 395.1942 395.6007 395.6007 395.6973 395.6973 395.8867
   395.8867 395.8867 396.1058 397.7364 397.7364 397.7364 398.7974 398.8250
   398.8250 398.8250 401.3107 401.3107 401.3107 402.2545 402.2545 402.2545
   402.8754 402.8754 402.8754 403.0745 403.8670 403.8670 405.6245 405.6245
   405.6245 405.8589 405.8589 406.7835 406.7835 406.7835 407.1361 407.2274
   407.2274 408.6790 408.6790 408.6790 409.4344 409.4344 409.4344 409.9047
   409.9047 409.9047 410.2050 410.2050 410.2218 410.2218 410.2218 410.5834
   410.5834 410.8204 410.8204 410.8204 411.6064 411.6064 411.6064 412.0385
   412.1480 412.1480 412.1480 412.4490 412.4490 412.4490 412.4991 412.6104
   412.6104 412.6104 412.7460 412.7925 412.7925 412.7925 413.1232 413.1232
   413.1232 413.4363 413.4363 413.4363 413.5741 415.1178 415.1178 415.1178
   415.1293 415.1293 415.5194 415.5194 415.5194 415.6921 415.6921 415.6921
   415.8257 415.8257 415.8257 416.2564 416.2564 418.1182 418.1182 418.3188
   418.3188 418.3188 418.7726 418.7858 418.7858 418.7858 418.9376 418.9376
   418.9376 419.0223 419.0223 419.0223 419.2926 419.2926 419.2926 419.3678
   419.3678 419.5915 419.5915 419.5915 419.7284 427.7226 427.7226 427.7226
   428.0207 428.3041 428.3041 428.3041 428.7129 437.4582 437.4582 437.4981
   437.4981 437.4981 437.6366 437.6366 437.6366 437.7221 437.7221 437.7221
   437.8309 437.8309 437.8309 437.8542 437.8542 443.4487 443.4487 444.0814
   444.2377 444.2377 444.2377 445.6526 445.6526 445.6526 445.9720 445.9720
   446.4948 446.4948 446.4948 446.6643 446.6643 446.6643 446.8320 446.8320
   446.8320 446.8998 446.8998 446.8998 447.3454 452.2220 452.2220 452.2220
   452.2483 452.2483 452.2483 452.2624 452.2624 452.3196 452.3196 452.3196
   452.4147 452.4147 452.4147 452.5119 452.5119 452.5119 452.5300 453.1998
   453.1998 453.2401 453.2401 453.2401 453.3134 466.4737 466.4737 466.4737
   466.7111 467.5319 467.5319 467.5319 468.0517 470.1583 470.1583 470.3532
   470.3532 470.3532 471.1726 471.1726 471.1726 471.4539 471.4539 471.4539
   471.6758 471.6758 471.6758 472.1017 472.1017 474.2376 474.2376 474.2376
   475.3428 475.3428 475.3428 476.0354 476.0640 476.0640 476.0640 476.1451
   476.1451 480.7461 482.3858 482.3858 482.3858 483.2929 483.2929 483.2929
   483.7968 483.7968 483.7968 483.8788 483.8788 484.4466 484.4466 484.4466
   484.8841 485.1051 485.1051 485.1051 485.9468 487.2103 487.2103 487.9644
   487.9644 487.9644 489.0627 489.0627 489.0845 489.0845 489.0845 489.2766
   489.2766 489.2766 489.4323 489.4323 489.4323 489.6071 490.8903 490.8903
   490.8903 491.1299 491.1955 491.1955 491.1955 493.3058 493.3058 493.3973
   493.3973 493.3973 493.4629 493.4629 493.4926 493.4926 493.4926 493.5013
   493.5013 493.5013 493.5786 493.5786 493.5786 494.6763 494.7195 494.7195
   494.7402 494.7402 494.7402 496.6608 496.6826 496.6826 496.6826 496.6919
   496.6919 496.6919 496.7930 496.7930 496.7930 496.8388 496.8388 499.1997
   499.1997 499.1997 499.2316 499.2316 499.2316 499.2512 499.2512 499.2512
   499.2547 499.2547 499.2835 504.9531 504.9531 505.5448 505.5448 505.5448
   505.9553 507.5216 507.5216 507.5216 507.7096 507.7096 507.7096 508.5844
   508.5844 508.6001 508.6001 508.6001 509.5449 511.1414 511.6206 511.6206
   511.6206 511.9232 511.9232 511.9232 512.0506 512.0506 512.0506 512.2461
   512.2461 513.5787 513.5787 513.5787 514.1863 514.1863 514.1863 514.3584
   514.3584 514.3584 515.0711 515.1504 515.1504 516.3202 516.3202 516.3202
   516.8310 516.8310 516.8310 516.8541 516.8541 516.8541 517.1481 517.1481
   517.1481 517.4454 517.4454 517.4584 517.4584 517.4584 517.6018 517.6018
   517.6018 517.7004 517.7004 517.7004 517.7814 519.4993 519.4993 519.5272
   519.5272 519.5272 519.5783 524.3528 524.3528 524.3528 524.7035 524.8063
   524.8063 525.0651 525.0651 525.0651 525.6015 526.4901 526.4901 526.4901
   527.0321 527.0321 527.0321 528.4727 528.4727 528.4727 528.7563 528.7563
   528.7563 529.1817 529.1817 529.6797 529.9493 529.9493 529.9493 530.0131
   530.0131 530.4402 530.4402 530.4402 530.4655 530.4655 530.4655 531.1722
   531.2412 531.2412 531.2412 531.7119 531.7119 531.7119 531.7274 531.7274
   531.9433 531.9433 531.9433 531.9776 531.9776 531.9776 532.1333 532.1333
   532.1333 532.2852 532.2955 532.8547 532.8547 532.8547 532.8751 532.8751

          k =-0.1250 0.1250-0.1250 (  2463 PWs)   bands (ev):

   -96.2797 -57.7719 -57.7718 -57.7718  -5.1207   4.9582   6.0348   6.0348
     9.8385  11.0119  11.0119  11.2392  14.5515  14.5515  17.0674  17.9799
    19.5934  19.5934  23.6258  28.0800  28.0800  28.2430  30.8742  30.8742
    33.0662  33.0662  33.9147  36.4394  38.2041  38.2041  39.6084  41.4617
    41.4617  43.2408  43.2408  45.3402  45.8300  45.8300  48.3076  48.9267
    48.9267  48.9867  50.2214  50.3790  50.3790  51.4184  51.5497  51.5497
    53.2022  54.1722  54.3699  54.3699  56.4008  56.4744  56.4744  57.6762
    57.8226  57.8226  60.9776  60.9776  61.3412  64.7301  68.0488  69.2951
    69.2951  72.3129  73.4060  73.4060  74.9052  76.1018  76.1018  78.0931
    78.0931  79.5693  79.8294  79.8294  82.6510  83.4364  84.4953  84.4953
    85.4489  85.4489  87.3183  88.0679  88.0679  89.8684  90.0623  90.0623
    90.4989  90.8310  91.8464  91.8464  92.7667  92.7667  93.4062  94.6675
    94.7873  94.7873  96.1795  96.2162  96.2162  96.7867  96.8838  96.8838
    98.3206  99.4840  99.4840 100.8693 100.9626 100.9626 101.5563 102.7799
   102.7799 102.9872 103.8079 103.8079 104.5965 105.4745 105.4745 105.5560
   107.0652 107.0652 108.9611 108.9611 110.0262 110.2563 111.8438 111.8438
   113.1357 116.3922 116.3922 116.6174 117.2896 117.2896 118.0938 119.2860
   119.6026 119.6026 119.6178 120.1620 120.2629 120.2629 123.4288 123.4288
   124.5298 124.6178 124.6178 125.5323 125.5323 126.0386 126.3868 126.7501
   126.7501 127.3960 128.9928 128.9928 131.0439 131.8612 131.8612 132.9859
   133.8520 133.8520 134.7948 135.8312 136.7284 136.7284 137.7712 137.7712
   138.3213 139.1885 139.1885 140.2738 140.2738 140.3591 143.1283 144.1631
   145.6440 145.6440 147.9326 148.1158 148.1557 148.1557 150.8984 152.3170
   152.3170 154.2007 154.2007 155.8927 155.8927 156.2892 158.4855 158.8626
   159.3304 159.3304 159.8634 159.8634 160.6298 160.6298 161.5460 162.7249
   163.6029 163.8848 163.8848 164.7284 165.7194 165.7194 166.5106 166.5106
   166.6049 166.9270 166.9270 167.5284 167.5284 167.5709 168.2458 168.2458
   168.3543 168.6736 169.8329 169.8329 170.2145 171.3996 171.3996 172.0848
   172.2287 172.2287 172.8261 172.8905 172.9785 172.9785 174.1732 174.1732
   175.5497 175.5497 175.8635 176.8779 177.0189 177.1408 177.1408 177.4442
   177.4442 178.6519 178.9687 178.9687 179.8598 179.8598 180.1860 181.0817
   181.1720 181.1720 181.3128 181.7578 181.7578 182.5639 183.4662 183.4662
   184.3057 185.0068 185.0068 185.1658 185.9134 185.9134 186.4575 186.8414
   187.8229 187.8229 189.0264 189.4316 189.4316 191.0075 191.0075 191.4383
   192.5445 192.5445 192.5691 194.2201 194.2365 194.2365 194.8278 194.8278
   198.5158 198.5158 198.5846 200.0744 200.0744 201.1227 201.3358 201.5728
   202.7189 202.7189 202.7556 203.0775 203.0775 203.8606 203.8606 204.8052
   205.1379 205.1379 206.5699 206.5699 207.2675 207.5337 207.5337 207.6943
   208.9081 208.9081 209.2297 209.9724 210.4979 210.4979 211.3591 212.0787
   212.0788 214.1137 214.3982 214.6476 214.6476 215.7167 216.9243 217.2273
   217.2273 219.2444 219.2444 220.5635 221.7760 221.7760 222.7402 223.2234
   223.2234 224.0128 224.0302 224.0302 224.5089 224.5089 224.5828 226.6437
   229.0178 229.4828 229.4828 229.9445 229.9445 232.0048 232.0048 232.5249
   232.5249 232.7990 235.8575 235.8575 236.3357 236.4236 236.4236 237.0543
   237.1275 238.1455 238.2963 238.2963 240.4085 240.4085 241.9996 242.4755
   242.9704 242.9704 243.0584 243.5398 243.5398 243.7949 244.1115 244.1115
   244.5354 244.9018 245.3144 245.4938 245.4938 246.3869 246.3869 246.4558
   247.3690 247.3690 248.4610 250.7129 250.7129 250.9713 251.8964 251.8964
   252.9615 253.0480 253.0480 254.9485 255.0259 255.0259 255.4147 255.4147
   255.4334 255.9899 255.9899 256.4464 256.5212 256.5212 257.5627 258.9608
   258.9608 258.9904 259.8958 260.0232 260.0232 260.2781 260.2781 261.1004
   261.2505 261.2505 261.5389 261.5389 261.8552 261.9333 262.3416 262.3416
   263.5971 263.7768 264.5091 264.5744 264.5744 265.8810 265.8810 266.5592
   268.6132 268.6132 268.7847 269.1292 269.5240 269.5240 269.7779 270.2533
   270.2533 270.7739 270.9848 270.9848 271.6040 271.6040 273.1014 273.1014
   273.1045 273.6104 273.7726 273.7726 274.0086 274.5791 274.5791 275.3881
   276.1384 276.1384 276.4165 276.8266 276.8266 277.2286 277.5111 277.5111
   278.3425 278.3990 278.3990 278.7825 279.1424 279.1424 279.4315 280.0192
   280.3303 280.3303 281.0227 281.0227 282.1521 282.1567 282.1567 283.1665
   284.1498 284.1498 284.5566 284.5566 284.8263 284.9064 284.9064 284.9703
   286.1702 286.2129 286.2129 286.4021 286.7557 286.7557 287.7257 287.7612
   287.7612 288.8724 289.0149 289.0149 289.4370 289.4370 289.5679 290.7093
   290.7093 291.2234 291.2537 291.2537 293.2182 293.3289 293.5360 293.5360
   294.5122 295.4066 295.7702 295.7702 296.5530 296.6222 296.6222 297.4039
   297.4039 297.6718 299.5400 299.5400 299.8147 300.0693 300.7564 300.7564
   302.3447 302.3447 302.4765 302.6124 302.6124 302.8828 303.1199 303.1199
   303.1504 304.3673 306.2591 306.2591 306.5616 306.5616 306.7795 309.4965
   309.4965 310.2531 310.2531 310.3276 312.9923 313.2399 313.2399 316.5156
   316.8889 318.7614 318.7614 319.4371 319.4371 320.4250 321.0488 321.0488
   321.5686 321.5686 321.6807 321.8925 321.8925 323.2026 324.4598 324.4598
   324.8054 325.2905 325.2905 325.7455 326.9111 326.9111 327.1166 328.5481
   328.5481 328.5486 329.5248 330.1458 330.1552 330.1552 330.3981 330.3981
   330.7784 330.7907 330.7907 331.2327 331.2327 332.9459 333.4162 334.5684
   334.5684 335.2476 335.2476 335.4195 335.8567 337.5523 337.5523 337.8858
   337.8858 338.4045 339.1966 340.4290 341.2559 341.2559 341.5123 341.5123
   342.2898 342.2898 342.3206 342.7418 342.8085 342.8085 343.3032 343.3032
   343.3522 344.5180 344.5180 344.5450 345.7061 345.7061 345.8646 346.2781
   346.7133 346.7133 346.7234 347.1143 347.1143 347.3308 347.4073 347.4241
   347.4241 348.6583 350.2689 350.2689 350.4499 350.4767 350.6904 350.6904
   353.1660 353.2105 353.2105 354.4223 354.4223 354.7234 354.7234 355.1135
   355.4171 355.4171 355.7594 355.7594 356.1167 356.1538 357.3943 357.4797
   357.4797 357.6060 357.6060 357.8887 358.9491 359.0069 359.0069 359.8054
   359.8054 360.0350 361.0754 361.1463 361.1464 363.7980 363.7980 364.4367
   365.3818 365.5624 365.5624 365.6247 365.6453 365.6453 366.9777 366.9777
   366.9778 367.5419 367.5419 367.5940 369.5550 369.5550 369.6821 370.0372
   370.0372 370.0577 370.2543 370.2543 370.5981 370.6886 370.6886 370.8056
   372.4481 372.6268 372.6268 373.0461 373.0461 373.1313 373.5213 373.5213
   373.5836 375.3753 375.3753 375.4760 375.7027 375.7679 375.8974 375.8974
   377.7608 377.7608 380.0697 380.0870 380.0870 380.3337 380.3337 380.3365
   380.6056 380.6056 380.6737 380.7188 382.2381 382.2381 382.6332 383.6423
   383.6423 384.7465 384.7465 384.8936 384.9316 386.3561 387.2161 387.2161
   387.4563 387.4563 387.7001 387.7001 388.0083 388.6255 389.0531 389.0531
   390.0698 390.1197 390.1197 390.3881 391.0791 391.0791 391.2358 392.2779
   392.2779 392.9290 394.4230 394.5722 394.8673 394.8673 395.0589 395.0589
   395.2023 395.5725 395.6790 395.6790 396.6662 396.6662 396.8002 397.4551
   397.4551 399.1254 399.1254 399.1531 399.7982 399.7982 400.0181 400.0181
   400.0206 400.4970 400.5683 400.5683 401.3387 401.4233 401.4233 401.7306
   402.1879 402.5679 402.5679 402.6496 402.7578 402.7578 403.0337 403.0337
   403.3717 403.8637 403.8637 404.2364 405.0590 405.2045 405.2045 406.8785
   406.8785 407.0704 407.2171 407.2171 408.1694 408.2731 408.4289 408.4289
   408.8003 409.5248 409.7221 409.7221 409.8339 410.1974 410.1974 410.6834
   410.6834 410.8547 411.1513 411.1513 411.4933 411.5104 411.5104 412.3893
   412.8270 413.4014 413.4014 414.2295 414.6136 414.6136 415.0940 416.2997
   416.2997 417.1684 417.5043 417.5043 417.5833 417.9085 417.9085 418.0070
   418.0070 418.4432 418.9049 418.9049 419.2466 420.3660 420.3660 420.6591
   420.7647 420.7647 421.5593 421.6488 421.6488 421.6587 421.8089 421.8089
   422.6774 422.6774 423.0623 423.7872 424.2039 424.2039 424.7279 424.7279
   424.7550 424.9093 425.4919 425.4919 428.4903 428.4903 428.5945 429.3151
   429.3151 429.4239 429.4239 429.6531 430.1453 430.3692 430.3692 430.3788
   430.6548 430.6548 430.8010 431.4089 432.4998 432.4998 432.7347 433.4931
   433.5066 433.5066 433.7240 433.7240 434.5225 434.5225 434.7721 434.7721
   434.8401 435.0208 436.5722 436.5722 436.7574 436.8566 436.8566 437.4297
   439.9908 440.0308 440.0308 442.2397 442.2397 442.2961 442.5741 442.5914
   442.5914 442.9984 443.0020 443.0020 446.5869 446.5910 446.5910 446.7778
   446.7778 446.8139 447.3294 448.2227 451.4690 451.4690 451.8565 451.8882
   451.8882 455.3545 455.4367 455.4367 456.9621 456.9621 457.0088 457.1695
   457.6221 457.6221 457.9260 457.9260 458.8292 459.0415 459.0415 459.1622
   459.1622 459.1638 461.5639 461.5970 461.5970 462.2649 462.2649 462.6715
   463.6904 464.6888 464.7526 464.7526 465.1007 465.1007 465.2869 466.6464
   466.6464 466.9366 469.0246 469.0246 469.2448 469.3210 469.5610 469.5610
   469.7102 469.7102 470.2811 470.3613 470.3613 472.2581 472.8734 472.8734
   473.0762 473.0762 473.5880 474.4415 474.4415 474.7213 477.3051 477.3051
   477.3516 478.1391 478.1391 478.2852 478.8543 479.1138 479.1138 479.6578
   479.7159 479.7159 479.9470 480.0286 480.0286 480.9098 481.0569 481.0569
   481.6956 481.6956 481.7102 482.0759 482.0759 482.2216 483.6744 483.6744
   484.3383 484.5019 484.8327 484.8327 485.5162 485.5162 485.6728 486.9275
   487.1973 487.1973 487.8793 488.1606 488.1606 488.1994 488.6168 489.0577
   489.0577 489.7261 489.7261 490.2870 491.1912 491.1912 492.6579 492.6579
   493.0761 493.4993 493.4993 493.5468 494.0679 494.0679 494.7263 495.6728
   495.6728 495.9232 495.9580 495.9580 496.0010 496.1829 496.1829 496.2232
   496.2367 496.7370 496.7370 498.8804 498.9913 498.9913 499.2657 499.2657
   499.4142 500.1883 500.3163 500.3163 500.6919 500.9199 500.9395 500.9395
   501.0597 501.0597 501.1967 501.4973 501.4973 502.6138 502.6314 502.6314
   502.7237 502.7237 502.9508 503.0389 503.2061 503.2061 503.7882 503.8827
   503.8827 504.2741 505.0462 505.8607 505.8607 506.0552 506.2187 506.2187
   506.7073 507.0285 507.0285 507.0667 508.1987 508.1987 508.7267 508.7267
   508.7780 509.0369 509.0369 510.4580 510.7602 510.7602 511.0230 512.0634
   512.0634 512.1873 512.4738 512.4738 512.6107 512.8162 512.8315 512.8315
   513.3709 513.5724 513.5724 513.8010 513.9371 513.9773 513.9773 514.3694
   514.4379 514.4379 514.5058 514.5058 514.6129 514.8040 514.8040 514.8457
   514.8457 515.2485 516.9795 517.1097 517.1097 517.1334 517.6004 517.6004
   517.9148 517.9148 518.1277 518.5230 518.5230 518.7942 519.5944 519.5944
   519.8161 520.0708 520.4062 520.4062 520.6143 520.6143 520.7514 521.4505
   521.4505 521.5946 523.2617 523.6073 523.6073 524.4303 524.4303 524.8732
   525.3839 525.3839 525.5059 525.5780 525.9404 525.9404 526.4952 526.4952
   526.7356 527.2944 527.5020 527.5020 527.9750 528.0634 528.0634 528.3991
   528.3991 528.5699 528.6930 528.6930 529.1875 529.5172 529.5172 529.5199
   529.7808 529.7808 529.8018 530.8937 531.0033 531.0322 531.0322 531.7452
   531.7452 532.3948 532.5561 532.5561 533.1147 533.1147 533.7476 533.7476
   533.8043 534.0004 534.0948 534.9892 534.9892 535.5744 535.5744 535.7470

          k =-0.2500 0.2500-0.2500 (  2451 PWs)   bands (ev):

   -96.2796 -57.7720 -57.7719 -57.7719  -4.6399   3.0159   5.7403   5.7403
     9.4745  11.3226  11.3226  13.0616  14.5243  14.5243  16.5357  19.8230
    21.8261  21.8261  24.9141  24.9141  24.9383  26.9579  31.0308  31.0308
    33.4069  33.4069  35.0627  36.2090  36.9587  38.2863  38.2863  40.6167
    40.6167  41.8136  41.8136  44.5766  44.9053  44.9053  46.0178  46.1909
    48.2189  48.2189  49.8304  50.7602  50.7602  50.9267  52.1809  53.4236
    53.4236  56.5542  56.5542  57.2462  57.7687  57.7687  59.0515  60.7679
    63.4796  63.4796  63.8442  64.1366  64.1366  66.1134  66.1134  67.7243
    68.7411  68.9404  68.9404  71.5685  73.3680  73.3758  73.3758  75.9118
    75.9118  79.1154  81.0091  81.0091  81.7891  82.4029  82.7120  82.7120
    84.3714  84.3714  85.0436  86.2617  86.3850  86.3850  88.1110  88.1110
    89.2422  90.7084  91.0924  91.0924  92.2091  92.4311  92.4311  94.9404
    95.3617  95.3617  96.1946  96.2937  96.2937  97.2284  98.2809  98.2809
    98.7449 100.3010 100.8625 100.8625 101.8754 101.8754 103.3515 103.3515
   103.6970 104.0967 104.0967 105.2288 106.1275 107.5041 107.5041 108.6503
   109.4342 110.5446 110.5446 111.0912 111.0912 111.5370 113.5445 113.6280
   113.6458 113.6458 114.9166 114.9166 115.6380 116.4173 116.4173 117.6352
   118.2302 118.2302 119.3215 119.3215 120.5836 121.6852 122.5557 122.5557
   122.6037 123.8987 123.8988 124.2044 124.4617 124.4617 125.8037 126.0257
   127.4196 127.4196 130.6049 131.3849 131.3849 134.7340 134.7340 135.8213
   135.8213 135.9568 136.5230 136.5230 137.0448 139.0335 140.4725 140.4725
   142.0152 143.4112 143.4112 144.4878 144.4928 144.4928 144.9058 145.9983
   145.9983 146.7330 147.4952 147.4952 148.2143 148.3514 148.3514 149.9344
   149.9344 150.3053 151.0819 151.5580 151.5580 152.1762 153.1345 153.4949
   154.6230 154.6230 155.5729 155.5729 157.0060 157.0060 157.4511 159.4880
   160.0074 160.1455 160.1455 161.8061 161.8061 162.7219 163.5112 163.5112
   164.2246 165.9761 165.9761 166.0709 166.0709 166.5106 166.7027 168.1814
   168.8225 168.8225 169.4625 169.4625 171.3604 171.3604 171.8943 172.1027
   172.2175 172.2175 172.6693 173.8481 173.8481 173.9399 174.5023 174.5023
   175.5125 176.7280 176.7280 176.8605 176.9280 177.4848 177.4848 177.9577
   178.9625 178.9625 179.4508 180.2128 180.2128 181.5856 181.5856 183.9598
   183.9898 183.9898 184.3427 184.3427 184.4711 185.0748 185.7602 185.7602
   186.9728 187.2837 187.2837 187.9514 187.9514 188.2054 189.0449 189.0449
   189.3347 189.4946 190.3489 190.8777 190.8777 191.4442 191.4442 192.4244
   193.4313 193.4313 194.2528 194.2528 194.6245 194.6245 195.2020 195.9779
   196.2234 197.5420 197.5420 198.0445 200.4039 200.6961 200.6961 202.0343
   202.0343 202.2140 203.7400 203.7609 203.8513 203.8513 204.1333 204.1333
   205.8934 205.8934 206.5537 207.2244 207.2244 207.3920 209.4769 210.2233
   210.2233 211.5308 212.2898 212.2898 213.5084 213.5950 213.5950 214.2392
   214.3352 214.3352 217.3834 217.3834 217.7943 218.0664 218.1775 218.1775
   219.4403 219.4403 219.8738 221.6011 222.2022 222.2022 223.0645 223.2144
   223.2144 224.2203 224.2203 224.2607 225.7241 225.7241 226.2722 228.0923
   228.0923 228.2404 229.3898 230.5572 230.5572 231.3247 231.7590 232.1707
   232.1707 232.1898 233.3025 233.3025 233.8965 233.8965 234.5802 234.8481
   235.1748 235.1748 235.5605 235.5605 235.6835 236.6601 236.6601 237.6520
   238.1982 238.1982 238.3534 239.2610 239.7688 239.7688 240.2167 240.2167
   241.2038 242.2106 242.2106 243.5201 243.5201 244.6034 244.7782 246.0091
   246.0091 246.5362 246.5362 247.6316 248.7199 248.9190 248.9190 249.8661
   253.7481 253.7899 253.7899 254.2662 254.2662 254.6214 254.9745 254.9745
   255.2318 255.3024 256.9545 256.9545 257.3084 257.3084 257.7313 258.6036
   259.0172 259.0172 260.6551 260.6551 261.2934 261.5577 261.5577 261.9623
   261.9623 262.0985 262.1484 262.5926 262.5926 262.6342 263.0437 263.0437
   264.2134 264.2343 264.2343 264.6386 264.8555 264.8555 265.6263 265.9169
   265.9334 265.9334 266.6931 266.6931 267.2687 267.7501 267.7501 268.7916
   268.7916 268.8031 269.9768 270.0365 270.5648 270.5648 270.7598 271.4306
   271.4306 272.4195 272.4195 272.7227 272.7227 272.7796 273.5408 275.4413
   275.7028 275.7028 276.2876 276.2876 276.6837 276.6837 276.7664 277.4094
   279.0119 279.0923 279.0923 279.2997 279.2997 279.4512 281.6376 281.6376
   281.8787 281.9966 281.9966 282.1986 282.6639 282.6639 282.8737 283.0882
   283.1546 283.1546 283.4059 284.4123 284.7410 284.7410 286.1539 286.3072
   286.3072 286.5956 286.5956 286.7414 289.9120 290.6586 290.6586 291.4941
   291.4941 291.7811 292.6725 292.6725 293.6907 294.2451 294.2451 294.2638
   294.5935 294.5935 295.3466 295.8609 295.8609 296.6873 297.8326 299.7167
   299.7167 299.9686 300.1298 300.1298 300.7118 300.7774 300.7774 301.0679
   301.1685 301.1685 302.3713 302.3713 302.4365 303.4353 303.4353 303.7760
   304.2181 304.2181 304.8680 304.8680 306.6517 306.6517 307.9599 308.2891
   308.4197 308.8374 308.8374 308.8472 309.9948 310.3365 310.3365 311.9750
   311.9750 312.6684 313.1048 313.1048 313.2791 313.2791 313.5310 314.2425
   314.4549 314.4549 314.4704 315.6663 315.6663 316.7149 316.7149 316.7473
   317.5876 318.1940 318.1940 319.9078 320.8213 320.8213 321.2954 322.6645
   322.6645 323.1709 323.3484 323.3484 323.3979 323.8575 324.3667 324.3667
   324.4710 324.5875 324.5875 324.7083 324.7083 325.4820 326.2780 326.2780
   326.3002 327.1885 327.1885 331.3372 331.4149 331.4149 332.1795 332.1795
   332.3554 333.5466 334.3563 334.3563 334.6541 334.7954 334.7954 335.1790
   335.6719 335.6719 335.8036 339.2055 339.2055 339.4830 339.4830 339.5786
   339.8108 339.8823 339.8823 340.8099 341.1197 341.1197 341.6855 343.5442
   344.0760 344.0760 344.4562 344.4562 344.5459 344.5459 344.6148 344.6323
   345.3706 345.3706 346.2214 346.4082 347.2239 347.2239 347.3352 347.3896
   347.3896 350.3730 350.3730 350.3889 350.8994 351.3499 351.3499 351.9989
   352.7740 352.7740 352.8296 354.0853 354.0853 354.6162 354.7391 354.7391
   355.3431 355.6367 355.6367 356.1472 356.1472 356.2303 357.6418 357.8132
   357.8132 358.3096 359.9785 361.4831 361.4831 362.7775 362.7775 363.0640
   363.2663 363.2663 363.4924 363.5334 363.5334 364.2336 365.6842 365.7371
   365.7371 366.1372 366.1372 366.2531 366.4271 366.7870 366.7870 366.9029
   366.9374 366.9374 369.2066 369.5066 369.5066 370.0681 370.0681 370.3057
   371.1508 371.1508 372.0367 373.2150 373.2150 373.3178 373.4005 373.4005
   374.1066 374.1066 374.1631 374.4446 374.4446 375.0200 375.0200 375.0679
   375.6128 375.7008 375.8192 375.8192 376.1921 376.5369 376.5369 376.6796
   376.6796 377.0945 377.8731 378.2988 378.2988 378.7570 378.9091 378.9091
   379.3628 379.3628 379.6217 380.8563 380.8563 380.8955 382.3159 382.3159
   382.4623 383.4892 383.4892 383.5660 383.7397 384.1818 384.1818 384.4970
   384.4970 384.5007 384.9293 385.4485 385.4485 385.8697 385.8697 385.9277
   386.4527 386.4527 386.6742 386.7996 386.7996 386.9414 387.0391 387.0391
   387.1695 389.8357 389.9461 389.9461 391.1145 391.3817 391.7512 391.7512
   392.5927 392.5927 392.6404 393.8035 393.8035 394.1797 394.3439 394.3439
   394.3526 395.6155 395.7637 395.7637 398.6244 398.6244 398.8529 399.1962
   399.1962 399.4871 399.5882 399.7055 399.7055 399.8853 399.8853 401.1533
   401.1533 401.6831 403.0257 403.2161 403.4893 403.4893 403.6170 403.6170
   403.8919 404.0099 404.0099 404.2166 404.2166 404.7952 404.8882 405.5830
   405.5830 405.8424 405.9218 405.9218 406.0195 410.0329 410.1564 410.1564
   410.6313 410.6313 410.8015 411.0739 411.0739 411.3064 411.7410 411.7410
   412.1232 412.8111 412.8111 413.3329 413.9647 413.9647 414.0327 415.3930
   415.3930 416.2642 416.4409 417.1482 417.1482 418.1959 418.1959 419.0296
   419.7100 420.1862 420.1862 420.6191 420.6191 420.7096 420.7096 420.8662
   420.9260 422.4899 422.4899 422.6518 423.0539 423.0539 423.5938 423.7581
   423.7581 423.9295 424.8473 424.9243 424.9243 425.9227 425.9227 426.4621
   426.5215 426.5215 426.5796 428.1084 428.6973 428.6973 428.7330 428.8645
   428.9298 428.9298 429.4957 429.7531 429.7531 429.9915 429.9915 430.6982
   431.9707 432.4509 432.4509 432.5897 432.5897 432.8922 433.0251 433.0251
   434.0448 434.0533 434.0533 434.1017 434.4214 434.4214 434.5248 434.6784
   434.6784 435.0438 436.2803 436.2803 436.3879 436.7673 436.7673 438.0679
   438.8607 439.7894 439.7894 440.2215 440.9106 440.9106 440.9899 441.3091
   441.3091 441.5257 441.5257 443.0425 443.0513 443.0513 443.2683 443.4926
   443.4926 444.7335 446.8135 446.8135 447.6399 447.9309 447.9309 448.7350
   448.7522 448.7522 448.9095 450.1802 450.6924 450.6924 452.0654 452.0654
   452.2644 452.2667 452.3527 452.3527 452.5443 452.5443 453.8015 453.8015
   454.2584 455.4581 455.4581 456.1557 456.9326 456.9326 457.0160 458.5299
   458.5299 458.5360 461.8901 461.8901 462.1017 463.6613 463.6613 463.7489
   465.2699 465.2699 465.4828 465.5570 465.6016 465.6016 465.8497 465.8497
   466.0060 466.5953 466.5953 467.2170 467.3558 467.3558 467.9159 468.0167
   468.5767 469.1691 469.1691 469.5853 469.5853 469.6900 470.1817 470.6289
   470.6289 471.1854 471.1854 471.3141 472.8322 472.8504 472.8504 475.3450
   475.3450 475.6120 476.2204 476.2204 476.5837 476.7571 476.7571 477.0380
   477.0380 477.1063 477.3007 477.9275 477.9275 478.1430 478.7017 478.7017
   478.9544 478.9544 479.1903 479.3981 479.9565 479.9565 480.1927 480.1927
   480.4541 481.3415 481.3415 481.8281 483.3148 483.3148 483.4255 483.4420
   483.8099 483.9519 483.9519 484.9869 484.9869 485.2034 485.5861 485.5861
   486.0941 486.1149 486.1149 486.2295 486.4117 487.0155 487.0155 488.4190
   488.4190 488.8078 488.9318 488.9318 489.7445 489.7445 489.8591 492.0833
   492.8660 492.8660 492.9860 492.9886 492.9886 493.5781 493.9026 493.9026
   494.0691 494.7405 494.7405 494.7635 495.3281 495.4443 495.4443 495.6566
   495.6566 495.8292 496.4713 496.4713 496.5068 497.9108 497.9499 497.9499
   498.0858 498.1171 498.1171 498.6711 498.6777 498.6777 498.9358 498.9358
   499.7511 501.1585 501.5724 501.5724 502.2909 502.2909 502.3025 502.3444
   502.3858 502.3858 503.9251 503.9557 503.9557 504.1206 504.1357 504.1357
   504.6682 504.6682 504.6820 506.2846 506.2846 506.5864 508.2590 509.1485
   509.1485 509.5435 510.3911 510.3911 510.4190 510.6332 510.6332 510.8196
   511.0029 511.0029 511.5481 511.9795 511.9795 512.5005 512.5005 512.8342
   512.9463 513.0478 513.0478 513.1032 513.6104 513.6104 514.2516 514.2516
   514.2605 514.2847 514.3485 514.3485 514.7875 515.1099 515.1099 515.7538
   517.3476 517.3476 517.5631 518.5693 518.5693 518.8245 519.5077 519.5077
   519.5249 519.6716 519.6716 519.7661 520.2331 520.2331 520.6124 520.6124
   520.7891 521.1730 521.1730 521.3582 523.8737 523.8819 523.8819 524.0814
   524.0814 524.1235 525.5201 525.5649 525.5922 525.5922 525.8871 525.8871
   525.9112 526.1308 526.1308 526.1542 526.3580 526.3740 526.3740 527.7508
   527.7508 527.8297 527.9175 527.9175 529.6423 529.7392 530.5707 530.5707
   531.1857 532.3910 532.3910 532.6118 532.8463 532.8463 535.2971 535.2971
   535.5749 535.8931 535.8931 535.9958 535.9958 536.2951 536.8609 536.8609
   537.1230 537.3856 537.3856 537.5148 537.7223 537.7223 537.7450 537.9699
   537.9699 538.1351 538.2358 538.2358 538.4972 539.0152 539.5664 539.5664

          k =-0.3750 0.3750-0.3750 (  2455 PWs)   bands (ev):

   -96.2798 -57.7721 -57.7719 -57.7719  -3.9949   1.3849   5.5045   5.5045
     9.1022  11.1451  11.1451  14.3192  15.9008  15.9008  16.7740  21.0342
    21.0342  21.5420  23.9729  25.5100  25.5100  29.9054  30.9215  30.9215
    31.3550  33.3420  33.3420  35.3503  35.3503  36.5649  37.6529  39.4610
    39.4610  40.9413  40.9413  41.0238  44.1192  44.6912  47.4669  47.4669
    48.5999  48.5999  49.7287  50.9504  50.9592  50.9592  53.6770  55.3171
    55.3171  58.0358  58.0358  59.1339  60.9750  61.2152  61.2152  62.6094
    62.6094  64.2902  64.2902  65.4189  65.6203  67.0048  67.9300  67.9300
    68.4545  69.4073  69.4073  70.9066  70.9066  72.9378  72.9378  72.9655
    75.1286  76.6015  77.2790  78.0634  78.0634  79.7976  79.7976  80.9547
    83.6148  83.6148  83.6955  83.8601  86.0073  86.0073  88.0129  88.0129
    90.6270  90.6270  90.6688  91.2057  91.5661  91.5661  93.7124  93.7492
    93.7492  94.1755  96.5871  96.5871  96.9015  97.7777  98.9691  99.6753
    99.6753 101.5576 101.5576 101.6625 102.4650 102.6788 102.6788 103.1369
   104.8043 104.8043 105.6385 106.3701 106.3701 107.2186 107.7228 107.7228
   109.7051 110.5469 110.7718 110.7718 112.6750 112.6750 113.1745 113.8102
   113.8102 115.1687 115.5153 115.5153 115.6333 118.2885 118.2885 118.4515
   118.9339 118.9340 120.5085 120.5085 120.6154 121.8266 122.0143 122.0143
   122.2542 123.2470 124.2975 124.2975 125.1742 125.1742 128.8382 128.8382
   128.9040 130.7249 130.7249 131.8616 132.6538 132.6538 132.9044 135.0819
   136.9529 137.1438 137.1438 139.6879 139.6879 140.6787 140.6787 140.9357
   141.3352 142.1806 142.4143 142.4143 144.0049 144.0049 144.4942 144.7004
   144.9476 144.9476 146.4433 146.4433 148.0881 148.0881 148.2936 149.6133
   149.6133 149.6205 149.9300 151.3456 151.3456 151.6899 152.8066 152.8066
   153.0500 154.1031 154.8805 154.8805 156.6508 156.9767 156.9767 157.5305
   157.5305 158.4247 158.6534 158.6534 160.1494 161.6665 161.6665 161.7362
   163.3352 164.3724 164.3724 165.1846 165.1846 165.4016 166.3924 167.6129
   168.5851 168.5851 168.7432 168.7432 169.4691 169.5461 169.5461 170.1806
   170.2908 170.2908 171.1999 171.1999 171.4940 172.9625 174.1283 174.2897
   174.2897 175.8791 175.8791 178.3863 178.3863 178.3919 178.3966 178.9235
   178.9235 179.8080 179.8080 179.8230 180.4430 180.8496 180.8496 182.4193
   182.8959 182.8959 184.3108 184.5401 184.7555 184.7555 185.0158 185.6222
   185.6222 187.9645 187.9645 188.1531 188.1531 188.5530 188.9910 188.9910
   189.6650 190.1421 192.8833 192.9764 192.9764 195.7818 195.7818 196.3990
   197.1752 197.1752 197.9082 197.9082 198.1224 198.2442 198.5564 199.2932
   200.5115 200.5115 201.5321 201.5321 201.8270 202.3430 202.3430 203.4332
   203.4822 203.4822 204.4933 204.7423 204.7423 204.7522 206.3576 206.3576
   206.9267 206.9267 207.9426 208.6108 208.6124 208.6124 209.9313 211.1858
   211.1858 213.5433 213.6165 214.0597 214.0597 215.2125 215.2125 215.9655
   215.9655 216.5372 216.9651 217.4270 217.4270 218.1311 218.1311 219.6873
   220.3834 220.9812 221.6628 221.6628 222.2072 222.2072 222.7214 223.5156
   223.5156 223.7736 224.1814 224.1814 224.6556 224.6556 224.6878 225.8759
   226.8097 226.8097 227.0443 227.6407 227.6407 228.2111 228.3698 228.3698
   229.2138 229.2138 229.8565 229.8565 230.1248 230.6224 232.8192 232.8192
   233.6733 234.6017 234.6017 234.8617 235.5897 235.5897 235.9809 236.3279
   237.0375 237.1109 237.1109 238.9426 238.9748 238.9748 240.2974 240.2974
   240.6677 240.9154 241.5783 241.5783 243.6044 243.9017 244.0729 244.0729
   245.3451 245.3451 246.7060 246.7060 247.9280 248.1045 248.5719 248.5719
   248.6423 248.6423 249.8819 250.1155 250.1155 252.0347 253.0179 253.0179
   253.3822 254.2457 254.3078 254.3078 254.9589 254.9589 255.2957 255.3926
   255.3926 255.4045 257.5886 257.5886 257.8312 257.8312 258.3558 258.5701
   258.5701 258.6591 260.7080 260.7080 260.9836 262.3597 262.5386 262.5386
   264.0737 264.0737 264.4488 264.7735 264.7735 264.9839 265.4620 265.4620
   265.6257 268.0085 268.2255 268.2255 268.5264 269.9908 270.7288 270.7288
   271.3223 271.7963 271.7963 272.6890 272.6890 273.1886 273.5522 273.7545
   273.7545 273.8428 274.5325 274.5325 275.9082 275.9082 276.1840 277.1126
   277.1126 277.4565 277.4565 277.7693 277.7693 277.7769 277.8839 278.3006
   279.2894 279.2894 279.9513 279.9513 279.9832 280.1970 281.4450 282.9859
   282.9860 283.6460 283.9036 284.0491 284.0491 284.4015 284.4015 284.5352
   284.5352 284.6646 285.2187 285.2187 285.7590 286.0828 288.3669 288.5836
   288.5836 288.7170 288.7170 289.0027 289.1471 289.1471 291.5495 291.5738
   291.5738 295.2688 295.2688 295.6698 295.8900 295.8900 296.3687 296.3687
   296.8542 297.9355 298.5127 298.8195 298.8195 299.2317 299.2317 299.6853
   299.8053 300.2817 300.2817 301.1019 302.3061 302.3061 302.5683 302.6749
   302.6749 303.0335 303.0335 303.4774 305.2041 305.2243 305.2243 305.7456
   305.7456 306.0323 306.7710 306.7710 307.5111 307.7209 308.6608 309.4491
   309.4611 309.4611 309.8679 309.8679 310.2578 310.2578 310.4698 310.8420
   310.8420 311.1458 311.1458 311.2311 311.3463 312.0484 313.1104 313.1104
   315.1826 315.3632 315.3632 316.7043 316.8645 316.8645 317.2569 317.2569
   317.4181 318.5493 318.5493 318.7147 322.1796 322.1796 322.5527 322.5527
   322.9795 323.9633 323.9633 324.0581 324.3430 324.3822 324.3822 324.7735
   324.9821 325.2585 325.2585 325.5898 325.5898 325.6779 326.2889 326.2889
   326.6779 326.6851 326.6851 326.8905 326.9030 327.3756 327.4207 327.4207
   327.9779 328.7276 328.7276 330.3546 330.3546 331.8784 331.8784 332.1309
   334.4050 334.4050 335.1757 335.7525 335.7525 336.1680 336.2988 336.7486
   336.7486 338.0083 339.8393 339.8393 339.9321 341.2499 341.6527 341.6527
   342.3378 343.3349 343.3349 343.7077 343.7077 344.8452 345.0076 345.8423
   345.8423 346.4030 346.4030 346.7815 347.2397 347.2397 348.0622 348.0622
   349.4471 350.0029 350.0029 350.5812 350.5812 350.5851 350.7193 351.7848
   351.7848 351.8506 352.5416 352.5416 352.6177 354.4361 354.4361 354.9289
   355.9967 356.0098 356.0098 356.4225 356.4777 356.4777 356.7992 356.7992
   357.7772 358.7761 359.9510 359.9510 360.4184 361.5196 361.5196 361.8929
   361.9605 361.9605 363.5971 363.5971 363.7523 365.2410 365.3597 365.3597
   365.9943 365.9943 366.3303 366.9083 366.9083 367.2297 367.5355 367.7484
   368.3015 368.3015 368.3213 368.5482 368.5482 369.1726 369.1726 369.4620
   369.4620 369.7005 369.8304 369.8304 369.8873 370.0330 370.3280 370.3280
   371.4179 371.4179 371.5829 373.1138 374.0217 374.6329 375.8150 375.8150
   376.4389 376.4389 376.9293 376.9293 376.9830 377.1505 377.3283 377.3283
   377.3948 377.7684 377.7684 378.5651 378.5651 378.7170 379.3445 379.3445
   379.5395 379.7163 379.7163 379.7167 379.8709 379.8709 380.6449 380.7263
   380.7263 381.1533 381.1533 381.2136 381.9812 382.7822 382.8228 382.8228
   383.4973 383.4973 383.9471 383.9471 384.0493 384.3121 385.1762 385.1762
   385.9105 385.9105 385.9154 385.9874 387.2472 387.2670 387.2670 388.4786
   388.4786 388.6972 388.7714 388.7714 388.9995 389.7748 389.8988 389.8988
   390.2067 390.2067 390.2528 391.8694 391.8694 393.1850 393.5709 393.5709
   394.9631 394.9631 395.2319 397.2583 397.2583 397.4237 398.3028 398.8304
   398.8304 401.0099 401.0099 401.1806 401.5042 401.5042 401.7419 401.7448
   401.7448 401.9853 402.0069 402.0069 402.7581 404.4631 404.4631 405.2033
   405.7497 405.7497 405.8633 408.0609 408.3196 408.3196 409.3096 409.3096
   409.3178 409.9040 409.9608 409.9608 409.9730 410.3946 410.3946 410.5935
   411.1669 411.1669 411.2761 411.9458 411.9458 412.5928 413.4048 413.5907
   413.5907 414.1496 414.1496 414.2834 414.2834 414.4911 415.7973 416.7458
   416.7458 417.3626 417.3626 417.6697 418.1140 418.3407 418.3407 418.8364
   418.9360 418.9360 419.5629 421.3919 421.3919 422.1805 422.6127 422.6603
   422.6603 423.4596 424.1792 424.1792 424.3166 424.6204 424.6204 425.3262
   425.3262 425.3670 425.7911 425.7911 426.2576 426.3427 426.3441 426.3441
   426.4739 426.9100 427.1027 427.1027 428.0016 428.0016 428.2888 429.5857
   429.5857 429.9224 430.8158 430.8158 431.1045 431.1045 432.0983 432.2805
   432.2805 432.8629 434.8814 434.8814 435.2932 435.6040 435.6040 435.8808
   435.9824 435.9824 436.3932 437.6853 437.6853 438.1861 438.4157 438.4157
   439.4651 439.5346 439.7441 439.7441 441.2375 441.2375 442.1310 442.1457
   442.1457 442.3681 442.4913 443.2435 443.2435 443.3215 443.4070 443.4070
   443.4373 443.6735 443.6735 445.8267 445.8267 445.9258 446.7951 446.8030
   446.8030 447.4098 447.4098 447.5082 448.6736 448.6736 448.8045 449.2060
   449.2938 449.2938 451.1773 451.8820 451.8820 451.9965 452.2542 452.2542
   454.8204 454.8612 454.8612 454.9140 455.1097 455.1097 455.4637 455.5941
   455.5941 456.1692 456.1963 456.1963 456.5545 456.7852 456.7852 457.6962
   457.6962 457.7803 458.1191 458.7464 459.4186 459.4186 460.1709 460.1709
   460.7695 460.7695 460.8175 463.0219 465.1503 465.1503 465.2058 466.1112
   466.1112 466.4153 467.2493 467.2493 467.5628 467.6627 467.6627 467.9251
   467.9251 467.9968 468.2377 468.5607 468.7583 468.7583 469.3609 469.3609
   469.5091 470.5544 470.5544 470.6335 471.5743 471.5743 471.6625 472.2510
   472.3475 472.3475 472.7251 472.9122 473.0270 473.0270 473.2214 473.2214
   474.5919 474.5919 474.6747 474.6747 474.8713 475.0593 475.0593 475.1445
   475.3567 475.3567 475.4731 475.5112 475.7824 475.7824 476.2781 477.2839
   477.2839 477.4130 477.7033 477.8188 477.8188 478.3883 478.3883 478.4926
   481.7638 481.7638 481.7818 482.5644 482.6319 482.6319 483.2152 483.2152
   483.2781 483.8085 483.8085 484.0049 484.5445 484.5445 484.8028 485.1744
   485.1744 485.2965 485.4111 485.8497 485.8497 486.1349 486.1349 486.4566
   489.5430 490.0221 490.0221 490.0311 491.6982 491.6982 491.7177 492.6923
   492.6923 492.8257 493.3781 493.3781 493.8136 494.7797 495.2908 495.2908
   495.4865 495.6274 495.6274 495.6978 496.7320 496.7320 497.3369 497.8365
   497.8365 498.1901 498.5041 498.5041 498.7868 499.2069 499.2284 499.2284
   499.3864 499.3864 500.0946 500.0946 500.5316 500.5597 500.5597 500.6022
   500.6704 500.6704 502.2651 502.2651 502.3283 503.1329 503.1329 503.1879
   504.3373 504.3373 504.4634 504.6485 504.7629 504.7629 506.2404 506.2592
   506.2592 506.4392 506.4392 506.4861 507.1126 507.3333 507.3333 509.2460
   510.2996 510.2996 510.4044 511.6422 511.6422 512.5337 512.5337 512.5699
   513.2963 513.2963 513.3992 513.5230 513.7541 513.7541 514.1842 514.2726
   514.2726 514.4887 514.4887 514.5250 514.9430 514.9430 516.0082 516.0082
   516.0116 516.1636 516.1636 516.1792 516.2600 516.6262 516.6812 516.6812
   521.1136 521.1136 521.1365 522.3084 522.3084 522.3776 522.3776 522.4549
   522.4880 523.2491 523.4382 523.4382 523.7691 523.8031 523.8031 523.8384
   523.8384 523.8829 524.1724 524.1724 524.6311 524.8900 524.9310 524.9310
   525.2589 525.2589 525.6680 526.9911 527.2542 527.2542 528.2587 528.2587
   528.4493 529.3372 530.5141 530.5141 530.5574 530.9193 530.9193 530.9816
   531.2808 531.3855 531.3855 532.3586 532.3586 532.9524 533.3644 533.3644
   533.6929 533.8387 533.8387 535.0631 537.1037 537.1037 537.5652 539.2599
   539.2599 539.3877 540.0432 540.0432 540.0872 540.5957 540.5957 540.7479
   542.4783 542.4787 542.4787 542.5259 542.6135 542.6135 543.5431 543.5431

          k = 0.5000-0.5000 0.5000 (  2452 PWs)   bands (ev):

   -96.2797 -57.7722 -57.7719 -57.7719  -3.6305   0.6796   5.4189   5.4189
     8.9675  11.0062  11.0062  14.4387  17.7008  17.7008  17.9500  18.7908
    18.7908  20.2873  26.5968  27.8933  28.0488  28.0488  29.4411  29.4411
    32.5863  32.8073  32.8073  34.6749  34.6749  35.2339  38.0415  39.0437
    39.0437  39.9124  40.4553  40.4553  43.2704  44.0340  47.5233  47.5233
    49.6330  49.6398  49.6398  50.8491  52.6291  52.6291  55.4229  55.4229
    55.6666  59.0107  59.0107  59.0643  60.5290  60.5290  60.5563  62.4919
    62.4919  65.2132  65.2132  65.6500  66.1686  66.1686  68.3956  69.0868
    69.4705  69.4705  70.6515  71.2121  72.2951  72.2951  73.4821  74.1061
    74.1061  74.2881  76.7996  77.8577  77.8577  78.3173  78.3821  78.3821
    80.2292  80.2292  83.4801  83.5501  83.5501  87.5383  88.3043  88.3043
    89.7581  91.2296  91.2296  91.3176  92.0974  92.0974  92.5317  95.5429
    95.5429  95.9432  96.7053  96.7053  97.6930  98.1771  98.8123  98.9961
    98.9961 100.1744 100.1744 100.3043 100.3109 101.7289 102.6586 102.6586
   105.2416 105.2416 107.3307 108.3755 108.3755 108.7459 109.7861 109.7861
   109.9711 110.9142 111.0794 111.0794 111.3931 111.3931 111.4182 112.1120
   113.2095 113.2095 113.7824 113.7824 114.3310 118.7093 118.7093 119.1248
   119.9662 119.9662 121.2795 121.5927 122.3190 122.3190 122.5587 122.5587
   126.2745 126.2745 126.4586 128.0290 128.0290 128.8763 128.8763 129.4819
   129.9833 131.3556 131.3793 133.1188 133.1188 133.7369 133.7369 134.3000
   134.3000 134.4867 134.8025 134.8025 136.0722 136.0722 137.0154 137.8258
   138.8031 139.5981 139.5981 142.3784 143.7503 143.7503 144.6959 145.2827
   146.6445 146.6445 147.2300 147.2300 147.8593 148.4739 148.4739 148.6933
   149.4835 151.3919 152.2192 152.2192 153.4924 153.4924 153.7301 153.7301
   154.2189 155.1371 156.2652 156.2652 157.8210 157.8441 158.2467 158.2467
   158.2916 158.2916 159.1126 159.1126 160.2864 160.2864 160.4936 160.8214
   160.9886 160.9886 163.4823 164.1547 164.1547 164.4317 164.4317 164.8407
   164.9399 165.7542 167.5997 167.5997 167.9720 167.9720 168.2189 169.4575
   169.4575 170.7168 170.7168 171.1877 171.6965 171.6965 172.0861 174.6345
   175.6111 175.6111 175.7428 177.2584 178.4837 178.4837 179.1913 179.5992
   179.9143 179.9143 180.4402 180.5359 180.5359 181.6220 181.6513 181.6513
   182.6497 182.6497 183.7062 183.7062 183.9362 184.0766 185.0630 185.8956
   185.8956 187.9322 188.7203 188.7203 189.1555 190.8830 191.7506 191.7506
   192.0481 192.0481 192.3709 192.5685 192.5685 192.8164 192.8164 192.9136
   193.1825 195.7233 195.7233 198.0558 198.5852 198.5852 201.2767 201.2767
   202.7313 203.6719 203.6719 203.7956 205.1767 205.1767 205.9700 205.9700
   206.7536 207.4116 207.8482 207.8483 207.9231 208.3498 208.3498 209.1294
   209.5289 209.5976 209.6196 210.3337 210.3337 211.0262 211.3941 211.3941
   213.3480 213.3480 213.3912 213.3912 215.0866 215.0866 215.1272 215.1272
   215.1993 215.3876 216.0792 216.0792 216.5954 216.8505 216.8505 217.1364
   219.5706 219.5706 219.6096 219.6096 219.7896 220.2887 220.6228 220.6228
   220.6547 220.7254 220.7254 221.7077 221.7167 222.8307 224.0702 224.0702
   225.9222 226.4720 226.4720 227.2674 229.6953 229.6953 230.2145 230.2145
   230.7472 231.2185 231.2185 231.4021 231.4021 231.4553 233.9872 233.9872
   234.0453 234.6362 234.6362 235.1712 235.1712 235.5189 236.1726 236.2140
   236.2140 236.2432 237.0268 237.9256 237.9256 238.5507 238.5507 239.2613
   241.0611 241.0611 241.2394 241.2394 241.3513 241.5292 241.7143 241.7143
   242.4532 244.8457 244.9915 244.9915 246.3287 246.3287 246.6260 246.8452
   247.2181 247.2181 248.3197 248.3197 248.8762 248.8762 249.2606 249.6509
   252.9289 253.3817 253.3817 253.7120 254.0270 254.1978 254.1978 254.6346
   256.2982 256.7196 256.7196 257.7019 257.7019 258.3897 259.0929 259.4762
   259.4762 259.6543 259.6543 259.9937 262.4982 262.4982 262.6901 262.6901
   263.6628 265.2480 265.2480 265.6956 266.4914 266.4914 267.0658 267.5760
   267.5760 268.2504 268.8009 268.8816 268.8816 269.0072 269.7265 269.7265
   270.1298 270.1298 270.1851 270.4963 272.6723 272.6723 272.7371 272.7371
   274.8283 275.0794 275.0794 276.3936 276.3936 276.7048 277.0603 277.0995
   277.0995 277.7526 277.7526 278.1334 278.3145 278.3145 278.9897 278.9897
   279.2299 279.2681 280.3186 281.8692 281.8692 282.2109 283.0056 283.0241
   283.0241 283.2562 283.2562 283.8030 283.8030 283.8597 284.3030 285.9493
   285.9493 286.4571 286.4571 286.7410 288.1728 288.1728 288.9448 288.9448
   289.9504 290.0832 291.4641 292.7087 292.7087 293.0812 293.0812 293.3538
   293.6950 294.0578 294.8256 294.8256 294.9759 294.9759 295.4155 295.8264
   297.5855 297.5855 297.7120 297.7120 298.5371 298.6652 299.2645 299.2645
   299.4296 299.4296 299.7198 300.0396 301.7115 301.7115 302.7617 302.7617
   302.9263 303.5435 305.5389 305.7519 305.7519 305.9638 305.9638 306.1211
   309.1983 309.1983 309.2658 309.2658 309.4179 309.6222 310.6282 310.7427
   310.7427 311.0962 311.0962 311.1520 311.3903 311.3903 311.4742 311.4742
   311.5349 311.6435 312.0331 312.6556 313.0435 313.0435 313.2016 313.2016
   313.6183 313.9457 313.9457 313.9915 313.9915 314.3298 315.6995 315.6995
   316.1433 316.1433 316.8823 317.4699 317.6966 317.6966 318.2309 318.2309
   318.4157 318.4157 320.0884 320.0884 320.1903 320.1903 320.4958 320.5730
   323.9389 324.2341 324.2341 324.3303 324.5871 324.5871 324.6734 325.1171
   328.7759 328.7759 329.0454 329.0454 329.0514 329.4631 331.1821 331.1821
   331.2832 331.2832 335.3393 335.3393 336.5215 336.7158 336.7158 337.4552
   337.7130 337.9259 337.9259 338.2688 338.2688 338.3385 338.3385 338.5294
   338.5946 338.5946 339.1403 339.1757 340.1566 340.1566 340.1918 340.1918
   341.1433 341.8549 341.8702 342.4622 343.0900 343.0900 344.0089 344.0089
   344.0622 345.3401 345.5899 345.5899 345.7169 345.8237 345.8237 346.4014
   346.4014 347.5103 347.5103 348.2376 351.2009 351.2009 351.3251 351.3251
   351.5265 351.8131 352.5138 352.5138 352.8098 352.8142 352.8142 352.9831
   353.2150 354.7151 356.2381 356.3975 356.3975 356.7809 356.7809 357.1273
   358.4746 358.5374 358.5374 359.6892 359.6892 360.3734 361.0004 361.0004
   361.5044 361.5044 361.5346 361.5346 361.9038 361.9038 362.5475 363.4585
   363.7055 363.9842 365.3156 365.3156 365.5986 365.5986 366.3382 366.3596
   366.3596 366.5425 366.5665 366.5665 368.8363 368.9699 368.9699 369.1371
   369.1371 369.4139 369.4139 369.4298 369.7258 369.7258 369.8950 370.5230
   371.1648 371.2322 371.2404 371.2404 371.3096 371.3096 373.0583 373.0583
   373.1898 373.1898 373.3025 373.4835 375.2329 375.2828 375.2828 375.4696
   375.4696 375.8331 378.8091 379.0497 379.0497 379.5461 379.5461 379.9110
   380.5981 380.8998 380.8998 381.2534 381.2534 381.3818 382.4300 383.2370
   383.3406 383.3406 383.7398 383.7398 384.0216 384.1214 384.1939 384.1939
   384.3152 384.3152 385.0135 385.1560 385.1560 385.2031 385.2065 385.2065
   388.9083 388.9083 389.1870 389.3511 389.3511 389.7764 391.0060 391.0060
   391.0489 391.0489 391.1167 391.2491 391.2561 391.4050 391.7384 391.7384
   391.7705 392.1063 392.1063 392.3810 394.5579 394.5579 394.6757 394.6757
   395.1618 396.5985 396.6055 396.6055 396.7246 396.7246 397.4196 397.4707
   397.8243 397.8243 397.9311 397.9311 398.4708 398.4708 398.4899 398.4899
   398.5209 398.5504 400.8808 401.4069 401.7923 401.7923 401.9180 401.9180
   401.9322 402.5036 408.0514 408.0514 408.2819 408.2819 409.2488 409.7140
   409.7646 409.7646 409.8660 409.8660 409.8948 410.0624 411.6963 411.6963
   411.7085 411.7086 414.4155 414.4155 414.9141 415.1319 415.1319 415.4458
   416.1964 416.5147 416.5147 416.6577 416.6577 417.6168 417.6168 417.8851
   417.9704 417.9704 418.4557 418.5654 418.6051 418.6453 418.6453 418.8154
   418.8154 419.1083 419.1174 419.1174 419.3222 419.3222 419.3857 419.5449
   421.5594 421.5798 421.5798 421.7069 421.7069 421.8079 425.1431 425.1431
   425.4364 425.4622 425.4622 425.7785 429.7331 429.7331 429.7542 429.7542
   429.8105 429.8518 431.0348 431.0348 431.1217 431.1757 431.1757 431.4006
   431.7705 432.1031 432.1031 432.2429 432.2429 432.3569 433.0361 433.8551
   434.0545 434.0545 434.1428 434.1428 434.8133 434.8133 434.9520 434.9968
   434.9968 435.1958 435.3016 435.3836 435.4026 435.4026 435.5172 435.5172
   439.6120 439.6120 439.6397 439.6397 440.2642 440.2748 442.3313 443.2902
   444.7185 444.7185 444.8681 445.5014 445.5014 445.7024 446.7805 446.7805
   447.2485 447.2485 448.0948 448.3980 448.4974 448.7178 448.8612 448.8612
   448.9193 448.9193 449.8759 449.8759 449.9439 449.9439 450.6365 451.1822
   451.2230 451.2230 451.5849 451.5849 451.7495 451.9990 453.4741 453.4741
   453.5603 453.5603 454.1632 454.5602 455.5403 455.5403 455.6761 455.9562
   455.9562 456.3644 457.8694 457.8836 458.5767 458.5767 458.5841 458.5841
   458.8808 459.1856 459.1856 459.2341 459.2341 459.4427 460.2175 460.2175
   460.2351 460.2351 460.6312 460.6529 461.6343 461.6596 461.6596 461.7146
   461.7146 461.7411 461.7411 461.7459 461.8136 461.8136 461.8634 461.9150
   466.9553 466.9553 467.0422 467.1923 467.1923 467.3508 468.8202 469.1433
   469.1433 469.3468 469.3468 469.5923 469.5923 469.9581 469.9581 470.0442
   470.2246 470.3159 470.3246 470.3617 470.9256 470.9256 470.9447 470.9447
   474.0488 474.7060 475.0396 475.0396 475.1402 475.2844 475.2844 475.9095
   477.0910 477.0910 477.1192 477.1327 477.1327 477.2838 479.3589 479.3589
   479.3805 479.3805 479.4498 479.5497 479.5497 479.5897 479.5897 479.7249
   480.6442 480.9165 480.9165 481.3400 481.3400 481.4859 481.7410 482.1790
   482.1790 482.7913 482.7913 483.1307 484.6417 484.9369 484.9369 485.4905
   485.4905 485.7474 486.6497 487.0262 487.0262 487.0341 487.0341 487.2952
   487.4433 487.4433 487.7140 487.7140 487.7326 488.1392 488.4020 488.4555
   488.5700 488.5700 488.6391 488.6391 489.2889 489.2976 491.3570 491.3570
   491.4028 491.4028 494.5106 494.5106 494.5114 494.5114 495.4630 495.4634
   496.2923 496.2923 496.3322 496.3342 496.3805 496.3805 499.0980 499.0980
   499.1251 499.2097 499.2097 499.2479 503.3526 503.3526 503.5943 504.2595
   504.3617 504.3617 506.8619 506.8619 507.0676 507.4748 507.4748 507.8364
   507.8780 508.0513 508.0513 508.2688 508.2688 508.3688 508.7369 508.8277
   508.8656 508.8656 508.9467 508.9467 509.1032 509.1032 509.2680 509.5991
   509.5991 509.7154 510.7613 510.9350 510.9350 510.9971 511.2390 511.2390
   511.2780 511.4996 513.4621 513.4621 513.5613 513.8509 513.8509 513.9328
   513.9328 514.0635 514.1480 514.4215 514.4215 514.7479 514.7479 514.7493
   515.1218 515.2292 515.2292 515.3580 515.4290 515.4290 515.6906 515.6906
   515.8811 516.2090 516.6001 516.6443 516.6443 516.6961 516.8643 516.8643
   521.3348 521.3348 521.3808 521.3808 521.7689 521.7844 521.9236 521.9236
   521.9351 521.9351 522.5068 522.5256 522.5256 522.5778 522.5778 522.6403
   522.8946 523.0235 523.0235 523.1936 523.1936 523.2532 526.2142 526.2142
   526.2793 526.6782 526.6782 526.8907 531.8411 531.8411 531.8582 531.8753
   531.8753 531.8768 535.7241 535.7241 535.8233 536.0021 536.0021 536.0342
   536.0342 536.0369 536.0875 536.2029 536.2807 536.2807 538.6218 538.7574
   538.7574 539.1928 539.1928 539.2585 539.2585 539.2869 539.2869 539.3741
   539.4617 539.5325 545.3929 545.4412 545.4412 546.1239 546.3762 546.3762

          k = 0.0000 0.2500 0.0000 (  2469 PWs)   bands (ev):

   -96.2798 -57.7719 -57.7718 -57.7718  -5.0634   5.0655   5.7128   5.7128
    10.1206  10.5073  11.5131  11.5131  13.6404  15.3328  17.5084  18.9093
    18.9093  19.3417  24.2285  27.5532  27.5532  29.0040  29.5187  30.3303
    33.4536  33.6493  33.6493  37.9943  37.9943  38.5370  40.2792  40.3084
    40.3084  41.7776  44.5027  44.6307  46.2484  47.2740  47.2740  47.5593
    48.6876  48.6876  48.8549  50.6809  50.6809  51.3994  52.9304  53.1245
    54.1989  54.1989  54.4045  54.5488  55.3383  55.3383  56.5555  57.3826
    58.1365  58.1365  61.3147  63.3521  63.3521  64.3634  66.1064  68.2951
    71.4284  72.5767  72.5767  74.5994  74.8895  76.1108  76.7718  76.7718
    77.5107  78.2859  78.2859  78.9647  82.5824  84.7495  84.8156  84.9026
    84.9026  86.1856  86.7288  87.2500  87.2500  88.0639  88.0639  89.8614
    90.5453  91.7179  91.7179  92.0736  92.3371  93.2388  93.2388  94.5783
    95.8784  96.0940  96.0940  96.8034  96.8782  97.0055  97.0055  97.1910
    98.3604  99.0179  99.9813 100.1892 100.1892 101.6364 102.2711 102.9924
   102.9924 103.7913 103.7913 103.9072 103.9679 104.7249 105.4788 107.0517
   107.0517 108.2538 109.4309 109.4567 109.4567 110.2024 110.2024 111.4095
   112.9345 113.3268 115.7697 116.4965 117.7106 118.2012 118.2012 118.7434
   119.6866 119.6866 120.6921 121.2954 121.5803 121.5803 122.7360 122.7360
   123.2325 124.0485 124.0485 124.4046 125.7404 126.2804 126.7477 127.3344
   128.0170 128.0170 130.8471 130.8471 131.4639 132.3839 132.9607 133.2116
   133.2116 133.5811 134.7772 134.8993 134.8993 136.3868 137.2282 137.2282
   137.9213 138.5879 139.5479 139.8477 139.8477 143.4320 144.4280 144.5170
   144.5170 146.5823 148.1323 148.1323 148.7449 149.6527 149.8341 152.0512
   152.5168 152.5168 154.5286 156.0424 156.5859 156.5859 157.9415 157.9415
   159.0690 159.0690 159.1557 159.5109 160.0809 160.3628 160.5949 161.0354
   161.2254 161.2254 163.1026 163.9718 163.9718 164.8260 165.0341 166.2943
   166.3416 166.3416 167.2386 167.4731 168.3468 168.3468 168.4044 168.5492
   169.0458 169.3681 169.3681 169.8058 170.0570 170.0570 171.4717 171.6293
   171.6293 172.0784 173.1300 173.5775 173.5775 174.2231 174.5196 174.7203
   174.8840 174.9665 174.9665 175.6539 177.3346 177.5520 177.7216 177.7216
   178.1919 178.2494 178.2494 179.0861 179.7237 180.0196 180.0196 180.6857
   180.6857 183.1736 183.3347 183.3787 183.3787 183.7221 183.9149 184.4323
   184.4323 185.0659 185.2493 186.3001 186.3001 186.9396 187.2854 188.7179
   188.7636 188.7636 189.4768 189.6263 189.6263 189.6548 191.2075 192.0611
   193.7749 193.7749 194.3257 194.5110 195.1339 195.1339 195.7229 195.8477
   196.9329 196.9329 198.2071 198.6731 199.2434 199.2902 199.2902 201.2084
   201.4218 201.4539 201.4539 201.7582 202.0647 202.4508 202.4508 202.8280
   204.1818 204.1818 204.5322 206.7187 207.8028 207.8591 207.8591 208.4392
   210.1309 210.6551 210.6551 211.1111 211.1111 211.8610 212.7394 213.7530
   213.7657 213.7657 214.3740 215.6445 216.0267 217.3936 217.3936 219.0589
   219.2005 219.2005 220.1165 221.4712 221.4965 221.4965 222.4831 222.4844
   222.6822 222.9408 222.9408 223.4218 223.7548 223.7548 225.0536 225.3258
   227.5541 229.3307 229.3307 229.6237 230.3551 230.3551 231.2589 231.9498
   232.8367 234.0803 234.0803 234.5938 234.8294 234.8471 234.8471 236.1627
   236.1627 239.1847 239.6801 239.6825 241.1477 241.6872 241.6872 242.3613
   242.3613 242.4579 242.7499 243.3748 243.3748 243.4219 244.0512 245.4755
   246.1523 246.1523 246.3562 247.0809 247.0809 247.3224 247.5135 248.2445
   248.8825 248.9005 248.9005 249.6087 250.4870 250.4870 251.5673 251.5867
   251.5867 251.9950 252.7089 253.1663 253.1663 253.2780 253.3205 253.3706
   255.6475 255.6475 255.8704 256.5111 256.7080 256.7080 257.0896 257.4139
   257.6911 258.2977 258.2977 258.9259 259.0131 259.0131 259.3525 259.5953
   259.5953 260.2466 260.6445 260.6913 262.4869 263.0242 263.6359 263.6359
   264.6307 264.9181 266.4600 266.4600 267.1037 267.2244 267.4764 267.4764
   267.6052 267.6052 268.0083 268.1459 268.4270 268.4270 268.8502 270.0763
   270.4478 270.5354 270.5354 271.0632 271.2173 271.2173 271.3138 272.5228
   272.5378 272.7465 272.7465 273.0491 273.2721 273.2721 273.5874 274.9032
   275.2303 275.2303 275.6676 275.8166 277.1114 277.1114 278.2708 278.4896
   278.6205 278.8502 278.8502 279.9841 279.9841 280.1291 280.8413 280.9941
   280.9941 281.8510 281.8758 282.1134 282.1588 282.1588 282.5613 283.6339
   284.0523 284.0523 284.0616 284.4013 284.4602 284.4602 284.6905 285.5242
   286.0368 286.0368 286.8721 287.1667 287.1667 287.9479 288.3910 288.6189
   288.7588 288.7588 288.8677 289.1916 289.1916 289.3605 289.5992 290.6697
   291.1721 291.4143 291.4143 292.3575 292.3848 292.3848 292.7673 292.8481
   294.5058 295.1803 295.1803 295.4296 298.1059 298.3397 298.3397 298.5473
   299.0651 299.2784 299.2784 299.3269 299.6509 300.6083 302.0068 302.0068
   302.3372 303.4227 303.4227 304.6901 305.3675 305.4430 305.4725 305.4725
   305.6191 305.9484 306.3990 306.3990 308.7990 310.1708 310.2070 310.2070
   310.9045 310.9294 310.9294 310.9931 311.8283 311.8283 311.9549 312.9592
   313.8959 315.2061 316.1203 316.1203 317.0160 317.0160 318.2751 318.4435
   318.4435 318.5932 318.9956 319.4775 323.3678 323.3678 324.5022 324.8034
   325.6621 325.6621 325.9515 326.2295 326.8667 327.7092 328.0490 328.0490
   328.1818 328.6600 328.7257 328.7257 329.0742 329.9756 329.9756 331.1794
   331.9117 332.1063 332.1063 332.2116 332.7615 333.8731 334.8285 335.4055
   335.4055 335.8325 335.8325 336.1267 336.3766 336.3766 336.5694 336.7101
   336.7177 337.0453 337.2137 337.2137 338.1726 340.6062 340.7030 340.7030
   340.9163 341.6519 341.6519 341.6576 341.7707 342.0032 342.0032 342.0772
   343.4910 344.1975 344.4809 344.4809 344.8365 345.9088 347.2099 347.2099
   348.1199 348.3131 348.4583 348.4583 349.0697 349.0953 350.6801 351.1119
   351.1119 351.3586 351.4951 352.1359 352.1697 352.1697 352.4065 352.4065
   352.7168 352.9252 353.0511 353.0511 353.1575 353.9023 355.6444 355.6444
   355.9446 356.1000 356.1000 356.1258 356.4813 356.4921 356.4921 356.5015
   356.7445 356.7445 356.8102 357.3324 357.3738 357.4400 357.4400 357.7782
   359.0194 361.0013 361.0468 361.0468 361.1485 361.2814 361.7098 361.7098
   362.0876 362.2366 362.2366 362.2610 362.3924 364.0579 364.1010 364.1010
   364.1547 368.6964 368.6964 368.7043 368.7913 368.7997 368.7997 368.8167
   368.9841 370.1249 370.4684 370.4684 370.9013 370.9182 371.7789 373.1927
   373.1927 373.2557 373.4339 373.8149 373.8149 373.8224 373.8924 374.6136
   374.6136 374.6842 374.6842 375.5870 376.2287 376.6608 378.1229 378.2330
   378.2330 378.6921 380.7763 380.7763 382.0066 382.2822 382.2822 382.3279
   382.4477 382.9977 383.1749 383.1749 383.2607 383.3412 383.6451 383.9542
   383.9542 384.7702 385.4983 385.9733 386.1785 386.1785 386.6066 386.9313
   387.2770 387.2770 387.5454 387.8056 387.8056 388.4020 389.0779 389.9353
   389.9353 390.6167 391.0524 391.0524 391.2943 391.7047 391.7047 391.7894
   391.8107 392.8783 393.5280 393.5280 393.8279 393.9498 393.9546 393.9546
   394.0550 394.2365 394.6618 394.6618 394.7120 395.0597 395.0597 395.3820
   395.4090 395.4742 395.4742 395.6765 396.3882 398.8043 399.3942 399.3942
   399.9357 400.1706 400.1849 400.1849 400.3520 400.4204 400.5556 400.5556
   400.6775 403.2033 403.2504 403.2504 403.4750 403.4750 403.4936 403.7455
   404.3759 404.5943 405.0023 405.2521 405.2521 406.0423 406.0423 406.3324
   406.4006 406.7327 406.7327 406.7930 406.9627 407.6101 408.1161 408.1161
   408.2786 410.4261 410.6937 410.6937 411.0642 411.0771 411.3785 411.4121
   411.4121 411.7962 412.8505 412.8505 412.9572 413.2463 413.4586 413.5203
   413.5203 414.0322 414.2281 414.2281 414.5844 414.7802 414.9559 414.9559
   415.1339 415.1339 415.1696 415.1919 415.7390 416.0419 417.8543 417.8543
   418.6057 419.5333 419.7186 419.7186 420.4480 420.5947 420.7511 421.1543
   421.1543 421.2868 421.9521 422.6726 422.6726 422.8765 423.0228 423.0228
   423.0510 423.1872 423.3644 423.3644 423.4047 423.8707 423.9442 424.6377
   424.6377 425.9027 426.8810 426.9048 426.9048 426.9384 427.4465 427.6281
   427.6281 428.0655 428.0655 428.2749 428.3350 428.8455 429.4807 429.6139
   429.9789 429.9789 430.1241 430.1297 430.1297 430.2764 430.9944 432.6979
   432.6979 434.5532 434.9573 436.0140 436.0140 438.1055 438.9017 438.9653
   438.9653 439.3713 439.4934 439.4934 439.5276 440.4030 440.4030 440.5784
   440.8753 441.2161 441.3377 441.3377 441.7109 448.1591 448.2865 448.3212
   448.3212 448.3699 448.5641 448.5641 448.7134 449.4960 449.6210 449.6210
   450.2748 450.2748 450.2936 450.3379 450.4263 450.4263 450.4335 450.5712
   450.7096 450.9055 450.9273 450.9273 451.1398 453.1078 453.1985 453.1985
   453.2880 456.9757 456.9757 456.9927 457.6946 458.1279 458.2726 458.2726
   458.3987 458.7164 459.1450 459.1901 459.1901 459.2286 459.5139 459.5139
   459.8938 460.9737 461.3562 461.3562 462.5242 464.5796 465.8581 466.3311
   466.3311 467.0543 467.6982 467.9538 468.4036 468.4036 468.9807 469.2774
   469.2774 469.3404 469.4973 469.6813 469.6813 470.9712 474.6297 474.9226
   475.0998 475.0998 475.1789 475.6058 475.6058 476.1000 477.6655 477.6655
   477.7066 477.8299 478.1136 478.4120 478.4120 478.8406 478.9622 478.9622
   479.1154 479.5739 479.7386 479.9532 479.9532 480.0081 480.7930 481.1010
   481.5354 481.5354 482.0521 482.2319 482.3874 482.3874 482.6856 482.9067
   482.9067 482.9405 482.9632 483.4969 483.4969 483.4984 483.5824 485.2336
   485.2536 485.2536 485.5785 488.8402 488.8402 489.8141 489.9777 489.9777
   490.0383 490.1583 490.9847 491.3794 491.4603 491.4603 492.3079 492.3079
   492.6431 493.3882 493.6030 493.6030 493.9259 493.9579 493.9579 494.1997
   494.3320 494.4869 494.7293 495.6976 495.7286 495.7286 496.8469 497.0733
   497.0733 497.7137 497.9190 498.0596 498.0596 498.2044 498.3248 498.8057
   498.8057 499.1325 499.2009 499.4920 499.4920 499.6310 499.8768 500.0530
   500.0530 500.2233 500.7182 500.9834 500.9834 501.0754 501.7079 501.9508
   502.2769 502.2769 503.4016 504.5074 504.5074 504.7447 504.9924 505.1098
   505.5482 505.5482 505.8036 505.8036 506.0729 506.2644 506.2915 506.2915
   506.4417 508.1156 508.1829 508.9136 509.1716 509.1716 509.2103 509.3817
   509.3817 509.8190 510.0203 511.0210 511.3442 511.3442 511.4233 511.4233
   511.4629 511.6441 511.6761 512.1397 512.1397 512.3130 512.6583 512.6583
   512.7961 513.0112 513.4224 513.6592 513.8652 513.8652 514.2064 514.2064
   514.2491 514.2934 514.6565 514.7652 514.7652 514.8519 515.0194 515.5305
   515.5305 516.2067 516.3452 516.8926 516.8926 517.1122 517.9131 517.9322
   517.9756 517.9756 518.0067 518.0789 518.0813 518.0813 518.7067 518.8484
   518.8484 518.9607 519.6461 519.6595 519.6595 519.7006 519.7874 521.5819
   521.5943 521.5943 521.5943 521.8215 521.8691 521.8691 521.9365 523.7526
   523.7878 523.8003 523.8004 525.4443 525.4848 525.4848 525.8355 526.0254
   526.6990 526.6990 527.1883 527.6958 528.1914 528.1914 528.2608 528.7043
   528.9307 528.9307 529.0945 530.0963 530.3937 530.4166 530.4166 530.4521
   531.6718 531.7817 531.7817 531.8698 532.6187 532.6760 532.6760 532.9173
   533.0421 533.0421 533.6545 533.8692 534.1854 534.1854 534.4102 534.7873
   535.8308 536.1448 536.1448 536.3545 537.7219 537.7472 537.7472 537.7658

          k =-0.1250 0.3750-0.1250 (  2459 PWs)   bands (ev):

   -96.2797 -57.7720 -57.7719 -57.7719  -4.6834   3.5683   5.3456   5.4130
     9.8993  10.9204  11.9661  12.1051  14.0149  15.4945  17.8048  19.3914
    20.3203  21.5558  24.6906  25.0429  26.3352  28.3932  28.6804  29.8430
    33.2221  34.0289  35.2386  36.7973  38.2541  38.6062  38.6596  40.2532
    40.5346  40.8173  42.6880  43.1765  45.1872  45.6433  46.7044  46.7807
    47.5451  48.8468  50.3064  50.5139  51.3575  51.4970  51.7364  52.6643
    54.4446  54.5785  55.9031  55.9138  57.1301  57.8744  59.5054  60.1333
    61.6256  61.8889  62.7847  63.7238  65.3013  66.3440  68.3272  68.6023
    69.1906  70.1798  70.6621  72.1739  72.7166  74.4033  74.9245  74.9264
    76.3176  78.1640  79.7451  80.2843  80.8570  81.7278  82.0937  83.4154
    84.0760  84.8231  85.4159  85.7153  86.4930  87.1398  88.1259  88.1865
    89.5714  89.7602  91.0095  91.4886  92.6365  92.7463  93.8312  95.0579
    95.2402  95.3412  96.2403  96.3491  97.2250  98.4014  98.6958  99.0677
    99.1741  99.7305 100.0571 100.4129 101.8235 101.8238 102.5530 102.6875
   103.3644 103.8771 104.4855 104.9489 105.2075 106.7931 106.8199 108.4507
   108.8152 109.8153 110.1842 110.5135 110.9515 111.7226 112.1516 112.7725
   113.7664 113.9195 114.6269 115.0369 115.5641 115.6058 116.7137 117.8007
   118.3319 118.3509 119.4587 119.6487 120.2287 121.5222 121.7796 122.8123
   123.9255 124.6410 125.1747 125.5774 127.2736 127.5067 128.1189 128.6936
   129.2757 129.8024 129.9288 130.6904 131.6126 132.3408 132.6795 133.3640
   134.3378 135.2044 135.3667 136.3841 136.6393 137.3804 139.2440 139.5336
   140.6529 141.6436 141.8607 142.2298 142.9429 143.9582 144.6325 144.6863
   146.0677 146.5359 147.0188 147.8231 149.1518 149.6296 150.1120 150.3407
   150.5744 151.9044 152.1167 152.6131 153.4867 153.8578 153.9990 154.4494
   155.1471 156.2589 156.4064 156.6090 157.0256 157.8208 158.3175 158.6028
   158.9144 160.2636 160.9423 161.2247 161.6732 162.3210 162.4586 163.3878
   164.0844 164.1920 165.5249 166.0371 166.1315 166.6554 166.8465 167.2869
   167.4156 168.5755 169.2133 169.3628 169.8290 170.7153 171.2278 171.3032
   172.1449 172.3546 172.4057 173.1073 173.4188 174.3588 174.5317 175.4172
   175.7506 176.3029 177.0187 177.4424 177.7836 178.0652 178.2547 178.5632
   179.0758 179.7768 179.9403 181.3294 181.5319 182.0577 182.5303 183.3195
   183.3227 184.3745 184.4772 184.5679 184.7100 185.0708 186.0050 186.2854
   187.0456 187.3686 187.6060 188.4193 188.5092 188.8746 189.6045 189.9029
   190.1107 190.2564 190.6401 190.9782 191.3703 191.5531 191.6547 191.7446
   192.5500 192.8943 194.6925 195.1641 195.5779 195.8380 196.1972 196.2309
   196.8074 196.8446 197.3477 197.9478 198.4362 199.0821 199.2284 199.5316
   200.4369 200.6542 201.1786 201.8186 202.6052 202.8654 204.0410 204.9639
   205.0737 205.3652 206.2008 206.6594 207.0345 208.7796 209.4242 209.6972
   210.7631 210.9182 211.6852 212.0915 212.2452 213.0026 213.0056 215.0950
   215.4145 215.7203 216.7397 216.9716 217.6220 217.8360 217.8818 218.5141
   219.0492 219.5171 220.0187 220.8766 220.9390 221.2735 221.9115 223.0474
   223.2106 224.0481 224.3687 224.9140 225.8650 226.0276 226.5144 226.9075
   226.9192 228.2684 228.9547 229.0635 230.1520 230.4260 230.7834 230.8255
   231.6467 231.6723 232.3531 232.6733 232.7573 234.1536 234.4934 235.6040
   235.8925 236.5850 236.7536 236.8466 237.0610 237.6275 237.9357 238.6039
   240.3279 241.6671 241.7962 242.0131 242.5817 242.8991 243.0114 243.6960
   244.1565 244.5386 244.7243 245.1112 245.4320 245.8748 245.9925 247.0949
   247.5221 247.6189 248.0292 248.1632 249.0220 249.2409 249.5150 249.8168
   250.5593 250.7294 252.1286 252.5320 252.7410 253.0446 253.1782 253.9035
   254.3675 254.4740 254.8361 255.6579 256.1362 256.3992 256.4133 257.1487
   257.5970 257.9944 258.3008 258.8967 259.4646 259.9043 260.3368 260.7937
   260.9768 261.1771 261.2508 262.1791 262.2251 262.5710 262.7380 263.4883
   264.1405 264.1515 264.2877 264.3871 264.4239 265.6564 265.6885 266.1873
   266.7122 267.0378 267.3278 267.5743 267.7956 268.1582 268.4028 268.5686
   268.7349 269.2141 269.2744 269.4867 269.5533 270.4867 270.5642 271.4697
   271.8170 271.9820 272.2343 272.4137 272.5144 272.9254 274.7273 274.8868
   275.0695 275.2239 275.3492 275.5954 275.7550 277.2041 277.5564 278.4120
   278.4660 278.9234 279.0018 279.8102 280.2500 280.7476 280.9207 281.2967
   281.4596 281.5474 281.7671 282.9853 283.1230 283.3268 283.7161 283.8319
   283.9548 284.2045 284.8889 285.3309 285.3995 285.5838 286.3457 286.6796
   286.7397 287.7363 288.1547 288.5106 288.7290 289.7581 290.5620 291.2975
   292.1899 292.6034 292.7101 292.7554 292.9308 292.9980 293.1743 294.1186
   294.8445 295.0166 295.5642 295.8340 295.9620 296.0677 296.3710 296.6296
   298.0184 299.4571 299.7618 300.0395 300.2125 300.3272 300.4540 300.6252
[...]
   287.0146 287.2842 287.6535 287.7536 287.9906 288.3369 288.3939 289.3075
   289.4600 289.7540 290.6889 290.6939 292.3646 292.4399 293.5845 293.6653
   295.2228 295.6972 296.2220 296.2628 296.6099 296.7841 296.9372 297.8280
   299.0402 299.0444 300.5871 301.0045 301.3411 301.4644 301.4857 301.7648
   301.9414 302.1788 302.6886 302.7010 304.4817 304.5471 305.3361 305.4798
   306.1626 306.6520 307.0687 307.0799 307.2465 307.2628 307.8863 308.0325
   310.1654 310.2295 310.2405 310.5127 310.6946 310.7284 311.6602 311.7752
   312.5275 312.6406 312.8119 313.3475 313.3515 313.6907 313.7392 313.8072
   315.0254 315.0330 315.4817 315.6069 316.4383 316.8642 317.1383 317.1768
   317.5674 318.0507 318.5465 318.6825 319.2154 319.5568 319.6584 319.9562
   320.1173 320.9115 321.4084 321.4327 321.5951 321.7436 322.6051 322.6714
   322.9399 323.0222 323.3525 323.4055 323.5542 323.5699 323.8935 323.9697
   324.4145 324.5820 324.8097 324.8432 326.9817 327.1037 327.2304 327.4831
   328.7288 328.8307 329.0984 329.1792 329.4918 329.8050 330.3864 330.5341
   330.8930 331.0001 331.6641 332.5788 332.6225 332.7819 333.0903 333.1067
   333.3215 333.3792 333.6643 333.8337 333.9769 334.0146 335.0270 335.0995
   335.1999 335.4661 335.9506 336.1177 337.0788 337.4387 337.5550 338.6287
   339.3815 339.4632 339.5641 339.8369 339.9186 339.9539 340.5397 340.6159
   341.2181 341.2406 342.7138 342.9295 343.2386 343.3102 343.5002 343.8824
   344.3469 344.7300 345.0748 345.2350 345.4989 345.6903 348.5420 348.5448
   349.8823 349.9499 350.3405 350.3767 351.4115 351.5307 351.6949 352.1068
   352.1630 352.1902 352.4666 352.6340 354.1851 354.4085 355.0724 355.1401
   355.6040 355.9098 356.0211 356.8205 356.9860 357.3719 357.7914 358.9524
   358.9972 359.1424 359.4393 359.5537 359.6162 359.8341 360.2117 360.2326
   360.3641 360.3802 360.7496 360.8031 361.8740 362.3100 362.3137 362.4831
   363.2732 363.3091 363.5060 363.6164 364.6697 364.7574 365.0144 365.6079
   365.7700 366.0645 366.0769 366.5410 367.1573 367.1828 368.3000 368.3411
   369.9249 370.0649 370.2312 370.3797 370.6563 370.6724 371.4262 371.4275
   372.8533 372.8828 373.2098 373.2205 374.0849 374.1475 374.9974 375.0830
   375.2199 375.4354 376.2780 376.6412 377.1500 377.3627 377.8046 378.8387
   379.8848 380.2134 380.3941 380.4884 381.7555 381.8821 382.6123 383.1003
   383.3222 383.5033 383.5051 383.7919 384.0584 384.5271 384.9056 384.9058
   385.2068 385.4772 385.7932 385.8017 386.0933 386.2360 386.5593 386.9509
   387.6583 387.6587 390.0477 390.2732 390.6559 390.9433 391.2120 391.4015
   392.8817 393.0374 394.9733 395.0405 395.7138 395.7177 395.9911 396.3471
   396.5076 396.6962 396.9077 397.2169 397.7345 397.8107 398.2059 398.2416
   399.7217 399.7896 399.9694 400.2114 400.5671 400.9097 401.0063 401.6107
   401.6403 402.2983 402.3278 402.9745 403.4550 403.6765 403.7263 403.8981
   404.2455 404.3809 404.6608 405.2638 406.5907 407.1151 407.4478 407.6882
   408.6260 409.0001 409.0693 409.4412 409.6312 409.9120 410.3186 410.4868
   410.8921 410.9647 411.9277 411.9502 413.8175 414.0660 414.7533 414.7841
   415.3288 415.3607 415.6487 415.6529 415.8301 415.8328 415.8642 416.1142
   416.2129 416.4719 416.6161 417.0124 419.2841 419.6664 419.7394 419.8514
   419.9790 420.4541 420.5834 420.7605 420.8847 421.1822 421.3822 421.4152
   421.6950 421.8203 422.7201 422.7229 423.5548 423.5795 424.2517 424.2539
   424.6331 424.7332 424.8698 424.9206 425.1552 425.2722 425.4438 425.6196
   425.8761 426.6841 426.7371 427.2432 427.3613 427.4262 427.5965 427.6115
   428.2330 428.2571 428.3159 428.4003 428.6797 428.8286 429.4076 429.9635
   432.2505 432.7087 433.3522 433.4021 433.4215 433.5458 434.1472 434.1761
   434.2358 434.4699 434.8154 435.0387 435.1346 435.2673 435.3932 435.4530
   435.5389 435.6555 435.9296 435.9727 436.7677 436.8237 438.3849 438.4614
   439.1493 439.3738 440.2769 440.2986 440.3197 440.4523 440.6612 440.7800
   441.7884 442.1252 442.7924 443.0683 443.1054 443.1360 443.6418 443.7613
   443.8310 443.9217 443.9837 444.0549 444.4646 444.6566 444.7630 444.8935
   444.9322 445.3093 445.4141 445.4373 446.5039 446.5193 447.3821 448.3324
   448.5183 448.5806 448.6316 448.6739 450.8552 450.8852 450.8905 450.9508
   451.2178 451.2325 451.4413 451.6588 451.7334 451.8983 452.5734 452.7264
   453.0472 453.5437 453.7093 453.8364 454.1372 454.4554 454.7554 454.7657
   456.9691 457.0852 457.8752 458.0333 458.4414 458.5159 459.0809 459.1007
   459.1879 459.1920 459.5147 459.6038 460.1477 460.2455 461.5070 461.5379
   461.8166 461.9734 462.0318 462.2232 462.8733 463.0809 463.3129 463.3940
   463.4201 463.5034 463.7821 463.8654 464.1862 464.2770 465.3270 465.3377
   465.7704 465.7845 466.0679 466.4420 467.0508 467.3069 468.3054 468.3304
   468.5720 468.6945 469.5075 470.4838 471.7395 471.7724 472.2597 472.5031
   472.8359 473.5121 473.8465 474.5426 474.7090 474.7563 475.3353 475.4489
   476.8953 476.9660 477.0310 477.0813 477.7022 477.7455 479.7893 479.9314
   479.9785 480.0511 480.2635 480.3191 481.4933 481.9694 482.0543 482.4141
   482.4346 482.6839 482.8068 482.8372 483.0935 483.2062 483.6948 483.8246
   483.8419 483.8890 484.7884 484.8476 485.6870 485.7612 486.6785 487.4722
   487.5172 487.8942 487.9052 488.0066 488.1414 488.3087 488.4613 488.6071
   488.9208 489.0715 489.3294 489.3341 489.9758 490.2201 490.5471 490.6312
   491.0157 491.1326 491.4924 491.5069 491.8627 491.9266 492.1617 492.2929
   492.3907 492.5077 492.6357 493.2947 493.8456 494.4127 495.0402 495.1684
   496.0704 496.2401 496.4286 496.5491 496.9191 496.9475 497.2447 497.2654
   497.2923 497.3232 497.7460 497.9621 498.1970 498.1993 498.9822 499.5051
   499.5388 499.8367 500.9317 501.3164 502.8392 503.0305 503.6309 503.8888
   504.1881 504.3024 504.3095 504.4523 504.4726 504.6611 504.9056 505.1654
   505.4014 505.5958 505.7573 505.8479 507.1430 507.3209 508.2959 508.5397
   508.9206 508.9854 509.1455 509.2765 510.1096 510.2187 510.3348 510.4244
   511.7616 511.7775 511.8954 512.1292 513.0289 513.0300 513.7195 514.1084
   515.0373 515.0780 515.1891 515.2348 515.4986 515.5706 515.8576 515.8804
   516.8608 516.8900 516.9029 516.9030 517.1051 517.1523 518.2330 518.5048
   518.5887 518.6913 518.8369 519.0044 519.7071 519.7881 521.3660 521.5502
   521.6870 521.9561 522.1111 522.2666 522.6181 523.2627 523.2841 524.5508
   524.6878 524.8698 525.2477 525.3500 525.4164 525.4601 526.2881 526.3315
   526.4305 526.4917 526.8520 526.9060 527.2179 527.2688 527.8277 527.8587
   529.4755 529.7310 532.4975 533.0247 533.2203 533.3983 533.6310 533.8429
   533.9581 534.2002 534.3856 534.4397 534.5810 534.6791 534.7016 534.9806
   535.5539 535.5840 535.6909 535.7828 535.8901 535.9192 535.9376 536.2614
   536.5661 536.6066 538.8807 538.9284 539.8618 540.0146 540.7878 540.8167
   541.0120 541.1110 542.5257 542.7117 542.9467 543.1120 543.2842 543.7620

          k =-0.5000-1.0000 0.0000 (  2468 PWs)   bands (ev):

   -96.2799 -57.7721 -57.7720 -57.7720  -2.9266   1.2745   3.0343   3.3863
    10.5177  12.0926  12.3387  12.5354  17.4235  18.0946  19.4702  20.3318
    23.1372  23.5408  25.6174  25.8052  25.9327  25.9982  26.5668  27.6993
    31.1728  31.4046  33.9901  34.1512  34.8441  35.1087  35.1676  37.7627
    39.0734  40.0084  43.0408  43.7633  44.1336  45.1069  45.6364  48.4374
    48.4890  50.3751  51.4248  52.0228  53.5756  54.6050  54.6238  55.1235
    55.6050  55.6077  58.0025  58.5703  61.2875  62.0058  62.3103  62.8654
    63.3142  63.6098  65.3862  65.7315  65.8480  66.4541  68.0394  68.7376
    68.9162  69.9437  71.0266  71.6812  71.7440  72.9861  73.5422  74.1812
    75.9082  77.0222  78.3777  78.9782  80.7371  80.9877  81.1172  81.1925
    81.3936  82.2747  82.5095  83.5039  83.7379  84.6400  86.0553  86.2006
    87.0572  87.3717  87.8641  88.0190  89.1471  89.2761  90.6793  91.0151
    92.3397  92.7492  94.1210  94.2793  95.0225  95.0943  95.8541  96.9604
    98.0984  98.5028  98.9228 100.0976 100.1212 101.9895 102.4155 102.7956
   103.5243 104.9757 107.7093 107.7478 109.3078 109.8197 110.1030 112.2437
   112.9340 112.9679 112.9880 113.4860 115.0203 116.6448 116.8175 117.2103
   117.6636 118.2563 118.4596 119.1123 119.3979 119.6255 120.4470 121.3683
   121.5340 122.3339 122.3863 122.4636 123.6220 123.6553 123.9227 124.6154
   124.8302 125.8120 126.7291 127.0521 127.4726 129.0139 129.1688 129.7580
   130.0881 130.1318 131.1555 131.5845 131.7998 132.0443 132.0497 133.5946
   133.7125 133.8204 135.6049 135.6351 137.0557 138.7596 139.1864 140.0367
   140.6085 140.7521 140.9686 141.3246 141.6702 142.1921 142.4202 143.2226
   144.0585 144.8620 144.9235 145.6254 145.7921 146.3126 146.4284 147.1151
   147.1815 147.3955 147.8013 148.8555 149.6578 151.1581 151.7943 151.8493
   152.1900 152.7016 152.9852 153.1933 153.2272 153.3412 153.5494 153.9366
   155.6862 155.8027 157.6374 157.8830 158.8914 158.9466 159.0033 159.4372
   160.5665 161.7625 162.6249 164.2081 164.4748 165.5790 166.8477 166.9894
   167.3147 168.3506 169.1150 169.4793 170.0146 170.4866 170.7918 171.1133
   171.6159 172.0553 172.0657 172.2986 172.7212 172.8759 173.0065 175.2219
   176.2086 177.3064 177.9087 178.5434 178.5755 179.0375 179.2249 179.4388
   179.7743 179.8913 180.4754 180.8523 181.1877 181.2610 181.3245 181.9055
   184.2147 185.1431 185.1599 185.2460 185.2724 185.7571 188.7895 188.8712
   188.9078 189.4376 189.6638 190.6175 190.6754 190.7314 191.1517 191.7897
   192.1975 192.2212 192.4207 192.7634 193.2697 193.3720 193.4376 195.5546
   196.1116 196.1750 197.1965 197.8403 198.8433 199.5377 199.8855 200.8442
   200.8526 201.1490 202.9161 203.6277 204.6667 205.1080 205.7956 206.6918
   206.9182 207.1080 207.5940 208.2230 208.5605 208.5837 209.2145 210.0702
   210.1832 210.2914 210.4746 210.9664 210.9814 211.0217 211.2166 211.2852
   211.5035 211.8600 211.9198 212.0406 212.1627 212.3102 212.6055 213.0378
   214.8246 215.2878 215.3046 216.8554 217.3048 217.9266 217.9751 218.0482
   221.2792 221.4890 221.5432 221.6098 221.6105 221.6477 222.1572 222.2875
   222.4372 222.6735 222.8801 223.4199 224.9590 225.2637 225.2754 225.8531
   226.6126 226.7745 226.8129 227.1876 227.7471 227.8411 228.1788 228.2933
   230.7638 230.9570 231.0049 231.3207 231.9113 232.1759 232.3074 232.3340
   232.3371 232.4578 232.4971 232.8866 233.2255 233.4105 233.7465 233.8028
   236.1846 236.7232 236.8256 236.9656 238.6872 238.9327 238.9878 238.9885
   239.7280 239.8465 239.8625 239.9425 240.5662 240.6111 241.2249 242.4097
   242.5001 242.6175 243.6620 243.9886 245.0163 245.0896 245.1279 245.2564
   246.1284 246.2505 246.3923 246.6544 249.8988 250.3195 250.4242 250.6155
   250.6601 250.7969 251.0275 251.3434 252.3165 254.2276 254.7087 255.0972
   255.1966 255.7240 256.3522 257.1215 257.5282 257.9145 258.7254 259.3439
   259.6266 259.8570 260.0099 260.1953 261.5100 261.5292 261.6226 261.6319
   262.9738 263.2675 263.2897 263.3262 266.0604 266.1614 266.2714 266.4981
   267.3044 267.9968 268.2857 268.3520 270.4307 270.5616 270.7721 270.8440
   270.9777 271.2230 271.6400 271.6472 271.7426 272.0084 272.0745 272.6039
   272.7173 272.8430 272.9135 273.1442 273.8447 273.9034 273.9450 274.0291
   276.4283 276.6379 276.9027 277.4156 278.2166 278.2416 278.3188 278.6441
   278.6849 278.7387 279.7685 280.1239 281.4713 281.4920 281.5008 281.5559
   284.4984 284.7543 285.7129 285.8464 287.2766 287.4131 287.4382 287.6247
   287.6778 287.8906 288.3970 288.4551 288.4911 288.6543 289.8858 290.0298
   290.5956 290.6627 291.0248 291.3111 292.4363 292.4929 292.6517 292.7425
   293.2570 294.0395 294.0581 294.1594 295.0392 295.7359 295.9746 296.4781
   297.9191 297.9892 298.2058 298.8746 299.0366 299.1163 299.2523 299.4046
   299.9594 300.1273 300.1933 300.3436 301.1058 301.1320 301.1989 301.2265
   301.3468 301.4581 302.1352 302.2318 307.4941 307.6050 307.6260 308.0008
   308.0621 309.0794 310.1366 310.3960 311.0669 311.1573 311.1650 311.2306
   313.3678 314.0287 314.0951 314.2044 314.3828 314.7714 315.3211 315.6236
   316.2334 316.8445 316.9797 317.7115 317.8722 318.1819 318.5131 318.8584
   319.3879 319.7464 319.8422 320.3179 320.3410 320.3418 320.7060 321.3244
   321.5418 321.7590 321.8942 322.3850 322.5427 322.6080 322.9908 323.0092
   323.1660 323.1993 323.7471 323.8076 324.0046 324.0074 324.1018 324.3327
   326.5652 326.5809 326.6469 326.6898 327.4429 327.5872 327.7084 327.8134
   327.9915 328.0954 328.1116 328.1269 328.9970 329.1024 329.3117 329.3340
   330.4272 330.5564 330.5854 330.6063 330.8449 331.1298 331.1873 331.2278
   333.5964 333.7598 333.8283 333.8633 334.2882 334.2927 334.3810 334.4406
   334.9745 335.0220 335.0836 335.1420 338.2786 338.4591 338.5117 338.8705
   341.0682 341.3783 341.3887 341.7022 342.0281 342.0315 342.1566 342.1941
   343.0647 343.2346 343.3250 343.7299 345.0655 345.1815 345.2038 345.2843
   347.4714 347.5404 347.6437 347.7995 347.8609 347.8788 348.0441 348.3976
   349.2961 349.3196 349.3674 349.8716 349.9145 350.0222 350.2127 350.4480
   350.5279 350.6255 350.7653 350.9755 351.4310 351.4771 351.4964 351.6221
   356.5117 356.5716 357.9915 358.1417 358.6253 358.6580 358.6955 359.3608
   359.3857 359.4698 359.8208 359.8990 359.9753 360.1397 360.4781 360.5716
   360.9236 361.1233 361.3018 361.3753 361.4178 361.4563 361.5478 361.6023
   361.8353 361.8989 361.9377 361.9656 362.1370 362.1687 362.2021 362.2116
   363.4982 363.5024 363.8428 363.8601 368.5721 369.1581 369.3842 369.4413
   369.7509 369.8361 369.9009 369.9459 371.7836 372.1414 372.1594 372.2586
   372.2827 372.3551 372.3637 372.3648 373.8000 373.8871 373.9896 374.2567
   375.3878 375.7010 375.9729 377.1012 377.1015 377.1996 377.2277 377.8709
   378.1886 378.2976 378.4524 378.5915 381.0548 381.0947 381.1281 381.1404
   381.3429 381.4901 381.8620 381.8984 382.1222 382.1369 382.1829 382.3944
   385.1573 385.3484 385.4723 385.6122 389.3325 389.4892 389.6702 389.7813
   389.9401 390.2179 390.2402 390.3137 393.7423 394.0640 394.0866 394.2003
   394.5335 395.0278 395.0408 395.4473 395.6036 395.6256 395.7069 395.7878
   398.2191 398.6774 398.7117 398.8859 399.0354 399.1056 399.2333 399.3626
   399.3954 399.4789 399.6228 400.1060 402.3425 402.3932 402.3978 402.4215
   402.6994 402.7015 402.7252 402.7467 404.6718 405.1408 405.2282 406.1603
   407.2020 407.2356 407.5391 408.1023 408.2426 408.2680 408.4651 409.1112
   410.1465 410.1726 410.2410 410.3357 410.4525 410.4820 410.5092 410.5333
   410.6458 410.7155 410.7156 410.7735 412.0371 412.4323 412.8073 413.7167
   414.1717 414.3202 414.5232 414.5724 416.5836 416.6242 416.9230 417.1236
   418.8043 418.8422 418.8551 418.9610 419.1372 419.2502 419.2902 419.3094
   419.5841 419.7200 419.8860 420.2868 420.4397 420.4710 420.5236 420.5321
   421.5462 421.5629 421.7584 421.7670 422.0454 422.2067 422.3165 422.4511
   422.7337 422.7407 422.7526 422.7556 423.3147 423.3153 423.3398 423.3762
   423.6607 423.7727 423.8766 424.3639 424.6661 424.7441 424.7877 424.8978
   428.3388 428.3993 428.6203 428.6978 429.0572 429.3110 429.4601 429.5253
   430.9171 430.9178 431.0537 431.2431 431.4688 431.5198 431.5620 431.7410
   431.8953 431.9008 431.9509 432.0042 432.0334 432.0538 432.0923 432.1158
   432.3214 432.3426 432.3691 432.3907 439.3602 439.7053 439.9615 440.0589
   440.4009 440.5601 440.8273 440.8338 440.8917 441.0385 441.0642 441.2509
   441.4816 441.8243 442.1012 442.1110 442.8498 442.8586 442.8648 442.8950
   444.8723 445.2543 445.5354 445.6700 446.6292 446.6511 446.7788 446.7959
   447.2670 447.2694 447.5256 447.7844 447.8021 448.1029 448.1101 448.7818
   448.7962 449.1638 449.5746 449.9428 449.9793 450.0443 450.0843 450.5490
   450.9946 451.2405 451.5433 451.7951 452.4001 452.4682 452.4730 452.5589
   454.3700 454.4487 454.4869 454.5365 455.5170 455.5880 455.6199 455.8134
   456.1539 456.1547 456.2374 456.5018 456.8107 457.0163 457.1120 457.1705
   461.6486 461.6733 461.6992 461.7454 462.3076 462.3180 462.3615 462.3908
   466.1207 466.3187 466.7656 467.2523 467.4606 467.4996 467.6025 467.6374
   468.0605 468.1187 468.2529 468.4408 469.2087 469.2371 469.2686 469.3029
   469.3155 469.4185 469.6116 469.7806 469.8038 469.8355 470.0162 470.1632
   470.1843 470.2579 470.3340 470.5265 471.0240 471.2865 471.6871 471.7555
   473.5650 473.6404 473.7036 473.7380 475.2452 475.4160 475.4830 475.5395
   475.9800 476.0521 476.0719 476.1134 476.8902 476.9292 477.0008 477.0968
   477.9938 478.3673 478.7844 478.8103 479.7186 480.2520 480.5574 480.7369
   480.7584 480.8309 480.9917 481.0042 481.4135 481.6882 481.7296 481.9984
   482.0270 482.1017 482.2606 482.3192 482.5047 482.5343 482.6244 482.6441
   483.1826 483.1862 483.1949 483.2446 484.2818 484.3480 484.4810 484.5340
   484.9495 484.9858 484.9904 485.0134 490.5670 490.7126 491.3762 491.3890
   491.6648 491.6681 491.6732 491.7020 491.7769 491.8334 491.8635 491.9829
   494.0573 494.1590 494.2201 494.2609 494.4971 494.8263 494.9088 495.6309
   496.3856 496.4647 496.5421 496.6598 497.9884 498.0496 498.1562 498.4134
   498.6138 498.6221 498.6457 498.7934 499.8635 500.0013 500.0488 500.5324
   501.8172 501.8443 501.8702 501.9525 502.5275 502.7831 503.2135 503.5030
   503.7831 504.0700 504.2649 504.4146 506.7263 506.9494 507.3036 507.3569
   507.8197 508.1298 508.1728 508.3292 508.4048 508.5926 508.6356 508.6450
   509.1392 509.2685 509.3824 509.5261 510.3487 510.4294 510.4859 510.5312
   511.5858 511.6249 511.6251 511.6547 511.8231 511.8368 511.8712 511.8772
   512.5719 512.5821 512.5874 512.5880 512.6560 512.6686 512.7636 512.8255
   513.2152 513.2409 513.3087 513.4416 513.5510 513.6270 513.6364 513.8593
   519.8391 520.1912 520.3586 520.8164 520.8192 520.8675 520.8948 521.2645
   521.2697 521.4997 521.6970 522.1155 522.4431 522.4469 522.4486 522.6672
   523.9965 523.9986 524.0163 524.0266 528.3505 528.3958 528.8130 528.8799
   529.2955 529.3624 529.6134 529.6365 530.1294 530.4902 530.7154 530.9823
   531.3691 531.5962 531.6039 531.7010 531.7151 531.7555 531.7796 531.9707
   532.3915 532.4010 532.4680 532.5293 532.6832 532.7331 532.7704 532.8172
   534.9780 535.1057 535.1957 535.2199 535.6298 535.9078 535.9195 536.1600
   537.6833 537.7661 537.7669 538.0447 539.2616 539.2930 539.3221 539.3489
   541.8569 541.9317 541.9777 541.9924 542.0122 542.0644 542.0777 542.1800

     the Fermi energy is     6.6030 ev
     (compare with:     7.1195 eV, computed in scf)

     Writing all to output data dir out/mp-1550.save/
 
     init_run     :      0.02s CPU      0.03s WALL (       1 calls)
     electrons    :    735.31s CPU    781.70s WALL (       1 calls)

     Called by init_run:
     wfcinit      :      0.00s CPU      0.00s WALL (       1 calls)
     potinit      :      0.01s CPU      0.01s WALL (       1 calls)
     hinit0       :      0.01s CPU      0.01s WALL (       1 calls)

     Called by electrons:
     c_bands      :    735.29s CPU    781.65s WALL (       1 calls)
     v_of_rho     :      0.00s CPU      0.00s WALL (       1 calls)

     Called by c_bands:
     init_us_2    :      0.00s CPU      0.00s WALL (      15 calls)
     init_us_2:cp :      0.00s CPU      0.00s WALL (      15 calls)
     paro_k       :    706.02s CPU    750.19s WALL (      15 calls)

     Called by paro_*:
     h_psi        :     15.79s CPU     16.76s WALL (    1562 calls)
     g_psi        :      0.33s CPU      0.38s WALL (  150734 calls)

     Called by h_psi:
     h_psi:calbec :      0.27s CPU      0.30s WALL (    1562 calls)
     vloc_psi     :     15.23s CPU     16.16s WALL (    1562 calls)
     add_vuspsi   :      0.14s CPU      0.15s WALL (    1562 calls)

     General routines
     calbec       :      0.27s CPU      0.29s WALL (    1562 calls)
     fft          :      0.00s CPU      0.00s WALL (      10 calls)
     fftw         :     13.62s CPU     14.46s WALL (  245922 calls)
 
     Parallel routines
 
     PWSCF        :  12m16.37s CPU  13m 3.26s WALL

 
   This run was terminated on:   3:30: 3  15Nov2023            

=------------------------------------------------------------------------------=
   JOB DONE.
=------------------------------------------------------------------------------=
