
     Program PWSCF v.7.1 starts on 20Dec2023 at 13:14:22 

     This program is part of the open-source Quantum ESPRESSO suite
     for quantum simulation of materials; please cite
         "P. Giannozzi et al., J. Phys.:Condens. Matter 21 395502 (2009);
         "P. Giannozzi et al., J. Phys.:Condens. Matter 29 465901 (2017);
         "P. Giannozzi et al., J. Chem. Phys. 152 154105 (2020);
          URL http://www.quantum-espresso.org", 
     in publications or presentations arising from this work. More details at
     http://www.quantum-espresso.org/quote

     Parallel version (MPI), running on    24 processors

     MPI processes distributed on     1 nodes
     123334 MiB available memory on the printing compute node when the environment starts
 
     Reading input from pw_mp-252_scf_k3000_E49.in
Warning: card &CELL ignored
Warning: card / ignored

     Current dimensions of program PWSCF are:
     Max number of different atomic species (ntypx) = 10
     Max number of k-points (npk) =  40000
     Max angular momentum in pseudopotentials (lmaxx) =  4
 
     K-points division:     npool     =       2
     R & G space division:  proc/nbgrp/npool/nimage =      12
     Subspace diagonalization in iterative solution of the eigenvalue problem:
     a serial algorithm will be used

 
     Parallelization info
     --------------------
     sticks:   dense  smooth     PW     G-vecs:    dense   smooth      PW
     Min          64      64     20                 1183     1183     201
     Max          65      65     21                 1186     1186     203
     Sum         769     769    241                14211    14211    2421
 
     Using Slab Decomposition
 


     bravais-lattice index     =            2
     lattice parameter (alat)  =      10.7014  a.u.
     unit-cell volume          =     306.3778 (a.u.)^3
     number of atoms/cell      =            2
     number of atomic types    =            2
     number of electrons       =        20.00
     number of Kohn-Sham states=           20
     kinetic-energy cutoff     =      49.0000  Ry
     charge density cutoff     =     196.0000  Ry
     scf convergence threshold =      1.0E-10
     mixing beta               =       0.7000
     number of iterations used =            8  plain     mixing
     Exchange-correlation= PBE
                           (   1   4   3   4   0   0   0)

     celldm(1)=  10.701363  celldm(2)=   0.000000  celldm(3)=   0.000000
     celldm(4)=   0.000000  celldm(5)=   0.000000  celldm(6)=   0.000000

     crystal axes: (cart. coord. in units of alat)
               a(1) = (  -0.500000   0.000000   0.500000 )  
               a(2) = (   0.000000   0.500000   0.500000 )  
               a(3) = (  -0.500000   0.500000   0.000000 )  

     reciprocal axes: (cart. coord. in units 2 pi/alat)
               b(1) = ( -1.000000 -1.000000  1.000000 )  
               b(2) = (  1.000000  1.000000  1.000000 )  
               b(3) = ( -1.000000  1.000000 -1.000000 )  


     PseudoPot. # 1 for Be read from file:
     /usr/scratch4/magr4985/MG/HTDF/pseudo/SG15/Be.upf
     MD5 check sum: dc1f98d164da9dc61a6fd2fad64b4ce2
     Pseudo is Norm-conserving, Zval =  4.0
     Generated using ONCVPSP code by D. R. Hamann
     Using radial grid of  602 points,  4 beta functions with: 
                l(1) =   0
                l(2) =   0
                l(3) =   1
                l(4) =   1

     PseudoPot. # 2 for Te read from file:
     /usr/scratch4/magr4985/MG/HTDF/pseudo/SG15/Te.upf
     MD5 check sum: dd4de4dac1e38587f63aaf3700bb29d3
     Pseudo is Norm-conserving, Zval = 16.0
     Generated using ONCVPSP code by D. R. Hamann
     Using radial grid of  602 points,  6 beta functions with: 
                l(1) =   0
                l(2) =   0
                l(3) =   1
                l(4) =   1
                l(5) =   2
                l(6) =   2

     atomic species   valence    mass     pseudopotential
        Be             4.00     9.01220     Be( 1.00)
        Te            16.00   127.60000     Te( 1.00)

     24 Sym. Ops. (no inversion) found



   Cartesian axes

     site n.     atom                  positions (alat units)
         1           Be  tau(   1) = (   0.0000000   0.0000000   0.0000000  )
         2           Te  tau(   2) = (  -0.7500000   0.7500000   0.7500000  )

     number of k points=    72  Gaussian smearing, width (Ry)=  0.0005
                       cart. coord. in units 2pi/alat
        k(    1) = (   0.0000000   0.0000000   0.0000000), wk =   0.0011574
        k(    2) = (  -0.0833333   0.0833333  -0.0833333), wk =   0.0092593
        k(    3) = (  -0.1666667   0.1666667  -0.1666667), wk =   0.0092593
        k(    4) = (  -0.2500000   0.2500000  -0.2500000), wk =   0.0092593
        k(    5) = (  -0.3333333   0.3333333  -0.3333333), wk =   0.0092593
        k(    6) = (  -0.4166667   0.4166667  -0.4166667), wk =   0.0092593
        k(    7) = (   0.5000000  -0.5000000   0.5000000), wk =   0.0046296
        k(    8) = (   0.0000000   0.1666667   0.0000000), wk =   0.0069444
        k(    9) = (  -0.0833333   0.2500000  -0.0833333), wk =   0.0277778
        k(   10) = (  -0.1666667   0.3333333  -0.1666667), wk =   0.0277778
        k(   11) = (  -0.2500000   0.4166667  -0.2500000), wk =   0.0277778
        k(   12) = (  -0.3333333   0.5000000  -0.3333333), wk =   0.0277778
        k(   13) = (   0.5833333  -0.4166667   0.5833333), wk =   0.0277778
        k(   14) = (   0.5000000  -0.3333333   0.5000000), wk =   0.0277778
        k(   15) = (   0.4166667  -0.2500000   0.4166667), wk =   0.0277778
        k(   16) = (   0.3333333  -0.1666667   0.3333333), wk =   0.0277778
        k(   17) = (   0.2500000  -0.0833333   0.2500000), wk =   0.0277778
        k(   18) = (   0.1666667  -0.0000000   0.1666667), wk =   0.0138889
        k(   19) = (   0.0000000   0.3333333   0.0000000), wk =   0.0069444
        k(   20) = (  -0.0833333   0.4166667  -0.0833333), wk =   0.0277778
        k(   21) = (  -0.1666667   0.5000000  -0.1666667), wk =   0.0277778
        k(   22) = (  -0.2500000   0.5833333  -0.2500000), wk =   0.0277778
        k(   23) = (   0.6666667  -0.3333333   0.6666667), wk =   0.0277778
        k(   24) = (   0.5833333  -0.2500000   0.5833333), wk =   0.0277778
        k(   25) = (   0.5000000  -0.1666667   0.5000000), wk =   0.0277778
        k(   26) = (   0.4166667  -0.0833333   0.4166667), wk =   0.0277778
        k(   27) = (   0.3333333   0.0000000   0.3333333), wk =   0.0138889
        k(   28) = (   0.0000000   0.5000000   0.0000000), wk =   0.0069444
        k(   29) = (  -0.0833333   0.5833333  -0.0833333), wk =   0.0277778
        k(   30) = (  -0.1666667   0.6666667  -0.1666667), wk =   0.0277778
        k(   31) = (   0.7500000  -0.2500000   0.7500000), wk =   0.0277778
        k(   32) = (   0.6666667  -0.1666667   0.6666667), wk =   0.0277778
        k(   33) = (   0.5833333  -0.0833333   0.5833333), wk =   0.0277778
        k(   34) = (   0.5000000   0.0000000   0.5000000), wk =   0.0138889
        k(   35) = (   0.0000000   0.6666667   0.0000000), wk =   0.0069444
        k(   36) = (  -0.0833333   0.7500000  -0.0833333), wk =   0.0277778
        k(   37) = (   0.8333333  -0.1666667   0.8333333), wk =   0.0277778
        k(   38) = (   0.7500000  -0.0833333   0.7500000), wk =   0.0277778
        k(   39) = (   0.6666667  -0.0000000   0.6666667), wk =   0.0138889
        k(   40) = (   0.0000000   0.8333333   0.0000000), wk =   0.0069444
        k(   41) = (   0.9166667  -0.0833333   0.9166667), wk =   0.0277778
        k(   42) = (   0.8333333   0.0000000   0.8333333), wk =   0.0138889
        k(   43) = (   0.0000000  -1.0000000   0.0000000), wk =   0.0034722
        k(   44) = (  -0.1666667   0.3333333   0.0000000), wk =   0.0277778
        k(   45) = (  -0.2500000   0.4166667  -0.0833333), wk =   0.0555556
        k(   46) = (  -0.3333333   0.5000000  -0.1666667), wk =   0.0555556
        k(   47) = (   0.5833333  -0.4166667   0.7500000), wk =   0.0555556
        k(   48) = (   0.5000000  -0.3333333   0.6666667), wk =   0.0277778
        k(   49) = (  -0.1666667   0.5000000   0.0000000), wk =   0.0277778
        k(   50) = (  -0.2500000   0.5833333  -0.0833333), wk =   0.0555556
        k(   51) = (   0.6666667  -0.3333333   0.8333333), wk =   0.0555556
        k(   52) = (   0.5833333  -0.2500000   0.7500000), wk =   0.0555556
        k(   53) = (   0.5000000  -0.1666667   0.6666667), wk =   0.0555556
        k(   54) = (   0.4166667  -0.0833333   0.5833333), wk =   0.0555556
        k(   55) = (   0.3333333   0.0000000   0.5000000), wk =   0.0277778
        k(   56) = (  -0.1666667   0.6666667  -0.0000000), wk =   0.0277778
        k(   57) = (   0.7500000  -0.2500000   0.9166667), wk =   0.0555556
        k(   58) = (   0.6666667  -0.1666667   0.8333333), wk =   0.0555556
        k(   59) = (   0.5833333  -0.0833333   0.7500000), wk =   0.0555556
        k(   60) = (   0.5000000   0.0000000   0.6666667), wk =   0.0277778
        k(   61) = (   0.8333333  -0.1666667   1.0000000), wk =   0.0277778
        k(   62) = (   0.7500000  -0.0833333   0.9166667), wk =   0.0555556
        k(   63) = (   0.6666667   0.0000000   0.8333333), wk =   0.0277778
        k(   64) = (  -0.1666667  -1.0000000  -0.0000000), wk =   0.0138889
        k(   65) = (   0.6666667  -0.3333333   1.0000000), wk =   0.0277778
        k(   66) = (   0.5833333  -0.2500000   0.9166667), wk =   0.0555556
        k(   67) = (   0.5000000  -0.1666667   0.8333333), wk =   0.0277778
        k(   68) = (   0.6666667  -0.1666667   1.0000000), wk =   0.0277778
        k(   69) = (   0.5833333  -0.0833333   0.9166667), wk =   0.0555556
        k(   70) = (   0.5000000   0.0000000   0.8333333), wk =   0.0277778
        k(   71) = (  -0.3333333  -1.0000000   0.0000000), wk =   0.0138889
        k(   72) = (  -0.5000000  -1.0000000   0.0000000), wk =   0.0069444

     Dense  grid:    14211 G-vectors     FFT dimensions: (  36,  36,  36)

     Estimated max dynamical RAM per process >       5.02 MB

     Estimated total dynamical RAM >     117.10 MB

     Initial potential from superposition of free atoms

     starting charge      19.9363, renormalised to      20.0000
     Starting wfcs are random

     total cpu time spent up to now is        0.3 secs

     Self-consistent Calculation

     iteration #  1     ecut=    49.00 Ry     beta= 0.70
     Davidson diagonalization with overlap
     ethr =  1.00E-02,  avg # of iterations =  8.4

     Threshold (ethr) on eigenvalues was too large:
     Diagonalizing with lowered threshold

     Davidson diagonalization with overlap
     ethr =  1.82E-04,  avg # of iterations =  2.9

     total cpu time spent up to now is        1.4 secs

     total energy              =    -201.43798498 Ry
     estimated scf accuracy    <       0.03368911 Ry

     iteration #  2     ecut=    49.00 Ry     beta= 0.70
     Davidson diagonalization with overlap
     ethr =  1.68E-04,  avg # of iterations =  1.5

     total cpu time spent up to now is        1.7 secs

     total energy              =    -201.44234372 Ry
     estimated scf accuracy    <       0.00401669 Ry

     iteration #  3     ecut=    49.00 Ry     beta= 0.70
     Davidson diagonalization with overlap
     ethr =  2.01E-05,  avg # of iterations =  3.0

     total cpu time spent up to now is        2.0 secs

     total energy              =    -201.44323105 Ry
     estimated scf accuracy    <       0.00031384 Ry

     iteration #  4     ecut=    49.00 Ry     beta= 0.70
     Davidson diagonalization with overlap
     ethr =  1.57E-06,  avg # of iterations =  3.4

     total cpu time spent up to now is        2.3 secs

     total energy              =    -201.44328112 Ry
     estimated scf accuracy    <       0.00000418 Ry

     iteration #  5     ecut=    49.00 Ry     beta= 0.70
     Davidson diagonalization with overlap
     ethr =  2.09E-08,  avg # of iterations =  2.2

     total cpu time spent up to now is        2.6 secs

     total energy              =    -201.44328178 Ry
     estimated scf accuracy    <       0.00000008 Ry

     iteration #  6     ecut=    49.00 Ry     beta= 0.70
     Davidson diagonalization with overlap
     ethr =  4.05E-10,  avg # of iterations =  2.2

     total cpu time spent up to now is        3.0 secs

     total energy              =    -201.44328180 Ry
     estimated scf accuracy    <          1.5E-09 Ry

     iteration #  7     ecut=    49.00 Ry     beta= 0.70
     Davidson diagonalization with overlap
     ethr =  7.38E-12,  avg # of iterations =  2.1

     total cpu time spent up to now is        3.2 secs

     End of self-consistent calculation

          k = 0.0000 0.0000 0.0000 (  1807 PWs)   bands (ev):

   -92.4242 -28.1759 -28.1759 -28.1759 -28.1638 -28.1638  -4.1100   8.0776
     8.0776   8.0776  11.7372  11.7372  11.7372  11.8044  16.5330  18.5014
    18.5014  19.5415  19.5415  19.5415

          k =-0.0833 0.0833-0.0833 (  1798 PWs)   bands (ev):

   -92.4242 -28.1757 -28.1757 -28.1757 -28.1638 -28.1638  -4.0455   7.4067
     7.9685   7.9685  11.6806  11.9007  11.9007  12.4946  16.7384  17.8824
    17.8824  19.3252  20.4616  20.4616

          k =-0.1667 0.1667-0.1667 (  1793 PWs)   bands (ev):

   -92.4242 -28.1754 -28.1751 -28.1751 -28.1637 -28.1637  -3.8584   6.1231
     7.7115   7.7115  11.5442  12.2716  12.2716  13.8064  17.1425  17.3086
    17.3086  19.1679  21.9799  21.9799

          k =-0.2500 0.2500-0.2500 (  1787 PWs)   bands (ev):

   -92.4242 -28.1749 -28.1745 -28.1745 -28.1635 -28.1635  -3.5710   4.8225
     7.4246   7.4246  11.3876  12.6016  12.6016  15.0835  17.2485  17.2572
    17.2572  19.7927  23.6971  23.6971

          k =-0.3333 0.3333-0.3333 (  1790 PWs)   bands (ev):

   -92.4242 -28.1745 -28.1739 -28.1739 -28.1633 -28.1633  -3.2326   3.7123
     7.1851   7.1851  11.2553  12.7337  12.7337  15.9057  17.4808  17.8301
    17.8301  20.7122  24.3738  24.3739

          k =-0.4167 0.4167-0.4167 (  1772 PWs)   bands (ev):

   -92.4242 -28.1742 -28.1735 -28.1735 -28.1630 -28.1630  -2.9355   2.9387
     7.0307   7.0307  11.1705  12.7291  12.7291  16.0376  18.3646  18.8784
    18.8784  20.8303  22.6352  22.6352

          k = 0.5000-0.5000 0.5000 (  1772 PWs)   bands (ev):

   -92.4242 -28.1740 -28.1734 -28.1734 -28.1630 -28.1630  -2.8120   2.6543
     6.9778   6.9778  11.1415  12.7115  12.7115  16.0167  19.0553  19.7420
    19.7420  20.4137  21.5138  21.5138

          k = 0.0000 0.1667 0.0000 (  1804 PWs)   bands (ev):

   -92.4242 -28.1760 -28.1755 -28.1755 -28.1639 -28.1637  -4.0240   7.5202
     7.7554   7.7554  11.5380  12.1945  12.1945  12.3846  16.6963  17.2892
    18.6168  19.7738  19.7738  20.7206

          k =-0.0833 0.2500-0.0833 (  1796 PWs)   bands (ev):

   -92.4242 -28.1759 -28.1750 -28.1749 -28.1640 -28.1635  -3.8776   6.4941
     7.4449   7.6214  11.5613  12.1910  12.6639  13.4232  16.4350  17.4156
    18.2412  19.6302  20.8258  21.8953

          k =-0.1667 0.3333-0.1667 (  1792 PWs)   bands (ev):

   -92.4242 -28.1755 -28.1744 -28.1743 -28.1640 -28.1633  -3.6226   5.2317
     7.1502   7.3690  11.6648  12.2753  13.0660  14.3480  16.6405  17.6990
    18.0353  19.7646  22.4436  23.5768

          k =-0.2500 0.4167-0.2500 (  1789 PWs)   bands (ev):

   -92.4242 -28.1749 -28.1738 -28.1736 -28.1638 -28.1630  -3.2977   4.0796
     6.9347   7.0639  11.6027  12.4764  13.2164  15.0093  17.5310  17.6708
    18.4316  20.5135  23.9419  24.9460

          k =-0.3333 0.5000-0.3333 (  1782 PWs)   bands (ev):

   -92.4242 -28.1744 -28.1734 -28.1732 -28.1635 -28.1629  -2.9788   3.2004
     6.7939   6.8272  11.5215  12.5626  13.1490  15.7163  17.6562  18.7795
    19.3226  20.7588  22.4853  24.2372

          k = 0.5833-0.4167 0.5833 (  1774 PWs)   bands (ev):

   -92.4242 -28.1740 -28.1733 -28.1731 -28.1632 -28.1629  -2.7874   2.7495
     6.6059   6.8366  11.4848  12.6157  13.0127  16.1494  18.2480  19.4987
    19.7614  20.5350  21.6411  22.9070

          k = 0.5000-0.3333 0.5000 (  1773 PWs)   bands (ev):

   -92.4242 -28.1740 -28.1734 -28.1732 -28.1631 -28.1630  -2.8292   2.8444
     6.5246   6.9592  11.5048  12.7209  12.8932  16.1907  18.3246  18.5831
    19.6751  20.7714  22.3567  22.9347

          k = 0.4167-0.2500 0.4167 (  1785 PWs)   bands (ev):

   -92.4242 -28.1743 -28.1736 -28.1735 -28.1634 -28.1630  -3.0787   3.4565
     6.5625   7.1797  11.5784  12.7784  12.8639  15.8205  17.4142  17.7657
    19.4352  20.6901  23.2527  24.7130

          k = 0.3333-0.1667 0.3333 (  1778 PWs)   bands (ev):

   -92.4242 -28.1748 -28.1742 -28.1739 -28.1637 -28.1632  -3.4110   4.4406
     6.7239   7.4672  11.6948  12.5767  12.9060  15.0627  16.7073  17.5784
    18.5104  20.2793  23.3875  24.8644

          k = 0.2500-0.0833 0.2500 (  1784 PWs)   bands (ev):

   -92.4242 -28.1753 -28.1749 -28.1745 -28.1639 -28.1634  -3.7186   5.6300
     7.0085   7.7637  11.8252  12.2420  12.6303  14.2225  16.6106  17.2622
    18.0376  19.8092  21.5923  23.4434

          k = 0.1667-0.0000 0.1667 (  1787 PWs)   bands (ev):

   -92.4242 -28.1756 -28.1755 -28.1752 -28.1639 -28.1636  -3.9399   6.7701
     7.4453   7.9688  11.8527  11.9371  12.1700  13.2504  16.9736  17.0601
    17.8844  20.0127  20.0856  21.8275

          k = 0.0000 0.3333 0.0000 (  1792 PWs)   bands (ev):

   -92.4242 -28.1762 -28.1744 -28.1744 -28.1642 -28.1632  -3.7739   6.4037
     7.0981   7.0981  11.1511  13.0588  13.2485  13.2485  15.9937  17.8201
    18.9636  20.4736  20.4736  21.7451

          k =-0.0833 0.4167-0.0833 (  1782 PWs)   bands (ev):

   -92.4242 -28.1761 -28.1737 -28.1737 -28.1644 -28.1629  -3.5589   5.4914
     6.7837   6.8447  11.1588  12.9074  13.7698  13.7894  16.4644  18.3286
    18.9241  20.5173  21.5887  22.9827

          k =-0.1667 0.5000-0.1667 (  1775 PWs)   bands (ev):

   -92.4242 -28.1757 -28.1731 -28.1730 -28.1643 -28.1627  -3.2632   4.4446
     6.5136   6.5634  11.3638  13.0287  13.8283  14.0590  17.6854  18.5161
    19.1581  20.7448  23.2072  24.6101

          k =-0.2500 0.5833-0.2500 (  1777 PWs)   bands (ev):

   -92.4242 -28.1751 -28.1728 -28.1726 -28.1640 -28.1626  -2.9479   3.5599
     6.1485   6.4655  11.4594  13.2378  14.0185  14.2637  18.3313  19.0386
    19.8677  20.8388  22.4994  24.9521

          k = 0.6667-0.3333 0.6667 (  1775 PWs)   bands (ev):

   -92.4242 -28.1745 -28.1728 -28.1724 -28.1637 -28.1627  -2.7161   3.0110
     5.8430   6.4987  11.5240  13.2157  13.8218  15.3173  17.9924  19.8434
    19.8865  20.6514  21.9766  24.8405

          k = 0.5833-0.2500 0.5833 (  1782 PWs)   bands (ev):

   -92.4242 -28.1740 -28.1730 -28.1725 -28.1634 -28.1630  -2.6811   2.9370
     5.6504   6.6578  11.6532  13.2058  13.5914  16.2768  17.5195  18.4653
    19.6591  21.4499  23.3456  23.9119

          k = 0.5000-0.1667 0.5000 (  1778 PWs)   bands (ev):

   -92.4242 -28.1738 -28.1734 -28.1730 -28.1634 -28.1631  -2.8630   3.3553
     5.6056   6.9231  11.8478  13.2719  13.3401  15.7591  17.2223  17.9089
    20.0430  21.2127  23.3470  25.1020

          k = 0.4167-0.0833 0.4167 (  1775 PWs)   bands (ev):

   -92.4242 -28.1743 -28.1736 -28.1735 -28.1637 -28.1631  -3.1651   4.1237
     5.7514   7.2540  12.0502  12.9967  13.3439  14.7710  16.4536  18.2977
    19.6625  21.0861  22.8297  23.9913

          k = 0.3333 0.0000 0.3333 (  1781 PWs)   bands (ev):

   -92.4242 -28.1749 -28.1743 -28.1739 -28.1639 -28.1632  -3.4748   4.9776
     6.1943   7.5746  12.1336  12.5601  13.0335  14.3377  16.2782  17.9911
    18.6599  20.9036  21.6843  24.7546

          k = 0.0000 0.5000 0.0000 (  1748 PWs)   bands (ev):

   -92.4242 -28.1765 -28.1729 -28.1729 -28.1646 -28.1626  -3.3871   5.2203
     6.4458   6.4458  10.7350  12.5112  14.5368  14.5368  16.7060  18.9424
    19.5421  21.6389  21.6389  22.7613

          k =-0.0833 0.5833-0.0833 (  1764 PWs)   bands (ev):

   -92.4242 -28.1765 -28.1722 -28.1722 -28.1648 -28.1623  -3.1327   4.5235
     6.0997   6.2037  10.7702  12.2517  14.8344  15.0404  17.7340  19.4021
    19.8551  21.7957  22.7863  24.2020

          k =-0.1667 0.6667-0.1667 (  1769 PWs)   bands (ev):

   -92.4242 -28.1760 -28.1718 -28.1717 -28.1647 -28.1622  -2.8448   3.8218
     5.6252   6.0894  10.9679  12.6232  14.7425  15.1418  18.9753  19.4595
    20.4234  21.6362  22.6477  24.5723

          k = 0.7500-0.2500 0.7500 (  1770 PWs)   bands (ev):

   -92.4242 -28.1753 -28.1718 -28.1715 -28.1644 -28.1623  -2.6075   3.3285
     5.1610   6.1142  11.0887  13.6490  14.5983  14.9548  18.4991  20.0363
    20.4473  21.2312  22.3858  25.5121

          k = 0.6667-0.1667 0.6667 (  1762 PWs)   bands (ev):

   -92.4242 -28.1745 -28.1722 -28.1716 -28.1639 -28.1626  -2.5215   3.1845
     4.8270   6.2748  11.2606  14.4499  14.6401  15.0613  17.2863  18.5577
    20.7306  21.7713  23.7778  25.4842

          k = 0.5833-0.0833 0.5833 (  1776 PWs)   bands (ev):

   -92.4242 -28.1740 -28.1728 -28.1721 -28.1635 -28.1631  -2.6316   3.4118
     4.7152   6.5524  11.5333  14.2223  14.4157  15.7611  16.7173  17.3184
    20.8138  21.9721  24.0471  25.4637

          k = 0.5000 0.0000 0.5000 (  1780 PWs)   bands (ev):

   -92.4242 -28.1738 -28.1734 -28.1728 -28.1635 -28.1632  -2.8794   3.8045
     4.9887   6.9055  11.8618  13.6412  14.2591  14.7190  16.6084  17.9944
    20.5052  21.7650  22.6350  25.1508

          k = 0.0000 0.6667 0.0000 (  1752 PWs)   bands (ev):

   -92.4242 -28.1768 -28.1714 -28.1714 -28.1651 -28.1620  -2.9266   4.1547
     5.9330   5.9330  10.3961  11.6195  15.8884  15.8884  18.0439  20.0855
    20.3526  23.1866  23.1866  24.1227

          k =-0.0833 0.7500-0.0833 (  1762 PWs)   bands (ev):

   -92.4242 -28.1767 -28.1709 -28.1709 -28.1652 -28.1618  -2.6875   3.6923
     5.5662   5.7894  10.4797  11.5119  16.1643  16.2961  18.9541  20.2693
    20.8932  22.7709  22.9889  24.0895

          k = 0.8333-0.1667 0.8333 (  1770 PWs)   bands (ev):

   -92.4242 -28.1762 -28.1708 -28.1707 -28.1650 -28.1619  -2.4833   3.3965
     4.9813   5.7880  10.6747  12.1610  16.0587  16.2152  18.9061  20.3977
    20.5777  22.6176  22.6359  24.9461

          k = 0.7500-0.0833 0.7500 (  1762 PWs)   bands (ev):

   -92.4242 -28.1754 -28.1712 -28.1708 -28.1646 -28.1622  -2.3910   3.3738
     4.4247   5.9287  10.8632  13.4101  15.8157  15.8879  17.5485  18.9334
    21.3134  22.6968  24.0196  25.3922

          k = 0.6667-0.0000 0.6667 (  1766 PWs)   bands (ev):

   -92.4242 -28.1746 -28.1719 -28.1713 -28.1640 -28.1627  -2.4507   3.5023
     4.2066   6.1960  11.1524  14.9159  15.1367  15.6273  16.2039  17.8439
    21.5268  22.5281  24.4387  25.3189

          k = 0.0000 0.8333 0.0000 (  1756 PWs)   bands (ev):

   -92.4242 -28.1771 -28.1703 -28.1703 -28.1654 -28.1615  -2.5143   3.3672
     5.6115   5.6115  10.1829  11.0083  17.1367  17.1367  19.1700  20.8314
    21.3943  22.5408  22.5408  24.2025

          k = 0.9167-0.0833 0.9167 (  1754 PWs)   bands (ev):

   -92.4242 -28.1769 -28.1701 -28.1701 -28.1654 -28.1615  -2.3798   3.1800
     5.2949   5.5756  10.3240  11.1205  17.2920  17.3085  19.3361  20.6877
    21.0320  22.5992  22.6414  24.1197

          k = 0.8333 0.0000 0.8333 (  1764 PWs)   bands (ev):

   -92.4242 -28.1763 -28.1705 -28.1703 -28.1651 -28.1618  -2.3344   3.2367
     4.7487   5.6852  10.5667  12.0075  16.8101  16.9310  18.2812  19.7487
    21.0710  23.3027  23.6907  24.8639

          k = 0.0000-1.0000 0.0000 (  1772 PWs)   bands (ev):

   -92.4242 -28.1772 -28.1699 -28.1699 -28.1655 -28.1614  -2.3392   3.0646
     5.5023   5.5023  10.1113  10.7968  17.7658  17.7658  19.6602  20.9904
    21.7821  21.7821  22.5347  22.8285

          k =-0.1667 0.3333 0.0000 (  1785 PWs)   bands (ev):

   -92.4242 -28.1758 -28.1744 -28.1743 -28.1641 -28.1632  -3.6966   5.7991
     6.8059   7.4979  11.5990  12.4717  13.1294  13.8504  16.3302  17.7638
    18.3487  20.5141  20.8160  23.1138

          k =-0.2500 0.4167-0.0833 (  1785 PWs)   bands (ev):

   -92.4242 -28.1754 -28.1738 -28.1737 -28.1641 -28.1630  -3.4201   4.7918
     6.3561   7.2577  11.8396  12.5522  13.5466  14.1047  16.8045  18.0895
    18.8182  20.5834  22.4042  24.6433

          k =-0.3333 0.5000-0.1667 (  1784 PWs)   bands (ev):

   -92.4242 -28.1748 -28.1734 -28.1731 -28.1639 -28.1628  -3.0969   3.8123
     6.1147   6.9594  11.9247  12.6041  13.6503  14.7049  17.5369  18.1652
    19.7554  20.7484  23.2660  24.3779

          k = 0.5833-0.4167 0.7500 (  1776 PWs)   bands (ev):

   -92.4242 -28.1742 -28.1733 -28.1727 -28.1635 -28.1628  -2.8163   3.1054
     6.0040   6.7214  11.9151  12.5374  13.6640  15.6240  17.7824  18.7837
    19.8774  20.9045  22.5484  24.5096

          k = 0.5000-0.3333 0.6667 (  1776 PWs)   bands (ev):

   -92.4242 -28.1739 -28.1734 -28.1725 -28.1633 -28.1629  -2.7006   2.8434
     5.9759   6.6291  11.9079  12.4905  13.6570  16.2502  17.5919  19.2583
    19.7405  20.7191  22.7547  23.6885

          k =-0.1667 0.5000 0.0000 (  1772 PWs)   bands (ev):

   -92.4242 -28.1761 -28.1730 -28.1729 -28.1645 -28.1627  -3.3229   4.8645
     6.1681   6.7078  11.2015  12.8009  13.8410  14.4626  17.1712  18.8076
    19.2740  21.3125  22.0113  24.1709

          k =-0.2500 0.5833-0.0833 (  1775 PWs)   bands (ev):

   -92.4242 -28.1756 -28.1726 -28.1722 -28.1644 -28.1625  -3.0280   4.1004
     5.7354   6.4546  11.4872  13.0148  13.6471  14.9102  18.0495  18.9445
    19.9944  21.4339  23.0251  23.8661

          k = 0.6667-0.3333 0.8333 (  1777 PWs)   bands (ev):

   -92.4242 -28.1750 -28.1726 -28.1718 -28.1642 -28.1625  -2.7466   3.4410
     5.4458   6.2496  11.6491  13.3542  13.8912  15.0247  18.2829  19.2382
    20.4856  21.0482  22.7898  24.6857

          k = 0.5833-0.2500 0.7500 (  1777 PWs)   bands (ev):

   -92.4242 -28.1743 -28.1729 -28.1716 -28.1638 -28.1627  -2.5844   3.0985
     5.2329   6.2231  11.7860  13.1332  14.7237  15.3418  17.2076  19.7761
    20.2661  20.7793  23.3898  25.2866

          k = 0.5000-0.1667 0.6667 (  1770 PWs)   bands (ev):

   -92.4242 -28.1738 -28.1734 -28.1718 -28.1637 -28.1629  -2.6245   3.1894
     5.1243   6.3802  11.9978  12.9596  14.6254  15.7373  16.8805  18.6070
    20.3118  21.5489  23.9856  24.7899

          k = 0.4167-0.0833 0.5833 (  1777 PWs)   bands (ev):

   -92.4242 -28.1743 -28.1733 -28.1723 -28.1638 -28.1628  -2.8444   3.6603
     5.1964   6.6674  12.2621  12.7952  14.1794  14.9317  17.4492  18.1145
    20.4537  21.5183  23.0630  24.7963

          k = 0.3333 0.0000 0.5000 (  1775 PWs)   bands (ev):

   -92.4242 -28.1749 -28.1733 -28.1730 -28.1640 -28.1628  -3.1411   4.2763
     5.5801   7.0029  12.2930  12.5975  13.8478  14.2906  16.9115  18.6253
    19.6542  21.6515  22.2962  23.9215

          k =-0.1667 0.6667-0.0000 (  1773 PWs)   bands (ev):

   -92.4242 -28.1764 -28.1717 -28.1714 -28.1649 -28.1621  -2.8822   4.0306
     5.6685   5.9914  10.8714  12.0231  14.9167  15.8647  18.4661  19.6956
    20.4440  22.5434  22.8338  23.9594

          k = 0.7500-0.2500 0.9167 (  1772 PWs)   bands (ev):

   -92.4242 -28.1759 -28.1717 -28.1709 -28.1648 -28.1621  -2.6302   3.5951
     5.1953   5.8013  11.1720  12.4329  14.6894  16.2214  18.8010  19.6275
    21.0153  21.8544  23.1307  24.1788

          k = 0.6667-0.1667 0.8333 (  1771 PWs)   bands (ev):

   -92.4242 -28.1751 -28.1720 -28.1707 -28.1645 -28.1623  -2.4615   3.3639
     4.7249   5.8061  11.3563  13.5439  14.4205  16.0599  17.6345  20.0015
    20.7725  21.6899  23.7889  25.2500

          k = 0.5833-0.0833 0.7500 (  1772 PWs)   bands (ev):

   -92.4242 -28.1743 -28.1726 -28.1709 -28.1641 -28.1626  -2.4507   3.4046
     4.4301   5.9884  11.5934  14.1404  14.9613  15.3917  16.6735  18.7128
    21.2990  22.0778  24.7067  24.8743

          k = 0.5000 0.0000 0.6667 (  1780 PWs)   bands (ev):

   -92.4242 -28.1738 -28.1733 -28.1715 -28.1638 -28.1629  -2.6013   3.5638
     4.5473   6.2999  11.9264  13.6667  14.4977  15.7151  16.8125  17.7764
    21.2219  22.0344  23.6569  25.6751

          k = 0.8333-0.1667 1.0000 (  1761 PWs)   bands (ev):

   -92.4242 -28.1766 -28.1707 -28.1703 -28.1652 -28.1617  -2.4939   3.3999
     5.3627   5.5166  10.6632  11.4473  16.1293  17.0658  19.2436  20.0830
    21.3154  22.2549  23.2588  24.3781

          k = 0.7500-0.0833 0.9167 (  1768 PWs)   bands (ev):

   -92.4242 -28.1760 -28.1710 -28.1701 -28.1650 -28.1619  -2.3650   3.3147
     4.8357   5.4886  10.9899  12.1119  15.8637  16.7967  18.5632  20.1390
    20.8953  22.4818  24.1592  24.8792

          k = 0.6667 0.0000 0.8333 (  1769 PWs)   bands (ev):

   -92.4242 -28.1752 -28.1717 -28.1703 -28.1646 -28.1622  -2.3500   3.4410
     4.3368   5.6704  11.2476  13.4227  15.3941  15.7976  17.7246  19.2191
    21.2743  22.8909  24.7048  24.8577

          k =-0.1667-1.0000-0.0000 (  1758 PWs)   bands (ev):

   -92.4242 -28.1767 -28.1704 -28.1699 -28.1653 -28.1616  -2.3312   3.1533
     5.2681   5.3456  10.5936  11.2479  17.1216  17.1918  19.3027  20.2356
    21.2873  22.0071  23.9570  23.9730

          k = 0.6667-0.3333 1.0000 (  1777 PWs)   bands (ev):

   -92.4242 -28.1751 -28.1726 -28.1715 -28.1644 -28.1624  -2.7614   3.7680
     5.1045   6.1492  12.0676  13.0861  13.3328  15.7968  18.2366  18.5643
    20.8254  22.0359  22.7541  24.9216

          k = 0.5833-0.2500 0.9167 (  1776 PWs)   bands (ev):

   -92.4242 -28.1744 -28.1729 -28.1709 -28.1642 -28.1625  -2.5393   3.4653
     4.7676   5.8559  12.4662  12.9935  13.8727  16.0769  17.2645  19.1541
    21.1525  21.6771  24.0298  24.6154

          k = 0.5000-0.1667 0.8333 (  1776 PWs)   bands (ev):

   -92.4242 -28.1738 -28.1733 -28.1707 -28.1641 -28.1626  -2.4505   3.3331
     4.6760   5.7383  12.6120  12.8016  15.0235  15.2824  16.8289  20.1065
    20.7209  21.3040  24.6299  25.1630

          k = 0.6667-0.1667 1.0000 (  1779 PWs)   bands (ev):

   -92.4242 -28.1753 -28.1720 -28.1703 -28.1647 -28.1622  -2.4433   3.4780
     4.8348   5.4051  11.8898  12.5728  14.3712  16.5701  18.1980  19.7178
    21.2333  22.2326  23.9079  24.7894

          k = 0.5833-0.0833 0.9167 (  1767 PWs)   bands (ev):

   -92.4242 -28.1745 -28.1726 -28.1701 -28.1645 -28.1624  -2.3497   3.4993
     4.4812   5.2824  12.3022  13.5602  14.0783  15.3534  18.1755  20.0825
    20.8723  22.2878  24.5834  25.2866

          k = 0.5000 0.0000 0.8333 (  1772 PWs)   bands (ev):

   -92.4242 -28.1738 -28.1733 -28.1703 -28.1643 -28.1625  -2.3877   3.5462
     4.3707   5.4784  12.6009  13.5481  14.1362  15.1320  17.7297  19.4184
    21.2418  22.4471  24.1385  25.1754

          k =-0.3333-1.0000 0.0000 (  1766 PWs)   bands (ev):

   -92.4242 -28.1754 -28.1717 -28.1699 -28.1648 -28.1621  -2.3156   3.3894
     4.7808   5.0760  11.8305  12.3952  15.4287  15.7172  19.0812  19.8314
    21.1481  22.1070  25.3932  25.4075

          k =-0.5000-1.0000 0.0000 (  1768 PWs)   bands (ev):

   -92.4242 -28.1738 -28.1733 -28.1699 -28.1645 -28.1624  -2.3077   3.5778
     4.4818   4.9570  13.3854  13.6636  13.6972  14.2569  19.0471  19.7563
    21.1274  22.1509  25.3389  25.4048

     the Fermi energy is     9.1123 ev

!    total energy              =    -201.44328180 Ry
     estimated scf accuracy    <          3.3E-11 Ry
     smearing contrib. (-TS)   =      -0.00000000 Ry
     internal energy E=F+TS    =    -201.44328180 Ry

     The total energy is F=E-TS. E is the sum of the following terms:
     one-electron contribution =    -102.35471524 Ry
     hartree contribution      =      49.71696696 Ry
     xc contribution           =     -22.67857661 Ry
     ewald contribution        =    -126.12695692 Ry

     convergence has been achieved in   7 iterations

     Writing all to output data dir out/mp-252.save/
 
     init_run     :      0.11s CPU      0.15s WALL (       1 calls)
     electrons    :      2.66s CPU      2.92s WALL (       1 calls)

     Called by init_run:
     wfcinit      :      0.09s CPU      0.10s WALL (       1 calls)
     potinit      :      0.01s CPU      0.01s WALL (       1 calls)
     hinit0       :      0.01s CPU      0.03s WALL (       1 calls)

     Called by electrons:
     c_bands      :      2.35s CPU      2.57s WALL (       8 calls)
     sum_band     :      0.29s CPU      0.32s WALL (       8 calls)
     v_of_rho     :      0.01s CPU      0.02s WALL (       8 calls)
     mix_rho      :      0.00s CPU      0.00s WALL (       8 calls)

     Called by c_bands:
     init_us_2    :      0.03s CPU      0.03s WALL (     612 calls)
     init_us_2:cp :      0.03s CPU      0.03s WALL (     612 calls)
     cegterg      :      2.16s CPU      2.30s WALL (     288 calls)

     Called by *egterg:
     cdiaghg      :      0.50s CPU      0.52s WALL (    1171 calls)
     h_psi        :      1.54s CPU      1.66s WALL (    1243 calls)
     g_psi        :      0.01s CPU      0.01s WALL (     919 calls)

     Called by h_psi:
     h_psi:calbec :      0.05s CPU      0.05s WALL (    1243 calls)
     vloc_psi     :      1.45s CPU      1.56s WALL (    1243 calls)
     add_vuspsi   :      0.03s CPU      0.03s WALL (    1243 calls)

     General routines
     calbec       :      0.05s CPU      0.05s WALL (    1243 calls)
     fft          :      0.01s CPU      0.02s WALL (      80 calls)
     ffts         :      0.00s CPU      0.00s WALL (       8 calls)
     fftw         :      1.53s CPU      1.66s WALL (   39116 calls)
 
     Parallel routines
 
     PWSCF        :      2.85s CPU      3.37s WALL

 
   This run was terminated on:  13:14:25  20Dec2023            

=------------------------------------------------------------------------------=
   JOB DONE.
=------------------------------------------------------------------------------=
