
     Program PWSCF v.7.1 starts on 17Nov2023 at 19:56:36 

     This program is part of the open-source Quantum ESPRESSO suite
     for quantum simulation of materials; please cite
         "P. Giannozzi et al., J. Phys.:Condens. Matter 21 395502 (2009);
         "P. Giannozzi et al., J. Phys.:Condens. Matter 29 465901 (2017);
         "P. Giannozzi et al., J. Chem. Phys. 152 154105 (2020);
          URL http://www.quantum-espresso.org", 
     in publications or presentations arising from this work. More details at
     http://www.quantum-espresso.org/quote

     Parallel version (MPI), running on    24 processors

     MPI processes distributed on     1 nodes
     123059 MiB available memory on the printing compute node when the environment starts
 
     Reading input from pw_mp-1500_nscf_k690_E47.in
Warning: card &IONS ignored
Warning: card / ignored
Warning: card &CELL ignored
Warning: card / ignored

     Current dimensions of program PWSCF are:
     Max number of different atomic species (ntypx) = 10
     Max number of k-points (npk) =  40000
     Max angular momentum in pseudopotentials (lmaxx) =  4

     Atomic positions and unit cell read from directory:
     out/mp-1500.save/
     Atomic positions from file used, from input discarded
 
 
     K-points division:     npool     =       2
     R & G space division:  proc/nbgrp/npool/nimage =      12
     Subspace diagonalization in iterative solution of the eigenvalue problem:
     one sub-group per band group will be used
     scalapack distributed-memory algorithm (size of sub-group:  3*  3 procs)

 
     Parallelization info
     --------------------
     sticks:   dense  smooth     PW     G-vecs:    dense   smooth      PW
     Min          79      79     24                 1643     1643     273
     Max          80      80     25                 1648     1648     275
     Sum         955     955    295                19747    19747    3287
 
     Using Slab Decomposition
 


     bravais-lattice index     =            2
     lattice parameter (alat)  =      12.1913  a.u.
     unit-cell volume          =     452.9900 (a.u.)^3
     number of atoms/cell      =            2
     number of atomic types    =            2
     number of electrons       =        16.00
     number of Kohn-Sham states=         1200
     kinetic-energy cutoff     =      47.0000  Ry
     charge density cutoff     =     188.0000  Ry
     Exchange-correlation= PBE
                           (   1   4   3   4   0   0   0)

     celldm(1)=  12.191286  celldm(2)=   0.000000  celldm(3)=   0.000000
     celldm(4)=   0.000000  celldm(5)=   0.000000  celldm(6)=   0.000000

     crystal axes: (cart. coord. in units of alat)
               a(1) = (  -0.500000   0.000000   0.500000 )  
               a(2) = (   0.000000   0.500000   0.500000 )  
               a(3) = (  -0.500000   0.500000   0.000000 )  

     reciprocal axes: (cart. coord. in units 2 pi/alat)
               b(1) = ( -1.000000 -1.000000  1.000000 )  
               b(2) = (  1.000000  1.000000  1.000000 )  
               b(3) = ( -1.000000  1.000000 -1.000000 )  


     PseudoPot. # 1 for Ba read from file:
     /usr/scratch4/magr4985/MG/HTDF/pseudo/SG15/Ba.upf
     MD5 check sum: ac4691792522964bb0504809e83fae44
     Pseudo is Norm-conserving, Zval = 10.0
     Generated using ONCVPSP code by D. R. Hamann
     Using radial grid of  602 points,  8 beta functions with: 
                l(1) =   0
                l(2) =   0
                l(3) =   1
                l(4) =   1
                l(5) =   2
                l(6) =   2
                l(7) =   3
                l(8) =   3

     PseudoPot. # 2 for S  read from file:
     /usr/scratch4/magr4985/MG/HTDF/pseudo/SG15/S.upf
     MD5 check sum: f9d020296ee6110346977bfd66d424f6
     Pseudo is Norm-conserving, Zval =  6.0
     Generated using ONCVPSP code by D. R. Hamann
     Using radial grid of  602 points,  4 beta functions with: 
                l(1) =   0
                l(2) =   0
                l(3) =   1
                l(4) =   1

     atomic species   valence    mass     pseudopotential
        Ba            10.00   137.32700     Ba( 1.00)
        S              6.00    32.06500     S ( 1.00)

     48 Sym. Ops., with inversion, found



   Cartesian axes

     site n.     atom                  positions (alat units)
         1           Ba  tau(   1) = (   0.0000000   0.0000000   0.0000000  )
         2           S   tau(   2) = (  -0.5000000   0.5000000   0.5000000  )

     number of k points=    29  Gaussian smearing, width (Ry)=  0.0005
                       cart. coord. in units 2pi/alat
        k(    1) = (   0.0000000   0.0000000   0.0000000), wk =   0.0039062
        k(    2) = (  -0.1250000   0.1250000  -0.1250000), wk =   0.0312500
        k(    3) = (  -0.2500000   0.2500000  -0.2500000), wk =   0.0312500
        k(    4) = (  -0.3750000   0.3750000  -0.3750000), wk =   0.0312500
        k(    5) = (   0.5000000  -0.5000000   0.5000000), wk =   0.0156250
        k(    6) = (   0.0000000   0.2500000   0.0000000), wk =   0.0234375
        k(    7) = (  -0.1250000   0.3750000  -0.1250000), wk =   0.0937500
        k(    8) = (  -0.2500000   0.5000000  -0.2500000), wk =   0.0937500
        k(    9) = (   0.6250000  -0.3750000   0.6250000), wk =   0.0937500
        k(   10) = (   0.5000000  -0.2500000   0.5000000), wk =   0.0937500
        k(   11) = (   0.3750000  -0.1250000   0.3750000), wk =   0.0937500
        k(   12) = (   0.2500000   0.0000000   0.2500000), wk =   0.0468750
        k(   13) = (   0.0000000   0.5000000   0.0000000), wk =   0.0234375
        k(   14) = (  -0.1250000   0.6250000  -0.1250000), wk =   0.0937500
        k(   15) = (   0.7500000  -0.2500000   0.7500000), wk =   0.0937500
        k(   16) = (   0.6250000  -0.1250000   0.6250000), wk =   0.0937500
        k(   17) = (   0.5000000   0.0000000   0.5000000), wk =   0.0468750
        k(   18) = (   0.0000000   0.7500000   0.0000000), wk =   0.0234375
        k(   19) = (   0.8750000  -0.1250000   0.8750000), wk =   0.0937500
        k(   20) = (   0.7500000   0.0000000   0.7500000), wk =   0.0468750
        k(   21) = (   0.0000000  -1.0000000   0.0000000), wk =   0.0117188
        k(   22) = (  -0.2500000   0.5000000   0.0000000), wk =   0.0937500
        k(   23) = (   0.6250000  -0.3750000   0.8750000), wk =   0.1875000
        k(   24) = (   0.5000000  -0.2500000   0.7500000), wk =   0.0937500
        k(   25) = (   0.7500000  -0.2500000   1.0000000), wk =   0.0937500
        k(   26) = (   0.6250000  -0.1250000   0.8750000), wk =   0.1875000
        k(   27) = (   0.5000000   0.0000000   0.7500000), wk =   0.0937500
        k(   28) = (  -0.2500000  -1.0000000   0.0000000), wk =   0.0468750
        k(   29) = (  -0.5000000  -1.0000000   0.0000000), wk =   0.0234375

     Dense  grid:    19747 G-vectors     FFT dimensions: (  40,  40,  40)

     Estimated max dynamical RAM per process >     106.65 MB

     Estimated total dynamical RAM >       2.50 GB

     The potential is recalculated from file :
     out/mp-1500.save/charge-density

     Starting wfcs are random

     Band Structure Calculation
     ParO style diagonalization

     ethr =  5.00E-06,  avg # of iterations =  6.2

     total cpu time spent up to now is      783.6 secs

     End of band structure calculation

          k = 0.0000 0.0000 0.0000 (  2445 PWs)   bands (ev):

   -20.5640  -5.6330  -5.6330  -5.6330  -4.7755   5.4776   5.4776   5.4776
     9.0149   9.4424   9.4424   9.4424  10.3422  10.3422  12.9054  15.3305
    15.3305  15.3305  15.4788  15.4788  15.4788  17.6292  20.1067  20.1067
    20.1067  22.9364  22.9364  22.9364  23.8195  23.8195  26.0945  26.0945
    26.0945  27.0072  27.4664  27.4664  29.7801  29.7801  29.7801  30.4198
    30.4198  30.4198  35.5601  38.5711  38.5711  38.5711  38.8121  38.8121
    38.8121  38.9502  38.9502  38.9502  39.2648  39.2648  39.2648  40.8400
    41.6438  41.6438  41.6438  41.6880  42.1388  42.1388  42.1388  42.6614
    42.6614  43.7704  44.5387  44.5387  52.0753  52.0753  52.0753  56.1989
    56.2177  56.2177  56.2177  60.0976  60.0976  60.8267  60.8267  60.8267
    61.5730  61.5730  61.5730  63.5324  63.5324  63.5324  64.4103  64.4103
    66.0447  66.6246  66.6246  66.6246  66.7018  66.7018  66.7018  67.0863
    67.0863  67.0863  67.2232  67.2232  67.2232  68.1691  68.9920  68.9920
    68.9920  69.1886  69.1886  69.1886  69.7418  69.7418  70.0985  70.0985
    70.0985  70.6859  70.6859  71.6332  71.6332  71.6332  72.6615  75.2556
    77.3843  77.3843  78.4636  78.4636  78.4636  80.2911  82.8363  82.8363
    82.8363  84.0629  84.0629  84.3759  84.3759  84.3759  84.6312  84.6312
    84.6312  85.1508  85.1508  85.1508  85.6800  85.6800  85.6800  86.0028
    86.0028  87.1610  87.1610  87.1610  88.8876  89.7608  89.7608  89.7608
    91.6834  93.1476  93.1476  93.1476  93.9231  93.9231  93.9231  94.0003
    94.3121  94.3121  94.3121  94.6013  94.6013  94.6013  95.0056  95.0056
    95.0056  99.5057  99.5057  99.6007  99.6007  99.6007  99.7803 100.5741
   106.6710 106.6710 106.6710 107.0825 107.0825 107.5624 107.5624 110.1153
   110.1153 110.1153 111.3557 111.3557 111.3557 111.7062 111.7062 111.7062
   113.7591 116.8411 116.8411 116.8411 117.5780 118.3866 118.3866 118.3866
   118.4425 118.4425 118.4425 119.3016 119.3016 120.0162 120.0162 120.0162
   121.0703 121.0703 121.0703 121.1275 121.1275 121.1275 121.1440 121.1440
   121.4863 121.5512 121.9581 122.7220 122.7220 122.9082 122.9082 122.9082
   124.2009 124.2009 124.2009 124.4245 124.4245 124.4245 124.6327 124.6327
   124.6327 125.3044 126.6945 126.6945 126.6945 126.7333 126.7333 126.7333
   126.9984 126.9984 127.4884 127.4884 127.4884 127.5482 128.1639 128.1639
   128.1639 128.2332 128.2332 128.4440 128.4440 128.4440 128.6886 128.8844
   128.8844 128.8844 128.9143 128.9143 128.9143 129.0160 129.0160 129.1348
   129.1348 129.1348 134.9793 135.9257 135.9257 135.9257 136.2646 136.2646
   136.2646 136.5548 136.5548 137.4852 137.4852 137.4852 138.2740 138.2740
   138.2740 140.6194 140.6194 140.6194 143.0035 143.0035 143.1456 143.1951
   143.2349 143.2349 143.2349 145.7040 145.7040 145.7040 148.4810 149.7329
   149.7329 149.7329 151.2669 151.3519 151.3519 151.3519 151.4385 151.4385
   152.0537 152.0537 152.0537 152.1675 152.1675 153.2053 153.2053 153.2053
   153.4212 153.4212 153.4212 154.2848 154.2848 154.4778 154.4778 154.4778
   155.2746 155.2746 155.2746 155.3714 155.3714 155.8275 155.8275 155.8275
   156.0141 156.0141 156.0141 156.0291 156.0291 156.0291 156.1577 157.9867
   157.9869 157.9869 157.9869 161.1823 161.1823 165.2273 165.2273 165.2273
   166.4504 166.4504 166.4504 166.5377 169.9285 170.8002 170.8002 170.8661
   171.3086 171.3086 171.3086 171.9267 171.9267 171.9267 173.1099 173.1099
   173.1099 174.0123 174.0123 174.0123 174.3214 174.7640 174.7640 174.7640
   176.6443 176.6443 177.5982 177.5982 177.5982 178.6505 178.6505 178.6505
   179.8628 179.8628 179.8628 180.2465 180.2465 180.2465 182.7318 182.7318
   182.7318 182.7931 182.7931 182.7931 182.8379 182.8379 182.9385 182.9385
   182.9385 182.9702 182.9702 182.9702 183.1034 183.1034 183.2279 183.2279
   183.2279 183.3772 183.3969 183.3969 183.3969 184.4627 185.6701 185.6701
   185.6701 185.8592 185.8592 185.8592 186.0988 186.0988 186.1315 186.1315
   186.1315 186.2068 191.9236 191.9236 191.9236 192.9628 194.6911 194.7971
   194.7971 195.1021 195.1021 195.1021 195.1617 195.1617 195.1617 195.7469
   195.8293 195.8293 195.8293 195.8541 195.8541 196.3941 196.3941 196.3941
   197.9648 197.9648 197.9648 198.1090 198.1090 198.5557 198.5557 198.5557
   199.8235 199.8235 199.9125 199.9125 199.9125 200.1122 200.1122 200.1122
   200.1417 200.1417 200.1417 200.4838 200.4838 200.6792 200.6792 200.6792
   201.5008 201.5008 201.5008 201.6709 201.8462 201.8549 201.8549 201.8549
   202.6814 202.6814 202.6814 203.3400 203.3400 203.3400 203.8516 203.8516
   203.8516 204.6019 205.0102 205.0102 205.0102 205.3868 205.3868 205.3890
   205.3890 205.3890 206.0844 206.8561 206.8561 206.8561 209.1545 209.1545
   209.6251 209.6251 209.6251 209.7088 209.7088 209.7088 210.4357 210.4357
   210.4357 210.5562 210.5562 210.5562 210.6025 210.6025 210.6477 211.5254
   211.5254 211.5254 211.6127 211.6127 211.7453 211.7453 211.7453 212.0233
   212.2054 212.4000 212.4000 213.2484 213.2484 213.2484 213.2791 213.2791
   213.2791 213.4541 213.4541 213.4541 213.5424 213.5424 213.5424 214.6941
   214.7393 214.7393 214.7393 214.7465 214.7465 224.1497 224.1497 224.1497
   229.8556 229.8556 229.8556 229.9867 235.0921 235.0921 235.0921 235.3099
   235.3827 235.3827 235.5441 235.6145 235.6145 235.6145 236.0242 236.0242
   236.0242 236.1424 236.1424 236.1424 236.4893 236.4893 236.4893 236.5258
   236.5258 236.5258 236.5736 236.5736 236.6693 236.6693 236.8522 236.8522
   236.8522 237.0859 237.0859 237.0859 237.4691 237.4691 237.4691 237.9190
   239.0702 239.0702 239.0702 239.6379 239.6379 239.6379 242.4894 242.4894
   242.8634 242.8634 242.8634 243.0778 243.0778 243.0778 243.0779 243.0779
   243.1459 243.1459 243.1459 243.1717 243.1717 243.1717 243.9119 243.9119
   244.0882 244.1876 244.1876 244.1876 245.1065 245.1065 245.1065 247.1115
   248.6733 248.6733 248.6875 248.6875 248.6875 248.9938 250.4910 250.4910
   250.4910 251.5880 252.1118 252.1118 252.1118 253.2006 253.2006 253.2006
   253.2733 253.2733 255.1042 255.1792 255.1792 255.1792 255.2830 255.2830
   256.0262 256.0262 256.0262 256.0651 256.0651 256.0651 256.4506 256.4506
   256.4506 257.1658 257.1658 257.1658 257.3029 257.3029 257.7204 257.7204
   257.7204 257.9885 258.1968 258.1968 258.1968 262.8038 262.8038 263.0216
   263.0216 263.0216 263.3210 263.3210 263.3210 263.3692 263.3692 263.3692
   263.5262 264.0181 264.0181 264.0181 264.9719 265.5803 266.0747 266.0747
   266.0797 266.0797 266.0797 266.1858 266.1858 266.1858 266.7780 266.7780
   266.7780 266.9757 266.9757 266.9757 268.2312 268.2312 268.2312 269.0220
   269.5825 269.5825 269.6476 269.6476 269.6476 270.2558 271.0879 271.0879
   271.0879 271.0968 271.0968 271.0968 271.2631 271.2631 271.2783 271.2783
   271.2783 271.3603 271.3603 271.3603 271.3918 271.3918 271.3918 271.4309
   271.4309 271.4309 271.5195 271.5739 271.5739 271.5739 271.5939 271.5939
   272.2060 272.2060 274.1007 275.9752 275.9752 275.9752 276.9306 276.9306
   276.9306 277.2619 280.7785 280.7785 280.7785 280.7984 280.7984 281.0252
   281.0252 281.0252 281.1273 281.4113 281.4113 281.4113 281.6600 281.6600
   281.6600 281.6933 281.7727 281.7727 285.1686 285.1686 285.1686 286.7744
   286.7744 286.7744 288.1414 288.1414 288.1414 289.0950 291.2294 291.2294
   291.2294 291.5036 291.5994 291.5994 291.5994 291.7026 291.7026 291.7026
   291.8796 291.8796 291.9028 291.9028 294.1550 294.1550 294.1550 294.2107
   294.2107 294.2107 294.3802 294.3802 294.3802 294.4906 294.4906 294.4906
   294.4914 294.4914 294.4914 294.9773 294.9773 294.9773 295.5577 295.5577
   295.5659 295.5659 295.5659 295.6333 295.6333 295.6333 296.3332 296.3405
   296.3405 296.3405 296.6163 296.6163 296.6163 296.6252 296.6252 297.3483
   297.3483 297.3483 297.6766 297.6766 297.7161 297.7161 297.7161 297.9106
   297.9106 297.9106 298.0132 298.0132 298.0237 298.0237 298.0237 298.4230
   298.6692 298.6692 298.6692 298.7385 298.7385 298.7385 298.8728 301.5363
   301.5363 301.5363 301.5690 301.5690 301.6571 301.6770 301.6770 301.6770
   301.7233 301.7233 301.7233 301.7416 301.7416 301.7416 301.7478 301.7478
   301.7860 301.7860 301.7860 302.0686 302.1145 302.1145 302.2774 302.2774
   302.2774 302.4395 302.4395 302.4395 302.5524 302.8650 304.2851 304.2851
   304.2851 306.1565 306.1565 306.1565 306.1751 309.2254 309.2254 309.2254
   311.1793 311.1793 311.1793 313.1123 313.1123 314.4222 314.6503 314.6503
   314.6503 314.7524 314.7524 314.7524 314.9000 314.9000 314.9000 315.2096
   315.2096 315.2096 315.2779 315.2779 315.4679 315.4679 316.0707 316.0707
   316.0707 316.9898 316.9898 316.9898 317.3923 317.3923 317.3923 320.5227
   320.5227 320.5227 320.7762 320.7762 320.9972 322.1341 325.2765 325.2765
   325.2765 325.2768 325.2768 325.2768 325.5912 325.5912 325.5912 325.6140
   325.6140 328.6482 328.6482 328.6482 328.6694 328.6694 328.6694 328.7058
   328.7058 328.7058 328.8062 328.8062 328.8062 329.3728 330.2282 330.2282
   330.2284 330.2284 330.2284 330.2352 335.8796 337.3957 337.3957 337.4810
   337.4810 337.4810 338.1431 338.1431 338.1431 340.9111 340.9111 340.9111
   341.0097 341.0097 341.0097 341.0771 341.0771 341.0771 341.1593 341.1973
   341.1973 341.3196 341.6937 341.6937 341.6937 341.7646 341.7646 341.7905
   341.7905 341.7905 342.8398 342.8398 343.1816 343.6383 343.6383 343.6383
   343.7829 343.7829 343.7829 343.9955 343.9955 343.9955 344.6261 346.4124
   346.4124 346.4124 347.4365 347.4365 347.4365 347.6475 347.6475 348.3834
   348.3834 348.3834 350.5790 351.4281 351.4281 351.4281 351.5493 351.5493
   351.5493 351.5668 351.5668 351.5668 351.9220 351.9220 352.4157 352.4157
   352.4157 352.4711 352.4711 352.9916 353.3025 353.3025 353.3025 353.5846
   353.6112 353.6112 353.6112 355.0989 355.0989 355.0989 355.2029 355.2029
   355.2100 355.2100 355.2100 355.4541 355.4541 355.4541 355.5696 355.5696
   355.5758 355.5758 355.5758 355.5996 355.6027 355.6027 355.6027 355.9447
   355.9447 355.9447 356.1078 356.1369 356.1369 356.1369 356.2411 356.2411
   356.3547 356.3547 356.3720 356.3720 356.3720 356.3749 356.3749 356.3749
   356.3823 356.3823 356.3823 362.3349 363.7798 363.7798 363.7798 364.0505
   364.0505 364.0505 366.1255 366.1255 366.1255 366.3158 366.3158 366.3158
   366.7060 366.7060 366.7060 366.8233 366.8233 367.0269 367.7060 367.7060
   367.7060 367.7591 367.7591 367.7591 368.0437 368.0437 368.0890 368.0890
   368.0890 368.5448 368.5448 368.5448 369.7197 369.7197 369.7197 369.9905
   370.2080 370.2080 370.2080 370.2869 370.2869 371.9567 371.9567 371.9567
   372.0597 372.0597 372.0597 372.8258 372.8258 372.8258 372.8459 372.8459
   372.8459 372.8876 372.8876 372.8876 372.8941 372.8941 372.9419 373.0853
   373.2560 373.2560 373.2560 373.3374 373.3374 373.3978 373.3978 373.3978
   374.1978 374.1978 374.1978 374.2133 374.2133 374.2382 374.3101 374.3101
   374.3101 374.3770 374.5303 374.5303 374.6304 374.6304 374.6304 374.8657
   374.8657 374.8657 375.9118 375.9118 376.0158 376.0158 376.0158 376.2535
   376.2535 376.2535 376.4258 377.3887 380.1522 380.1522 380.1522 380.4492
   380.4492 380.4492 380.6109 381.1697 381.1697 381.2044 381.2044 381.2044
   381.9724 382.0621 382.0621 382.0621 382.1690 382.1690 382.1690 382.1939
   382.1939 382.1939 382.2919 382.2919 382.5205 382.5205 382.5205 383.4570
   383.5043 383.5043 383.5043 385.0272 385.1444 385.1444 385.1444 385.1582

          k =-0.1250 0.1250-0.1250 (  2493 PWs)   bands (ev):

   -20.5584  -5.8922  -5.6382  -5.6382  -4.5041   5.1007   5.2966   5.2966
     9.3848   9.6234   9.6552   9.6552  10.7479  10.7479  13.3365  15.2430
    15.2430  15.3349  15.3662  15.4470  15.4470  17.7668  19.1586  19.5778
    19.5778  22.0475  22.0475  23.2163  24.0751  24.0751  24.9552  26.3014
    26.3014  27.4198  27.4198  28.2534  29.9004  30.1836  30.1836  30.4481
    31.3304  31.3304  35.9104  36.1835  36.1835  36.2544  36.7398  38.2754
    38.2754  39.1047  39.1233  39.1233  39.5405  40.7354  40.7354  40.7695
    41.3932  41.3932  41.6891  42.4825  42.4825  43.1723  43.6834  43.6834
    44.3846  45.6858  45.6858  46.4826  50.9174  53.1821  53.1821  54.2372
    54.9216  54.9216  57.2561  57.7093  57.7093  58.7710  59.9272  59.9272
    61.8715  61.8715  62.1546  62.5645  62.5645  63.0544  63.3074  63.5692
    63.5692  64.2727  64.5007  64.5007  65.6985  65.6985  67.0113  67.0113
    67.2257  67.5455  68.0671  68.0671  68.1550  69.2991  69.2991  69.3610
    69.6905  69.7178  69.7178  69.8711  69.9130  69.9130  70.9487  71.6340
    71.6340  72.0924  74.6581  74.8664  74.8664  75.1213  75.1213  76.1590
    76.4394  76.4394  76.7709  77.3469  77.3469  78.6033  78.6033  80.7398
    81.4946  81.4946  81.8368  83.2309  83.2309  83.7658  84.2121  84.7326
    84.7326  84.9875  86.5860  86.8761  86.8761  86.8865  86.9688  86.9688
    87.8971  87.8971  88.3825  88.9937  89.1538  89.1538  89.8803  90.0109
    90.0109  90.6297  91.2983  91.2983  92.6304  92.6304  93.0016  94.5162
    95.2779  95.2779  95.6362  96.1832  96.1832  97.1110  97.9865  97.9865
    97.9963  98.6140  98.6140  99.9088 102.2051 102.2051 102.7377 104.2394
   104.4342 104.4342 104.8329 105.5783 105.5783 106.6649 106.6649 108.0544
   109.5808 109.5808 110.0781 111.4191 111.4445 111.4445 112.9102 112.9102
   114.0013 114.0557 114.0557 114.8379 115.8689 116.0641 116.3609 116.3609
   116.8353 117.2951 117.2951 117.6763 118.0344 118.0344 118.5380 119.3516
   119.3516 119.7892 119.7892 120.0906 120.6064 120.6064 120.6076 120.8470
   120.8470 120.8873 120.8873 121.3521 121.6606 122.4244 122.4244 122.6445
   122.6445 123.3194 123.4694 123.4694 123.5712 124.1136 124.9168 124.9168
   125.0225 125.8189 125.8251 125.8251 126.5620 126.5620 126.9274 127.3692
   127.3692 127.5395 127.8335 127.8773 127.8773 128.4848 128.4848 128.8864
   129.3174 129.3174 129.5625 129.9675 130.4694 130.4694 130.7224 130.7926
   130.7926 131.4794 131.4794 131.5070 131.8486 131.8486 131.8780 132.4378
   133.7260 133.7260 133.9435 134.4223 134.6322 134.6322 135.1436 135.1436
   135.8181 137.5249 137.5249 138.1379 138.2533 138.2533 138.5012 140.0238
   141.2565 141.2565 141.7962 141.7962 142.2234 142.8547 143.0155 143.0155
   143.2307 143.2307 144.3590 145.4049 145.4049 146.7081 146.7081 147.0525
   148.1310 148.1310 148.5294 148.5588 148.8376 148.8376 149.0795 150.0048
   150.0048 150.0438 150.2824 150.2824 150.9016 151.2361 151.2361 151.5987
   151.6863 151.6863 152.7439 153.4501 153.4501 154.4271 155.5632 155.5632
   155.8770 156.4525 156.4525 156.7644 157.3664 157.3875 157.3875 157.4779
   158.1304 158.1478 158.1478 160.6667 160.7463 160.7463 161.3542 161.3542
   161.4039 162.6617 162.6617 163.1909 163.1909 163.4050 164.0529 164.9557
   165.1117 165.1117 165.5487 165.5487 167.6956 167.6956 168.0407 169.0328
   169.0328 169.8204 171.1567 171.6458 171.6458 172.4099 172.6131 172.8481
   172.8481 173.0280 173.0280 173.7461 173.7461 174.0794 174.2031 174.2031
   174.4393 174.4393 174.6072 174.7514 175.7336 175.9323 176.0705 176.0705
   176.3155 176.3155 178.7993 180.0622 180.0622 180.1266 180.1266 180.2556
   180.3190 180.9653 182.7047 182.7115 182.7115 183.0049 183.0049 183.1669
   183.2985 183.2985 183.9671 183.9671 184.1532 184.1680 184.2098 184.2098
   185.1955 185.1955 185.4404 185.4996 185.4996 185.5439 186.3343 186.3343
   186.8999 187.1712 187.8211 187.8211 188.5018 189.5080 189.5080 190.1395
   190.1395 191.1039 191.4452 191.5117 191.5117 191.9222 191.9232 191.9232
   192.2136 192.2136 192.7849 192.7849 192.8549 193.0020 193.0392 193.0392
   193.2106 193.5096 193.5096 194.1120 194.9238 195.2081 195.2179 195.2179
   195.5546 196.0943 196.0943 196.4240 196.4292 197.3376 197.3376 197.5052
   197.5052 197.7127 198.0255 198.0255 198.9279 198.9279 199.4573 199.6527
   199.6527 199.9118 199.9118 200.5618 200.6354 200.6354 200.6777 200.8881
   200.8881 201.4408 201.4408 201.5611 202.4049 202.5472 202.5472 203.1290
   203.1798 203.1798 203.6046 204.1156 204.4547 204.4547 204.8165 204.8165
   204.9179 205.1659 205.1659 205.2321 205.9178 205.9916 205.9916 206.7915
   207.0020 207.0020 207.5077 207.5077 207.7855 207.7855 207.9200 207.9934
   208.3359 208.3359 208.3863 208.6849 208.9734 208.9734 209.4397 209.4397
   210.6439 210.6439 210.7627 210.7627 210.8259 211.2464 211.7523 211.7523
   211.7628 212.1638 212.1638 212.4333 212.7038 213.5982 213.6954 213.6954
   214.1035 214.2395 214.2395 215.2708 215.9544 215.9544 216.2500 216.6609
   216.6609 216.7315 217.7956 217.7956 217.8700 220.7902 220.7902 221.4952
   222.5622 222.5622 223.1577 223.4603 223.4746 223.8331 223.8331 224.3303
   224.3303 225.7176 225.7176 226.5581 227.1179 227.1179 228.5578 229.4727
   229.4727 229.6093 229.6992 230.2202 230.2202 230.7638 230.7638 230.9414
   230.9414 231.8274 231.9275 231.9275 232.4500 233.0565 233.9713 233.9713
   236.0570 236.0570 236.0745 236.9730 236.9730 237.3561 237.7586 237.7586
   237.8403 237.9673 237.9676 237.9676 238.4112 238.7982 238.7982 239.6246
   240.0507 240.0507 240.8483 240.8483 241.8375 242.0327 242.5015 242.5015
   242.9041 242.9041 242.9420 243.1703 243.1703 244.2536 244.2557 244.4033
   244.4033 245.4088 245.4088 245.8319 246.2597 246.2597 246.2650 246.3356
   246.3356 246.6668 247.3941 247.3941 247.5901 248.0143 248.2269 248.2269
   248.5737 248.6975 248.6975 248.7106 249.1728 249.1728 249.2365 249.2365
   249.3868 249.4047 249.5520 249.8102 249.8102 251.5943 251.5943 251.6145
   251.7298 252.2820 252.2820 252.5490 253.1220 253.2174 253.2174 253.7505
   254.0640 254.0640 254.5131 254.6030 254.6030 255.3815 255.3815 255.9143
   255.9143 257.7500 257.7500 258.0339 258.5341 259.1432 259.1432 259.8004
   259.8004 259.9316 260.1339 260.2368 260.2368 260.8690 260.8690 260.8930
   260.9402 261.8096 261.8096 262.5164 262.5164 262.7435 262.8363 263.0491
   263.1192 263.1192 263.5098 263.5098 263.7637 264.2288 264.2288 264.3088
   264.8732 264.8732 265.3608 265.3608 265.5970 265.6404 265.9111 265.9111
   266.5260 266.5260 266.9962 267.4645 267.4645 267.8391 268.3577 268.5932
   268.8045 268.8045 269.2669 269.2669 269.4752 269.4752 269.8895 270.1305
   270.2993 270.2993 270.4537 271.0876 271.3147 271.5590 271.5590 271.6918
   271.6918 272.3196 272.3196 272.7632 273.0456 273.0456 273.1380 273.2008
   273.2008 273.9070 274.6274 274.6274 274.7559 275.8044 276.1592 276.5122
   276.5122 277.2909 277.2909 277.8160 278.0081 278.0081 278.7010 278.7010
   278.7458 279.4655 279.9381 279.9381 280.4884 280.9354 280.9354 281.1527
   281.7799 282.4343 282.4343 282.5992 282.6001 282.6189 282.6189 283.2319
   283.2768 283.2768 284.1205 284.1205 284.5266 284.5266 284.8579 284.9781
   284.9781 285.0873 285.0873 285.3978 285.7913 285.7913 286.0064 286.2174
   286.4911 286.4911 287.0198 287.0493 287.0493 287.9563 287.9563 288.0452
   289.2558 289.2558 289.3452 289.4083 289.4083 290.0498 290.0498 290.0701
   290.3472 290.3600 290.8929 291.0090 291.0090 291.5459 291.5459 292.0460
   292.0972 292.0972 292.1944 292.8011 292.8199 292.8199 293.4491 293.5389
   293.5517 293.5517 294.0053 294.0785 294.0785 294.9089 295.0019 295.0019
   295.1934 295.1934 295.2921 295.7766 295.7766 296.1061 296.6089 296.6089
   297.1360 297.2139 297.2139 297.4832 297.7391 297.7391 298.9165 299.1057
   299.1057 299.2763 299.2763 299.2775 300.1665 300.4684 300.4684 300.8217
   300.8217 301.0160 301.1377 301.1377 301.7212 301.8331 301.8331 302.3043
   302.5913 302.5913 302.7332 302.8048 302.8048 303.0988 303.4783 303.4950
   303.4950 303.6366 303.6366 303.6628 303.9490 303.9490 304.6818 305.0523
   305.0523 305.7891 305.7891 305.8565 306.2796 306.2796 306.5620 306.7966
   307.9679 308.5077 308.5077 308.9481 308.9481 309.1183 309.5127 309.5127
   309.7804 309.7804 309.7835 310.0906 310.1568 310.1568 310.1574 310.2585
   310.2585 310.3517 310.8953 310.8953 310.8973 311.0808 311.0808 311.7212
   311.7212 312.0906 312.2612 313.4564 313.4564 314.4621 314.4621 315.2467
   315.6377 316.0815 316.2422 316.2422 316.7514 316.7514 317.5538 318.2097
   318.2097 318.8006 318.8699 318.8699 318.9004 318.9004 319.7003 319.7194
   321.3492 321.3836 321.3836 321.7201 321.7201 321.7452 322.1342 322.1342
   322.5956 324.1461 324.5123 324.5123 324.5264 325.0434 325.0434 325.6007
   326.4940 326.4940 327.0160 327.3092 328.5477 328.5477 329.3902 329.3902
   330.0164 330.0164 330.0876 330.4900 330.4900 330.9484 331.4959 332.7469
   332.8413 332.8413 333.7939 334.2308 334.2308 334.7381 334.7381 334.8879
   335.0707 335.0707 335.1306 335.5997 335.5997 336.3479 336.9527 336.9527
   337.7282 338.1940 338.3250 338.3250 339.2837 339.2837 340.1667 340.2933
   340.2933 340.7469 340.7469 340.7783 340.7802 340.8576 340.8576 341.1268
   341.1268 342.0573 342.0664 342.0664 342.4316 342.4316 342.9520 343.0809
   343.6973 343.6973 343.7620 343.7628 343.7628 343.8921 344.0023 344.0023
   344.8021 345.1311 345.1879 345.1879 345.5189 345.5189 346.1210 346.6775
   346.6775 347.8041 348.2538 348.2538 348.7508 348.9559 348.9559 349.2162
   349.2162 349.3072 349.4357 349.4489 349.4489 349.6373 350.6710 350.6710
   351.5373 351.5373 351.7285 352.0843 352.0843 352.6244 353.5049 354.5062
   354.5062 354.9861 355.3450 355.3450 355.4035 355.5764 355.5764 355.9164
   355.9164 355.9198 356.1497 356.1497 356.1582 356.2932 356.2932 356.4749
   356.4793 356.5219 356.5219 356.5231 356.6740 356.6740 356.7450 357.0759
   357.0759 357.2593 357.7312 357.7312 358.1778 358.4949 358.5476 358.5476
   358.9849 358.9849 359.0209 359.1045 359.1293 359.2278 359.2278 359.5289
   359.5289 360.4772 360.4772 360.7060 360.7060 361.2878 361.4549 361.6050
   361.6050 361.9863 361.9863 361.9865 362.4938 362.4938 362.5385 363.3756
   363.3756 363.4110 363.7962 364.1167 365.0454 365.2734 365.2734 365.5709
   365.5709 366.0194 366.2926 366.3189 366.3189 366.5720 366.5720 366.8336
   367.0201 367.0201 367.0578 367.9762 368.3253 368.3253 368.8603 368.8603
   369.0351 369.0517 369.2443 369.9214 369.9214 370.0120 370.3459 370.3459
   370.5849 370.5849 370.7443 370.7443 370.9378 370.9378 371.0641 371.1036
   371.5252 371.5252 372.0942 372.0942 372.2562 372.3671 372.4825 372.4825
   373.4718 373.4718 373.6418 373.6983 373.6983 373.7049 374.0474 374.1581
   374.1581 374.3262 374.3404 374.3404 374.3605 374.5441 374.5441 375.3719
   375.6931 375.6931 375.8333 375.8947 375.8947 376.1404 376.4099 376.4099
   376.4799 376.5637 376.5637 377.1173 377.1173 377.2772 377.3133 377.4991
   377.7077 377.7077 377.7984 378.1783 378.1783 378.6830 378.6830 378.9143
   379.1231 379.1231 379.4667 379.6171 379.6171 379.9421 380.2148 380.2148
   380.6125 380.7140 380.7140 382.0166 382.2037 382.2037 382.6133 382.6255
   382.6255 383.0073 383.1235 383.1235 383.5336 383.8115 383.8115 384.1974
   384.1974 384.3766 384.4562 384.6391 384.6391 384.8232 384.9031 384.9031

          k =-0.2500 0.2500-0.2500 (  2475 PWs)   bands (ev):

   -20.5448  -6.2816  -5.6506  -5.6506  -4.0838   4.4145   4.9301   4.9301
     9.5837  10.2541  10.2541  10.7650  11.7753  11.7753  14.1530  14.8834
    14.8834  15.0265  15.3459  15.3994  15.3994  17.5241  18.3634  18.3634
    18.6693  20.7354  20.7354  22.4485  23.8558  24.3120  24.3120  26.3400
    26.3400  27.9126  27.9126  29.9073  30.2352  30.2352  30.2664  31.0375
    32.0974  34.0182  34.0182  34.0941  34.0941  34.8144  37.4083  37.4083
    37.6133  38.2757  38.2757  38.5517  39.7682  40.8075  41.1413  41.1413
    41.8958  41.8958  44.1826  44.1826  44.6662  44.9264  44.9264  45.2980
    47.0838  48.0895  49.7952  49.7952  50.4877  51.3428  51.3428  52.3913
    54.6851  54.6851  54.8335  55.2124  55.2124  58.2061  58.2061  58.6631
    59.3881  59.3881  59.8286  60.3373  60.3373  60.3384  62.2496  62.2496
    62.8198  62.8198  62.8888  63.8328  65.2414  65.2414  66.3483  66.6297
    67.2596  67.2596  68.3675  69.4188  70.1157  70.1157  70.5067  70.5067
    70.6206  71.4042  71.4042  71.4667  71.4667  71.9240  72.5822  72.5822
    72.8092  73.1978  73.3564  73.3564  75.3412  75.3412  76.5403  77.3968
    77.3968  77.5456  78.7029  78.7029  78.9129  78.9643  80.6276  80.6276
    81.2224  81.2224  81.3144  81.7043  82.1978  83.1503  83.1503  84.6202
    84.6983  84.6983  84.8454  84.8454  85.4348  85.7807  85.7807  85.8054
    87.4365  88.7834  88.7834  89.3818  90.0779  90.0779  90.7278  90.9850
    90.9850  92.4968  92.5325  92.5325  93.1172  93.3745  93.3745  95.9793
    96.0893  96.0893  97.0170  97.9587  97.9587  98.1478 100.0250 100.0250
   100.7599 101.4034 101.4034 102.5217 102.5217 102.7160 103.2740 103.2740
   103.7206 104.5586 104.6382 104.6382 106.8961 107.3753 107.3753 107.9018
   108.5487 108.5487 108.8435 109.4836 109.4836 110.1259 110.1259 110.6587
   110.9477 110.9982 111.6413 111.7292 111.7292 112.4233 112.4233 113.2535
   113.2535 113.6707 113.9260 113.9260 114.5310 115.4557 115.9410 115.9410
   115.9428 117.0342 117.0342 119.7464 120.2822 120.2822 120.7609 121.0300
   121.0300 121.2614 121.5869 121.5869 121.7154 122.2384 122.7453 122.7453
   123.7045 123.7045 123.9678 124.0064 124.5432 124.5432 124.8926 124.8926
   125.7020 125.7020 125.9428 126.0020 126.0328 126.0328 126.5862 126.6576
   127.3370 127.3370 128.3339 128.3339 129.0884 129.3196 129.7340 129.7340
   130.7877 130.8154 130.8154 130.8192 132.1979 132.1979 132.2634 132.7297
   132.9646 132.9646 133.1714 133.1714 133.5309 133.7838 133.7838 134.6505
   134.6505 134.8955 135.5170 135.8420 135.8420 137.4086 137.5352 137.5352
   138.2203 138.7603 138.7603 139.1787 139.5952 140.0343 140.0343 141.0708
   141.0708 141.6008 142.7330 142.7330 143.7520 143.7520 143.9356 143.9955
   144.6796 145.0273 145.0273 145.2256 145.2256 146.1581 146.1581 146.1627
   146.3242 146.6054 146.6054 146.9547 147.0596 147.0596 147.3947 148.1541
   150.4187 150.4187 150.7273 151.3895 151.3895 151.9261 151.9261 151.9664
   152.5873 152.5873 152.6156 153.3561 153.3561 154.2383 155.8572 155.9837
   155.9837 156.3292 156.9204 156.9204 158.0962 159.4373 159.4392 159.4392
   160.0212 160.0212 160.5187 160.5187 160.8287 161.9594 162.3310 162.3391
   162.3391 162.5472 162.5472 165.0980 165.8254 165.8254 165.9167 166.0551
   166.0551 166.5283 166.5696 166.6786 166.7919 166.7919 167.2093 167.2093
   167.5643 167.5643 167.6437 167.6437 167.7755 168.4329 171.0925 171.6462
   171.6462 171.8932 171.8932 172.0977 172.7771 172.7771 172.9134 173.9845
   173.9845 174.0616 174.1926 174.1926 174.9600 174.9600 175.1643 175.2755
   175.9330 175.9330 176.7029 176.7029 176.7951 177.9259 177.9259 178.2028
   179.4019 179.4019 179.7791 179.7791 180.3927 180.4773 181.0529 182.6743
   182.7716 182.7716 183.5301 183.5301 183.5760 183.7719 183.7719 184.2953
   184.2953 184.4891 185.0771 185.3801 185.3801 185.6265 185.6265 185.7354
   186.4449 186.7168 186.7168 186.7176 187.8738 187.8738 188.0306 188.4025
   188.4025 188.7894 190.0575 190.4867 190.4867 191.5141 191.5141 191.5144
   191.7624 191.7624 192.0919 192.4577 192.6633 192.6633 193.0061 193.1903
   193.1903 193.3181 193.3756 193.3756 193.6452 193.6452 194.6508 195.7991
   195.7991 195.9347 196.0164 196.0164 196.2287 196.6666 196.8584 196.8584
   197.1498 197.9311 197.9311 198.4592 198.4592 198.8520 199.3497 199.3497
   199.6434 199.8650 199.8650 200.4424 200.5876 200.6984 200.6984 201.1481
   201.1481 201.5442 201.5442 201.5741 201.6898 201.6898 201.8213 202.6528
   202.8581 202.8581 203.4005 203.5322 203.8723 203.8723 205.3519 205.3519
   205.7011 205.7011 206.0765 206.0976 206.1503 206.1503 206.7354 206.7528
   206.7528 207.1606 207.6756 208.1807 208.1807 208.4773 210.0371 210.0371
   210.5527 211.2102 211.2102 212.3132 212.3132 212.7415 213.0959 213.0959
   213.3339 213.6421 214.5898 214.5898 214.7761 215.6985 215.6985 215.7536
   216.2459 216.2459 216.8347 217.4935 217.4935 217.5764 218.2538 218.2538
   218.3427 219.4733 219.4733 220.0380 220.0380 220.3624 220.8616 221.2252
   221.2252 221.6062 221.6062 221.7310 221.7310 221.7556 222.4813 222.4813
   222.6128 222.6587 222.6587 222.7784 223.1873 223.8279 224.1451 224.1451
   224.4466 224.4466 224.5398 224.8842 224.8842 225.7239 225.7239 225.7410
   226.4379 227.0037 227.3831 227.3831 228.1150 229.8570 230.0133 230.0133
   231.0345 231.1930 231.2390 231.2390 231.9978 232.1064 232.1064 232.6833
   232.6833 232.9260 232.9260 233.0833 233.1805 233.1805 233.3987 235.1991
   235.1991 235.3224 235.8479 235.8479 235.9732 236.3777 236.3777 236.9379
   236.9379 237.2821 238.3075 239.4025 239.4025 239.5137 240.0661 240.0661
   241.2509 241.2509 241.2846 242.2102 242.4620 242.4620 242.8472 242.8621
   242.8621 242.9599 243.9174 243.9210 243.9210 244.9688 244.9688 245.8564
   247.4808 247.7218 247.7218 248.2515 248.2515 248.7365 248.7365 248.7371
   248.8944 248.8944 248.9763 249.3073 249.4885 249.4885 250.0222 250.0494
   250.0494 250.5029 250.7085 250.7085 250.8311 250.8908 251.1499 251.1499
   251.8233 251.8233 252.0076 252.3388 252.3388 252.4037 253.3154 253.5006
   253.5006 254.0319 254.0319 254.0554 254.4349 254.5194 254.5194 255.3298
   255.7499 255.7499 257.0651 257.0651 257.4203 257.4203 257.8492 257.8492
   257.8798 259.2523 260.0647 260.1634 260.1634 260.3890 260.5554 260.6248
   260.6248 261.0914 261.8053 261.8053 261.8796 263.7806 263.7885 263.7885
   263.9528 264.5636 264.5636 264.7804 264.9994 265.1237 265.1237 265.3003
   265.3003 265.5302 265.5302 266.4763 266.5164 266.5164 267.5954 267.8268
   267.8268 268.3553 268.3553 268.3637 268.6124 268.6124 269.5856 269.6468
   269.6468 269.8312 270.3689 270.5911 270.5911 270.6900 270.6900 271.0476
   271.4713 271.4713 272.0517 272.2828 272.5286 272.5286 272.5457 273.1110
   273.1110 273.2175 273.2175 273.6293 273.6293 274.3720 274.7216 274.7216
   274.7352 274.7538 275.0536 275.0536 275.4350 275.4350 275.5464 275.6606
   275.9237 275.9237 276.0577 276.2668 276.2668 276.5778 277.1055 277.2274
   277.2274 277.3341 277.3341 277.6193 278.0420 278.0928 278.0928 278.5391
   278.5391 279.0141 279.0141 279.1911 279.6070 279.6632 280.1717 280.1717
   281.0082 281.0082 281.2766 282.4179 282.4179 282.4317 283.2394 283.9038
   284.8075 284.8075 285.3436 285.3436 285.3857 285.5925 286.4200 286.4200
   286.7180 286.7180 286.9117 286.9240 286.9240 287.0622 287.1743 287.1743
   287.6310 288.2373 288.2373 288.8330 288.8330 289.2593 289.2593 289.3907
   289.7225 289.7225 289.8185 290.2796 290.2796 290.3416 290.8791 291.6190
   291.6190 292.4727 292.4727 292.5105 292.8448 293.3741 293.3825 293.3825
   293.8039 293.8606 293.8606 294.1019 294.1019 294.1149 294.3400 294.6687
   295.2008 295.2008 295.2924 295.2924 295.4644 296.3039 296.3039 296.5503
   296.5503 296.6517 297.5099 297.5099 298.0993 299.3157 299.3885 299.3885
   299.5097 299.7988 299.7988 300.2411 300.2411 300.5606 301.5402 301.8704
   301.8704 302.6612 302.6612 302.7987 303.5538 303.9802 304.1171 304.1171
   304.4309 304.4309 305.5021 305.5021 305.5101 305.5484 305.8898 305.8898
   306.0002 306.1204 306.1204 306.5613 306.5613 307.0463 307.4280 307.8024
   307.8024 308.1188 308.4894 308.4894 309.0974 309.1570 309.1570 309.3295
   309.4117 309.4117 309.7764 309.8622 310.0509 310.0509 310.1495 310.1495
   310.3426 310.7190 311.2260 311.2260 311.4452 311.4452 311.4915 312.4813
   312.8357 312.8357 314.2090 314.2090 314.2841 314.6791 314.6791 315.3382
   316.4099 316.4903 316.4903 317.4398 317.4398 317.7072 318.0030 318.6378
   318.7414 318.7414 319.0912 319.0912 319.3768 319.3768 319.5030 319.5324
   319.6990 319.6990 319.7371 319.9488 319.9488 319.9662 320.1370 320.1370
   320.6141 322.2452 322.2452 322.5417 323.0312 323.0312 323.3488 323.8646
   323.8646 324.7724 324.7724 324.8741 325.8254 325.9462 325.9462 326.0301
   326.6352 326.6352 326.8521 327.4601 327.4601 327.6271 327.6271 327.7606
   327.7606 328.1363 328.6664 328.7118 328.7118 328.8445 329.5316 329.8099
   329.8099 330.6263 330.6263 330.9881 330.9881 331.5090 332.5323 332.6897
   332.8547 332.8547 333.0162 333.0162 333.9911 334.9389 335.4949 335.4949
   336.7393 337.3134 337.3134 337.3899 338.0370 338.0370 338.3748 338.7114
   338.7114 338.9983 339.0716 340.4341 340.4341 340.5692 340.7259 341.0035
   341.0035 341.2871 341.2871 341.5081 341.5081 342.1803 342.1803 342.3721
   342.3721 342.4289 342.5371 342.8543 343.2467 343.2467 343.9499 343.9499
   344.2277 344.4186 344.4186 344.7096 344.7096 345.2310 345.2310 345.2793
   345.3944 345.8415 345.9423 345.9423 346.4670 346.4670 346.6606 347.2142
   347.6976 347.6976 348.1656 348.2535 348.2535 348.4510 348.5537 348.9762
   348.9762 349.0326 349.0326 349.4244 349.4244 349.4295 349.6600 349.6600
   350.0655 350.5450 350.8331 351.7559 351.7559 352.2605 352.2605 352.4594
   352.4714 352.4714 352.5211 352.6132 352.8044 352.8044 353.0324 353.0445
   353.0445 354.2215 354.2215 354.2612 355.0199 355.6617 355.6617 356.4502
   356.6967 356.7082 356.7082 357.2256 357.2256 357.4444 357.4444 357.4474
   357.7189 357.8428 357.8428 357.9731 357.9731 358.1227 358.3588 358.3588
   358.3727 358.9888 358.9888 359.2931 360.0333 360.2783 360.2783 361.2430
   361.2430 361.6994 361.8672 361.8672 361.9912 362.5465 362.5465 362.7020
   363.1656 363.2502 363.4732 363.4894 363.4894 364.1278 364.1278 364.1874
   364.1874 364.8091 364.8091 366.0570 366.3422 366.6158 366.6158 367.5064
   367.7528 367.9554 367.9554 368.0111 368.0546 368.0546 368.5450 368.5450
   368.7537 368.9789 369.0852 369.2528 369.2528 369.3799 369.3799 369.6253
   369.8697 369.8697 370.2669 370.2669 370.2843 370.8956 370.8956 370.9551
   370.9694 371.1661 371.1661 371.8394 371.8394 372.1348 372.3919 372.6654
   372.6654 372.9062 372.9062 373.3269 373.4551 373.4551 374.4281 375.2150
   375.5100 375.5100 375.5517 375.7141 375.7141 376.3536 376.4154 376.7490
   376.7490 376.8450 376.8450 377.2139 378.6359 378.7502 378.7502 378.9102
   378.9102 378.9741 379.1599 379.1599 379.3722 379.3722 379.6786 379.7290
   379.8087 379.8087 379.9648 379.9648 381.1614 381.1614 381.2079 381.6039
   382.0651 382.0651 382.2077 382.2429 382.2429 382.2661 382.2968 382.2968
   382.3797 382.5073 382.6065 382.7202 382.7202 382.9276 382.9276 383.8424
   384.0436 384.0436 384.5752 384.5752 385.1014 385.2916 385.2916 385.8741
   385.8741 386.3199 386.4995 386.5174 386.5174 387.2054 387.2054 387.2826

          k =-0.3750 0.3750-0.3750 (  2458 PWs)   bands (ev):

   -20.5311  -6.5604  -5.6630  -5.6630  -3.7716   3.8784   4.6280   4.6280
    10.1365  11.1284  11.1284  11.5229  13.0350  13.0350  14.1783  14.1783
    14.5394  15.0216  15.2196  15.2196  15.3561  16.6608  17.2570  17.2570
    19.6067  19.6067  19.9561  20.5059  23.9157  24.6276  24.6276  26.7499
    26.7499  27.7850  27.7850  28.3769  29.7246  29.8854  29.8854  30.8763
    33.2561  33.7881  33.7881  34.2112  35.8020  35.8020  37.2787  37.2787
    37.4504  38.4237  38.4237  39.2630  39.3134  39.3134  39.4474  43.3756
    43.6306  43.6306  45.3632  46.2222  47.2196  47.2196  47.3294  47.3294
    47.6974  47.6974  47.9561  48.0790  50.5308  51.5325  51.5325  52.5947
    54.0434  54.0434  54.4546  54.4546  54.7830  54.7830  55.2378  55.7420
    57.4683  58.4718  58.4718  60.3593  60.3593  61.3487  62.0323  62.3360
    62.3360  62.9069  62.9069  64.0699  64.1878  64.1878  64.4184  65.4896
    65.6825  65.6825  67.7287  67.7287  68.6206  69.1003  69.1003  69.7527
    71.0761  71.0761  71.5854  71.8615  72.5916  72.5916  74.1380  74.2758
    74.2758  75.0986  75.2316  75.2316  75.2400  76.0189  76.0189  76.1045
    76.5554  77.7423  77.7423  79.3251  80.3865  80.3865  80.9518  80.9518
    82.0733  82.2656  82.7061  82.7061  83.9366  84.5616  84.5616  85.1583
    85.7307  85.7307  85.8821  86.6985  86.6985  87.1821  87.1821  87.8501
    87.8501  88.0469  88.0950  89.0269  89.4723  89.5654  89.5654  90.1375
    90.1375  92.5235  92.5235  92.8631  94.6956  95.4672  95.4672  96.0806
    96.0806  97.3750  97.5427  97.7828  97.7828  98.3753  99.1313  99.1313
   100.5774 100.9684 101.6585 101.6585 102.7646 102.7646 103.4690 103.4690
   103.6956 104.9939 106.2438 106.2438 106.5479 107.1819 107.1819 107.2917
   107.2917 107.5636 107.7862 108.1369 108.1369 108.3402 108.5014 108.5014
   108.7897 109.3502 109.3502 110.3797 110.3797 112.0510 112.1420 113.1007
   113.1007 113.2485 113.2485 113.5353 113.6222 115.3491 115.3491 116.2302
   116.4341 116.4341 117.6268 117.9693 117.9693 118.0603 119.2310 119.2310
   119.2380 120.1836 120.7202 120.7202 120.8777 120.8777 120.9799 121.9062
   122.4022 122.8881 123.5516 123.6077 123.6077 123.8088 123.8088 124.6633
   124.6633 124.7569 124.7569 125.4284 125.4284 125.4505 125.8030 126.9304
   127.4591 127.4591 128.8829 129.7938 129.7938 130.6776 130.6776 131.1179
   131.3703 131.3703 131.6754 131.6754 131.8809 132.5169 132.5169 132.6971
   133.2356 133.6377 134.0017 134.1518 134.1518 134.7889 134.7889 135.4917
   135.8229 135.8229 136.4563 137.5473 137.5601 137.5601 138.7172 138.7172
   139.4347 140.0331 140.0331 140.4994 141.1820 141.1820 141.1950 142.1276
   142.1276 142.2236 142.6291 142.8258 142.8258 143.9337 143.9337 144.1744
   145.7388 146.4613 146.8324 146.8324 147.8462 147.8744 147.8744 148.5591
   148.5591 149.1854 149.5772 149.7695 149.7695 150.4353 150.4353 150.8356
   151.1498 151.1498 151.3471 151.3471 151.6726 152.5758 152.5758 152.6685
   152.9121 152.9121 153.4119 153.4743 154.7029 155.0070 155.0070 156.3575
   156.3575 156.9552 157.8950 158.0069 158.0069 158.3098 158.3098 158.8755
   158.8755 159.2468 159.9815 159.9815 160.4861 161.1791 161.7423 161.7651
   161.7651 162.3189 162.3189 163.0740 163.2062 163.2521 163.2521 163.7660
   163.7660 164.1467 165.3624 165.3624 166.1905 166.1905 166.2254 167.5728
   167.6776 167.6776 168.5374 169.0819 169.6548 169.6548 170.1232 170.1232
   171.1153 171.1894 171.1894 171.1949 171.7075 171.7966 171.7966 172.2255
   172.2255 172.9885 173.3858 173.3858 173.7684 174.6337 174.6337 174.9722
   174.9722 175.4121 175.9583 176.3926 176.9585 176.9585 177.4699 177.6806
   177.6806 178.6585 178.6585 178.7740 179.3627 179.3627 180.0328 180.1155
   180.1155 180.5164 180.5164 181.2438 181.7346 181.9739 182.2902 182.2902
   182.9280 184.1814 184.1814 184.5830 184.5830 184.9964 184.9964 185.0276
   185.5199 185.5199 186.1681 186.9288 186.9959 186.9959 187.2826 187.2826
   187.4965 187.8237 187.8237 188.2997 188.8747 188.8747 189.2080 189.4375
   189.4375 189.7787 190.1101 190.1101 190.9461 191.0144 191.0144 191.0401
   192.0052 193.3688 193.3688 193.6322 194.2149 194.2149 195.0769 195.0769
   195.9557 197.0921 197.0921 197.5025 198.0228 198.0838 198.0838 198.3592
   198.3592 198.4533 199.5608 199.6402 199.7031 200.1926 200.1926 200.8206
   200.8206 200.9313 200.9313 201.3461 201.5258 201.9691 201.9691 202.3257
   202.3257 202.8465 202.8465 202.9000 203.1670 203.2320 204.2145 204.2145
   204.6739 204.6739 204.7871 205.0464 205.5367 205.5367 205.9243 205.9243
   205.9480 207.1046 207.1046 207.4952 208.5169 208.5169 208.6667 209.6084
   209.6084 210.3383 210.5442 210.5960 210.5960 211.5463 211.6851 211.6851
   211.9271 211.9271 211.9608 212.4195 212.4195 213.0344 213.0344 213.3511
   213.8737 214.3064 215.1606 215.1606 215.3100 215.8703 215.8703 216.7187
   216.7187 217.5986 218.1099 219.1046 219.1046 219.2028 219.4197 219.4197
   219.8182 219.8274 219.8274 220.0891 220.0891 220.2603 221.1015 221.1827
   221.1827 221.4866 222.0619 222.0619 223.2681 223.2707 223.2707 223.8540
   224.0882 224.0882 224.6273 224.6273 224.8403 225.3641 225.3641 225.6866
   225.7984 226.0264 226.0264 226.4513 226.4513 226.7968 226.9250 226.9858
   226.9858 227.6045 228.2137 228.2137 228.6795 228.9424 229.2373 229.2373
   229.8005 229.8005 230.0978 231.2920 231.2920 231.6992 231.7702 232.0785
   232.2302 232.2302 233.1318 233.1318 233.6669 233.6669 234.1520 234.1520
   234.8438 235.4221 235.5453 235.5453 235.6612 235.8390 236.0580 236.0580
   236.2890 236.7499 236.7499 236.9540 237.1171 237.6949 237.6949 238.4899
   238.9224 238.9224 240.2446 240.2446 240.7757 241.0669 241.0669 241.4252
   241.6304 241.6304 241.9323 242.2629 242.2629 243.4771 243.4771 243.5037
   243.8063 243.9203 243.9203 244.1782 245.1186 245.1186 245.8286 246.7381
   246.7381 247.5290 247.5290 247.7129 248.4933 248.4933 248.7297 248.7297
   249.0297 249.7550 250.2393 250.2393 250.3033 250.5037 250.7278 250.7278
   251.8690 252.1212 252.1212 252.1800 252.7891 252.7891 253.8960 253.8960
   254.3127 255.1336 255.1336 255.5697 255.8003 256.2183 256.2183 256.5684
   256.5684 257.2946 257.2946 257.6021 257.6172 258.0032 258.0032 258.0833
   258.0833 258.0907 259.4998 259.4998 259.5339 259.9714 260.7784 260.7784
   261.1205 261.1766 261.1766 261.7459 262.0989 262.0989 263.7262 263.9985
   264.4057 264.4057 264.7694 264.8222 264.8222 265.6233 265.6345 265.6345
   265.9307 266.0721 266.0721 266.6020 266.6748 266.6748 266.6941 267.0098
   267.2595 267.2595 267.4957 267.4957 268.4856 268.5284 268.5284 268.9910
   269.2517 269.2517 269.5749 269.5749 269.5856 269.7396 270.2168 270.3068
   270.3068 270.5489 270.5489 271.0287 271.0488 271.0488 271.1534 271.7110
   271.7110 272.0782 272.4996 272.4996 272.5734 272.6057 272.9457 272.9457
   273.5889 273.5889 274.4209 274.7919 274.7919 274.9663 275.0254 275.0254
   275.4997 275.4997 275.8025 276.0827 276.3580 276.3580 276.7845 276.7845
   278.2352 278.2352 278.3094 278.5048 278.5048 278.6136 279.2032 279.5958
   279.6103 279.6103 279.6552 279.6552 279.9837 280.5760 280.5760 280.9419
   281.2488 281.2488 281.2958 281.5477 281.7849 281.7849 282.6657 282.6657
   282.9311 282.9311 283.3081 284.0625 284.6782 284.9727 284.9727 285.3888
   285.3888 285.7867 286.3117 286.3117 286.4160 286.4160 286.7245 287.0626
   287.5399 287.9940 287.9940 289.3089 289.3089 290.3345 290.4071 290.7420
   290.7420 290.9489 291.2218 291.2218 291.4206 291.4206 291.6398 291.9993
   291.9993 292.3827 293.3313 293.3313 294.5026 294.5037 294.5037 294.9492
   296.3224 296.3224 296.4659 296.4696 296.6168 296.6168 296.7012 296.8932
   296.8932 297.0543 297.0543 297.1223 297.4280 297.4365 297.5912 297.5912
   297.7188 297.7188 298.5066 298.5066 299.5144 299.9406 299.9406 299.9549
   300.2174 300.9880 300.9880 301.2233 301.2233 301.6169 302.1953 302.3187
   302.3187 302.8375 303.1094 303.1094 303.5758 303.5758 304.6641 305.0144
   305.1041 305.1041 305.6136 305.6136 305.8514 306.0563 306.0563 306.1946
   306.3302 306.4690 306.4690 306.8045 307.3022 307.6447 307.6447 308.5297
   308.6562 308.6562 309.1784 309.1784 309.1927 309.4117 309.4117 309.5462
   309.8189 309.8189 310.9659 310.9659 311.5059 311.7891 312.1334 312.1334
   312.2324 312.3977 312.9991 312.9991 313.6299 313.6299 314.1796 314.1796
   314.6011 315.2556 315.6267 315.7249 315.7249 315.9323 315.9378 315.9378
   316.9110 316.9110 317.2089 317.2959 317.7489 317.7489 318.6317 318.6317
   318.9064 319.4282 319.4285 319.4526 319.4526 319.6814 319.6814 319.7897
   319.9472 319.9472 320.3161 320.3161 320.6206 320.7621 320.7774 320.7774
   321.2749 321.2749 323.1585 323.1585 323.2051 324.4846 325.0535 325.5619
   325.5619 325.6234 325.9145 325.9145 327.4955 327.4955 327.6022 328.0395
   328.2692 328.2692 328.5761 328.6295 328.6295 328.7213 328.7213 329.2007
   329.2007 329.2735 329.4684 330.0697 330.0697 330.4118 330.4305 331.3701
   331.3701 331.8072 331.8072 331.8834 331.9344 332.0739 332.0739 333.5167
   334.1125 334.6970 334.6970 334.8176 334.8176 335.6518 335.6924 335.6924
   336.2723 336.3308 336.3308 336.4819 336.4819 336.7339 336.8926 337.1396
   337.1396 337.3480 337.3480 337.5355 337.5428 337.8243 337.8243 338.3663
   338.6599 338.6599 338.7093 338.8641 338.8641 339.0797 339.2235 339.2235
   339.6738 339.8480 340.5853 340.5853 340.7412 341.1681 341.1681 341.4795
   341.4795 341.9056 341.9056 342.2854 342.2854 342.3612 342.4134 342.5948
   342.7376 342.7376 343.4213 343.4213 343.4495 344.4200 344.6193 344.6193
   344.8646 344.8646 345.1599 345.5866 345.5866 345.7006 345.9223 346.2410
   346.2410 346.6967 347.7149 347.7149 348.1321 348.8408 348.8408 349.1424
   349.1458 349.1458 349.3405 349.7668 349.7668 350.1829 350.1829 350.4096
   350.4992 350.4992 350.7432 350.8815 350.9911 350.9911 351.0206 351.7102
   351.7102 352.4957 352.6921 353.7523 353.7523 354.1078 354.8854 354.8854
   355.3392 356.9083 356.9083 357.5027 357.6382 357.6382 357.8990 358.6453
   358.6453 358.8926 358.8926 359.2037 359.2980 359.6023 359.6023 359.9692
   359.9977 359.9977 360.2608 360.2608 360.7566 360.8195 360.8195 360.9874
   361.2590 361.2722 361.2722 361.7268 361.8769 361.8769 361.9304 362.3862
   362.3862 362.5730 362.6441 362.6441 363.3288 363.4097 363.4097 363.7895
   364.2080 364.2080 364.2815 364.2815 364.6728 364.6751 364.6751 364.9820
   365.1543 365.1543 365.2388 365.5728 365.5728 365.7453 366.3602 366.3602
   367.5677 367.5677 367.8148 368.0207 368.2723 368.2723 368.9182 368.9182
   369.4378 370.1696 370.1696 370.4089 370.6596 370.6596 371.5287 371.8229
   371.8229 371.8295 371.8618 371.8858 371.8858 372.2450 372.2450 372.3269
   373.1351 373.2241 373.2241 373.3161 373.3549 373.3549 373.7017 373.7017
   374.1652 374.5502 374.5557 374.5557 374.8777 375.1061 375.1061 375.3556
   375.4707 375.4707 376.4745 376.4745 376.8110 377.1520 377.3818 377.3818
   377.6242 377.6669 377.6669 378.4066 378.4066 378.5256 378.6513 378.6513
   379.2020 380.2897 380.2897 380.5700 381.1523 381.1523 381.3601 381.5781
   382.2012 382.9265 382.9963 382.9963 383.0401 383.7508 383.7508 383.9529
   383.9529 384.0330 384.4652 384.4652 384.5490 385.9346 385.9346 386.1371
   386.1371 386.3346 386.5035 386.5821 386.5821 386.8321 386.8321 386.8361
   387.1262 387.1262 387.6795 389.0091 389.7394 389.7394 390.1435 390.2703

          k = 0.5000-0.5000 0.5000 (  2488 PWs)   bands (ev):

   -20.5254  -6.6597  -5.6680  -5.6680  -3.6576   3.6813   4.5160   4.5160
    10.9652  11.0055  11.7674  11.7674  13.3115  13.3115  14.2689  14.2689
    14.7590  14.7590  15.0999  15.2737  15.3588  15.9668  16.7983  16.7983
    19.1511  19.1511  19.4571  21.2737  23.5897  24.8264  24.8264  26.8053
    26.8053  27.1510  28.3188  28.3188  28.8151  28.8151  29.2614  31.4671
    32.3426  35.0576  35.0576  35.1224  35.1224  36.3880  36.7257  37.1128
    37.1128  37.9845  37.9845  39.3761  39.9286  41.5384  41.5384  42.4888
    42.4888  43.8604  45.0450  45.8785  47.1763  47.2870  47.2870  48.3131
    48.3131  50.1222  50.1222  50.8081  50.8731  50.8947  50.8947  51.0955
    51.0955  51.6127  51.6127  52.5347  53.2135  56.0913  56.2228  58.6635
    58.6635  59.1381  59.1381  60.2179  60.2179  60.6437  60.6437  62.2608
    62.4275  63.4049  63.4049  63.5334  63.5334  64.3566  64.6048  64.6727
    64.6727  64.8974  65.1808  65.1808  66.8091  69.1404  69.8012  69.8012
    70.4290  70.4290  71.1541  72.8060  73.5693  73.5693  74.1828  74.1828
    74.4400  74.4499  75.0748  76.3277  76.4504  76.4504  76.6496  76.6496
    76.9143  78.2181  78.4782  78.4782  78.6972  78.6972  80.0640  82.2710
    82.2710  82.9601  82.9601  84.9769  85.0235  85.3677  85.3677  86.2829
    86.2829  86.3312  86.6101  87.4491  87.4491  87.6247  87.6247  87.8530
    88.0056  88.0683  88.0683  89.6651  89.6651  90.5247  92.2648  92.2766
    92.2766  92.4506  92.4506  93.5708  94.0230  94.3363  94.4236  94.8642
    94.8642  94.9398  94.9398  97.8840  97.8840  98.3314 100.0234 100.0234
   100.3244 100.3244 101.0559 101.0559 101.5393 102.0423 102.4487 102.4487
   102.8860 102.9809 102.9809 102.9813 105.3037 105.3037 105.6081 107.4655
   107.4655 107.6685 107.6759 109.7862 109.7862 110.6476 110.8000 110.8000
   110.9287 112.0102 112.0102 112.0657 112.1909 112.8774 112.8774 113.4569
   113.4569 113.5731 113.7386 113.8740 113.8740 114.8308 114.8308 114.8977
   114.8977 115.1169 115.2428 115.6587 116.2343 116.2343 116.5820 116.5820
   118.6845 120.2224 120.2224 120.5747 120.5811 120.5811 121.9943 122.6253
   122.6618 122.8379 122.8379 123.3014 123.3510 123.5023 123.5023 123.7166
   123.7166 124.5144 124.5144 124.5386 124.5386 125.3595 126.5649 126.5649
   126.5973 127.2496 127.4838 127.4838 127.8220 128.7587 129.0469 129.0469
   130.5410 131.5929 131.5929 131.7439 132.7417 133.7725 133.7725 135.3140
   135.3140 135.7766 136.4216 136.4492 136.4492 136.4586 136.8764 136.8764
   137.1148 137.1148 137.8390 137.8439 137.8439 138.5598 138.5598 138.6574
   138.6986 138.7603 139.0137 139.0137 139.6648 139.6648 139.8154 140.5241
   141.4061 142.4762 142.4762 143.7166 143.7166 144.9084 144.9084 145.0133
   145.5100 145.5100 148.6498 149.3566 149.3566 149.9199 149.9295 150.0598
   150.2016 150.5105 150.5105 150.5625 150.5625 150.9968 150.9968 151.2291
   151.5100 151.5238 151.5238 151.6036 151.6036 154.4494 154.4494 154.7339
   154.8395 154.8973 155.6157 155.6622 155.6622 155.8411 155.8960 155.8960
   156.4221 156.6560 156.6560 156.9870 156.9870 157.6269 157.6508 157.6737
   157.6737 158.0009 158.0009 158.4821 158.4821 160.2893 160.2893 160.4064
   160.4064 161.1343 161.2651 161.7326 161.7351 165.2275 165.2275 165.3430
   165.3430 165.4951 165.9993 166.2726 166.4579 166.4579 166.7689 166.7689
   167.7648 167.7648 168.5804 168.6079 168.6079 168.6160 168.6160 170.0686
   170.3945 170.3945 170.6224 170.6325 170.6325 170.6960 170.8959 170.9820
   170.9820 171.7970 171.7970 171.8525 171.9758 173.3606 173.3606 173.5128
   173.5128 173.6811 173.7852 174.4894 174.4894 175.5947 175.5947 175.6873
   178.8818 178.8818 178.9794 178.9794 179.0337 179.2999 180.1359 180.1359
   180.2391 180.6420 180.6996 180.6996 181.0983 181.0983 182.4770 182.7116
   184.1520 184.1995 184.1995 184.7350 184.7350 184.8187 185.4494 185.4494
   185.5397 186.2093 186.2093 186.3209 186.8048 186.8048 187.6546 187.8752
   187.9510 187.9510 188.3455 188.3455 188.9243 188.9277 188.9277 189.0361
   189.7449 189.8025 190.7463 190.7463 191.8231 191.8718 191.8718 192.5158
   192.5158 192.7060 192.7060 192.9649 193.0188 193.0188 194.7742 194.7742
   195.1306 195.2983 195.6632 195.6632 195.8906 195.8906 197.3794 198.0001
   198.0001 198.0019 199.1649 199.1649 199.5379 199.9592 199.9592 200.0989
   201.2960 201.3274 201.3274 201.6325 201.6325 202.0189 202.2320 202.2320
   202.9902 204.1771 204.3098 204.3098 204.5392 204.5392 204.6489 204.8451
   205.0217 205.0217 205.4199 205.4199 206.0860 206.1149 206.1149 206.3191
   207.7698 207.7698 208.2332 208.3421 208.3421 208.5609 208.8723 209.4365
   210.1391 210.1391 212.0949 212.8485 213.2945 213.2945 213.8080 213.8080
   214.1030 214.1030 214.3203 214.3203 214.3264 214.5577 215.4348 215.4348
   215.9672 216.3284 216.3626 216.3626 216.6692 216.7315 216.9907 216.9907
   217.6127 218.0728 218.0728 218.2046 218.2046 218.2988 218.3924 218.3924
   218.9701 219.7901 219.8943 219.8943 220.1306 220.7653 220.7653 221.2134
   221.2134 221.4202 221.6972 221.7597 221.7597 221.9366 221.9366 222.6838
   222.6838 223.2318 223.2346 223.2346 223.6728 223.9330 223.9330 224.0789
   224.0789 224.2396 224.2415 224.7379 224.7379 225.1980 225.8935 228.6737
   229.0417 229.0417 229.5284 229.5714 229.5714 230.2467 230.2467 230.3777
   230.3777 230.3877 230.9123 230.9445 230.9445 231.3131 231.6248 231.6248
   231.7081 232.3328 232.3328 232.4029 232.5482 232.7134 232.7134 234.9308
   235.5587 235.5587 235.7570 235.8605 235.8605 236.7757 236.9089 236.9089
   237.0563 237.5408 237.7331 237.7331 238.2018 238.2018 239.1115 239.4287
   239.4287 240.2002 240.8669 240.8669 240.9248 240.9248 240.9807 241.0984
   241.1831 241.3436 241.3436 242.4779 242.6665 242.6665 243.2956 243.6804
   243.6804 244.4292 244.4292 244.8928 245.1437 245.1437 245.9718 245.9718
   246.0484 246.0484 246.5998 246.5998 246.9010 247.7202 247.7252 247.8144
   248.5237 248.5237 248.9900 249.2110 249.2110 249.8338 250.3553 250.3553
   250.6104 250.6104 252.1484 252.1505 252.1505 252.1884 252.7642 252.7642
   252.9637 253.5681 254.3887 254.3887 254.4067 254.4067 254.6574 254.6666
   255.2696 255.2696 255.6485 256.4064 259.1377 259.1377 259.5035 260.3080
   260.3080 260.4408 260.4408 261.6494 261.6494 262.0473 262.0473 262.1435
   262.7117 262.8734 263.0185 263.2095 263.2095 263.4264 263.4264 263.6038
   263.6038 263.9177 263.9177 263.9638 264.0157 264.3186 264.3905 264.4766
   264.4766 264.5271 264.5271 264.6215 264.6215 265.2848 265.3156 265.3156
   265.4164 265.4164 266.3321 266.5079 266.6144 266.6144 266.6340 266.8887
   266.8887 267.4949 267.7158 267.7158 267.9702 268.1853 268.1853 268.3645
   268.3645 268.7130 268.7130 268.8589 269.9407 270.4887 270.7319 270.7319
   271.0312 271.1727 271.1727 272.8305 273.1750 273.1750 273.3047 273.3047
   273.4792 274.0399 275.3025 275.3025 275.5260 275.5260 275.5369 276.3804
   276.8452 276.8452 276.9935 278.3820 278.3820 278.6001 278.6001 278.7150
   278.8445 278.8445 279.0115 279.2180 279.4932 279.6888 279.6888 279.7692
   279.8902 279.8902 280.5470 280.9454 280.9454 281.3475 281.3475 281.5592
   281.5592 281.6098 282.1785 282.1785 282.3767 282.3993 282.9421 282.9421
   283.7555 284.4120 284.5592 284.5592 284.7956 285.3089 285.3089 285.8667
   285.8667 285.8706 286.9778 287.0472 287.4615 287.4615 287.7872 287.8332
   287.8332 287.9939 288.4720 288.4720 288.6278 288.6581 288.6581 291.1990
   291.1990 291.5424 291.5919 291.5919 292.0076 292.0076 292.1507 293.0127
   293.3003 293.3003 294.0654 294.3986 294.4455 294.4455 295.0943 295.0943
   295.4864 295.4864 295.7338 296.0764 296.0764 296.4713 296.5043 296.5672
   296.5672 296.6687 296.6687 297.3441 297.7606 297.7606 297.9483 298.0547
   298.1287 298.4355 298.4355 298.9656 298.9656 299.0463 299.0463 299.1657
   299.6788 299.6788 299.9858 299.9858 300.7488 301.4376 301.4376 301.9046
   301.9046 302.0663 302.2759 302.4495 303.3266 303.3266 303.3443 303.4525
   303.4525 304.0218 305.7396 305.7396 306.2984 306.9514 307.7862 307.9467
   307.9467 308.2734 308.2734 308.3179 308.3206 308.3206 308.4369 308.6351
   308.6351 308.9222 308.9222 309.0931 309.0931 309.1415 309.9586 311.1079
   312.2353 312.2353 312.2878 312.2883 312.2883 312.3023 312.9555 312.9555
   313.4921 313.4921 313.8773 314.2205 314.2205 314.9806 314.9920 315.1883
   315.1883 315.4601 315.4601 315.4967 315.8008 315.8008 317.1628 317.1628
   317.1927 318.6076 318.6123 318.6123 318.8598 318.8598 318.9498 319.2177
   319.2790 319.2790 319.6652 319.7543 320.0538 320.0538 320.9394 321.6093
   321.6093 321.7452 321.9175 322.0958 322.0958 322.4077 322.4077 322.6297
   322.7120 323.9375 323.9375 325.0808 325.1930 325.1930 325.5498 325.5498
   325.5828 326.0174 326.0174 326.6326 326.6326 327.1305 327.1513 327.2203
   327.2654 327.2654 327.3800 327.4346 327.4346 327.5141 327.5141 327.7705
   328.0097 328.0385 328.0385 328.2145 328.2145 328.2560 328.5435 328.6916
   329.1844 329.1844 329.2793 329.2793 330.4952 332.2356 332.2401 332.2401
   332.2686 332.3484 332.3484 332.4919 332.4919 332.5348 332.5348 332.6418
   332.6421 333.2747 335.1795 335.1795 336.7641 336.7641 336.8409 337.5210
   337.5210 337.7651 338.3439 338.6243 338.6243 338.7574 338.8178 338.8178
   339.3555 339.3555 339.4168 339.4168 339.5738 339.5839 340.1226 340.1226
   340.1673 340.1866 340.2870 340.2870 341.6716 342.0680 342.0680 342.2334
   342.4674 342.5851 342.5851 342.9161 342.9161 343.2321 343.2321 343.4909
   343.4909 343.5682 343.7879 344.1281 344.1805 344.1805 344.4047 344.4047
   344.8129 344.9357 344.9357 345.0889 345.1010 345.1297 345.1297 345.2389
   346.6884 346.6884 346.8813 347.5850 347.9905 347.9905 348.0249 348.0249
   348.2814 348.5194 348.5194 348.7430 349.1259 349.1259 349.7258 349.7258
   351.3467 351.3467 352.4833 352.5025 352.6167 352.6167 352.6590 352.6590
   353.1954 353.2541 353.2541 353.3250 353.3250 353.5394 353.5394 353.6030
   353.6158 353.7239 353.7246 355.5267 355.5267 355.5831 355.5831 356.4378
   356.4378 357.0135 357.0142 357.5084 357.9029 357.9029 358.0637 358.0637
   358.1637 358.9890 358.9890 359.0115 359.9851 359.9851 360.0648 360.4631
   360.4631 360.5856 360.8570 361.0948 361.1305 361.1305 361.6067 361.6067
   361.7876 361.7876 361.9321 362.9939 362.9939 363.0853 363.4906 363.5036
   363.5751 363.7014 363.7014 364.0769 364.0769 364.1040 364.4353 364.6447
   364.6447 364.7130 364.7130 365.5004 365.6916 365.6916 366.3003 366.5599
   366.5599 366.6083 368.0577 368.0577 369.5005 370.6988 370.9786 371.3166
   371.3166 371.5728 371.5728 371.6949 371.8067 372.2452 372.2452 372.3088
   372.3088 372.4774 372.4774 372.9398 372.9398 373.1702 373.2423 373.2477
   373.2708 373.2708 373.4521 373.4521 373.5288 373.5288 373.6468 373.6854
   374.3551 374.3551 374.5117 374.9035 375.1776 375.1776 375.2752 375.2752
   375.4975 375.4975 375.5333 375.5929 375.5929 375.9549 375.9549 376.2717
   376.2717 376.3504 376.3836 376.4611 377.1648 377.1832 377.1832 377.2393
   377.2393 377.3092 377.3104 377.3903 377.3903 377.9626 377.9626 378.3369
   378.3369 379.0328 380.9204 381.4337 381.4337 381.9863 382.3964 382.3964
   383.8002 383.8002 385.2478 385.3609 386.6087 386.6087 387.2568 387.2568
   387.4393 387.4393 387.5317 387.6023 387.6136 387.8718 387.8718 388.0368
   388.3490 388.3490 388.3759 388.3759 388.3793 388.4045 388.4563 388.4563

          k = 0.0000 0.2500 0.0000 (  2481 PWs)   bands (ev):

   -20.5565  -5.9051  -5.6584  -5.6584  -4.4644   4.8230   5.4118   5.4118
     9.0542   9.4842   9.9344   9.9344  10.4671  11.3709  13.4446  15.2462
    15.2601  15.2601  15.3370  15.4471  15.4471  17.8244  19.0352  19.0352
    20.2224  20.2764  23.0440  23.6882  23.9605  23.9605  25.5023  25.5023
    25.7442  26.8860  27.9314  29.1481  29.9663  29.9663  30.2080  30.7028
    30.7028  32.1317  36.2415  36.2415  36.5245  36.7337  37.0718  37.0718
    37.7961  38.3122  38.4178  38.4178  39.2039  39.4862  39.6829  41.8104
    41.8125  42.3804  42.3804  43.4621  43.4621  43.6075  43.8573  44.4631
    44.4631  44.6138  46.4085  47.6316  52.1441  52.1441  52.4402  54.0847
    54.0847  55.8051  56.8041  57.3953  57.4158  57.4158  58.7481  60.8018
    61.0691  61.9651  61.9797  61.9797  62.2193  62.6788  62.9826  62.9826
    64.1939  64.1939  64.4546  65.6524  65.6524  65.7498  66.2353  67.1127
    67.2391  67.2391  67.6368  68.3072  68.3311  68.6181  68.8677  68.8677
    69.2153  69.2153  69.4956  70.3983  71.3116  71.3116  72.3697  72.4815
    74.0442  74.0450  74.0450  74.6185  74.6872  74.6872  74.7979  75.4096
    75.9612  75.9612  76.4222  77.1263  79.1544  79.6883  79.9519  79.9519
    80.2105  81.2280  81.8654  81.8654  82.5121  82.6571  83.4126  84.4420
    84.4420  85.4250  85.4250  86.0231  86.2282  86.2282  87.0931  87.9659
    87.9659  87.9689  89.3368  89.3368  89.5479  90.1829  90.5865  90.8848
    91.1071  91.6301  91.6301  92.8688  92.9047  93.7099  93.7341  93.7341
    93.8996  93.8996  93.9679  94.3463  96.9968  98.0221  98.2877  98.2877
   100.2288 100.4657 100.4657 100.8067 102.0468 102.5140 102.5140 102.6398
   102.6398 103.0022 104.1708 105.2248 105.4729 106.6166 107.1466 107.1466
   108.7680 109.8533 110.9979 110.9979 111.0044 112.3773 112.7404 112.7404
   113.9880 114.5069 114.7561 115.1308 115.3444 115.3444 116.1650 116.2018
   116.2018 116.2565 117.2806 117.4296 117.6319 117.7921 117.7921 118.5028
   118.5028 118.9293 119.3255 119.3255 119.6112 120.8262 120.8262 120.9052
   120.9097 120.9451 120.9566 121.5016 121.9155 121.9155 122.4149 122.4149
   122.5437 122.6516 122.6516 122.8785 123.2456 123.7361 124.1156 124.1156
   124.6207 125.5019 125.7382 126.3060 126.3060 126.5068 126.7784 126.9805
   126.9805 127.2418 127.2418 127.7581 127.9101 128.3042 128.3042 129.4231
   129.6201 129.9545 129.9581 129.9581 130.2076 130.8529 130.8529 130.9587
   132.5876 133.0489 133.2868 133.9822 134.0058 134.0058 134.3654 134.7057
   134.7057 134.8746 135.0448 135.0685 135.8520 135.8918 135.8918 136.0815
   136.4273 136.5607 136.5607 137.7619 137.9622 137.9622 138.0296 139.3477
   139.9333 139.9333 140.5437 141.1777 142.4041 142.4041 142.7076 143.7208
   144.2389 144.2389 144.3844 144.5587 144.5587 144.8192 146.0515 146.4755
   146.4755 146.6610 147.0008 147.6171 147.6171 147.7869 147.8031 147.8031
   149.4228 149.8464 151.0307 151.8116 151.8116 151.8187 151.9470 152.2043
   152.2450 152.2450 153.0705 154.1160 154.4851 154.7872 154.7872 156.7146
   156.9229 157.3379 157.5484 157.5484 158.0692 158.4634 158.6274 158.6274
   159.4125 159.4125 160.0041 160.0078 160.2178 160.5972 161.3533 161.3533
   161.5739 161.5739 161.8907 161.9240 162.3428 163.7889 164.9854 164.9854
   165.6507 165.6507 165.6815 165.6886 165.8050 166.2356 166.2356 167.9881
   167.9881 168.7900 170.0641 170.0761 170.3260 170.3260 170.6651 173.2005
   173.2923 173.6673 174.0981 174.2790 174.2790 174.5082 174.9705 174.9705
   175.1052 175.2681 175.5626 175.5626 175.8214 175.8214 176.8824 177.2342
   177.9541 177.9900 177.9900 178.4997 179.4220 179.4220 179.5350 179.9717
   180.5599 180.7269 180.7269 180.8036 182.5059 182.9658 183.0955 183.0955
   183.2605 183.7706 183.8277 183.8277 183.9319 184.0871 184.1817 184.1817
   185.2238 185.7307 185.7307 185.8770 186.5270 186.5270 186.6321 186.8746
   186.8746 186.9381 187.0701 187.3356 189.1761 189.1761 189.6007 190.1179
   190.3526 190.5325 190.5325 190.7216 190.7216 191.3957 191.6347 191.8323
   191.8323 191.8842 192.0868 192.0868 192.0947 192.2880 192.7328 192.7328
   193.0276 193.8692 194.0325 194.2542 194.2542 194.3183 194.3453 194.8394
   194.8394 195.1188 195.9283 195.9283 196.3888 197.0239 197.3731 197.4080
   197.4080 197.4869 197.8593 197.8593 198.0116 198.2264 198.7131 199.2937
   199.5157 200.3918 200.4893 200.4893 200.6736 200.7746 200.7746 201.3104
   201.9038 202.0670 202.0734 202.0734 202.1858 202.3927 202.4798 202.4798
   202.9965 203.1496 203.6697 203.6697 203.6842 203.9968 204.8533 204.8533
   205.5214 205.5214 205.5237 205.7371 206.0318 206.0372 206.2380 206.2380
   207.2327 207.3007 207.3007 207.3718 207.3718 207.7994 207.9466 208.2814
   208.3670 208.4755 208.4755 209.4284 209.4284 210.0676 210.0676 210.1079
   210.5806 211.4360 211.8700 211.8957 212.0435 212.0435 212.5213 212.6870
   212.9954 213.1406 213.2640 213.2640 213.3519 214.0072 214.1661 214.2309
   214.2309 214.4784 215.7238 215.7238 217.5091 218.0759 218.0759 218.3360
   218.3705 218.6672 218.9729 218.9729 219.0972 220.2816 220.2816 220.4667
   220.5057 222.2869 222.2869 222.6231 222.6231 222.9234 223.3978 224.0039
   224.3121 225.9140 225.9140 226.1154 226.1154 227.1099 227.1164 227.5497
   228.5326 228.5326 229.3088 229.7656 231.2143 231.2143 231.3500 231.4602
   232.4795 232.4795 232.6671 232.6806 233.5031 233.8988 233.8988 234.3417
   234.5745 234.8794 234.8794 235.5524 236.0610 236.2778 236.3151 236.3151
   236.5442 237.2901 238.0763 238.0763 238.0920 238.1720 238.9514 239.5034
   239.5034 240.1273 240.1273 240.9154 240.9932 241.0344 241.2366 241.7188
   241.7188 242.0848 242.0848 242.3285 243.0920 243.2294 243.3398 243.3398
   244.5485 244.5762 244.5762 244.6114 244.9785 245.4182 245.4182 245.7333
   245.7333 245.8734 246.2015 248.3645 248.6717 248.7233 249.3533 249.3533
   249.3740 249.7383 250.2592 250.2592 250.3502 250.4888 251.0462 251.0462
   251.2265 251.5032 251.6789 252.5156 252.5156 252.7791 252.9364 253.0063
   253.0063 253.1799 253.4695 253.4695 253.7023 253.9157 253.9157 254.2461
   254.3626 254.4778 254.6221 254.6221 255.2005 255.4208 256.2970 256.2970
   256.6635 256.6635 256.7407 256.8108 257.6277 257.6277 258.2078 258.5771
   258.7732 259.2903 259.2903 259.3555 259.5394 259.6282 259.8881 259.8881
   259.9983 260.0040 260.0056 260.0056 260.0507 260.6433 260.8074 260.8074
   261.3547 262.1219 262.1283 262.1283 262.1306 262.2434 262.7107 263.1949
   264.0263 264.3427 264.3427 264.9705 264.9705 265.1933 265.3623 265.3623
   266.1524 266.6361 266.6361 267.3355 267.6341 268.6443 268.6443 268.8393
   269.4900 269.9760 270.5945 270.8035 270.8035 270.9487 271.1834 271.7114
   272.0237 272.0237 272.0359 272.2290 272.2290 272.3527 272.4096 272.4623
   273.3433 273.3433 273.6472 273.7163 273.7163 274.0556 274.8212 274.8212
   274.8617 275.2178 275.3952 275.5716 275.5716 276.7276 276.9453 276.9453
   277.5502 277.9160 277.9262 278.1102 278.1102 279.0060 279.0060 279.5948
   280.0244 280.0685 280.0685 280.8164 280.9597 281.0918 281.0918 281.2184
   281.4083 281.4083 281.4582 281.5005 281.5144 281.5390 281.5551 281.5551
   281.6119 282.1753 282.1753 282.5951 282.6785 283.4641 283.4981 283.7179
   283.7179 283.9563 284.1995 284.1995 285.7194 285.7863 285.7875 285.8923
   285.8923 286.0438 286.9158 286.9785 287.6757 287.6757 287.9591 288.0891
   288.1544 288.1544 288.3923 288.5842 288.5842 289.2591 289.3862 290.0777
   290.0777 290.1127 290.7631 290.9284 291.0081 291.0081 291.7697 291.7697
   292.0648 292.2689 292.3112 292.4193 292.4193 292.4985 292.5836 293.2966
   293.2966 294.0074 294.0992 294.3166 294.3166 294.9393 295.2891 295.2891
   296.0803 296.2192 296.2598 296.4016 296.4016 296.8482 296.8746 296.8746
   297.2321 297.5121 297.5151 297.5535 297.5689 297.5689 297.7581 297.7581
   298.1479 298.5404 298.5404 298.7815 299.1796 299.4226 300.5264 300.7603
   300.7603 301.6844 301.7932 301.7932 302.1848 302.2865 302.3517 302.3517
   302.3792 302.5369 302.5369 302.6046 302.6205 303.3695 304.1544 304.4541
   304.4541 304.7071 304.7952 304.8391 304.8391 305.0943 305.7723 305.7723
   305.9124 306.1280 306.8245 306.8245 306.9915 307.1868 307.4135 307.4746
   307.4746 307.8007 307.8989 308.0964 308.0964 308.4888 308.8573 308.8573
   309.0691 309.2588 309.4214 309.9239 310.0398 310.0398 310.3322 310.3322
   310.6426 310.9093 310.9182 310.9182 311.7169 312.6118 312.6118 312.6382
   312.6382 313.1620 313.7647 314.1992 314.2472 314.7701 314.7701 315.6829
   316.1842 316.4134 316.4134 316.6460 316.7986 316.9377 317.1780 317.1780
   318.1975 318.9825 319.5174 319.6863 319.6863 321.5455 322.4211 322.4211
   322.7647 323.1917 323.1917 323.2432 323.6074 323.9040 323.9040 324.0402
   324.0420 324.5332 324.5332 324.7160 325.9406 325.9406 326.2850 326.3430
   326.5738 326.5812 326.5812 327.5481 328.2238 328.2836 328.2836 328.4854
   329.0487 329.2799 329.5410 329.5410 329.5516 329.6020 331.0304 331.2178
   331.2178 331.4504 332.3801 332.5123 332.5123 333.1592 334.1014 334.2496
   334.2496 334.3415 334.3570 334.3570 334.3776 334.9513 335.0343 335.0343
   335.5928 336.0885 336.0885 337.0543 337.1044 337.3884 337.3884 338.4579
   338.6605 338.6605 339.5143 339.6379 341.3571 341.8408 341.9544 342.3779
   342.5037 342.5037 342.5742 342.8344 343.1308 343.4106 343.4106 343.5970
   343.8608 344.0778 344.0778 344.5127 345.0119 345.0119 345.0981 345.1310
   345.1310 345.4547 345.5024 345.5024 345.6012 345.8834 346.4624 346.7119
   346.8501 347.4492 347.4492 347.8323 347.9741 347.9741 348.0895 348.1446
   348.1446 348.3129 348.3717 348.5307 348.5670 348.5670 349.4536 349.5158
   349.5158 350.1297 350.3594 351.4115 351.4115 351.4847 352.5258 352.5258
   353.9697 353.9697 354.1626 355.0554 355.1077 355.1077 355.1401 355.2239
   355.4328 355.9377 356.0367 356.0367 356.0573 356.2187 356.2664 356.4361
   356.6996 356.6996 356.7995 356.7995 356.8772 356.8931 357.0124 357.0124
   357.0414 357.8293 357.8784 358.2695 358.2695 358.5142 359.0331 359.0331
   359.0453 359.1519 359.1681 360.0115 360.5152 360.7680 360.7680 360.8408
   360.9793 360.9793 361.0568 361.7891 361.9274 361.9274 362.1251 363.9565
   363.9565 364.1958 364.2109 364.2741 364.2768 364.3256 364.3256 364.4348
   364.4348 364.5421 365.3557 365.3564 365.6968 365.7806 365.7806 365.8794
   366.2380 366.3451 366.3451 366.4222 366.4222 366.4931 366.6255 367.0033
   367.1390 367.1390 367.3617 367.8179 367.8179 368.4505 368.4537 368.5125
   368.6081 368.6081 368.7668 368.9377 368.9421 369.0477 369.0477 369.3379
   369.3379 369.4485 369.4573 369.5774 369.5774 369.6747 369.8444 369.9875
   369.9875 370.0486 370.1268 370.1268 370.1584 370.1760 370.1943 370.5425
   370.7033 370.7033 370.7902 371.1701 371.4747 371.4747 371.9087 371.9087
   372.0724 372.2468 372.5627 373.2482 373.2482 373.8719 373.9818 374.5229
   374.5229 374.8104 374.9823 375.1018 375.1018 375.2334 375.3436 377.0467
   377.1942 377.1942 377.2070 377.2267 377.3254 377.3254 377.3675 377.4826
   377.4826 377.5119 377.5216 378.7195 379.6057 379.6057 380.2773 380.2808
   381.2634 381.6647 381.6647 382.4984 382.4984 382.5495 382.6523 382.7727
   382.8949 383.0874 383.0874 383.5521 383.6897 383.7317 383.7317 384.1039
   384.1039 384.5168 384.9783 385.1738 385.1738 385.3204 386.0977 386.2673
   386.2673 386.3185 386.4892 386.4892 386.5110 386.5445 386.5780 386.5780

          k =-0.1250 0.3750-0.1250 (  2479 PWs)   bands (ev):

   -20.5457  -6.1721  -5.6815  -5.6697  -4.1953   4.3997   5.1368   5.2144
     8.9646  10.1404  10.5053  10.5502  10.9827  12.4934  14.0868  14.8993
    14.9386  15.2544  15.2764  15.3486  15.4321  17.6809  18.1795  18.2844
    19.0485  19.9518  22.2822  22.5565  23.3517  24.4460  24.8455  25.2931
    25.9070  27.7945  28.6548  29.3468  29.9868  30.2829  30.3704  31.1130
    32.6569  33.6035  34.3570  34.5289  35.1213  35.6265  35.7112  36.2428
    37.3036  38.0911  38.5596  39.2544  40.0851  40.2884  40.5947  40.8237
    41.4164  42.1112  43.4286  43.5780  45.0519  45.9241  46.1516  46.1830
    46.9356  47.4303  48.9163  50.6786  51.1226  51.2941  51.5635  53.0804
    53.3632  54.0300  54.2488  55.1342  56.1530  56.7870  58.4200  58.8204
    59.0269  59.2755  59.9691  60.0996  60.8554  60.8558  61.6474  62.2771
    62.7541  63.9430  64.0162  64.8253  65.3495  65.8074  66.4859  66.7279
    66.8450  67.2119  68.5257  68.7254  68.7713  69.3826  69.4196  69.5986
    70.2129  70.3227  71.3193  71.7270  72.8010  72.8428  73.1234  73.6178
    73.6626  74.0924  74.6679  75.1999  75.2234  75.4792  75.7935  76.3473
    76.9655  77.3150  77.7126  77.9161  78.5226  79.1924  79.6838  80.3439
    80.7086  80.8450  81.2655  81.3297  81.7054  81.7631  83.2118  83.3052
    83.7387  84.6670  85.3472  85.5772  85.8477  86.3136  87.1699  87.1763
    87.6192  87.9070  89.0146  89.1523  89.4520  90.1958  90.2619  91.1117
    91.7276  91.7606  92.4295  94.3813  95.2580  95.6745  95.8999  96.0768
    96.6269  96.6306  96.9076  97.3848  97.4508  97.5948  98.0388  98.2800
    99.2437 100.6206 100.9999 101.1555 101.9101 102.2819 102.9730 103.4458
   103.8193 104.8889 104.9045 105.6661 105.8560 106.5722 107.2015 107.2365
   107.5570 107.8583 108.1050 109.0618 109.4166 109.9485 110.3666 110.5684
   111.4813 112.3620 112.7768 112.9120 112.9854 113.5721 113.6382 113.9819
   114.2433 114.8521 114.9210 115.0157 115.7874 116.0427 116.1371 116.8023
   116.9141 117.4120 117.6941 117.9914 118.4817 118.8907 119.5262 120.1657
   120.2124 120.4989 120.5009 120.6406 121.0313 121.6653 121.8047 121.9154
   122.2296 122.9266 122.9914 123.4430 123.8755 123.9200 124.0435 124.7459
   125.0053 125.4521 125.7269 125.8089 126.0177 127.1968 127.9611 128.1485
   128.3362 128.3591 128.8790 128.9103 129.4176 129.4857 129.5292 130.1523
   130.3376 130.9401 131.2999 131.5421 131.8360 132.3896 132.4607 132.5065
   133.0267 134.0081 134.4001 134.9663 135.3208 135.6054 135.7111 135.7849
   135.9198 136.5227 136.6400 137.1826 137.2702 137.7946 137.8793 138.1934
   138.3278 138.4194 138.5449 139.0017 139.5393 139.9109 139.9156 140.0979
   140.5009 140.7167 140.9638 141.2918 141.4494 141.9262 142.3478 142.5469
   143.1130 143.1751 143.2662 143.6659 143.7974 143.9042 144.1979 145.1470
   145.2609 146.3949 146.4817 146.4821 147.1330 147.9326 148.5402 149.0075
   150.1937 150.9902 151.0127 151.6263 151.6338 152.0554 152.2089 152.9433
   153.0172 153.2917 153.8862 154.6654 155.1053 155.2207 155.3157 156.1845
   156.4761 156.7056 156.7497 158.0273 158.2777 158.3773 158.5404 158.9244
   159.1634 159.4385 160.3238 160.3572 160.8508 161.5534 161.6154 161.9450
   162.2456 163.0025 163.4721 163.9831 164.3105 164.5321 165.3791 165.5473
   165.7613 165.8469 166.0309 166.4445 166.8695 167.0066 167.1359 167.4947
   167.5475 168.0555 168.2770 169.1089 169.2336 169.5579 169.9667 170.5826
   171.3718 172.0083 172.1701 172.5812 172.5874 172.9248 173.7537 173.9680
   174.1380 174.4480 174.6239 174.8022 174.8540 175.0285 175.6258 176.0505
   176.6825 176.9935 177.3924 177.9785 178.2427 178.4547 179.1820 179.3331
   179.8399 179.9528 180.5468 181.1216 181.3915 181.4895 181.5818 181.8880
   182.3312 182.4816 183.1164 183.2835 183.5276 183.6945 184.0808 184.4045
   184.4858 185.0281 185.0513 185.1664 185.3035 185.3933 185.6170 185.7582
   185.8235 186.6307 186.7366 186.9502 187.1998 187.2260 187.8512 188.5197
   189.0225 189.3596 189.7535 189.9627 190.4742 190.5155 190.7871 191.3608
   191.5155 191.6326 191.7724 192.1269 192.1901 192.3713 192.6460 192.7094
   193.0303 193.2885 193.6996 193.8208 193.9832 194.0309 194.3367 194.4779
   194.8551 194.9838 195.0616 195.1998 195.6432 196.0580 196.1256 196.4816
   196.6602 196.8766 196.9527 197.1587 197.6020 198.4238 198.6100 198.6708
   198.8512 199.1414 199.6076 199.6542 200.0551 200.3824 200.8908 201.3908
   201.5126 201.6130 201.8874 202.0596 202.2161 202.4238 202.8737 202.9552
   203.0745 203.1310 203.5709 204.3389 204.8241 204.9499 205.1345 205.5658
   205.8628 205.9543 206.2076 206.3588 206.6451 207.0450 207.3644 207.5212
   208.0671 208.2343 208.3698 209.1587 210.0816 210.4489 210.5158 210.7383
[...]
   205.6258 206.1317 206.3640 206.4826 206.5682 207.0560 207.1705 207.4558
   207.7052 207.8133 208.0979 208.1642 208.1971 208.6273 208.8083 209.1736
   209.3761 209.5642 209.6306 209.9198 210.6110 211.1779 212.1480 212.2192
   213.0985 213.7917 213.9819 214.0117 214.5753 214.8568 214.9509 215.0848
   215.4112 215.8112 215.8752 216.1503 217.2946 217.4012 217.4684 218.4811
   218.6199 219.1335 219.2448 219.6243 220.2477 221.2152 221.3388 221.4464
   221.6517 221.7101 222.1868 222.2693 222.2742 222.4454 222.5471 223.0553
   223.2208 223.7877 223.9216 223.9270 224.0214 224.6215 224.8456 225.3058
   225.4662 225.6607 225.8520 225.8841 226.2404 226.2483 226.2743 226.4319
   226.9686 226.9791 227.2137 227.3487 227.5510 228.0078 228.2927 228.5512
   228.8524 229.1459 229.6868 229.7585 229.7857 230.8923 230.9848 231.2301
   231.4988 232.0657 232.2338 232.3460 232.6842 232.8937 233.0375 233.0740
   233.5235 233.7293 233.7759 233.9735 234.2360 234.3590 234.5635 234.6357
   234.7349 235.3351 235.6766 235.7171 236.6028 236.8360 237.0053 237.4254
   237.8740 237.9455 238.0030 238.2833 238.3872 238.6617 238.7459 239.1293
   239.5117 239.6103 240.0373 240.0802 240.1429 240.9051 240.9598 241.4267
   241.4478 241.6286 241.9577 241.9945 242.0306 242.3349 242.3480 242.4036
   242.7146 242.7472 242.7778 243.8303 244.0738 244.2205 244.2992 244.3706
   244.4452 245.0541 245.1068 245.1196 245.3401 246.2072 246.3178 246.7251
   247.4941 247.7433 247.9754 248.7593 249.1671 249.5180 250.1708 250.4071
   250.5432 250.7229 250.7503 250.7811 251.0203 251.2221 251.8498 251.8716
   252.4384 252.4983 252.5275 252.9197 252.9378 253.2034 253.5334 253.6317
   254.0613 254.1650 254.3014 254.4455 255.3704 255.7527 256.1900 256.2970
   256.4413 256.6345 257.1407 257.1708 257.2179 257.3420 257.3979 257.5267
   257.9316 258.0565 258.3352 258.3389 258.4990 259.3196 259.5091 259.5907
   259.6030 260.7599 261.1642 261.4216 261.4985 261.5997 261.9039 262.2910
   263.0164 263.0249 263.1246 263.3410 263.5766 264.5652 264.5654 264.5688
   265.0080 265.0426 266.0726 266.5873 266.7246 266.7719 266.7876 266.9456
   266.9789 267.7672 268.0328 268.1800 268.1882 268.4271 268.6100 268.8774
   269.3577 269.5895 269.7819 269.8723 270.2453 270.2846 270.7237 271.0538
   271.1620 271.5526 271.7158 271.8546 272.1706 272.7664 272.8454 272.9662
   273.0019 273.8350 273.9766 274.4264 274.6531 275.0876 275.1610 275.5616
   275.6618 275.7889 276.1236 276.3789 276.4139 276.4331 277.3103 277.6551
   277.8539 278.3707 278.5304 278.5616 278.6843 278.8016 278.8288 279.1858
   279.6081 280.0122 281.2151 281.2994 281.5034 282.5763 282.9292 283.7957
   283.8817 283.9852 284.1713 284.4232 284.5901 284.8269 285.2679 285.3480
   285.3772 285.4784 285.7597 286.7099 286.8439 287.6228 287.7529 288.0190
   288.2471 288.3470 288.5214 288.8169 288.8401 288.9612 290.5228 290.5908
   290.8128 291.1339 291.6006 291.9552 292.0682 292.2560 292.6923 293.0594
   293.2098 293.5093 293.5744 293.8275 293.8394 293.8592 294.0729 294.5545
   294.6172 294.7346 295.2108 295.2172 295.6330 295.8685 296.4851 296.5994
   296.6376 296.8676 297.0550 297.3061 297.3122 297.4814 297.7197 297.8629
   298.3814 298.5244 298.6860 298.9439 299.4863 299.5184 299.5964 299.6694
   299.9688 300.2906 300.4228 300.4797 300.6831 300.9498 301.0272 301.1910
   301.6641 302.1221 302.1439 302.7237 302.7454 303.5252 303.9557 304.1914
   304.9820 305.1599 305.3975 305.6362 305.8407 306.1908 306.3735 306.5507
   306.6730 306.8211 306.9159 306.9601 307.1029 307.2161 307.4258 307.8573
   308.3609 308.5988 308.7691 308.8058 308.9121 308.9366 309.3590 309.5625
   309.6499 310.2153 310.3966 310.7903 310.9213 311.0032 311.0427 311.3116
   311.9037 312.2817 312.4597 312.5522 312.6020 312.8177 312.9162 313.1792
   313.2426 313.2968 313.6917 313.7982 314.1103 314.3509 314.3694 314.5205
   314.6876 314.8131 315.3655 315.5785 315.7102 315.7947 315.8820 316.4078
   316.5244 316.6245 316.9511 317.1533 317.7154 318.0102 318.2032 318.2701
   318.6103 318.7742 319.3331 319.3621 319.5507 320.2581 320.3869 320.6144
   320.8652 321.1601 321.2018 321.6040 321.7207 321.9938 322.1149 322.2384
   322.2496 322.3428 322.4704 322.5628 322.7675 322.8944 322.9535 323.6736
   324.3943 324.6901 324.9739 325.0021 325.0620 325.0847 325.5175 325.5377
   325.6713 326.1724 326.4699 326.9765 327.0112 327.0826 327.3161 327.5222
   327.7240 327.8024 327.9067 327.9129 328.1552 328.4284 328.5263 328.5525
   328.6636 329.2045 329.5659 329.7042 329.8152 329.9714 330.2893 330.3155
   330.6780 330.7978 330.8425 331.1188 331.2769 331.4501 331.5413 332.2721
   332.5979 332.8099 333.2562 333.2614 333.4886 333.8980 334.0382 334.1695
   334.4578 334.7477 334.9722 335.2995 335.4227 335.4753 335.9656 336.1138
   336.1944 336.4760 337.3656 337.3980 337.7771 337.9949 338.0697 338.1885
   338.5541 339.0746 339.0931 339.7388 339.9293 340.2582 340.5313 340.8996
   341.0451 341.1649 342.0043 342.0422 342.9056 343.1614 343.2729 343.5473
   343.7855 343.8458 344.0440 344.5197 344.6375 344.8496 345.0685 345.1169
   345.1616 345.2914 345.3238 345.3971 345.8574 345.8848 346.7365 346.8029
   346.9254 346.9574 346.9845 347.3853 347.5154 347.5663 348.3556 348.5122
   348.8007 348.9822 349.4523 350.3355 350.3937 350.4750 351.0907 351.3086
   351.5623 351.7301 351.8067 352.0289 352.2229 352.4307 352.5033 352.5631
   352.6733 352.7977 353.1404 353.3259 353.3981 353.4426 353.5316 353.5582
   353.5851 353.8608 353.9391 354.0545 354.0638 354.0876 354.1534 354.2645
   354.2921 354.3807 356.1432 356.4293 357.4691 358.0698 358.1385 358.7263
   358.8084 358.8280 358.8421 359.0525 359.1990 359.2414 359.2960 359.4526
   359.5847 359.6680 359.7010 359.7202 360.0015 360.1295 360.3996 360.7662
   361.2166 361.3195 361.3553 361.6787 361.8442 361.8865 362.1236 362.1689
   362.2861 362.5904 362.8059 362.8793 363.3291 364.3599 364.4709 364.5821
   364.6346 365.0595 365.8156 366.7250 366.7422 366.8546 366.8957 366.9221
   366.9874 367.9068 367.9101 368.4375 368.7601 368.9411 369.1140 369.1565
   369.3288 369.8468 370.0923 370.1030 370.3151 370.8650 371.0088 371.3486
   371.3978 371.7694 371.8098 371.8547 371.8696 371.9485 372.0727 372.3891
   372.4943 373.1188 373.1379 373.1824 373.2036 373.8538 374.6205 374.7973
   374.8892 375.0914 375.0928 375.3575 375.7496 375.9476 376.5981 376.6490
   376.9714 377.0419 377.2015 377.3320 377.9197 378.2557 379.1309 379.2297
   379.2793 379.4536 379.4903 379.5599 379.7749 379.9246 380.0223 380.0827
   380.3581 380.6615 380.9922 381.3529 381.5986 381.7229 381.7298 383.0016
   383.0683 383.0986 383.5480 383.8092 383.8687 384.1865 384.5753 384.6586
   384.6848 384.8383 385.0681 385.2087 385.3122 385.3257 385.4075 385.4873
   385.6472 385.7666 385.8298 385.9882 385.9910 386.2578 386.9666 387.0398
   387.0738 387.3081 387.3612 387.6485 387.8036 388.8242 388.8274 389.3894

          k =-0.5000-1.0000 0.0000 (  2468 PWs)   bands (ev):

   -20.5136  -6.1023  -5.9386  -5.9386  -4.2109   4.4622   5.0343   5.0343
     9.7538   9.7538  11.6947  12.2908  12.9336  14.3694  14.3694  14.6228
    14.9986  15.0793  15.1128  15.1128  15.4716  16.3278  16.9461  16.9461
    18.1112  19.4330  19.4330  23.1347  23.3172  24.6732  24.6732  25.1095
    25.1095  26.2244  26.5262  26.8953  27.5094  29.6414  29.6414  32.4380
    32.4380  34.3700  35.3350  35.3623  35.3623  37.1955  37.7744  37.7870
    37.8266  39.0944  39.7478  39.9890  39.9890  41.6725  42.4182  43.7753
    43.7753  44.2835  45.0479  45.0479  46.5115  46.5115  47.1070  47.4593
    49.2922  49.4472  49.4472  50.5531  50.5531  52.3542  52.5535  52.6053
    52.7262  52.7262  52.7544  53.7681  53.7681  54.1670  55.2173  55.2173
    56.3948  57.3283  58.1533  59.5257  60.9339  60.9339  61.0766  61.3937
    61.3937  61.5900  62.5146  63.1680  63.1680  63.9561  64.3806  65.5569
    65.5569  65.6149  65.8136  65.8378  66.3622  66.5412  66.5412  68.7126
    69.3384  69.5158  69.7163  69.9631  69.9631  71.7830  71.7830  71.8886
    73.1309  74.2590  75.1823  75.1823  75.5818  75.5818  77.8818  78.9461
    80.0869  81.6288  81.6288  82.2799  82.5549  82.7697  82.7697  83.7674
    84.1841  84.1841  84.2467  85.4033  85.6269  86.1876  86.1876  86.2038
    86.7565  86.7565  87.3489  87.3489  87.6486  88.4058  88.4058  88.6146
    88.8135  90.5635  90.6736  90.6736  90.7619  91.9546  92.1238  93.6948
    93.6948  93.9075  94.3048  94.3333  94.5291  94.5291  95.2995  95.6566
    95.8017  95.8017  96.4578  96.4742  96.7158  97.9478  98.3514  98.3514
    99.2061  99.2061  99.7463 100.2286 100.2470 100.3944 100.3944 102.6112
   102.8946 102.8946 103.1164 105.0061 105.0319 105.0585 105.0585 105.6207
   105.7052 106.2671 106.2671 107.8818 107.9564 107.9700 107.9700 108.3652
   108.4622 108.9390 108.9390 109.5313 110.1386 110.1536 110.2819 110.2819
   110.4810 110.7482 111.3363 111.3363 112.1428 112.1428 113.5325 115.4794
   115.7865 115.7865 115.9628 116.2501 116.8965 116.9269 116.9269 117.9949
   118.3865 118.3865 119.8421 120.1468 122.3860 122.3860 122.4219 122.4392
   123.3480 123.3809 123.3809 124.3363 124.3363 124.5055 125.4226 125.4226
   125.6868 125.8705 126.1624 126.3086 126.8665 127.1986 127.3321 127.6044
   127.6044 128.2585 128.2585 129.5821 129.6468 130.2460 130.3595 130.3595
   130.8429 131.0884 131.0884 132.3214 132.3837 132.5322 132.5322 133.4136
   133.6164 133.6881 133.6881 134.2898 134.2898 134.4172 134.6578 135.4162
   136.9287 137.0432 137.0432 138.2184 138.3379 138.4331 140.3987 141.4122
   141.5843 141.5843 141.6505 141.7894 142.4202 142.5372 142.5372 143.6666
   143.8739 143.8739 144.0961 144.0961 145.2990 145.5368 145.6034 145.6034
   146.0132 146.4923 147.2835 147.2835 147.6375 150.7923 150.7923 150.8729
   150.8938 151.0561 151.4030 152.0569 152.0569 152.8841 152.8996 153.0770
   153.0770 153.4262 153.5508 153.7148 153.7148 153.7510 154.0668 154.1885
   154.1885 154.6045 154.6490 155.0654 155.0654 155.1545 155.6466 155.6466
   156.0708 156.6810 156.6810 157.2754 157.3599 157.5360 157.5360 158.0498
   159.1827 159.1827 159.3010 159.3664 159.6784 159.7699 159.7699 159.9799
   160.3450 160.5651 160.5651 162.0015 162.1140 162.1140 162.3996 164.1564
   164.8013 165.2382 165.2382 165.9346 166.1200 166.3299 166.3299 166.4571
   166.4881 166.7937 166.7937 167.0969 167.8853 167.9822 168.0446 168.5433
   168.5433 168.8953 169.1501 169.1501 169.4461 169.4461 170.0903 170.0945
   170.1756 170.6166 170.7567 170.7567 170.8820 171.0738 171.0738 173.7010
   173.7614 173.9007 173.9851 173.9851 174.6828 174.6828 175.1409 176.8617
   177.8607 177.8894 177.9499 177.9499 178.6600 178.7168 178.8806 178.8806
   179.3813 179.3813 179.9999 180.3047 180.4704 180.4704 180.6786 180.7724
   181.4719 181.4719 181.8161 182.0142 182.0197 183.4667 184.4214 184.4214
   184.9621 185.1929 185.4114 185.6626 185.6626 185.6657 186.9433 186.9433
   188.5815 188.5815 188.7497 189.0136 190.5373 190.7331 191.5910 191.5910
   191.7472 192.2923 192.2923 193.0882 193.2528 193.3624 193.7435 193.7693
   193.7693 194.2576 194.2576 194.6144 195.3029 195.5932 195.6397 195.6846
   195.9855 195.9855 196.3773 196.3773 196.4013 196.6356 196.6356 196.8205
   196.8241 196.8854 197.0575 197.0575 198.6293 198.6293 198.6465 199.0522
   199.4962 201.2716 201.6563 202.0821 202.2528 202.2528 202.7795 202.7795
   203.7514 204.1259 204.1259 204.5374 204.5784 204.6583 204.6583 205.4428
   205.4428 205.4801 205.8483 206.8757 207.5677 207.6772 207.8598 208.1058
   208.2527 208.2527 209.0021 209.4829 209.5558 209.5558 209.6562 209.6562
   209.8439 209.8439 209.9418 210.5975 211.0241 211.0241 211.8078 211.8514
   211.8800 212.7760 213.0147 213.0147 213.2675 213.9554 214.0065 214.0065
   214.0540 214.4789 214.8549 214.8549 215.0218 215.1525 215.5302 215.5302
   215.7170 215.9277 215.9868 215.9868 216.1463 216.4279 216.7481 216.7481
   218.3015 219.9102 219.9102 220.5110 220.6846 222.9763 222.9763 223.5402
   223.5402 223.8016 224.6516 225.3343 225.4758 225.5466 225.5466 225.5566
   225.7184 226.3890 227.7947 227.7947 227.9968 228.1464 228.1464 228.3330
   228.6954 228.6954 228.8122 228.9239 229.1792 229.1792 229.3612 229.4838
   229.6374 230.7762 230.7762 231.0351 231.0351 231.1269 231.1828 231.6462
   231.6930 231.9271 232.0008 232.0008 232.3908 232.7945 233.1480 233.3480
   233.3480 233.8880 233.9316 233.9316 234.8466 235.0315 235.0315 235.1798
   236.2893 236.2893 237.2539 237.2797 237.4750 237.4750 237.5394 238.0124
   238.3728 238.3728 238.6747 238.7167 238.7196 239.3321 239.5458 239.5458
   239.8672 240.1179 240.1978 240.1978 240.5352 240.8951 240.9642 241.0285
   241.3239 241.3239 241.3964 241.3964 241.7865 241.8044 241.8044 242.6966
   242.6985 243.1984 243.1984 243.2666 243.5753 244.1769 244.1769 244.4944
   244.6712 245.1885 245.1885 245.5585 245.8230 246.0482 246.4954 247.4516
   247.4516 248.1752 248.2464 248.6035 248.6035 249.3294 249.5818 249.7371
   249.7371 250.3609 250.3609 250.5695 250.8012 251.5035 251.9562 251.9562
   252.3029 252.3029 252.5899 252.7952 252.8064 253.0451 253.0451 253.2550
   253.7014 254.0910 254.0935 254.1876 254.4755 254.4755 255.1141 255.3851
   255.5217 255.5217 257.0913 257.0913 257.0941 257.0946 258.3935 258.5729
   258.6213 258.6213 259.2114 259.4444 259.4444 259.7253 259.8160 260.0337
   260.0337 260.1423 260.1423 260.4822 260.6023 260.9825 260.9825 261.1666
   262.0995 262.0995 262.3785 262.5874 262.5874 263.4397 263.5966 263.7641
   263.7641 263.8842 265.3400 265.7378 265.7378 266.0260 266.7998 267.4418
   267.4418 267.5877 267.8935 267.8935 268.0840 268.1996 268.2663 268.3626
   268.3626 268.6808 268.6973 268.8088 268.8088 269.1653 269.8156 270.3469
   271.2019 271.2019 271.2362 271.2622 271.3712 272.3059 272.3059 273.2939
   273.5787 273.5870 273.5870 274.2765 274.3358 274.7282 274.7282 275.0779
   276.5916 276.6505 276.6505 278.1288 278.3628 278.3727 278.4160 278.4160
   278.7853 278.8340 278.9729 278.9729 280.1181 280.1181 280.4220 280.4549
   281.4087 281.4087 281.8693 282.1462 283.3812 283.3812 284.1616 284.1643
   284.4976 284.4976 284.5197 285.2658 285.2658 285.3949 285.5439 285.7148
   285.7148 286.0114 286.1064 286.2948 286.4002 286.9600 286.9600 287.3647
   287.3647 287.3985 287.8333 288.6031 288.6588 288.6588 288.9446 290.0767
   292.0198 293.1941 293.1941 293.6362 293.8334 294.2284 294.2284 294.3473
   294.6229 294.7378 294.7378 294.7484 294.9252 295.0029 295.1674 295.2643
   295.2643 295.4491 295.4837 295.7457 295.7457 296.0935 296.6896 296.6896
   296.9544 296.9544 297.1819 297.3818 297.9285 298.1914 298.7073 298.8855
   298.8855 299.1121 299.1121 299.3401 300.4210 300.6855 300.7941 300.7941
   301.5232 301.6717 301.6717 301.7022 302.1059 302.1059 302.3465 302.3726
   302.8183 303.1354 303.2345 303.2345 303.3619 303.4315 303.5110 303.5685
   303.5685 303.8437 304.0229 304.0615 304.0615 304.1291 304.2800 304.2800
   304.2907 304.4887 304.4887 304.5431 305.0375 306.0116 306.3175 306.7103
   306.7103 306.9602 307.3854 307.7238 308.0530 308.0530 308.3874 308.3874
   308.3972 309.1500 309.3074 309.3074 309.4138 309.4138 309.4691 310.1766
   310.3574 310.6899 310.7646 310.7646 310.8484 310.8484 311.2939 311.6864
   311.7634 311.9292 311.9502 311.9502 312.0271 312.3490 312.3490 312.4218
   312.5217 312.6046 312.7575 312.8090 312.8090 312.8851 313.2376 313.5496
   313.5496 315.3658 315.8043 315.8962 316.6558 316.6558 317.7758 317.7758
   317.9632 319.3689 319.4292 320.0228 320.0228 321.2679 321.4731 321.4731
   321.7890 321.8627 321.9466 321.9466 322.1467 322.4199 323.5409 323.5409
   323.6640 323.9513 324.1653 324.1653 324.1933 324.2029 325.0109 325.0109
   325.1169 325.3380 325.5039 325.5039 325.5907 325.9520 325.9520 326.0640
   326.1882 326.4095 326.4095 326.5230 327.0806 327.1520 327.1520 327.3256
   327.4578 327.7064 327.9536 327.9536 328.3435 328.3435 329.0149 329.3560
   329.5873 330.4354 330.4354 331.0048 331.0778 331.0778 332.6166 332.6540
   332.6540 332.9558 332.9691 334.0409 334.0409 334.2763 334.6621 334.6621
   335.2518 335.2518 335.3411 335.4497 335.5983 336.5092 336.5113 336.8041
   336.8041 336.9546 337.8034 338.0343 338.0343 338.2131 339.0766 339.1551
   339.2324 339.2324 339.3888 339.7893 339.7936 339.8586 339.8586 340.0003
   340.0191 340.0191 340.0969 340.3634 340.5348 340.5348 341.0959 341.0959
   341.3805 342.2967 342.3585 342.4103 342.4103 342.6626 343.0802 343.2100
   343.3954 343.3954 343.5400 343.5436 343.5436 343.6144 343.9184 344.0229
   344.0953 344.6592 344.6592 344.6948 344.8237 344.9040 344.9767 344.9767
   346.1619 346.2527 346.2527 346.2816 346.3264 346.5686 346.6151 346.6151
   346.7754 346.9070 346.9730 346.9730 347.0311 347.0493 347.0493 347.1542
   347.2566 347.3559 347.4212 347.4910 347.4910 347.6508 347.7496 347.7496
   349.7154 350.6848 351.2735 351.2735 352.3055 354.1308 354.7536 355.1744
   355.1744 355.7826 355.7826 355.8924 355.9426 355.9426 355.9665 356.0628
   356.1369 356.4299 356.4299 356.6273 357.2188 358.5311 358.5311 358.8152
   359.3510 359.3510 359.4105 359.9638 360.0772 360.0772 360.2901 360.3233
   360.5912 361.1565 361.1565 361.7574 361.8151 361.8543 361.8572 361.8572
   362.0502 362.0502 362.0841 362.1388 362.2311 362.2614 362.8504 363.3090
   363.3090 364.1911 364.1977 364.1977 364.2898 364.3349 364.3349 364.3659
   364.7833 364.7833 365.1644 366.7486 366.7486 366.9724 367.2837 367.4115
   367.4115 367.4210 367.5418 367.7721 367.9022 367.9022 367.9394 368.1159
   368.2321 368.3308 368.8546 368.9223 368.9223 369.0411 369.0613 369.1042
   369.1042 369.1375 369.2644 369.2644 371.6860 371.6860 371.7171 372.0554
   372.5035 372.5878 372.5878 372.6380 372.6834 374.4561 374.7528 374.7528
   374.9066 374.9066 375.0570 375.0864 375.3524 375.5616 375.5616 375.7584
   376.3441 376.3671 376.3834 376.3834 376.5787 376.7559 376.7559 376.7913
   376.8750 376.8750 377.2601 377.3148 377.5832 379.4988 380.3557 380.3557
   381.5532 382.0358 382.0358 382.6621 382.9789 383.0033 383.0124 383.0237
   383.0237 383.3445 383.7053 383.7053 383.7211 384.3708 384.3710 384.6500
   384.6500 384.8258 385.0370 385.2330 385.2330 385.4782 386.1117 386.1117
   386.3536 386.4899 386.8171 386.8171 386.9438 387.0767 387.1096 388.0082
   388.0082 388.0335 388.1294 388.1294 388.4382 388.7544 388.8894 388.8894

     the Fermi energy is     6.6956 ev
     (compare with:     6.3881 eV, computed in scf)

     Writing all to output data dir out/mp-1500.save/
 
     init_run     :      0.02s CPU      0.03s WALL (       1 calls)
     electrons    :    737.32s CPU    783.30s WALL (       1 calls)

     Called by init_run:
     wfcinit      :      0.00s CPU      0.00s WALL (       1 calls)
     potinit      :      0.01s CPU      0.01s WALL (       1 calls)
     hinit0       :      0.01s CPU      0.01s WALL (       1 calls)

     Called by electrons:
     c_bands      :    737.31s CPU    783.26s WALL (       1 calls)
     v_of_rho     :      0.00s CPU      0.00s WALL (       1 calls)

     Called by c_bands:
     init_us_2    :      0.00s CPU      0.00s WALL (      15 calls)
     init_us_2:cp :      0.00s CPU      0.00s WALL (      15 calls)
     paro_k       :    713.83s CPU    758.11s WALL (      15 calls)

     Called by paro_*:
     h_psi        :     17.03s CPU     17.95s WALL (    1679 calls)
     g_psi        :      0.35s CPU      0.40s WALL (  158086 calls)

     Called by h_psi:
     h_psi:calbec :      0.51s CPU      0.54s WALL (    1679 calls)
     vloc_psi     :     16.03s CPU     16.90s WALL (    1679 calls)
     add_vuspsi   :      0.33s CPU      0.35s WALL (    1679 calls)

     General routines
     calbec       :      0.51s CPU      0.54s WALL (    1679 calls)
     fft          :      0.00s CPU      0.00s WALL (      10 calls)
     fftw         :     14.35s CPU     15.14s WALL (  257976 calls)
 
     Parallel routines
 
     PWSCF        :  12m18.44s CPU  13m 5.20s WALL

 
   This run was terminated on:  20: 9:41  17Nov2023            

=------------------------------------------------------------------------------=
   JOB DONE.
=------------------------------------------------------------------------------=
