
     Program PWSCF v.7.1 starts on 17Nov2023 at 19:56: 9 

     This program is part of the open-source Quantum ESPRESSO suite
     for quantum simulation of materials; please cite
         "P. Giannozzi et al., J. Phys.:Condens. Matter 21 395502 (2009);
         "P. Giannozzi et al., J. Phys.:Condens. Matter 29 465901 (2017);
         "P. Giannozzi et al., J. Chem. Phys. 152 154105 (2020);
          URL http://www.quantum-espresso.org", 
     in publications or presentations arising from this work. More details at
     http://www.quantum-espresso.org/quote

     Parallel version (MPI), running on    24 processors

     MPI processes distributed on     1 nodes
     123088 MiB available memory on the printing compute node when the environment starts
 
     Reading input from pw_mp-1500_scf_k3000_E47.in
Warning: card &CELL ignored
Warning: card / ignored

     Current dimensions of program PWSCF are:
     Max number of different atomic species (ntypx) = 10
     Max number of k-points (npk) =  40000
     Max angular momentum in pseudopotentials (lmaxx) =  4
 
     K-points division:     npool     =       2
     R & G space division:  proc/nbgrp/npool/nimage =      12
     Subspace diagonalization in iterative solution of the eigenvalue problem:
     a serial algorithm will be used

 
     Parallelization info
     --------------------
     sticks:   dense  smooth     PW     G-vecs:    dense   smooth      PW
     Min          79      79     24                 1643     1643     273
     Max          80      80     25                 1648     1648     275
     Sum         955     955    295                19747    19747    3287
 
     Using Slab Decomposition
 


     bravais-lattice index     =            2
     lattice parameter (alat)  =      12.1913  a.u.
     unit-cell volume          =     452.9900 (a.u.)^3
     number of atoms/cell      =            2
     number of atomic types    =            2
     number of electrons       =        16.00
     number of Kohn-Sham states=           16
     kinetic-energy cutoff     =      47.0000  Ry
     charge density cutoff     =     188.0000  Ry
     scf convergence threshold =      1.0E-10
     mixing beta               =       0.7000
     number of iterations used =            8  plain     mixing
     Exchange-correlation= PBE
                           (   1   4   3   4   0   0   0)

     celldm(1)=  12.191286  celldm(2)=   0.000000  celldm(3)=   0.000000
     celldm(4)=   0.000000  celldm(5)=   0.000000  celldm(6)=   0.000000

     crystal axes: (cart. coord. in units of alat)
               a(1) = (  -0.500000   0.000000   0.500000 )  
               a(2) = (   0.000000   0.500000   0.500000 )  
               a(3) = (  -0.500000   0.500000   0.000000 )  

     reciprocal axes: (cart. coord. in units 2 pi/alat)
               b(1) = ( -1.000000 -1.000000  1.000000 )  
               b(2) = (  1.000000  1.000000  1.000000 )  
               b(3) = ( -1.000000  1.000000 -1.000000 )  


     PseudoPot. # 1 for Ba read from file:
     /usr/scratch4/magr4985/MG/HTDF/pseudo/SG15/Ba.upf
     MD5 check sum: ac4691792522964bb0504809e83fae44
     Pseudo is Norm-conserving, Zval = 10.0
     Generated using ONCVPSP code by D. R. Hamann
     Using radial grid of  602 points,  8 beta functions with: 
                l(1) =   0
                l(2) =   0
                l(3) =   1
                l(4) =   1
                l(5) =   2
                l(6) =   2
                l(7) =   3
                l(8) =   3

     PseudoPot. # 2 for S  read from file:
     /usr/scratch4/magr4985/MG/HTDF/pseudo/SG15/S.upf
     MD5 check sum: f9d020296ee6110346977bfd66d424f6
     Pseudo is Norm-conserving, Zval =  6.0
     Generated using ONCVPSP code by D. R. Hamann
     Using radial grid of  602 points,  4 beta functions with: 
                l(1) =   0
                l(2) =   0
                l(3) =   1
                l(4) =   1

     atomic species   valence    mass     pseudopotential
        Ba            10.00   137.32700     Ba( 1.00)
        S              6.00    32.06500     S ( 1.00)

     48 Sym. Ops., with inversion, found



   Cartesian axes

     site n.     atom                  positions (alat units)
         1           Ba  tau(   1) = (   0.0000000   0.0000000   0.0000000  )
         2           S   tau(   2) = (  -0.5000000   0.5000000   0.5000000  )

     number of k points=    72  Gaussian smearing, width (Ry)=  0.0005
                       cart. coord. in units 2pi/alat
        k(    1) = (   0.0000000   0.0000000   0.0000000), wk =   0.0011574
        k(    2) = (  -0.0833333   0.0833333  -0.0833333), wk =   0.0092593
        k(    3) = (  -0.1666667   0.1666667  -0.1666667), wk =   0.0092593
        k(    4) = (  -0.2500000   0.2500000  -0.2500000), wk =   0.0092593
        k(    5) = (  -0.3333333   0.3333333  -0.3333333), wk =   0.0092593
        k(    6) = (  -0.4166667   0.4166667  -0.4166667), wk =   0.0092593
        k(    7) = (   0.5000000  -0.5000000   0.5000000), wk =   0.0046296
        k(    8) = (   0.0000000   0.1666667   0.0000000), wk =   0.0069444
        k(    9) = (  -0.0833333   0.2500000  -0.0833333), wk =   0.0277778
        k(   10) = (  -0.1666667   0.3333333  -0.1666667), wk =   0.0277778
        k(   11) = (  -0.2500000   0.4166667  -0.2500000), wk =   0.0277778
        k(   12) = (  -0.3333333   0.5000000  -0.3333333), wk =   0.0277778
        k(   13) = (   0.5833333  -0.4166667   0.5833333), wk =   0.0277778
        k(   14) = (   0.5000000  -0.3333333   0.5000000), wk =   0.0277778
        k(   15) = (   0.4166667  -0.2500000   0.4166667), wk =   0.0277778
        k(   16) = (   0.3333333  -0.1666667   0.3333333), wk =   0.0277778
        k(   17) = (   0.2500000  -0.0833333   0.2500000), wk =   0.0277778
        k(   18) = (   0.1666667  -0.0000000   0.1666667), wk =   0.0138889
        k(   19) = (   0.0000000   0.3333333   0.0000000), wk =   0.0069444
        k(   20) = (  -0.0833333   0.4166667  -0.0833333), wk =   0.0277778
        k(   21) = (  -0.1666667   0.5000000  -0.1666667), wk =   0.0277778
        k(   22) = (  -0.2500000   0.5833333  -0.2500000), wk =   0.0277778
        k(   23) = (   0.6666667  -0.3333333   0.6666667), wk =   0.0277778
        k(   24) = (   0.5833333  -0.2500000   0.5833333), wk =   0.0277778
        k(   25) = (   0.5000000  -0.1666667   0.5000000), wk =   0.0277778
        k(   26) = (   0.4166667  -0.0833333   0.4166667), wk =   0.0277778
        k(   27) = (   0.3333333   0.0000000   0.3333333), wk =   0.0138889
        k(   28) = (   0.0000000   0.5000000   0.0000000), wk =   0.0069444
        k(   29) = (  -0.0833333   0.5833333  -0.0833333), wk =   0.0277778
        k(   30) = (  -0.1666667   0.6666667  -0.1666667), wk =   0.0277778
        k(   31) = (   0.7500000  -0.2500000   0.7500000), wk =   0.0277778
        k(   32) = (   0.6666667  -0.1666667   0.6666667), wk =   0.0277778
        k(   33) = (   0.5833333  -0.0833333   0.5833333), wk =   0.0277778
        k(   34) = (   0.5000000   0.0000000   0.5000000), wk =   0.0138889
        k(   35) = (   0.0000000   0.6666667   0.0000000), wk =   0.0069444
        k(   36) = (  -0.0833333   0.7500000  -0.0833333), wk =   0.0277778
        k(   37) = (   0.8333333  -0.1666667   0.8333333), wk =   0.0277778
        k(   38) = (   0.7500000  -0.0833333   0.7500000), wk =   0.0277778
        k(   39) = (   0.6666667  -0.0000000   0.6666667), wk =   0.0138889
        k(   40) = (   0.0000000   0.8333333   0.0000000), wk =   0.0069444
        k(   41) = (   0.9166667  -0.0833333   0.9166667), wk =   0.0277778
        k(   42) = (   0.8333333   0.0000000   0.8333333), wk =   0.0138889
        k(   43) = (   0.0000000  -1.0000000   0.0000000), wk =   0.0034722
        k(   44) = (  -0.1666667   0.3333333   0.0000000), wk =   0.0277778
        k(   45) = (  -0.2500000   0.4166667  -0.0833333), wk =   0.0555556
        k(   46) = (  -0.3333333   0.5000000  -0.1666667), wk =   0.0555556
        k(   47) = (   0.5833333  -0.4166667   0.7500000), wk =   0.0555556
        k(   48) = (   0.5000000  -0.3333333   0.6666667), wk =   0.0277778
        k(   49) = (  -0.1666667   0.5000000   0.0000000), wk =   0.0277778
        k(   50) = (  -0.2500000   0.5833333  -0.0833333), wk =   0.0555556
        k(   51) = (   0.6666667  -0.3333333   0.8333333), wk =   0.0555556
        k(   52) = (   0.5833333  -0.2500000   0.7500000), wk =   0.0555556
        k(   53) = (   0.5000000  -0.1666667   0.6666667), wk =   0.0555556
        k(   54) = (   0.4166667  -0.0833333   0.5833333), wk =   0.0555556
        k(   55) = (   0.3333333   0.0000000   0.5000000), wk =   0.0277778
        k(   56) = (  -0.1666667   0.6666667  -0.0000000), wk =   0.0277778
        k(   57) = (   0.7500000  -0.2500000   0.9166667), wk =   0.0555556
        k(   58) = (   0.6666667  -0.1666667   0.8333333), wk =   0.0555556
        k(   59) = (   0.5833333  -0.0833333   0.7500000), wk =   0.0555556
        k(   60) = (   0.5000000   0.0000000   0.6666667), wk =   0.0277778
        k(   61) = (   0.8333333  -0.1666667   1.0000000), wk =   0.0277778
        k(   62) = (   0.7500000  -0.0833333   0.9166667), wk =   0.0555556
        k(   63) = (   0.6666667   0.0000000   0.8333333), wk =   0.0277778
        k(   64) = (  -0.1666667  -1.0000000  -0.0000000), wk =   0.0138889
        k(   65) = (   0.6666667  -0.3333333   1.0000000), wk =   0.0277778
        k(   66) = (   0.5833333  -0.2500000   0.9166667), wk =   0.0555556
        k(   67) = (   0.5000000  -0.1666667   0.8333333), wk =   0.0277778
        k(   68) = (   0.6666667  -0.1666667   1.0000000), wk =   0.0277778
        k(   69) = (   0.5833333  -0.0833333   0.9166667), wk =   0.0555556
        k(   70) = (   0.5000000   0.0000000   0.8333333), wk =   0.0277778
        k(   71) = (  -0.3333333  -1.0000000   0.0000000), wk =   0.0138889
        k(   72) = (  -0.5000000  -1.0000000   0.0000000), wk =   0.0069444

     Dense  grid:    19747 G-vectors     FFT dimensions: (  40,  40,  40)

     Estimated max dynamical RAM per process >       6.89 MB

     Estimated total dynamical RAM >     160.63 MB

     Initial potential from superposition of free atoms

     starting charge      15.5979, renormalised to      16.0000
     Starting wfcs are random

     total cpu time spent up to now is        0.5 secs

     Self-consistent Calculation

     iteration #  1     ecut=    47.00 Ry     beta= 0.70
     Davidson diagonalization with overlap
     ethr =  1.00E-02,  avg # of iterations =  8.8

     total cpu time spent up to now is        1.7 secs

     total energy              =     -72.13705523 Ry
     estimated scf accuracy    <       0.21077491 Ry

     iteration #  2     ecut=    47.00 Ry     beta= 0.70
     Davidson diagonalization with overlap
     ethr =  1.32E-03,  avg # of iterations =  6.0

     total cpu time spent up to now is        2.3 secs

     total energy              =     -72.19644104 Ry
     estimated scf accuracy    <       0.13865129 Ry

     iteration #  3     ecut=    47.00 Ry     beta= 0.70
     Davidson diagonalization with overlap
     ethr =  8.67E-04,  avg # of iterations =  2.0

     total cpu time spent up to now is        2.6 secs

     total energy              =     -72.22757953 Ry
     estimated scf accuracy    <       0.00158023 Ry

     iteration #  4     ecut=    47.00 Ry     beta= 0.70
     Davidson diagonalization with overlap
     c_bands:  1 eigenvalues not converged
     c_bands:  1 eigenvalues not converged
     c_bands:  1 eigenvalues not converged
     c_bands:  2 eigenvalues not converged
     c_bands:  1 eigenvalues not converged
     c_bands:  1 eigenvalues not converged
     c_bands:  2 eigenvalues not converged
     c_bands:  1 eigenvalues not converged
     c_bands:  2 eigenvalues not converged
     ethr =  9.88E-06,  avg # of iterations = 14.8

     total cpu time spent up to now is        3.8 secs

     total energy              =     -72.22891088 Ry
     estimated scf accuracy    <       0.00002789 Ry

     iteration #  5     ecut=    47.00 Ry     beta= 0.70
     Davidson diagonalization with overlap
     c_bands:  1 eigenvalues not converged
     c_bands:  1 eigenvalues not converged
     c_bands:  1 eigenvalues not converged
     c_bands:  1 eigenvalues not converged
     c_bands:  1 eigenvalues not converged
     c_bands:  1 eigenvalues not converged
     c_bands:  1 eigenvalues not converged
     ethr =  1.74E-07,  avg # of iterations = 12.6

     total cpu time spent up to now is        4.8 secs

     total energy              =     -72.22893686 Ry
     estimated scf accuracy    <       0.00000069 Ry

     iteration #  6     ecut=    47.00 Ry     beta= 0.70
     Davidson diagonalization with overlap
     ethr =  4.29E-09,  avg # of iterations =  5.7

     total cpu time spent up to now is        5.4 secs

     total energy              =     -72.22893764 Ry
     estimated scf accuracy    <       0.00000001 Ry

     iteration #  7     ecut=    47.00 Ry     beta= 0.70
     Davidson diagonalization with overlap
     c_bands:  1 eigenvalues not converged
     ethr =  7.42E-11,  avg # of iterations =  5.5

     total cpu time spent up to now is        6.1 secs

     total energy              =     -72.22893766 Ry
     estimated scf accuracy    <          8.0E-10 Ry

     iteration #  8     ecut=    47.00 Ry     beta= 0.70
     Davidson diagonalization with overlap
     ethr =  5.01E-12,  avg # of iterations =  4.9

     total cpu time spent up to now is        6.8 secs

     total energy              =     -72.22893766 Ry
     estimated scf accuracy    <          1.0E-10 Ry

     iteration #  9     ecut=    47.00 Ry     beta= 0.70
     Davidson diagonalization with overlap
     ethr =  6.37E-13,  avg # of iterations =  2.8

     total cpu time spent up to now is        7.5 secs

     End of self-consistent calculation

          k = 0.0000 0.0000 0.0000 (  2445 PWs)   bands (ev):

   -20.5640  -5.6330  -5.6330  -5.6330  -4.7755   5.4777   5.4777   5.4777
     9.0149   9.4424   9.4424   9.4424  10.3422  10.3422  12.9054  15.3305

          k =-0.0833 0.0833-0.0833 (  2469 PWs)   bands (ev):

   -20.5614  -5.7671  -5.6354  -5.6354  -4.6359   5.2944   5.3921   5.3921
     9.2552   9.4568   9.5381   9.5381  10.5274  10.5274  13.1091  15.2963

          k =-0.1667 0.1667-0.1667 (  2487 PWs)   bands (ev):

   -20.5544  -6.0263  -5.6419  -5.6419  -4.3610   4.8756   5.1805   5.1805
     9.4267   9.8155   9.8155   9.9664  11.0385  11.0385  13.6112  15.1654

          k =-0.2500 0.2500-0.2500 (  2475 PWs)   bands (ev):

   -20.5448  -6.2816  -5.6507  -5.6507  -4.0837   4.4145   4.9301   4.9301
     9.5837  10.2541  10.2541  10.7650  11.7753  11.7753  14.1531  14.8843

          k =-0.3333 0.3333-0.3333 (  2473 PWs)   bands (ev):

   -20.5351  -6.4853  -5.6594  -5.6594  -3.8568   4.0254   4.7115   4.7115
     9.9091  10.8199  10.8199  11.4073  12.6227  12.6227  14.4300  14.4336

          k =-0.4167 0.4167-0.4167 (  2470 PWs)   bands (ev):

   -20.5280  -6.6152  -5.6657  -5.6657  -3.7089   3.7701   4.5664   4.5664
    10.4000  11.4269  11.4269  11.4589  13.3416  13.3417  14.0080  14.0080

          k = 0.5000-0.5000 0.5000 (  2488 PWs)   bands (ev):

   -20.5254  -6.6598  -5.6680  -5.6680  -3.6576   3.6813   4.5160   4.5160
    10.9652  11.0055  11.7674  11.7674  13.3115  13.3115  14.2691  14.2694

          k = 0.0000 0.1667 0.0000 (  2481 PWs)   bands (ev):

   -20.5606  -5.7839  -5.6446  -5.6446  -4.6032   5.1229   5.4444   5.4444
     9.2512   9.2829   9.6674   9.6674  10.3984  10.8056  13.1676  15.3018

          k =-0.0833 0.2500-0.0833 (  2487 PWs)   bands (ev):

   -20.5551  -5.9714  -5.6571  -5.6491  -4.4051   4.7934   5.3000   5.3385
     9.1550   9.6509   9.9495   9.9679  10.6369  11.4077  13.5524  15.1815

          k =-0.1667 0.3333-0.1667 (  2488 PWs)   bands (ev):

   -20.5463  -6.2041  -5.6693  -5.6542  -4.1634   4.4447   5.0256   5.1274
     9.2284  10.1906  10.4138  10.4457  11.1883  12.1784  14.0687  14.8954

          k =-0.2500 0.4167-0.2500 (  2471 PWs)   bands (ev):

   -20.5367  -6.4092  -5.6780  -5.6646  -3.9468   4.1311   4.7660   4.8912
     9.4890  10.7253  10.9760  11.1202  11.9379  12.9218  14.4154  14.4239

          k =-0.3333 0.5000-0.3333 (  2458 PWs)   bands (ev):

   -20.5288  -6.5547  -5.6810  -5.6779  -3.7899   3.8939   4.6004   4.6918
     9.9331  11.2819  11.4754  11.5593  12.7522  13.4104  13.9022  14.4270

          k = 0.5833-0.4167 0.5833 (  2460 PWs)   bands (ev):

   -20.5247  -6.6243  -5.6903  -5.6775  -3.7123   3.7705   4.5529   4.5665
    10.5125  11.0732  11.8141  11.8995  13.3194  13.5727  13.9127  14.0901

          k = 0.5000-0.3333 0.5000 (  2468 PWs)   bands (ev):

   -20.5255  -6.6114  -5.6982  -5.6683  -3.7233   3.7854   4.5335   4.6207
    10.4656  11.1312  11.4164  12.0200  13.0900  13.7370  13.8478  14.2847

          k = 0.4167-0.2500 0.4167 (  2468 PWs)   bands (ev):

   -20.5311  -6.5175  -5.6991  -5.6560  -3.8226   3.9429   4.5978   4.7872
     9.9435  10.8102  11.3247  11.5231  12.5016  13.3856  14.1157  14.5065

          k = 0.3333-0.1667 0.3333 (  2485 PWs)   bands (ev):

   -20.5399  -6.3528  -5.6919  -5.6438  -3.9991   4.2268   4.7511   5.0200
     9.5767  10.2597  10.7781  10.9145  11.9536  12.5268  14.3245  14.4993

          k = 0.2500-0.0833 0.2500 (  2475 PWs)   bands (ev):

   -20.5495  -6.1382  -5.6775  -5.6349  -4.2298   4.6000   4.9698   5.2586
     9.3949   9.8445  10.0740  10.3644  11.2621  11.6863  13.9040  14.8843

          k = 0.1667-0.0000 0.1667 (  2481 PWs)   bands (ev):

   -20.5574  -5.9152  -5.6567  -5.6318  -4.4714   4.9983   5.2077   5.4068
     9.3733   9.5453   9.5983   9.8950  10.7002  10.9866  13.4035  15.1789

          k = 0.0000 0.3333 0.0000 (  2473 PWs)   bands (ev):

   -20.5513  -6.0153  -5.6763  -5.6763  -4.3448   4.5566   5.3786   5.3786
     8.8310   9.6838  10.2853  10.2853  10.5605  12.0776  13.7626  15.1952

          k =-0.0833 0.4167-0.0833 (  2482 PWs)   bands (ev):

   -20.5441  -6.1511  -5.6945  -5.6887  -4.2202   4.3517   5.2411   5.2822
     8.7229  10.0593  10.6994  10.7148  10.8542  12.8415  14.1478  14.9266

          k =-0.1667 0.5000-0.1667 (  2467 PWs)   bands (ev):

   -20.5354  -6.3099  -5.7067  -5.7016  -4.0795   4.2100   4.9777   5.0950
     8.8523  10.6998  11.1493  11.2478  11.4243  13.3865  14.4781  14.5109

          k =-0.2500 0.5833-0.2500 (  2462 PWs)   bands (ev):

   -20.5275  -6.4417  -5.7235  -5.7098  -3.9547   4.1135   4.7424   4.8852
     9.2005  11.3046  11.6012  11.7956  12.1521  13.3604  13.9659  14.6268

          k = 0.6667-0.3333 0.6667 (  2466 PWs)   bands (ev):

   -20.5226  -6.5219  -5.7495  -5.7031  -3.8664   4.0202   4.6557   4.7078
     9.7372  11.1627  11.9518  12.1541  13.0244  13.5682  13.7540  13.9674

          k = 0.5833-0.2500 0.5833 (  2464 PWs)   bands (ev):

   -20.5219  -6.5402  -5.7702  -5.6881  -3.8286   3.9476   4.5967   4.7297
    10.3611  10.6526  11.5364  12.2259  13.3805  13.8848  13.9304  14.0362

          k = 0.5000-0.1667 0.5000 (  2461 PWs)   bands (ev):

   -20.5257  -6.4971  -5.7764  -5.6689  -3.8508   3.9563   4.5694   4.8978
    10.0544  10.9551  10.9813  11.7597  12.7748  14.0867  14.2051  14.6105

          k = 0.4167-0.0833 0.4167 (  2464 PWs)   bands (ev):

   -20.5330  -6.4021  -5.7619  -5.6506  -3.9350   4.0748   4.6305   5.0915
     9.6774  10.4361  10.7176  11.5702  12.2587  13.3554  14.2201  14.5993

          k = 0.3333 0.0000 0.3333 (  2485 PWs)   bands (ev):

   -20.5417  -6.2737  -5.7260  -5.6381  -4.0708   4.2996   4.7718   5.2361
     9.4634  10.0555  10.2788  10.9953  11.8372  12.4910  14.2958  14.4398

          k = 0.0000 0.5000 0.0000 (  2477 PWs)   bands (ev):

   -20.5387  -6.1582  -5.7194  -5.7194  -4.2450   4.2936   5.3336   5.3336
     8.3905  10.1208  10.8067  11.1607  11.1607  13.5381  14.3749  14.9496

          k =-0.0833 0.5833-0.0833 (  2464 PWs)   bands (ev):

   -20.5316  -6.2218  -5.7408  -5.7375  -4.2307   4.3049   5.2185   5.2610
     8.3280  10.5222  11.1018  11.6211  11.6582  13.8336  14.5818  14.6315

          k =-0.1667 0.6667-0.1667 (  2467 PWs)   bands (ev):

   -20.5247  -6.3009  -5.7757  -5.7441  -4.1760   4.3649   4.9791   5.1000
     8.5336  11.1246  11.6667  11.9844  12.1089  13.5134  14.1406  14.2851

          k = 0.7500-0.2500 0.7500 (  2458 PWs)   bands (ev):

   -20.5197  -6.3656  -5.8244  -5.7375  -4.0933   4.3755   4.8062   4.9098
     8.9681  11.3449  12.1524  12.2517  12.4762  13.4468  13.7310  13.9767

          k = 0.6667-0.1667 0.6667 (  2474 PWs)   bands (ev):

   -20.5182  -6.4064  -5.8639  -5.7194  -4.0060   4.2316   4.7410   4.8534
     9.5876  10.8831  11.7829  12.1514  13.2954  13.6221  13.9766  14.2681

          k = 0.5833-0.0833 0.5833 (  2465 PWs)   bands (ev):

   -20.5204  -6.4256  -5.8688  -5.6945  -3.9392   4.0844   4.6272   4.9779
    10.2735  10.3933  11.2492  11.6236  13.5480  14.0469  14.4332  14.6930

          k = 0.5000 0.0000 0.5000 (  2461 PWs)   bands (ev):

   -20.5258  -6.4253  -5.8303  -5.6692  -3.9127   4.0246   4.5878   5.0736
     9.9458  10.7556  10.7755  11.4766  12.8612  14.1040  14.5517  14.7293

          k = 0.0000 0.6667 0.0000 (  2465 PWs)   bands (ev):

   -20.5263  -6.1800  -5.7623  -5.7623  -4.3580   4.4410   5.3281   5.3281
     8.0354  10.6332  11.0927  12.0894  12.0894  13.9144  14.6652  14.6667

          k =-0.0833 0.7500-0.0833 (  2455 PWs)   bands (ev):

   -20.5209  -6.1787  -5.7983  -5.7746  -4.4071   4.6015   5.2275   5.2730
     8.0422  11.0375  11.3777  12.3853  12.4527  13.6452  14.0161  14.3725

          k = 0.8333-0.1667 0.8333 (  2458 PWs)   bands (ev):

   -20.5169  -6.1891  -5.8811  -5.7714  -4.3526   4.7296   4.9991   5.1245
     8.3304  11.5228  11.9041  12.2051  12.5025  13.3027  13.7664  14.2606

          k = 0.7500-0.0833 0.7500 (  2461 PWs)   bands (ev):

   -20.5153  -6.2240  -5.9573  -5.7536  -4.2245   4.5877   4.9360   4.9509
     8.8459  11.3146  12.0675  12.1302  12.6183  13.2021  14.2193  14.4944

          k = 0.6667-0.0000 0.6667 (  2460 PWs)   bands (ev):

   -20.5166  -6.3191  -5.9447  -5.7255  -4.0730   4.3095   4.7578   4.9952
     9.5364  10.7889  11.6661  11.7786  13.3645  13.6736  14.6009  14.7996

          k = 0.0000 0.8333 0.0000 (  2458 PWs)   bands (ev):

   -20.5173  -6.1157  -5.7935  -5.7935  -4.5721   4.7993   5.3449   5.3449
     7.8104  11.1524  11.3397  12.7352  12.7352  13.3403  13.8038  14.5886

          k = 0.9167-0.0833 0.9167 (  2466 PWs)   bands (ev):

   -20.5148  -6.0814  -5.8570  -5.7959  -4.5828   4.9343   5.2373   5.2915
     7.8943  11.4746  11.5643  12.5025  12.7794  13.1164  13.6766  14.4710

          k = 0.8333 0.0000 0.8333 (  2456 PWs)   bands (ev):

   -20.5141  -6.0340  -6.0207  -5.7814  -4.4396   4.9496   4.9864   5.1376
     8.2612  11.8635  11.8855  12.0116  12.5172  12.9439  14.1051  14.5899

          k = 0.0000-1.0000 0.0000 (  2450 PWs)   bands (ev):

   -20.5140  -6.0677  -5.8048  -5.8048  -4.6839   4.9926   5.3551   5.3551
     7.7337  11.4119  11.4415  12.9120  12.9121  13.0530  13.2869  14.4857

          k =-0.1667 0.3333 0.0000 (  2486 PWs)   bands (ev):

   -20.5487  -6.1142  -5.6897  -5.6503  -4.2492   4.5062   5.1056   5.3313
     9.0517   9.9385  10.1553  10.4721  10.9510  12.1291  13.9310  14.8921

          k =-0.2500 0.4167-0.0833 (  2479 PWs)   bands (ev):

   -20.5400  -6.2852  -5.7177  -5.6560  -4.0737   4.2553   4.8625   5.1851
     9.1483  10.3962  10.5318  11.0476  11.5653  12.8786  14.3453  14.4952

          k =-0.3333 0.5000-0.1667 (  2462 PWs)   bands (ev):

   -20.5312  -6.4351  -5.7336  -5.6691  -3.9248   4.0646   4.6728   4.9680
     9.4403  10.9236  11.0726  11.6077  12.1779  13.3649  14.2334  14.6380

          k = 0.5833-0.4167 0.7500 (  2463 PWs)   bands (ev):

   -20.5248  -6.5351  -5.7386  -5.6842  -3.8276   3.9427   4.5880   4.7647
     9.9147  11.1219  11.4850  12.0346  12.7931  13.8102  13.8677  14.3859

          k = 0.5000-0.3333 0.6667 (  2466 PWs)   bands (ev):

   -20.5225  -6.5699  -5.7385  -5.6915  -3.7940   3.9000   4.6033   4.6476
    10.4276  10.6499  11.8352  12.2159  13.4455  13.6787  13.7358  14.0126

          k =-0.1667 0.5000 0.0000 (  2478 PWs)   bands (ev):

   -20.5370  -6.2348  -5.7344  -5.6939  -4.1583   4.2560   5.0762   5.2758
     8.6378  10.3488  11.0458  11.1608  11.3275  13.4537  14.4516  14.5956

          k =-0.2500 0.5833-0.0833 (  2466 PWs)   bands (ev):

   -20.5292  -6.3305  -5.7661  -5.7074  -4.0823   4.2248   4.8586   5.1483
     8.8014  10.8054  11.4552  11.7259  11.8814  13.4734  14.3839  14.6657

          k = 0.6667-0.3333 0.8333 (  2459 PWs)   bands (ev):

   -20.5228  -6.4087  -5.7884  -5.7250  -4.0089   4.2092   4.7146   4.9590
     9.1818  11.1542  11.8156  11.9220  12.6451  13.5659  13.9682  14.1990

          k = 0.5833-0.2500 0.7500 (  2455 PWs)   bands (ev):

   -20.5196  -6.4525  -5.8099  -5.7270  -3.9530   4.1493   4.7214   4.7909
     9.7439  10.7055  12.0483  12.2405  13.0460  13.6587  14.0097  14.0949

          k = 0.5000-0.1667 0.6667 (  2454 PWs)   bands (ev):

   -20.5204  -6.4563  -5.8234  -5.7106  -3.9270   4.0870   4.6490   4.8773
    10.0699  10.4532  11.7030  11.9335  13.3094  13.8948  14.1067  14.4172

          k = 0.4167-0.0833 0.5833 (  2459 PWs)   bands (ev):

   -20.5250  -6.4234  -5.8136  -5.6866  -3.9394   4.0748   4.6233   5.0391
     9.5986  10.8739  11.2201  11.5737  12.8198  13.8432  14.3668  14.6505

          k = 0.3333 0.0000 0.5000 (  2460 PWs)   bands (ev):

   -20.5322  -6.3626  -5.7752  -5.6658  -3.9915   4.1288   4.7011   5.1618
     9.2806  10.6113  10.7979  11.6316  12.1093  13.3730  14.3912  14.6100

          k =-0.1667 0.6667-0.0000 (  2450 PWs)   bands (ev):

   -20.5254  -6.2373  -5.7789  -5.7534  -4.2617   4.4080   5.0872   5.2606
     8.3002  10.8108  11.4586  12.0092  12.1005  13.6759  14.2796  14.6127

          k = 0.7500-0.2500 0.9167 (  2459 PWs)   bands (ev):

   -20.5199  -6.2608  -5.8243  -5.7760  -4.2348   4.5167   4.8996   5.1479
     8.5414  11.1827  11.7780  12.3276  12.3833  13.6266  13.7632  14.2782

          k = 0.6667-0.1667 0.8333 (  2465 PWs)   bands (ev):

   -20.5167  -6.2863  -5.8863  -5.7728  -4.1619   4.4735   4.8594   4.9746
     9.0048  11.0158  11.9543  12.3890  12.6724  13.5633  13.9071  14.3239

          k = 0.5833-0.0833 0.7500 (  2469 PWs)   bands (ev):

   -20.5166  -6.3258  -5.9154  -5.7494  -4.0716   4.3046   4.7917   4.9635
     9.6458  10.4394  11.8679  12.0451  12.9653  14.0953  14.2413  14.7127

          k = 0.5000 0.0000 0.6667 (  2471 PWs)   bands (ev):

   -20.5196  -6.3799  -5.8848  -5.7168  -3.9912   4.1599   4.6662   5.0358
     9.9439  10.3754  11.5141  11.6014  13.4099  14.0625  14.5290  14.6101

          k = 0.8333-0.1667 1.0000 (  2458 PWs)   bands (ev):

   -20.5170  -6.1416  -5.8301  -5.8112  -4.4532   4.7747   5.1107   5.2702
     8.0861  11.2592  11.7208  12.2941  12.7115  13.3767  13.7803  14.4817

          k = 0.7500-0.0833 0.9167 (  2463 PWs)   bands (ev):

   -20.5146  -6.1090  -5.9420  -5.8123  -4.3811   4.8115   4.9653   5.1585
     8.4060  11.4508  11.6953  12.3217  12.7377  13.1242  14.0440  14.5121

          k = 0.6667 0.0000 0.8333 (  2460 PWs)   bands (ev):

   -20.5145  -6.1700  -5.9880  -5.7875  -4.2358   4.5654   4.9795   4.9906
     8.9439  10.9363  11.8889  12.4362  12.4734  13.5717  14.3448  14.6555

          k =-0.1667-1.0000-0.0000 (  2456 PWs)   bands (ev):

   -20.5139  -6.0507  -5.8971  -5.8230  -4.5493   4.9894   5.1053   5.2776
     8.0134  11.4753  11.9104  12.0859  12.9174  12.9844  13.8008  14.5653

          k = 0.6667-0.3333 1.0000 (  2461 PWs)   bands (ev):

   -20.5229  -6.3380  -5.8240  -5.7334  -4.0791   4.2778   4.7444   5.1320
     8.9968  10.9207  11.6039  11.8106  12.6847  13.6319  14.1479  14.5848

          k = 0.5833-0.2500 0.9167 (  2461 PWs)   bands (ev):

   -20.5183  -6.3351  -5.8617  -5.7688  -4.0731   4.3034   4.7530   5.0283
     9.3960  10.6246  11.6497  12.1879  13.0308  13.9920  14.1066  14.3331

          k = 0.5000-0.1667 0.8333 (  2454 PWs)   bands (ev):

   -20.5166  -6.3321  -5.8736  -5.7862  -4.0702   4.3000   4.8507   4.9066
     9.9151  10.0183  12.0004  12.3528  12.7220  13.9158  14.4417  14.6111

          k = 0.6667-0.1667 1.0000 (  2460 PWs)   bands (ev):

   -20.5162  -6.2087  -5.8594  -5.8508  -4.2392   4.5639   4.8727   5.1319
     8.8071  10.9761  11.5610  12.6404  12.6773  13.5516  14.1610  14.4760

          k = 0.5833-0.0833 0.9167 (  2461 PWs)   bands (ev):

   -20.5145  -6.1788  -5.9321  -5.8576  -4.1999   4.4731   4.9637   5.0333
     9.2807  10.3694  11.7554  12.4094  12.7583  14.1703  14.2350  14.5771

          k = 0.5000 0.0000 0.8333 (  2463 PWs)   bands (ev):

   -20.5152  -6.2379  -5.9243  -5.8234  -4.1393   4.3803   4.8843   5.0316
     9.8070   9.9162  11.7269  12.5336  12.6013  14.4125  14.4654  14.5235

          k =-0.3333-1.0000 0.0000 (  2450 PWs)   bands (ev):

   -20.5137  -6.0419  -6.0037  -5.8723  -4.3168   4.6630   4.9932   5.1359
     8.7419  10.9193  11.6024  12.3734  12.9281  13.5656  14.1686  14.5177

          k =-0.5000-1.0000 0.0000 (  2468 PWs)   bands (ev):

   -20.5136  -6.1023  -5.9386  -5.9386  -4.2109   4.4622   5.0343   5.0343
     9.7538   9.7538  11.6947  12.2908  12.9336  14.3694  14.3695  14.6229

     the Fermi energy is     6.3881 ev

!    total energy              =     -72.22893766 Ry
     estimated scf accuracy    <          1.2E-12 Ry
     smearing contrib. (-TS)   =      -0.00000000 Ry
     internal energy E=F+TS    =     -72.22893766 Ry

     The total energy is F=E-TS. E is the sum of the following terms:
     one-electron contribution =      -8.14706842 Ry
     hartree contribution      =       9.78044222 Ry
     xc contribution           =     -11.98949649 Ry
     ewald contribution        =     -61.87281498 Ry

     convergence has been achieved in   9 iterations

     Writing all to output data dir out/mp-1500.save/
 
     init_run     :      0.31s CPU      0.46s WALL (       1 calls)
     electrons    :      5.86s CPU      7.05s WALL (       1 calls)

     Called by init_run:
     wfcinit      :      0.29s CPU      0.41s WALL (       1 calls)
     potinit      :      0.01s CPU      0.01s WALL (       1 calls)
     hinit0       :      0.01s CPU      0.03s WALL (       1 calls)

     Called by electrons:
     c_bands      :      5.29s CPU      6.26s WALL (       9 calls)
     sum_band     :      0.53s CPU      0.60s WALL (       9 calls)
     v_of_rho     :      0.03s CPU      0.03s WALL (      10 calls)
     mix_rho      :      0.00s CPU      0.01s WALL (       9 calls)

     Called by c_bands:
     init_us_2    :      0.07s CPU      0.07s WALL (     684 calls)
     init_us_2:cp :      0.06s CPU      0.07s WALL (     684 calls)
     cegterg      :      3.98s CPU      4.22s WALL (     324 calls)

     Called by *egterg:
     cdiaghg      :      0.76s CPU      0.82s WALL (    2564 calls)
     h_psi        :      3.11s CPU      3.31s WALL (    2600 calls)
     g_psi        :      0.02s CPU      0.02s WALL (    2240 calls)

     Called by h_psi:
     h_psi:calbec :      0.12s CPU      0.13s WALL (    2600 calls)
     vloc_psi     :      2.89s CPU      3.07s WALL (    2600 calls)
     add_vuspsi   :      0.08s CPU      0.09s WALL (    2600 calls)

     General routines
     calbec       :      0.11s CPU      0.12s WALL (    2600 calls)
     fft          :      0.01s CPU      0.03s WALL (      99 calls)
     ffts         :      0.00s CPU      0.00s WALL (       9 calls)
     fftw         :      3.02s CPU      3.21s WALL (   45436 calls)
     davcio       :      0.04s CPU      0.53s WALL (    1130 calls)
 
     Parallel routines
 
     PWSCF        :      6.26s CPU      8.74s WALL

 
   This run was terminated on:  19:56:18  17Nov2023            

=------------------------------------------------------------------------------=
   JOB DONE.
=------------------------------------------------------------------------------=
