
     Program PWSCF v.7.1 starts on 18Dec2023 at  9:36:21 

     This program is part of the open-source Quantum ESPRESSO suite
     for quantum simulation of materials; please cite
         "P. Giannozzi et al., J. Phys.:Condens. Matter 21 395502 (2009);
         "P. Giannozzi et al., J. Phys.:Condens. Matter 29 465901 (2017);
         "P. Giannozzi et al., J. Chem. Phys. 152 154105 (2020);
          URL http://www.quantum-espresso.org", 
     in publications or presentations arising from this work. More details at
     http://www.quantum-espresso.org/quote

     Parallel version (MPI), running on     8 processors

     MPI processes distributed on     1 nodes
     123287 MiB available memory on the printing compute node when the environment starts
 
     Reading input from pw_mp-22865_nscf_k10_E70.in
Warning: card &IONS ignored
Warning: card / ignored
Warning: card &CELL ignored
Warning: card / ignored

     Current dimensions of program PWSCF are:
     Max number of different atomic species (ntypx) = 10
     Max number of k-points (npk) =  40000
     Max angular momentum in pseudopotentials (lmaxx) =  4

     Atomic positions and unit cell read from directory:
     out/mp-22865.save/
 
 
     R & G space division:  proc/nbgrp/npool/nimage =       8
     Subspace diagonalization in iterative solution of the eigenvalue problem:
     one sub-group per band group will be used
     scalapack distributed-memory algorithm (size of sub-group:  2*  2 procs)

 
     Parallelization info
     --------------------
     sticks:   dense  smooth     PW     G-vecs:    dense   smooth      PW
     Min         170     170     50                 4748     4748     752
     Max         171     171     51                 4752     4752     755
     Sum        1361    1361    401                37993    37993    6031
 
     Using Slab Decomposition
 


     bravais-lattice index     =            1
     lattice parameter (alat)  =       7.8305  a.u.
     unit-cell volume          =     480.1323 (a.u.)^3
     number of atoms/cell      =            2
     number of atomic types    =            2
     number of electrons       =        16.00
     number of Kohn-Sham states=         1200
     kinetic-energy cutoff     =      70.0000  Ry
     charge density cutoff     =     280.0000  Ry
     Exchange-correlation= PBE
                           (   1   4   3   4   0   0   0)

     celldm(1)=   7.830454  celldm(2)=   0.000000  celldm(3)=   0.000000
     celldm(4)=   0.000000  celldm(5)=   0.000000  celldm(6)=   0.000000

     crystal axes: (cart. coord. in units of alat)
               a(1) = (   1.000000   0.000000   0.000000 )  
               a(2) = (   0.000000   1.000000   0.000000 )  
               a(3) = (   0.000000   0.000000   1.000000 )  

     reciprocal axes: (cart. coord. in units 2 pi/alat)
               b(1) = (  1.000000  0.000000  0.000000 )  
               b(2) = (  0.000000  1.000000  0.000000 )  
               b(3) = (  0.000000  0.000000  1.000000 )  


     PseudoPot. # 1 for Cl read from file:
     /usr/scratch4/magr4985/MG/HTDF/pseudo/SG15/Cl.upf
     MD5 check sum: 0f993535b366f580ecbcdacce103c843
     Pseudo is Norm-conserving, Zval =  7.0
     Generated using ONCVPSP code by D. R. Hamann
     Using radial grid of  602 points,  4 beta functions with: 
                l(1) =   0
                l(2) =   0
                l(3) =   1
                l(4) =   1

     PseudoPot. # 2 for Cs read from file:
     /usr/scratch4/magr4985/MG/HTDF/pseudo/SG15/Cs.upf
     MD5 check sum: 74aa1fd125ef9ec93322f365f25225f6
     Pseudo is Norm-conserving, Zval =  9.0
     Generated using ONCVPSP code by D. R. Hamann
     Using radial grid of  602 points,  6 beta functions with: 
                l(1) =   0
                l(2) =   0
                l(3) =   1
                l(4) =   1
                l(5) =   2
                l(6) =   2

     atomic species   valence    mass     pseudopotential
        Cl             7.00    35.45300     Cl( 1.00)
        Cs             9.00   132.90550     Cs( 1.00)

     48 Sym. Ops., with inversion, found



   Cartesian axes

     site n.     atom                  positions (alat units)
         1           Cs  tau(   1) = (   0.0000000   0.0000000   0.0000000  )
         2           Cl  tau(   2) = (   0.5000000   0.5000000   0.5000000  )

     number of k points=     4  Gaussian smearing, width (Ry)=  0.0005
                       cart. coord. in units 2pi/alat
        k(    1) = (   0.0000000   0.0000000   0.0000000), wk =   0.2500000
        k(    2) = (   0.0000000   0.0000000  -0.5000000), wk =   0.7500000
        k(    3) = (   0.0000000  -0.5000000  -0.5000000), wk =   0.7500000
        k(    4) = (  -0.5000000  -0.5000000  -0.5000000), wk =   0.2500000

     Dense  grid:    37993 G-vectors     FFT dimensions: (  45,  45,  45)

     Estimated max dynamical RAM per process >     168.67 MB

     Estimated total dynamical RAM >       1.32 GB

     The potential is recalculated from file :
     out/mp-22865.save/charge-density

     Starting wfcs are random

     Band Structure Calculation
     Davidson diagonalization with overlap

     ethr =  5.00E-06,  avg # of iterations =  9.8

     total cpu time spent up to now is      648.5 secs

     End of band structure calculation

          k = 0.0000 0.0000 0.0000 (  4729 PWs)   bands (ev):

   -16.5051  -9.2411  -3.0011  -3.0011  -3.0011   2.8919   2.8919   2.8919
     8.0930   8.3250   8.3250  12.9099  12.9099  12.9099  16.1380  16.1380
    18.1854  18.1854  18.1854  18.2057  18.2057  18.2057  19.9241  19.9241
    19.9241  23.3104  23.8989  28.6231  28.6231  28.6231  28.6649  28.6649
    30.0867  30.0867  33.0260  33.0260  33.0260  34.4380  35.1658  35.1658
    35.1658  36.1316  36.1316  36.1316  39.2484  39.2484  39.2484  39.5660
    39.5660  39.5660  40.6477  41.1980  42.6778  42.6778  42.6778  42.7180
    42.7180  42.7180  43.8977  43.8977  45.8910  45.8910  45.8910  46.9329
    47.8086  47.8086  48.7378  48.7378  48.7378  50.2413  50.2413  50.2413
    51.3023  51.3023  51.3023  51.5795  51.6756  51.6756  51.6756  53.0163
    53.0163  61.2375  61.2375  61.2375  62.2382  62.7832  62.7832  62.7832
    63.6998  63.6998  63.7660  63.7660  63.7660  66.7191  66.7191  66.7191
    67.7098  67.7098  67.7098  67.8061  67.8061  69.2972  71.3325  72.8140
    72.8140  72.8140  72.8580  72.8580  72.8580  73.3482  73.3482  75.3643
    75.3643  75.3643  76.5580  76.5580  76.5580  77.6320  77.6320  77.6320
    77.6568  77.9760  77.9760  77.9760  78.2134  78.2134  78.2816  78.2816
    81.8613  81.8613  81.8613  81.9895  81.9895  81.9895  83.9515  83.9515
    83.9515  84.2698  84.2830  84.2830  84.2830  86.1691  87.9862  87.9862
    87.9862  88.2004  88.2004  88.4101  88.4101  88.4101  88.4804  88.9711
    90.0888  90.0888  90.0888  90.1859  90.1859  90.6141  90.6141  90.6141
    91.2444  91.5355  91.5355  91.5355  92.8518  92.8518  92.8518  94.1412
    94.1412  94.1972  94.1972  94.1972  94.9092  96.5539  96.5539  96.5539
    98.9355  98.9355  98.9355 102.0080 102.1840 102.1840 102.1840 104.2667
   104.2667 106.0398 106.7718 106.7718 106.7718 108.4722 108.4722 108.9204
   108.9204 108.9204 109.1708 109.1708 109.1708 109.8497 109.8497 109.8497
   111.8103 111.8103 111.8103 111.8395 111.8395 111.8395 112.5051 112.5286
   112.5286 112.5286 113.3459 113.5011 113.5011 114.1290 114.1290 114.1290
   114.9581 114.9581 114.9581 114.9656 114.9656 114.9656 115.7161 115.7161
   116.8981 116.8981 116.8981 118.9856 119.9025 119.9025 121.2798 121.2798
   121.2798 121.3873 121.3873 121.3873 121.8832 121.8832 121.8832 122.1703
   122.1703 122.1703 122.6970 122.6970 123.4712 123.8177 124.2510 124.2510
   124.2510 124.6292 124.6292 124.6292 124.9062 125.7113 126.5343 126.5343
   126.5343 128.4597 128.4597 128.4597 129.0828 129.0828 129.9824 129.9824
   134.8051 135.0975 135.0975 135.0975 138.5004 138.5004 138.5004 140.7251
   140.7251 140.7251 140.8242 140.8242 140.8242 141.5673 141.5673 141.5673
   142.4316 143.2435 143.2435 143.2435 144.9287 144.9287 145.0407 145.0407
   145.0407 145.9878 145.9878 146.2102 146.2102 146.2102 146.4356 146.4356
   146.8812 146.8812 146.8812 146.8938 146.8938 146.8938 147.1442 147.1442
   147.1442 147.2143 147.2143 147.2143 149.0300 149.0300 149.4733 149.4733
   149.4733 149.5963 149.5963 149.5963 149.7071 150.9357 150.9357 151.4512
   151.4512 151.4512 152.5745 152.6623 152.6623 152.6623 153.1163 153.1163
   153.1163 153.6256 153.6256 153.6256 154.1251 154.8652 154.8652 154.8652
   155.1188 155.1188 155.7086 155.7636 155.7636 155.7636 157.0289 157.0289
   157.0289 157.4421 157.4421 157.5929 157.5929 157.5929 161.9540 161.9901
   161.9901 161.9901 162.2029 162.2029 162.2029 162.5988 162.5988 162.5988
   162.6521 162.6521 163.4455 163.4455 163.4455 165.6119 166.2684 166.2684
   166.2684 168.2413 168.4963 168.4963 169.1318 169.1318 169.1318 169.3536
   169.3536 169.3536 169.5744 169.5744 169.5744 169.8216 169.8216 169.9116
   169.9853 169.9853 169.9853 171.1509 171.1509 171.3128 171.4741 171.4741
   171.4741 172.7817 172.7817 172.7817 173.6258 173.6258 173.6258 174.3349
   174.3349 174.3349 174.4715 174.4715 174.4715 174.5622 174.5622 174.5622
   175.0190 176.7080 176.7080 176.7932 176.7932 176.7932 177.0875 177.3339
   177.3339 177.3339 179.2393 179.2393 179.2393 181.4445 181.4445 181.6219
   181.6219 181.6219 181.9219 183.1277 183.1277 183.1277 183.1623 183.1623
   183.1623 183.2472 183.2472 183.2472 183.3456 183.3456 183.3456 184.0522
   184.1969 184.1969 184.1969 184.2619 184.2619 187.6753 187.6753 188.2835
   188.2835 188.2835 188.7207 188.7207 188.7207 189.5026 189.5026 189.5026
   189.5742 189.5742 189.7065 189.7065 189.7065 195.5873 196.9337 196.9337
   199.9064 199.9064 199.9064 200.1825 200.6433 200.6433 201.0640 201.0640
   201.0640 202.0284 202.0284 202.0284 203.0957 203.0957 203.0957 203.2292
   203.2292 203.2292 203.7798 203.7798 203.7798 203.8376 204.1071 204.1071
   204.2817 204.2817 204.2817 204.3165 204.3165 204.3165 204.6826 205.0997
   205.0997 205.5422 205.5422 205.5422 208.6199 208.6199 208.6199 209.8038
   209.8038 211.3534 212.3139 212.3139 212.3139 212.9883 212.9883 212.9883
   214.0087 214.0087 214.0087 215.1591 215.1591 215.3652 215.8474 215.8474
   215.8474 216.3358 216.3358 216.3358 216.3626 216.3626 216.3626 216.6123
   216.8649 216.9858 216.9858 218.4704 218.4704 218.4704 218.4994 218.4994
   218.4994 220.4874 220.4874 220.4874 220.5647 220.6486 220.6486 220.6486
   221.0268 221.0268 221.0268 221.1616 221.1616 221.3066 221.3066 221.3066
   221.3251 221.3251 221.3251 221.3265 221.3265 221.3265 221.5031 221.6364
   221.6364 221.6364 223.1708 223.1708 223.1708 225.5437 225.6507 225.6507
   225.8323 225.8323 225.8323 226.1622 226.1622 226.1622 226.1948 226.1948
   226.1948 226.5553 226.5553 227.1807 227.4639 227.4639 227.4912 227.4912
   227.4912 227.5214 227.5214 227.5214 227.5375 227.5375 227.5375 227.5694
   228.0791 228.0791 228.0791 228.6025 228.6025 228.6362 228.6362 228.6362
   228.6631 229.4310 229.4310 229.4310 229.6871 229.6871 229.6871 230.0765
   230.0765 230.0765 230.4785 230.4785 230.4785 233.4146 233.4146 233.5637
   233.5637 233.5637 233.8245 241.3087 241.4598 241.4598 241.4598 241.5642
   241.5642 241.6173 241.6173 241.6173 242.4677 242.7209 242.7209 242.7209
   242.7868 242.7868 242.7868 242.8132 242.8132 242.8132 243.0274 243.0274
   243.0274 243.2405 243.2405 247.4279 247.7149 247.7149 247.7149 247.7249
   247.7249 247.8293 247.8293 247.8293 248.0729 248.0729 248.0729 248.1329
   248.4956 248.4956 248.4956 248.6890 248.6890 248.6890 248.7921 248.7921
   249.0718 249.0718 249.0718 249.7288 250.1206 250.1206 251.0669 251.0669
   251.0669 251.2356 251.2356 251.2356 251.5926 251.5926 251.5926 252.2101
   252.2101 252.2101 252.7070 252.7070 252.8636 252.8636 252.8636 252.8841
   252.8841 252.8841 253.0031 253.0031 253.0297 253.0297 253.0297 253.1061
   253.1061 253.1061 253.9911 254.6016 254.6016 254.6016 254.8369 254.8369
   254.8369 255.1046 255.1046 255.6114 255.6457 255.6457 255.6457 255.6593
   255.6593 255.6593 255.6895 259.4082 259.4082 259.6400 259.6400 259.6400
   260.2818 261.5649 261.5649 261.5649 261.7239 261.7239 261.7239 261.7886
   261.7886 261.7886 261.8907 261.8907 261.8907 262.8844 262.8844 262.9100
   262.9100 262.9100 262.9603 267.3103 269.0856 269.0856 269.0856 269.6440
   269.6440 269.6440 270.0230 270.0230 270.0230 270.7796 270.7796 271.3801
   271.7607 272.0702 272.0702 272.0702 275.4784 275.4784 275.4784 275.9217
   275.9217 275.9674 275.9674 275.9674 277.6660 279.0717 279.0717 279.0717
   279.4594 280.0219 280.0219 280.0219 280.1809 280.1809 280.1809 280.2840
   280.2840 280.2840 281.1392 281.1392 281.1392 281.1529 281.1529 281.8670
   281.8670 282.5298 282.5298 282.5298 283.3794 283.3794 283.3794 283.5074
   283.5074 283.5074 284.2933 284.8627 284.8627 284.8627 285.0670 285.0670
   285.5975 285.5975 285.5975 285.9911 285.9911 285.9911 286.2713 290.3383
   290.3383 290.3383 290.4981 290.4981 290.4981 290.9209 290.9209 290.9209
   290.9818 290.9818 291.1328 291.2219 291.4697 291.4697 291.4697 291.5644
   291.5644 292.0752 292.0752 292.0752 292.3678 292.3678 292.3678 293.9604
   293.9604 294.1542 294.1542 294.1542 294.1710 294.1710 294.1710 294.5686
   294.5686 294.5686 294.7550 294.7550 294.7550 294.8887 294.8887 295.8398
   295.8398 295.8398 296.0056 298.3438 298.3438 298.7002 299.8676 299.8676
   299.8676 300.2118 300.2118 300.2118 300.2863 300.2863 300.3167 300.3167
   300.3167 300.4183 300.4508 300.4508 300.4508 300.6470 300.6470 300.6470
   301.9893 301.9893 301.9893 302.9449 302.9449 303.5735 303.5735 303.5735
   303.5769 303.5769 303.5880 303.5880 303.5880 303.5900 303.5900 303.5900
   303.6190 303.6901 303.6946 303.6946 303.6946 303.7233 303.7233 303.7233
   303.7872 303.7872 303.9595 303.9595 303.9595 306.2213 306.4527 306.4527
   307.7631 307.7631 307.7631 307.9972 308.2270 308.2270 308.2270 308.6464
   308.6464 308.6464 308.8885 308.8885 308.8885 308.9219 308.9219 308.9219
   308.9434 308.9434 308.9721 309.5539 309.5539 309.5539 309.6487 309.6487
   309.6487 309.8234 309.8234 316.5267 316.5267 316.5267 316.5836 316.5836
   316.5836 316.6042 316.6042 316.6042 317.6495 317.6495 317.6495 320.1096
   320.1096 320.1096 320.2114 321.0328 321.0328 321.0328 321.2035 321.2035
   321.2035 321.3504 321.3504 321.3504 322.3684 322.3684 322.7482 322.7482
   322.7482 322.7662 322.7662 322.7662 323.0775 323.0775 323.2842 324.7211
   324.7378 324.7378 324.7378 324.7799 324.7799 325.5207 325.5207 325.6134
   325.6134 325.6134 325.7154 327.5472 327.5472 327.5472 327.5729 327.5729
   327.5729 327.6037 327.6037 327.6037 327.6644 327.6644 327.6644 330.4244
   330.4244 330.4244 330.4289 330.4490 330.4490 330.7976 330.9716 330.9716
   330.9716 331.0129 331.0129 331.1257 331.2328 331.2328 331.2328 331.3545
   331.5000 331.5000 331.5000 331.5737 331.5737 331.5737 331.6329 331.6329
   331.6329 331.7884 331.7884 331.7884 331.7910 331.8043 331.8043 333.9368
   333.9368 333.9368 336.9487 336.9487 336.9487 341.5066 341.5066 341.5066
   341.8887 341.8887 341.8887 342.6146 343.2433 343.2433 343.4854 343.4854
   343.4854 343.8645 343.8645 343.8645 343.9618 343.9618 343.9618 344.2033
   344.2314 344.2314 344.7911 344.7911 344.7911 344.9582 344.9582 344.9582
   345.3611 346.1652 346.1652 346.4114 346.4114 346.4114 346.6031 346.6031
   346.6031 346.6891 346.6891 346.6891 347.1166 347.3271 347.3271 347.3271
   347.6760 347.6760 347.6760 348.5294 348.5294 348.5294 350.0021 350.0021
   350.0021 350.2806 350.2806 350.3359 350.3359 350.7672 350.7672 350.7672
   351.0862 352.9058 352.9058 352.9058 353.8930 354.4839 354.4839 354.4839
   354.7489 354.7489 354.9191 355.1629 355.1629 355.1629 355.3970 355.3970
   355.5458 355.5458 355.5458 355.5930 355.5930 355.5930 355.7090 355.7090
   355.7090 356.0233 356.0233 356.0233 356.2904 356.2904 356.7349 356.7349
   356.7349 356.9174 356.9174 356.9174 357.0650 357.0650 357.8096 357.8096
   357.8096 357.8977 357.8977 357.8977 358.1581 358.3085 358.3085 358.3085
   358.4356 358.4356 358.4356 358.4543 358.4543 358.4543 358.5680 358.5680
   358.5680 358.6411 358.6411 359.1729 359.1729 359.1854 359.1854 359.1854
   359.2104 359.8068 360.3418 360.3418 360.3418 360.5385 360.5385 360.5385
   360.5426 360.5426 362.1206 362.1206 362.1206 365.0653 365.0653 365.0653
   365.3117 365.3117 365.3117 365.4561 365.4561 365.4561 365.6317 365.8528
   365.8528 367.2070 367.2070 367.2091 367.2091 367.2091 367.2725 367.2725
   367.2725 367.4057 367.4057 367.4057 367.5337 369.1597 369.1625 369.5108
   369.5108 369.5108 369.7723 369.7723 369.7723 369.8224 369.8224 369.8224

          k = 0.0000 0.0000-0.5000 (  4748 PWs)   bands (ev):

   -16.4283  -9.2812  -3.5152  -2.8671  -2.8671   1.7595   2.6716   2.6716
     9.3098  10.4332  11.7007  12.1624  12.3486  12.3486  13.6859  14.9926
    14.9926  15.8566  16.9298  17.1890  20.8253  20.9904  23.7580  23.7580
    24.9068  25.5456  25.5456  26.5551  27.4807  27.4807  27.6560  27.6560
    28.1906  29.2863  29.2863  31.2227  31.5337  31.7111  31.8776  33.1082
    34.6504  34.9078  34.9078  35.1079  37.9024  37.9026  37.9891  37.9891
    39.6834  40.1884  40.9938  40.9938  42.1247  42.3569  42.3569  43.5669
    43.9810  45.0008  45.0008  46.4301  47.0464  47.1816  48.4916  48.4916
    49.3128  50.2591  50.4608  51.0067  51.4371  51.4371  51.8770  51.8770
    51.9721  52.9253  52.9253  53.3212  54.6929  55.1950  55.8322  58.2293
    58.2293  58.8953  59.9853  59.9853  59.9884  59.9884  60.7589  61.2625
    61.3762  61.3762  63.0774  63.0814  64.1980  64.6276  64.6477  65.3890
    65.5926  65.5926  66.7794  67.0373  67.0373  67.3077  68.0464  68.0464
    69.5253  69.8353  70.4342  70.4342  70.5810  70.5810  70.9628  71.2849
    71.9206  72.9444  73.5583  75.5476  75.9791  76.0041  76.0041  77.3297
    77.3297  77.3332  80.3144  80.5555  80.5555  81.1357  81.5763  81.5763
    81.6839  81.9524  83.0154  83.6340  83.8903  83.8903  84.5391  84.5391
    84.9178  84.9257  85.7766  86.1431  86.1708  86.1708  86.2540  87.0348
    88.1030  88.1536  88.1536  88.4196  88.4196  89.2131  89.6304  90.1275
    90.5857  90.5857  91.5825  91.5825  91.8427  92.9932  93.0355  93.4191
    93.8749  94.8132  94.8132  95.0015  95.0015  95.4841  95.8010  95.8010
    95.8130  95.9482  96.0274  96.3376  96.6161  96.6161  96.9805  97.1915
    97.9295  99.7845 100.9041 101.0173 101.1670 101.1670 102.3732 102.3732
   102.6493 102.9156 102.9156 103.1011 103.1011 103.4545 103.8469 103.8622
   103.9670 104.3129 105.6777 106.2767 107.2236 107.2236 108.0123 108.6475
   110.5663 110.5663 110.8336 110.8449 110.8449 111.1606 111.2206 111.2206
   111.3180 111.7568 111.7568 113.7021 113.9636 114.0102 114.0102 114.1128
   114.4437 114.4437 115.5594 116.5637 116.7192 116.7229 116.7366 116.7366
   118.2201 118.2287 118.2287 119.7525 119.7525 120.2402 120.7215 122.0480
   122.1807 123.0512 123.3384 123.6163 125.2566 125.3456 125.4028 125.4028
   125.5603 125.5603 126.4419 126.4419 126.4895 127.1296 127.2109 127.2109
   127.6790 128.2395 128.3285 128.4286 128.4286 129.1833 129.1833 129.6682
   129.7480 129.7928 131.4234 132.4924 132.4924 134.1450 134.1829 134.1829
   135.0872 135.5011 135.5011 135.6504 135.9121 136.4366 136.4554 136.4554
   137.5154 137.8959 137.9570 137.9570 138.1102 138.3107 138.4022 138.4022
   138.4932 138.9662 138.9662 138.9710 138.9710 139.0048 139.4413 139.4548
   139.7575 141.2297 141.5800 142.3769 142.5296 142.6042 142.8986 142.8986
   143.2860 143.2860 143.7090 143.7090 144.0640 144.0640 144.7206 145.0544
   145.3903 145.4095 145.7248 147.2681 147.2681 147.9474 147.9474 148.2324
   148.6504 149.0984 149.0984 149.2955 149.3902 149.4977 149.5122 150.4495
   150.4701 150.4701 150.8081 150.8081 150.9240 151.4397 151.4397 151.5886
   151.5911 152.2271 153.4188 153.9090 153.9090 154.2713 155.0773 155.2299
   155.2299 155.3567 156.1512 156.1512 156.3042 156.6851 157.1802 157.1802
   158.2752 158.7109 159.3989 159.4053 160.6903 161.5870 161.5870 162.5549
   162.5840 162.7142 162.7142 162.9060 163.4127 163.6935 163.8133 163.8133
   164.3037 164.3037 164.6407 164.8153 165.3212 165.3212 165.8957 166.2919
   166.8723 166.8723 167.4825 168.1766 168.1766 168.3772 168.4373 168.4373
   168.9362 169.6451 170.1158 170.9907 171.3679 171.3679 171.6655 172.0246
   172.5122 172.6164 172.6164 173.0308 173.0308 173.3914 174.1422 174.1726
   174.5692 174.5692 174.6607 174.8175 174.8653 174.8899 174.8899 175.1436
   175.2850 175.2897 175.2897 175.4758 175.7287 175.8622 176.4256 176.4256
   177.3746 177.3746 177.6511 179.5541 179.7096 179.7096 180.2144 180.2144
   180.7797 181.9032 181.9032 181.9536 182.1563 184.8095 184.8095 185.6855
   185.8596 186.4499 186.5657 186.6137 186.6288 186.8899 187.1773 187.1773
   187.4271 187.5236 187.5558 187.5558 187.5871 187.5871 188.3785 188.4362
   188.6826 188.7707 188.7707 188.8391 189.1474 189.1474 189.6243 189.7587
   189.7623 189.8451 189.8451 190.3128 190.4631 190.6665 190.6665 191.1339
   191.2101 191.2101 191.3790 191.3861 191.3861 191.4055 191.4055 191.4543
   191.6424 191.7613 192.7964 193.3423 193.9626 193.9626 194.0153 196.6871
   196.6871 196.9788 198.8136 198.8985 199.2449 199.2852 199.5115 199.5115
   199.8284 199.8284 200.4830 200.7431 201.4559 201.4559 201.7478 201.7743
   201.7743 201.7808 201.8018 201.8217 201.8217 201.8565 205.3523 205.6021
   205.6021 205.7624 205.9059 205.9746 206.3257 206.3257 206.5283 206.6216
   206.9925 207.1161 207.1161 207.3639 207.6797 209.7058 210.1445 210.1445
   210.2052 210.2052 212.1040 212.1040 212.4633 212.6762 212.6819 213.2009
   213.2009 213.5318 213.6265 213.6265 214.2391 214.2513 214.3878 214.5508
   214.7138 214.7748 215.0292 215.0292 215.2232 215.5986 215.5986 215.9299
   216.1572 216.1572 217.2901 217.2901 217.3884 217.8496 218.2420 218.4403
   218.4404 219.9056 220.2626 220.2626 220.2685 220.2685 220.3497 220.3497
   220.7801 220.8032 220.8744 220.8744 220.9275 221.1396 221.1396 221.3489
   221.3633 221.4146 221.9434 222.2044 222.3530 222.3530 222.8568 222.8568
   223.2941 224.1049 224.1455 224.2542 224.7907 224.7907 225.5048 225.5048
   225.5327 225.6716 225.8614 226.0474 226.0474 226.1600 228.0302 228.1025
   228.1025 228.1684 229.8399 230.9320 230.9320 230.9416 231.3706 231.5191
   231.5962 231.5962 232.0927 232.1725 232.4043 232.4043 233.8236 234.0247
   234.0247 234.1900 234.1900 234.2420 234.2967 235.7073 235.7297 235.9826
   236.2013 237.0786 237.0786 237.5679 237.5679 237.5849 237.7408 237.8463
   237.8746 237.8746 237.9084 237.9123 237.9687 237.9687 238.3780 238.5913
   239.2555 239.5903 239.5903 239.7084 239.7677 239.7677 240.0053 240.0053
   240.1381 240.2173 240.8154 240.8154 241.1651 241.4359 241.4435 241.6411
   241.6411 241.6752 243.0351 243.8095 243.8095 244.8322 245.0186 245.1026
   245.2972 245.3759 246.7621 246.8851 246.8851 247.3912 247.3912 247.7463
   248.3727 248.8906 249.4815 249.4815 249.7966 249.7966 250.2064 250.2385
   250.2385 250.3525 250.4400 250.5755 250.6008 250.9366 250.9366 251.0680
   251.0680 251.1743 251.2190 251.2470 251.2632 251.2963 251.5718 251.5718
   251.7314 251.7314 251.7922 252.3205 252.9778 253.3203 253.3913 253.6066
   253.6066 253.6922 254.1578 254.1578 254.5020 259.2078 259.4429 259.4429
   259.4550 259.4550 259.8162 259.8672 261.5424 261.7445 262.2954 262.4630
   262.4630 262.4801 262.4834 262.4856 262.4856 262.5845 262.5934 263.2675
   263.6584 263.8667 263.8667 264.8437 264.8437 264.9558 265.1874 265.2299
   265.2299 265.2557 265.2557 265.2683 265.5870 265.7968 265.9185 265.9185
   266.0317 266.0570 266.1690 266.2894 266.2894 266.4497 266.8459 266.8459
   267.1406 267.1406 267.2893 267.2893 267.3552 267.3816 267.5315 267.7916
   268.4995 268.4995 268.5158 268.7940 269.2933 269.2933 269.5030 269.5030
   269.8873 269.9189 270.4606 271.6898 271.6898 271.9811 272.4108 272.6953
   272.6953 274.3510 274.3510 274.3932 274.4019 274.4295 274.4364 275.2272
   275.3804 275.9838 276.0722 276.3214 276.3214 276.6206 276.7190 276.8201
   276.8201 276.8922 277.0394 277.0394 277.0789 277.0789 277.1236 277.4229
   277.5379 277.5379 277.6090 277.6341 277.6687 277.7878 277.7878 277.7908
   278.6692 278.6692 279.4933 279.5289 280.1148 280.1308 280.1308 280.1975
   280.2108 280.2108 280.2263 280.2266 283.8200 284.0208 284.0208 284.1208
   284.1208 284.1890 284.2008 284.4391 288.6388 289.3083 289.7153 289.7275
   290.0015 290.0015 290.2328 290.2328 290.2610 290.2610 290.5995 290.6033
   290.7886 291.0999 291.0999 291.4751 291.7994 291.9107 291.9107 292.5894
   292.8805 293.0535 293.0535 293.1998 294.3142 294.3556 294.5274 294.5274
   294.5299 294.5367 294.5367 294.7085 294.8127 294.8127 295.3504 295.5356
   295.5534 295.5784 296.0948 296.0948 296.1279 296.1279 296.3983 296.5920
   296.5920 297.3511 298.1898 298.4194 298.4194 299.1350 299.2322 299.8250
   299.9434 300.0834 300.0834 300.3329 300.4652 300.4652 300.4805 301.0222
   301.1352 301.1352 301.3287 301.3666 301.4474 301.7994 301.8465 301.8465
   301.9957 302.7830 302.7830 302.7878 303.3695 304.8873 305.1231 305.1231
   305.8561 305.9460 306.2692 306.2692 306.4712 307.0549 307.2337 307.2337
   307.6369 308.1003 308.3257 308.3257 308.4688 308.8498 308.8505 309.1686
   309.1686 309.9289 311.8698 311.8698 312.9628 313.1647 313.2148 313.2148
   313.2737 313.3494 313.4165 313.4165 313.4334 313.4334 313.4994 313.6327
   313.7390 313.7390 314.0414 314.2497 314.2497 314.3490 314.5727 314.9867
   315.4392 316.3395 316.4419 316.4419 316.5964 317.0741 317.5526 317.5526
   317.6391 318.2385 318.2385 318.3486 320.1723 320.1723 320.2128 320.2970
   320.3421 320.5336 320.5336 320.6721 320.6721 320.7496 320.8482 320.8632
   320.8870 320.9027 320.9098 320.9098 321.3434 321.9633 321.9633 322.6897
   322.7579 322.8914 323.0065 323.0065 323.0960 323.0960 323.2773 323.5850
   323.8355 323.8355 323.8955 323.9456 325.3295 325.7756 326.1473 326.1679
   326.1679 326.4157 326.4308 326.4308 327.0324 327.0710 327.0710 327.5551
   327.5551 328.1137 328.3745 328.5935 328.8304 328.8304 328.8419 329.2035
   329.4165 329.6503 329.8330 330.1807 330.2188 330.2188 330.8707 330.9185
   330.9185 331.1501 331.1501 331.4398 331.6363 331.6363 331.6827 331.7709
   331.8896 331.9538 332.1433 332.1433 332.3802 332.3802 332.3865 332.3941
   332.4174 332.6324 332.6324 332.8617 333.8151 333.9585 333.9585 334.0896
   334.9611 334.9611 335.1924 336.1980 336.3317 336.3386 336.5429 336.5429
   336.6495 336.8698 336.8967 336.8967 336.9585 336.9942 336.9942 338.7009
   338.7155 338.7155 338.7532 338.9768 342.7153 342.8919 342.8919 342.9144
   343.0895 343.0895 343.0992 343.2541 343.2541 343.3514 343.3672 343.4549
   343.4549 343.4564 343.7636 344.1085 344.3743 344.5999 344.9829 344.9829
   345.6779 345.6779 345.8493 345.8616 345.8616 345.8833 346.0476 346.0984
   346.1393 346.1393 346.2257 347.1200 347.2035 347.2035 347.2071 347.2200
   347.2915 347.4786 347.7607 347.7607 347.7880 347.7973 347.7973 347.8271
   347.8756 348.1646 348.1790 348.1790 348.2245 348.3422 348.3422 348.5377
   348.5590 349.2798 349.2799 349.2799 349.4745 349.5272 349.6001 349.6001
   349.6404 349.6817 349.6938 349.9287 349.9287 350.0767 350.2114 350.2114
   351.7706 351.8055 351.9102 352.5909 352.5909 357.2368 357.3486 357.4038
   357.4256 357.4256 357.5501 357.6492 357.7284 357.7284 357.8860 357.9410
   357.9410 358.0966 358.1962 358.2071 358.2071 358.2370 358.2370 358.2697
   358.2886 358.3028 358.3886 358.5666 358.9236 359.2558 359.2558 359.3735
   359.3735 359.7549 360.1608 360.7780 361.8678 361.9675 361.9675 362.2136
   362.2136 362.5131 362.5131 362.8682 362.9445 363.0042 363.8055 363.9763
   363.9970 363.9970 364.1268 364.3240 364.3948 364.4300 364.4300 365.5103
   365.5103 365.7215 365.8211 366.1940 366.1940 366.6582 366.9789 366.9789
   367.0561 367.2024 367.2224 367.5499 367.5499 367.8731 367.9926 368.0206
   368.3661 369.4294 369.5627 369.5627 371.5242 371.5242 371.6796 371.6796
   372.5343 372.6304 372.6304 372.8617 372.8617 373.0276 373.1026 373.1359

          k = 0.0000-0.5000-0.5000 (  4780 PWs)   bands (ev):

   -16.3625  -9.1557  -3.7397  -3.7397  -2.7838   2.4695   2.4695   2.8424
     8.8521   8.9245  10.8908  10.8908  14.6840  14.6840  15.0714  15.5910
    17.1209  17.1209  17.3028  19.3274  20.9038  20.9038  21.4549  22.8820
    22.8820  22.9449  23.6144  23.9635  25.8925  28.3807  28.3807  28.7098
    28.8291  28.8291  29.2613  29.4226  30.5720  31.3044  31.6001  33.4281
    34.2957  34.2957  35.6819  38.0447  38.0447  38.0707  38.0707  38.0756
    38.6971  39.3022  39.3022  39.3187  39.3187  42.1865  42.8886  44.1343
    45.1622  46.8642  46.8642  48.5403  48.7869  48.7869  49.0785  49.3940
    50.4347  50.4347  51.2809  52.2428  52.3005  52.3005  53.1201  53.2992
    53.5746  53.5746  54.9289  54.9289  55.5134  55.5475  55.8050  56.1072
    57.9352  58.5175  60.1454  60.1647  60.1647  60.1892  60.4049  60.6849
    60.6849  61.5582  61.6774  61.6774  62.4763  62.4763  63.1359  64.3441
    64.5268  65.5501  65.5501  66.0867  66.2590  67.1178  67.1178  68.3815
    68.3815  69.5094  69.8928  71.4801  71.7363  73.1082  73.5823  73.7688
    73.7688  74.0817  74.5207  74.5207  75.4789  75.8746  76.0103  77.6363
    77.6363  77.6678  77.8621  78.2280  78.5502  79.0368  79.2244  79.2244
    80.0885  80.5318  80.5318  80.6871  80.6871  81.2743  81.3362  81.3362
    83.9801  83.9801  84.4971  85.4163  85.7268  85.8419  85.8419  87.7030
    87.8860  87.8860  88.4113  88.4113  88.4907  88.7157  88.7261  88.9025
    90.7217  90.8013  90.8794  91.4177  91.4177  92.8482  93.2197  93.2197
    93.7778  93.9756  94.2911  94.2911  96.0498  96.2045  96.2045  96.4695
    97.5076  97.7515  98.1128  99.5669  99.5669 100.4320 100.4320 100.4935
   101.1701 101.1701 101.6418 101.6456 101.6624 101.6795 101.9593 103.4542
   103.4542 105.0283 105.6534 106.1505 106.3334 106.3334 106.9674 106.9674
   107.2151 108.1732 108.1841 108.1841 108.8634 108.9632 109.1886 109.1886
   109.3318 109.7813 110.4142 111.0217 111.0217 111.2172 111.3368 111.3368
   112.3146 112.6038 112.6038 113.1346 114.0067 114.2226 114.2226 114.7902
   114.8688 115.1749 115.1749 115.2090 115.2636 115.7564 116.4910 116.4991
   116.4991 117.1715 117.4741 117.4741 119.1612 120.9200 122.3067 122.7643
   122.7643 123.0057 123.0057 123.0487 123.9642 124.0420 124.2555 124.2555
   124.3336 124.4370 125.6482 125.9672 126.7277 127.3397 127.4042 127.4042
   127.6883 127.6883 127.7158 128.0725 128.4386 128.4386 128.6097 129.5323
   129.6722 130.6220 130.6220 130.8741 131.4026 131.4026 131.5771 131.6317
   131.6317 131.6736 131.6896 131.7425 131.7425 132.0722 132.2996 132.7601
   133.3642 133.3642 133.4273 134.9079 136.8837 137.4763 137.4763 139.2456
   139.2456 139.3793 139.4580 139.4870 139.8961 140.0504 140.0504 141.0786
   141.0786 141.3841 141.3841 141.6689 141.9866 142.2693 142.5414 142.6709
   142.6709 143.0411 143.0411 143.2588 145.0174 145.6884 145.6884 145.9320
   145.9800 145.9800 146.2032 146.5858 147.7159 148.0931 148.2244 148.2244
   148.5347 148.5347 148.5530 149.2961 149.2989 149.4093 150.2145 151.0169
   151.4486 151.4486 151.6315 151.6315 152.2188 152.9092 153.1608 153.1608
   154.5895 154.9083 154.9804 155.2214 155.5804 155.5804 156.3691 156.3691
   156.4745 157.1807 157.3352 157.3352 157.3815 157.9924 157.9924 158.5262
   158.5451 159.2132 159.3505 159.3998 159.5219 160.1286 160.1286 160.2637
   160.2637 160.9620 160.9620 161.3304 161.5802 161.8783 162.1949 162.1949
   162.5510 162.5714 164.0695 164.7466 164.7466 165.1516 165.1516 165.5533
   165.6725 165.8136 166.1334 166.1334 168.0964 169.0294 169.0294 169.4394
   169.6373 169.6673 170.2098 170.8371 170.9197 170.9258 170.9258 170.9430
   171.0010 171.0010 171.6936 171.7739 171.7739 172.2122 174.0507 174.5386
   174.5386 175.4781 175.6161 175.9349 175.9349 176.8489 177.4666 177.4666
   177.6516 178.0968 178.0968 178.6713 178.6829 179.4801 180.1293 180.3758
   180.3758 180.6891 180.6891 180.8565 181.3245 181.3245 181.7195 182.1357
   182.2255 182.2588 182.4502 183.1784 183.1784 184.0476 184.0863 184.0863
   185.7627 185.8757 185.8757 186.0935 187.9150 188.1969 188.9126 188.9126
   189.3047 189.4045 189.4045 189.6412 190.2487 190.9238 191.0437 191.0759
   191.0759 191.0767 191.0767 191.4077 191.4658 191.5307 191.5307 191.7369
   191.8494 191.9571 192.1542 192.2168 192.2168 192.6729 192.8421 193.1049
   193.3592 193.3592 193.8015 193.8015 194.0397 194.3635 194.3635 194.5203
   194.5203 194.6845 194.9410 194.9681 195.0246 195.4192 196.2698 196.8359
   197.1156 197.1156 197.3037 197.8154 197.8154 198.3698 198.3698 198.9408
   199.2825 199.4751 199.4751 199.5592 199.6184 199.8934 200.0767 200.0767
   200.2389 200.2499 200.3430 200.3430 200.4149 200.6410 200.9267 201.1301
   201.1301 201.2995 201.2995 201.3617 201.4839 201.6363 204.5216 205.3078
   205.5487 205.5487 205.7148 206.5523 206.7283 206.7283 206.7649 206.7649
   207.9003 207.9613 208.6802 208.9792 208.9792 208.9889 209.0796 209.0796
   209.2373 209.2552 209.2717 210.3933 211.1755 211.1755 211.3718 211.4351
   211.8600 211.9216 212.1459 212.1459 212.5238 213.7668 213.7887 213.7887
   213.7933 213.8315 213.8315 213.9626 213.9655 214.7245 214.8590 214.8590
   216.4786 216.4786 217.1150 217.8191 218.0824 218.2435 218.2435 218.2796
   218.3865 219.4006 219.4006 219.6007 219.6007 220.2370 220.2370 221.0066
   222.3278 223.2531 223.2531 223.7176 223.8891 223.9624 224.2558 224.2558
   225.0000 225.3937 225.6060 225.6807 225.6807 225.6901 225.6901 225.7842
   225.8159 226.4775 226.4775 226.5556 226.6732 226.9436 228.0610 228.0610
   229.4116 229.4116 229.4248 229.4248 229.9482 230.5480 231.0710 233.6068
   234.1290 234.1424 234.7671 234.7671 235.3811 235.5377 235.6201 235.7248
   235.7248 235.8859 235.8859 236.2292 236.2576 236.2838 236.9475 236.9475
   237.2571 237.5934 237.7439 238.1922 238.2184 238.2184 238.4017 238.4017
   238.4362 238.4362 238.4483 238.5842 238.6362 238.6835 238.6835 238.8461
   239.1649 239.1649 239.6102 239.6102 239.9213 239.9373 240.6910 240.8341
   240.8633 241.5270 241.9575 241.9575 242.0504 242.2787 242.2839 242.2839
   242.4385 242.4385 242.4864 242.9909 243.3539 244.1681 244.1681 244.3298
   244.3298 245.4179 245.9799 246.0687 246.2775 246.4235 246.4271 246.4271
   246.4310 246.4310 246.7069 248.4681 249.6227 249.6341 250.7901 250.8108
   250.8108 251.0247 251.0247 251.0567 251.2053 251.3602 251.7008 252.4552
   252.4679 252.4975 252.4975 252.5457 252.5457 253.3125 254.4120 254.4120
   254.5418 255.6645 255.6645 256.1555 256.6676 256.9157 256.9157 257.0572
   257.1229 257.3237 257.3237 257.5319 258.3931 258.3931 258.4036 258.5008
   258.5716 258.7059 258.8153 258.9028 259.2073 259.2073 259.6743 259.6743
   261.3269 261.3269 261.4458 261.7363 261.8777 261.8910 261.8910 261.9274
   261.9274 261.9613 261.9835 262.1582 262.1582 262.2087 262.2184 262.3985
   266.8374 266.8393 266.8512 266.8512 267.2678 267.3216 267.3228 267.3600
   267.3600 268.3548 268.6214 268.6545 268.6545 268.6647 269.0288 269.0288
   269.7171 269.9671 270.2471 270.2471 270.3836 270.3836 270.8063 270.8063
   270.9163 271.1018 271.3213 271.6917 271.8120 272.0838 272.1005 272.1005
   272.4253 272.4253 272.4520 272.4857 272.5754 272.5754 272.7700 272.8288
   272.8751 273.1349 273.1349 273.1806 273.1871 273.2372 273.2372 273.2405
   273.3163 273.8341 274.1112 274.1112 274.1588 274.2129 274.2374 274.7049
   274.9465 274.9465 276.1742 276.1742 278.1358 278.6461 278.6461 278.6544
   279.5709 279.5709 280.0184 280.2134 280.4930 281.3531 281.5303 281.5303
   281.9227 282.1055 282.1422 282.1422 282.1705 283.2796 283.2796 283.2992
   283.5771 283.5771 283.8490 284.0376 284.7496 284.8324 284.8324 285.5493
   285.8432 285.8432 286.0661 286.0730 286.0742 286.1034 286.2115 286.2115
   286.2974 286.6983 286.6983 286.9442 287.3368 287.5382 287.8461 287.8461
   291.2759 291.2795 291.2795 291.4441 291.7829 291.7967 291.9385 291.9385
   292.1054 292.1194 292.1194 292.2832 293.0055 293.0290 293.0290 293.0540
   293.1083 293.7150 293.7150 293.8019 293.8834 293.8834 293.9187 294.4743
   294.8880 295.0907 295.0907 295.3720 295.4303 295.5944 295.6403 295.9684
   296.5314 296.5314 296.6327 296.6327 296.7067 296.7067 296.8564 297.3043
   297.4373 298.5872 299.1669 299.3599 299.3599 299.4763 299.7662 299.7677
   299.7677 299.9184 302.8091 302.9823 303.1696 303.2649 303.2649 303.3273
   303.5295 303.5295 303.5565 305.7944 305.7944 305.8445 305.8553 306.0052
   306.0283 306.0283 306.1255 306.3831 306.5558 306.5558 306.9951 307.3164
   307.4185 307.4579 308.0624 308.0624 308.2026 309.1307 309.2927 309.9480
   309.9480 310.6251 310.6251 310.6992 310.6992 310.9129 311.5098 311.6481
   311.6481 312.2878 312.3918 312.4042 312.5265 312.5265 312.5486 312.7266
   312.7266 312.7324 312.7908 313.2041 313.2041 313.4432 313.4473 313.6024
   313.6024 313.6374 313.6374 313.6709 313.9489 314.1001 314.8474 314.8474
   314.8937 314.9065 315.0163 315.0186 315.0959 315.0959 315.9236 315.9236
   318.8115 318.8115 318.9211 318.9413 318.9464 318.9493 318.9493 319.1950
   319.1950 319.1962 319.1998 319.2604 319.7501 319.7501 320.2245 321.4521
   321.5907 321.6044 321.9940 322.2685 322.2685 322.4720 322.4720 322.7613
   322.7613 322.8309 322.9981 323.1372 323.1641 323.2059 323.2059 323.6600
   325.1188 325.2893 325.2893 325.3904 325.3904 325.5003 325.5168 325.7582
   325.8051 325.8734 325.9710 325.9710 326.1011 326.1016 326.1016 326.1018
   327.5294 327.5294 327.5614 327.5614 327.7437 328.0360 328.1244 328.6344
   328.6344 328.9541 328.9541 329.1243 329.1368 329.3000 329.4796 330.0526
   330.1583 330.3209 330.3494 330.3728 330.3728 330.5676 330.5676 331.2092
   331.9739 332.4909 333.5529 333.5727 334.0830 334.0830 334.6505 334.9329
   335.6625 335.6625 335.6830 335.6830 337.1401 337.1401 337.6181 337.6296
   337.9392 337.9392 338.1074 338.2647 338.6459 339.9455 340.0771 340.1874
   340.1874 341.5430 341.5670 341.8035 341.8035 341.9607 342.0101 342.0136
   342.0136 342.0959 342.0959 342.1187 342.1392 342.1392 342.1492 342.4630
   342.4832 342.4986 342.5108 342.5108 342.6081 342.8669 343.2225 343.2225
   343.6559 343.6559 343.9247 344.4669 344.8591 345.0486 345.0486 345.3426
   345.3741 345.6761 345.6761 345.7577 346.2328 346.2328 346.2967 346.3275
   346.4009 346.8438 346.8438 346.9185 347.0276 347.0276 347.7126 347.9076
   348.8338 349.6351 349.6351 350.1660 350.1660 351.7700 352.8259 352.9152
   353.1749 353.1749 354.4624 355.0375 355.0647 355.1169 355.1169 355.6358
   355.6358 355.8770 356.1981 357.4080 357.4653 357.4653 357.6721 357.7133
   357.8443 357.8940 357.8940 358.1136 358.5163 358.5526 358.6169 358.6169
   358.7112 358.8993 358.8993 359.0575 359.1648 359.1648 359.4774 359.5419
   359.7877 359.8148 359.8148 359.8451 359.8612 360.4043 360.4043 360.7046
   361.1169 361.1169 361.4164 362.9256 363.0489 363.3940 363.5139 363.5139
   363.9914 363.9914 364.0128 364.0626 364.4231 364.4485 364.4485 364.6804
   365.1119 365.2902 365.2902 365.3983 365.8727 366.1391 366.1391 366.4505
   366.4505 366.5619 366.5811 366.6578 367.0738 367.0738 367.2823 367.5561
   367.8223 367.8223 368.3553 368.6930 368.6930 368.7757 368.7757 368.9029
   368.9571 369.0070 369.0284 369.9150 370.6528 370.8667 370.8667 371.7300
   371.7357 372.3124 372.3416 372.3416 373.3160 373.3339 373.3339 373.6513
   373.6702 373.6833 373.6833 373.7010 373.9800 373.9800 374.3679 374.4231

          k =-0.5000-0.5000-0.5000 (  4680 PWs)   bands (ev):

   -16.3005  -9.0794  -3.5139  -3.5139  -3.5139   1.8392   1.8392   1.8392
    11.3286  11.3286  11.3286  13.3737  13.3737  13.3737  15.2917  15.2917
    17.7460  18.5467  19.7902  19.7902  20.6859  20.6859  20.6859  21.4612
    21.4612  21.4612  23.4797  23.4797  23.4797  25.6012  25.6012  25.6012
    28.4646  28.4646  28.4646  30.7259  30.7259  30.7259  32.5162  36.2134
    36.2134  36.2134  38.5069  38.5069  38.5593  38.8437  38.8437  39.2821
    39.2821  39.2821  40.2210  40.2210  40.2210  41.3793  41.3793  41.3793
    44.8952  44.8952  44.8952  48.5786  48.5786  49.5243  49.5243  50.4442
    50.4442  50.4442  50.9981  50.9981  50.9981  51.4192  52.1865  54.4884
    54.4884  54.4884  55.1193  55.1193  55.1193  56.7397  56.7397  56.7397
    57.6090  57.6090  57.6090  58.2400  58.2400  58.2400  59.0374  60.5071
    64.1501  64.1501  64.1501  65.2650  65.2650  65.2650  67.4274  67.4274
    68.1123  68.1123  68.1123  68.8148  68.8148  68.8148  69.2948  69.2948
    69.8038  69.8038  69.8038  70.1501  71.5049  71.5049  71.5049  73.1111
    73.1111  73.1111  74.4766  74.4766  74.8810  74.8810  74.8810  75.4222
    75.4222  75.4222  75.7012  76.3455  76.3455  76.3455  76.8852  77.1781
    77.1781  77.2496  78.3347  78.3347  78.3347  79.0560  79.0560  79.0560
    79.4951  79.9623  79.9623  79.9623  82.3266  82.3266  82.3266  86.5775
    87.5291  87.5291  89.1974  90.2937  90.2937  90.2937  90.7944  90.7944
    90.7944  91.5472  91.5472  91.5472  91.8974  92.4365  92.4365  92.4365
    93.2328  93.2328  95.4677  95.4677  95.4677  97.9913  97.9913 100.3351
   100.3351 100.7347 100.7347 100.7347 102.5619 102.9903 102.9903 102.9903
   104.2784 104.2784 104.2784 105.8091 105.8091 105.9844 105.9844 105.9844
   106.5459 106.5459 106.5459 107.8943 107.8943 107.8943 108.0926 108.2902
   108.2902 108.2902 108.3363 108.3363 108.9036 108.9036 108.9036 108.9638
   108.9638 108.9638 109.1715 109.6939 109.6939 109.6939 110.2955 110.2955
   110.2955 110.5200 114.8396 114.8396 114.8396 115.1723 115.1723 115.1723
   119.0778 119.0778 119.0778 119.2485 119.2485 119.2485 119.2607 119.2607
   119.2607 119.3617 120.2375 120.2375 120.4749 122.1765 122.1765 122.1765
   123.0498 123.0498 123.9834 123.9834 123.9834 124.6530 124.6530 124.6530
   124.9162 124.9162 124.9162 125.3595 125.3595 125.4855 125.4855 126.0115
   126.2245 126.2245 126.2245 126.3039 126.3039 126.3039 126.8990 126.8990
   126.8990 127.9279 127.9279 127.9279 127.9620 127.9620 128.6269 128.6269
   128.6269 128.9189 128.9189 128.9189 128.9704 128.9704 128.9704 129.4592
   129.4592 129.4592 129.9105 129.9105 129.9257 129.9257 129.9257 130.0202
   134.7372 138.4902 138.4902 139.3120 139.3120 139.3120 139.7834 140.2148
   140.2148 140.2148 140.2796 140.2796 140.2796 140.3384 140.3384 140.3384
   141.8302 141.8302 141.9972 141.9972 141.9972 142.0674 142.0674 142.0674
   142.3568 145.7877 149.3686 149.3686 149.3686 149.7547 149.7547 149.7547
   149.8091 149.8091 149.8091 150.4233 150.4233 152.7674 152.7674 152.7674
   153.8983 153.9112 153.9112 155.2837 155.2837 155.2837 155.4308 155.6442
   155.6442 155.6442 156.2169 156.2169 156.2169 156.8706 156.8706 159.2171
   159.2171 159.2171 159.7331 160.6776 160.6776 160.6776 161.0233 161.0233
   161.0233 161.3251 161.4920 161.4920 161.9403 161.9403 161.9403 163.3343
   163.3343 164.0430 164.0430 164.0430 164.3614 164.3614 164.3614 164.4839
   164.4839 164.4839 164.6469 166.1207 166.3235 166.3235 167.3650 167.3650
   167.3650 169.2310 169.2310 169.2310 169.7494 169.7494 169.7494 169.8769
   169.8769 169.8769 170.8780 170.8780 170.8780 171.2821 171.3194 171.3194
   171.3194 172.4940 172.4940 172.8195 173.3608 173.3608 173.9790 173.9790
   173.9790 174.1701 174.1701 174.1701 177.8150 177.8150 177.8150 178.3491
   178.3491 178.3491 178.3833 178.3833 178.3833 178.5281 178.5281 178.5281
   180.5274 180.5274 180.5538 180.5538 180.5538 180.5908 180.5908 180.7079
   180.7079 180.7079 180.7481 180.7481 180.7481 180.9261 180.9261 180.9261
   183.3260 183.3260 183.3260 183.3337 183.3337 183.3337 183.3390 183.3753
   183.7578 186.3758 186.3758 186.3758 187.6722 187.6722 187.6722 188.1692
   188.1692 188.1692 188.2536 188.2536 188.2536 188.3033 188.8645 188.8645
   189.2487 189.2487 191.0381 191.0381 191.0381 192.6150 192.6150 192.6150
   193.0742 193.0742 193.0742 193.8428 195.0220 195.0220 195.1868 195.1868
   195.1868 195.4541 195.6687 196.4602 196.4602 196.4602 197.3582 197.3582
   197.3582 197.7567 197.7567 197.7567 197.7857 197.7857 197.7857 198.0340
   198.0340 198.0340 199.4872 199.4872 199.6629 199.6629 199.6629 199.8773
   203.3669 204.4049 204.4049 204.4049 204.6594 204.6594 204.9503 204.9503
   204.9503 205.1138 205.1138 205.1138 205.5641 205.8164 205.8164 207.2492
   207.2492 207.2492 207.6376 207.6376 207.6376 210.1159 210.1159 210.1159
   210.2801 210.2801 210.2801 210.8944 210.8944 210.9014 210.9014 210.9014
   211.2091 211.2091 211.2091 211.2372 211.2372 211.2372 211.3326 211.3326
   212.3155 212.5107 212.5107 212.5107 213.4781 213.4781 213.7979 213.7979
   213.7979 213.7983 213.7983 213.7983 213.8324 213.8324 213.8324 213.9128
   213.9338 213.9338 214.0306 214.0306 214.0306 214.1448 214.1448 214.1448
   224.1954 225.1858 225.1858 225.1858 225.8552 225.8552 226.0104 226.0104
   226.0104 226.1735 226.1735 226.1735 226.2864 226.2864 226.2989 226.2989
   226.2989 226.6031 226.6031 226.6031 226.6997 226.6997 226.6997 226.7633
   226.7833 226.7833 226.7833 226.9797 226.9921 226.9921 226.9921 227.2430
   227.2430 228.5181 228.5181 228.5181 229.9420 229.9941 229.9941 229.9941
   230.1545 230.1545 230.1831 230.2334 230.2334 230.2334 230.4147 230.4147
   230.4147 230.4208 230.4208 231.0133 231.0133 231.0133 231.1064 231.1064
   231.1064 231.3434 231.3434 231.3434 231.3439 231.3439 231.3439 231.5680
   231.5680 231.5680 231.6011 231.6011 231.6187 233.0061 233.0061 233.0061
   239.3166 239.3166 240.4055 240.7442 240.7442 240.7442 241.2362 241.2362
   241.2362 241.3843 241.3843 241.3843 241.6390 241.6390 241.6390 241.6453
   241.6453 241.6453 241.7639 243.0538 243.0538 243.3634 243.3634 243.3634
   243.4532 244.3044 244.3044 244.3044 245.3050 246.4815 246.4815 246.4815
   247.0783 248.5797 248.5797 249.6182 249.6182 249.6182 250.3886 250.3886
   250.4194 250.4194 250.4194 250.5736 250.5736 250.5736 250.6210 250.6344
   250.6344 250.6344 250.6640 250.6640 250.6640 250.8020 250.8020 250.8020
   250.8629 250.8847 250.8847 250.8847 250.9103 250.9103 253.8619 253.8619
   256.0562 260.0279 260.0279 260.0279 263.8988 263.8988 263.8988 264.0957
   264.0957 264.0957 264.2546 264.2546 264.2546 264.8748 264.8748 264.9122
   264.9122 264.9122 265.0809 265.0809 265.0809 265.4868 265.4868 265.4868
   265.5630 265.5630 265.5630 265.6574 265.6574 265.6574 265.7605 265.7605
   270.0661 270.0661 270.0661 271.1480 271.1480 271.1480 271.7710 271.9024
   271.9024 271.9024 271.9536 272.3510 272.3510 273.2227 273.2227 273.2227
   274.0378 274.0378 274.0378 274.0399 274.0399 274.7795 274.7795 274.7795
   275.3538 275.3538 275.3538 275.5418 275.5418 275.5418 276.8793 276.8793
   276.8793 277.2090 277.6640 277.6640 277.6640 278.0125 278.0125 278.5763
   278.5763 278.5763 278.7199 278.7199 278.8207 280.4220 280.4220 280.4220
   280.7906 280.9134 280.9134 280.9134 281.1656 281.1656 281.1656 281.1818
   281.1818 281.1818 281.1909 281.1909 281.2532 281.2532 281.2532 281.3274
   281.4649 281.6632 281.6632 281.6810 281.6810 281.6810 281.9914 281.9914
   281.9914 282.0146 282.0146 282.0146 282.8196 282.8196 283.1365 283.1365
   283.1365 283.5964 283.5964 283.5964 284.1814 284.1814 284.1814 284.4775
   284.4775 284.9390 285.2622 285.2622 285.2622 285.3457 285.3457 285.3457
   285.5917 285.5917 285.5917 285.8582 285.8582 285.8582 286.4149 286.4149
   286.4407 286.8168 286.8168 286.8168 286.9985 286.9985 286.9985 287.1968
   287.1968 287.1968 287.4441 287.4441 287.6549 287.6549 287.6549 287.8572
   293.2273 293.4596 293.4596 293.4596 293.4618 293.4618 293.5675 293.5675
   293.5675 294.8801 294.8801 294.8801 295.2231 295.2231 295.2231 295.2392
   295.2392 295.3992 295.6543 295.6543 295.6543 295.7273 295.9490 295.9490
   295.9490 295.9523 295.9523 296.1392 296.1392 296.1392 296.8451 296.8451
   296.8451 296.8764 296.8764 296.8764 297.4504 297.4504 297.4504 297.5741
   297.9558 297.9558 297.9558 298.9378 298.9378 298.9378 300.1883 300.1883
   301.9962 301.9962 301.9962 302.1643 302.4922 302.9240 302.9240 302.9240
   302.9252 302.9252 302.9854 302.9854 302.9854 303.0284 303.0284 303.0284
   303.0909 303.1677 303.2167 303.2167 303.2167 303.2401 303.2401 303.2401
   303.2520 303.2520 303.2520 303.4504 303.4504 308.1272 308.1272 308.1272
   313.9521 313.9521 313.9521 314.0940 314.0940 314.1501 314.1501 314.1501
   314.1868 314.2430 314.2430 314.2430 314.2981 314.2981 314.2981 314.4134
   314.4134 314.4134 315.0195 316.0952 316.0952 316.6365 316.6365 316.6365
   316.9443 317.1896 317.1896 317.1896 317.3542 317.3542 317.3542 317.8438
   317.8438 318.0389 318.0389 318.0389 318.3104 318.3104 318.3104 318.3940
   318.3940 318.6631 318.6631 318.6631 318.8088 319.1858 319.1858 319.1858
   325.6932 326.3030 326.3030 326.8813 326.8813 326.8813 327.0607 327.0607
   327.0607 327.4983 327.5105 327.7051 327.7051 327.7051 327.7085 327.7085
   327.7085 327.7428 327.7428 327.7428 327.7729 327.7729 327.8570 327.8570
   327.8570 328.1274 328.1274 328.1274 328.2200 328.2200 328.2200 328.5556
   328.5556 328.6984 328.6984 328.6984 329.2313 329.2313 329.2313 329.3719
   329.5489 329.5489 329.5489 332.3801 332.3801 332.5476 332.5476 332.5476
   337.2644 337.2644 337.2644 337.3664 337.3664 337.3664 337.3808 337.3808
   337.3870 337.3870 337.3870 337.4165 337.4165 337.9329 337.9711 337.9711
   337.9711 338.0151 338.0151 338.0151 338.0152 338.0152 338.0695 338.0695
   338.0695 338.1758 338.1758 338.1758 338.1843 338.2079 338.2079 338.2079
   338.3425 338.3425 338.3425 338.4180 338.4180 338.4180 338.5249 338.5249
   341.0349 341.0349 341.0349 341.0367 341.0490 341.0490 341.0490 341.0672
   344.7286 344.7286 344.7286 344.9391 344.9391 344.9391 345.0953 345.5011
   345.5011 347.4228 348.6513 348.6513 348.6513 348.8157 348.8157 348.8157
   349.0684 349.0684 349.0684 349.2993 349.2993 349.5616 349.6762 349.6762
   349.6762 351.1836 351.1836 351.1836 355.6250 355.6250 356.4926 358.7907
   358.7907 358.7907 359.2424 359.2424 360.1718 360.1718 360.1718 361.9608
   362.1811 362.1811 362.1811 363.1216 363.1216 363.1216 363.3737 363.3737
   363.3737 363.4846 363.4846 363.4846 363.5240 363.9410 363.9410 363.9410
   364.4621 364.4621 364.7568 364.7568 364.7568 364.7613 364.8011 364.9819
   364.9819 364.9819 365.5457 365.5457 365.5457 365.6033 365.6033 365.6033
   365.6387 365.6387 365.8210 367.3475 367.3475 367.3475 367.6998 367.6998
   367.6998 368.1949 368.1949 368.3783 368.3783 368.6685 368.6685 368.6685
   368.6734 368.6734 368.6734 369.1518 369.2103 369.2103 369.2103 369.4432
   369.4432 369.4432 369.6030 369.6030 369.6030 369.8963 369.8963 369.8963
   369.9648 369.9648 369.9648 370.0639 370.0639 370.0639 370.0792 370.0792
   370.3825 370.3825 370.3825 370.3925 370.7444 370.7444 370.7444 370.9330
   370.9330 370.9330 370.9337 370.9572 370.9572 371.0667 371.0667 371.0667
   371.1563 371.2557 371.2557 371.2616 371.2616 371.2616 371.3864 371.3864

     the Fermi energy is     7.8732 ev
     (compare with:     4.0971 eV, computed in scf)

     Writing all to output data dir out/mp-22865.save/
 
     init_run     :      0.05s CPU      0.07s WALL (       1 calls)
     electrons    :    601.96s CPU    648.20s WALL (       1 calls)

     Called by init_run:
     wfcinit      :      0.00s CPU      0.00s WALL (       1 calls)
     potinit      :      0.01s CPU      0.01s WALL (       1 calls)
     hinit0       :      0.01s CPU      0.02s WALL (       1 calls)

     Called by electrons:
     c_bands      :    601.95s CPU    648.20s WALL (       1 calls)
     v_of_rho     :      0.01s CPU      0.01s WALL (       1 calls)

     Called by c_bands:
     init_us_2    :      0.00s CPU      0.00s WALL (       4 calls)
     init_us_2:cp :      0.00s CPU      0.00s WALL (       4 calls)
     cegterg      :    591.15s CPU    636.78s WALL (       4 calls)

     Called by *egterg:
     cdiaghg      :    550.90s CPU    595.95s WALL (      43 calls)
     h_psi        :      9.48s CPU      9.76s WALL (      47 calls)
     g_psi        :      0.08s CPU      0.08s WALL (      39 calls)

     Called by h_psi:
     h_psi:calbec :      0.17s CPU      0.18s WALL (      47 calls)
     vloc_psi     :      9.11s CPU      9.38s WALL (      47 calls)
     add_vuspsi   :      0.13s CPU      0.13s WALL (      47 calls)

     General routines
     calbec       :      0.17s CPU      0.18s WALL (      47 calls)
     fft          :      0.01s CPU      0.02s WALL (      10 calls)
     fftw         :      8.26s CPU      8.50s WALL (   63736 calls)
 
     Parallel routines
 
     PWSCF        :  10m 2.61s CPU  10m49.13s WALL

 
   This run was terminated on:   9:47:10  18Dec2023            

=------------------------------------------------------------------------------=
   JOB DONE.
=------------------------------------------------------------------------------=
