
     Program PWSCF v.7.1 starts on 19Dec2023 at 14:25:10 

     This program is part of the open-source Quantum ESPRESSO suite
     for quantum simulation of materials; please cite
         "P. Giannozzi et al., J. Phys.:Condens. Matter 21 395502 (2009);
         "P. Giannozzi et al., J. Phys.:Condens. Matter 29 465901 (2017);
         "P. Giannozzi et al., J. Chem. Phys. 152 154105 (2020);
          URL http://www.quantum-espresso.org", 
     in publications or presentations arising from this work. More details at
     http://www.quantum-espresso.org/quote

     Parallel version (MPI), running on    24 processors

     MPI processes distributed on     1 nodes
     123175 MiB available memory on the printing compute node when the environment starts
 
     Reading input from pw_mp-22865_scf_k3000_E70.in
Warning: card &CELL ignored
Warning: card / ignored

     Current dimensions of program PWSCF are:
     Max number of different atomic species (ntypx) = 10
     Max number of k-points (npk) =  40000
     Max angular momentum in pseudopotentials (lmaxx) =  4
 
     K-points division:     npool     =       2
     R & G space division:  proc/nbgrp/npool/nimage =      12
     Subspace diagonalization in iterative solution of the eigenvalue problem:
     a serial algorithm will be used

 
     Parallelization info
     --------------------
     sticks:   dense  smooth     PW     G-vecs:    dense   smooth      PW
     Min         113     113     33                 3165     3165     501
     Max         114     114     34                 3168     3168     504
     Sum        1361    1361    401                37993    37993    6031
 
     Using Slab Decomposition
 


     bravais-lattice index     =            1
     lattice parameter (alat)  =       7.8305  a.u.
     unit-cell volume          =     480.1323 (a.u.)^3
     number of atoms/cell      =            2
     number of atomic types    =            2
     number of electrons       =        16.00
     number of Kohn-Sham states=           16
     kinetic-energy cutoff     =      70.0000  Ry
     charge density cutoff     =     280.0000  Ry
     scf convergence threshold =      1.0E-10
     mixing beta               =       0.7000
     number of iterations used =            8  plain     mixing
     Exchange-correlation= PBE
                           (   1   4   3   4   0   0   0)

     celldm(1)=   7.830454  celldm(2)=   0.000000  celldm(3)=   0.000000
     celldm(4)=   0.000000  celldm(5)=   0.000000  celldm(6)=   0.000000

     crystal axes: (cart. coord. in units of alat)
               a(1) = (   1.000000   0.000000   0.000000 )  
               a(2) = (   0.000000   1.000000   0.000000 )  
               a(3) = (   0.000000   0.000000   1.000000 )  

     reciprocal axes: (cart. coord. in units 2 pi/alat)
               b(1) = (  1.000000  0.000000  0.000000 )  
               b(2) = (  0.000000  1.000000  0.000000 )  
               b(3) = (  0.000000  0.000000  1.000000 )  


     PseudoPot. # 1 for Cl read from file:
     /usr/scratch4/magr4985/MG/HTDF/pseudo/SG15/Cl.upf
     MD5 check sum: 0f993535b366f580ecbcdacce103c843
     Pseudo is Norm-conserving, Zval =  7.0
     Generated using ONCVPSP code by D. R. Hamann
     Using radial grid of  602 points,  4 beta functions with: 
                l(1) =   0
                l(2) =   0
                l(3) =   1
                l(4) =   1

     PseudoPot. # 2 for Cs read from file:
     /usr/scratch4/magr4985/MG/HTDF/pseudo/SG15/Cs.upf
     MD5 check sum: 74aa1fd125ef9ec93322f365f25225f6
     Pseudo is Norm-conserving, Zval =  9.0
     Generated using ONCVPSP code by D. R. Hamann
     Using radial grid of  602 points,  6 beta functions with: 
                l(1) =   0
                l(2) =   0
                l(3) =   1
                l(4) =   1
                l(5) =   2
                l(6) =   2

     atomic species   valence    mass     pseudopotential
        Cl             7.00    35.45300     Cl( 1.00)
        Cs             9.00   132.90550     Cs( 1.00)

     48 Sym. Ops., with inversion, found



   Cartesian axes

     site n.     atom                  positions (alat units)
         1           Cs  tau(   1) = (   0.0000000   0.0000000   0.0000000  )
         2           Cl  tau(   2) = (   0.5000000   0.5000000   0.5000000  )

     number of k points=    84  Gaussian smearing, width (Ry)=  0.0005
                       cart. coord. in units 2pi/alat
        k(    1) = (   0.0000000   0.0000000   0.0000000), wk =   0.0011574
        k(    2) = (   0.0000000   0.0000000   0.0833333), wk =   0.0069444
        k(    3) = (   0.0000000   0.0000000   0.1666667), wk =   0.0069444
        k(    4) = (   0.0000000   0.0000000   0.2500000), wk =   0.0069444
        k(    5) = (   0.0000000   0.0000000   0.3333333), wk =   0.0069444
        k(    6) = (   0.0000000   0.0000000   0.4166667), wk =   0.0069444
        k(    7) = (   0.0000000   0.0000000  -0.5000000), wk =   0.0034722
        k(    8) = (   0.0000000   0.0833333   0.0833333), wk =   0.0138889
        k(    9) = (   0.0000000   0.0833333   0.1666667), wk =   0.0277778
        k(   10) = (   0.0000000   0.0833333   0.2500000), wk =   0.0277778
        k(   11) = (   0.0000000   0.0833333   0.3333333), wk =   0.0277778
        k(   12) = (   0.0000000   0.0833333   0.4166667), wk =   0.0277778
        k(   13) = (   0.0000000   0.0833333  -0.5000000), wk =   0.0138889
        k(   14) = (   0.0000000   0.1666667   0.1666667), wk =   0.0138889
        k(   15) = (   0.0000000   0.1666667   0.2500000), wk =   0.0277778
        k(   16) = (   0.0000000   0.1666667   0.3333333), wk =   0.0277778
        k(   17) = (   0.0000000   0.1666667   0.4166667), wk =   0.0277778
        k(   18) = (   0.0000000   0.1666667  -0.5000000), wk =   0.0138889
        k(   19) = (   0.0000000   0.2500000   0.2500000), wk =   0.0138889
        k(   20) = (   0.0000000   0.2500000   0.3333333), wk =   0.0277778
        k(   21) = (   0.0000000   0.2500000   0.4166667), wk =   0.0277778
        k(   22) = (   0.0000000   0.2500000  -0.5000000), wk =   0.0138889
        k(   23) = (   0.0000000   0.3333333   0.3333333), wk =   0.0138889
        k(   24) = (   0.0000000   0.3333333   0.4166667), wk =   0.0277778
        k(   25) = (   0.0000000   0.3333333  -0.5000000), wk =   0.0138889
        k(   26) = (   0.0000000   0.4166667   0.4166667), wk =   0.0138889
        k(   27) = (   0.0000000   0.4166667  -0.5000000), wk =   0.0138889
        k(   28) = (   0.0000000  -0.5000000  -0.5000000), wk =   0.0034722
        k(   29) = (   0.0833333   0.0833333   0.0833333), wk =   0.0092593
        k(   30) = (   0.0833333   0.0833333   0.1666667), wk =   0.0277778
        k(   31) = (   0.0833333   0.0833333   0.2500000), wk =   0.0277778
        k(   32) = (   0.0833333   0.0833333   0.3333333), wk =   0.0277778
        k(   33) = (   0.0833333   0.0833333   0.4166667), wk =   0.0277778
        k(   34) = (   0.0833333   0.0833333  -0.5000000), wk =   0.0138889
        k(   35) = (   0.0833333   0.1666667   0.1666667), wk =   0.0277778
        k(   36) = (   0.0833333   0.1666667   0.2500000), wk =   0.0555556
        k(   37) = (   0.0833333   0.1666667   0.3333333), wk =   0.0555556
        k(   38) = (   0.0833333   0.1666667   0.4166667), wk =   0.0555556
        k(   39) = (   0.0833333   0.1666667  -0.5000000), wk =   0.0277778
        k(   40) = (   0.0833333   0.2500000   0.2500000), wk =   0.0277778
        k(   41) = (   0.0833333   0.2500000   0.3333333), wk =   0.0555556
        k(   42) = (   0.0833333   0.2500000   0.4166667), wk =   0.0555556
        k(   43) = (   0.0833333   0.2500000  -0.5000000), wk =   0.0277778
        k(   44) = (   0.0833333   0.3333333   0.3333333), wk =   0.0277778
        k(   45) = (   0.0833333   0.3333333   0.4166667), wk =   0.0555556
        k(   46) = (   0.0833333   0.3333333  -0.5000000), wk =   0.0277778
        k(   47) = (   0.0833333   0.4166667   0.4166667), wk =   0.0277778
        k(   48) = (   0.0833333   0.4166667  -0.5000000), wk =   0.0277778
        k(   49) = (   0.0833333  -0.5000000  -0.5000000), wk =   0.0069444
        k(   50) = (   0.1666667   0.1666667   0.1666667), wk =   0.0092593
        k(   51) = (   0.1666667   0.1666667   0.2500000), wk =   0.0277778
        k(   52) = (   0.1666667   0.1666667   0.3333333), wk =   0.0277778
        k(   53) = (   0.1666667   0.1666667   0.4166667), wk =   0.0277778
        k(   54) = (   0.1666667   0.1666667  -0.5000000), wk =   0.0138889
        k(   55) = (   0.1666667   0.2500000   0.2500000), wk =   0.0277778
        k(   56) = (   0.1666667   0.2500000   0.3333333), wk =   0.0555556
        k(   57) = (   0.1666667   0.2500000   0.4166667), wk =   0.0555556
        k(   58) = (   0.1666667   0.2500000  -0.5000000), wk =   0.0277778
        k(   59) = (   0.1666667   0.3333333   0.3333333), wk =   0.0277778
        k(   60) = (   0.1666667   0.3333333   0.4166667), wk =   0.0555556
        k(   61) = (   0.1666667   0.3333333  -0.5000000), wk =   0.0277778
        k(   62) = (   0.1666667   0.4166667   0.4166667), wk =   0.0277778
        k(   63) = (   0.1666667   0.4166667  -0.5000000), wk =   0.0277778
        k(   64) = (   0.1666667  -0.5000000  -0.5000000), wk =   0.0069444
        k(   65) = (   0.2500000   0.2500000   0.2500000), wk =   0.0092593
        k(   66) = (   0.2500000   0.2500000   0.3333333), wk =   0.0277778
        k(   67) = (   0.2500000   0.2500000   0.4166667), wk =   0.0277778
        k(   68) = (   0.2500000   0.2500000  -0.5000000), wk =   0.0138889
        k(   69) = (   0.2500000   0.3333333   0.3333333), wk =   0.0277778
        k(   70) = (   0.2500000   0.3333333   0.4166667), wk =   0.0555556
        k(   71) = (   0.2500000   0.3333333  -0.5000000), wk =   0.0277778
        k(   72) = (   0.2500000   0.4166667   0.4166667), wk =   0.0277778
        k(   73) = (   0.2500000   0.4166667  -0.5000000), wk =   0.0277778
        k(   74) = (   0.2500000  -0.5000000  -0.5000000), wk =   0.0069444
        k(   75) = (   0.3333333   0.3333333   0.3333333), wk =   0.0092593
        k(   76) = (   0.3333333   0.3333333   0.4166667), wk =   0.0277778
        k(   77) = (   0.3333333   0.3333333  -0.5000000), wk =   0.0138889
        k(   78) = (   0.3333333   0.4166667   0.4166667), wk =   0.0277778
        k(   79) = (   0.3333333   0.4166667  -0.5000000), wk =   0.0277778
        k(   80) = (   0.3333333  -0.5000000  -0.5000000), wk =   0.0069444
        k(   81) = (   0.4166667   0.4166667   0.4166667), wk =   0.0092593
        k(   82) = (   0.4166667   0.4166667  -0.5000000), wk =   0.0138889
        k(   83) = (   0.4166667  -0.5000000  -0.5000000), wk =   0.0069444
        k(   84) = (  -0.5000000  -0.5000000  -0.5000000), wk =   0.0011574

     Dense  grid:    37993 G-vectors     FFT dimensions: (  45,  45,  45)

     Estimated max dynamical RAM per process >       5.35 MB

     Estimated total dynamical RAM >     119.09 MB

     Initial potential from superposition of free atoms

     starting charge      15.6051, renormalised to      16.0000
     Starting wfcs are random

     total cpu time spent up to now is        1.4 secs

     Self-consistent Calculation

     iteration #  1     ecut=    70.00 Ry     beta= 0.70
     Davidson diagonalization with overlap
     ethr =  1.00E-02,  avg # of iterations =  9.4

     Threshold (ethr) on eigenvalues was too large:
     Diagonalizing with lowered threshold

     Davidson diagonalization with overlap
     ethr =  4.08E-04,  avg # of iterations =  2.8

     total cpu time spent up to now is        3.7 secs

     total energy              =     -70.84288856 Ry
     estimated scf accuracy    <       0.06670893 Ry

     iteration #  2     ecut=    70.00 Ry     beta= 0.70
     Davidson diagonalization with overlap
     ethr =  4.17E-04,  avg # of iterations =  3.0

     total cpu time spent up to now is        4.4 secs

     total energy              =     -70.86153513 Ry
     estimated scf accuracy    <       0.01981562 Ry

     iteration #  3     ecut=    70.00 Ry     beta= 0.70
     Davidson diagonalization with overlap
     ethr =  1.24E-04,  avg # of iterations =  2.4

     total cpu time spent up to now is        5.0 secs

     total energy              =     -70.86592476 Ry
     estimated scf accuracy    <       0.00049120 Ry

     iteration #  4     ecut=    70.00 Ry     beta= 0.70
     Davidson diagonalization with overlap
     c_bands:  1 eigenvalues not converged
     c_bands:  1 eigenvalues not converged
     ethr =  3.07E-06,  avg # of iterations =  9.8

     total cpu time spent up to now is        6.1 secs

     total energy              =     -70.86602045 Ry
     estimated scf accuracy    <       0.00001652 Ry

     iteration #  5     ecut=    70.00 Ry     beta= 0.70
     Davidson diagonalization with overlap
     ethr =  1.03E-07,  avg # of iterations =  2.2

     total cpu time spent up to now is        6.7 secs

     total energy              =     -70.86602407 Ry
     estimated scf accuracy    <       0.00000052 Ry

     iteration #  6     ecut=    70.00 Ry     beta= 0.70
     Davidson diagonalization with overlap
     ethr =  3.24E-09,  avg # of iterations =  3.5

     total cpu time spent up to now is        7.4 secs

     total energy              =     -70.86602437 Ry
     estimated scf accuracy    <       0.00000007 Ry

     iteration #  7     ecut=    70.00 Ry     beta= 0.70
     Davidson diagonalization with overlap
     ethr =  4.12E-10,  avg # of iterations =  2.2

     total cpu time spent up to now is        8.0 secs

     total energy              =     -70.86602439 Ry
     estimated scf accuracy    <          3.9E-09 Ry

     iteration #  8     ecut=    70.00 Ry     beta= 0.70
     Davidson diagonalization with overlap
     ethr =  2.43E-11,  avg # of iterations =  3.5

     total cpu time spent up to now is        8.7 secs

     total energy              =     -70.86602439 Ry
     estimated scf accuracy    <          1.4E-10 Ry

     iteration #  9     ecut=    70.00 Ry     beta= 0.70
     Davidson diagonalization with overlap
     ethr =  8.46E-13,  avg # of iterations =  3.3

     total cpu time spent up to now is        9.4 secs

     End of self-consistent calculation

          k = 0.0000 0.0000 0.0000 (  4729 PWs)   bands (ev):

   -16.5051  -9.2411  -3.0011  -3.0011  -3.0011   2.8919   2.8919   2.8919
     8.0930   8.3250   8.3250  12.9099  12.9099  12.9099  16.1380  16.1380

          k = 0.0000 0.0000 0.0833 (  4769 PWs)   bands (ev):

   -16.5000  -9.2433  -3.0404  -2.9925  -2.9925   2.7966   2.8779   2.8779
     8.2602   8.3706   8.4885  12.8416  12.8416  12.9486  15.5781  16.2235

          k = 0.0000 0.0000 0.1667 (  4773 PWs)   bands (ev):

   -16.4862  -9.2498  -3.1438  -2.9686  -2.9686   2.5559   2.8391   2.8391
     8.5043   8.6922   8.9722  12.6843  12.6843  13.0607  14.6270  16.4189

          k = 0.0000 0.0000 0.2500 (  4757 PWs)   bands (ev):

   -16.4671  -9.2593  -3.2764  -2.9355  -2.9355   2.2630   2.7847   2.7847
     8.7136   9.2475   9.7300  12.5238  12.5238  13.2327  13.7093  16.1135

          k = 0.0000 0.0000 0.3333 (  4737 PWs)   bands (ev):

   -16.4478  -9.2698  -3.3999  -2.9016  -2.9016   2.0001   2.7289   2.7289
     8.9693   9.8103  10.6196  12.4136  12.4136  12.9295  13.4351  15.5177

          k = 0.0000 0.0000 0.4167 (  4765 PWs)   bands (ev):

   -16.4335  -9.2781  -3.4850  -2.8764  -2.8764   1.8221   2.6871   2.6871
     9.2060  10.2562  11.3891  12.3616  12.3616  12.3734  13.6122  15.1291

          k = 0.0000 0.0000-0.5000 (  4748 PWs)   bands (ev):

   -16.4283  -9.2812  -3.5152  -2.8671  -2.8671   1.7595   2.6716   2.6716
     9.3098  10.4332  11.7007  12.1624  12.3486  12.3486  13.6859  14.9927

          k = 0.0000 0.0833 0.0833 (  4781 PWs)   bands (ev):

   -16.4950  -9.2449  -3.0563  -3.0105  -2.9840   2.7275   2.8514   2.8656
     8.4078   8.4797   8.5899  12.6935  12.7522  13.0599  15.5383  15.9548

          k = 0.0000 0.0833 0.1667 (  4765 PWs)   bands (ev):

   -16.4813  -9.2495  -3.1525  -3.0028  -2.9607   2.5225   2.8100   2.8314
     8.6176   8.8118   9.0474  12.4928  12.5502  13.1798  14.8258  16.1560

          k = 0.0000 0.0833 0.2500 (  4749 PWs)   bands (ev):

   -16.4624  -9.2565  -3.2864  -2.9809  -2.9283   2.2634   2.7596   2.7833
     8.8236   9.3137   9.7850  12.3285  12.3395  13.2612  14.0086  15.6102

          k = 0.0000 0.0833 0.3333 (  4755 PWs)   bands (ev):

   -16.4432  -9.2643  -3.4120  -2.9582  -2.8953   2.0291   2.7076   2.7337
     9.0673   9.8338  10.6003  12.1845  12.2367  13.2692  13.3519  15.1538

          k = 0.0000 0.0833 0.4167 (  4762 PWs)   bands (ev):

   -16.4291  -9.2707  -3.4987  -2.9416  -2.8707   1.8706   2.6680   2.6964
     9.2891  10.2658  11.1181  12.1536  12.2134  13.0276  13.2075  14.9588

          k = 0.0000 0.0833-0.5000 (  4754 PWs)   bands (ev):

   -16.4239  -9.2731  -3.5294  -2.9355  -2.8616   1.8150   2.6532   2.6825
     9.3850  10.4553  11.1952  12.1641  12.2161  13.0306  13.1656  14.9357

          k = 0.0000 0.1667 0.1667 (  4743 PWs)   bands (ev):

   -16.4679  -9.2489  -3.2023  -3.0659  -2.9389   2.4142   2.7540   2.8099
     8.8261   9.1720   9.3361  12.2048  12.2971  13.2470  14.9864  15.7139

          k = 0.0000 0.1667 0.2500 (  4741 PWs)   bands (ev):

   -16.4495  -9.2488  -3.3199  -3.0942  -2.9087   2.2542   2.7020   2.7791
     9.0308   9.5439   9.9719  11.9801  12.1070  13.1187  14.4091  15.2704

          k = 0.0000 0.1667 0.3333 (  4748 PWs)   bands (ev):

   -16.4308  -9.2494  -3.4468  -3.1049  -2.8779   2.1004   2.6555   2.7467
     9.2288   9.9097  10.6078  11.8654  12.1347  12.8417  13.8642  14.9940

          k = 0.0000 0.1667 0.4167 (  4766 PWs)   bands (ev):

   -16.4171  -9.2503  -3.5368  -3.1110  -2.8550   1.9953   2.6201   2.7219
     9.3869  10.2485  10.7928  11.8615  12.4578  12.5510  13.6855  14.9103

          k = 0.0000 0.1667-0.5000 (  4760 PWs)   bands (ev):

   -16.4120  -9.2508  -3.5689  -3.1133  -2.8466   1.9585   2.6066   2.7127
     9.4495  10.4627  10.6982  11.8934  12.4114  12.5831  13.8527  14.8817

          k = 0.0000 0.2500 0.2500 (  4741 PWs)   bands (ev):

   -16.4317  -9.2386  -3.3915  -3.2139  -2.8815   2.2228   2.6436   2.7723
     9.1598   9.7686  10.4559  11.6815  12.0611  12.7549  14.2721  15.6487

          k = 0.0000 0.2500 0.3333 (  4761 PWs)   bands (ev):

   -16.4138  -9.2289  -3.5002  -3.2874  -2.8539   2.1809   2.5973   2.7642
     9.2338   9.8410  11.0523  11.5048  12.3257  12.3388  14.0941  15.4072

          k = 0.0000 0.2500 0.4167 (  4747 PWs)   bands (ev):

   -16.4005  -9.2222  -3.5907  -3.3254  -2.8334   2.1502   2.5644   2.7574
     9.2880   9.8391  11.3272  11.4701  11.9544  12.9622  14.1460  15.2729

          k = 0.0000 0.2500-0.5000 (  4744 PWs)   bands (ev):

   -16.3957  -9.2197  -3.6242  -3.3379  -2.8258   2.1398   2.5518   2.7547
     9.3128   9.8250  11.3865  11.5163  11.7668  13.2192  14.6358  14.9335

          k = 0.0000 0.3333 0.3333 (  4759 PWs)   bands (ev):

   -16.3965  -9.2085  -3.5702  -3.4417  -2.8296   2.2470   2.5506   2.7813
     9.1488   9.6302  11.2551  11.8348  11.8483  12.6985  14.3278  15.7691

          k = 0.0000 0.3333 0.4167 (  4748 PWs)   bands (ev):

   -16.3838  -9.1935  -3.6472  -3.5229  -2.8116   2.2916   2.5189   2.7935
     9.0958   9.4295  11.1567  11.4777  12.3148  13.4432  14.5991  15.7799

          k = 0.0000 0.3333-0.5000 (  4748 PWs)   bands (ev):

   -16.3791  -9.1880  -3.6812  -3.5456  -2.8049   2.3088   2.5062   2.7980
     9.0930   9.3364  11.1871  11.2861  12.4268  13.9220  15.1010  15.4125

          k = 0.0000 0.4167 0.4167 (  4744 PWs)   bands (ev):

   -16.3715  -9.1723  -3.6951  -3.6536  -2.7954   2.3898   2.4903   2.8205
     8.9551   9.1439  10.9836  11.1472  13.3569  13.8835  15.1059  15.7951

          k = 0.0000 0.4167-0.5000 (  4740 PWs)   bands (ev):

   -16.3670  -9.1644  -3.7239  -3.6889  -2.7895   2.4270   2.4785   2.8304
     8.9175   9.0294  10.9676  10.9906  13.6634  14.4758  15.3372  15.7187

          k = 0.0000-0.5000-0.5000 (  4780 PWs)   bands (ev):

   -16.3625  -9.1557  -3.7397  -3.7397  -2.7838   2.4695   2.4695   2.8424
     8.8521   8.9245  10.8908  10.8908  14.6840  14.6840  15.0714  15.5910

          k = 0.0833 0.0833 0.0833 (  4767 PWs)   bands (ev):

   -16.4901  -9.2458  -3.0472  -3.0472  -2.9849   2.6770   2.8359   2.8359
     8.5574   8.6325   8.6325  12.6070  12.6070  13.1343  15.6771  15.6771

          k = 0.0833 0.0833 0.1667 (  4766 PWs)   bands (ev):

   -16.4765  -9.2487  -3.1541  -3.0221  -2.9767   2.5050   2.7930   2.8006
     8.7567   8.9155   9.1128  12.3801  12.4015  13.1804  15.0053  15.8874

          k = 0.0833 0.0833 0.2500 (  4744 PWs)   bands (ev):

   -16.4577  -9.2534  -3.2924  -2.9872  -2.9647   2.2726   2.7330   2.7720
     8.9499   9.3784   9.8411  12.1661  12.2216  13.1108  14.2661  15.5684

          k = 0.0833 0.0833 0.3333 (  4748 PWs)   bands (ev):

   -16.4387  -9.2588  -3.4213  -2.9534  -2.9515   2.0596   2.6714   2.7438
     9.1830   9.8542  10.6027  11.9452  12.2277  12.9771  13.6530  15.4899

          k = 0.0833 0.0833 0.4167 (  4762 PWs)   bands (ev):

   -16.4248  -9.2634  -3.5102  -2.9457  -2.9249   1.9151   2.6253   2.7216
     9.3950  10.2551  10.9926  11.7588  12.5424  12.9010  13.2670  15.2620

          k = 0.0833 0.0833-0.5000 (  4768 PWs)   bands (ev):

   -16.4196  -9.2652  -3.5417  -2.9431  -2.9150   1.8644   2.6082   2.7131
     9.4866  10.4435  11.0124  11.6760  12.8398  12.8622  13.1403  15.1299

          k = 0.0833 0.1667 0.1667 (  4750 PWs)   bands (ev):

   -16.4632  -9.2469  -3.1921  -3.0824  -2.9752   2.4263   2.7339   2.7652
     8.9951   9.2740   9.3700  12.1164  12.1679  13.0340  15.2046  15.7420

          k = 0.0833 0.1667 0.2500 (  4751 PWs)   bands (ev):

   -16.4449  -9.2450  -3.3159  -3.0976  -2.9590   2.2812   2.6741   2.7445
     9.1948   9.6204  10.0174  11.8882  11.9976  12.7349  14.7433  15.5726

          k = 0.0833 0.1667 0.3333 (  4754 PWs)   bands (ev):

   -16.4264  -9.2439  -3.4489  -3.1010  -2.9362   2.1320   2.6111   2.7412
     9.3884   9.9486  10.6225  11.7216  12.1055  12.4766  14.2074  15.3433

          k = 0.0833 0.1667 0.4167 (  4762 PWs)   bands (ev):

   -16.4128  -9.2434  -3.5425  -3.1052  -2.9164   2.0279   2.5624   2.7413
     9.5455  10.2396  10.7356  11.6252  12.3224  12.6794  13.8953  15.1590

          k = 0.0833 0.1667-0.5000 (  4762 PWs)   bands (ev):

   -16.4077  -9.2434  -3.5758  -3.1073  -2.9086   1.9913   2.5441   2.7413
     9.6086  10.4389  10.6064  11.5910  12.3131  12.9669  13.9016  15.0896

          k = 0.0833 0.2500 0.2500 (  4756 PWs)   bands (ev):

   -16.4272  -9.2340  -3.3798  -3.2200  -2.9374   2.2557   2.6165   2.7234
     9.3371   9.8847  10.4759  11.6237  11.9412  12.3280  14.7917  15.7915

          k = 0.0833 0.2500 0.3333 (  4755 PWs)   bands (ev):

   -16.4094  -9.2233  -3.4931  -3.2861  -2.9127   2.2044   2.5580   2.7311
     9.4119   9.9405  11.0312  11.4588  12.0263  12.2599  14.5169  15.5436

          k = 0.0833 0.2500 0.4167 (  4744 PWs)   bands (ev):

   -16.3963  -9.2158  -3.5887  -3.3178  -2.8931   2.1634   2.5071   2.7497
     9.4615   9.9044  11.1802  11.4175  11.9121  12.9705  14.4206  15.3717

          k = 0.0833 0.2500-0.5000 (  4754 PWs)   bands (ev):

   -16.3914  -9.2131  -3.6240  -3.3283  -2.8856   2.1490   2.4865   2.7581
     9.4848   9.8725  11.1819  11.4202  11.8735  13.3467  14.7183  15.0827

          k = 0.0833 0.3333 0.3333 (  4744 PWs)   bands (ev):

   -16.3923  -9.2028  -3.5573  -3.4404  -2.8879   2.2500   2.5159   2.7341
     9.3333   9.7346  11.2289  11.6570  11.8423  12.6329  14.6367  15.9023

          k = 0.0833 0.3333 0.4167 (  4736 PWs)   bands (ev):

   -16.3796  -9.1877  -3.6378  -3.5142  -2.8690   2.2786   2.4722   2.7531
     9.2779   9.5321  11.1400  11.3834  12.3301  13.3894  14.8206  15.8633

          k = 0.0833 0.3333-0.5000 (  4734 PWs)   bands (ev):

   -16.3750  -9.1822  -3.6739  -3.5335  -2.8620   2.2931   2.4483   2.7638
     9.2722   9.4396  11.1698  11.2274  12.4415  13.9219  15.2026  15.5352

          k = 0.0833 0.4167 0.4167 (  4741 PWs)   bands (ev):

   -16.3674  -9.1669  -3.6813  -3.6435  -2.8511   2.3552   2.4498   2.7583
     9.1447   9.2744  10.9866  11.1307  13.3380  13.8199  15.2465  15.8387

          k = 0.0833 0.4167-0.5000 (  4730 PWs)   bands (ev):

   -16.3629  -9.1592  -3.7116  -3.6753  -2.8444   2.3919   2.4309   2.7620
     9.1091   9.1720  10.9750  10.9916  13.6323  14.4165  15.3803  15.7408

          k = 0.0833-0.5000-0.5000 (  4740 PWs)   bands (ev):

   -16.3584  -9.1507  -3.7256  -3.7256  -2.8380   2.4269   2.4269   2.7600
     9.0498   9.0817  10.9036  10.9036  14.6094  14.6094  15.0853  15.6196

          k = 0.1667 0.1667 0.1667 (  4752 PWs)   bands (ev):

   -16.4502  -9.2417  -3.1638  -3.1638  -3.0333   2.4291   2.6785   2.6785
     9.4678   9.4678   9.5414  11.9133  11.9133  12.5728  15.6648  15.6654

          k = 0.1667 0.1667 0.2500 (  4764 PWs)   bands (ev):

   -16.4323  -9.2349  -3.3113  -3.1243  -3.0670   2.3390   2.6012   2.6647
     9.6160   9.8233  10.1643  11.6971  11.7591  12.1302  15.2736  16.1542

          k = 0.1667 0.1667 0.3333 (  4754 PWs)   bands (ev):

   -16.4142  -9.2287  -3.4572  -3.0931  -3.0837   2.2057   2.5222   2.7050
     9.7871  10.0392  10.6495  11.5236  11.9197  12.0270  14.8004  15.9699

          k = 0.1667 0.1667 0.4167 (  4749 PWs)   bands (ev):

   -16.4009  -9.2245  -3.5591  -3.1121  -3.0534   2.1075   2.4632   2.7410
     9.9339  10.1741  10.5898  11.4109  12.0230  12.7855  14.4506  15.6290

          k = 0.1667 0.1667-0.5000 (  4752 PWs)   bands (ev):

   -16.3960  -9.2231  -3.5953  -3.1193  -3.0421   2.0725   2.4414   2.7544
     9.9940  10.2621  10.4604  11.3703  12.0935  13.2833  14.3235  15.5109

          k = 0.1667 0.2500 0.2500 (  4758 PWs)   bands (ev):

   -16.4150  -9.2213  -3.3475  -3.2390  -3.0821   2.3403   2.5418   2.5978
     9.8481  10.1833  10.5314  11.4955  11.6407  11.6895  15.6385  16.0931

          k = 0.1667 0.2500 0.3333 (  4756 PWs)   bands (ev):

   -16.3975  -9.2079  -3.4764  -3.2800  -3.0668   2.2595   2.4555   2.6453
     9.9221  10.1802  10.9351  11.3655  11.6301  12.0291  15.3353  15.9258

          k = 0.1667 0.2500 0.4167 (  4747 PWs)   bands (ev):

   -16.3846  -9.1983  -3.5844  -3.2971  -3.0487   2.1911   2.3823   2.7026
     9.9405  10.0569  10.9022  11.3085  11.8431  12.9347  15.0779  15.6832

          k = 0.1667 0.2500-0.5000 (  4746 PWs)   bands (ev):

   -16.3799  -9.1949  -3.6237  -3.3035  -3.0409   2.1668   2.3544   2.7246
     9.9599   9.9768  10.8773  11.2944  11.9325  13.4898  15.0914  15.4330

          k = 0.1667 0.3333 0.3333 (  4758 PWs)   bands (ev):

   -16.3806  -9.1871  -3.5214  -3.4373  -3.0414   2.2475   2.4209   2.6182
     9.8603   9.9925  11.1787  11.3606  11.8549  12.3884  15.3818  16.2105

          k = 0.1667 0.3333 0.4167 (  4735 PWs)   bands (ev):

   -16.3682  -9.1718  -3.6131  -3.4893  -3.0205   2.2353   2.3532   2.6442
     9.7634   9.8268  11.1122  11.2451  12.3092  13.2348  15.3754  16.0790

          k = 0.1667 0.3333-0.5000 (  4724 PWs)   bands (ev):

   -16.3636  -9.1661  -3.6540  -3.5001  -3.0124   2.2454   2.3073   2.6603
     9.7044   9.7840  11.1318  11.1591  12.4227  13.8568  15.4261  15.9405

          k = 0.1667 0.4167 0.4167 (  4732 PWs)   bands (ev):

   -16.3560  -9.1521  -3.6430  -3.6158  -2.9982   2.2581   2.3395   2.5995
     9.6095   9.7004  11.0067  11.1232  13.2749  13.6226  15.5964  15.8968

          k = 0.1667 0.4167-0.5000 (  4722 PWs)   bands (ev):

   -16.3516  -9.1448  -3.6775  -3.6375  -2.9899   2.2945   2.3025   2.5864
     9.5541   9.6599  11.0106  11.0129  13.5255  14.2360  15.4424  15.8291

          k = 0.1667-0.5000-0.5000 (  4724 PWs)   bands (ev):

   -16.3472  -9.1369  -3.6864  -3.6864  -2.9815   2.3109   2.3109   2.5497
     9.5065   9.6197  10.9484  10.9484  14.3964  14.3964  15.1237  15.6961

          k = 0.2500 0.2500 0.2500 (  4779 PWs)   bands (ev):

   -16.3981  -9.2040  -3.3023  -3.3023  -3.2308   2.4386   2.4386   2.4496
    10.4312  10.6092  10.6092  11.2725  11.3735  11.3735  16.2536  16.2537

          k = 0.2500 0.2500 0.3333 (  4748 PWs)   bands (ev):

   -16.3811  -9.1868  -3.4616  -3.2725  -3.2556   2.3022   2.3338   2.5429
    10.3000  10.6894  10.8175  11.2978  11.4659  11.8581  16.1093  16.3504

          k = 0.2500 0.2500 0.4167 (  4752 PWs)   bands (ev):

   -16.3686  -9.1742  -3.5816  -3.2938  -3.2206   2.2086   2.2561   2.6091
    10.0854  10.6355  10.7500  11.2662  11.7877  12.9230  15.8716  16.0890

          k = 0.2500 0.2500-0.5000 (  4738 PWs)   bands (ev):

   -16.3639  -9.1696  -3.6246  -3.3015  -3.2075   2.1760   2.2274   2.6326
    10.0044  10.5623  10.7727  11.2591  11.9219  13.5560  15.6058  15.7778

          k = 0.2500 0.3333 0.3333 (  4745 PWs)   bands (ev):

   -16.3646  -9.1654  -3.4709  -3.4342  -3.2387   2.2175   2.2906   2.4905
    10.1904  10.6856  11.1532  11.2879  11.8537  12.0638  16.1903  16.4337

          k = 0.2500 0.3333 0.4167 (  4749 PWs)   bands (ev):

   -16.3524  -9.1497  -3.5821  -3.4524  -3.2151   2.1574   2.2151   2.4946
    10.0658  10.5633  11.1331  11.2668  12.1942  13.0574  15.9157  16.2101

          k = 0.2500 0.3333-0.5000 (  4732 PWs)   bands (ev):

   -16.3479  -9.1440  -3.6270  -3.4546  -3.2054   2.1481   2.1707   2.5003
    10.0256  10.4948  11.1811  11.2073  12.3083  13.7248  15.5512  16.1372

          k = 0.2500 0.4167 0.4167 (  4726 PWs)   bands (ev):

   -16.3405  -9.1316  -3.5890  -3.5775  -3.1890   2.1244   2.1892   2.3999
    10.0541  10.5138  11.0629  11.2209  13.1575  13.3336  15.8837  15.9377

          k = 0.2500 0.4167-0.5000 (  4734 PWs)   bands (ev):

   -16.3361  -9.1249  -3.6299  -3.5843  -3.1787   2.1335   2.1590   2.3642
    10.0626  10.4812  11.0964  11.1123  13.3302  13.9685  15.4572  15.9591

          k = 0.2500-0.5000-0.5000 (  4736 PWs)   bands (ev):

   -16.3317  -9.1179  -3.6312  -3.6312  -3.1681   2.1533   2.1533   2.2901
    10.0870  10.4991  11.0345  11.0345  14.0861  14.0861  15.1777  15.7865

          k = 0.3333 0.3333 0.3333 (  4743 PWs)   bands (ev):

   -16.3484  -9.1436  -3.4376  -3.4186  -3.4186   2.1594   2.1594   2.3948
    10.2503  11.1757  11.1757  11.8240  11.8240  11.9701  16.3853  16.3854

          k = 0.3333 0.3333 0.4167 (  4734 PWs)   bands (ev):

   -16.3365  -9.1274  -3.5544  -3.4304  -3.3792   2.0628   2.1067   2.3368
    10.2846  11.0041  11.2309  11.7716  12.1131  12.9798  15.9902  16.2608

          k = 0.3333 0.3333-0.5000 (  4736 PWs)   bands (ev):

   -16.3321  -9.1215  -3.6002  -3.4305  -3.3644   2.0273   2.0870   2.3164
    10.3182  10.8847  11.2636  11.7409  12.2276  13.6527  15.5404  16.2109

          k = 0.3333 0.4167 0.4167 (  4735 PWs)   bands (ev):

   -16.3248  -9.1110  -3.5387  -3.5329  -3.3692   2.0000   2.0389   2.2059
    10.4609  11.1457  11.1573  11.7906  12.9944  13.0621  15.8298  16.0538

          k = 0.3333 0.4167-0.5000 (  4742 PWs)   bands (ev):

   -16.3205  -9.1049  -3.5808  -3.5294  -3.3573   1.9794   2.0211   2.1491
    10.5616  11.0515  11.2232  11.7272  13.0760  13.7011  15.4527  15.9953

          k = 0.3333-0.5000-0.5000 (  4748 PWs)   bands (ev):

   -16.3162  -9.0988  -3.5737  -3.5737  -3.3452   1.9961   1.9961   2.0551
    10.6860  11.1558  11.1558  11.5928  13.7505  13.7505  15.2337  15.8042

          k = 0.4167 0.4167 0.4167 (  4740 PWs)   bands (ev):

   -16.3132  -9.0957  -3.5149  -3.4904  -3.4904   1.9288   1.9288   2.0519
    10.7781  11.2593  11.2593  12.8357  12.8357  12.9577  15.7882  15.7882

          k = 0.4167 0.4167-0.5000 (  4728 PWs)   bands (ev):

   -16.3089  -9.0900  -3.5439  -3.4958  -3.4745   1.8885   1.9189   1.9809
    10.9491  11.2126  11.3066  12.7663  12.8970  13.5295  15.4233  15.7745

          k = 0.4167-0.5000-0.5000 (  4728 PWs)   bands (ev):

   -16.3047  -9.0846  -3.5302  -3.5302  -3.4694   1.8812   1.8812   1.8954
    11.1502  11.2755  11.2755  12.7307  13.4804  13.4804  15.2759  15.5878

          k =-0.5000-0.5000-0.5000 (  4680 PWs)   bands (ev):

   -16.3005  -9.0794  -3.5139  -3.5139  -3.5139   1.8392   1.8392   1.8392
    11.3286  11.3286  11.3286  13.3737  13.3737  13.3737  15.2917  15.2917

     the Fermi energy is     4.0973 ev

!    total energy              =     -70.86602439 Ry
     estimated scf accuracy    <          6.2E-13 Ry
     smearing contrib. (-TS)   =      -0.00000000 Ry
     internal energy E=F+TS    =     -70.86602439 Ry

     The total energy is F=E-TS. E is the sum of the following terms:
     one-electron contribution =      -8.92177388 Ry
     hartree contribution      =      10.38850917 Ry
     xc contribution           =     -12.32441559 Ry
     ewald contribution        =     -60.00834409 Ry

     convergence has been achieved in   9 iterations

     Writing all to output data dir out/mp-22865.save/
 
     init_run     :      0.61s CPU      0.80s WALL (       1 calls)
     electrons    :      7.26s CPU      8.10s WALL (       1 calls)

     Called by init_run:
     wfcinit      :      0.57s CPU      0.72s WALL (       1 calls)
     potinit      :      0.01s CPU      0.01s WALL (       1 calls)
     hinit0       :      0.01s CPU      0.03s WALL (       1 calls)

     Called by electrons:
     c_bands      :      6.33s CPU      6.94s WALL (      10 calls)
     sum_band     :      0.87s CPU      1.03s WALL (      10 calls)
     v_of_rho     :      0.04s CPU      0.04s WALL (      10 calls)
     mix_rho      :      0.01s CPU      0.02s WALL (      10 calls)

     Called by c_bands:
     init_us_2    :      0.10s CPU      0.11s WALL (     882 calls)
     init_us_2:cp :      0.10s CPU      0.10s WALL (     882 calls)
     cegterg      :      5.52s CPU      5.77s WALL (     420 calls)

     Called by *egterg:
     cdiaghg      :      0.61s CPU      0.63s WALL (    2137 calls)
     h_psi        :      4.90s CPU      5.19s WALL (    2221 calls)
     g_psi        :      0.04s CPU      0.04s WALL (    1759 calls)

     Called by h_psi:
     h_psi:calbec :      0.13s CPU      0.14s WALL (    2221 calls)
     vloc_psi     :      4.66s CPU      4.93s WALL (    2221 calls)
     add_vuspsi   :      0.09s CPU      0.09s WALL (    2221 calls)

     General routines
     calbec       :      0.12s CPU      0.13s WALL (    2221 calls)
     fft          :      0.02s CPU      0.04s WALL (     100 calls)
     ffts         :      0.00s CPU      0.00s WALL (      10 calls)
     fftw         :      4.99s CPU      5.28s WALL (   49404 calls)
     davcio       :      0.08s CPU      0.47s WALL (    1430 calls)
 
     Parallel routines
 
     PWSCF        :      8.36s CPU     10.78s WALL

 
   This run was terminated on:  14:25:21  19Dec2023            

=------------------------------------------------------------------------------=
   JOB DONE.
=------------------------------------------------------------------------------=
