
     Program PWSCF v.7.1 starts on 14Dec2023 at  2:41:30 

     This program is part of the open-source Quantum ESPRESSO suite
     for quantum simulation of materials; please cite
         "P. Giannozzi et al., J. Phys.:Condens. Matter 21 395502 (2009);
         "P. Giannozzi et al., J. Phys.:Condens. Matter 29 465901 (2017);
         "P. Giannozzi et al., J. Chem. Phys. 152 154105 (2020);
          URL http://www.quantum-espresso.org", 
     in publications or presentations arising from this work. More details at
     http://www.quantum-espresso.org/quote

     Parallel version (MPI), running on    24 processors

     MPI processes distributed on     1 nodes
     122504 MiB available memory on the printing compute node when the environment starts
 
     Reading input from pw_mp-1253_scf_k3000_E48.in
Warning: card &CELL ignored
Warning: card / ignored

     Current dimensions of program PWSCF are:
     Max number of different atomic species (ntypx) = 10
     Max number of k-points (npk) =  40000
     Max angular momentum in pseudopotentials (lmaxx) =  4
 
     K-points division:     npool     =       2
     R & G space division:  proc/nbgrp/npool/nimage =      12
     Subspace diagonalization in iterative solution of the eigenvalue problem:
     a serial algorithm will be used

 
     Parallelization info
     --------------------
     sticks:   dense  smooth     PW     G-vecs:    dense   smooth      PW
     Min          87      87     26                 1867     1867     307
     Max          88      88     27                 1870     1870     310
     Sum        1045    1045    313                22419    22419    3695
 
     Using Slab Decomposition
 


     bravais-lattice index     =            2
     lattice parameter (alat)  =      12.5993  a.u.
     unit-cell volume          =     500.0063 (a.u.)^3
     number of atoms/cell      =            2
     number of atomic types    =            2
     number of electrons       =        16.00
     number of Kohn-Sham states=           16
     kinetic-energy cutoff     =      48.0000  Ry
     charge density cutoff     =     192.0000  Ry
     scf convergence threshold =      1.0E-10
     mixing beta               =       0.7000
     number of iterations used =            8  plain     mixing
     Exchange-correlation= PBE
                           (   1   4   3   4   0   0   0)

     celldm(1)=  12.599264  celldm(2)=   0.000000  celldm(3)=   0.000000
     celldm(4)=   0.000000  celldm(5)=   0.000000  celldm(6)=   0.000000

     crystal axes: (cart. coord. in units of alat)
               a(1) = (  -0.500000   0.000000   0.500000 )  
               a(2) = (   0.000000   0.500000   0.500000 )  
               a(3) = (  -0.500000   0.500000   0.000000 )  

     reciprocal axes: (cart. coord. in units 2 pi/alat)
               b(1) = ( -1.000000 -1.000000  1.000000 )  
               b(2) = (  1.000000  1.000000  1.000000 )  
               b(3) = ( -1.000000  1.000000 -1.000000 )  


     PseudoPot. # 1 for Ba read from file:
     /usr/scratch4/magr4985/MG/HTDF/pseudo/SG15/Ba.upf
     MD5 check sum: ac4691792522964bb0504809e83fae44
     Pseudo is Norm-conserving, Zval = 10.0
     Generated using ONCVPSP code by D. R. Hamann
     Using radial grid of  602 points,  8 beta functions with: 
                l(1) =   0
                l(2) =   0
                l(3) =   1
                l(4) =   1
                l(5) =   2
                l(6) =   2
                l(7) =   3
                l(8) =   3

     PseudoPot. # 2 for Se read from file:
     /usr/scratch4/magr4985/MG/HTDF/pseudo/SG15/Se.upf
     MD5 check sum: e78e48a4f5d8ce1f8dc76ec1271f249c
     Pseudo is Norm-conserving, Zval =  6.0
     Generated using ONCVPSP code by D. R. Hamann
     Using radial grid of  602 points,  6 beta functions with: 
                l(1) =   0
                l(2) =   0
                l(3) =   1
                l(4) =   1
                l(5) =   2
                l(6) =   2

     atomic species   valence    mass     pseudopotential
        Ba            10.00   137.32700     Ba( 1.00)
        Se             6.00    78.96000     Se( 1.00)

     48 Sym. Ops., with inversion, found



   Cartesian axes

     site n.     atom                  positions (alat units)
         1           Ba  tau(   1) = (   0.0000000   0.0000000   0.0000000  )
         2           Se  tau(   2) = (  -0.5000000   0.5000000   0.5000000  )

     number of k points=    72  Gaussian smearing, width (Ry)=  0.0005
                       cart. coord. in units 2pi/alat
        k(    1) = (   0.0000000   0.0000000   0.0000000), wk =   0.0011574
        k(    2) = (  -0.0833333   0.0833333  -0.0833333), wk =   0.0092593
        k(    3) = (  -0.1666667   0.1666667  -0.1666667), wk =   0.0092593
        k(    4) = (  -0.2500000   0.2500000  -0.2500000), wk =   0.0092593
        k(    5) = (  -0.3333333   0.3333333  -0.3333333), wk =   0.0092593
        k(    6) = (  -0.4166667   0.4166667  -0.4166667), wk =   0.0092593
        k(    7) = (   0.5000000  -0.5000000   0.5000000), wk =   0.0046296
        k(    8) = (   0.0000000   0.1666667   0.0000000), wk =   0.0069444
        k(    9) = (  -0.0833333   0.2500000  -0.0833333), wk =   0.0277778
        k(   10) = (  -0.1666667   0.3333333  -0.1666667), wk =   0.0277778
        k(   11) = (  -0.2500000   0.4166667  -0.2500000), wk =   0.0277778
        k(   12) = (  -0.3333333   0.5000000  -0.3333333), wk =   0.0277778
        k(   13) = (   0.5833333  -0.4166667   0.5833333), wk =   0.0277778
        k(   14) = (   0.5000000  -0.3333333   0.5000000), wk =   0.0277778
        k(   15) = (   0.4166667  -0.2500000   0.4166667), wk =   0.0277778
        k(   16) = (   0.3333333  -0.1666667   0.3333333), wk =   0.0277778
        k(   17) = (   0.2500000  -0.0833333   0.2500000), wk =   0.0277778
        k(   18) = (   0.1666667  -0.0000000   0.1666667), wk =   0.0138889
        k(   19) = (   0.0000000   0.3333333   0.0000000), wk =   0.0069444
        k(   20) = (  -0.0833333   0.4166667  -0.0833333), wk =   0.0277778
        k(   21) = (  -0.1666667   0.5000000  -0.1666667), wk =   0.0277778
        k(   22) = (  -0.2500000   0.5833333  -0.2500000), wk =   0.0277778
        k(   23) = (   0.6666667  -0.3333333   0.6666667), wk =   0.0277778
        k(   24) = (   0.5833333  -0.2500000   0.5833333), wk =   0.0277778
        k(   25) = (   0.5000000  -0.1666667   0.5000000), wk =   0.0277778
        k(   26) = (   0.4166667  -0.0833333   0.4166667), wk =   0.0277778
        k(   27) = (   0.3333333   0.0000000   0.3333333), wk =   0.0138889
        k(   28) = (   0.0000000   0.5000000   0.0000000), wk =   0.0069444
        k(   29) = (  -0.0833333   0.5833333  -0.0833333), wk =   0.0277778
        k(   30) = (  -0.1666667   0.6666667  -0.1666667), wk =   0.0277778
        k(   31) = (   0.7500000  -0.2500000   0.7500000), wk =   0.0277778
        k(   32) = (   0.6666667  -0.1666667   0.6666667), wk =   0.0277778
        k(   33) = (   0.5833333  -0.0833333   0.5833333), wk =   0.0277778
        k(   34) = (   0.5000000   0.0000000   0.5000000), wk =   0.0138889
        k(   35) = (   0.0000000   0.6666667   0.0000000), wk =   0.0069444
        k(   36) = (  -0.0833333   0.7500000  -0.0833333), wk =   0.0277778
        k(   37) = (   0.8333333  -0.1666667   0.8333333), wk =   0.0277778
        k(   38) = (   0.7500000  -0.0833333   0.7500000), wk =   0.0277778
        k(   39) = (   0.6666667  -0.0000000   0.6666667), wk =   0.0138889
        k(   40) = (   0.0000000   0.8333333   0.0000000), wk =   0.0069444
        k(   41) = (   0.9166667  -0.0833333   0.9166667), wk =   0.0277778
        k(   42) = (   0.8333333   0.0000000   0.8333333), wk =   0.0138889
        k(   43) = (   0.0000000  -1.0000000   0.0000000), wk =   0.0034722
        k(   44) = (  -0.1666667   0.3333333   0.0000000), wk =   0.0277778
        k(   45) = (  -0.2500000   0.4166667  -0.0833333), wk =   0.0555556
        k(   46) = (  -0.3333333   0.5000000  -0.1666667), wk =   0.0555556
        k(   47) = (   0.5833333  -0.4166667   0.7500000), wk =   0.0555556
        k(   48) = (   0.5000000  -0.3333333   0.6666667), wk =   0.0277778
        k(   49) = (  -0.1666667   0.5000000   0.0000000), wk =   0.0277778
        k(   50) = (  -0.2500000   0.5833333  -0.0833333), wk =   0.0555556
        k(   51) = (   0.6666667  -0.3333333   0.8333333), wk =   0.0555556
        k(   52) = (   0.5833333  -0.2500000   0.7500000), wk =   0.0555556
        k(   53) = (   0.5000000  -0.1666667   0.6666667), wk =   0.0555556
        k(   54) = (   0.4166667  -0.0833333   0.5833333), wk =   0.0555556
        k(   55) = (   0.3333333   0.0000000   0.5000000), wk =   0.0277778
        k(   56) = (  -0.1666667   0.6666667  -0.0000000), wk =   0.0277778
        k(   57) = (   0.7500000  -0.2500000   0.9166667), wk =   0.0555556
        k(   58) = (   0.6666667  -0.1666667   0.8333333), wk =   0.0555556
        k(   59) = (   0.5833333  -0.0833333   0.7500000), wk =   0.0555556
        k(   60) = (   0.5000000   0.0000000   0.6666667), wk =   0.0277778
        k(   61) = (   0.8333333  -0.1666667   1.0000000), wk =   0.0277778
        k(   62) = (   0.7500000  -0.0833333   0.9166667), wk =   0.0555556
        k(   63) = (   0.6666667   0.0000000   0.8333333), wk =   0.0277778
        k(   64) = (  -0.1666667  -1.0000000  -0.0000000), wk =   0.0138889
        k(   65) = (   0.6666667  -0.3333333   1.0000000), wk =   0.0277778
        k(   66) = (   0.5833333  -0.2500000   0.9166667), wk =   0.0555556
        k(   67) = (   0.5000000  -0.1666667   0.8333333), wk =   0.0277778
        k(   68) = (   0.6666667  -0.1666667   1.0000000), wk =   0.0277778
        k(   69) = (   0.5833333  -0.0833333   0.9166667), wk =   0.0555556
        k(   70) = (   0.5000000   0.0000000   0.8333333), wk =   0.0277778
        k(   71) = (  -0.3333333  -1.0000000   0.0000000), wk =   0.0138889
        k(   72) = (  -0.5000000  -1.0000000   0.0000000), wk =   0.0069444

     Dense  grid:    22419 G-vectors     FFT dimensions: (  40,  40,  40)

     Estimated max dynamical RAM per process >       7.14 MB

     Estimated total dynamical RAM >     165.83 MB

     Initial potential from superposition of free atoms

     starting charge      15.5903, renormalised to      16.0000

     negative rho (up, down):  6.421E-07 0.000E+00
     Starting wfcs are random

     total cpu time spent up to now is        0.2 secs

     Self-consistent Calculation

     iteration #  1     ecut=    48.00 Ry     beta= 0.70
     Davidson diagonalization with overlap
     ethr =  1.00E-02,  avg # of iterations =  8.4

     total cpu time spent up to now is        1.1 secs

     total energy              =     -70.60600094 Ry
     estimated scf accuracy    <       0.17609104 Ry

     iteration #  2     ecut=    48.00 Ry     beta= 0.70
     Davidson diagonalization with overlap
     ethr =  1.10E-03,  avg # of iterations =  6.0

     total cpu time spent up to now is        1.7 secs

     total energy              =     -70.65901873 Ry
     estimated scf accuracy    <       0.08255710 Ry

     iteration #  3     ecut=    48.00 Ry     beta= 0.70
     Davidson diagonalization with overlap
     ethr =  5.16E-04,  avg # of iterations =  2.3

     total cpu time spent up to now is        2.1 secs

     total energy              =     -70.67777146 Ry
     estimated scf accuracy    <       0.00101505 Ry

     iteration #  4     ecut=    48.00 Ry     beta= 0.70
     Davidson diagonalization with overlap
     c_bands:  1 eigenvalues not converged
     c_bands:  1 eigenvalues not converged
     c_bands:  1 eigenvalues not converged
     c_bands:  1 eigenvalues not converged
     c_bands:  1 eigenvalues not converged
     c_bands:  1 eigenvalues not converged
     c_bands:  1 eigenvalues not converged
     c_bands:  2 eigenvalues not converged
     c_bands:  1 eigenvalues not converged
     c_bands:  2 eigenvalues not converged
     ethr =  6.34E-06,  avg # of iterations = 16.7

     total cpu time spent up to now is        3.2 secs

     total energy              =     -70.67888001 Ry
     estimated scf accuracy    <       0.00002394 Ry

     iteration #  5     ecut=    48.00 Ry     beta= 0.70
     Davidson diagonalization with overlap
     c_bands:  1 eigenvalues not converged
     c_bands:  1 eigenvalues not converged
     c_bands:  1 eigenvalues not converged
     ethr =  1.50E-07,  avg # of iterations =  8.6

     total cpu time spent up to now is        3.9 secs

     total energy              =     -70.67889238 Ry
     estimated scf accuracy    <       0.00000062 Ry

     iteration #  6     ecut=    48.00 Ry     beta= 0.70
     Davidson diagonalization with overlap
     c_bands:  1 eigenvalues not converged
     ethr =  3.85E-09,  avg # of iterations =  5.4

     total cpu time spent up to now is        4.5 secs

     total energy              =     -70.67889320 Ry
     estimated scf accuracy    <       0.00000001 Ry

     iteration #  7     ecut=    48.00 Ry     beta= 0.70
     Davidson diagonalization with overlap
     c_bands:  1 eigenvalues not converged
     ethr =  7.77E-11,  avg # of iterations =  5.3

     total cpu time spent up to now is        5.0 secs

     total energy              =     -70.67889322 Ry
     estimated scf accuracy    <          5.4E-10 Ry

     iteration #  8     ecut=    48.00 Ry     beta= 0.70
     Davidson diagonalization with overlap
     ethr =  3.38E-12,  avg # of iterations =  4.8

     total cpu time spent up to now is        5.5 secs

     End of self-consistent calculation

          k = 0.0000 0.0000 0.0000 (  2741 PWs)   bands (ev):

   -21.1028  -6.2139  -6.2139  -6.2139  -5.4423   5.3178   5.3178   5.3178
     8.3008   8.9218   8.9218   8.9218   9.7263   9.7263  12.3130  14.7050

          k =-0.0833 0.0833-0.0833 (  2767 PWs)   bands (ev):

   -21.1011  -6.3276  -6.2155  -6.2155  -5.3210   5.1011   5.2264   5.2264
     8.5665   8.9503   9.0132   9.0132   9.9135   9.9135  12.5080  14.6700

          k =-0.1667 0.1667-0.1667 (  2800 PWs)   bands (ev):

   -21.0964  -6.5486  -6.2199  -6.2199  -5.0785   4.6317   5.0035   5.0035
     8.8560   9.2743   9.2743   9.4035  10.4278  10.4278  12.9929  14.5386

          k =-0.2500 0.2500-0.2500 (  2806 PWs)   bands (ev):

   -21.0901  -6.7662  -6.2258  -6.2258  -4.8308   4.1380   4.7441   4.7441
     9.0271   9.6834   9.6834  10.2296  11.1639  11.1639  13.5121  14.2510

          k =-0.3333 0.3333-0.3333 (  2812 PWs)   bands (ev):

   -21.0837  -6.9395  -6.2317  -6.2317  -4.6263   3.7326   4.5204   4.5204
     9.3389  10.2089  10.2089  10.9016  12.0058  12.0058  13.6988  13.7861

          k =-0.4167 0.4167-0.4167 (  2821 PWs)   bands (ev):

   -21.0790  -7.0497  -6.2360  -6.2360  -4.4924   3.4704   4.3732   4.3732
     9.8004  10.7682  10.7682  10.9455  12.7240  12.7241  13.3457  13.3458

          k = 0.5000-0.5000 0.5000 (  2824 PWs)   bands (ev):

   -21.0773  -7.0874  -6.2376  -6.2376  -4.4458   3.3799   4.3222   4.3222
    10.2177  10.6108  11.0749  11.0749  12.7037  12.7037  13.5790  13.5791

          k = 0.0000 0.1667 0.0000 (  2770 PWs)   bands (ev):

   -21.1005  -6.3427  -6.2226  -6.2226  -5.2926   4.9288   5.2756   5.2756
     8.5932   8.7466   9.1421   9.1421   9.7786  10.1997  12.5650  14.6766

          k =-0.0833 0.2500-0.0833 (  2785 PWs)   bands (ev):

   -21.0969  -6.5021  -6.2317  -6.2255  -5.1180   4.5706   5.1148   5.1583
     8.6594   8.9787   9.4261   9.4271  10.0183  10.8120  12.9377  14.5540

          k =-0.1667 0.3333-0.1667 (  2800 PWs)   bands (ev):

   -21.0911  -6.6998  -6.2403  -6.2285  -4.9019   4.1889   4.8274   4.9357
     8.7306   9.5317   9.8378   9.9265  10.5748  11.5921  13.4388  14.2665

          k =-0.2500 0.4167-0.2500 (  2815 PWs)   bands (ev):

   -21.0847  -6.8739  -6.2463  -6.2356  -4.7062   3.8472   4.5650   4.6932
     8.9737  10.0728  10.3555  10.6022  11.3181  12.3329  13.7127  13.7823

          k =-0.3333 0.5000-0.3333 (  2814 PWs)   bands (ev):

   -21.0795  -6.9971  -6.2479  -6.2450  -4.5634   3.5934   4.3986   4.4924
     9.3870  10.6441  10.8914  10.9248  12.1041  12.7888  13.2819  13.7381

          k = 0.5833-0.4167 0.5833 (  2816 PWs)   bands (ev):

   -21.0768  -7.0560  -6.2542  -6.2448  -4.4926   3.4648   4.3478   4.3687
     9.9051  10.5966  11.1180  11.1698  12.6619  12.9661  13.2977  13.3857

          k = 0.5000-0.3333 0.5000 (  2819 PWs)   bands (ev):

   -21.0773  -7.0452  -6.2604  -6.2378  -4.5031   3.4826   4.3391   4.4109
     9.8666  10.6460  10.7548  11.2945  12.4113  13.1336  13.2356  13.5728

          k = 0.4167-0.2500 0.4167 (  2806 PWs)   bands (ev):

   -21.0810  -6.9660  -6.2616  -6.2288  -4.5941   3.6496   4.4077   4.5745
     9.3969  10.1949  10.8150  10.8393  11.8563  12.7789  13.4875  13.8521

          k = 0.3333-0.1667 0.3333 (  2816 PWs)   bands (ev):

   -21.0868  -6.8266  -6.2570  -6.2201  -4.7545   3.9496   4.5662   4.8100
     9.0594   9.6831  10.1492  10.3398  11.3742  11.9170  13.6507  13.8600

          k = 0.2500-0.0833 0.2500 (  2796 PWs)   bands (ev):

   -21.0932  -6.6443  -6.2468  -6.2141  -4.9618   4.3468   4.7914   5.0608
     8.8954   9.2961   9.4287   9.8076  10.6779  11.0782  13.2794  14.2426

          k = 0.1667-0.0000 0.1667 (  2779 PWs)   bands (ev):

   -21.0984  -6.4542  -6.2316  -6.2124  -5.1766   4.7770   5.0368   5.2282
     8.8646   8.8850   9.0665   9.3638  10.0931  10.3776  12.7923  14.5599

          k = 0.0000 0.3333 0.0000 (  2786 PWs)   bands (ev):

   -21.0944  -6.5391  -6.2462  -6.2462  -5.0641   4.3259   5.1893   5.1893
     8.3586   9.0006   9.7387   9.7387   9.9292  11.5002  13.1460  14.5538

          k =-0.0833 0.4167-0.0833 (  2806 PWs)   bands (ev):

   -21.0896  -6.6527  -6.2596  -6.2550  -4.9508   4.1000   5.0342   5.0815
     8.2661   9.3693  10.1006  10.1426  10.2584  12.2872  13.5261  14.2849

          k =-0.1667 0.5000-0.1667 (  2805 PWs)   bands (ev):

   -21.0838  -6.7859  -6.2683  -6.2636  -4.8212   3.9308   4.7556   4.8861
     8.3963   9.9980  10.5746  10.5929  10.8338  12.8386  13.8374  13.8507

          k =-0.2500 0.5833-0.2500 (  2805 PWs)   bands (ev):

   -21.0786  -6.8969  -6.2792  -6.2701  -4.7060   3.8069   4.5160   4.6741
     8.7258  10.6728  10.9651  11.1007  11.4990  12.7397  13.3613  13.9122

          k = 0.6667-0.3333 0.6667 (  2819 PWs)   bands (ev):

   -21.0754  -6.9650  -6.2985  -6.2644  -4.6254   3.7035   4.4215   4.4994
     9.2279  10.6491  11.2456  11.3860  12.2885  12.9804  13.2068  13.2150

          k = 0.5833-0.2500 0.5833 (  2814 PWs)   bands (ev):

   -21.0749  -6.9815  -6.3143  -6.2527  -4.5928   3.6399   4.3941   4.4811
     9.7746  10.2068  10.8601  11.5046  12.5628  13.1531  13.3306  13.5097

          k = 0.5000-0.1667 0.5000 (  2808 PWs)   bands (ev):

   -21.0774  -6.9466  -6.3196  -6.2382  -4.6161   3.6629   4.3739   4.6423
     9.5481  10.3235  10.4648  11.0806  11.9886  13.4910  13.6089  13.9072

          k = 0.4167-0.0833 0.4167 (  2811 PWs)   bands (ev):

   -21.0822  -6.8676  -6.3095  -6.2247  -4.6952   3.7958   4.4419   4.8435
     9.2229   9.8427  10.0724  10.9452  11.6021  12.7471  13.5785  13.9484

          k = 0.3333 0.0000 0.3333 (  2818 PWs)   bands (ev):

   -21.0880  -6.7595  -6.2830  -6.2159  -4.8193   4.0340   4.5892   5.0103
     9.0255   9.4901   9.5975  10.3730  11.2769  11.8828  13.6658  13.7668

          k = 0.0000 0.5000 0.0000 (  2826 PWs)   bands (ev):

   -21.0860  -6.6545  -6.2785  -6.2785  -4.9684   4.0242   5.1220   5.1220
     7.9496   9.4210  10.1573  10.5645  10.5645  13.0340  13.7583  14.2842

          k =-0.0833 0.5833-0.0833 (  2811 PWs)   bands (ev):

   -21.0813  -6.7042  -6.2939  -6.2919  -4.9499   4.0092   4.9903   5.0403
     7.9001   9.8129  10.4360  10.9919  11.0223  13.3511  13.9387  14.0054

          k =-0.1667 0.6667-0.1667 (  2799 PWs)   bands (ev):

   -21.0767  -6.7695  -6.3191  -6.2964  -4.8970   4.0423   4.7334   4.8754
     8.1057  10.4361  10.9827  11.3122  11.4066  12.9151  13.5356  13.5391

          k = 0.7500-0.2500 0.7500 (  2807 PWs)   bands (ev):

   -21.0734  -6.8253  -6.3553  -6.2908  -4.8222   4.0444   4.5395   4.6875
     8.5210  10.7842  11.4472  11.4841  11.7219  12.7144  13.0380  13.4211

          k = 0.6667-0.1667 0.6667 (  2814 PWs)   bands (ev):

   -21.0724  -6.8632  -6.3851  -6.2766  -4.7462   3.9222   4.5257   4.5551
     9.1076  10.3866  11.0799  11.4143  12.5607  12.7882  13.3386  13.6884

          k = 0.5833-0.0833 0.5833 (  2807 PWs)   bands (ev):

   -21.0739  -6.8832  -6.3892  -6.2575  -4.6907   3.7896   4.4214   4.6752
     9.7517   9.9609  10.5894  10.8873  12.7313  13.3566  13.7868  14.0670

          k = 0.5000 0.0000 0.5000 (  2810 PWs)   bands (ev):

   -21.0775  -6.8857  -6.3606  -6.2385  -4.6716   3.7395   4.3917   4.7903
     9.5287  10.1299  10.1541  10.8439  12.0620  13.4877  13.9748  14.0466

          k = 0.0000 0.6667 0.0000 (  2822 PWs)   bands (ev):

   -21.0778  -6.6599  -6.3107  -6.3107  -5.0567   4.1178   5.0975   5.0975
     7.6190   9.9021  10.4208  11.4018  11.4018  13.5030  13.9381  14.0122

          k =-0.0833 0.7500-0.0833 (  2810 PWs)   bands (ev):

   -21.0742  -6.6533  -6.3377  -6.3198  -5.0965   4.2527   4.9811   5.0369
     7.6348  10.2979  10.6923  11.6618  11.7011  13.0324  13.1968  13.7660

          k = 0.8333-0.1667 0.8333 (  2820 PWs)   bands (ev):

   -21.0715  -6.6641  -6.4007  -6.3170  -5.0483   4.3732   4.7238   4.8888
     7.9199  10.8392  11.2071  11.5251  11.7116  12.3870  13.1460  13.6813

          k = 0.7500-0.0833 0.7500 (  2820 PWs)   bands (ev):

   -21.0705  -6.7032  -6.4564  -6.3029  -4.9368   4.2856   4.6066   4.7071
     8.4135  10.7995  11.3205  11.3892  11.8949  12.3460  13.4785  13.8856

          k = 0.6667-0.0000 0.6667 (  2798 PWs)   bands (ev):

   -21.0714  -6.7899  -6.4460  -6.2812  -4.8056   4.0137   4.5398   4.6570
     9.0687  10.3414  10.9671  11.0064  12.6500  12.9083  13.8233  14.0589

          k = 0.0000 0.8333 0.0000 (  2806 PWs)   bands (ev):

   -21.0718  -6.5884  -6.3342  -6.3342  -5.2397   4.4260   5.1016   5.1016
     7.4091  10.3793  10.6465  11.9321  11.9321  12.5548  13.1011  13.9750

          k = 0.9167-0.0833 0.9167 (  2811 PWs)   bands (ev):

   -21.0701  -6.5551  -6.3865  -6.3359  -5.2498   4.5497   4.9790   5.0468
     7.4974  10.6985  10.8622  11.8139  11.9543  12.1502  13.0526  13.8706

          k = 0.8333 0.0000 0.8333 (  2824 PWs)   bands (ev):

   -21.0697  -6.5296  -6.5131  -6.3245  -5.1251   4.6077   4.6701   4.8980
     7.8566  11.1073  11.3008  11.3274  11.7256  12.0013  13.3534  13.9562

          k = 0.0000-1.0000 0.0000 (  2794 PWs)   bands (ev):

   -21.0696  -6.5385  -6.3428  -6.3428  -5.3383   4.5988   5.1073   5.1073
     7.3375  10.6154  10.7388  12.0638  12.0638  12.0664  12.8228  13.8778

          k =-0.1667 0.3333 0.0000 (  2798 PWs)   bands (ev):

   -21.0926  -6.6234  -6.2561  -6.2258  -4.9789   4.2640   4.9154   5.1307
     8.5836   9.2547   9.6129   9.8971  10.3529  11.5470  13.3094  14.2511

          k =-0.2500 0.4167-0.0833 (  2807 PWs)   bands (ev):

   -21.0869  -6.7679  -6.2767  -6.2294  -4.8201   3.9886   4.6676   4.9642
     8.6848   9.7156   9.9785  10.4180  10.9813  12.3041  13.7007  13.8369

          k =-0.3333 0.5000-0.1667 (  2808 PWs)   bands (ev):

   -21.0811  -6.8942  -6.2879  -6.2387  -4.6838   3.7749   4.4741   4.7378
     8.9560  10.2454  10.5317  10.9559  11.5224  12.7595  13.6195  13.9351

          k = 0.5833-0.4167 0.7500 (  2810 PWs)   bands (ev):

   -21.0769  -6.9782  -6.2908  -6.2498  -4.5938   3.6377   4.3831   4.5361
     9.3917  10.5906  10.8338  11.3263  12.0407  13.2145  13.2952  13.6447

          k = 0.5000-0.3333 0.6667 (  2814 PWs)   bands (ev):

   -21.0753  -7.0074  -6.2903  -6.2554  -4.5625   3.5899   4.3976   4.4186
     9.8124  10.2085  11.1648  11.4510  12.7111  12.9432  13.1424  13.4665

          k =-0.1667 0.5000 0.0000 (  2815 PWs)   bands (ev):

   -21.0849  -6.7212  -6.2895  -6.2583  -4.8915   3.9827   4.8675   5.0509
     8.1985   9.6547  10.4565  10.4748  10.7611  12.9256  13.8273  13.9275

          k =-0.2500 0.5833-0.0833 (  2798 PWs)   bands (ev):

   -21.0797  -6.8004  -6.3128  -6.2678  -4.8193   3.9261   4.6445   4.9051
     8.3660  10.1165  10.8396  11.1072  11.1693  12.8868  13.7829  13.9977

          k = 0.6667-0.3333 0.8333 (  2804 PWs)   bands (ev):

   -21.0755  -6.8658  -6.3284  -6.2810  -4.7509   3.8942   4.4884   4.7113
     8.7270  10.5656  11.1171  11.2702  11.8318  12.9741  13.3872  13.4492

          k = 0.5833-0.2500 0.7500 (  2808 PWs)   bands (ev):

   -21.0734  -6.9033  -6.3441  -6.2825  -4.7004   3.8391   4.4790   4.5416
     9.2513  10.1959  11.3601  11.4789  12.2542  12.9728  13.3219  13.5610

          k = 0.5000-0.1667 0.6667 (  2805 PWs)   bands (ev):

   -21.0739  -6.9081  -6.3547  -6.2698  -4.6790   3.7852   4.4323   4.6005
     9.5612   9.9653  11.0116  11.2326  12.4685  13.2164  13.4910  13.8322

          k = 0.4167-0.0833 0.5833 (  2803 PWs)   bands (ev):

   -21.0770  -6.8823  -6.3480  -6.2516  -4.6935   3.7810   4.4206   4.7652
     9.1469  10.2570  10.6120  10.9294  12.0050  13.2632  13.7771  13.9348

          k = 0.3333 0.0000 0.5000 (  2799 PWs)   bands (ev):

   -21.0817  -6.8325  -6.3197  -6.2362  -4.7438   3.8472   4.5060   4.9087
     8.8421   9.9298  10.2149  11.0136  11.4310  12.7751  13.7622  13.9638

          k =-0.1667 0.6667-0.0000 (  2811 PWs)   bands (ev):

   -21.0772  -6.7126  -6.3229  -6.3031  -4.9725   4.0861   4.8606   5.0149
     7.8849  10.0974  10.7850  11.3304  11.4054  13.1228  13.5863  13.9536

          k = 0.7500-0.2500 0.9167 (  2810 PWs)   bands (ev):

   -21.0735  -6.7314  -6.3563  -6.3204  -4.9468   4.1801   4.6590   4.8875
     8.1268  10.4992  11.1570  11.5703  11.6162  12.8338  13.1539  13.6597

          k = 0.6667-0.1667 0.8333 (  2809 PWs)   bands (ev):

   -21.0714  -6.7561  -6.4025  -6.3177  -4.8828   4.1701   4.5643   4.7149
     8.5697  10.4845  11.2219  11.6543  11.8519  12.7697  13.2797  13.7155

          k = 0.5833-0.0833 0.7500 (  2806 PWs)   bands (ev):

   -21.0714  -6.7943  -6.4241  -6.2995  -4.8048   4.0160   4.5535   4.6386
     9.1752   9.9667  11.1041  11.3505  12.1749  13.3716  13.5953  14.0689

          k = 0.5000 0.0000 0.6667 (  2801 PWs)   bands (ev):

   -21.0734  -6.8433  -6.4013  -6.2744  -4.7363   3.8676   4.4481   4.7261
     9.5014   9.8629  10.7654  10.9479  12.5947  13.3672  13.8956  13.9419

          k = 0.8333-0.1667 1.0000 (  2810 PWs)   bands (ev):

   -21.0716  -6.6169  -6.3637  -6.3473  -5.1365   4.4090   4.8668   5.0103
     7.6864  10.5200  11.0333  11.5868  11.9128  12.4645  13.1693  13.8588

          k = 0.7500-0.0833 0.9167 (  2814 PWs)   bands (ev):

   -21.0700  -6.5946  -6.4502  -6.3481  -5.0748   4.5021   4.6502   4.8894
     8.0025  10.8059  11.0370  11.5601  11.9288  12.2371  13.3575  13.8929

          k = 0.6667 0.0000 0.8333 (  2819 PWs)   bands (ev):

   -21.0700  -6.6604  -6.4785  -6.3289  -4.9483   4.2945   4.6325   4.7202
     8.5158  10.4400  11.1412  11.6561  11.6791  12.8147  13.6086  14.0311

          k =-0.1667-1.0000-0.0000 (  2806 PWs)   bands (ev):

   -21.0696  -6.5257  -6.4252  -6.3562  -5.2215   4.6032   4.8567   5.0126
     7.6191  10.7205  11.1802  11.4646  12.0218  12.0677  13.1453  14.0160

          k = 0.6667-0.3333 1.0000 (  2802 PWs)   bands (ev):

   -21.0755  -6.8047  -6.3562  -6.2872  -4.8135   3.9678   4.5265   4.8552
     8.5737  10.2608  10.9870  11.1501  11.8556  13.0575  13.4724  13.9041

          k = 0.5833-0.2500 0.9167 (  2809 PWs)   bands (ev):

   -21.0725  -6.8013  -6.3839  -6.3143  -4.8069   4.0081   4.5031   4.7340
     8.9580  10.1048  10.9060  11.4815  12.2001  13.2335  13.5535  13.6727

          k = 0.5000-0.1667 0.8333 (  2808 PWs)   bands (ev):

   -21.0714  -6.7986  -6.3923  -6.3278  -4.8040   4.0182   4.5800   4.6074
     9.4235   9.5642  11.2562  11.6443  11.8602  13.2731  13.8572  13.9613

          k = 0.6667-0.1667 1.0000 (  2805 PWs)   bands (ev):

   -21.0711  -6.6872  -6.3828  -6.3780  -4.9518   4.2696   4.5850   4.8387
     8.3974  10.4218  10.8346  11.8549  11.8647  12.7705  13.4991  13.8396

          k = 0.5833-0.0833 0.9167 (  2800 PWs)   bands (ev):

   -21.0699  -6.6671  -6.4375  -6.3824  -4.9188   4.2210   4.6304   4.7282
     8.8526   9.8923  11.0182  11.5572  11.9406  13.4856  13.6225  13.9209

          k = 0.5000 0.0000 0.8333 (  2803 PWs)   bands (ev):

   -21.0705  -6.7188  -6.4309  -6.3562  -4.8658   4.1183   4.5968   4.7036
     9.3650   9.4480  10.9722  11.7666  11.7728  13.7383  13.7837  13.9771

          k =-0.3333-1.0000 0.0000 (  2802 PWs)   bands (ev):

   -21.0695  -6.5550  -6.4904  -6.3925  -5.0208   4.4223   4.6281   4.8367
     8.3372  10.4142  10.8573  11.5216  12.0756  12.8013  13.5066  13.9103

          k =-0.5000-1.0000 0.0000 (  2780 PWs)   bands (ev):

   -21.0694  -6.6092  -6.4417  -6.4417  -4.9300   4.2282   4.6997   4.6997
     9.3142   9.3142  10.9629  11.4062  12.0796  13.7448  13.7455  14.1391

     the Fermi energy is     5.7843 ev

!    total energy              =     -70.67889322 Ry
     estimated scf accuracy    <          6.7E-11 Ry
     smearing contrib. (-TS)   =      -0.00000000 Ry
     internal energy E=F+TS    =     -70.67889322 Ry

     The total energy is F=E-TS. E is the sum of the following terms:
     one-electron contribution =      -8.78336141 Ry
     hartree contribution      =       9.58797204 Ry
     xc contribution           =     -11.61419729 Ry
     ewald contribution        =     -59.86930656 Ry

     convergence has been achieved in   8 iterations

     Writing all to output data dir out/mp-1253.save/
 
     init_run     :      0.13s CPU      0.18s WALL (       1 calls)
     electrons    :      4.85s CPU      5.29s WALL (       1 calls)

     Called by init_run:
     wfcinit      :      0.11s CPU      0.12s WALL (       1 calls)
     potinit      :      0.01s CPU      0.01s WALL (       1 calls)
     hinit0       :      0.01s CPU      0.03s WALL (       1 calls)

     Called by electrons:
     c_bands      :      4.39s CPU      4.73s WALL (       8 calls)
     sum_band     :      0.39s CPU      0.46s WALL (       8 calls)
     v_of_rho     :      0.03s CPU      0.03s WALL (       9 calls)
     mix_rho      :      0.01s CPU      0.02s WALL (       8 calls)

     Called by c_bands:
     init_us_2    :      0.07s CPU      0.08s WALL (     612 calls)
     init_us_2:cp :      0.07s CPU      0.07s WALL (     612 calls)
     cegterg      :      3.61s CPU      3.80s WALL (     288 calls)

     Called by *egterg:
     cdiaghg      :      0.68s CPU      0.71s WALL (    2351 calls)
     h_psi        :      2.66s CPU      2.81s WALL (    2387 calls)
     g_psi        :      0.02s CPU      0.02s WALL (    2063 calls)

     Called by h_psi:
     h_psi:calbec :      0.13s CPU      0.14s WALL (    2387 calls)
     vloc_psi     :      2.41s CPU      2.54s WALL (    2387 calls)
     add_vuspsi   :      0.10s CPU      0.10s WALL (    2387 calls)

     General routines
     calbec       :      0.13s CPU      0.14s WALL (    2387 calls)
     fft          :      0.02s CPU      0.04s WALL (      89 calls)
     ffts         :      0.00s CPU      0.00s WALL (       8 calls)
     fftw         :      2.46s CPU      2.59s WALL (   42032 calls)
     davcio       :      0.04s CPU      0.16s WALL (    1004 calls)
 
     Parallel routines
 
     PWSCF        :      5.06s CPU      5.71s WALL

 
   This run was terminated on:   2:41:36  14Dec2023            

=------------------------------------------------------------------------------=
   JOB DONE.
=------------------------------------------------------------------------------=
