
     Program PWSCF v.7.1 starts on  6Dec2023 at  6:29:12 

     This program is part of the open-source Quantum ESPRESSO suite
     for quantum simulation of materials; please cite
         "P. Giannozzi et al., J. Phys.:Condens. Matter 21 395502 (2009);
         "P. Giannozzi et al., J. Phys.:Condens. Matter 29 465901 (2017);
         "P. Giannozzi et al., J. Chem. Phys. 152 154105 (2020);
          URL http://www.quantum-espresso.org", 
     in publications or presentations arising from this work. More details at
     http://www.quantum-espresso.org/quote

     Parallel version (MPI), running on    24 processors

     MPI processes distributed on     1 nodes
     122836 MiB available memory on the printing compute node when the environment starts
 
     Reading input from pw_mp-611517_scf_k3000_E49.in
Warning: card &CELL ignored
Warning: card / ignored

     Current dimensions of program PWSCF are:
     Max number of different atomic species (ntypx) = 10
     Max number of k-points (npk) =  40000
     Max angular momentum in pseudopotentials (lmaxx) =  4
 
     K-points division:     npool     =       2
     R & G space division:  proc/nbgrp/npool/nimage =      12
     Subspace diagonalization in iterative solution of the eigenvalue problem:
     a serial algorithm will be used

 
     Parallelization info
     --------------------
     sticks:   dense  smooth     PW     G-vecs:    dense   smooth      PW
     Min          85      85     26                 1794     1794     293
     Max          86      86     27                 1797     1797     295
     Sum        1027    1027    313                21547    21547    3527
 
     Using Slab Decomposition
 


     bravais-lattice index     =            2
     lattice parameter (alat)  =      12.2699  a.u.
     unit-cell volume          =     461.8062 (a.u.)^3
     number of atoms/cell      =            1
     number of atomic types    =            1
     number of electrons       =        18.00
     number of Kohn-Sham states=           18
     kinetic-energy cutoff     =      49.0000  Ry
     charge density cutoff     =     196.0000  Ry
     scf convergence threshold =      1.0E-10
     mixing beta               =       0.7000
     number of iterations used =            8  plain     mixing
     Exchange-correlation= PBE
                           (   1   4   3   4   0   0   0)

     celldm(1)=  12.269869  celldm(2)=   0.000000  celldm(3)=   0.000000
     celldm(4)=   0.000000  celldm(5)=   0.000000  celldm(6)=   0.000000

     crystal axes: (cart. coord. in units of alat)
               a(1) = (  -0.500000   0.000000   0.500000 )  
               a(2) = (   0.000000   0.500000   0.500000 )  
               a(3) = (  -0.500000   0.500000   0.000000 )  

     reciprocal axes: (cart. coord. in units 2 pi/alat)
               b(1) = ( -1.000000 -1.000000  1.000000 )  
               b(2) = (  1.000000  1.000000  1.000000 )  
               b(3) = ( -1.000000  1.000000 -1.000000 )  


     PseudoPot. # 1 for Xe read from file:
     /usr/scratch4/magr4985/MG/HTDF/pseudo/SG15/Xe.upf
     MD5 check sum: cc9f462402d923a4ee0779e880a8f0fc
     Pseudo is Norm-conserving, Zval = 18.0
     Generated using ONCVPSP code by D. R. Hamann
     Using radial grid of  602 points,  6 beta functions with: 
                l(1) =   0
                l(2) =   0
                l(3) =   1
                l(4) =   1
                l(5) =   2
                l(6) =   2

     atomic species   valence    mass     pseudopotential
        Xe            18.00   131.29300     Xe( 1.00)

     48 Sym. Ops., with inversion, found



   Cartesian axes

     site n.     atom                  positions (alat units)
         1           Xe  tau(   1) = (   0.0000000   0.0000000   0.0000000  )

     number of k points=   104  Gaussian smearing, width (Ry)=  0.0005

     Number of k-points >= 100: set verbosity='high' to print them.

     Dense  grid:    21547 G-vectors     FFT dimensions: (  40,  40,  40)

     Estimated max dynamical RAM per process >       2.74 MB

     Estimated total dynamical RAM >      60.52 MB

     Initial potential from superposition of free atoms

     starting charge      17.9847, renormalised to      18.0000

     negative rho (up, down):  1.976E-08 0.000E+00
     Starting wfcs are random

     total cpu time spent up to now is        0.8 secs

     Self-consistent Calculation

     iteration #  1     ecut=    49.00 Ry     beta= 0.70
     Davidson diagonalization with overlap
     ethr =  1.00E-02,  avg # of iterations =  8.4

     Threshold (ethr) on eigenvalues was too large:
     Diagonalizing with lowered threshold

     Davidson diagonalization with overlap
     ethr =  4.52E-06,  avg # of iterations =  8.8

     total cpu time spent up to now is        4.2 secs

     total energy              =    -231.79675978 Ry
     estimated scf accuracy    <       0.00019507 Ry

     iteration #  2     ecut=    49.00 Ry     beta= 0.70
     Davidson diagonalization with overlap
     ethr =  1.08E-06,  avg # of iterations =  2.2

     total cpu time spent up to now is        5.1 secs

     total energy              =    -231.79682478 Ry
     estimated scf accuracy    <       0.00001705 Ry

     iteration #  3     ecut=    49.00 Ry     beta= 0.70
     Davidson diagonalization with overlap
     ethr =  9.47E-08,  avg # of iterations =  2.0

     total cpu time spent up to now is        6.0 secs

     total energy              =    -231.79682917 Ry
     estimated scf accuracy    <       0.00000010 Ry

     iteration #  4     ecut=    49.00 Ry     beta= 0.70
     Davidson diagonalization with overlap
     ethr =  5.31E-10,  avg # of iterations =  2.0

     total cpu time spent up to now is        7.0 secs

     total energy              =    -231.79682930 Ry
     estimated scf accuracy    <       0.00000002 Ry

     iteration #  5     ecut=    49.00 Ry     beta= 0.70
     Davidson diagonalization with overlap
     ethr =  9.50E-11,  avg # of iterations =  2.0

     total cpu time spent up to now is        7.8 secs

     total energy              =    -231.79682930 Ry
     estimated scf accuracy    <          3.0E-09 Ry

     iteration #  6     ecut=    49.00 Ry     beta= 0.70
     Davidson diagonalization with overlap
     ethr =  1.68E-11,  avg # of iterations =  2.0

     total cpu time spent up to now is        8.8 secs

     End of self-consistent calculation

     Number of k-points >= 100: set verbosity='high' to print the bands.

     the Fermi energy is     0.4990 ev

!    total energy              =    -231.79682930 Ry
     estimated scf accuracy    <          4.5E-12 Ry
     smearing contrib. (-TS)   =      -0.00000000 Ry
     internal energy E=F+TS    =    -231.79682930 Ry

     The total energy is F=E-TS. E is the sum of the following terms:
     one-electron contribution =    -165.69015877 Ry
     hartree contribution      =      76.61090127 Ry
     xc contribution           =     -21.64901220 Ry
     ewald contribution        =    -121.06855959 Ry

     convergence has been achieved in   6 iterations

     Writing all to output data dir out/mp-611517.save/
 
     init_run     :      0.38s CPU      0.55s WALL (       1 calls)
     electrons    :      6.67s CPU      8.04s WALL (       1 calls)

     Called by init_run:
     wfcinit      :      0.36s CPU      0.50s WALL (       1 calls)
     potinit      :      0.01s CPU      0.01s WALL (       1 calls)
     hinit0       :      0.01s CPU      0.03s WALL (       1 calls)

     Called by electrons:
     c_bands      :      5.38s CPU      6.20s WALL (       7 calls)
     sum_band     :      1.26s CPU      1.73s WALL (       7 calls)
     v_of_rho     :      0.02s CPU      0.02s WALL (       7 calls)
     mix_rho      :      0.01s CPU      0.02s WALL (       7 calls)

     Called by c_bands:
     init_us_2    :      0.04s CPU      0.05s WALL (     780 calls)
     init_us_2:cp :      0.04s CPU      0.04s WALL (     780 calls)
     cegterg      :      3.95s CPU      4.18s WALL (     364 calls)

     Called by *egterg:
     cdiaghg      :      0.64s CPU      0.67s WALL (    1725 calls)
     h_psi        :      3.27s CPU      3.49s WALL (    1829 calls)
     g_psi        :      0.02s CPU      0.02s WALL (    1413 calls)

     Called by h_psi:
     h_psi:calbec :      0.07s CPU      0.08s WALL (    1829 calls)
     vloc_psi     :      3.13s CPU      3.35s WALL (    1829 calls)
     add_vuspsi   :      0.04s CPU      0.04s WALL (    1829 calls)

     General routines
     calbec       :      0.07s CPU      0.07s WALL (    1829 calls)
     fft          :      0.01s CPU      0.03s WALL (      70 calls)
     ffts         :      0.00s CPU      0.00s WALL (       7 calls)
     fftw         :      3.99s CPU      4.29s WALL (   51926 calls)
     davcio       :      0.05s CPU      0.87s WALL (    1234 calls)
 
     Parallel routines
 
     PWSCF        :      7.22s CPU      9.79s WALL

 
   This run was terminated on:   6:29:22   6Dec2023            

=------------------------------------------------------------------------------=
   JOB DONE.
=------------------------------------------------------------------------------=
