
     Program PWSCF v.7.1 starts on  6Dec2023 at  6:29:22 

     This program is part of the open-source Quantum ESPRESSO suite
     for quantum simulation of materials; please cite
         "P. Giannozzi et al., J. Phys.:Condens. Matter 21 395502 (2009);
         "P. Giannozzi et al., J. Phys.:Condens. Matter 29 465901 (2017);
         "P. Giannozzi et al., J. Chem. Phys. 152 154105 (2020);
          URL http://www.quantum-espresso.org", 
     in publications or presentations arising from this work. More details at
     http://www.quantum-espresso.org/quote

     Parallel version (MPI), running on    24 processors

     MPI processes distributed on     1 nodes
     122733 MiB available memory on the printing compute node when the environment starts
 
     Reading input from pw_mp-611517_nscf_k350_E49.in
Warning: card &IONS ignored
Warning: card / ignored
Warning: card &CELL ignored
Warning: card / ignored

     Current dimensions of program PWSCF are:
     Max number of different atomic species (ntypx) = 10
     Max number of k-points (npk) =  40000
     Max angular momentum in pseudopotentials (lmaxx) =  4

     Atomic positions and unit cell read from directory:
     out/mp-611517.save/
 
 
     K-points division:     npool     =       2
     R & G space division:  proc/nbgrp/npool/nimage =      12
     Subspace diagonalization in iterative solution of the eigenvalue problem:
     one sub-group per band group will be used
     scalapack distributed-memory algorithm (size of sub-group:  3*  3 procs)

 
     Parallelization info
     --------------------
     sticks:   dense  smooth     PW     G-vecs:    dense   smooth      PW
     Min          85      85     25                 1794     1794     289
     Max          86      86     26                 1797     1797     292
     Sum        1027    1027    301                21547    21547    3479
 
     Using Slab Decomposition
 


     bravais-lattice index     =            2
     lattice parameter (alat)  =      12.2699  a.u.
     unit-cell volume          =     461.8062 (a.u.)^3
     number of atoms/cell      =            1
     number of atomic types    =            1
     number of electrons       =        18.00
     number of Kohn-Sham states=         1200
     kinetic-energy cutoff     =      49.0000  Ry
     charge density cutoff     =     196.0000  Ry
     Exchange-correlation= PBE
                           (   1   4   3   4   0   0   0)

     celldm(1)=  12.269869  celldm(2)=   0.000000  celldm(3)=   0.000000
     celldm(4)=   0.000000  celldm(5)=   0.000000  celldm(6)=   0.000000

     crystal axes: (cart. coord. in units of alat)
               a(1) = (  -0.500000   0.000000   0.500000 )  
               a(2) = (   0.000000   0.500000   0.500000 )  
               a(3) = (  -0.500000   0.500000   0.000000 )  

     reciprocal axes: (cart. coord. in units 2 pi/alat)
               b(1) = ( -1.000000 -1.000000  1.000000 )  
               b(2) = (  1.000000  1.000000  1.000000 )  
               b(3) = ( -1.000000  1.000000 -1.000000 )  


     PseudoPot. # 1 for Xe read from file:
     /usr/scratch4/magr4985/MG/HTDF/pseudo/SG15/Xe.upf
     MD5 check sum: cc9f462402d923a4ee0779e880a8f0fc
     Pseudo is Norm-conserving, Zval = 18.0
     Generated using ONCVPSP code by D. R. Hamann
     Using radial grid of  602 points,  6 beta functions with: 
                l(1) =   0
                l(2) =   0
                l(3) =   1
                l(4) =   1
                l(5) =   2
                l(6) =   2

     atomic species   valence    mass     pseudopotential
        Xe            18.00   131.29300     Xe( 1.00)

     48 Sym. Ops., with inversion, found



   Cartesian axes

     site n.     atom                  positions (alat units)
         1           Xe  tau(   1) = (   0.0000000   0.0000000   0.0000000  )

     number of k points=    29  Gaussian smearing, width (Ry)=  0.0005
                       cart. coord. in units 2pi/alat
        k(    1) = (   0.0000000   0.0000000   0.0000000), wk =   0.0039062
        k(    2) = (  -0.1250000   0.1250000  -0.1250000), wk =   0.0312500
        k(    3) = (  -0.2500000   0.2500000  -0.2500000), wk =   0.0312500
        k(    4) = (  -0.3750000   0.3750000  -0.3750000), wk =   0.0312500
        k(    5) = (   0.5000000  -0.5000000   0.5000000), wk =   0.0156250
        k(    6) = (   0.0000000   0.2500000   0.0000000), wk =   0.0234375
        k(    7) = (  -0.1250000   0.3750000  -0.1250000), wk =   0.0937500
        k(    8) = (  -0.2500000   0.5000000  -0.2500000), wk =   0.0937500
        k(    9) = (   0.6250000  -0.3750000   0.6250000), wk =   0.0937500
        k(   10) = (   0.5000000  -0.2500000   0.5000000), wk =   0.0937500
        k(   11) = (   0.3750000  -0.1250000   0.3750000), wk =   0.0937500
        k(   12) = (   0.2500000   0.0000000   0.2500000), wk =   0.0468750
        k(   13) = (   0.0000000   0.5000000   0.0000000), wk =   0.0234375
        k(   14) = (  -0.1250000   0.6250000  -0.1250000), wk =   0.0937500
        k(   15) = (   0.7500000  -0.2500000   0.7500000), wk =   0.0937500
        k(   16) = (   0.6250000  -0.1250000   0.6250000), wk =   0.0937500
        k(   17) = (   0.5000000   0.0000000   0.5000000), wk =   0.0468750
        k(   18) = (   0.0000000   0.7500000   0.0000000), wk =   0.0234375
        k(   19) = (   0.8750000  -0.1250000   0.8750000), wk =   0.0937500
        k(   20) = (   0.7500000   0.0000000   0.7500000), wk =   0.0468750
        k(   21) = (   0.0000000  -1.0000000   0.0000000), wk =   0.0117188
        k(   22) = (  -0.2500000   0.5000000   0.0000000), wk =   0.0937500
        k(   23) = (   0.6250000  -0.3750000   0.8750000), wk =   0.1875000
        k(   24) = (   0.5000000  -0.2500000   0.7500000), wk =   0.0937500
        k(   25) = (   0.7500000  -0.2500000   1.0000000), wk =   0.0937500
        k(   26) = (   0.6250000  -0.1250000   0.8750000), wk =   0.1875000
        k(   27) = (   0.5000000   0.0000000   0.7500000), wk =   0.0937500
        k(   28) = (  -0.2500000  -1.0000000   0.0000000), wk =   0.0468750
        k(   29) = (  -0.5000000  -1.0000000   0.0000000), wk =   0.0234375

     Dense  grid:    21547 G-vectors     FFT dimensions: (  40,  40,  40)

     Estimated max dynamical RAM per process >     112.78 MB

     Estimated total dynamical RAM >       2.64 GB

     The potential is recalculated from file :
     out/mp-611517.save/charge-density

     Starting wfcs are random

     Band Structure Calculation
     Davidson diagonalization with overlap

     ethr =  5.00E-06,  avg # of iterations =  4.0

     total cpu time spent up to now is      752.5 secs

     End of band structure calculation

          k = 0.0000 0.0000 0.0000 (  2685 PWs)   bands (ev):

   -52.1560 -52.1560 -52.1560 -52.1558 -52.1558 -12.6523  -0.5305  -0.5305
    -0.5305   5.6734  10.1691  10.1691  10.1691  12.0904  12.0904  13.0735
    15.0535  15.0535  15.0535  16.9034  24.1095  24.1095  24.1095  24.9190
    24.9190  24.9190  25.7713  25.7713  25.7713  26.7927  26.7927  29.0821
    33.9220  33.9220  33.9220  34.1844  34.7671  34.7671  36.8178  36.8178
    36.8178  37.1851  37.1851  37.1851  38.2046  38.2046  38.2046  38.4678
    38.4678  38.4678  40.5284  40.5294  40.5294  40.5294  41.2010  41.2010
    43.5006  43.6091  43.6091  43.6091  44.2193  44.2193  44.2193  44.5139
    55.1055  55.1055  55.1055  55.9478  55.9478  56.6893  57.3686  57.3686
    57.3686  61.6365  61.6365  62.5679  62.5679  62.5679  63.0831  63.7185
    63.7185  63.7185  66.4641  66.4641  66.4641  66.6807  66.6807  66.6807
    67.4229  67.4229  67.4229  68.2668  68.2668  69.2630  69.2630  69.2630
    69.2970  69.2970  69.2970  70.0862  70.0862  70.0862  70.0888  70.2415
    70.2415  71.2341  72.4938  72.4938  72.4938  72.5002  72.5002  72.5002
    72.6822  72.6822  72.6822  72.9445  72.9445  75.3396  80.2416  82.4859
    82.4859  82.4859  83.1078  83.1078  83.1078  83.5877  83.5877  83.5877
    83.7912  83.7912  83.7912  84.0173  84.0173  85.1463  85.1463  85.1463
    85.8213  85.8213  85.9181  85.9181  85.9181  87.4607  91.0972  91.0972
    91.0972  93.2635  93.2635  93.8557  95.0859  95.0859  95.0859  95.1232
    95.1232  95.1232  95.1358  95.1358  95.1358  95.1549  95.1549  95.1549
    95.3771  96.9899  96.9899  96.9899  97.0743  97.0743  97.0743  98.2223
    98.2223  98.2908  98.2908  98.2908  98.3305  99.8856 104.9809 104.9809
   104.9809 108.8443 108.8443 111.6943 111.6943 111.6943 112.2233 112.2233
   112.2233 116.2468 116.4443 117.3064 117.3064 117.3064 118.5409 118.5409
   118.5409 119.5846 119.5846 119.5846 120.2496 120.2496 120.2496 121.3305
   121.3305 121.3413 121.3413 121.4946 121.4946 121.4946 121.5985 121.9759
   121.9759 121.9759 122.4132 122.4132 122.4132 123.7931 123.7931 123.8227
   124.1450 124.1450 124.1450 125.1243 125.1243 125.1243 125.3145 125.3145
   125.5610 125.5610 125.5610 125.8894 125.8894 125.8894 126.0512 126.2997
   126.2997 126.2997 126.6421 126.6421 126.6421 127.3379 128.6202 128.6934
   128.6934 128.6934 128.7655 128.7655 128.9374 128.9374 128.9374 129.2397
   129.2397 129.2397 129.4902 129.4902 129.4902 129.5304 129.5304 129.5304
   129.5378 129.5378 129.5449 129.5449 129.5449 129.7216 129.7216 134.8207
   139.6282 139.6282 139.6282 140.0036 140.0036 140.0036 140.0679 140.0679
   140.0679 141.4044 141.4044 141.4044 141.8559 141.8559 141.8559 142.3163
   142.3804 142.3804 142.4166 142.4166 142.4166 142.6814 144.6882 144.6882
   146.7137 149.2605 149.2605 149.2605 149.5791 149.5791 149.5791 149.8193
   149.8193 150.1249 150.1249 150.1249 150.1524 150.1524 150.1524 150.2192
   151.1898 151.1898 151.1898 153.4412 153.4412 154.2465 154.2465 154.2465
   156.4273 156.4567 156.4976 156.4976 156.4976 156.6692 156.6692 156.6692
   156.6702 156.6702 156.6702 156.6965 156.6965 156.6965 156.8386 156.8386
   156.9219 156.9219 156.9219 157.2212 157.2212 157.2212 158.8234 158.8234
   168.4684 168.5789 168.5789 168.5789 169.3401 169.5929 169.5929 169.5929
   169.7962 169.7962 169.7962 170.5882 170.6052 170.6052 171.4253 171.4253
   171.4253 173.1228 173.5492 173.5492 173.5492 178.3605 178.3605 178.3605
   179.3319 179.3319 179.3319 179.7377 179.7377 179.7377 179.8251 179.8251
   179.8251 180.4096 180.6014 180.6014 180.6014 180.6582 180.6582 180.7248
   180.7248 180.7248 180.7703 180.7703 180.7703 181.1623 181.1623 182.4315
   182.7986 182.7986 182.7986 182.8570 182.8570 182.8570 183.0455 183.0455
   183.0455 183.6500 183.6500 183.6595 183.6595 183.6595 183.6854 184.6989
   184.6989 184.6989 185.8183 185.8183 186.2512 186.2512 186.2512 186.3403
   186.4130 186.4130 186.4130 187.0333 187.0333 187.0333 189.1200 189.1200
   192.8788 192.9722 193.5018 193.5018 193.5018 194.6916 194.6916 194.6916
   194.8888 194.8888 194.9841 194.9841 194.9841 195.0239 195.0239 195.0239
   195.1885 195.1885 195.1885 197.6606 197.6606 197.7323 197.7323 197.7323
   197.7773 197.7773 197.7773 197.8313 197.8313 197.8313 197.9083 197.9083
   197.9083 197.9962 197.9962 198.6374 198.8428 198.8428 198.8428 198.9639
   198.9639 198.9639 199.0236 201.3857 201.3857 204.6565 204.6565 204.6565
   204.7998 205.2042 205.2042 205.2042 206.1137 206.1137 206.1137 206.3263
   206.3263 206.3263 206.3518 206.3518 206.3518 206.4539 206.4539 206.4539
   207.5133 207.5164 207.5862 207.5862 207.5862 207.6053 207.6053 207.8909
   208.0063 208.0063 208.0063 209.9773 209.9773 209.9773 210.0106 210.0106
   210.0751 210.0751 210.0783 210.0783 210.0783 210.1022 210.1022 210.1022
   210.1620 210.1620 210.1620 210.3788 210.3788 210.3789 210.3789 210.3789
   210.4460 211.2038 211.2038 211.2038 211.2073 211.2073 211.2073 211.2532
   211.2532 211.2532 211.2745 211.2745 211.2745 211.6108 211.7147 211.7147
   211.7147 211.7583 211.7583 217.4808 217.4808 220.8207 220.8207 220.8207
   223.7656 223.7656 223.7656 223.7895 228.9092 228.9092 232.8739 232.8739
   232.8739 232.8866 233.0583 234.1293 234.1293 234.1293 234.1606 234.1606
   234.1606 234.2107 234.2107 234.2107 234.2777 234.2777 234.2777 234.4692
   234.4692 237.5707 237.5707 238.1560 238.4147 238.4147 238.4147 239.1432
   239.1432 239.1432 239.4489 239.4489 239.4489 239.8030 239.8030 239.8030
   239.8231 239.8231 239.8231 239.9743 239.9743 239.9743 240.5736 240.8818
   241.0788 241.0788 241.0788 241.7880 241.7880 241.9592 241.9592 241.9592
   241.9640 242.3103 242.3103 242.3103 242.6747 242.6747 242.7511 242.7511
   242.7646 242.7646 242.7646 242.7954 242.7954 242.7954 242.8021 242.8021
   242.8021 243.0979 243.0979 243.0979 244.1903 244.1903 246.6445 246.6445
   246.6445 246.8234 246.8234 246.8234 246.9757 253.3532 253.3532 254.6573
   254.6573 254.6573 255.0412 255.0412 255.0412 255.0841 255.0841 255.0841
   255.0913 255.0913 255.0913 255.0986 255.1030 255.1030 255.1030 255.1196
   255.1196 255.3291 255.3291 255.3291 255.4015 259.5097 259.5097 259.5097
   260.9079 260.9079 262.0281 262.1311 262.1311 262.1311 262.2157 262.2533
   262.2533 262.2533 262.2874 262.2874 262.2874 262.4136 262.4136 262.4136
   262.4443 262.4443 262.5690 262.5690 262.5854 262.5854 262.5854 262.5970
   262.5970 262.5970 262.6983 262.7140 262.7140 262.7140 262.7519 262.7519
   262.7519 265.4475 265.6075 265.6075 265.6075 265.6516 265.6516 265.6516
   265.8479 267.9123 267.9378 267.9378 267.9378 267.9394 267.9394 267.9394
   267.9603 267.9603 267.9603 267.9883 267.9883 270.8584 270.8584 270.8584
   270.8682 270.8682 270.8793 270.8793 270.8793 271.0066 271.0066 271.0066
   271.0153 271.8212 271.8212 271.8212 271.8236 271.8236 271.8818 271.8818
   271.8818 271.8944 271.8944 271.8944 271.9844 274.9500 274.9500 279.0141
   279.0141 279.0141 281.7515 281.7515 281.7515 281.8554 282.3805 282.3805
   282.3805 282.4176 282.4176 282.4176 282.4706 282.4706 282.4706 282.6261
   282.7801 282.7801 282.7801 282.7864 282.7864 285.5408 285.5408 285.5408
   285.9582 285.9582 286.9815 286.9815 286.9815 286.9992 288.1723 288.6837
   288.6837 288.6837 288.9616 289.6514 289.6514 289.6616 289.6616 289.6641
   289.6641 289.6641 289.9248 289.9248 289.9248 290.0696 290.0696 290.0696
   290.1893 290.1893 290.1893 293.0411 293.0411 293.0601 293.0601 293.0601
   293.1374 293.1374 293.1374 293.1961 293.1961 293.1961 293.2619 293.2619
   293.2619 293.3737 293.3737 294.2158 294.2467 294.2467 294.2467 294.2616
   294.2616 294.2616 294.2980 294.2980 294.2980 294.3184 294.3184 294.3184
   294.3860 294.4264 294.4264 294.4264 294.4334 294.4334 294.4334 297.3280
   297.5041 297.5041 297.5041 297.5985 297.5985 298.2941 298.3694 298.3694
   298.3694 298.4293 298.4293 298.4293 298.4359 298.4359 298.5405 298.8216
   298.8216 298.8216 298.8273 298.8273 298.8273 298.8420 298.8420 298.8420
   298.8559 298.8559 298.8559 298.9352 298.9352 299.7360 299.7360 299.7404
   299.7404 299.7404 299.7531 299.7754 299.7754 299.7754 299.7987 299.7987
   299.7987 299.8177 299.8177 299.8177 299.8215 299.8228 299.8228 299.8543
   299.8543 299.8543 299.8544 299.8544 299.8544 308.8462 308.8462 308.8462
   310.1169 310.1439 310.1699 310.1699 310.1699 312.8803 312.8803 313.0745
   313.0745 313.0745 313.1192 313.1192 313.1192 313.1229 313.1229 313.1319
   313.1319 313.1319 313.1391 313.1391 313.1391 315.0649 315.0649 318.2744
   318.2744 318.2744 318.5884 318.6026 318.6026 318.6026 319.4689 319.4689
   319.4689 319.4865 319.4865 319.4865 319.5016 319.5016 319.5016 321.0161
   321.0567 321.0567 321.0567 321.0568 321.0568 323.9535 323.9638 323.9638
   323.9638 324.0008 324.0008 325.0384 325.0384 325.0384 325.0733 325.0733
   325.0733 325.0817 325.0817 325.0817 325.0873 325.0873 325.0873 325.6457
   325.6727 325.6727 325.6727 325.6848 325.6848 331.6596 331.6596 331.6596
   335.0406 335.0406 337.2643 337.5172 337.5172 337.5172 337.8172 337.9884
   337.9884 337.9884 338.1335 338.1335 338.1335 338.2042 338.2042 338.2042
   338.2540 338.2540 338.2540 338.2557 338.2557 339.3196 339.3196 339.3490
   339.3490 339.3490 339.6263 339.6263 339.6263 339.9765 339.9765 339.9765
   340.0228 348.5294 348.5294 348.7625 348.7625 348.7625 349.0609 349.1156
   349.1624 349.1624 349.1624 350.6619 350.6619 350.6619 350.8601 351.0053
   351.0053 351.0053 351.2147 351.2147 351.2147 351.2678 351.2678 351.2678
   351.3421 351.3421 351.3421 351.3537 351.3840 351.3840 351.3840 351.4093
   351.4093 351.5281 351.5281 351.5506 351.5506 351.5506 351.7617 351.7617
   351.7617 352.0087 352.0087 352.0087 352.2126 352.2577 352.2577 352.4980
   352.4980 352.4980 352.5302 352.5302 352.5302 352.5655 352.5655 352.5801
   352.6044 352.6044 352.6044 352.6059 352.6059 352.6059 352.6471 352.6471
   352.6471 352.6924 352.6924 353.2813 353.3828 353.3828 353.3828 353.5297
   353.5297 353.5297 353.5909 353.5909 353.6253 353.6253 353.6253 357.3571
   357.3571 357.3571 357.3700 357.3700 357.4357 357.4357 357.4357 357.4981
   357.5020 357.5020 357.5020 364.4661 364.4661 364.6580 364.6580 364.6580
   366.1134 366.1134 366.1313 366.1313 366.1313 366.1375 366.1375 366.1375
   366.1736 366.2180 366.2180 366.2180 366.2784 366.2784 366.2784 366.3484
   366.3619 366.3619 366.3619 366.4903 366.4903 366.6605 366.6605 366.6605
   366.8046 367.5886 367.5886 367.5886 367.7159 367.7159 367.7159 367.7655
   367.7655 367.7655 367.9045 367.9045 367.9045 368.3527 368.5680 368.5680
   368.6034 368.6034 368.6034 368.7598 368.7598 368.7598 368.7853 368.7853
   368.7853 368.8497 368.8685 368.8685 368.8685 368.8804 368.8804 368.8804
   368.9047 368.9047 368.9047 368.9190 368.9190 370.3424 370.3424 370.3717
   370.3717 370.3717 370.4235 377.0898 377.0898 377.3216 377.3216 377.3216
   377.4562 377.5392 377.5392 377.5392 377.5879 377.5879 377.5879 377.6828
   377.6828 377.7298 377.7298 377.7298 377.7510 377.7510 377.7510 377.7614
   377.7614 377.7614 377.7632 379.6122 379.6122 379.6122 379.9742 380.1543
   380.1543 380.1543 380.1901 380.4196 380.4196 380.4296 380.4296 380.4296
   380.4452 380.4452 380.4452 380.4884 380.4884 380.4884 380.5003 380.5003
   380.5936 380.5936 380.5936 381.9100 381.9100 381.9100 381.9253 381.9253
   381.9340 382.0667 382.0667 382.0668 382.0695 382.0695 382.0696 382.0819

          k =-0.1250 0.1250-0.1250 (  2698 PWs)   bands (ev):

   -52.1560 -52.1560 -52.1560 -52.1557 -52.1557 -12.6338  -0.7357  -0.5519
    -0.5519   6.0250   9.7829  10.3025  10.3025  11.7951  11.7951  13.7146
    14.4926  15.8289  15.8289  18.0905  21.6588  22.1799  22.1799  24.7338
    24.7338  25.8669  25.9474  25.9474  26.4769  29.1524  29.1524  30.1900
    31.6714  31.6714  32.1949  33.6791  34.7299  34.7299  35.0602  36.0381
    36.1698  36.1698  36.8529  36.8529  38.3056  38.3056  39.0595  39.5997
    39.5997  39.7031  40.5467  40.5467  40.8233  41.0243  42.0346  42.6925
    42.6925  43.3046  44.2245  44.2245  45.9519  46.0035  46.0035  49.1054
    52.2665  52.2665  52.5903  54.7714  54.7714  57.2808  58.8575  58.8575
    58.9271  59.4170  60.5589  61.6067  61.6067  62.2197  62.2197  62.4101
    62.4101  64.2983  64.3301  64.3301  64.8407  66.3844  66.3844  66.6182
    67.1904  67.1904  67.6568  67.7090  67.7090  67.9712  67.9712  68.0255
    68.2317  68.9502  68.9502  69.6419  69.7613  69.7613  71.4149  72.2091
    72.9814  72.9814  73.2111  73.3826  73.3826  73.5306  73.5306  74.8743
    74.8743  75.3049  75.8403  76.6758  77.2840  77.2840  78.2078  78.2078
    78.3192  80.3248  80.5603  80.5603  80.7902  81.2363  81.2363  83.4313
    84.1479  84.1479  84.5963  84.5963  85.3362  85.8704  86.4833  86.4833
    87.4200  88.2384  88.3456  88.3456  88.4845  88.4845  90.2456  90.9681
    91.1934  91.1934  91.3288  91.3288  91.3778  91.6133  91.6133  92.2391
    93.5227  93.5227  93.6645  94.5502  94.5502  94.5804  96.5465  96.5465
    97.1110  98.7266  98.7266  99.4214  99.4214  99.6168  99.7895 100.2821
   100.2821 100.9540 102.0815 102.0815 103.3172 103.3643 103.3643 104.6579
   105.0330 106.4663 109.0514 109.0514 110.7563 110.7563 111.8089 112.6147
   112.6147 113.4143 113.9054 113.9054 115.0465 115.4625 115.4625 116.1881
   117.2711 117.2711 117.9316 117.9316 117.9598 118.0067 119.1353 119.5230
   119.5230 119.6273 120.1678 120.1678 120.3878 120.3878 120.4499 120.4575
   120.8373 120.8373 121.3314 121.3314 121.8176 122.1929 122.7245 122.7245
   122.9942 123.3857 123.3857 123.5325 124.4703 124.4703 124.5450 124.6528
   124.6528 125.6816 125.8040 125.8040 126.7111 126.7341 126.7341 127.3645
   127.3645 127.6947 127.8006 128.0423 128.0423 128.3142 128.3142 128.3327
   129.3419 129.3419 129.4514 129.9151 129.9151 130.2741 130.6527 130.6527
   131.1312 131.2070 131.2070 131.4465 132.6724 132.6724 132.7401 132.7401
   133.4413 133.9794 134.0503 134.4692 134.4692 134.7333 134.7333 134.8037
   135.6967 135.6967 136.2723 137.4169 138.1280 138.1280 138.1608 138.3857
   138.3857 138.5763 138.7782 138.7782 141.2254 141.2254 142.1960 144.2747
   144.5807 144.6560 144.6560 145.0046 145.0046 145.6125 145.7329 146.0837
   146.0837 147.2787 147.2787 147.7346 147.7346 147.9517 148.4805 148.4805
   148.7238 148.8160 149.2464 149.3037 149.3037 150.4148 150.4148 151.1814
   151.4357 151.4357 151.7897 152.0003 152.0003 152.0853 152.9075 152.9075
   153.5478 154.9957 155.2130 155.2130 155.7976 155.7976 156.1207 156.7399
   156.7399 158.1662 158.5076 158.5076 159.0157 159.9937 159.9937 160.2938
   161.7765 161.7765 161.9429 161.9535 162.2873 162.2873 164.1243 164.1243
   164.3064 165.5773 166.1220 166.1220 166.5951 166.5951 166.6597 167.1777
   168.5303 169.9749 169.9749 171.2232 171.2232 171.5464 172.3008 172.3008
   172.8086 173.0584 173.0584 173.2310 173.4563 173.4563 173.9418 174.0667
   174.0667 175.0133 175.0357 175.0357 175.0662 176.5907 176.5907 177.6307
   177.6307 177.7370 178.0344 178.0344 178.0467 178.8504 180.0762 180.0762
   180.4751 180.6998 180.8038 180.8038 180.8077 181.5011 181.9831 181.9831
   182.0722 182.2653 182.2653 182.3955 183.7820 183.7820 184.2943 184.2943
   185.8208 185.8208 185.8749 186.0483 186.4560 186.4560 186.7841 186.7841
   187.2571 187.3418 187.4240 187.4240 187.4800 187.4800 187.5375 188.2653
   188.2653 188.4332 188.4886 189.5974 189.5974 189.7156 190.4252 190.4252
   190.6246 190.7969 190.7969 191.0640 191.5243 191.5243 191.5801 193.0912
   193.0912 193.5159 193.5216 193.7169 193.7169 193.9872 193.9872 195.2997
   195.3901 195.3901 195.4961 195.6796 195.8612 195.8612 196.8232 197.0575
   197.0575 197.4005 197.7220 197.7220 198.1438 198.1438 198.1477 198.3290
   198.3290 198.4003 198.9495 198.9495 199.0588 199.5513 199.5513 200.0270
   200.7120 201.3906 201.3906 201.8617 202.0950 202.0950 202.2440 202.2440
   202.3649 202.8536 202.8536 202.9557 203.1804 203.1804 203.2111 203.4009
   203.7871 203.7871 203.8128 204.6685 204.6685 205.2749 205.3639 205.3639
   206.3629 206.3629 206.3820 207.0594 207.0594 207.4953 207.5647 207.5647
   207.6757 207.8002 207.8002 208.4418 208.4555 208.4555 208.5775 208.5775
   208.7467 209.6050 210.2020 210.2020 210.3580 210.3580 210.4548 210.5483
   212.2176 212.2176 212.8912 212.8912 212.9556 213.9343 214.4514 214.4514
   214.7369 214.8971 214.9008 214.9008 215.6638 215.6638 215.8940 215.9193
   215.9193 216.0708 216.0708 216.1049 216.3938 216.8627 219.2998 219.7894
   219.7894 219.9212 219.9212 220.2843 220.8127 220.8538 220.8538 221.8301
   221.8301 222.0226 222.0226 224.6628 224.6628 226.7495 228.1728 228.3770
   228.5271 229.1479 229.1479 230.1881 230.1881 230.7112 230.7112 230.9364
   231.0157 231.0243 231.0243 231.8676 231.8676 232.0535 233.0653 233.0653
   233.1691 233.9458 233.9458 234.9317 234.9925 234.9925 235.0186 235.7535
   235.7535 235.9746 236.2936 236.4086 236.4086 237.3471 237.3471 237.4284
   237.7441 237.7441 238.7960 238.7960 239.0199 240.3899 240.6485 241.2829
   241.2829 241.3034 242.3676 242.3676 243.3111 243.3919 243.3919 244.1347
   244.1347 244.6074 244.7093 244.7093 244.7695 245.2806 245.2806 245.9213
   245.9775 245.9886 245.9886 246.6809 246.7472 246.7472 247.3053 247.4600
   247.4600 247.8921 247.8921 248.1291 248.1774 248.1774 248.3142 248.3975
   248.3975 248.4302 248.5346 248.7391 248.7391 249.9844 250.0914 250.0914
   250.2684 251.0205 251.0205 251.4617 251.4617 251.5722 251.7349 251.7349
   251.7817 252.2000 252.2000 252.7531 252.8527 253.2089 254.9658 254.9658
   255.5290 255.5290 256.3493 257.5365 257.5365 257.5463 258.0671 258.0671
   258.7651 259.2555 259.2555 259.4136 259.7387 259.7387 260.1559 260.4164
   260.4164 260.9814 261.2192 261.2192 261.3352 261.7736 261.7736 262.1765
   262.1765 262.2085 262.2368 262.3140 262.3140 262.4126 262.4308 262.4308
   262.4435 262.8599 262.8599 262.8877 263.6931 263.7255 263.7255 264.1116
   264.1240 264.1240 265.5928 265.5928 265.8935 267.9869 267.9869 268.1860
   268.1909 268.1909 268.1991 269.0009 269.0009 269.3463 269.5497 269.5497
   270.3407 270.3625 270.3625 270.4567 270.5182 270.5182 270.5542 271.7731
   271.7731 272.0197 272.5892 272.5892 272.7674 272.7783 272.7783 272.8237
   272.9818 273.2703 273.2900 273.2900 273.4146 273.4146 273.4574 274.1662
   274.1662 275.0483 275.3759 275.3759 277.0662 277.0662 277.5502 278.1332
   278.1332 278.8310 278.9254 278.9555 278.9555 279.1848 279.7849 279.9042
   279.9042 280.2417 280.2417 280.4610 280.4610 280.8249 280.8249 280.8285
   281.3239 281.8158 282.9160 282.9160 283.4099 283.7736 283.7736 283.8819
   284.2556 284.2556 284.8323 285.4214 285.6361 285.6361 285.9797 285.9797
   286.2613 286.4431 286.4431 286.5769 286.7671 286.8170 286.8170 287.1413
   287.1413 287.2384 287.3737 287.3762 287.3762 287.8763 287.8763 287.9596
   288.6881 288.8746 288.8746 289.7919 289.7919 289.9024 290.2824 290.2824
   290.2981 290.4259 290.4259 290.6494 290.6494 290.7274 290.8483 291.0553
   291.0553 292.3647 292.7201 292.7201 293.0649 293.1076 293.1076 293.1950
   293.4309 293.4309 293.4979 294.3698 294.3761 294.3761 294.4620 294.4620
   294.4781 294.8021 294.8021 294.9165 294.9457 294.9457 295.0566 295.8402
   295.8716 295.8716 295.9960 297.9458 297.9458 297.9501 298.9892 298.9892
   299.0137 299.0420 299.0420 299.6069 299.7790 299.7790 299.8351 299.8351
   299.9709 300.4884 301.3158 301.3158 301.3427 301.5277 301.5277 301.5288
   302.1653 302.1653 302.3625 302.3625 302.5036 302.6075 303.1194 303.1194
   304.1365 304.1365 304.2738 304.3056 304.3056 304.4998 304.5918 304.5918
   304.6318 306.3148 306.3148 306.4258 306.6258 306.6258 307.1093 307.1093
   307.5285 307.8836 308.1031 308.1031 308.1198 308.2643 308.2643 308.3151
   308.3521 308.3521 308.3940 309.5105 309.5105 309.7069 309.7241 309.7241
   309.7726 311.0830 311.6095 311.6095 312.6053 312.6053 312.7049 312.7126
   312.7126 313.0546 313.6773 313.6773 314.1205 314.2447 314.2447 314.2631
   314.7330 314.7330 314.7972 315.5300 315.5300 315.5380 316.8192 316.8192
   316.8588 319.3018 319.3100 319.3100 319.7194 319.7194 319.8461 320.5082
   320.5082 320.5242 321.1518 322.5845 322.5845 323.5295 323.5295 324.0848
   324.4046 324.8479 324.8479 325.7428 325.8928 325.8928 326.7836 327.5183
   327.5183 328.8493 328.8493 329.2736 329.8135 329.8135 330.1322 330.4244
   330.4244 330.6232 330.7237 330.7237 330.9740 331.0944 331.0944 331.2588
   331.5555 331.5657 331.5657 334.0499 335.0159 335.0159 335.2504 335.3714
   335.3714 336.0290 336.5327 336.5602 336.5602 337.3893 337.3893 337.9071
   337.9071 337.9420 337.9420 338.1573 338.1860 338.9199 338.9199 339.3296
   339.3832 339.3832 339.4022 339.5403 339.7693 339.7693 340.9516 340.9548
   340.9548 341.8578 341.8578 342.5808 343.2395 343.2395 343.5525 343.6132
   343.6132 343.6197 344.0931 344.0931 344.4478 344.7398 344.7398 345.1786
   345.1860 345.1860 345.1975 345.4354 345.4354 345.5551 346.3730 346.3730
   346.3913 348.9618 349.0026 349.0026 349.4295 349.4893 349.4893 349.7604
   350.4700 350.4700 351.7439 351.7439 351.8179 351.8513 351.8513 351.8738
   352.1660 352.1660 352.2410 352.7322 352.7322 352.9314 352.9579 352.9579
   353.1360 353.1653 353.1653 353.1667 353.4912 353.4912 353.5278 354.1093
   354.1093 354.1709 354.6521 354.6521 354.6900 355.3252 355.3252 355.6266
   356.2711 356.2711 356.6921 357.4119 357.4122 357.4122 357.7453 357.8341
   357.8341 357.9817 357.9817 358.0151 358.0596 358.0868 358.0868 358.3231
   358.3231 358.4925 358.7939 358.7939 358.8568 359.0839 359.0839 359.4617
   359.5716 359.5716 359.6508 360.1279 360.1279 360.1996 360.9525 360.9525
   361.1129 362.3377 362.3377 362.4189 363.4746 363.5306 363.5306 363.8411
   363.8411 363.8961 363.9727 364.3416 364.3416 364.3947 364.5885 364.7559
   364.7559 364.8833 364.8833 365.2387 365.2387 365.2776 365.3272 365.6547
   365.8638 365.8638 365.9588 366.1503 366.1503 366.7785 366.7785 367.0486
   367.0704 367.1366 367.1366 367.7123 367.7929 367.7929 367.9561 367.9561
   368.0352 368.0363 368.0983 368.0983 369.8438 369.9314 369.9314 370.0098
   370.0098 370.0302 370.0716 370.0716 370.1536 370.7023 370.7023 370.8274
   371.2349 371.2349 371.3126 371.3126 371.3365 371.4043 371.4132 371.4245
   371.4245 373.6814 373.6814 373.9795 373.9795 374.0012 374.0275 374.2516
   374.2516 374.3843 375.1304 375.1514 375.1514 375.1910 375.1910 375.2024
   375.8581 375.8581 375.9347 376.6954 376.6954 376.9531 377.0975 377.0975
   377.1472 377.8336 377.8336 377.9936 377.9936 378.0033 378.0671 378.0694
   378.1294 378.1294 378.8798 378.8994 378.8994 379.1163 379.1163 379.1169
   379.4481 379.4597 379.4597 379.5747 379.6989 379.6989 380.1257 380.1257
   380.3620 380.4022 380.6356 380.6356 381.0364 381.0364 381.1438 381.2373
   381.2373 381.2585 382.9623 383.0124 383.0124 383.0385 383.0385 383.0429

          k =-0.2500 0.2500-0.2500 (  2683 PWs)   bands (ev):

   -52.1560 -52.1560 -52.1560 -52.1557 -52.1557 -12.5886  -1.1726  -0.6025
    -0.6025   6.7690   9.3884  10.3148  10.3148  11.8665  11.8665  13.2416
    15.9584  17.5524  17.5524  18.6453  19.5066  19.5066  20.5418  24.9286
    24.9286  26.1044  26.1044  26.1219  26.8411  28.7362  28.7362  28.9724
    31.4917  32.5557  32.5557  33.1756  33.1756  33.6658  34.1993  34.4839
    34.4839  34.8347  35.4450  37.0206  37.0206  38.8747  38.8747  40.3491
    40.4561  40.4561  41.5162  42.8334  42.8334  43.3905  44.0608  44.0645
    44.0645  46.7837  47.7135  47.7135  48.6737  49.0566  49.0566  49.4685
    49.4685  49.7135  50.5112  50.5112  53.9994  54.7387  56.7880  56.8453
    57.4334  57.4334  58.9791  58.9791  60.6594  61.6889  61.6889  61.9321
    61.9321  62.1936  62.8162  63.0036  63.0036  63.6367  63.6367  64.8747
    67.0867  67.0867  67.4107  68.2357  68.2357  68.6194  68.6276  68.7004
    68.7004  69.1652  69.2847  69.2847  70.8624  70.9324  70.9324  71.8971
    71.8971  73.9712  75.2113  75.2113  75.2320  75.4041  75.4041  75.9775
    77.3463  77.6550  77.6550  78.3205  78.3205  78.3482  78.8827  78.8827
    79.8597  80.2017  80.4714  80.4714  81.3723  82.4154  82.4154  83.1051
    83.8263  83.9484  84.0227  84.0227  84.5668  84.5668  85.2745  85.2745
    86.9421  86.9421  86.9788  87.1188  87.6613  87.6613  87.7280  91.0231
    91.1612  91.1612  91.3857  91.3857  91.5112  91.9232  92.4569  92.4569
    92.7031  92.7031  93.4266  95.4436  95.4436  97.6055  98.8549  98.8549
    99.4825  99.7544  99.7544 100.9443 102.1083 102.1083 103.2681 103.8338
   104.1122 104.1122 105.0048 105.0048 105.3808 105.4906 105.6487 105.6487
   106.6833 106.6833 106.7550 107.0276 109.0031 109.0031 109.6357 109.9226
   109.9226 110.5717 110.5717 110.9380 111.7744 112.1904 112.2272 112.2272
   112.6031 112.6031 113.1691 113.3378 113.3378 114.2953 116.7228 116.9923
   116.9923 117.6160 117.7983 117.7983 118.2170 118.4973 118.4973 118.8894
   118.9713 118.9713 120.2725 120.4402 120.4402 121.3675 121.3675 121.9704
   122.6803 122.6803 123.3094 124.4309 124.4309 125.0304 125.1200 125.1200
   125.9671 126.2263 126.4317 126.4317 127.3921 127.3921 127.6035 127.7105
   127.9287 127.9287 127.9731 128.6703 128.6703 128.9023 129.0501 129.0501
   129.9770 129.9770 131.5201 131.9707 131.9707 132.2612 132.5027 132.5027
   132.9880 133.4613 133.4995 133.4995 133.7606 133.7606 134.1104 134.6893
   134.9473 135.3031 135.3031 135.5936 135.9447 135.9447 136.6112 136.6112
   137.5487 137.6597 137.6597 138.8341 138.8341 139.4125 139.7897 139.7897
   140.5659 140.5659 140.7349 141.2567 141.2567 141.4078 141.6043 142.3793
   142.3793 142.7072 143.1046 143.5608 143.5608 145.9329 146.6356 146.7587
   146.7587 147.3084 147.3152 147.3152 147.4431 147.4431 147.6978 148.8132
   148.9859 148.9859 149.4448 149.4957 149.4957 149.6959 149.8113 149.8113
   151.7613 152.1350 152.1350 154.3902 154.3902 155.1770 155.1877 155.1877
   155.8920 155.9800 156.1498 156.1498 157.5651 157.5934 157.5934 159.1400
   160.0101 160.0101 160.2143 160.3646 160.5624 160.5624 161.0707 161.0707
   161.2029 163.2398 163.4525 163.4525 163.9344 164.0221 164.0221 164.8877
   165.2452 165.2452 165.9917 165.9917 167.3793 167.4993 167.6448 167.6448
   167.7519 167.9342 167.9342 168.0610 168.3862 168.3862 168.7181 168.9438
   168.9438 169.4268 169.4333 169.4807 169.4807 170.9810 170.9810 171.6105
   171.6105 172.1521 173.3214 173.3214 173.3771 175.0588 175.1985 175.1985
   175.6653 175.6653 176.8507 176.8507 177.1061 177.4434 177.4434 178.3609
   178.7567 178.7567 180.5629 180.8783 180.8783 180.8875 180.9802 181.3996
   181.4860 181.4860 181.9097 181.9618 181.9618 182.7474 182.8910 182.8910
   183.5526 183.6091 183.6091 184.2319 184.2319 184.8756 185.3675 187.3566
   187.3566 187.7566 187.7566 188.2708 188.2708 188.2878 188.4249 188.6181
   188.6181 188.7425 189.1510 189.1510 189.5403 189.5991 189.6486 189.6486
   190.2015 190.2015 190.3688 191.2066 191.9751 191.9751 192.5570 192.5570
   192.6304 193.2760 193.3187 193.5899 193.5899 194.2042 194.2512 194.2512
   194.5258 194.5258 194.5665 195.2977 195.4376 195.4376 196.6934 196.6934
   197.3992 197.4909 197.4909 197.6134 197.6872 197.9942 197.9942 198.3724
   198.3724 198.5999 198.5999 198.6221 198.9487 199.1323 199.1323 199.7351
   200.2471 200.2471 200.3509 200.6105 200.6105 200.7877 201.4297 201.4297
   202.9038 203.0492 203.0492 203.9334 203.9510 204.3962 204.3962 204.8164
   204.8540 204.8540 204.9835 204.9835 205.0035 205.6607 205.6607 205.7135
   205.8185 206.1275 206.1275 206.1683 206.5316 206.5316 208.9646 208.9646
   210.2035 210.4768 211.3914 211.3914 211.5741 211.5741 211.9743 212.8340
   212.8822 212.9098 212.9098 213.5987 213.5987 213.8450 213.8450 214.2363
   214.3710 215.1159 215.1159 216.0556 216.0556 216.1437 217.0742 217.2652
   217.2652 218.4574 218.4574 218.8600 218.8600 219.1896 219.3606 219.4672
   219.4672 219.6135 219.6135 219.9621 219.9621 220.6337 221.1542 221.6399
   222.1038 222.6352 222.6352 222.6463 223.1654 223.1654 223.6014 223.6158
   223.6158 223.9839 223.9839 224.3080 224.3887 224.5317 224.5317 224.6764
   225.3282 225.3282 226.5337 226.5337 228.3357 229.3646 229.5606 229.5606
   229.5772 229.7847 229.7847 230.6988 230.6988 230.8219 230.8789 230.8789
   230.8906 230.9421 232.0116 232.0116 232.4511 232.6068 232.6068 233.0804
   233.7032 233.7032 234.0080 234.0080 234.2916 234.4145 234.4145 234.6422
   236.4355 236.4355 237.3934 238.2358 238.2358 238.4738 240.0028 240.0028
   240.3762 240.3762 240.5681 240.6049 241.3583 241.4441 241.4441 241.5771
   241.5784 241.5784 241.9514 242.1161 242.1161 242.5177 243.3703 243.3703
   243.8658 244.1150 244.1150 244.9516 245.9946 246.1303 246.1303 246.7637
   246.7637 246.9095 247.4655 247.4655 247.5657 247.7443 247.7499 247.7499
   247.8810 247.8810 247.9680 248.7926 248.7926 248.8808 250.1312 250.1312
   250.5213 251.9097 251.9097 252.0930 253.0997 253.3342 253.3342 253.5582
   253.5847 253.5847 254.0205 254.3405 254.3405 254.5776 254.6943 254.6943
   256.5377 256.5377 257.0623 258.0438 258.6854 258.6854 259.1414 259.1414
   259.3046 259.3046 259.4185 259.5936 259.7210 259.7210 259.8396 260.0587
   260.2773 260.2773 261.0466 261.0466 261.8235 261.9091 261.9091 262.0958
   262.2073 262.2073 262.2151 262.7280 263.1748 263.1748 263.3233 264.0428
   264.0428 264.6865 264.6865 264.7966 264.9195 265.0340 265.0340 265.4908
   265.7702 265.7702 267.6125 267.6125 267.7758 268.0307 268.0307 268.0907
   268.0907 268.4512 268.4808 268.5183 268.5183 268.6818 268.9490 268.9490
   270.0912 270.2303 270.2377 270.2377 270.3551 270.3682 270.3682 270.9293
   270.9293 271.1210 271.1834 271.2055 271.2055 272.5914 272.5914 273.3616
   273.9282 273.9282 274.3768 274.5149 274.5511 274.5511 274.8763 274.8763
   275.1842 275.2569 275.2655 275.2655 275.6484 275.6484 275.6818 275.7747
   276.0692 276.0692 276.1436 276.2567 276.2567 276.5430 276.5430 276.7374
   276.9445 276.9445 277.0862 278.8197 278.8197 278.8323 279.1856 279.1856
   279.2616 281.4797 282.0477 282.0477 282.0965 282.2478 282.2478 282.6754
   282.6754 282.8238 282.8705 282.8705 282.9863 283.0715 283.3678 283.3678
   283.5243 283.5971 283.5971 283.6125 283.8417 283.9236 283.9236 285.3075
   285.3119 285.3119 286.0554 286.0554 286.6478 286.6478 287.7519 289.0977
   289.0977 289.4104 289.5485 289.5485 289.5897 289.7695 289.8026 289.8026
   290.0826 290.0826 290.1844 290.4766 290.4823 290.4823 290.6332 290.6658
   290.6658 290.9541 290.9541 291.1858 292.6066 293.1721 293.1721 293.1973
   293.4847 293.4847 293.5871 295.2678 295.2678 296.4568 296.4568 296.6566
   297.1767 297.2606 297.2606 297.5963 297.9231 297.9231 298.1509 298.6929
   298.6929 298.7972 299.1195 299.1195 299.3475 299.6005 299.6005 300.1764
   300.1764 300.8786 301.2373 301.2416 301.2416 301.2521 302.2464 302.4313
   302.4313 303.4488 303.4488 303.4893 304.0985 304.2197 304.2197 304.3343
   304.3343 304.4301 304.4861 304.6331 304.6331 304.6820 304.7297 304.7297
   305.0899 305.0899 305.1339 306.7046 306.7046 306.7569 307.6839 307.8525
   307.8525 308.2224 308.4280 308.4280 309.2305 309.4232 309.4475 309.4475
   309.5806 309.5806 309.6370 309.7613 309.7613 309.9857 310.1618 310.1618
   310.5025 310.5025 310.5176 310.6419 310.6928 310.6928 311.5184 311.5235
   311.5235 313.2485 313.2485 313.4110 314.6791 314.6791 314.7486 315.1432
   315.6386 315.6386 316.1309 316.2158 316.2158 316.2337 316.8273 316.8273
   317.2839 317.3044 317.3044 317.5329 317.5329 317.5363 318.3226 318.3226
   318.6266 319.7786 320.0250 320.0250 320.8738 320.8738 320.9291 321.0362
   322.9112 322.9112 323.3755 323.3755 323.9340 323.9340 324.1156 324.2576
   324.5867 324.8968 324.8968 325.1104 325.1104 325.2430 325.8587 325.8587
   325.9988 327.2683 327.2683 327.3658 327.5618 327.5618 327.6491 328.1445
   328.1445 328.9938 329.1491 329.1491 329.1534 331.1153 331.1153 331.3795
   332.9139 332.9139 333.0974 333.2848 333.2848 334.3250 334.9472 334.9472
   335.0386 336.0572 336.0572 336.1273 336.2523 336.2523 336.2611 336.4340
   336.4459 336.4459 336.7507 336.7890 336.7890 337.7383 337.7383 337.8470
   338.3745 338.3745 338.5132 338.7704 338.7704 339.0422 339.1845 339.2488
   339.2488 339.2757 339.6983 339.8201 339.8201 340.5772 340.5772 340.6454
   340.6454 340.6589 341.0657 341.1156 341.1816 341.1816 341.5643 341.5643
   341.6114 342.2512 342.2512 344.8925 344.8925 345.3661 346.1444 346.1444
   346.5736 346.7262 346.7679 346.7679 347.1610 347.1610 347.2083 347.3808
   347.5169 347.5169 347.5500 347.6742 347.6742 348.2398 348.2398 348.2642
   348.2929 348.2929 348.4238 349.9438 350.9144 350.9144 351.2400 351.2400
   351.7703 351.7899 351.7899 351.8240 351.9305 351.9305 352.3145 352.4187
   352.4892 352.4892 352.6909 352.8292 352.8769 352.8769 352.9780 353.0202
   353.0202 353.2772 353.2772 353.4415 353.7600 353.7600 353.7928 353.8291
   353.8291 353.8602 355.5920 355.5920 355.6502 356.8418 356.8418 356.8690
   357.0788 357.0788 357.0895 358.4950 358.5401 358.5401 358.5713 358.5713
   358.5864 359.4391 359.4391 359.4667 359.5611 359.5611 359.6402 359.7215
   359.7554 359.7554 360.7863 360.7863 360.9458 361.0983 361.0983 361.2184
   361.3396 361.3396 361.3771 363.3046 363.3046 363.4303 363.9311 364.1930
   364.1930 365.6206 365.6206 365.6533 366.0489 366.0489 366.2653 366.2653
   366.2870 366.3610 366.8881 366.9206 366.9206 367.2777 367.3009 367.3009
   367.3172 367.3172 367.3215 367.6746 367.6746 367.9618 368.0095 368.0095
   368.0203 368.1048 368.1048 368.1375 368.2178 368.2893 368.2893 370.0416
   370.0416 370.3221 371.2720 371.2727 371.2727 371.3437 371.3437 371.3667
   371.9946 372.6679 372.6679 372.7938 373.2259 373.2259 373.3442 373.3635
   373.3635 375.0435 375.0435 375.1632 375.1936 375.1936 375.2243 376.1683
   376.1683 376.1971 376.4184 376.4397 376.4397 376.8359 376.8359 376.8535
   376.9647 376.9647 376.9704 376.9970 376.9970 377.3215 377.3419 377.3419
   377.5960 378.4157 378.4157 378.6497 378.8778 379.3399 379.3399 380.3187
   380.8274 381.4902 381.4902 381.7369 381.7369 381.8132 382.9705 382.9705
   383.0062 383.0062 383.1747 383.1787 383.1787 383.2265 383.3427 383.4008
   383.4008 384.7816 384.7816 384.8953 384.9225 384.9225 385.2249 385.2249
   385.2481 385.4828 385.4828 385.5299 385.7487 386.2441 386.2905 386.2906

          k =-0.3750 0.3750-0.3750 (  2674 PWs)   bands (ev):

   -52.1560 -52.1560 -52.1560 -52.1557 -52.1557 -12.5423  -1.5523  -0.6515
    -0.6515   7.2187   9.6482  10.0280  10.0280  12.8309  12.8309  12.8814
    16.2541  17.1808  17.1808  18.4955  19.7499  19.7499  23.1232  24.4404
    24.6316  24.6316  25.6043  25.6043  26.4235  27.2220  27.2220  28.5643
    29.3642  32.0223  32.0223  32.1524  32.4088  32.4088  32.9420  34.1706
    36.8219  36.8219  37.0961  37.0961  38.1161  38.7089  38.7089  40.0828
    41.8529  41.8529  42.8304  45.3704  45.3704  45.4415  45.7558  45.7558
    47.1101  47.1642  47.1642  47.2574  47.2574  47.4161  49.1915  50.7941
    51.0975  51.0975  52.9883  53.3977  53.3977  53.5201  53.6932  53.6932
    54.7435  54.8671  54.8671  58.1362  58.3388  58.3388  58.3793  60.4580
    61.6867  61.6867  61.9274  61.9274  63.4214  64.2668  65.0236  65.0236
    66.3946  66.8352  66.8352  67.1340  67.1340  67.9267  67.9267  68.1877
    69.4304  69.6619  70.0786  70.0786  70.3153  70.6014  70.6014  73.4341
    74.6585  74.6585  74.8024  75.4336  75.6901  75.6901  76.4293  76.4352
    76.4352  77.4599  77.4599  77.6587  77.8264  77.8264  78.7452  78.7452
    78.8925  81.6565  82.7415  83.2604  83.2604  83.4768  83.4768  83.6154
    84.3422  84.3422  84.4476  85.4213  85.4213  85.9281  85.9743  85.9743
    87.0859  87.0859  87.3277  87.6023  89.1893  89.1893  89.9919  90.0237
    90.0237  90.1637  90.5685  90.5685  90.7402  90.8387  90.8387  93.8749
    95.9511  96.0460  96.0460  96.8242  96.8242  97.1913  98.1331  98.1331
    99.6107  99.7409  99.7409 100.0345 102.4954 103.4795 103.4795 103.8987
   104.1386 104.1386 104.5091 105.3436 105.3436 105.4507 105.6477 105.6477
   106.1898 106.4600 106.4600 106.8737 107.0869 107.0869 108.2470 109.2600
   109.2600 109.9067 109.9067 110.0257 110.7557 110.8263 110.8263 111.2783
   112.6385 112.6385 113.4255 113.8906 113.8906 114.4657 114.4657 116.2750
   116.2750 116.2886 116.6478 116.8132 116.8132 117.2075 117.3974 117.3974
   117.7769 119.0137 119.9025 119.9025 120.8260 120.8260 120.9806 121.4096
   121.4170 121.9177 122.0107 122.0107 122.5286 122.5286 123.4934 123.4934
   123.6143 124.2529 124.2529 124.6039 124.6039 124.8341 126.8971 127.5343
   127.5343 127.5445 128.2239 128.2239 128.2585 129.9604 130.1565 130.1565
   130.7038 130.7038 131.0824 131.1169 131.1169 131.6168 132.1280 132.6578
   132.6578 133.0425 133.0425 133.7873 134.6178 134.6178 135.1928 135.7282
   135.7282 136.3095 136.3328 136.4615 136.4615 137.5588 138.4111 138.4111
   139.1701 139.1701 139.2677 140.0295 141.1242 141.4773 141.4773 141.8118
   142.0980 142.0980 142.5864 142.7615 142.7615 143.2385 143.3437 143.3437
   143.5146 144.2790 144.2790 145.6023 145.6023 147.1333 147.6236 147.6236
   148.1895 148.6599 149.0235 149.0235 149.3826 149.3826 149.9291 150.1695
   150.1695 150.2125 151.3708 151.3708 152.4186 152.8929 152.9783 152.9783
   153.2722 154.0255 154.0255 154.9437 155.1447 156.0044 156.0044 156.1456
   156.8241 156.8968 156.8968 156.9589 157.2695 157.2695 157.6332 157.6332
   158.4540 158.4540 160.6555 160.6555 160.6754 161.5356 161.5356 161.7441
   162.2733 162.2733 162.2769 162.9077 162.9077 162.9405 163.0953 163.2622
   163.2622 163.3474 163.3725 163.9041 164.1722 164.1722 164.5207 164.5207
   165.1400 165.1400 165.9135 166.2045 166.2778 166.2778 167.6608 167.6608
   168.6089 168.7929 169.2157 169.2157 169.4606 169.4606 169.4686 170.8901
   170.8901 173.6662 173.6662 173.6819 173.7055 173.8477 173.8477 173.9616
   174.6801 175.3984 175.3984 175.7754 176.7694 177.0883 177.0883 177.8807
   177.8807 178.7319 178.7319 179.3344 179.5858 179.5858 180.1698 180.5243
   180.5243 180.6265 180.7516 180.7516 181.1231 181.1767 181.1767 181.4614
   182.4383 182.4383 183.2095 183.3838 183.3838 183.5178 183.8683 183.8683
   184.6593 185.0672 185.2321 185.2321 186.1368 186.1368 186.9241 187.0702
   187.2869 187.2869 187.4501 187.4501 188.2390 188.3030 188.3030 188.9481
   189.4037 189.4037 189.9296 190.6734 190.7440 190.7440 191.7070 191.7070
   191.7962 192.2975 192.4352 192.4352 192.9983 192.9983 194.4366 195.5671
   195.5671 196.0454 196.0515 196.1964 196.1964 197.2583 197.2583 197.4926
   197.9649 198.4362 198.4362 199.0383 199.1059 199.1059 199.2072 199.2723
   199.2723 199.7355 199.9850 199.9850 200.3097 200.5474 200.5474 202.1248
   202.1248 202.3612 202.8710 202.9138 202.9138 203.2299 203.7579 203.7579
   204.1299 204.3172 204.3172 204.3269 204.4984 204.4984 204.5005 204.9806
   204.9806 205.6899 206.1348 206.3822 206.3822 207.0422 207.0422 207.3874
   207.5188 207.5188 208.0818 208.7880 208.7880 209.0239 210.0655 210.0655
   210.5928 210.7439 210.7439 211.8915 211.9812 211.9812 214.4569 214.6909
   214.6909 214.8218 214.9754 214.9754 215.0817 215.8871 215.8871 215.9589
   216.5299 216.8658 216.8658 217.3178 217.3521 217.3521 217.6561 217.6561
   217.9713 217.9713 217.9864 218.0540 218.9145 218.9145 218.9251 219.5760
   219.5760 219.6418 220.7477 220.7477 220.9306 221.8369 222.2750 222.2750
   223.9660 223.9660 224.2389 224.3017 224.3314 224.3314 224.3890 224.6572
   224.6572 225.0443 225.2890 225.2890 225.8316 226.1744 226.1744 226.3160
   226.4719 226.9461 226.9461 227.7707 227.7707 227.8332 229.2952 229.2952
   229.5094 229.5094 229.6006 229.8761 229.9194 229.9194 230.4807 230.6058
   230.6058 231.3532 231.3532 231.7217 232.2501 232.2501 232.6111 233.3507
   233.8167 233.8167 233.8417 233.8417 233.9498 234.0636 234.0717 234.0717
   234.1842 235.1795 235.1795 235.4227 235.7675 235.7675 235.7824 236.9208
   236.9208 237.0744 238.4617 238.4617 238.4728 239.0807 239.0807 239.4807
   240.0033 240.0033 240.4306 241.3168 241.3699 241.3699 242.1144 242.1144
   242.3716 243.7137 243.7137 244.1002 245.3533 245.3764 245.3764 246.0145
   246.0145 246.0794 246.2112 246.2112 246.3623 246.5499 246.5835 246.5835
   247.6742 247.7154 247.7154 248.6830 248.6830 248.7339 251.3865 251.3865
   251.8926 252.1750 252.1750 252.5655 253.0040 253.2343 253.2343 253.4624
   253.4624 253.5299 253.5485 253.5485 253.8152 255.3906 255.3906 256.1357
   256.1357 256.3794 256.6746 258.0203 258.0203 258.2353 258.6813 258.6813
   258.9069 258.9069 259.0603 259.1382 259.9281 259.9483 259.9483 260.1744
   260.1744 261.0163 261.0163 261.0313 261.2314 261.5472 261.5472 262.1538
   262.1731 262.1738 262.1738 262.6215 262.6979 262.6979 263.3962 263.5472
   263.5728 263.5728 263.9270 263.9270 264.9095 264.9095 265.1793 265.2351
   265.2351 266.0186 266.3533 266.3533 266.9355 267.4765 267.4765 267.6970
   268.0781 268.0781 268.1752 268.2610 268.8724 268.8724 268.9864 269.5062
   269.5062 269.5804 269.7339 269.7716 269.7716 269.9759 270.3031 270.3031
   270.4305 271.1669 271.1669 271.3322 271.3322 271.5321 271.9370 271.9370
   272.7745 272.7745 273.1051 273.1602 273.1602 273.2288 273.7925 273.7925
   273.8779 274.2190 274.2190 274.2325 274.3404 274.4762 274.4762 275.1400
   275.1400 275.1761 276.3596 276.3596 277.3977 277.6887 277.6887 277.9582
   277.9582 278.0005 278.0466 278.0932 278.0932 278.1736 278.5482 278.6915
   278.6915 278.7107 278.9366 278.9366 279.0438 279.3135 279.3135 279.6400
   279.6400 279.6617 279.6997 280.5247 280.6044 280.6044 281.2922 281.2922
   284.8873 284.8873 285.1875 285.4536 285.4536 285.5090 285.8742 285.8742
   286.3004 287.3328 287.3328 288.0092 288.4270 288.4270 288.8339 289.0192
   289.0192 289.0251 289.4095 289.4701 289.4701 291.5744 291.5744 292.0257
   292.4142 292.4142 292.5383 293.0683 293.0683 293.1825 293.1825 293.2707
   293.5606 293.9891 293.9891 294.1950 294.5656 294.7244 294.7244 294.8800
   294.8800 294.9609 295.0372 295.1967 295.1967 295.3458 295.3458 295.4131
   295.4613 296.6943 296.6943 298.0209 298.1095 298.1095 298.5041 298.5041
   298.6203 299.9839 299.9839 300.0264 300.7472 300.7472 301.0236 301.3447
   301.3447 302.0312 302.2203 302.2203 302.5169 302.5464 302.5464 302.5686
   302.9223 302.9223 303.9974 304.0529 304.0529 304.0567 304.2106 304.2106
   304.3554 304.4085 304.4115 304.4115 305.6672 305.8361 305.8361 306.0687
   306.0984 306.0984 306.1870 306.1870 306.3574 306.6481 306.6503 308.6948
   308.6948 308.9926 308.9926 309.5338 309.5338 309.8654 310.1690 310.7062
   310.7062 310.7169 312.4079 312.4079 312.4273 312.5009 312.5009 312.6180
   313.9954 313.9954 314.9812 314.9812 314.9976 315.0937 315.4440 315.4440
   315.6333 316.1532 316.2059 316.2059 316.3304 316.3304 316.3791 316.8227
   316.8227 317.0163 317.2211 317.3253 317.3253 317.9726 317.9726 318.2474
   318.4016 318.4016 318.5125 319.1276 319.1276 319.3123 319.4561 319.5013
   319.5013 320.2008 320.2069 320.2069 321.4996 321.5901 321.5901 322.8029
   322.8029 322.8679 324.5233 324.6406 324.6406 325.2681 325.2681 325.3459
   325.4159 325.4159 325.9985 326.0817 326.0817 326.1199 327.0407 327.0407
   327.0775 327.1739 327.1808 327.1808 327.8780 327.9189 327.9189 328.1496
   328.8374 328.8374 329.0084 329.1560 329.1560 329.1801 330.2468 330.2468
   331.1841 331.1841 332.2916 333.3953 333.3953 333.8575 333.8575 334.1545
   334.7941 334.9491 334.9491 335.0994 335.0994 335.1109 335.3082 335.3282
   335.4157 335.4226 335.4226 336.1227 336.1227 336.4621 336.4621 336.7326
   336.7921 336.7921 337.0177 337.1779 337.2020 337.4017 337.4017 337.6707
   337.6707 337.7570 337.8144 338.3728 338.3728 338.5090 338.5090 338.5503
   338.5503 338.6150 338.8534 339.3260 339.3260 339.3743 339.5162 339.5162
   339.6740 339.7139 339.8655 339.8655 340.7524 340.7843 340.7843 340.9606
   340.9606 340.9726 343.2848 343.2848 343.4361 343.4573 343.4573 343.5053
   345.4399 345.4399 345.5895 346.2984 346.2984 346.2991 347.3728 347.3728
   347.4013 347.6093 347.6093 347.6653 347.6806 347.7407 347.7407 347.9523
   347.9523 348.0891 349.0547 349.0547 349.0986 351.4244 351.4244 351.6299
   351.6299 351.6353 351.6759 351.6759 351.7506 351.9097 352.1492 352.1492
   352.3300 352.3532 352.3711 352.3711 353.8134 353.8491 353.8491 354.0267
   354.0267 354.0890 354.0895 356.8617 357.3118 357.3118 357.7282 357.7282
   357.9955 357.9955 358.2178 358.2483 358.5890 358.5890 358.6910 358.7413
   358.7413 358.7929 358.7929 359.0273 359.1094 359.1216 359.1216 359.4666
   359.4666 359.7920 360.2964 360.2964 360.4170 360.4175 360.4825 360.4825
   361.0880 361.0880 361.2056 361.2199 361.2199 361.3561 361.7902 361.8457
   361.8457 362.0763 362.0763 362.0954 362.3333 362.3333 363.0691 365.9101
   365.9101 366.0889 366.1714 366.4217 366.4217 366.4373 366.9569 366.9569
   367.5891 367.5891 367.5928 368.0844 368.0844 368.3849 368.3849 368.4000
   368.5332 368.8902 368.9854 368.9854 369.0976 369.0976 369.1500 369.3216
   369.3702 369.3702 369.4342 369.4342 369.4898 370.9599 370.9599 371.0344
   372.8490 372.8490 372.8680 373.7196 373.7196 374.4723 374.4723 374.4843
   374.6463 374.8976 374.8976 374.9129 375.0101 375.0412 375.0412 375.1494
   375.1494 375.1655 375.2330 375.2436 375.2436 376.0226 376.0226 376.4239
   376.4239 376.5934 376.7288 376.8621 377.2314 377.2314 377.6230 377.6650
   377.6650 377.9427 377.9427 378.0334 379.3897 379.3897 379.6081 379.6081
   379.6110 379.6839 379.6839 379.6950 379.8229 381.8658 382.3074 382.3074
   384.1760 384.1760 384.1913 385.1847 386.1151 386.1246 386.1246 386.3422
   386.3422 386.3854 387.3335 387.3335 387.5638 387.8557 387.8557 387.8937
   387.9825 387.9825 388.0130 388.4865 388.4865 388.8678 388.8679 388.9077

          k = 0.5000-0.5000 0.5000 (  2692 PWs)   bands (ev):

   -52.1560 -52.1560 -52.1560 -52.1557 -52.1557 -12.5229  -1.6974  -0.6713
    -0.6713   7.2840   9.8959   9.8959   9.9844  13.0039  13.7147  13.7147
    15.0828  15.8730  15.8730  21.2337  21.4001  22.1306  22.1306  22.3697
    22.3697  25.5590  25.5590  25.8782  26.4719  26.5680  27.2027  27.2027
    28.9611  31.2366  31.7075  31.7075  31.7841  31.7841  32.4782  34.1263
    36.8643  36.8643  38.3641  38.3641  39.2315  40.6121  40.6121  42.0010
    42.0010  42.0425  43.4607  43.4607  43.6799  43.8806  44.5811  44.5811
    46.5162  48.5599  49.2036  49.2036  49.9616  49.9616  50.5057  50.5057
    50.6544  51.1406  51.1406  51.1777  51.4998  54.2544  54.3124  54.5217
    54.5217  54.5558  54.5558  57.5436  58.0347  58.5887  58.5887  58.8035
    59.1222  59.1222  61.7229  61.7229  62.4336  62.4336  64.2171  66.4329
    66.5473  66.6836  66.6836  67.0405  67.5813  67.5813  68.0092  69.3588
    69.3588  70.3495  71.3796  71.3796  71.3897  72.5063  72.7353  72.8672
    72.8672  72.9758  72.9758  73.2997  74.1572  74.1572  74.4182  74.4182
    76.8305  78.4550  78.7657  78.7657  80.1088  80.1088  80.3229  80.5916
    80.8229  80.8229  80.9100  80.9472  80.9472  82.1487  82.1487  84.1656
    84.1656  84.3421  85.4351  86.1032  86.1032  86.4084  86.4084  86.7719
    88.9773  89.3377  89.3377  89.4484  89.4484  89.4835  90.5137  91.0483
    91.0483  91.5322  92.1255  92.1255  92.9214  92.9214  93.4060  93.4060
    93.5401  93.6187  94.7977  96.7996  97.2547  97.2547  97.5480  97.5480
    97.6616  99.7424  99.7424 100.4737 100.5287 100.9374 101.4979 101.4979
   101.6015 101.6015 101.8147 101.8147 102.3631 105.5808 106.2091 106.2091
   106.2616 107.0607 107.7218 107.7218 109.0132 109.2969 109.2969 109.3973
   109.3973 109.6284 111.4571 111.4571 112.4752 112.4752 113.8241 114.4637
   114.6863 114.6863 114.7352 114.7352 114.8566 115.3261 115.3261 115.5664
   115.7907 115.7907 116.2000 116.2000 116.2807 116.5973 116.5973 116.8069
   116.9603 116.9603 117.0150 117.4631 117.7413 117.7740 117.7740 121.1985
   121.3657 121.3657 121.4395 121.4395 121.8175 123.2890 123.2890 123.5461
   123.6236 123.6236 123.7036 123.9660 123.9660 124.0271 124.5354 124.5354
   126.4628 128.4426 128.5680 128.5680 129.4188 129.8250 129.8753 129.8753
   130.1364 130.1364 130.1909 130.2304 131.0325 131.1468 131.1468 133.5111
   133.9623 133.9623 133.9788 134.2065 134.3107 134.3107 135.0081 135.0081
   136.6519 136.6519 137.4534 137.4534 138.6580 138.7326 138.7693 138.7693
   139.0348 139.0348 139.4561 139.5512 139.6048 139.6827 139.6827 139.9199
   139.9199 141.5340 143.0286 143.0286 144.0014 147.1840 147.1840 147.6878
   147.7955 148.0800 148.0800 148.0942 148.0942 148.2334 149.0874 149.2225
   149.2681 149.5279 150.1205 150.1205 150.1206 150.1206 150.4753 150.4753
   150.8855 152.0410 152.0410 153.1750 153.1750 153.5743 153.5743 153.8186
   154.2431 154.2431 154.4837 155.4585 155.8816 155.8816 156.1190 156.1190
   157.0241 157.1499 157.1499 157.6232 157.9459 158.0876 158.1001 158.1719
   158.1719 158.2741 158.2741 158.3387 158.3387 158.3600 158.3600 158.4924
   159.0207 159.0207 159.2394 159.2418 160.3041 160.3041 161.2197 161.5013
   161.5013 164.7020 164.8562 165.8086 165.8631 165.8631 166.0510 166.0510
   166.4456 166.8203 166.8203 166.8274 166.8274 168.0444 168.7163 169.2959
   169.2959 169.5044 169.8501 169.8501 169.9731 169.9731 170.2647 170.7685
   170.7685 170.8058 171.1183 171.3577 171.7232 171.7232 172.0277 172.0277
   172.8594 172.8594 172.8792 172.8792 173.0653 173.1694 176.8009 176.8009
   178.4052 178.4052 178.5646 179.8962 179.9426 179.9426 179.9456 180.1356
   180.1834 180.2032 180.2032 180.2396 180.2396 180.4728 180.6552 180.6552
   180.6590 181.4818 181.4818 183.1547 183.1547 183.6022 183.9191 183.9191
   184.0515 185.5897 185.5897 186.0045 186.2315 186.2315 186.8274 186.9072
   187.3488 187.3488 187.4189 187.4189 187.4955 188.2368 189.4097 189.4097
   190.0242 190.0242 191.5429 191.7343 191.9776 191.9776 192.4850 192.4850
   193.1566 193.2980 193.2980 193.3893 193.4574 193.4574 194.7991 195.1758
   195.2451 195.5846 195.5846 196.2335 196.2335 196.3857 196.3857 196.6937
   196.6937 196.7162 197.6772 197.8042 197.8042 197.8197 198.7337 198.7337
   199.2449 199.2884 199.2884 199.2903 199.3123 199.3123 200.5363 202.8568
   202.8722 202.8769 202.8769 202.8836 202.8836 203.7953 203.7953 203.8266
   203.8426 203.8426 203.8447 204.8870 204.8870 205.3875 205.3875 205.6737
   206.5923 206.5923 206.9440 207.2207 207.5897 207.6327 207.9483 207.9483
   208.0789 208.0789 209.8290 209.8290 210.2375 211.6790 211.6790 212.3594
   212.5211 212.5211 212.7684 212.7684 212.8614 212.8639 213.9210 214.5280
   214.9905 214.9905 215.4886 215.4886 215.5362 215.6638 216.9241 216.9241
   217.9922 218.9342 218.9342 219.0243 219.0243 219.3260 219.6925 219.9375
   219.9496 219.9496 219.9795 219.9795 220.3743 220.3785 220.5214 220.5214
   220.5757 220.5757 221.2603 221.2932 221.2932 221.5503 221.7261 221.7261
   221.9817 222.0422 222.2186 222.2186 223.4979 223.4979 223.5607 223.5788
   223.5788 223.5845 223.8870 223.8870 224.7202 224.7202 224.7394 224.7611
   226.4254 226.4254 227.0515 227.2483 227.2483 227.2659 227.6141 227.6141
   228.7730 228.9571 228.9611 228.9611 228.9741 229.5796 229.5796 229.7978
   229.8173 229.8173 229.9052 230.0587 230.0587 230.2042 230.2120 230.2350
   230.2350 231.2844 231.2844 234.0089 234.0089 234.0168 234.9451 235.4596
   235.4596 237.1446 237.1446 237.3734 237.4042 237.4042 237.4524 237.8599
   239.1202 239.1202 239.3395 239.3395 241.7818 241.7818 242.0227 242.0227
   242.0930 242.0961 242.2855 242.2855 242.7042 242.7131 243.0378 243.0378
   243.2304 243.8786 243.8786 243.8830 243.8830 243.9011 243.9011 243.9379
   244.1778 244.1778 244.5633 244.5685 244.8632 246.6019 246.7708 246.7708
   248.6685 248.6685 250.1569 250.1569 250.2414 250.3980 250.4524 250.4524
   250.5098 250.5365 250.7611 250.7611 252.0018 252.0018 252.2341 252.2341
   252.2923 252.2923 252.2958 252.2958 254.2673 254.2691 254.2691 254.3147
   255.1826 255.9316 255.9316 256.1773 258.4122 258.4125 258.4125 258.4360
   258.7454 258.7454 258.8969 258.8969 258.9135 258.9135 259.7705 259.8886
   259.8886 260.2070 260.2650 260.2650 260.9054 261.1466 261.1623 261.1623
   261.5541 261.5541 262.0155 262.0242 262.0242 262.0347 262.8703 263.4263
   263.4263 263.5217 263.5217 263.7372 264.4699 264.4699 264.6310 264.7766
   264.8018 264.8018 264.9973 265.0064 265.0064 265.1998 265.2733 265.2733
   266.9698 266.9704 267.0949 267.0949 267.1165 267.1165 267.8872 267.8872
   267.9027 267.9027 267.9162 267.9271 270.3708 270.4072 270.4072 271.0816
   271.0816 271.1159 271.2468 271.2468 271.3315 271.6225 271.6225 271.8615
   272.8947 272.8992 272.8992 272.9839 272.9973 272.9973 273.8895 273.8895
   274.1648 274.9284 274.9284 276.1081 276.1081 276.1465 276.2844 276.3104
   276.3363 276.3363 276.3475 276.3475 276.3580 276.7046 276.7046 276.7063
   278.6306 278.6306 278.8694 278.8705 278.9061 278.9061 280.0033 281.4206
   281.4206 281.6439 281.6439 281.6599 281.6759 281.7787 281.7787 281.7886
   281.7908 281.8056 281.8056 282.8957 282.8957 283.1749 283.9465 283.9465
   284.3510 284.3510 285.6982 285.6982 285.8659 285.9433 285.9657 285.9657
   286.5055 286.5055 286.5804 286.6023 286.6149 286.6198 286.6198 286.6265
   286.6661 286.6661 287.9242 288.1677 288.1677 288.8192 288.8192 289.4294
   289.4984 289.4984 290.4279 291.1940 291.1940 291.3366 292.0612 292.0746
   292.7831 292.7831 292.8717 292.8717 292.8755 292.9321 294.8116 294.8116
   294.8157 294.8157 297.5366 297.5366 298.8463 298.9017 298.9017 299.0282
   299.0643 299.0643 299.4133 299.4853 299.4853 299.4987 300.0246 300.0913
   300.0913 300.2675 300.2675 300.4718 300.4718 300.4788 300.4788 300.5131
   300.5168 300.5969 301.7826 301.7826 301.8383 301.8399 301.8399 301.8635
   303.7879 303.7879 304.4659 304.4659 304.4722 304.5163 305.4274 305.4274
   305.7212 305.7447 305.8700 305.8700 306.9444 306.9444 307.0814 307.3224
   307.3434 307.3434 309.0283 309.0283 309.0283 309.0283 309.0417 309.0570
   309.2583 309.6985 309.6985 310.2190 310.2190 310.3246 310.5932 310.5932
   311.4496 311.4496 311.8562 312.2184 312.2561 312.2561 312.3240 312.3240
   312.3243 312.3365 312.3716 312.6881 312.6881 312.7212 312.7212 312.7881
   314.8234 314.8234 315.0101 315.0102 315.0609 315.0609 316.0882 316.0882
   318.0571 318.0693 318.0693 318.0701 320.4727 321.0261 321.6677 321.6677
   322.1825 322.1825 322.1862 322.1964 322.2056 322.2056 322.3864 322.3923
   322.4333 322.4333 322.9721 322.9721 322.9749 322.9749 323.5484 323.5555
   323.6131 323.6131 325.1424 325.3365 325.3643 325.3643 325.7453 325.7453
   326.2270 326.4398 326.4398 326.7517 326.7550 327.0503 327.4215 327.4215
   327.5400 327.5400 327.9884 328.0105 328.0105 328.1541 328.1762 328.1762
   328.5230 328.5230 328.6183 328.6183 328.9545 328.9723 329.2652 329.3092
   329.4788 329.4788 329.5023 329.5023 329.7590 329.7590 329.7621 329.7621
   329.7655 329.7750 330.1148 330.1148 330.1780 330.1792 330.1792 330.1970
   334.4782 334.4782 334.8173 336.7281 336.7281 336.7701 336.7701 336.7842
   336.8811 337.0464 337.0464 337.1652 337.1743 337.1743 337.1766 337.2125
   337.2141 337.2571 337.2571 337.2607 337.2607 338.0728 338.0728 338.4640
   339.1640 339.1640 339.1888 339.6558 339.8494 339.8494 340.6840 340.6840
   341.1545 341.1677 341.1880 341.1880 342.1260 342.9691 342.9691 342.9866
   342.9962 342.9962 343.0586 343.3820 343.3820 343.5934 343.6476 343.6513
   343.6614 343.6614 344.1311 344.1311 344.5422 344.5422 345.8955 345.9147
   345.9151 345.9151 345.9296 345.9296 347.9394 347.9394 347.9729 347.9729
   348.8044 348.8046 350.2905 350.2905 350.5467 350.5467 350.6571 350.6593
   350.6593 350.6650 350.7052 350.7096 350.7362 350.7362 351.5114 351.5376
   351.5376 351.5904 351.5904 351.6523 351.7650 351.7659 352.5457 352.5457
   352.5819 352.5819 353.5908 353.5908 353.5932 353.5932 353.8501 353.8505
   354.5732 354.5732 354.7638 354.7638 354.7768 354.7970 357.4031 357.4031
   357.6300 357.9084 357.9214 357.9214 361.9172 361.9172 362.3363 362.3363
   362.8601 363.1822 363.1900 363.1900 363.3763 363.3835 363.3835 363.3856
   363.3875 363.4133 363.4133 363.5275 363.6446 363.6446 363.8953 364.0094
   364.0094 364.0427 364.0908 364.0908 364.1514 364.1951 364.1951 364.2043
   364.2043 364.4602 364.9935 365.0381 365.0381 365.0855 365.0929 365.0929
   368.2328 368.2328 368.5662 368.5662 368.6076 368.7254 368.7334 368.7334
   368.7792 369.0105 369.0382 369.0599 369.0599 369.2021 369.2021 369.2132
   369.2132 369.3111 369.3111 369.3350 369.3704 369.3981 369.4926 369.4926
   369.5449 369.6397 371.1667 371.1667 371.2350 371.3578 371.3578 371.3745
   372.7220 372.7220 372.7433 372.7433 373.1192 373.1207 373.1427 373.1427
   373.1561 373.1561 374.5127 374.5127 374.5170 374.5334 374.5334 374.5528
   374.5977 374.6028 374.6028 374.6070 374.6248 374.6248 378.3714 378.3714
   378.5267 378.5396 378.5724 378.5724 380.3228 380.3228 380.3372 380.3372
   380.3494 380.3519 383.2225 383.2225 383.3609 383.3609 383.6198 383.8592
   383.8792 383.8792 383.9154 383.9285 383.9367 383.9367 385.7424 385.7424
   386.1459 386.1941 386.1941 386.1953 386.2065 386.2065 386.2536 386.2537
   386.2698 386.2698 388.4404 388.4404 389.2362 389.3765 389.4026 389.4026

          k = 0.0000 0.2500 0.0000 (  2693 PWs)   bands (ev):

   -52.1560 -52.1560 -52.1560 -52.1558 -52.1557 -12.6277  -0.7327  -0.5939
    -0.5939   6.1435   9.5780  10.4350  10.4350  11.1068  12.2593  14.0817
    15.2140  15.4294  15.4294  18.6648  21.6171  21.6171  22.1533  23.3126
    25.0406  25.1748  25.1748  27.3964  28.5294  28.5294  29.5786  30.2649
    30.8610  32.3150  32.3192  32.3192  34.2700  34.2884  34.2884  36.1889
    36.2820  36.2820  37.1196  37.5919  37.8432  38.4991  39.2636  39.2636
    39.5096  40.5350  40.5350  40.5712  41.1389  41.1389  41.4798  42.2549
    43.1117  43.4043  43.4043  44.9794  46.9863  47.6323  47.6323  48.4827
    49.0898  54.3862  55.0256  55.0256  55.4660  55.4660  56.1864  56.4900
    59.3045  60.1584  60.8763  60.8763  61.7134  61.9007  61.9007  62.3035
    63.0635  63.5814  63.5814  63.5885  64.0141  64.9104  65.5524  67.0035
    67.0563  67.0563  67.6725  67.6725  67.8063  68.3376  68.4029  68.7027
    68.9020  68.9020  69.4038  69.4038  70.7494  71.4050  72.1726  72.1726
    72.4227  73.0834  73.2970  73.2970  73.8240  73.9913  74.4894  74.4894
    75.1109  75.1450  76.0683  77.0900  77.0900  78.4755  78.4755  78.5530
    79.4047  79.9053  79.9293  79.9293  80.0111  80.7497  80.8637  81.4667
    81.7138  81.7138  85.3572  86.4761  86.4761  86.8570  86.9735  86.9735
    87.5189  88.2910  88.7527  88.9412  88.9412  89.3737  89.3737  89.6026
    90.3970  90.4313  90.8047  91.2624  91.2624  92.4489  92.4489  92.4734
    92.8201  94.5254  94.8086  94.8086  95.4490  95.8476  95.9253  96.5765
    96.5765  97.2825  99.3207  99.3459  99.3459  99.4570  99.6436 101.0431
   101.2826 101.5648 101.5648 102.3418 102.3418 103.6732 104.8562 104.8562
   105.5107 107.3434 108.9266 108.9266 109.9218 111.2887 111.2887 111.7190
   112.6989 113.2739 113.7536 113.7536 114.2705 114.3642 114.5283 115.1750
   116.6990 117.1173 117.1173 117.3053 117.3053 117.5790 117.9285 118.5935
   118.7987 118.7987 119.8215 119.8847 119.8847 119.9100 120.0725 121.0677
   121.2009 121.2009 121.7634 121.7634 121.9686 122.2089 122.2621 122.2637
   122.8174 122.8174 122.9508 124.1218 124.1218 124.7433 124.9080 124.9080
   125.0665 125.5313 125.9278 125.9358 125.9358 126.0250 126.7311 126.8040
   126.8040 127.0601 127.1516 127.2271 127.2271 128.6522 128.8137 128.8137
   129.0508 129.3576 130.1351 130.1351 130.5225 130.7594 131.5303 131.6740
   131.6740 131.9038 132.0225 132.2803 132.6112 132.9917 132.9917 133.3643
   133.3643 133.6987 134.4409 135.6814 135.8782 135.8782 136.3760 136.7040
   137.0641 137.0641 137.1742 137.4996 137.4996 138.5510 138.5783 139.3395
   139.7499 140.1044 140.2368 140.2368 141.9530 141.9530 142.2247 142.2247
   142.4760 142.7263 143.2668 143.8661 144.5057 144.7030 144.8587 144.8587
   145.3671 145.3671 145.5095 145.9881 146.3126 146.3126 146.8027 147.0468
   147.4944 147.5191 147.5191 148.3848 151.2486 151.2486 152.1497 152.8654
   152.9824 152.9824 153.0367 153.2615 153.2687 153.2687 153.5298 153.8178
   154.5647 154.5647 154.7514 154.8018 156.7553 156.7553 156.7784 156.8571
   158.3544 158.9397 158.9397 159.9426 160.8196 160.9487 160.9515 161.0586
   161.0586 161.1673 161.1810 161.1810 161.7836 162.7380 162.7380 163.0128
   163.2971 163.9232 164.8718 166.7456 166.7456 167.2053 167.4767 167.7341
   167.7341 168.5422 168.5422 170.1926 170.1926 171.1665 171.1952 171.8975
   172.0088 172.0906 172.0906 173.1205 173.1205 173.4872 173.7112 173.8805
   173.8805 176.0984 176.2123 176.4125 177.2352 177.2352 177.4261 177.9679
   178.1193 178.1733 178.1733 179.0245 179.1156 179.3945 179.3945 179.9246
   180.4334 180.4334 180.8297 180.8471 181.0485 181.2238 181.2238 181.8037
   181.8626 181.9836 182.6070 182.6070 182.7720 182.7720 182.8237 184.5647
   184.7308 184.7308 184.7772 184.8301 185.5837 185.9341 186.3891 186.5847
   186.5847 186.7659 186.7659 186.9802 187.2266 187.9262 187.9492 187.9492
   188.2254 189.4021 189.4946 189.4946 189.6373 189.6373 189.6433 189.7495
   190.6972 190.6972 190.7465 190.8696 191.8289 192.3136 192.4602 192.4602
   192.8806 192.9913 192.9913 193.6997 193.9276 193.9276 194.8123 194.8123
   194.8231 194.8683 195.4674 195.5723 195.5723 195.7021 195.7220 196.1643
   196.3334 196.3524 196.3524 197.1123 198.1718 198.9939 198.9939 199.0008
   199.2057 199.2057 199.4717 199.4755 199.9912 199.9912 200.1594 200.5940
   200.5940 200.7145 200.8129 201.4446 201.4446 201.4865 201.5060 202.3495
   202.3495 202.4958 203.0050 203.6211 203.9787 204.0932 204.0932 204.1726
   204.4503 204.4800 204.4800 204.4800 204.5325 205.1906 205.2162 205.2162
   205.4020 205.8758 205.8758 206.1988 206.3833 206.3833 206.4467 206.5656
   206.8053 206.8290 206.8290 208.7401 208.8221 208.9314 208.9314 209.0812
   210.1526 210.8377 210.8377 211.0827 211.7051 211.8494 211.8494 211.8881
   212.7562 212.7598 212.7598 213.0148 213.0149 213.4726 213.4726 213.7122
   215.2790 216.2524 216.2524 216.7056 216.7435 216.7505 216.7505 217.4088
   217.7067 217.9319 217.9390 217.9390 219.1465 219.1465 219.2466 219.2504
   219.5539 219.8497 219.9026 219.9026 220.3492 222.9157 223.0123 223.4079
   223.8484 223.8484 223.8675 223.8675 224.3651 224.7163 225.0749 225.0749
   225.9683 225.9683 227.1942 227.2143 228.0060 228.6844 228.6844 228.9260
   230.7998 231.1351 231.1351 231.1473 231.8512 231.8512 232.6730 232.8064
   232.8340 234.8762 234.9999 234.9999 235.1747 235.8167 235.9850 235.9850
   236.2008 236.3459 236.9443 236.9443 237.0357 237.4354 237.7028 237.9975
   237.9975 238.4785 239.0828 239.0828 239.1524 240.4307 240.4307 240.5346
   240.6609 241.0118 241.0286 241.0495 241.0495 241.1364 241.1970 241.1970
   241.2656 242.7062 243.5966 244.0987 244.0987 244.1358 244.1842 244.3278
   244.3278 245.8748 246.1960 246.7440 246.7440 248.2762 248.3386 248.3386
   248.3731 249.2808 249.6012 249.6012 249.7954 249.9212 249.9212 249.9384
   250.0830 250.6399 250.8693 250.8693 251.1008 251.5500 251.5595 251.5595
   251.6856 252.0746 252.0746 252.0790 252.0881 252.1263 252.9862 252.9862
   253.1828 253.1828 253.3821 253.5317 253.6205 253.9880 254.2781 254.2781
   255.0843 255.4022 255.4022 256.2599 256.5982 256.6038 256.7259 256.7259
   257.2031 257.4623 257.5754 257.5754 257.6986 258.5471 258.5472 258.7225
   258.7960 258.8226 258.8226 259.0762 259.0762 260.5089 260.5689 260.5689
   260.5896 260.6184 260.9627 261.1028 261.1028 261.6150 261.6959 261.7381
   261.7381 261.7803 261.9674 261.9674 262.0077 263.6025 263.6202 264.3533
   264.3533 265.4347 267.7065 267.7065 268.5482 268.6642 268.6642 268.6869
   268.6925 268.8066 268.8448 268.8669 268.8669 269.2051 269.3185 269.3185
   269.4810 270.5709 271.0413 271.0413 271.3604 271.6230 272.0888 272.5483
   272.5483 273.1085 273.3710 273.6057 273.6057 273.7289 274.2845 274.4175
   274.4530 274.4530 274.5976 275.0454 275.0454 275.1798 275.3349 275.3851
   275.3851 275.4470 275.5850 276.0833 276.0833 276.7564 278.6208 278.6920
   278.6920 278.7867 278.8554 278.8752 278.8752 278.9751 280.2591 280.2724
   280.2724 280.2777 280.8030 281.3146 281.3146 281.8750 281.9246 281.9246
   281.9283 281.9728 282.0520 282.0520 282.0747 282.8596 282.8596 282.9612
   283.0151 283.0725 283.1340 283.1340 283.1828 283.2227 283.2485 283.2485
   283.4090 284.9542 285.1649 285.1682 285.1682 285.2545 285.8879 286.2021
   286.2596 286.2596 286.2811 286.3686 286.3686 286.6194 286.8178 286.8723
   286.8723 288.5295 288.5295 288.5518 288.5671 289.3302 289.3302 289.7369
   289.8942 291.4489 291.6081 291.6081 291.7049 291.7680 291.8017 291.8017
   291.8304 292.3984 293.5606 293.5606 293.6634 293.8529 293.9028 293.9028
   294.0613 294.8149 295.0816 295.1963 295.1963 295.4669 295.6721 295.6721
   295.6904 295.6975 295.7177 295.7765 295.8032 295.8032 296.2549 296.2549
   296.2930 296.2993 296.5953 296.5953 297.1245 298.7195 298.8024 298.8024
   298.8735 299.3208 299.3208 299.8670 300.3039 300.3563 300.4477 300.4477
   300.6073 300.9238 300.9964 300.9964 301.0005 301.2025 302.5621 302.6122
   302.6122 302.6292 302.6801 302.7064 302.7064 302.8952 302.9541 303.1944
   303.2607 303.2607 303.5751 303.6101 303.6101 303.6231 303.7032 303.7032
   303.7090 305.2645 305.5379 305.6591 305.6774 305.6774 306.1394 306.2232
   306.2232 306.3173 307.1888 307.1888 307.1893 307.2282 307.2972 307.3814
   307.3814 307.4080 308.1879 309.2622 309.2622 309.8523 310.2899 310.2899
   312.3134 312.4259 312.5275 312.9147 312.9147 313.9281 313.9398 313.9398
   313.9856 314.0383 314.0869 314.0869 314.2623 316.7905 318.1389 318.1389
   318.5106 318.5313 318.5333 318.5333 318.6917 318.7498 318.9036 319.6056
   319.6056 320.3531 320.4817 320.4817 320.4836 321.4911 321.4911 322.6074
   322.6238 322.9419 322.9419 323.2073 323.5604 323.8310 324.0338 324.0338
   324.0426 324.0785 324.4267 324.4344 324.4344 325.4315 325.5102 325.5102
   325.5271 325.9377 325.9377 326.0129 326.5758 326.5801 326.5801 326.6039
   327.1111 328.7918 330.2878 330.5722 330.5722 330.5796 330.5804 330.7301
   330.7301 331.1957 331.3592 331.3800 331.3800 332.5524 334.3753 335.4287
   335.4287 335.6465 335.6465 335.7006 335.8033 336.0728 337.2726 338.1355
   338.1355 338.2169 338.3649 338.6071 339.3547 339.3547 339.3985 339.5977
   339.5977 339.7489 340.2187 340.5775 340.7428 340.7639 340.7639 341.3284
   341.3284 341.9389 342.3789 342.3789 342.4473 342.4567 343.6868 343.8541
   343.8541 343.8615 343.8861 344.1597 344.1597 344.9072 345.2443 345.4660
   345.4660 345.4688 345.4789 345.4811 345.4811 345.5190 346.1934 346.2072
   346.2214 346.2411 346.2583 346.2583 346.3656 346.3656 348.3397 349.4789
   349.4789 350.0864 350.3929 350.3929 350.8023 351.8329 351.9407 351.9450
   351.9712 351.9712 352.0047 352.0189 352.0189 352.3687 352.4069 352.8428
   352.8428 352.9438 352.9438 353.0447 353.0527 353.1129 353.1129 353.1185
   353.1507 353.2428 353.4460 353.4984 353.4984 353.5233 356.8057 356.8777
   356.9407 356.9500 356.9500 357.1009 357.1009 357.1397 357.1849 357.1849
   357.2071 357.2234 357.3419 357.4092 357.4092 357.4270 357.7584 357.8128
   357.8436 357.8436 358.7579 358.9957 358.9957 359.1078 361.4928 361.5119
   361.5119 361.5333 361.7555 362.0245 362.0245 362.1658 362.4759 362.8898
   363.0523 363.0523 363.7607 364.1862 364.2331 364.2670 364.2670 364.3850
   364.3850 364.4100 364.6245 364.7673 364.7673 364.8578 365.3221 365.3954
   365.5527 365.6327 365.6327 365.6565 365.6602 365.6602 365.6817 365.7088
   365.7088 366.2712 366.4501 366.7247 366.7247 366.8839 367.1174 367.5004
   367.5004 367.5780 367.7157 367.8240 367.8284 367.8284 367.8851 367.9798
   367.9798 367.9968 368.0438 368.1487 368.1487 368.1696 368.2234 368.2644
   368.3767 368.3767 369.1375 369.2334 369.2334 369.2986 369.5524 369.8264
   369.9567 369.9567 370.0997 370.5705 370.6151 370.6151 370.6980 372.0793
   372.1112 372.1112 372.1869 372.3592 372.3824 372.3845 372.3845 372.4608
   372.5144 372.5144 372.5686 373.4251 373.4404 373.4404 373.4437 375.5555
   375.5572 375.5717 375.5717 377.0428 377.0827 377.1970 377.3346 377.3346
   377.3541 377.3729 377.3729 377.6018 377.6018 377.8117 378.0283 378.0419
   378.0425 378.0547 378.0547 380.2620 380.2787 380.2787 380.2835 380.3523
   380.3926 380.4341 380.4341 381.9373 382.0422 382.0422 382.1034 382.2832
   382.3276 382.3276 382.4067 383.0260 383.0409 383.0612 383.0612 383.0667
   383.0919 383.0919 383.1010 384.3458 385.7155 385.7617 385.7617 385.8446

          k =-0.1250 0.3750-0.1250 (  2675 PWs)   bands (ev):

   -52.1560 -52.1560 -52.1560 -52.1558 -52.1557 -12.5914  -1.0571  -0.6581
    -0.6416   6.7800   9.1741  10.1555  10.6294  11.1654  12.4097  14.2872
    15.5823  16.4477  17.1244  18.9814  19.4276  20.5888  21.6402  22.9865
    22.9939  25.3805  26.2286  27.7494  28.9901  29.0494  29.7999  30.1014
    30.3341  31.4254  31.6996  32.0569  32.7553  33.8091  34.0514  34.6275
    35.7455  35.8088  36.6001  37.4950  37.6388  38.5258  38.8152  39.0696
    39.8002  40.2600  40.7954  42.2001  42.8169  42.9253  43.5167  44.2369
    44.7071  45.5444  46.4176  46.5769  47.5757  48.2469  49.9614  50.4247
    50.5473  51.8309  52.7081  52.8875  53.1811  54.7015  56.1131  57.3265
    57.3423  57.3878  58.9637  59.3259  59.4885  59.8007  60.8423  61.3598
    62.4688  62.7239  63.0151  63.2307  63.3290  63.6375  63.6438  64.7197
    66.0666  66.3573  66.9345  67.5970  68.1310  68.1750  69.1251  69.4905
    69.7663  69.8833  70.2243  70.8671  71.9327  72.1577  72.9523  73.1555
    73.3775  73.7907  73.9667  73.9967  74.2353  74.5230  74.7092  74.9463
    75.4804  76.5154  77.7286  77.7696  77.9440  78.2401  78.9192  79.3120
    79.6730  79.8015  80.0134  80.8397  80.9053  81.3499  81.9159  82.5720
    83.0723  83.1523  84.2995  84.3248  84.6149  84.6738  85.1965  85.6013
    86.2601  86.3869  87.3961  88.3299  88.4948  88.9143  89.2361  89.9211
    90.1299  91.3847  91.5389  92.1237  92.7355  93.3136  93.5617  94.1117
    94.7042  94.8829  95.4787  95.6461  96.5054  96.6297  96.9668  97.0993
    97.3769  98.8527  99.2156  99.4549 100.0623 101.0780 101.8867 102.5379
   103.3614 103.5371 104.1631 104.6790 105.1420 105.1945 105.7153 105.8268
   106.6581 106.7479 107.5309 108.2254 108.8761 109.6788 109.8053 110.4435
   110.7501 110.8667 111.2128 111.5442 111.8962 112.0093 112.5671 112.7488
   113.0210 113.1123 113.8539 114.2455 114.4003 115.3337 115.4512 115.7552
   116.7776 116.7906 117.7375 118.2160 118.3646 118.4182 118.5829 119.0549
   119.1465 119.4167 119.7725 120.9305 121.1978 121.2584 121.6730 121.7513
   122.1152 122.8699 123.2798 124.1497 124.5309 124.5328 124.8786 124.9021
   125.3214 125.3293 125.3482 125.8330 126.0554 126.2655 127.0728 127.0789
   127.4532 127.7386 127.8036 128.3507 128.7798 128.9990 129.3739 130.9201
   130.9448 131.4288 131.9990 132.0008 132.5126 132.7718 132.8928 133.1937
   133.6615 133.9662 134.0709 134.2506 134.3920 134.4298 134.6603 135.1859
   135.4208 135.8431 135.9427 136.1245 136.5333 136.5438 137.0682 137.1292
   138.3753 138.5008 138.5840 138.8313 139.0423 139.0652 139.1971 139.7921
   140.6879 140.9121 141.0113 141.1039 141.5160 141.8057 142.0569 142.2167
   142.4324 142.6320 142.6906 142.8233 143.2620 143.3740 144.3546 144.7598
   144.8446 145.1835 145.3136 145.7566 145.8463 145.8794 146.1432 146.4868
   148.3941 148.5506 149.0953 149.5193 149.8949 150.6044 151.1274 151.8123
   152.4772 152.5280 152.9883 154.4773 155.0854 155.0919 155.1669 155.5316
   155.7294 155.9963 156.5681 156.8300 157.0534 157.6082 158.5563 158.7804
   159.1719 159.6504 159.8278 159.8448 159.8512 160.5252 160.8490 161.4106
   161.5249 162.0346 162.1963 163.0827 163.1582 163.4894 163.6922 164.0023
   164.4172 164.7690 165.4497 165.4585 166.0119 166.4289 166.4382 166.7255
   167.2053 168.1240 168.7597 169.2491 169.7708 169.9066 169.9871 170.4337
   170.5754 170.7765 171.2655 172.0300 172.3343 172.5086 172.6924 172.8371
   172.8704 173.3200 173.3369 173.6306 173.8188 174.8231 174.9029 175.8432
   176.0904 176.4071 176.9064 177.3012 178.0966 178.2714 178.5003 178.9879
   179.0760 179.4173 179.6194 179.7370 179.9305 180.1598 180.2164 181.0804
   181.3534 181.4377 181.6534 182.0434 182.4372 182.5691 182.5857 183.1274
   183.1412 183.5392 183.9222 184.6918 185.1792 185.4300 185.5721 186.4650
   186.5513 186.7447 186.8806 187.3928 187.7799 188.0852 188.0888 188.3250
   188.4776 188.6808 189.2266 189.8493 189.9330 189.9874 190.0777 190.2690
   190.3339 190.5070 190.6028 190.9856 190.9943 191.0992 191.6956 191.7482
   191.9629 192.1577 192.2778 192.3655 192.7250 192.9825 193.4264 193.6064
   193.9192 194.1248 194.5069 194.6081 195.3814 195.5739 196.0773 196.2429
   196.5338 196.6982 196.8762 196.9655 197.1577 197.5093 197.6431 198.3753
   198.4907 198.6063 198.7730 198.9157 199.2566 199.3020 199.6574 199.7963
   200.5024 200.5410 201.2793 201.3896 202.1439 202.1966 202.3205 202.4324
   202.7081 202.7605 203.1494 203.2340 203.5399 203.6365 203.7973 204.0859
   204.2226 204.2955 204.6487 204.9571 205.0921 205.2165 206.0979 206.7034
   207.3368 208.2932 208.5072 208.8707 208.9749 209.1746 209.4189 209.5709
   209.8661 209.9855 210.0946 210.1973 210.5046 211.0315 211.2075 211.3915
   212.5825 213.0297 213.0403 213.5111 213.9031 214.1047 214.4389 214.7663
   215.1377 215.3339 215.5097 215.6072 215.6371 216.0598 216.3795 216.3927
   216.8625 217.0750 217.1009 217.3287 217.3653 217.7406 217.9514 218.4844
   219.3946 219.8339 219.8541 220.4089 220.8462 220.8834 221.0297 221.6172
   221.6945 222.0371 222.1495 222.2151 222.2279 222.8251 223.0471 223.4786
   223.8999 224.4239 224.6699 224.8179 225.2965 225.4116 225.7839 226.2221
   226.2337 226.5060 226.6321 226.9888 227.5320 227.7745 228.2245 228.2762
   228.7397 228.9090 229.4858 229.7237 230.1769 230.5290 230.7603 230.8960
   231.1287 231.2933 231.3229 232.2495 232.5021 232.8633 232.9659 233.4300
[...]
   208.9415 209.0614 209.1162 209.3605 209.4063 209.5876 210.4368 210.4519
   210.8235 211.1950 212.0818 213.8672 214.7618 215.0927 215.1201 215.2285
   215.3085 215.7340 216.3000 217.0363 217.3014 217.4603 217.7047 217.8650
   217.9308 218.1500 218.5105 218.7399 218.9733 219.2698 219.5272 220.3229
   220.4361 220.4741 220.6984 221.5945 221.9202 222.0247 222.1217 222.5077
   222.6274 223.5368 223.7254 223.9548 224.2951 224.4243 224.5613 224.5842
   224.6123 224.6982 224.9359 225.5763 225.6617 225.8038 225.9007 225.9517
   226.7023 226.8210 226.8520 227.0421 227.2174 227.3890 228.0233 228.3590
   228.4540 228.7279 229.0152 229.3029 229.6140 229.6277 229.9369 230.1703
   230.3799 230.4504 231.1420 231.1490 231.9259 232.0299 232.1408 232.3774
   232.4500 232.7141 232.7830 232.9591 232.9775 232.9905 233.0079 233.3399
   233.4639 233.5337 233.6156 233.7607 233.9205 234.1964 234.4646 235.3600
   236.3800 236.9967 237.6397 237.7131 237.7193 237.8263 237.8603 237.9212
   237.9726 238.1076 238.3181 238.5926 238.6719 238.8847 238.9336 238.9764
   239.2023 239.2511 239.4268 240.6903 240.7204 240.8166 240.8223 241.9346
   242.0233 242.1480 242.3770 242.6435 242.9290 243.0291 243.0944 243.5237
   244.1950 244.5151 244.5949 244.6321 244.6904 244.7258 244.7971 244.8649
   244.9972 245.2988 245.6840 246.8020 246.8859 246.9411 246.9483 247.5726
   248.8020 248.9378 248.9650 248.9916 249.5500 249.7769 249.9299 249.9505
   250.0474 250.1083 250.2196 250.2773 251.3840 251.6911 252.4150 252.9313
   253.3967 254.2083 254.2106 254.2131 254.2479 254.3638 254.6926 254.7569
   254.9235 255.1107 256.3788 256.7828 257.3064 257.5461 257.6926 257.9959
   258.0247 258.0254 258.0917 258.0968 258.1302 258.2008 258.3859 258.9493
   258.9832 259.0346 259.1353 259.2552 259.8173 259.9909 260.2448 260.8150
   260.8306 260.9260 260.9953 261.3413 262.7249 262.9303 262.9879 263.0797
   263.6354 263.6885 264.1438 264.3546 265.0241 265.0446 265.0643 265.1394
   265.8132 265.9265 266.0386 266.0452 266.0587 266.1028 266.5840 266.6979
   266.8006 266.8105 267.5306 268.6334 269.4003 269.5257 269.8507 269.9156
   270.0076 270.0435 270.0496 270.3209 270.4581 270.6743 271.0396 271.3775
   271.8838 272.1448 272.2505 273.1054 273.6181 274.4571 274.6343 275.2052
   275.5217 275.5310 275.9080 276.0246 276.6000 276.6698 276.7746 276.9609
   276.9812 277.0026 277.0076 277.1812 277.3651 277.3816 277.8196 277.8721
   278.7010 279.0781 279.0904 279.2931 279.8245 279.8278 281.1972 282.4837
   282.5362 282.8209 283.2518 283.4046 283.5950 283.8086 284.1083 284.2000
   284.2363 284.2625 284.3529 284.7930 285.3431 285.7572 285.8068 286.3064
   286.4265 286.4800 286.4826 286.6964 286.8350 286.9967 287.1051 288.3164
   288.3372 288.4107 288.4455 289.2946 289.7304 290.2370 290.7741 290.8287
   291.0853 291.2784 291.2809 291.3867 291.7196 291.7278 292.5849 292.6016
   292.6881 292.7323 293.7382 293.7447 294.8234 295.1509 295.6990 295.7385
   295.8613 296.7832 296.8856 296.8936 297.3415 297.5844 297.6905 297.6914
   297.8104 297.8842 298.1831 298.3698 298.3953 298.6408 298.7654 298.8967
   299.1051 299.2878 299.5583 300.3706 300.4046 300.5093 300.8686 300.8694
   301.0351 301.1624 301.6267 301.6696 301.7078 302.0203 302.4894 302.5970
   302.6571 302.9811 302.9826 303.3464 303.5763 303.6054 303.6205 303.6553
   303.6709 303.9147 303.9195 304.3389 304.7468 304.7885 304.8332 304.9935
   305.0035 305.7383 305.7577 305.8369 305.8599 307.6767 307.6850 307.7049
   307.7321 307.8471 307.9138 307.9171 307.9307 308.6092 309.1572 309.3774
   309.9186 310.5077 310.8779 310.8899 312.0041 312.0943 312.3047 312.3152
   312.4029 312.4182 312.5930 312.6226 312.6424 312.9487 312.9875 313.3033
   313.3057 313.3086 313.5376 313.5616 313.7577 313.8788 313.9328 313.9529
   315.1322 315.2998 315.3832 315.4682 315.4739 315.5888 315.7757 316.0649
   316.0678 316.0795 317.1591 317.3117 317.5053 317.6935 317.7451 317.7864
   318.0098 318.4754 318.6321 318.6453 318.7875 318.8116 319.0146 319.0829
   319.3895 319.4313 319.4467 319.7147 319.8998 320.0415 321.8838 322.0464
   322.0768 322.1004 322.6827 322.8109 322.9084 323.1012 323.4149 323.4950
   323.5251 323.5430 323.5700 323.6300 323.6572 323.8802 323.9926 324.0294
   324.4925 325.1325 325.2694 325.5098 325.8443 326.2487 326.2783 326.4729
   328.1879 328.2926 328.3073 328.5126 328.7598 328.9891 329.0522 329.0718
   329.0876 329.1505 329.1563 329.1757 329.8064 329.8796 330.0194 330.0981
   330.0992 330.1290 331.2312 331.4999 331.6428 331.6455 331.6650 331.6750
   332.9079 333.0853 333.1522 333.2730 333.3662 333.4291 333.7815 333.7846
   334.0140 334.1259 334.1378 334.5963 334.7881 334.8533 335.3926 335.7446
   336.0729 337.3643 337.4145 338.6786 338.9817 339.0046 339.0372 339.7302
   339.8136 339.8430 339.9033 340.4596 340.5604 340.8927 340.9090 341.1326
   341.2086 341.2879 341.3025 341.4443 341.6143 342.4290 342.5492 342.5867
   342.8743 343.3462 343.4338 343.4546 343.6989 343.7281 344.2068 344.3727
   344.5712 344.6239 347.4662 347.4722 347.6824 347.7143 347.8949 347.9154
   347.9854 348.0455 348.3740 348.3839 348.6366 349.1023 349.1585 349.5042
   349.7227 349.7847 350.0388 350.2817 350.6005 350.6804 350.7574 350.7684
   350.8165 350.8383 350.8838 351.0760 351.3529 351.4055 351.4842 351.5506
   351.5770 351.6297 351.6858 351.7545 351.9924 352.0305 352.0725 352.1326
   352.6439 352.6576 352.8042 353.3859 353.8571 354.2203 354.2427 354.5646
   354.6525 354.7592 354.7779 354.8136 354.9783 354.9978 355.4514 355.4581
   355.6565 355.7150 355.7899 355.8009 355.8635 355.8751 357.1609 357.2282
   359.7806 359.7893 360.1917 360.2285 360.8191 361.0141 361.3496 361.4203
   361.8711 361.9867 362.0774 362.1446 362.2181 362.2302 362.3748 362.3911
   362.4399 362.6296 362.6379 362.7884 363.2684 363.2723 365.3012 365.3497
   365.6120 365.6907 365.7455 365.7869 366.1557 366.1690 366.2298 366.2384
   366.3145 366.3803 366.5875 366.5968 366.8822 366.8833 367.4791 367.4797
   367.8565 367.8594 368.2271 368.3381 368.6751 368.9020 369.4020 369.4883
   369.6695 369.6974 369.7295 369.7517 369.8130 369.8661 370.8727 370.8961
   370.9090 371.8838 371.9777 372.3673 372.3768 372.8775 373.2245 373.3263
   373.3430 374.1754 374.1834 374.4684 374.5374 375.6471 375.6915 375.9857
   376.0139 376.3627 376.6115 376.6386 376.6458 376.6866 376.6906 376.7286
   377.1206 377.6643 377.6680 377.6826 377.7033 377.9845 378.0037 378.0724
   378.5346 378.5349 381.4201 381.8413 381.8649 381.9488 382.0053 382.0358
   382.8302 382.8593 382.8653 382.8843 383.2696 383.4494 383.4892 383.4910
   383.5048 383.5182 383.5247 383.6762 383.9300 384.0256 384.0835 384.1529
   384.7387 384.7543 385.4595 386.0010 386.0173 386.1874 386.2187 386.2816
   386.6202 387.1412 387.1947 387.7559 388.0332 388.1625 389.0841 390.0407

          k =-0.5000-1.0000 0.0000 (  2656 PWs)   bands (ev):

   -52.1560 -52.1560 -52.1559 -52.1558 -52.1557 -12.4803  -1.2926  -1.2926
    -0.9754   8.0754   9.2965   9.2965  10.4188  14.2826  14.2826  14.3197
    14.7323  17.3108  19.1413  19.1413  19.5438  20.6790  20.7768  20.7768
    22.2639  24.5815  25.3019  25.8587  25.8587  25.8650  26.7528  27.7050
    27.7050  31.9404  31.9404  32.0166  32.4742  33.6655  33.6655  35.0919
    36.1462  39.0726  39.7906  39.7906  39.7909  40.1779  40.3934  40.3934
    40.5772  41.3232  41.3232  42.0339  44.3568  44.5753  46.3529  47.2224
    47.4549  47.4549  47.9414  48.1723  48.1723  50.6028  50.6028  50.9196
    51.2220  51.4112  51.8830  51.8830  52.5309  54.3157  54.5319  54.5319
    56.0991  57.0818  57.0818  59.2205  59.2801  59.2801  59.2972  59.4853
    60.0729  60.5051  61.3460  61.3460  61.9918  61.9918  62.1496  62.1966
    62.4174  64.9504  65.1269  65.8594  65.8594  65.9353  66.2409  66.2409
    66.9684  69.0762  69.1082  69.1082  69.2789  70.6807  70.7861  70.7861
    70.7958  71.7940  71.8262  71.8262  72.0582  74.0206  76.2113  76.2113
    76.6480  79.8631  79.8631  80.2380  80.3507  80.6221  81.3702  81.3702
    81.8005  82.6541  82.6541  85.2887  85.3425  85.3425  85.3934  86.7924
    87.3409  87.5852  87.5852  87.9046  88.2646  89.0422  89.0422  89.1845
    89.6219  89.7585  89.9340  90.2268  90.2268  90.7589  90.7589  90.9251
    91.6329  91.7881  91.9703  91.9703  92.1923  93.1484  93.8461  93.8461
    94.3855  95.2474  95.9613  95.9613  96.4771  96.9862  96.9862  97.0290
    97.6285  99.1777  99.3217  99.3217 101.7571 102.0305 102.1751 102.1751
   103.1162 103.1826 103.6932 103.6962 103.6962 103.7632 103.7632 104.0877
   104.2240 104.2240 104.7185 104.7491 105.1316 106.9811 107.2388 107.9276
   107.9276 109.0142 109.0714 109.0714 109.6175 109.6720 110.4948 110.9504
   110.9504 111.0560 111.8251 111.8251 112.2807 112.2807 112.3564 112.5229
   112.5832 112.7563 112.7563 113.0879 114.3159 115.3972 116.0344 116.1274
   116.1274 117.2124 117.2124 118.0309 118.6718 121.8951 121.8951 122.1822
   122.2769 122.3113 122.4087 122.4087 123.9272 124.0882 124.4436 124.8189
   124.8189 126.5060 126.5060 126.5323 126.5583 126.7494 126.7494 127.0926
   128.9150 128.9150 129.0635 130.6267 130.7058 131.3419 131.8736 131.8736
   132.2851 132.3484 132.3484 132.3828 132.3828 132.5114 132.5492 132.5694
   132.6805 132.7060 132.9305 132.9305 133.0299 133.2741 133.2741 133.5284
   134.7477 136.7079 137.2275 137.2275 138.3441 138.8386 138.8386 139.2543
   139.2549 139.2549 140.1050 140.5123 140.6450 140.6450 140.7280 142.2728
   142.6181 143.2261 143.9467 143.9467 145.5906 146.0953 146.4296 146.4296
   146.6790 146.7678 146.7678 147.5565 147.7361 149.0711 149.9376 150.0452
   150.0452 150.2180 150.3637 150.3637 150.6060 150.9102 151.0599 151.2681
   151.3951 151.3951 151.9449 152.4297 152.5086 152.5086 153.5204 153.7062
   153.8335 153.8335 154.3502 154.3502 155.0360 155.0562 155.0684 155.0684
   155.6503 156.0488 156.1243 157.6474 157.6474 158.7268 159.4357 159.4357
   159.8128 159.8387 159.8387 160.0915 160.1859 160.2674 160.6205 160.6205
   160.8711 161.9100 161.9100 161.9772 162.0289 163.6305 163.7793 163.7793
   163.9514 164.0473 164.0473 164.5153 164.6251 164.6251 165.3615 165.4042
   165.5610 166.4581 166.5025 166.6215 166.6215 167.7797 167.7797 168.2330
   169.0843 169.0875 169.1061 169.1061 169.1628 169.1628 169.2476 169.4911
   169.5339 169.5339 169.7197 169.8296 170.3310 170.7109 171.0063 171.7340
   171.7340 172.4791 172.4791 172.7488 173.3198 173.3199 173.3199 174.5942
   175.5589 175.9383 175.9981 175.9981 176.0280 177.6649 177.6945 177.6992
   177.6992 178.7157 178.7266 178.9823 178.9823 179.9689 179.9689 180.7365
   180.8982 181.1227 181.1227 181.1387 181.6426 181.6426 182.7540 183.1542
   183.1876 186.9846 186.9846 187.0170 187.1420 187.1760 187.2671 187.6123
   187.6123 188.3478 188.3478 188.3946 188.4279 188.6226 188.6293 188.6293
   189.3772 190.7736 190.7736 190.7782 191.2959 191.5306 191.5306 191.6560
   192.8386 193.1387 193.6430 194.0148 194.0148 194.5730 195.1647 195.7882
   195.7882 195.8628 195.9297 195.9297 196.0539 196.1842 196.4101 197.4908
   197.4908 197.6717 197.6717 197.7335 198.0527 198.4556 198.6913 198.9668
   198.9668 199.2344 200.0179 200.3079 200.3079 200.3617 200.4758 200.6100
   200.6100 200.6647 201.3883 201.6440 201.6440 201.8461 202.6636 202.8197
   202.9729 202.9729 204.9677 205.0150 205.0150 205.4423 206.1796 206.1796
   206.7613 207.9072 207.9072 208.1830 208.2286 209.7091 209.7091 210.0570
   210.1903 210.2066 210.2066 210.2342 210.9974 210.9974 211.3031 211.4616
   211.8202 211.8202 212.2436 212.4161 213.1928 213.1928 213.2513 213.3012
   214.4246 214.4246 214.4613 215.6481 215.7965 216.1419 216.1419 216.3967
   216.4245 216.6160 216.6393 216.6393 217.2456 217.8604 217.8620 217.8620
   218.6450 218.6450 218.8085 218.8178 219.1875 220.0658 220.0658 220.6558
   221.2211 221.3148 221.6170 221.6170 221.6270 224.1328 224.1328 224.6089
   225.0288 225.0288 225.4734 225.6270 225.8103 226.3169 226.3285 226.3285
   226.9300 226.9300 227.0726 227.1302 228.4787 229.4748 229.6095 229.6095
   229.8813 230.0426 230.0990 230.0990 230.5343 230.8369 230.8369 230.8733
   232.6511 232.7002 232.7002 232.7084 233.1347 233.1966 233.1966 233.2494
   233.2765 233.3812 233.3812 233.4430 234.2527 234.3334 234.5713 234.5713
   235.0729 235.3097 235.3097 235.3685 235.4803 235.4860 235.5257 235.5257
   235.5257 235.7172 235.8219 235.8219 236.1372 236.1372 236.3161 236.3239
   238.3296 238.5610 238.5610 238.5625 238.9426 239.1058 239.1655 239.1655
   240.1907 240.3022 240.3022 240.3158 240.6135 240.7279 240.7588 240.7588
   240.7860 240.7888 240.7888 240.8340 243.1862 244.3517 244.3517 244.5191
   245.4592 245.5997 245.7610 245.7843 245.7843 245.7984 245.8001 245.8147
   245.8147 246.6930 246.7517 246.7517 248.1431 249.3841 249.3841 249.4150
   249.4300 249.4400 249.4400 249.4481 249.8026 250.4942 250.4942 250.5336
   250.7797 250.7797 250.8096 250.8151 252.2901 252.3726 252.3726 252.4562
   252.5034 252.5051 252.5051 252.5876 252.7481 254.0226 254.1474 254.2342
   254.2342 254.2439 256.2261 257.1116 257.1116 257.2842 257.4083 257.4083
   257.5545 257.7827 257.9533 257.9584 258.0200 258.0200 258.1205 258.4292
   258.4292 258.5088 258.5088 258.5177 258.6871 258.7286 259.7370 260.0827
   260.0827 260.1004 260.1545 260.1545 260.1996 260.2242 261.3913 261.3913
   261.9850 261.9850 262.0479 262.0570 263.4996 263.4996 264.6809 265.7618
   266.5084 266.8751 266.8751 267.0887 267.0887 267.0915 267.1156 267.2225
   267.4407 267.4760 267.4760 267.4934 267.5180 267.5320 267.5320 267.5320
   269.0398 269.6558 270.6882 270.6882 270.7134 271.0969 271.0969 271.2928
   271.3079 271.3914 271.3914 271.4514 271.5430 271.5430 271.6254 271.6556
   275.6067 275.6067 275.7337 275.7591 275.9878 276.0442 276.0442 276.0489
   279.1107 279.2083 279.5320 280.5335 280.5335 280.9716 280.9716 281.0872
   281.3160 281.3784 281.3784 281.4039 281.8519 281.8519 281.8731 281.9252
   282.7028 282.8664 282.9668 282.9668 283.3173 284.8558 284.8894 284.9088
   284.9088 285.1435 285.1435 285.3646 286.0828 287.0009 287.2338 287.2338
   287.3490 287.6243 287.6243 287.8176 287.9249 287.9838 288.0134 288.0134
   288.5434 288.5434 288.5676 288.6417 288.7949 289.8733 291.1397 291.1397
   291.5798 291.9726 291.9726 292.9785 293.4390 293.5345 293.5345 293.5551
   294.3956 294.5093 294.6241 294.6241 294.9602 294.9602 295.2563 295.3094
   295.4654 295.4721 295.4721 295.4736 296.6385 297.2450 297.2450 297.6039
   297.6208 297.8140 297.9686 297.9686 299.3840 299.9116 299.9116 300.1188
   300.3872 300.3881 300.3881 300.4467 300.5345 300.7769 300.7957 300.7957
   300.8034 300.8895 300.9948 300.9948 301.2485 301.3340 301.3348 301.3348
   302.3876 302.6081 302.6083 302.6278 302.6295 302.6295 302.6365 302.6365
   303.5372 303.5432 303.5432 303.5578 304.7667 304.7671 304.8077 304.8077
   304.8138 304.8155 304.8155 304.8184 304.8940 304.8940 304.9071 304.9144
   306.4036 306.4036 306.4691 306.6770 308.3295 308.4058 308.4058 308.5255
   308.6306 309.0129 309.5347 309.5347 309.5379 309.7675 309.7675 309.8166
   309.9110 309.9110 309.9365 310.0464 310.0549 310.1103 310.1103 310.1466
   310.1647 310.1647 310.1660 310.1794 312.2823 312.2823 312.4558 313.5312
   314.0268 314.1115 314.1115 314.4827 315.5827 315.6058 315.8130 315.8130
   315.8307 316.1679 316.3851 316.3851 317.9708 318.6885 318.7792 318.7792
   318.7888 318.8020 319.3565 320.2825 320.2825 320.3251 320.4747 320.4747
   320.6568 320.7026 322.7971 322.7971 322.9153 322.9310 323.2386 323.2425
   323.2499 323.2499 323.4666 323.6141 323.6424 323.6424 323.6729 323.7391
   323.7686 323.7686 325.2916 325.2916 326.1564 326.3840 326.3900 326.3900
   326.3976 326.4561 326.4561 326.5038 326.7010 326.8642 326.8642 327.2522
   327.4698 328.0541 328.0541 328.0619 328.2252 328.4314 328.4314 328.5404
   329.8326 329.8730 329.8730 329.9638 330.3301 330.3680 330.3736 330.3736
   332.9736 332.9736 333.0105 333.3850 334.0566 334.4433 334.4433 335.0755
   335.3703 335.8118 335.8679 335.8679 335.9269 336.0126 336.0524 336.0524
   336.5334 336.5504 336.5504 336.5659 337.6871 337.6871 338.0496 338.0715
   338.1415 338.1782 338.1782 338.2044 339.4181 339.4181 339.6047 339.6334
   339.7458 339.8153 339.8153 339.8353 340.4637 340.6358 340.6358 340.9173
   340.9780 341.0149 341.0149 341.0907 341.8193 341.8193 341.8200 341.8280
   342.3363 343.1890 343.2021 343.6503 343.6503 343.7197 343.7197 343.7368
   344.5243 344.5243 344.5323 344.6125 345.2204 345.2253 345.2253 345.2323
   345.2411 345.2511 345.2511 345.3281 345.4475 345.6869 345.6983 345.6983
   345.7483 345.7483 345.7667 345.7914 347.4292 347.4931 347.4931 347.5011
   347.6285 347.6386 347.6465 347.6465 350.9089 351.2394 351.2394 351.2770
   351.4736 352.4028 352.6242 352.6242 352.7135 352.8261 352.8261 352.8365
   353.1981 353.5819 353.7316 353.7316 354.5097 354.5097 354.7376 355.3489
   355.4310 355.4310 355.5571 355.5831 356.0235 356.2351 356.3214 356.3983
   356.3983 356.5875 356.5968 356.5968 358.1403 358.1674 358.1674 358.2210
   360.7837 360.7991 360.8066 360.8066 361.6234 361.6495 361.6495 361.6636
   361.6997 361.7217 361.7217 361.7322 362.8457 362.8457 363.5890 364.0166
   364.4095 364.4095 364.4129 364.4399 364.4775 364.6351 364.6390 364.6390
   365.0200 365.0200 365.0313 365.0652 365.8338 365.9821 365.9859 365.9859
   366.0479 366.0479 366.1044 366.1153 366.2331 366.3783 366.3783 366.4051
   366.4086 366.5735 366.6344 366.6344 366.8297 366.9366 366.9437 366.9437
   367.2355 367.2418 367.2622 367.2622 368.8971 368.9143 368.9143 368.9308
   373.2694 373.5043 373.5043 373.6014 373.6200 373.6200 373.6315 373.6334
   374.3582 374.3815 374.3980 374.3980 374.4070 374.4386 374.4386 374.4489
   376.4018 376.6751 377.0207 377.0207 377.5023 377.7381 377.7381 377.8032
   378.7009 378.7009 378.7214 378.7271 379.3464 379.6631 379.6631 379.7185
   380.8250 380.8250 380.8772 380.9448 380.9621 380.9884 380.9884 380.9885
   381.6415 382.1072 382.1072 382.1203 382.7814 382.7814 382.8680 382.8712
   382.8998 382.8998 382.9420 382.9649 383.2124 383.3677 383.4252 383.4682
   383.4682 383.7714 383.7714 383.8090 386.3458 386.3461 386.3506 386.4559
   386.4559 386.4819 386.5058 386.6174 386.6174 386.6820 386.6856 386.6856

     the Fermi energy is     3.0717 ev
     (compare with:     0.4990 eV, computed in scf)

     Writing all to output data dir out/mp-611517.save/
 
     init_run     :      0.02s CPU      0.04s WALL (       1 calls)
     electrons    :    708.61s CPU    752.09s WALL (       1 calls)

     Called by init_run:
     wfcinit      :      0.00s CPU      0.00s WALL (       1 calls)
     potinit      :      0.01s CPU      0.01s WALL (       1 calls)
     hinit0       :      0.01s CPU      0.01s WALL (       1 calls)

     Called by electrons:
     c_bands      :    708.60s CPU    752.06s WALL (       1 calls)
     v_of_rho     :      0.00s CPU      0.00s WALL (       1 calls)

     Called by c_bands:
     init_us_2    :      0.00s CPU      0.00s WALL (      15 calls)
     init_us_2:cp :      0.00s CPU      0.00s WALL (      15 calls)
     cegterg      :    682.70s CPU    724.30s WALL (      15 calls)

     Called by *egterg:
     cdiaghg      :    642.50s CPU    682.50s WALL (      75 calls)
     h_psi        :     12.73s CPU     13.46s WALL (      90 calls)
     g_psi        :      0.10s CPU      0.10s WALL (      60 calls)

     Called by h_psi:
     h_psi:calbec :      0.19s CPU      0.21s WALL (      90 calls)
     vloc_psi     :     12.17s CPU     12.87s WALL (      90 calls)
     add_vuspsi   :      0.16s CPU      0.16s WALL (      90 calls)

     General routines
     calbec       :      0.19s CPU      0.21s WALL (      90 calls)
     fft          :      0.00s CPU      0.01s WALL (      10 calls)
     fftw         :     10.82s CPU     11.43s WALL (  191892 calls)
 
     Parallel routines
 
     PWSCF        :  11m49.77s CPU  12m33.90s WALL

 
   This run was terminated on:   6:41:56   6Dec2023            

=------------------------------------------------------------------------------=
   JOB DONE.
=------------------------------------------------------------------------------=
