
     Program PWSCF v.7.1 starts on 14Nov2023 at 22:18:52 

     This program is part of the open-source Quantum ESPRESSO suite
     for quantum simulation of materials; please cite
         "P. Giannozzi et al., J. Phys.:Condens. Matter 21 395502 (2009);
         "P. Giannozzi et al., J. Phys.:Condens. Matter 29 465901 (2017);
         "P. Giannozzi et al., J. Chem. Phys. 152 154105 (2020);
          URL http://www.quantum-espresso.org", 
     in publications or presentations arising from this work. More details at
     http://www.quantum-espresso.org/quote

     Parallel version (MPI), running on    24 processors

     MPI processes distributed on     1 nodes
     123528 MiB available memory on the printing compute node when the environment starts
 
     Reading input from pw_mp-1087_scf_k3000_E39.in
Warning: card &CELL ignored
Warning: card / ignored

     Current dimensions of program PWSCF are:
     Max number of different atomic species (ntypx) = 10
     Max number of k-points (npk) =  40000
     Max angular momentum in pseudopotentials (lmaxx) =  4
 
     K-points division:     npool     =       2
     R & G space division:  proc/nbgrp/npool/nimage =      12
     Subspace diagonalization in iterative solution of the eigenvalue problem:
     a serial algorithm will be used

 
     Parallelization info
     --------------------
     sticks:   dense  smooth     PW     G-vecs:    dense   smooth      PW
     Min          58      58     17                 1027     1027     175
     Max          59      59     18                 1029     1029     178
     Sum         703     703    211                12339    12339    2109
 
     Using Slab Decomposition
 


     bravais-lattice index     =            2
     lattice parameter (alat)  =      11.4291  a.u.
     unit-cell volume          =     373.2322 (a.u.)^3
     number of atoms/cell      =            2
     number of atomic types    =            2
     number of electrons       =        16.00
     number of Kohn-Sham states=           16
     kinetic-energy cutoff     =      39.0000  Ry
     charge density cutoff     =     156.0000  Ry
     scf convergence threshold =      1.0E-10
     mixing beta               =       0.7000
     number of iterations used =            8  plain     mixing
     Exchange-correlation= PBE
                           (   1   4   3   4   0   0   0)

     celldm(1)=  11.429126  celldm(2)=   0.000000  celldm(3)=   0.000000
     celldm(4)=   0.000000  celldm(5)=   0.000000  celldm(6)=   0.000000

     crystal axes: (cart. coord. in units of alat)
               a(1) = (  -0.500000   0.000000   0.500000 )  
               a(2) = (   0.000000   0.500000   0.500000 )  
               a(3) = (  -0.500000   0.500000   0.000000 )  

     reciprocal axes: (cart. coord. in units 2 pi/alat)
               b(1) = ( -1.000000 -1.000000  1.000000 )  
               b(2) = (  1.000000  1.000000  1.000000 )  
               b(3) = ( -1.000000  1.000000 -1.000000 )  


     PseudoPot. # 1 for S  read from file:
     /usr/scratch4/magr4985/MG/HTDF/pseudo/SG15/S.upf
     MD5 check sum: f9d020296ee6110346977bfd66d424f6
     Pseudo is Norm-conserving, Zval =  6.0
     Generated using ONCVPSP code by D. R. Hamann
     Using radial grid of  602 points,  4 beta functions with: 
                l(1) =   0
                l(2) =   0
                l(3) =   1
                l(4) =   1

     PseudoPot. # 2 for Sr read from file:
     /usr/scratch4/magr4985/MG/HTDF/pseudo/SG15/Sr.upf
     MD5 check sum: 3f9bc8d6f3e8472da0cbe0e6a3044a9f
     Pseudo is Norm-conserving, Zval = 10.0
     Generated using ONCVPSP code by D. R. Hamann
     Using radial grid of  602 points,  6 beta functions with: 
                l(1) =   0
                l(2) =   0
                l(3) =   1
                l(4) =   1
                l(5) =   2
                l(6) =   2

     atomic species   valence    mass     pseudopotential
        S              6.00    32.06500     S ( 1.00)
        Sr            10.00    87.62000     Sr( 1.00)

     48 Sym. Ops., with inversion, found



   Cartesian axes

     site n.     atom                  positions (alat units)
         1           Sr  tau(   1) = (   0.0000000   0.0000000   0.0000000  )
         2           S   tau(   2) = (  -0.5000000   0.5000000   0.5000000  )

     number of k points=    72  Gaussian smearing, width (Ry)=  0.0005
                       cart. coord. in units 2pi/alat
        k(    1) = (   0.0000000   0.0000000   0.0000000), wk =   0.0011574
        k(    2) = (  -0.0833333   0.0833333  -0.0833333), wk =   0.0092593
        k(    3) = (  -0.1666667   0.1666667  -0.1666667), wk =   0.0092593
        k(    4) = (  -0.2500000   0.2500000  -0.2500000), wk =   0.0092593
        k(    5) = (  -0.3333333   0.3333333  -0.3333333), wk =   0.0092593
        k(    6) = (  -0.4166667   0.4166667  -0.4166667), wk =   0.0092593
        k(    7) = (   0.5000000  -0.5000000   0.5000000), wk =   0.0046296
        k(    8) = (   0.0000000   0.1666667   0.0000000), wk =   0.0069444
        k(    9) = (  -0.0833333   0.2500000  -0.0833333), wk =   0.0277778
        k(   10) = (  -0.1666667   0.3333333  -0.1666667), wk =   0.0277778
        k(   11) = (  -0.2500000   0.4166667  -0.2500000), wk =   0.0277778
        k(   12) = (  -0.3333333   0.5000000  -0.3333333), wk =   0.0277778
        k(   13) = (   0.5833333  -0.4166667   0.5833333), wk =   0.0277778
        k(   14) = (   0.5000000  -0.3333333   0.5000000), wk =   0.0277778
        k(   15) = (   0.4166667  -0.2500000   0.4166667), wk =   0.0277778
        k(   16) = (   0.3333333  -0.1666667   0.3333333), wk =   0.0277778
        k(   17) = (   0.2500000  -0.0833333   0.2500000), wk =   0.0277778
        k(   18) = (   0.1666667  -0.0000000   0.1666667), wk =   0.0138889
        k(   19) = (   0.0000000   0.3333333   0.0000000), wk =   0.0069444
        k(   20) = (  -0.0833333   0.4166667  -0.0833333), wk =   0.0277778
        k(   21) = (  -0.1666667   0.5000000  -0.1666667), wk =   0.0277778
        k(   22) = (  -0.2500000   0.5833333  -0.2500000), wk =   0.0277778
        k(   23) = (   0.6666667  -0.3333333   0.6666667), wk =   0.0277778
        k(   24) = (   0.5833333  -0.2500000   0.5833333), wk =   0.0277778
        k(   25) = (   0.5000000  -0.1666667   0.5000000), wk =   0.0277778
        k(   26) = (   0.4166667  -0.0833333   0.4166667), wk =   0.0277778
        k(   27) = (   0.3333333   0.0000000   0.3333333), wk =   0.0138889
        k(   28) = (   0.0000000   0.5000000   0.0000000), wk =   0.0069444
        k(   29) = (  -0.0833333   0.5833333  -0.0833333), wk =   0.0277778
        k(   30) = (  -0.1666667   0.6666667  -0.1666667), wk =   0.0277778
        k(   31) = (   0.7500000  -0.2500000   0.7500000), wk =   0.0277778
        k(   32) = (   0.6666667  -0.1666667   0.6666667), wk =   0.0277778
        k(   33) = (   0.5833333  -0.0833333   0.5833333), wk =   0.0277778
        k(   34) = (   0.5000000   0.0000000   0.5000000), wk =   0.0138889
        k(   35) = (   0.0000000   0.6666667   0.0000000), wk =   0.0069444
        k(   36) = (  -0.0833333   0.7500000  -0.0833333), wk =   0.0277778
        k(   37) = (   0.8333333  -0.1666667   0.8333333), wk =   0.0277778
        k(   38) = (   0.7500000  -0.0833333   0.7500000), wk =   0.0277778
        k(   39) = (   0.6666667  -0.0000000   0.6666667), wk =   0.0138889
        k(   40) = (   0.0000000   0.8333333   0.0000000), wk =   0.0069444
        k(   41) = (   0.9166667  -0.0833333   0.9166667), wk =   0.0277778
        k(   42) = (   0.8333333   0.0000000   0.8333333), wk =   0.0138889
        k(   43) = (   0.0000000  -1.0000000   0.0000000), wk =   0.0034722
        k(   44) = (  -0.1666667   0.3333333   0.0000000), wk =   0.0277778
        k(   45) = (  -0.2500000   0.4166667  -0.0833333), wk =   0.0555556
        k(   46) = (  -0.3333333   0.5000000  -0.1666667), wk =   0.0555556
        k(   47) = (   0.5833333  -0.4166667   0.7500000), wk =   0.0555556
        k(   48) = (   0.5000000  -0.3333333   0.6666667), wk =   0.0277778
        k(   49) = (  -0.1666667   0.5000000   0.0000000), wk =   0.0277778
        k(   50) = (  -0.2500000   0.5833333  -0.0833333), wk =   0.0555556
        k(   51) = (   0.6666667  -0.3333333   0.8333333), wk =   0.0555556
        k(   52) = (   0.5833333  -0.2500000   0.7500000), wk =   0.0555556
        k(   53) = (   0.5000000  -0.1666667   0.6666667), wk =   0.0555556
        k(   54) = (   0.4166667  -0.0833333   0.5833333), wk =   0.0555556
        k(   55) = (   0.3333333   0.0000000   0.5000000), wk =   0.0277778
        k(   56) = (  -0.1666667   0.6666667  -0.0000000), wk =   0.0277778
        k(   57) = (   0.7500000  -0.2500000   0.9166667), wk =   0.0555556
        k(   58) = (   0.6666667  -0.1666667   0.8333333), wk =   0.0555556
        k(   59) = (   0.5833333  -0.0833333   0.7500000), wk =   0.0555556
        k(   60) = (   0.5000000   0.0000000   0.6666667), wk =   0.0277778
        k(   61) = (   0.8333333  -0.1666667   1.0000000), wk =   0.0277778
        k(   62) = (   0.7500000  -0.0833333   0.9166667), wk =   0.0555556
        k(   63) = (   0.6666667   0.0000000   0.8333333), wk =   0.0277778
        k(   64) = (  -0.1666667  -1.0000000  -0.0000000), wk =   0.0138889
        k(   65) = (   0.6666667  -0.3333333   1.0000000), wk =   0.0277778
        k(   66) = (   0.5833333  -0.2500000   0.9166667), wk =   0.0555556
        k(   67) = (   0.5000000  -0.1666667   0.8333333), wk =   0.0277778
        k(   68) = (   0.6666667  -0.1666667   1.0000000), wk =   0.0277778
        k(   69) = (   0.5833333  -0.0833333   0.9166667), wk =   0.0555556
        k(   70) = (   0.5000000   0.0000000   0.8333333), wk =   0.0277778
        k(   71) = (  -0.3333333  -1.0000000   0.0000000), wk =   0.0138889
        k(   72) = (  -0.5000000  -1.0000000   0.0000000), wk =   0.0069444

     Dense  grid:    12339 G-vectors     FFT dimensions: (  36,  36,  36)

     Estimated max dynamical RAM per process >       4.11 MB

     Estimated total dynamical RAM >      95.55 MB

     Initial potential from superposition of free atoms

     starting charge      15.7089, renormalised to      16.0000
     Starting wfcs are random

     total cpu time spent up to now is        0.4 secs

     Self-consistent Calculation

     iteration #  1     ecut=    39.00 Ry     beta= 0.70
     Davidson diagonalization with overlap
     ethr =  1.00E-02,  avg # of iterations =  7.7

     Threshold (ethr) on eigenvalues was too large:
     Diagonalizing with lowered threshold

     Davidson diagonalization with overlap
     ethr =  6.57E-04,  avg # of iterations =  1.3

     total cpu time spent up to now is        1.1 secs

     total energy              =     -83.00091629 Ry
     estimated scf accuracy    <       0.10610671 Ry

     iteration #  2     ecut=    39.00 Ry     beta= 0.70
     Davidson diagonalization with overlap
     ethr =  6.63E-04,  avg # of iterations =  2.8

     total cpu time spent up to now is        1.4 secs

     total energy              =     -83.02827501 Ry
     estimated scf accuracy    <       0.04884438 Ry

     iteration #  3     ecut=    39.00 Ry     beta= 0.70
     Davidson diagonalization with overlap
     ethr =  3.05E-04,  avg # of iterations =  2.2

     total cpu time spent up to now is        1.6 secs

     total energy              =     -83.03907534 Ry
     estimated scf accuracy    <       0.00074986 Ry

     iteration #  4     ecut=    39.00 Ry     beta= 0.70
     Davidson diagonalization with overlap
     c_bands:  1 eigenvalues not converged
     ethr =  4.69E-06,  avg # of iterations =  7.7

     total cpu time spent up to now is        1.9 secs

     total energy              =     -83.03917135 Ry
     estimated scf accuracy    <       0.00001037 Ry

     iteration #  5     ecut=    39.00 Ry     beta= 0.70
     Davidson diagonalization with overlap
     ethr =  6.48E-08,  avg # of iterations =  2.0

     total cpu time spent up to now is        2.2 secs

     total energy              =     -83.03917420 Ry
     estimated scf accuracy    <       0.00000038 Ry

     iteration #  6     ecut=    39.00 Ry     beta= 0.70
     Davidson diagonalization with overlap
     ethr =  2.41E-09,  avg # of iterations =  2.0

     total cpu time spent up to now is        2.4 secs

     total energy              =     -83.03917439 Ry
     estimated scf accuracy    <       0.00000002 Ry

     iteration #  7     ecut=    39.00 Ry     beta= 0.70
     Davidson diagonalization with overlap
     ethr =  1.11E-10,  avg # of iterations =  2.0

     total cpu time spent up to now is        2.6 secs

     total energy              =     -83.03917439 Ry
     estimated scf accuracy    <          2.1E-10 Ry

     iteration #  8     ecut=    39.00 Ry     beta= 0.70
     Davidson diagonalization with overlap
     ethr =  1.30E-12,  avg # of iterations =  3.7

     total cpu time spent up to now is        2.9 secs

     End of self-consistent calculation

          k = 0.0000 0.0000 0.0000 (  1471 PWs)   bands (ev):

   -27.8245  -9.7671  -9.7671  -9.7671  -5.1120   5.6593   5.6593   5.6593
     9.2513  10.1148  10.1148  10.1148  10.9962  10.9962  15.4283  20.6335

          k =-0.0833 0.0833-0.0833 (  1501 PWs)   bands (ev):

   -27.8234  -9.7943  -9.7685  -9.7685  -5.0611   5.3965   5.5665   5.5665
     9.5328  10.1474  10.2266  10.2266  11.1896  11.1896  15.7280  19.9140

          k =-0.1667 0.1667-0.1667 (  1525 PWs)   bands (ev):

   -27.8203  -9.8666  -9.7726  -9.7726  -4.9224   4.8154   5.3372   5.3372
     9.8993  10.5429  10.5429  10.5609  11.7309  11.7309  16.4901  18.7189

          k =-0.2500 0.2500-0.2500 (  1531 PWs)   bands (ev):

   -27.8161  -9.9605  -9.7780  -9.7780  -4.7333   4.1877   5.0661   5.0661
    10.0742  11.0350  11.0350  11.3996  12.5184  12.5184  16.7862  18.0766

          k =-0.3333 0.3333-0.3333 (  1528 PWs)   bands (ev):

   -27.8118 -10.0497  -9.7835  -9.7835  -4.5431   3.6588   4.8296   4.8296
    10.3542  11.6665  11.6665  12.0852  13.4229  13.4229  16.2099  16.8243

          k =-0.4167 0.4167-0.4167 (  1531 PWs)   bands (ev):

   -27.8087 -10.1122  -9.7874  -9.7874  -4.4022   3.3092   4.6728   4.6728
    10.7494  12.2100  12.3378  12.3378  14.2624  14.2624  15.7399  15.7399

          k = 0.5000-0.5000 0.5000 (  1538 PWs)   bands (ev):

   -27.8075 -10.1346  -9.7889  -9.7889  -4.3502   3.1870   4.6182   4.6182
    11.0124  12.0501  12.7004  12.7004  14.6839  14.6839  15.1983  15.1983

          k = 0.0000 0.1667 0.0000 (  1499 PWs)   bands (ev):

   -27.8230  -9.7945  -9.7731  -9.7731  -5.0468   5.2390   5.5958   5.5958
     9.5809   9.9091  10.3798  10.3798  11.0579  11.4692  15.8218  19.8273

          k =-0.0833 0.2500-0.0833 (  1517 PWs)   bands (ev):

   -27.8206  -9.8470  -9.7799  -9.7755  -4.9450   4.8060   5.4171   5.4610
     9.7853  10.0276  10.7195  10.7205  11.3168  12.0917  16.4294  18.7920

          k =-0.1667 0.3333-0.1667 (  1524 PWs)   bands (ev):

   -27.8167  -9.9302  -9.7869  -9.7792  -4.7836   4.2956   5.1194   5.2266
     9.8390  10.6662  11.2027  11.2586  11.9172  12.9009  16.9450  17.9248

          k =-0.2500 0.4167-0.2500 (  1533 PWs)   bands (ev):

   -27.8125 -10.0173  -9.7923  -9.7858  -4.6053   3.8166   4.8486   4.9765
    10.0644  11.3423  11.8162  11.9207  12.7092  13.6913  16.2517  16.9203

          k =-0.3333 0.5000-0.3333 (  1528 PWs)   bands (ev):

   -27.8090 -10.0858  -9.7948  -9.7934  -4.4569   3.4563   4.6699   4.7733
    10.4561  11.9783  12.2948  12.4674  13.5333  14.3171  15.7622  15.9614

          k = 0.5833-0.4167 0.5833 (  1525 PWs)   bands (ev):

   -27.8072 -10.1201  -9.8000  -9.7935  -4.3787   3.2763   4.6048   4.6534
    10.8926  11.9466  12.7010  12.7534  14.3432  14.7343  15.1217  15.4300

          k = 0.5000-0.3333 0.5000 (  1526 PWs)   bands (ev):

   -27.8076 -10.1132  -9.8036  -9.7890  -4.3927   3.3080   4.6345   4.6559
    10.8591  12.0057  12.3397  12.8280  13.9012  15.0282  15.3764  15.5285

          k = 0.4167-0.2500 0.4167 (  1532 PWs)   bands (ev):

   -27.8100 -10.0666  -9.8032  -9.7823  -4.4951   3.5486   4.7192   4.8134
    10.4628  11.6732  12.0429  12.3792  13.1934  14.2712  15.9346  16.5150

          k = 0.3333-0.1667 0.3333 (  1536 PWs)   bands (ev):

   -27.8139  -9.9906  -9.7986  -9.7753  -4.6573   3.9628   4.8964   5.0526
    10.1578  11.0547  11.3584  11.7600  12.6585  13.3234  16.4315  17.2861

          k = 0.2500-0.0833 0.2500 (  1526 PWs)   bands (ev):

   -27.8181  -9.9037  -9.7904  -9.7698  -4.8359   4.4868   5.1371   5.3215
    10.0209  10.5531  10.5824  11.1532  11.9617  12.4138  16.9112  17.7500

          k = 0.1667-0.0000 0.1667 (  1514 PWs)   bands (ev):

   -27.8216  -9.8308  -9.7794  -9.7673  -4.9836   5.0229   5.3873   5.5251
     9.8669  10.0722  10.2976  10.6405  11.3700  11.6690  16.1828  18.9719

          k = 0.0000 0.3333 0.0000 (  1511 PWs)   bands (ev):

   -27.8189  -9.8592  -9.7897  -9.7897  -4.8980   4.5271   5.4567   5.4567
     9.4429  10.0897  11.0982  11.0982  11.2345  12.7704  16.8293  18.5904

          k =-0.0833 0.4167-0.0833 (  1524 PWs)   bands (ev):

   -27.8157  -9.9133  -9.7995  -9.7964  -4.7955   4.2089   5.2717   5.3260
     9.3263  10.4982  11.4495  11.5848  11.6787  13.5520  17.1953  17.6477

          k =-0.1667 0.5000-0.1667 (  1539 PWs)   bands (ev):

   -27.8119  -9.9827  -9.8065  -9.8042  -4.6655   3.9219   4.9678   5.1232
     9.4644  11.1598  11.9671  12.1177  12.3311  14.1312  16.1345  17.0071

          k =-0.2500 0.5833-0.2500 (  1533 PWs)   bands (ev):

   -27.8084 -10.0435  -9.8161  -9.8090  -4.5419   3.6870   4.7079   4.9147
     9.8196  11.8648  12.5498  12.6559  12.9460  14.2011  15.4565  16.2223

          k = 0.6667-0.3333 0.6667 (  1547 PWs)   bands (ev):

   -27.8062 -10.0808  -9.8292  -9.8063  -4.4564   3.5249   4.5813   4.7516
    10.3549  11.9465  12.9074  12.9164  13.7338  14.2982  14.9903  15.8600

          k = 0.5833-0.2500 0.5833 (  1533 PWs)   bands (ev):

   -27.8060 -10.0867  -9.8391  -9.7990  -4.4318   3.4710   4.6006   4.6646
    10.8910  11.5704  12.4814  13.0237  13.8828  14.7603  15.4155  15.8183

          k = 0.5000-0.1667 0.5000 (  1526 PWs)   bands (ev):

   -27.8076 -10.0615  -9.8418  -9.7892  -4.4757   3.5528   4.6675   4.7398
    10.7240  11.7946  11.8500  12.5689  13.3070  15.0908  15.8370  16.1714

          k = 0.4167-0.0833 0.4167 (  1540 PWs)   bands (ev):

   -27.8108 -10.0130  -9.8342  -9.7794  -4.5771   3.7712   4.7600   4.9558
    10.4214  11.2675  11.3411  12.4876  12.7508  14.2445  15.9481  17.0105

          k = 0.3333 0.0000 0.3333 (  1530 PWs)   bands (ev):

   -27.8147  -9.9552  -9.8155  -9.7723  -4.7091   4.1000   4.9273   5.1813
    10.2293  10.7594  10.8309  11.7689  12.5266  13.2847  16.5550  17.2998

          k = 0.0000 0.5000 0.0000 (  1523 PWs)   bands (ev):

   -27.8133  -9.9263  -9.8124  -9.8124  -4.7680   4.0639   5.3252   5.3252
     8.9419  10.6138  11.4960  12.0921  12.0921  14.2576  16.7063  17.5757

          k =-0.0833 0.5833-0.0833 (  1534 PWs)   bands (ev):

   -27.8102  -9.9643  -9.8238  -9.8222  -4.7097   3.9548   5.1586   5.2237
     8.8771  11.0463  11.7867  12.5995  12.6378  14.6559  15.6930  17.0916

          k =-0.1667 0.6667-0.1667 (  1538 PWs)   bands (ev):

   -27.8071 -10.0038  -9.8410  -9.8262  -4.6352   3.8998   4.8588   5.0615
     9.1150  11.7232  12.3453  12.9523  13.0825  14.2207  15.1568  16.6028

          k = 0.7500-0.2500 0.7500 (  1533 PWs)   bands (ev):

   -27.8049 -10.0298  -9.8642  -9.8235  -4.5625   3.8626   4.5994   4.8912
     9.5904  12.1881  13.0757  13.0978  13.1579  13.7108  15.0197  16.4558

          k = 0.6667-0.1667 0.6667 (  1539 PWs)   bands (ev):

   -27.8043 -10.0384  -9.8847  -9.8148  -4.5098   3.7810   4.5213   4.7560
    10.2559  11.7703  12.7492  12.9908  13.8166  14.0225  15.3697  16.6605

          k = 0.5833-0.0833 0.5833 (  1532 PWs)   bands (ev):

   -27.8053 -10.0346  -9.8895  -9.8022  -4.4921   3.6903   4.6160   4.6829
    10.9917  11.3068  12.1840  12.3351  14.0276  14.9356  15.7610  16.3716

          k = 0.5000 0.0000 0.5000 (  1538 PWs)   bands (ev):

   -27.8077 -10.0263  -9.8702  -9.7893  -4.5163   3.6762   4.6844   4.7875
    10.8139  11.4461  11.6579  12.2564  13.3752  15.0889  15.9000  16.5772

          k = 0.0000 0.6667 0.0000 (  1544 PWs)   bands (ev):

   -27.8078  -9.9717  -9.8351  -9.8351  -4.7272   3.9810   5.2412   5.2412
     8.5329  11.1789  11.7880  13.0759  13.0759  14.7471  15.2749  17.1130

          k =-0.0833 0.7500-0.0833 (  1543 PWs)   bands (ev):

   -27.8054  -9.9880  -9.8506  -9.8418  -4.7129   4.0401   5.0882   5.1698
     8.5486  11.6037  12.0653  13.3411  13.4044  14.0479  15.1820  17.0888

          k = 0.8333-0.1667 0.8333 (  1541 PWs)   bands (ev):

   -27.8036  -9.9939  -9.8818  -9.8407  -4.6688   4.1301   4.7618   5.0380
     8.8869  12.2595  12.5872  13.0249  13.4233  13.5210  15.2164  17.2176

          k = 0.7500-0.0833 0.7500 (  1539 PWs)   bands (ev):

   -27.8029  -9.9843  -9.9236  -9.8319  -4.6055   4.1767   4.4539   4.8891
     9.4640  12.3148  12.9271  13.0973  13.2727  13.3022  15.6001  17.0891

          k = 0.6667-0.0000 0.6667 (  1536 PWs)   bands (ev):

   -27.8035  -9.9951  -9.9308  -9.8179  -4.5402   3.9408   4.4812   4.7617
    10.2203  11.7733  12.5015  12.6323  13.9836  14.1190  16.0472  16.1594

          k = 0.0000 0.8333 0.0000 (  1540 PWs)   bands (ev):

   -27.8038  -9.9922  -9.8517  -9.8517  -4.7540   4.1405   5.2031   5.2031
     8.2723  11.6450  12.0261  13.6374  13.6374  13.6665  15.1369  17.6016

          k = 0.9167-0.0833 0.9167 (  1554 PWs)   bands (ev):

   -27.8027  -9.9924  -9.8683  -9.8532  -4.7468   4.2293   5.0491   5.1509
     8.3778  11.9345  12.2408  13.3186  13.5349  13.6603  15.1359  18.0930

          k = 0.8333 0.0000 0.8333 (  1534 PWs)   bands (ev):

   -27.8023  -9.9787  -9.9058  -9.8460  -4.6924   4.3053   4.6873   5.0336
     8.8087  12.4612  12.6827  12.9411  13.1482  13.4477  15.4519  17.7953

          k = 0.0000-1.0000 0.0000 (  1572 PWs)   bands (ev):

   -27.8023  -9.9970  -9.8577  -9.8577  -4.7754   4.2499   5.1935   5.1935
     8.1830  11.7783  12.1195  13.3521  13.7567  13.7567  14.9254  18.7323

          k =-0.1667 0.3333 0.0000 (  1521 PWs)   bands (ev):

   -27.8178  -9.8950  -9.7966  -9.7771  -4.8399   4.4226   5.2230   5.3700
     9.7123  10.3420  10.9552  11.2509  11.6841  12.8384  17.0446  17.6454

          k =-0.2500 0.4167-0.0833 (  1531 PWs)   bands (ev):

   -27.8139  -9.9640  -9.8114  -9.7812  -4.6974   4.0355   4.9684   5.1590
     9.8143  10.8875  11.3862  11.8198  12.3426  13.6240  16.4860  17.3186

          k =-0.3333 0.5000-0.1667 (  1534 PWs)   bands (ev):

   -27.8101 -10.0326  -9.8202  -9.7886  -4.5555   3.7071   4.7526   4.9224
    10.0893  11.5293  11.9752  12.4983  12.8054  14.2559  15.8497  16.6098

          k = 0.5833-0.4167 0.7500 (  1535 PWs)   bands (ev):

   -27.8072 -10.0817  -9.8237  -9.7964  -4.4517   3.4852   4.6268   4.7387
    10.5251  11.8787  12.4027  12.8790  13.4021  14.8768  15.2881  15.8675

          k = 0.5000-0.3333 0.6667 (  1532 PWs)   bands (ev):

   -27.8062 -10.0994  -9.8242  -9.8000  -4.4136   3.4065   4.5951   4.6621
    10.8868  11.5919  12.8047  12.9457  14.0653  14.5828  15.4286  15.4666

          k =-0.1667 0.5000 0.0000 (  1532 PWs)   bands (ev):

   -27.8126  -9.9532  -9.8201  -9.8001  -4.7160   4.0030   5.1136   5.2206
     9.2425  10.8512  11.7916  11.9705  12.3069  14.1886  16.3087  17.3186

          k =-0.2500 0.5833-0.0833 (  1537 PWs)   bands (ev):

   -27.8091  -9.9995  -9.8370  -9.8071  -4.6228   3.8513   4.8708   5.0373
     9.4347  11.3853  12.3931  12.4377  12.7812  14.3669  15.5436  16.7868

          k = 0.6667-0.3333 0.8333 (  1535 PWs)   bands (ev):

   -27.8063 -10.0371  -9.8492  -9.8150  -4.5401   3.7496   4.6550   4.8578
     9.8419  11.9008  12.6111  12.9052  13.2409  14.3560  15.0889  16.2814

          k = 0.5833-0.2500 0.7500 (  1536 PWs)   bands (ev):

   -27.8049 -10.0560  -9.8599  -9.8160  -4.4886   3.6800   4.5619   4.7303
    10.4220  11.5387  13.0101  13.0900  13.4618  14.4405  15.2367  16.1338

          k = 0.5000-0.1667 0.6667 (  1531 PWs)   bands (ev):

   -27.8052 -10.0529  -9.8663  -9.8085  -4.4819   3.6506   4.6045   4.6896
    10.7833  11.2800  12.5745  12.7799  13.7641  14.8361  15.5196  16.0172

          k = 0.4167-0.0833 0.5833 (  1534 PWs)   bands (ev):

   -27.8073 -10.0315  -9.8613  -9.7971  -4.5228   3.6922   4.6867   4.8017
    10.3586  11.5819  12.1703  12.3663  13.3419  14.9640  15.4320  16.5163

          k = 0.3333 0.0000 0.5000 (  1541 PWs)   bands (ev):

   -27.8105  -9.9994  -9.8413  -9.7868  -4.6016   3.8223   4.8042   4.9986
    10.0140  11.1913  11.6978  12.5360  12.6606  14.2785  15.8793  17.0354

          k =-0.1667 0.6667-0.0000 (  1536 PWs)   bands (ev):

   -27.8074  -9.9850  -9.8436  -9.8290  -4.6804   3.9507   5.0430   5.1205
     8.8557  11.3986  12.1291  12.9991  13.0617  14.4540  15.2107  16.9677

          k = 0.7500-0.2500 0.9167 (  1536 PWs)   bands (ev):

   -27.8050 -10.0007  -9.8648  -9.8376  -4.6348   3.9943   4.7905   4.9749
     9.1426  11.8807  12.5843  13.0842  13.3159  13.9061  15.1554  16.7975

          k = 0.6667-0.1667 0.8333 (  1534 PWs)   bands (ev):

   -27.8036 -10.0048  -9.8932  -9.8367  -4.5836   4.0308   4.5476   4.8379
     9.6595  11.9383  12.6783  13.2399  13.3606  13.8774  15.4013  16.8906

          k = 0.5833-0.0833 0.7500 (  1540 PWs)   bands (ev):

   -27.8035 -10.0048  -9.9127  -9.8263  -4.5402   3.9366   4.5121   4.7324
    10.3566  11.3416  12.6148  13.0269  13.4433  14.7113  15.7326  16.3596

          k = 0.5000 0.0000 0.6667 (  1538 PWs)   bands (ev):

   -27.8049 -10.0172  -9.8990  -9.8113  -4.5174   3.7808   4.6405   4.6797
    10.7982  11.1493  12.1869  12.5810  13.9238  14.9852  15.5483  16.3761

          k = 0.8333-0.1667 1.0000 (  1538 PWs)   bands (ev):

   -27.8036  -9.9905  -9.8609  -9.8557  -4.7106   4.1442   4.9944   5.0708
     8.6096  11.8517  12.4200  13.1601  13.6199  13.6220  15.2314  17.3958

          k = 0.7500-0.0833 0.9167 (  1543 PWs)   bands (ev):

   -27.8026  -9.9801  -9.8951  -9.8558  -4.6732   4.2620   4.6933   4.9512
     8.9892  12.1990  12.5312  13.1301  13.2431  13.6371  15.5117  17.5808

          k = 0.6667 0.0000 0.8333 (  1538 PWs)   bands (ev):

   -27.8026  -9.9540  -9.9469  -9.8439  -4.6106   4.2986   4.3949   4.8328
     9.5949  11.9193  12.6350  12.9489  13.3922  13.9950  15.8633  16.8807

          k =-0.1667-1.0000-0.0000 (  1552 PWs)   bands (ev):

   -27.8023  -9.9878  -9.8678  -9.8672  -4.7331   4.2778   4.9671   5.0568
     8.5257  11.9805  12.5509  13.1208  13.2484  13.7621  15.2701  18.2859

          k = 0.6667-0.3333 1.0000 (  1536 PWs)   bands (ev):

   -27.8063 -10.0090  -9.8671  -9.8177  -4.5811   3.8500   4.7518   4.8716
     9.6887  11.6258  12.4090  12.8018  13.2761  14.4906  15.1701  16.6881

          k = 0.5833-0.2500 0.9167 (  1539 PWs)   bands (ev):

   -27.8043 -10.0118  -9.8871  -9.8314  -4.5510   3.8983   4.6261   4.7330
    10.1413  11.4661  12.3158  13.1721  13.5906  14.5574  15.4351  16.4547

          k = 0.5000-0.1667 0.8333 (  1544 PWs)   bands (ev):

   -27.8035 -10.0121  -9.8936  -9.8381  -4.5402   3.9326   4.5544   4.6915
    10.6679  10.8516  12.8778  12.9871  13.3576  15.0800  15.5727  16.3006

          k = 0.6667-0.1667 1.0000 (  1545 PWs)   bands (ev):

   -27.8033  -9.9863  -9.8859  -9.8591  -4.6212   4.1267   4.6801   4.8039
     9.4725  11.8950  12.1811  13.3757  13.5655  13.8547  15.5989  16.9295

          k = 0.5833-0.0833 0.9167 (  1544 PWs)   bands (ev):

   -27.8026  -9.9653  -9.9157  -9.8668  -4.5981   4.2336   4.5145   4.6976
    10.0156  11.2646  12.4207  12.9243  13.6478  14.7970  15.9793  16.7495

          k = 0.5000 0.0000 0.8333 (  1545 PWs)   bands (ev):

   -27.8029  -9.9748  -9.9200  -9.8528  -4.5723   4.1042   4.5609   4.6535
    10.6395  10.7109  12.4101  13.1004  13.4790  15.4866  15.5907  16.3867

          k =-0.3333-1.0000 0.0000 (  1536 PWs)   bands (ev):

   -27.8022  -9.9625  -9.8928  -9.8876  -4.6470   4.3684   4.5639   4.7836
     9.3984  11.8961  12.1841  12.9817  13.7732  13.9666  15.8730  17.4579

          k =-0.5000-1.0000 0.0000 (  1540 PWs)   bands (ev):

   -27.8022  -9.9277  -9.9277  -9.8973  -4.6032   4.3805   4.5365   4.5365
    10.5792  10.5792  12.3267  12.8054  13.7787  15.6082  15.9962  16.6134

     the Fermi energy is     7.0320 ev

!    total energy              =     -83.03917439 Ry
     estimated scf accuracy    <          2.1E-11 Ry
     smearing contrib. (-TS)   =      -0.00000000 Ry
     internal energy E=F+TS    =     -83.03917439 Ry

     The total energy is F=E-TS. E is the sum of the following terms:
     one-electron contribution =     -17.61186985 Ry
     hartree contribution      =      13.90621624 Ry
     xc contribution           =     -13.33466962 Ry
     ewald contribution        =     -65.99885117 Ry

     convergence has been achieved in   8 iterations

     Writing all to output data dir out/mp-1087.save/
 
     init_run     :      0.08s CPU      0.19s WALL (       1 calls)
     electrons    :      2.32s CPU      2.52s WALL (       1 calls)

     Called by init_run:
     wfcinit      :      0.07s CPU      0.13s WALL (       1 calls)
     potinit      :      0.00s CPU      0.00s WALL (       1 calls)
     hinit0       :      0.00s CPU      0.04s WALL (       1 calls)

     Called by electrons:
     c_bands      :      2.05s CPU      2.21s WALL (       9 calls)
     sum_band     :      0.25s CPU      0.27s WALL (       9 calls)
     v_of_rho     :      0.02s CPU      0.02s WALL (       9 calls)
     mix_rho      :      0.00s CPU      0.00s WALL (       9 calls)

     Called by c_bands:
     init_us_2    :      0.03s CPU      0.03s WALL (     684 calls)
     init_us_2:cp :      0.03s CPU      0.03s WALL (     684 calls)
     cegterg      :      1.87s CPU      2.00s WALL (     324 calls)

     Called by *egterg:
     cdiaghg      :      0.39s CPU      0.44s WALL (    1414 calls)
     h_psi        :      1.37s CPU      1.50s WALL (    1486 calls)
     g_psi        :      0.01s CPU      0.01s WALL (    1126 calls)

     Called by h_psi:
     h_psi:calbec :      0.05s CPU      0.06s WALL (    1486 calls)
     vloc_psi     :      1.28s CPU      1.40s WALL (    1486 calls)
     add_vuspsi   :      0.03s CPU      0.03s WALL (    1486 calls)

     General routines
     calbec       :      0.04s CPU      0.05s WALL (    1486 calls)
     fft          :      0.01s CPU      0.04s WALL (      90 calls)
     ffts         :      0.00s CPU      0.00s WALL (       9 calls)
     fftw         :      1.35s CPU      1.47s WALL (   36178 calls)
 
     Parallel routines
 
     PWSCF        :      2.47s CPU      2.97s WALL

 
   This run was terminated on:  22:18:55  14Nov2023            

=------------------------------------------------------------------------------=
   JOB DONE.
=------------------------------------------------------------------------------=
