
     Program PWSCF v.7.1 starts on 15Nov2023 at 22:16:12 

     This program is part of the open-source Quantum ESPRESSO suite
     for quantum simulation of materials; please cite
         "P. Giannozzi et al., J. Phys.:Condens. Matter 21 395502 (2009);
         "P. Giannozzi et al., J. Phys.:Condens. Matter 29 465901 (2017);
         "P. Giannozzi et al., J. Chem. Phys. 152 154105 (2020);
          URL http://www.quantum-espresso.org", 
     in publications or presentations arising from this work. More details at
     http://www.quantum-espresso.org/quote

     Parallel version (MPI), running on    24 processors

     MPI processes distributed on     1 nodes
     123154 MiB available memory on the printing compute node when the environment starts
 
     Reading input from pw_mp-682_nscf_k690_E159.in
Warning: card &IONS ignored
Warning: card / ignored
Warning: card &CELL ignored
Warning: card / ignored

     Current dimensions of program PWSCF are:
     Max number of different atomic species (ntypx) = 10
     Max number of k-points (npk) =  40000
     Max angular momentum in pseudopotentials (lmaxx) =  4

     Atomic positions and unit cell read from directory:
     out/mp-682.save/
     Atomic positions from file used, from input discarded
 
 
     R & G space division:  proc/nbgrp/npool/nimage =      24
     Subspace diagonalization in iterative solution of the eigenvalue problem:
     one sub-group per band group will be used
     scalapack distributed-memory algorithm (size of sub-group:  4*  4 procs)

 
     Parallelization info
     --------------------
     sticks:   dense  smooth     PW     G-vecs:    dense   smooth      PW
     Min          68      68     19                 1818     1818     280
     Max          69      69     20                 1821     1821     282
     Sum        1639    1639    475                43655    43655    6735
 
     Using Slab Decomposition
 


     bravais-lattice index     =            2
     lattice parameter (alat)  =       8.6394  a.u.
     unit-cell volume          =     161.2111 (a.u.)^3
     number of atoms/cell      =            2
     number of atomic types    =            2
     number of electrons       =        16.00
     number of Kohn-Sham states=         2040
     kinetic-energy cutoff     =     159.0000  Ry
     charge density cutoff     =     636.0000  Ry
     Exchange-correlation= PBE
                           (   1   4   3   4   0   0   0)

     celldm(1)=   8.639428  celldm(2)=   0.000000  celldm(3)=   0.000000
     celldm(4)=   0.000000  celldm(5)=   0.000000  celldm(6)=   0.000000

     crystal axes: (cart. coord. in units of alat)
               a(1) = (  -0.500000   0.000000   0.500000 )  
               a(2) = (   0.000000   0.500000   0.500000 )  
               a(3) = (  -0.500000   0.500000   0.000000 )  

     reciprocal axes: (cart. coord. in units 2 pi/alat)
               b(1) = ( -1.000000 -1.000000  1.000000 )  
               b(2) = (  1.000000  1.000000  1.000000 )  
               b(3) = ( -1.000000  1.000000 -1.000000 )  


     PseudoPot. # 1 for F  read from file:
     /usr/scratch4/magr4985/MG/HTDF/pseudo/SG15/F.upf
     MD5 check sum: 1d8275f47d602dd53cad6bcdc0eda7dc
     Pseudo is Norm-conserving, Zval =  7.0
     Generated using ONCVPSP code by D. R. Hamann
     Using radial grid of  602 points,  4 beta functions with: 
                l(1) =   0
                l(2) =   0
                l(3) =   1
                l(4) =   1

     PseudoPot. # 2 for Na read from file:
     /usr/scratch4/magr4985/MG/HTDF/pseudo/SG15/Na.upf
     MD5 check sum: 425b17ce8ead78efa4860b7b3310c7e3
     Pseudo is Norm-conserving, Zval =  9.0
     Generated using ONCVPSP code by D. R. Hamann
     Using radial grid of  602 points,  4 beta functions with: 
                l(1) =   0
                l(2) =   0
                l(3) =   1
                l(4) =   1

     atomic species   valence    mass     pseudopotential
        F              7.00    18.99840     F ( 1.00)
        Na             9.00    22.98980     Na( 1.00)

     48 Sym. Ops., with inversion, found



   Cartesian axes

     site n.     atom                  positions (alat units)
         1           Na  tau(   1) = (   0.0000000   0.0000000   0.0000000  )
         2           F   tau(   2) = (  -0.5000000   0.5000000   0.5000000  )

     number of k points=    29  Gaussian smearing, width (Ry)=  0.0005
                       cart. coord. in units 2pi/alat
        k(    1) = (   0.0000000   0.0000000   0.0000000), wk =   0.0039062
        k(    2) = (  -0.1250000   0.1250000  -0.1250000), wk =   0.0312500
        k(    3) = (  -0.2500000   0.2500000  -0.2500000), wk =   0.0312500
        k(    4) = (  -0.3750000   0.3750000  -0.3750000), wk =   0.0312500
        k(    5) = (   0.5000000  -0.5000000   0.5000000), wk =   0.0156250
        k(    6) = (   0.0000000   0.2500000   0.0000000), wk =   0.0234375
        k(    7) = (  -0.1250000   0.3750000  -0.1250000), wk =   0.0937500
        k(    8) = (  -0.2500000   0.5000000  -0.2500000), wk =   0.0937500
        k(    9) = (   0.6250000  -0.3750000   0.6250000), wk =   0.0937500
        k(   10) = (   0.5000000  -0.2500000   0.5000000), wk =   0.0937500
        k(   11) = (   0.3750000  -0.1250000   0.3750000), wk =   0.0937500
        k(   12) = (   0.2500000   0.0000000   0.2500000), wk =   0.0468750
        k(   13) = (   0.0000000   0.5000000   0.0000000), wk =   0.0234375
        k(   14) = (  -0.1250000   0.6250000  -0.1250000), wk =   0.0937500
        k(   15) = (   0.7500000  -0.2500000   0.7500000), wk =   0.0937500
        k(   16) = (   0.6250000  -0.1250000   0.6250000), wk =   0.0937500
        k(   17) = (   0.5000000   0.0000000   0.5000000), wk =   0.0468750
        k(   18) = (   0.0000000   0.7500000   0.0000000), wk =   0.0234375
        k(   19) = (   0.8750000  -0.1250000   0.8750000), wk =   0.0937500
        k(   20) = (   0.7500000   0.0000000   0.7500000), wk =   0.0468750
        k(   21) = (   0.0000000  -1.0000000   0.0000000), wk =   0.0117188
        k(   22) = (  -0.2500000   0.5000000   0.0000000), wk =   0.0937500
        k(   23) = (   0.6250000  -0.3750000   0.8750000), wk =   0.1875000
        k(   24) = (   0.5000000  -0.2500000   0.7500000), wk =   0.0937500
        k(   25) = (   0.7500000  -0.2500000   1.0000000), wk =   0.0937500
        k(   26) = (   0.6250000  -0.1250000   0.8750000), wk =   0.1875000
        k(   27) = (   0.5000000  -0.0000000   0.7500000), wk =   0.0937500
        k(   28) = (  -0.2500000  -1.0000000   0.0000000), wk =   0.0468750
        k(   29) = (  -0.5000000  -1.0000000   0.0000000), wk =   0.0234375

     Dense  grid:    43655 G-vectors     FFT dimensions: (  50,  50,  50)

     Estimated max dynamical RAM per process >     323.39 MB

     Estimated total dynamical RAM >       7.58 GB

     The potential is recalculated from file :
     out/mp-682.save/charge-density

     Starting wfcs are random

     Band Structure Calculation
     Davidson diagonalization with overlap

     ethr =  5.00E-06,  avg # of iterations =  7.4

     total cpu time spent up to now is     7254.5 secs

     End of band structure calculation

          k = 0.0000 0.0000 0.0000 (  5577 PWs)   bands (ev):

   -45.3643 -17.5272 -17.2648 -17.2648 -17.2648   1.6183   1.6183   1.6183
     8.1952  21.0545  21.0545  21.0545  23.8915  26.3237  26.3237  29.1737
    29.1737  29.1737  36.2917  36.2917  36.2917  41.8612  51.1761  51.1761
    51.1761  52.7273  55.4662  55.4662  55.9197  55.9197  55.9197  65.0009
    65.0009  68.4829  68.4829  68.4829  71.1553  71.1553  71.1553  75.6115
    75.6115  75.6115  76.7713  76.7713  76.7713  78.1891  78.1891  78.1891
    78.3558  80.4797  80.4797  80.4797  81.0081  81.0081  81.0957  81.3291
    81.3291  81.3291  82.1547  90.6030  90.6030  90.6030  98.9461  98.9461
    98.9461 104.9492 104.9492 106.6096 118.3624 118.3624 118.3624 121.9664
   123.4851 123.4851 123.4851 128.7318 128.7318 129.3758 129.3758 129.3758
   131.8909 132.6811 132.6811 132.6811 133.6889 133.6889 134.1287 135.0870
   135.0870 135.0870 136.2493 136.2493 136.2493 137.0048 137.0048 137.0048
   137.1968 137.1968 137.1968 137.2158 137.2158 139.2362 139.2362 139.2362
   140.6797 140.6797 140.6797 142.0137 142.0137 143.0042 143.0042 143.0042
   143.7398 152.7583 152.7583 152.7583 156.4174 156.4174 156.4174 162.6999
   162.6999 162.6999 163.4006 165.6063 169.2932 169.2932 169.4873 169.4873
   169.4873 169.8259 169.8259 169.8259 170.0403 170.0403 170.0403 170.1257
   170.1257 170.1257 170.2651 170.2651 172.7106 172.7106 180.8298 185.1798
   185.1798 185.1798 185.6405 185.6405 185.6405 188.0850 190.1568 190.2983
   190.2983 190.2983 190.6756 190.6756 190.6756 191.6273 191.6273 191.6273
   191.8294 191.8294 191.8294 195.4108 195.4108 195.4689 195.4689 195.4689
   195.5711 200.7126 200.7126 200.7126 215.3948 215.3948 215.3948 221.8141
   221.8141 221.8141 222.8812 222.8812 223.1924 223.1924 223.1924 225.2290
   234.3693 234.3693 234.3693 235.7734 235.7734 235.7734 236.5272 236.5272
   237.9346 237.9346 237.9346 241.6541 243.4692 243.4692 243.4692 244.8432
   244.8432 244.8432 245.3387 245.3387 246.4777 246.7844 246.7844 246.9694
   246.9694 246.9694 247.5843 247.5843 247.5843 247.9870 248.0203 248.3476
   248.3476 248.3476 249.5846 249.5846 249.5846 249.5998 249.5998 250.3567
   250.3567 250.3567 250.9807 250.9807 250.9807 251.5064 251.6486 251.6486
   251.6486 252.1567 252.1567 252.1567 252.2798 252.2798 252.7676 252.7676
   252.7676 253.0535 255.3356 255.5834 255.5834 255.5834 255.9437 255.9437
   255.9437 255.9839 255.9839 256.2836 256.2836 256.2836 256.3800 256.3800
   256.3800 256.4492 256.4492 271.5377 271.5377 271.5377 275.9302 275.9302
   280.8370 280.8370 280.8370 281.0421 281.0421 281.0421 281.2494 281.2494
   281.2494 281.5861 281.5861 281.5861 281.8296 286.0739 286.0739 286.1359
   286.1359 286.1359 286.2674 288.0193 288.0193 288.0193 297.5818 297.5818
   297.5818 297.9462 303.1200 305.1646 305.1646 305.1646 305.7100 305.7100
   305.8842 305.8842 305.8842 306.0292 306.0292 306.0292 306.2224 306.2224
   306.2224 306.2771 306.2771 306.2771 306.4368 306.4368 310.7104 310.7104
   310.7104 311.0277 311.0277 311.2923 311.4333 311.4333 311.4333 311.5976
   311.5976 311.5976 311.8007 311.8007 311.8007 312.1305 312.1305 312.1305
   312.3679 312.3679 314.6564 328.5865 328.5865 328.5865 336.5951 336.5951
   336.5951 338.7086 338.7086 338.7086 338.8828 341.0490 343.6757 343.6757
   351.9474 353.1282 353.1282 353.1282 353.8270 353.8270 353.8270 354.7377
   354.7377 354.7377 354.9515 354.9515 354.9515 355.6849 355.6849 360.8116
   362.0304 362.0304 362.0304 362.5936 362.5936 362.5936 362.7897 362.7897
   362.7897 362.7932 362.7932 363.0451 363.0451 363.0451 363.3407 363.3407
   363.3407 363.4550 363.4550 363.4550 365.0577 365.4492 365.4492 365.4492
   365.7373 365.7373 365.7373 365.8804 365.8804 365.9809 365.9809 365.9809
   368.0506 368.0711 368.0711 368.0711 368.0952 368.0952 369.8602 369.8602
   369.8602 369.9828 369.9828 370.1683 370.2747 370.2747 370.2747 370.5688
   370.5688 370.5688 370.8033 386.5444 386.5444 386.5444 391.2652 391.3183
   391.3183 391.3183 395.2057 395.2057 395.3168 395.3168 395.3168 395.4263
   395.4263 395.4263 395.7011 395.7011 395.7011 396.0010 396.0010 396.0010
   396.1473 396.1473 398.1930 398.6397 398.6397 398.6397 400.0498 400.0498
   400.1795 400.1795 400.1795 400.2491 400.2491 400.2491 400.3455 400.3455
   400.3455 400.3918 400.3918 400.3918 400.5044 400.5044 401.7933 401.8084
   401.8084 401.8084 401.8523 401.8523 401.8523 401.9229 408.7005 408.7005
   408.7005 408.9092 408.9092 411.0271 411.0271 411.0271 411.1966 412.1920
   412.1920 412.1920 413.0493 413.0493 413.0493 415.1302 415.1302 415.1302
   415.9302 416.4251 416.4251 416.4251 416.8310 416.8310 417.2799 417.2799
   417.2799 417.9046 419.1118 420.3392 420.3392 421.0539 421.0539 421.0539
   421.2734 421.2734 421.2734 421.2957 421.2957 421.2957 421.9548 421.9548
   422.0042 422.0042 422.0042 422.4032 422.6003 422.6003 422.6003 422.6499
   422.6499 424.0031 424.0031 424.0031 424.1115 424.1115 424.1115 424.2446
   424.2446 424.2446 424.3217 424.3217 424.3217 425.1364 425.1910 425.1910
   425.1910 425.2311 425.2311 443.8796 443.8796 443.8796 448.1991 448.1991
   452.0196 466.0843 466.0843 466.0843 474.9030 474.9030 474.9030 475.3824
   475.3824 475.3824 475.5415 475.6619 475.6619 476.1451 476.1451 476.1451
   476.4119 476.4119 476.4119 476.4922 476.4922 476.4922 476.7186 476.7186
   476.7186 476.8349 476.8349 476.8978 476.8978 476.8978 477.0421 477.0904
   477.0904 477.7995 477.7995 477.7995 478.6837 478.8504 481.9686 481.9686
   481.9686 482.1663 482.1663 482.1663 482.5056 482.5056 482.5056 482.6740
   482.6740 482.6740 482.8494 485.9893 485.9893 485.9933 485.9933 486.0532
   486.0532 486.0532 486.0727 486.0727 486.0727 486.2113 486.2113 486.2113
   486.2746 486.2746 486.2746 487.5258 487.5258 487.5305 487.5305 487.5305
   487.6314 505.1448 505.1448 505.1448 509.1812 509.1812 509.1812 509.3993
   509.3993 509.4044 509.4044 509.4044 512.4177 512.4606 512.4606 512.4606
   512.6670 512.6670 512.9073 512.9073 512.9073 513.2666 513.2666 513.2666
   513.2943 513.2943 513.2943 513.5138 513.5138 513.5138 513.5295 513.5418
   513.5418 513.5511 513.5511 513.5511 514.2250 517.9317 517.9317 517.9317
   522.3400 522.3400 522.3400 522.8195 522.8195 522.8578 522.8578 522.8578
   528.5526 531.8304 532.5542 532.5542 532.5542 532.5648 532.5648 532.5648
   532.7185 532.7185 532.8141 532.8141 532.8141 533.0060 533.0060 533.0060
   533.0989 533.0989 533.0989 533.3697 534.0851 537.3354 537.3354 537.3625
   537.3625 537.3625 537.4520 537.4520 537.4520 537.5399 537.5399 537.5399
   537.5991 539.0383 539.0383 539.0383 539.5180 539.5180 539.5180 539.5339
   539.5339 539.5942 539.5942 539.5942 539.6647 539.6647 539.6647 539.7185
   540.4607 540.4607 540.4607 540.8502 540.8502 540.8807 540.8807 540.8807
   540.9900 541.5030 541.5030 541.5030 541.7367 541.7367 541.7367 541.9895
   541.9895 541.9899 541.9899 541.9899 542.5465 563.4545 563.4545 563.4545
   567.0804 567.0804 568.1549 568.1549 568.1549 568.1683 568.1683 568.1683
   568.2607 568.2607 568.2607 568.3948 568.3948 568.3948 569.1250 569.1250
   569.2428 569.2428 569.2428 569.4043 569.5763 573.0050 573.0050 573.0050
   574.4901 574.4901 577.7888 582.8979 582.8979 582.8979 584.3925 584.3925
   584.3925 584.5058 587.9422 588.8767 588.8767 588.8767 589.1513 589.1513
   589.1513 589.2301 589.2301 589.2301 589.2783 589.2783 589.2945 589.2945
   589.2945 589.4734 589.4734 592.9758 592.9758 592.9758 593.0824 593.0824
   593.0824 593.1660 593.1660 593.1660 593.2113 593.2113 593.2113 594.1895
   594.1895 594.3323 594.3323 594.3323 594.3675 594.3675 594.3675 594.3940
   594.3940 594.4124 594.4124 594.4124 594.5387 594.5387 594.5387 594.5830
   594.5830 594.5830 595.7359 595.7359 595.7359 595.8373 595.9676 595.9676
   595.9676 595.9702 595.9702 595.9702 595.9950 596.0061 596.2895 596.2895
   596.2895 596.3192 596.3192 596.5085 596.5085 596.5085 596.5576 596.5576
   596.5576 596.7380 596.7380 596.7380 596.8313 596.8313 598.2930 598.3625
   598.3625 598.3625 598.3979 598.3979 598.9042 601.2730 601.2730 601.3663
   601.3663 601.3663 601.5595 601.5595 601.5595 601.5653 601.5653 601.5653
   601.6606 601.7137 601.7137 601.7137 601.8100 601.8100 601.8266 601.8266
   601.8266 601.9852 601.9852 601.9852 602.0815 620.3123 620.3123 620.3123
   621.2435 621.2991 621.2991 621.2991 622.5846 629.9293 629.9293 629.9585
   629.9585 629.9585 629.9695 629.9695 629.9695 629.9742 629.9742 629.9742
   630.0230 630.0230 630.0727 630.0727 630.0727 637.4593 637.4593 637.4593
   639.2758 639.2758 642.0107 642.7420 642.7420 642.7420 642.8980 642.8980
   642.8980 642.9121 642.9121 642.9121 642.9849 642.9849 642.9849 647.5734
   647.5734 647.6338 647.6338 647.6338 647.6417 651.8330 651.8474 651.8474
   651.8474 651.8835 651.8835 654.1768 654.1768 654.1768 654.2017 654.2017
   654.2017 654.2044 654.2044 654.2044 654.2609 654.2609 654.2609 655.3328
   655.3328 655.3606 655.3606 655.3606 655.4457 681.2610 681.2610 681.2610
   683.8620 683.8620 683.8620 684.0512 684.6071 684.6165 684.6165 684.7252
   684.7252 684.7252 684.7996 684.7996 684.7996 684.8998 684.8998 684.8998
   684.9077 684.9077 684.9077 684.9905 684.9905 693.1782 693.1782 693.1782
   696.9984 696.9984 696.9984 698.1575 698.5037 699.1787 699.1787 699.2138
   699.2138 699.2138 700.9238 700.9238 700.9238 701.7966 701.7966 701.7966
   702.5907 703.7905 703.7905 703.7905 704.7752 704.7752 705.4655 705.4655
   705.4655 705.6663 705.6663 705.6663 705.7845 705.7845 705.7906 705.7906
   705.7906 706.1128 706.1128 706.1128 706.4804 707.1294 707.1294 707.1294
   707.2929 707.2929 707.4178 707.4178 707.4178 707.5140 707.6070 707.6070
   707.6070 707.7339 707.7339 707.7339 707.7828 707.7828 708.1393 708.1393
   708.1393 708.6287 709.7395 709.7395 709.7395 709.7662 709.7662 709.7662
   709.7870 709.7870 709.8621 709.8621 709.8931 709.8931 709.8931 709.9299
   709.9299 709.9299 710.7589 711.2591 711.2591 711.2653 711.2653 711.2653
   711.2654 711.2654 711.2654 711.2972 711.2972 711.2972 711.3364 715.5427
   715.5427 715.5427 715.5430 715.5430 715.5430 715.5448 715.5748 715.5748
   715.5748 715.5968 715.5968 734.7884 734.7884 734.7884 735.8382 735.8382
   736.6739 739.0908 739.0908 739.0908 739.4278 739.4278 739.4278 739.9560
   739.9560 739.9560 740.1030 740.4469 740.4469 740.5748 740.5748 740.5748
   740.7187 740.7187 740.7187 740.7211 740.8330 740.8330 740.8330 740.9290
   740.9290 741.4349 741.4349 741.4349 741.7409 741.7409 741.7409 741.7757
   741.7757 741.7757 742.0703 742.0703 742.0703 745.1403 745.1403 745.2332
   745.2791 745.2791 745.2791 745.3099 745.3099 745.3099 745.4231 745.4231
   745.4231 745.4269 745.4269 745.4269 745.4408 745.4408 745.5697 745.5697
   745.5697 745.6997 745.6997 745.6997 745.8103 746.6767 746.6767 746.7334
   746.7334 746.7334 746.8660 755.2177 755.2177 755.2177 756.7901 756.7901
   756.7901 756.9941 756.9941 757.0079 757.0079 757.0079 758.4438 758.6731
   758.6731 758.6731 758.8138 758.8138 758.8678 758.8678 758.8678 759.1511
   759.1511 759.1511 759.3665 762.6608 763.0191 763.0191 763.0191 763.3362
   763.3362 763.3362 763.7708 763.7708 763.7963 763.7963 763.7963 764.9543
   765.1523 765.1523 765.1523 765.3467 765.3467 765.3467 765.5209 765.5209
   765.5209 765.5299 765.5299 768.6845 768.6845 768.6845 768.6860 768.6860
   768.8302 768.8302 768.8302 768.9603 768.9603 768.9603 769.1005 769.1051
   769.2231 769.2232 769.2232 769.3101 769.3101 769.3101 769.3666 769.3666
   769.3780 769.3780 769.3780 770.1901 770.1901 770.1901 770.4230 770.4321
   770.4321 770.4321 770.6950 771.2481 771.2481 771.2481 771.4448 771.4448
   771.9318 771.9318 771.9318 771.9403 771.9403 771.9403 771.9809 771.9809
   771.9809 771.9824 772.0141 772.0141 772.0141 772.5500 772.5500 772.5845
   772.5845 772.5845 772.5879 816.4716 816.4716 816.4716 817.8817 818.0479
   818.0479 818.0479 818.1716 818.6313 818.6313 818.7360 818.7360 818.7360
   818.8756 818.8756 818.8756 818.9279 818.9279 818.9279 818.9970 818.9970
   818.9970 819.0850 819.0850 820.9886 820.9886 820.9886 821.6393 821.6393
   821.6393 821.7382 823.3609 824.1666 824.1666 824.2409 824.2409 824.2409
   824.3367 824.3367 824.3367 824.3498 824.3498 824.3498 824.4516 824.4516
   824.4516 824.4624 824.5066 824.5066 824.5825 824.5825 824.5825 824.7072
   824.7072 824.7072 824.7916 824.7916 824.8298 824.9602 824.9602 824.9602
   825.3695 825.3695 825.3695 825.7484 825.7484 825.7484 825.7710 825.7710
   825.7710 826.4271 826.4271 827.2325 827.2325 827.2325 827.3058 827.4282
   827.4282 827.6487 827.6487 827.6487 827.6741 827.6741 827.6741 827.7201
   827.7201 827.7201 827.9789 827.9789 827.9789 828.0325 828.3918 828.3918
   828.3918 828.3927 828.3927 831.7150 831.7150 831.7150 831.7383 831.7383
   831.8134 831.8134 831.8134 831.8785 831.8785 831.9082 831.9082 831.9082
   831.9135 831.9135 831.9135 833.4582 833.4700 833.4700 833.4700 833.4984
   833.4984 833.4984 833.5429 854.6697 854.6697 854.6697 855.1178 855.1178
   855.3018 855.5217 855.5217 855.5217 855.5542 855.5542 855.5542 855.5705
   855.5705 855.5705 855.6114 855.6114 855.6114 855.9173 855.9173 855.9190
   855.9458 855.9458 855.9458 860.4120 860.4120 860.4464 860.4464 860.4464
   860.5578 860.7066 860.7066 860.7066 860.7206 860.7206 860.7206 860.7293
   860.7293 860.7293 860.7696 860.7696 860.7696 860.9432 860.9814 860.9814
   860.9814 860.9820 860.9820 862.0360 862.0360 862.0360 862.2793 862.2793
   863.0830 872.3136 872.3136 872.3136 872.5841 872.5989 872.5989 872.5989
   873.0536 880.8305 880.8305 880.8305 880.8407 880.8407 880.8407 880.8483
   880.8483 880.8483 880.9050 880.9050 880.9050 881.7075 881.7075 881.7075
   881.7212 881.7212 881.7258 881.7258 881.7258 881.7396 881.7396 881.7562
   881.7562 881.7562 881.7794 881.7794 881.7794 886.1391 886.1693 886.1693
   886.1693 886.1836 886.1836 912.0767 912.0767 912.0767 912.3384 912.3384
   912.3384 912.3658 912.3658 912.3663 912.3663 912.3663 912.5889 922.8226
   922.8226 922.8226 924.1811 924.1811 924.2007 924.2007 924.2007 924.3650
   924.4907 924.4907 924.4907 927.0671 927.0671 927.3184 927.3184 927.3184
   928.4718 929.8827 929.8827 929.8827 930.5292 930.5292 930.5292 930.6884
   930.6884 930.6884 931.2843 931.2843 931.2843 934.2589 934.8982 934.8982
   934.8982 935.0122 935.0176 935.0176 935.4375 935.4375 935.4375 935.7310
   935.7310 935.7310 935.9508 935.9508 935.9508 935.9911 935.9911 935.9911
   936.1584 936.1584 936.2076 936.2076 936.4696 936.5716 936.5716 936.5716
   936.6638 936.6638 936.6638 936.9698 937.0444 937.0444 937.0444 937.1331
   937.1331 937.1331 937.3609 937.3609 937.3609 937.5009 937.5009 939.8428
   939.8813 939.8813 939.8813 939.9217 939.9217 940.2456 940.2456 940.2637
   940.2637 940.2637 940.3224 940.3224 940.3224 940.3967 940.3967 940.3967
   940.5071 941.4750 941.4750 941.4750 941.8933 941.8933 941.8933 942.0422
   942.0422 942.0422 942.0489 942.0489 942.0489 942.0905 942.0905 942.0905
   942.0969 942.0969 942.0969 942.1638 942.4104 942.5246 942.5246 942.5246
   942.5629 942.5629 942.5629 942.5812 942.5812 942.6183 942.6183 942.6212
   942.6212 942.6212 942.6265 942.7811 942.7811 942.7811 942.9478 942.9478
   942.9478 942.9861 942.9861 942.9861 943.0928 943.0928 943.0928 943.1598
   943.1598 943.2322 943.2322 943.2349 943.2349 943.2349 943.3107 944.3046
   944.3046 944.3688 944.3688 944.3688 944.4769 944.4769 944.4769 944.5714
   944.5714 944.5714 944.9114 944.9114 944.9114 944.9136 944.9136 945.0758
   945.3556 945.3556 945.3556 945.4719 945.4719 945.4719 945.5359 966.1344
   966.1344 966.1344 966.2232 966.2313 966.2313 966.2313 966.4481 971.0393
   971.0393 971.0393 971.0447 971.0447 971.0681 971.0681 971.0681 971.1204
   971.1204 971.1204 971.2400 971.2400 971.2400 971.2449 971.2449 971.2449
   971.2462 971.2462 971.2667 971.2667 971.2667 971.2947 971.3706 975.3225
   975.3226 975.3281 975.3281 975.3281 975.3553 975.3553 975.3556 975.3556
   975.3556 975.3641 975.3641 975.3641 975.3700 975.3700 975.3700 990.5440
   990.5440 990.5440 990.8234 990.8234 990.8234 990.9851 991.0567 991.3619
   991.3619 991.4047 991.4047 991.4048 991.5898 991.5898 991.5898 991.6612
   991.6612 991.6612 991.8112 991.8112 991.8112 991.8421 991.8421 993.8133
   993.8133 993.8795 993.8795 993.8795 994.1334 994.1334 994.1334 994.1601
   994.1601 994.1601 994.3747 994.3747 994.3747 994.4864 994.5369 994.5369
   994.6718 994.6718 994.6718 994.8972 994.8972 994.8972 995.0671 997.1539
   997.1640 997.1640 997.1802 997.1802 997.1802 997.1957 997.1957 997.1957
   997.2177 997.2177 997.2177 997.3044 997.3044 997.3044 997.3104 997.3104
   997.3104 997.3192 997.3192 997.3282 997.3282 997.3282 997.33841001.2331
  1001.23311001.23311001.39591001.39591001.39591001.48381001.48381001.5213
  1001.52131001.52131001.54231001.69161001.69161001.69161001.71411001.7787
  1001.77881001.77881001.84461001.84461001.84461001.91001001.91001001.9666
  1001.96661002.09261002.09261002.09261002.16211002.16211002.16211002.2661
  1002.26611002.26611002.29171002.50871002.50871002.50871002.60291002.6029
  1002.68021002.68021002.68021002.81221002.81221002.81221002.88671023.5243
  1023.52431023.52431023.65501023.65501023.79951029.73991029.73991029.7399
  1029.74271029.76231029.76231029.76241029.87781030.52581030.52581030.5258
  1030.52681030.52681030.53231030.53231030.53231030.54111030.54111030.5437
  1030.54371030.54371030.54521030.54521030.54521045.88481045.88481045.8869
  1045.88691045.88691046.19761046.19761046.19761046.20981046.21221046.2122
  1046.21221046.24081046.24081046.24081046.26421046.26421046.26421046.6800
  1046.70091046.70091046.73901046.73901046.73901050.80661050.81961050.8196
  1050.81961050.82411050.82411050.82411050.89241052.62531052.62531052.6253
  1052.70161052.70161052.84181056.32311056.32981056.32981056.32981056.3391
  1056.33911056.55501056.55501056.55501056.56951056.56951056.56951056.5764
  1056.57641056.57641056.60461056.60461056.60461056.78571056.78571056.8053
  1056.80531056.80531056.86421058.11721058.11721058.11721058.12081058.1208
  1058.12081058.14231058.14231058.14231058.15281058.15281058.15281063.2299
  1063.22991063.25701063.25701063.25701063.30661084.21361084.21361084.2136
  1084.24911084.26491084.26491084.26491084.48501084.70661084.70661084.7066
  1084.71101084.71101084.75281084.75281084.75281084.76561084.76561084.7928
  1084.79281084.79281084.80251084.80251084.80251088.19901088.23361088.2336
  1088.23361088.29161088.29161088.73951088.73951088.73951088.74391088.7439
  1088.74391088.77001088.77001088.77001088.81531088.81531088.81531089.3395
  1089.37221089.37221089.37221089.37731089.37731090.44481090.44481090.4685
  1090.46851090.46851090.51651090.51651090.51651090.52321090.52321090.5232
  1090.57651090.57651090.57651090.59661090.59661090.79921090.81091090.8109
  1090.81091090.82721090.82721090.82721090.84661100.74741100.75871100.7587
  1100.75871100.78041100.78041100.78041101.16271104.31251104.31251104.3598
  1104.35981104.35981104.38821104.38821104.38821104.39981104.39981104.3998
  1104.43571104.43571104.43571104.43921104.43921108.10371108.14311108.1431
  1108.14311108.23431108.23431108.23431108.31891108.94641108.94641108.9672
  1108.96721108.96721109.01961109.01961109.01961109.03151109.03151109.0315
  1109.07901109.07901109.07901109.09771109.09771111.66201111.66311111.6633

          k =-0.1250 0.1250-0.1250 (  5471 PWs)   bands (ev):

   -45.3620 -17.7430 -17.2668 -17.2668 -17.0281   1.3120   1.5780   1.5780
     8.7523  19.2562  21.3029  21.3029  25.7198  25.7198  25.8771  29.3408
    29.9906  29.9906  35.1176  36.7536  36.7536  43.1278  48.2720  48.2720
    51.5424  53.2422  53.9016  53.9016  56.2558  61.2577  61.2577  63.7061
    63.7061  66.6434  67.9779  68.6269  68.6269  68.7791  68.7791  71.7404
    71.7404  72.3875  75.7989  76.0657  76.0657  76.2585  77.8647  79.7997
    79.7997  80.9804  81.3130  81.3130  82.6265  82.6265  83.2444  85.2823
    86.6599  88.0381  88.0381  90.8955  90.8955  93.7184  97.6188  98.1094
    98.1094 105.0211 105.0211 106.3902 117.1489 118.5513 118.5513 118.9544
   118.9544 121.5765 123.3051 124.6280 124.6280 127.3720 127.3720 127.4407
   127.8565 127.8565 129.1397 129.1397 129.2373 131.1870 131.4114 133.9203
   133.9203 134.6557 134.6557 134.8306 135.0836 136.7196 137.5854 137.5854
   137.9519 138.7470 138.7470 139.1870 139.1870 141.7114 142.6989 142.6989
   144.2809 145.0639 147.0162 147.0162 148.4750 148.4750 148.5114 151.4860
   151.4860 151.9181 151.9181 152.8482 153.6161 154.0882 154.0882 156.2636
   156.2636 157.9305 162.3861 162.3861 163.1709 164.1688 164.1688 166.8645
   168.7535 168.7535 169.0183 171.8814 172.0393 172.0393 172.7175 173.9577
   173.9577 175.8341 177.2176 177.2176 177.4795 180.4364 180.4364 180.5065
   181.3207 181.3207 181.3966 181.8552 184.0438 184.3918 184.3918 184.9332
   184.9332 187.5785 187.5785 187.7776 192.3018 192.3018 194.4716 196.2670
   197.9231 199.0488 199.0488 199.0938 199.0938 199.7854 200.1036 200.1036
   203.1312 205.8476 205.8476 207.0105 211.5212 211.5212 212.1027 213.3227
   213.3227 220.2667 222.5941 222.5941 223.5078 223.9486 226.4157 226.4157
   229.6640 229.6640 231.6502 231.6502 232.0627 232.2839 233.5526 234.7518
   234.7518 236.3606 236.3872 236.3872 236.9003 236.9003 237.1967 238.6247
   238.6247 238.8283 238.8283 239.4005 239.4135 240.3577 240.3577 241.7973
   243.7342 243.7342 245.0874 245.3070 245.7576 245.7576 246.7111 247.1297
   247.1297 247.4813 247.4813 247.5009 249.1096 249.1096 249.6462 250.0408
   250.4689 250.4689 251.0721 251.0721 252.7354 252.9863 252.9863 254.1219
   254.6489 254.6489 254.8831 255.3243 255.7017 256.0522 256.0522 256.9456
   256.9456 259.6706 259.6706 259.8607 260.4967 260.4967 260.9060 262.8627
   263.1009 263.1009 264.4319 264.8822 264.8822 265.7825 265.7825 266.1644
   267.2536 267.2536 267.8051 268.2142 268.7876 268.7876 269.2204 271.9103
   271.9103 273.3106 274.2299 274.2299 276.6217 277.4445 277.4445 277.5425
   282.6220 282.6220 284.7838 284.7838 285.4414 287.2031 287.2031 290.2585
   290.2585 290.5416 290.5626 291.2573 293.7693 293.7693 294.1520 294.1520
   294.7826 296.9323 296.9323 297.5117 298.5099 298.5099 299.2666 299.3013
   299.3013 299.8740 299.8740 301.2157 301.2157 301.3037 301.3398 303.2808
   303.2976 303.2976 304.5047 307.1133 307.1133 308.5711 309.0397 311.8009
   311.8009 314.0747 314.0747 314.2408 315.3468 315.3468 315.4647 315.5734
   316.8446 320.5249 320.5249 322.0097 322.6719 322.6719 322.8098 323.9703
   323.9703 326.3439 326.3439 326.8898 329.0265 329.7202 329.7202 330.7057
   330.7057 333.0836 337.3709 337.3709 337.8276 340.9400 341.9512 341.9512
   344.9014 344.9014 346.0569 346.0569 347.8678 348.1609 348.5538 348.5538
   349.8723 350.0080 350.0080 350.2456 351.0161 351.0161 352.3279 352.3279
   352.8975 355.0038 355.0038 355.3669 355.6001 356.5967 356.5967 356.9272
   356.9533 356.9533 358.3689 358.3689 359.0413 359.9969 361.4394 361.4394
   361.6994 364.4919 366.0219 366.0329 366.0329 366.4548 366.4548 366.5521
   368.0535 370.5887 370.7393 370.7393 371.6025 371.6025 372.2671 372.2671
   372.2858 372.6688 374.4596 374.4596 375.1891 375.1891 375.8115 376.0493
   376.4572 376.4572 377.3092 378.5506 378.5506 379.0938 379.0938 380.3562
   380.3562 380.6152 381.8637 382.0458 382.0458 383.2251 383.9994 384.5080
   384.5080 384.9342 384.9342 385.0698 386.5887 388.1822 388.1822 388.5638
   388.5638 388.8127 390.4466 390.4466 391.0240 391.4150 391.4150 391.4805
   393.2531 393.2531 394.8165 395.6430 395.6606 395.6606 396.5589 396.5589
   397.4273 397.7027 398.1027 398.1027 399.5980 399.5980 399.6745 400.4460
   400.4460 400.9188 400.9188 400.9384 402.2542 403.6233 403.6233 404.0367
   404.0367 404.8157 405.3233 405.4476 405.4476 405.6032 405.6347 406.4021
   406.4021 406.8752 406.8752 407.4535 408.8191 408.8191 408.9848 411.1285
   411.1821 411.1821 411.9114 411.9114 412.1361 412.7308 414.4313 414.4313
   415.1158 415.1158 415.1682 415.8264 416.0734 416.0734 416.4391 417.0723
   417.0723 417.6095 417.6095 418.3101 418.3101 418.3594 419.4938 419.4938
   420.2613 421.3059 422.1592 422.1592 422.1595 423.6089 423.6089 423.7311
   426.1903 426.8178 426.8178 427.4236 428.3869 428.3869 430.3680 430.3680
   431.0388 431.1936 432.0272 432.0272 432.3266 432.3266 432.8857 432.8857
   432.9778 434.5581 435.0212 435.0212 435.3749 436.9774 440.8469 440.8469
   441.9853 443.2768 443.2768 443.6213 445.6729 445.6729 449.0684 453.1484
   453.1946 453.1946 456.2782 456.2782 459.1467 460.7437 460.7437 462.3142
   462.3142 463.0667 463.0667 464.1879 464.1879 464.2215 464.3023 465.0390
   465.5157 465.5157 466.5236 467.7723 467.7723 469.1023 469.6003 469.6003
   470.6566 474.1307 474.1307 474.7744 475.0978 475.0978 475.1002 475.7327
   475.7327 476.0525 477.7975 477.7975 478.7321 480.5504 480.5504 481.1194
   482.2371 482.2371 483.4148 486.3146 487.6931 487.6931 488.4408 488.4408
   489.0937 489.0937 489.2898 489.3453 489.8988 489.8988 491.8042 491.9576
   491.9576 492.3666 493.1643 493.1643 493.7677 494.7247 495.4800 495.5504
   495.5504 497.0765 497.0765 497.4965 498.1287 498.1287 498.6686 498.6686
   498.8369 498.8369 498.8550 499.1335 499.7898 500.1678 500.1678 500.9832
   500.9832 501.4131 502.7808 504.0332 504.0332 504.1306 505.2404 505.2404
   506.2590 507.0824 509.1448 509.1448 510.1521 510.2455 510.2455 511.0311
   511.0311 511.4375 511.4375 511.4603 511.4641 515.4465 515.4465 515.5946
   516.2727 516.8191 516.8191 517.4961 517.4961 518.7982 518.7982 518.8109
   520.7230 520.7900 520.7900 521.4237 521.4237 521.7459 522.6321 523.3878
   523.3878 524.0588 525.2160 525.2415 525.2415 527.0881 527.0881 527.4680
   527.6341 527.6341 527.6893 530.9038 531.6010 531.6010 533.2775 533.2775
   533.8156 533.8720 533.8720 533.9800 534.8763 534.8763 535.0344 535.0796
   535.0796 535.2015 535.5697 535.5697 535.6472 537.2245 537.2245 538.1503
   538.1503 538.2046 538.3340 540.7459 540.7459 540.9074 542.8644 542.8644
   542.9162 542.9615 543.1577 543.1577 543.7589 544.3707 544.3707 544.9585
   544.9585 545.2144 545.2385 545.2385 545.2862 546.2223 546.2223 546.9158
   547.4731 547.4731 547.7030 554.1687 554.1687 554.4831 556.0848 556.0848
   556.6683 558.2840 559.0532 559.1505 559.1505 559.7130 559.7282 559.7282
   561.2737 561.2737 561.5680 561.8479 561.8479 561.9151 561.9151 561.9194
   562.1054 562.3743 562.9079 562.9079 565.8372 566.7877 566.7877 567.6867
   567.6867 569.3516 570.4692 570.4692 570.5477 571.8453 571.8453 572.2653
   574.3217 574.3217 575.6678 576.1022 576.1268 576.1268 576.3250 576.4324
   576.4324 576.5077 576.7304 576.7304 576.8646 576.8646 577.0466 577.6951
   577.6951 578.1251 579.6327 579.6327 580.3185 580.6906 580.6906 580.7346
   581.7627 581.7627 582.4595 583.4406 583.4406 583.4980 583.4980 583.4992
   583.5074 586.6845 586.6845 587.7857 588.6425 588.8060 588.8060 589.2627
   589.2627 589.4750 589.4756 589.4756 589.6014 589.6948 589.6948 590.2697
   590.5204 590.5204 590.7146 591.3338 591.3338 592.4923 592.8010 592.8010
   592.8805 593.1220 593.1220 593.1516 593.7493 595.2938 595.2938 595.2987
   598.3127 598.3127 598.3572 599.4739 599.4739 599.9813 599.9992 599.9992
   600.7532 601.2285 601.3669 601.3669 601.5750 601.5750 605.5820 605.5820
   605.6384 606.6090 606.6992 606.6992 608.4814 608.6928 608.6928 608.8045
   608.8045 609.0716 609.2034 609.2034 609.2869 609.6617 609.7208 609.7208
   610.3496 610.3496 611.0182 611.1214 611.1214 611.2408 611.4284 615.6477
   615.6477 615.9849 616.8445 616.8445 617.8866 617.8866 618.0223 618.4391
   618.4391 618.4788 618.7407 618.7407 619.4307 619.8501 619.8501 619.9949
   621.1950 621.5297 621.5297 622.0212 622.0212 623.1215 623.1215 623.1384
   623.3016 623.8108 623.8108 623.9557 627.0378 627.0378 627.3298 628.8736
   628.8736 629.9187 630.3157 630.3157 630.7590 632.0916 632.0916 632.1304
   633.6045 633.6045 633.7255 635.6809 635.6809 635.7175 637.5237 637.5237
   637.5701 642.4135 642.4174 642.4174 643.2453 643.2757 643.2757 645.0279
   645.0279 645.0756 649.7615 650.6330 650.6330 652.0219 654.9784 656.1376
   656.1376 656.2234 656.3890 656.3890 659.0772 659.0772 661.6426 661.9350
   661.9350 664.4378 664.4378 664.5092 665.7199 665.9741 665.9741 667.2961
   668.0336 668.0336 668.1072 669.2066 669.2066 670.3383 670.7449 670.7449
   670.8320 673.7723 673.7723 674.7375 674.8011 674.8011 675.2342 677.4102
   677.4102 677.4502 677.8808 677.8808 680.2270 680.8803 680.8803 681.7630
   681.7630 682.1731 683.5638 683.5638 684.7210 684.7577 684.7577 684.8700
   685.7225 685.7225 686.1619 687.6228 687.6228 688.2443 688.5408 688.5408
   689.8914 690.0760 690.3945 690.3945 690.7698 691.0236 691.0236 692.1322
   692.1322 692.2377 696.5435 696.5435 697.0358 697.1965 697.1965 698.1348
   699.0167 699.0167 699.2607 699.3277 699.3277 699.8888 699.8888 700.1279
   700.1452 701.2948 701.5963 701.5963 702.6675 702.6675 702.7758 705.5653
   705.5653 706.1697 706.2033 706.2033 706.8420 708.7560 708.7560 709.0979
   710.8114 711.6092 711.6092 711.6375 712.1314 712.1822 712.1822 712.2815
   712.2815 712.5087 712.5087 712.5226 712.8122 713.8309 713.8309 715.9517
   715.9517 716.3289 716.8069 716.8069 717.0919 717.0919 717.1225 717.1477
   717.2935 717.4104 717.4104 717.7698 717.7698 717.9342 718.9484 718.9484
   719.2248 720.7115 720.7115 720.8050 721.8769 722.1655 722.1655 722.3171
   723.1359 723.1359 724.0212 724.0212 724.1748 724.1748 724.2009 724.3272
   724.3645 725.1657 725.1657 725.4008 725.4008 725.4174 725.5643 725.5643
   726.3507 729.2891 730.4667 730.5973 730.5973 730.7166 730.9546 730.9546
   732.3363 732.3363 733.2770 733.4754 733.4754 733.6547 733.6547 734.0566
   735.1312 735.1312 735.1843 735.2639 735.5688 735.5688 735.6135 735.8178
   735.8443 735.8443 736.9130 736.9130 737.2612 738.4573 740.4271 740.4271
   741.0266 741.0285 741.0285 741.7925 741.7925 742.2112 742.6768 742.6768
   742.7114 742.8473 742.8970 742.8970 743.6225 743.6225 743.7467 744.2386
   744.2386 744.2926 744.2927 744.2927 744.3910 746.1765 746.1929 746.1929
   747.2592 747.2657 747.2657 750.0531 750.0531 750.6907 750.7516 750.7516
   750.8140 751.0721 751.0721 751.2478 751.2478 751.3015 751.4532 752.9199
   752.9199 753.0092 754.3354 754.3354 754.3775 754.3775 754.3874 754.5545
   758.0464 758.0464 758.0984 758.2334 758.2334 758.3774 759.0700 759.0700
   759.1463 760.0475 760.0475 760.2008 761.0145 761.1849 761.1849 761.3829
   761.3829 761.4561 761.8576 761.8576 761.9807 762.2415 762.2415 762.2849
   762.4808 762.4808 762.7092 765.4961 765.4961 765.8615 765.8936 765.8936
   765.9961 766.5625 766.7130 766.7130 767.4597 767.4597 767.6750 768.8631
   769.6625 769.6625 770.0031 770.0087 770.0087 770.4271 770.4271 770.5004
   774.3750 774.3750 774.6721 776.7144 776.7513 776.7513 776.8465 776.8465
   776.8853 780.5511 780.6866 780.6866 781.7299 781.7299 781.9532 783.1986
   783.1986 783.2902 783.9664 783.9664 784.2150 785.8070 786.0866 786.0866
   787.0792 788.6705 788.6705 789.9792 790.2684 790.2684 790.3041 790.3041
   790.3166 790.5269 792.7467 793.4230 793.4230 794.0794 794.0794 794.2680
   794.2680 794.3976 794.6026 794.6026 794.8643 796.2980 796.6662 796.6662
   797.3780 797.3780 797.3793 799.4934 799.4934 800.2144 800.3102 800.3102
   801.2442 801.2524 801.2524 801.4152 802.1016 802.1016 802.2673 802.7428
   802.7428 802.8875 803.1224 806.8594 806.8594 807.1319 810.2889 810.2889
   810.3591 810.3591 810.3680 810.4097 812.4677 812.4677 812.5728 815.2860
   815.2860 815.6048 816.5145 816.5145 816.8783 817.4461 817.4672 817.4672
   817.7513 817.7513 817.8423 819.1240 819.1240 819.1951 820.8327 820.8327
   821.0724 822.9695 822.9695 822.9898 824.1519 824.1519 824.2268 826.5557
   826.5557 826.5717 827.1325 827.2476 827.2476 828.0838 828.0838 828.4771
   828.7238 828.7238 828.7414 832.2992 832.2992 832.3422 833.2455 833.2455
   833.4034 833.4443 833.4443 833.4666 834.3757 834.3757 834.4037 835.9304
   835.9423 835.9423 836.0973 836.0973 836.1210 837.3830 837.3830 837.5941
   838.0797 838.0797 838.4621 838.7526 839.1752 839.5009 839.5009 840.6605
   840.6605 840.7675 842.0359 842.0359 842.2236 842.5334 842.5334 842.7085
   842.9372 842.9372 842.9634 844.9766 844.9766 845.0079 845.0595 845.0595
   845.1131 845.8720 845.8872 845.8872 847.9073 847.9073 848.5248 848.8053
   848.8053 848.9226 849.5437 849.5437 850.0932 850.0974 850.0974 852.1049
   852.2734 852.2734 853.0711 853.0711 853.1842 853.8205 853.8205 853.8384
   854.9085 855.2641 855.2641 855.5446 859.3122 859.3122 859.9447 859.9447
   860.1626 860.7112 860.7248 860.7248 861.3939 861.3939 861.4242 863.1808
   863.1808 863.2737 864.4630 864.4630 866.1809 867.7669 867.7865 867.7865
   868.2757 868.2757 868.3000 869.7141 869.7141 869.7572 871.9101 871.9101
   871.9680 872.0212 872.0212 872.0357 873.0720 873.0720 873.0910 880.6284
   880.6670 880.6670 880.9280 880.9280 880.9695 881.8389 881.8389 882.0312
   883.2550 883.2550 883.5110 883.7804 883.8803 883.8803 884.7840 884.7840
   884.8815 889.7793 889.7793 889.8104 891.0640 891.0640 891.0829 895.1378
   895.8191 895.8191 896.7976 896.7976 896.7983 900.2682 900.2977 900.2977
   900.9619 900.9619 900.9930 901.6677 901.6677 902.3346 903.9354 903.9354
   903.9791 905.8427 907.0249 907.0853 907.0853 907.3433 907.3656 907.3656
   908.5030 908.5030 908.9385 909.9106 910.9313 910.9313 911.6787 911.6957
   911.6957 912.1947 912.1947 912.5093 912.5944 912.5944 912.6353 912.7034
   912.7034 913.3494 913.6232 913.6232 913.9690 914.5559 914.5700 914.5700
   916.0621 916.0621 916.1291 916.2445 916.2445 917.6752 917.6752 917.7102
   918.5906 918.5941 918.5941 919.4617 919.4617 919.4985 920.5785 920.5880
   920.5880 920.9216 920.9216 921.0702 924.2299 924.2299 924.5262 924.5273
   924.5273 924.5832 925.9271 925.9271 925.9566 926.0212 926.0212 926.1526
   926.6192 926.6402 926.6402 929.2969 929.2969 929.3268 930.7015 934.1412
   934.1412 934.2220 936.4563 936.4563 936.4835 936.7523 936.7896 936.7896
   937.5300 937.5300 937.6465 938.3360 938.3888 938.3888 939.4804 939.4804
   939.5073 939.6625 939.6625 939.9980 939.9980 940.1354 940.4252 940.4252
   940.5331 940.8083 940.8083 940.8136 941.3214 941.3694 941.3694 942.6642
   942.6642 942.7041 942.8517 942.8517 942.8553 943.1926 943.1926 943.3139
   945.6645 945.6645 945.7015 945.7632 945.7775 945.7775 947.4474 947.4474
   947.4836 947.5325 947.5325 947.5569 947.6739 947.6739 947.8386 948.0036
   948.0231 948.0231 950.8850 951.3183 951.3183 952.6789 952.6789 953.1652
   953.6561 953.7217 953.7217 953.7929 953.9534 953.9534 954.7257 954.7257
   955.1958 956.0197 956.2419 956.2419 957.2542 957.4018 957.4018 957.8480
   957.9286 957.9286 959.2854 959.7269 959.7269 961.2479 961.2479 961.2660
   961.5706 961.5706 961.6680 961.8650 961.8650 961.8892 962.5505 962.5505
   963.4078 964.2927 964.3781 964.3781 964.4276 964.4276 964.4349 964.4948
   964.7060 964.7060 964.7253 964.7253 964.7863 966.0254 966.1256 966.1256
   967.0423 967.0423 967.0459 968.3972 968.3972 968.4130 968.6683 968.7599
   968.7599 968.9076 969.2041 969.2041 969.5674 969.7280 969.7853 969.7853
   969.8204 969.8204 970.2966 970.2966 970.5891 971.2441 971.2441 971.2649
   972.1903 972.4787 972.4787 973.4656 973.4656 973.4822 974.6326 974.8770
   974.8770 974.9290 975.2599 975.2599 975.2695 975.5560 975.5560 976.8854
   976.8915 976.8915 977.0723 977.0723 977.1918 977.2474 977.2474 977.4053
   977.4053 977.4375 977.9870 978.6270 978.6270 978.6414 978.6414 978.6456
   978.7094 984.7839 984.7839 984.8704 984.9226 984.9226 984.9505 985.4648
   985.4648 985.4887 986.7210 986.7210 986.7213 990.0326 990.0326 990.0510
   991.5528 991.5528 991.5854 991.5960 991.5960 991.6142 993.4913 993.4913
   993.5129 994.0472 994.0472 994.0630 994.1661 994.9366 994.9366 995.4086
   995.4086 995.4801 995.8114 995.8114 995.8259 998.3992 998.3992 998.4466
   998.9417 998.9417 998.95741000.16741000.16741000.18391000.34411000.3442
  1000.34421002.29511002.29511002.34911002.53231003.71531003.71531003.7348
  1004.49331004.49331004.50791004.52051004.52051004.52691005.73341005.7334
  1005.77341006.23971006.23971006.26021009.02171009.02171009.02461011.6263
  1011.62631012.93461012.93461012.95751012.98761012.98761012.99741013.3980
  1014.04021014.04021014.10371014.44611014.44761014.44761015.91591015.9209
  1015.92091017.31421017.31421017.41571017.79991017.81851017.81851020.8525
  1020.85251020.89241023.21521023.21521023.24401023.70431023.70431023.7170
  1024.13151024.69401024.69401026.53521026.53521026.77301027.33941027.3524
  1027.35241027.84811027.84811027.87321028.36721028.38111028.38111028.5001
  1028.50011028.53511029.75981029.75981029.79791031.59111031.59111031.7289
  1034.17151034.37411034.37411034.85061034.85061034.87721034.91561034.9156
  1035.23091035.29141035.29141035.37031035.84281035.84281035.85011037.5571
  1037.55711037.58711038.07971038.07971038.09371038.53921038.53921038.5673
  1038.56911038.56911038.59251043.76511043.76511043.78951045.38831045.3883
  1045.45171046.26841046.28341046.28341046.60781046.60781046.62831048.7921
  1049.32891049.32891052.21901052.21981052.21981054.88681054.88681055.1797
  1056.89561056.89561056.97521057.35641057.35641057.36571060.31211060.3436
  1060.34361063.73541063.73541063.74901063.95581064.87371064.87371064.9289
  1065.33151065.33151065.33971066.04331066.81441066.81441067.59361067.5936
  1067.60941067.69921067.70651067.70651067.94431067.95881067.95881068.0820
  1068.08201068.10281068.38561068.38561072.84671072.84671072.88361073.4482
  1073.44821073.85741074.26901074.26901074.27941074.70701074.70701074.7100
  1074.73781074.73781074.74961074.99681074.99681075.09831075.13251075.1686
  1075.16861075.47321075.47321076.36421078.27171078.27171078.27941078.6768
  1078.67681078.78121081.61301081.61511081.61511082.88751082.88751082.9625
  1084.66641084.66641084.69131085.17151085.17151085.19341085.27961085.2796
  1085.32141085.83661085.85941085.85941086.17061086.17061086.21211086.9332
  1086.93321086.97191088.20501088.20501088.20501088.94191090.93881090.9388
  1090.94151090.95171090.95171090.96711092.04721092.04721092.06471093.9270
  1093.92701093.94111094.40451094.40451094.41501096.71891096.71891096.7306
  1098.25281098.25281098.26101100.72441100.72441100.76511101.35121101.3512
  1101.38331101.39911101.39911101.42551102.70691102.70691102.71311103.5274
  1103.52961103.52961107.09851107.09851107.10891107.48101107.48101107.4909
  1110.06581110.06581110.09351110.26211110.27631110.27631110.89581110.8958
  1110.90101111.19301111.19301111.19631111.62221111.62221111.65731113.0623
  1113.06231113.07591114.63721114.67221114.67221115.61111115.61111115.6870

          k =-0.2500 0.2500-0.2500 (  5438 PWs)   bands (ev):

   -45.3564 -17.9902 -17.2715 -17.2715 -16.7298   0.6862   1.4820   1.4820
    10.0945  17.1274  21.8515  21.8515  25.0299  25.0299  26.6770  30.9858
    31.3039  31.3039  34.0953  37.7949  37.7949  44.4446  44.4446  45.6327
    51.9127  54.1787  54.6651  54.6651  57.2635  59.2872  59.2872  61.8994
    63.4140  64.8761  64.8761  65.8166  65.8166  68.0374  69.3035  69.3035
    70.8272  70.8272  73.7344  74.5291  74.8029  74.8029  79.8783  80.7547
    80.7547  81.3135  84.3867  84.3867  88.5144  88.5144  89.0848  89.6088
    92.0035  92.0035  92.1446  94.5886  96.3950  96.3950  97.2122  97.2122
    99.8749 104.0356 104.0356 106.5635 110.5042 110.5042 114.5376 116.5348
   116.5348 118.2084 118.2248 118.2248 119.7922 119.7922 121.7043 124.5299
   125.8045 125.8045 126.1366 126.6321 126.6321 129.1481 129.3106 132.5611
   132.5611 133.6792 134.0223 134.9554 134.9554 137.2842 139.7220 139.7220
   139.9821 140.3341 140.3341 142.7591 142.7591 142.8472 145.7777 145.7777
   146.1976 147.2814 147.2814 148.7097 149.8178 149.8178 151.0167 151.0167
   151.6209 155.0147 156.2508 156.2508 156.6625 156.9860 156.9860 157.0903
   159.7359 161.3488 161.3488 163.2413 163.2413 165.2189 165.6752 165.6752
   167.6199 167.6199 168.3982 169.4598 169.4598 169.9257 171.7938 172.2120
   172.2120 173.8923 176.7328 176.7328 177.9401 178.5600 180.2516 180.2516
   181.4408 181.4408 181.9733 182.6886 184.9304 184.9304 185.3569 185.3569
   185.6809 185.9195 192.0752 192.0752 194.2840 198.4219 198.4219 199.6291
   199.6291 200.0438 203.0100 205.0792 205.0792 205.8627 205.8627 207.7853
   207.7853 207.9465 209.7376 209.7619 209.7619 210.4237 215.8116 215.8116
   216.1871 218.1768 218.2188 218.2188 219.2594 219.2594 221.5605 221.5605
   221.9651 222.4893 223.1782 223.1782 223.5292 224.4557 224.7186 224.7186
   225.4685 225.6182 226.8936 226.8936 227.6766 227.6766 231.7501 231.7501
   232.6026 233.5365 233.5365 234.3681 234.4484 242.4789 242.4789 242.7664
   243.2466 243.2466 244.0091 245.3596 245.3596 246.2067 246.8500 247.3288
   247.7626 247.7626 248.3693 248.3693 250.1658 250.3265 250.3265 250.7946
   251.3373 251.3373 251.6935 251.6935 251.7851 254.3552 255.8470 255.8470
   256.3098 256.5024 256.5024 258.2730 258.2730 259.1406 260.3476 260.3476
   260.6305 261.1363 263.5595 263.5595 263.8383 264.3698 265.4089 265.6162
   265.6162 265.9064 265.9064 267.8606 267.8606 268.5360 268.5360 269.8902
   270.9384 270.9384 271.0124 273.6319 273.6319 274.6216 276.4937 276.9810
   276.9810 277.3337 277.3337 277.5489 278.2275 279.1824 279.1824 280.8462
   280.8462 282.8862 283.8462 283.8462 284.9386 285.0083 288.5250 288.5250
   289.2682 289.2682 289.5332 291.1151 291.4606 291.4606 291.6317 292.7342
   292.7342 293.5038 293.5038 294.7707 297.6763 298.7554 298.7554 299.1000
   299.7465 299.7465 301.9446 303.4514 303.4514 304.7332 304.7332 304.9199
   305.7469 307.4313 308.4648 308.4648 311.7064 313.2539 313.2539 313.8027
   313.8027 314.2099 318.0422 318.0422 320.2959 320.3777 320.3777 320.8927
   320.8927 321.6138 323.7654 323.9034 323.9034 324.4706 325.3097 325.3097
   325.4403 327.1346 328.6982 328.6982 331.8782 331.8782 332.0992 332.5324
   332.5324 334.5195 334.5195 334.6285 335.3386 335.3771 335.3771 335.9447
   336.2917 336.2917 336.4529 338.4504 338.8658 338.8658 338.8831 345.4288
   345.4288 346.0508 347.0109 347.0109 347.5925 348.0006 348.0006 349.1272
   349.1272 349.7720 351.4474 351.4474 354.2614 354.2614 355.1420 355.1420
   355.2989 355.3373 356.9916 357.2332 357.2332 358.5936 358.5936 359.4387
   359.4741 359.4741 359.6437 360.0885 362.0408 366.0411 366.0411 366.7927
   366.7927 367.0709 368.1051 368.1051 368.1746 368.3809 368.9459 368.9459
   371.5028 372.0796 372.0796 372.1752 373.0426 373.0426 374.0360 374.0360
   376.0074 376.0074 376.1056 376.3928 376.9145 376.9145 377.8271 379.7326
   379.7326 380.5762 381.8402 384.1884 384.1884 385.0343 385.1749 385.1749
   385.2705 385.6626 386.1665 386.1665 387.3715 387.3715 388.5593 388.5593
   389.2400 389.3491 389.3878 389.3878 389.7647 391.6467 391.6467 391.8425
   393.1648 393.1648 394.1416 394.1416 394.8778 396.0151 396.6118 396.8944
   396.8944 397.4797 397.4797 397.9671 397.9671 398.0796 398.3410 398.9850
   398.9850 400.5653 400.5653 400.5721 400.8241 401.0104 401.0104 401.0625
   401.8388 401.8388 401.9058 403.7226 404.3354 404.3354 406.8094 406.8094
   407.2484 407.2484 407.5695 407.6889 409.3016 409.3016 410.3026 411.9223
   411.9223 412.0863 412.4569 412.5142 412.5142 413.2507 413.2507 413.3011
   413.5243 413.5243 413.5995 418.5650 418.5650 420.2163 422.5336 422.5336
   424.9348 425.9741 425.9741 426.5656 426.5950 426.5950 427.5158 428.0415
   429.9565 430.3943 430.3943 430.4853 430.7775 430.9737 430.9737 431.0912
   431.0912 433.4615 433.4615 433.8227 434.7576 436.7068 436.7068 439.1590
   439.1590 439.5577 439.9691 439.9691 440.1645 440.1645 440.3051 443.8698
   443.9882 443.9882 444.6854 444.6854 445.0909 445.0909 445.9630 446.3056
   448.1556 448.6945 448.6945 449.3444 449.3444 450.0314 451.2250 451.2250
   451.4460 451.6108 451.6108 452.6188 452.6188 452.6973 453.5341 456.0359
   456.0359 457.3825 459.4002 459.4002 459.4028 460.1049 460.1548 460.1548
   463.4597 463.5796 463.5796 463.8361 464.4736 464.9079 464.9079 465.8963
   465.8963 466.2258 466.3331 467.8104 467.8104 469.7630 469.7630 471.5317
   471.5317 471.8100 472.7661 472.7661 474.1074 475.1442 475.1442 476.7977
   478.2792 478.5852 478.5852 479.5787 479.5922 479.5922 481.0242 481.0242
   481.6561 482.7699 485.1757 485.1757 485.5927 485.6020 485.6020 485.9598
   488.1368 488.1368 489.3631 489.3631 489.7960 490.3224 492.0832 492.6118
   492.6118 496.1185 496.1185 496.2165 498.9140 498.9140 499.3692 499.3762
   499.3762 499.7162 500.2649 500.2649 502.0632 502.3059 502.3059 502.8750
   502.9834 502.9834 503.6925 503.8799 503.8799 504.5491 506.1042 506.1042
   506.5049 506.7224 507.3823 507.3823 508.7300 508.7300 509.2791 510.4565
   510.4565 511.4395 511.4395 511.4933 511.8987 514.2110 514.2110 515.5894
   516.6645 516.8021 516.8021 518.2922 518.2922 519.3558 519.8587 519.8587
   521.0752 522.5091 522.5091 522.6107 522.8015 524.4706 524.4706 525.3293
   525.5728 525.5728 526.9380 526.9380 527.1606 528.5144 528.7554 528.7554
   529.4481 531.7417 532.3521 532.3521 533.3447 533.3447 533.4072 533.4199
   534.8758 534.8758 535.7171 535.7171 535.7792 535.8250 536.3294 536.3294
   536.5914 536.5914 536.7816 537.1518 537.1518 537.2382 537.5369 537.5369
   540.6969 540.6969 541.6663 541.8950 541.8950 542.7958 542.7958 543.0403
   543.0403 543.0734 543.3954 543.4784 546.8911 547.6345 547.6345 547.9146
   547.9146 548.2224 548.2752 548.2752 548.3342 548.4602 548.4602 549.5512
   549.5512 549.5889 549.6152 552.2296 552.2296 552.3434 552.6692 552.6692
   552.9535 553.5762 553.9988 553.9988 554.9413 554.9413 555.6566 555.6566
   555.8554 556.0512 556.7379 556.7379 557.3052 557.3657 557.3657 557.8178
   560.0255 560.0255 560.1718 561.3601 561.8515 561.8515 562.7484 562.7484
   563.0969 563.3805 563.3805 563.9049 564.2386 564.2386 564.2938 565.1624
   565.9645 565.9645 566.4858 570.6444 570.6444 570.6698 573.7629 573.7629
   573.9062 573.9062 574.8331 575.1107 575.1107 575.1610 575.6673 575.6673
   575.8865 578.3664 578.3664 578.4986 579.1015 579.1015 579.4228 579.4228
   579.4435 579.6563 581.6086 582.4457 582.4457 582.7359 582.7359 583.7070
   584.4113 584.4113 584.4582 585.6054 585.6054 585.8662 586.9341 586.9341
   587.3827 588.6197 589.7404 589.7404 590.4909 591.7693 592.1281 592.1281
   592.1957 592.4013 592.4013 592.8592 592.8592 593.4173 595.6892 595.6892
   595.7325 596.8899 597.0197 597.0197 598.0497 598.0497 598.6051 598.6051
   598.6568 598.8573 603.0933 603.0933 603.2032 603.7735 603.7735 604.6508
   605.9676 605.9676 606.6076 609.8609 609.8609 610.2145 610.2840 610.2840
   610.4296 610.9288 611.1410 611.1410 611.9562 611.9562 612.3364 612.3925
   612.3925 612.6667 612.6667 612.6695 612.7793 612.8972 612.8972 613.0332
   613.0332 613.0949 613.4557 617.0018 617.0018 617.0485 620.4776 620.4776
   621.2326 621.3311 621.3311 621.4176 621.4600 621.4600 621.6767 623.1862
   623.1862 623.5749 623.7035 623.7035 623.7349 624.8059 624.8059 624.8854
   626.5709 626.7985 626.7985 627.2755 628.1541 628.1541 628.3107 628.6552
   628.6552 632.8950 632.8950 632.9563 635.0132 635.3667 635.3667 635.9370
   635.9370 636.3007 636.4312 636.4312 636.4769 637.1942 637.1942 637.2108
   637.8479 639.1986 639.1986 639.5173 640.1321 644.5603 644.5603 645.7461
   645.7461 645.7964 647.0570 647.5155 647.5155 647.9393 647.9393 649.4898
   649.6530 649.6530 650.1468 650.1468 651.2596 653.1872 653.1872 653.5081
   654.3200 654.3200 654.4267 655.1206 655.1206 656.3081 657.3277 657.3277
   657.4451 658.1691 658.1691 658.2056 659.0919 659.1028 659.1028 661.6819
   661.6819 662.6374 662.9357 662.9357 663.2382 666.3151 666.3151 666.5383
   667.7827 667.7827 667.8509 671.0875 671.0875 671.6748 673.8124 673.8124
   674.9943 675.0209 675.1905 675.1905 676.7850 676.7850 676.9319 677.4560
   677.4560 677.5102 679.0817 679.0817 679.3278 679.7159 683.8728 684.8193
   684.8193 685.2123 685.2123 685.4485 685.4719 685.4719 685.9008 685.9461
   685.9461 685.9657 686.0307 686.0307 686.3707 688.3517 688.3517 688.4638
   688.9196 688.9196 689.0884 689.0884 689.4475 694.9774 694.9774 696.1689
   696.7547 696.7977 696.7977 696.9078 696.9078 697.0699 697.6436 697.6944
   697.6944 698.3312 698.3312 698.6717 699.8962 700.0678 700.0678 700.3020
   700.3020 700.8906 701.1918 701.1918 701.2311 701.6026 701.8756 701.8756
   702.3074 703.1864 703.1864 703.4664 703.4664 703.6697 703.6697 703.7603
   704.1979 704.2088 704.2088 705.0638 707.1499 708.5649 708.5649 709.0646
   709.2147 709.3551 709.3551 711.5331 711.5331 711.5980 712.5813 712.5813
   712.7723 713.3899 713.3899 713.4127 714.2092 714.2092 714.5989 714.8483
   714.8483 714.9090 716.8978 716.8978 716.9447 717.2297 717.2297 717.4954
   718.5897 718.5897 718.7481 720.1303 720.1524 720.1524 720.7508 720.7508
   720.8943 720.8943 720.8947 720.9955 720.9955 721.0763 721.2407 723.3390
   723.3454 723.3454 726.5431 726.5431 726.5460 729.6844 729.6844 729.9106
   729.9496 729.9496 729.9709 730.1896 730.1896 730.3147 734.9465 734.9465
   735.0179 737.3313 737.3313 737.3714 737.4341 737.4341 737.4496 739.8218
   740.0954 740.0954 740.5641 740.5641 740.6630 742.0926 742.3624 742.3624
   743.1061 743.1061 743.1137 743.6988 743.6988 743.7847 743.8425 743.9636
   743.9636 744.1684 744.1684 744.3087 744.3554 744.3554 744.7457 744.9906
   744.9906 745.1552 745.1622 745.1622 745.1947 750.0017 750.1549 750.1549
   750.3225 750.3822 750.3822 751.5908 751.5908 751.6464 754.2864 754.2864
   754.4490 754.8656 754.8656 754.9269 756.3218 756.5481 756.5481 756.6333
   757.0139 757.0139 757.0519 757.8076 758.3425 758.3425 758.9240 758.9240
   758.9494 758.9637 758.9637 758.9798 759.1682 759.1682 759.4189 760.5922
   761.2884 761.2884 763.0095 763.0095 763.9595 763.9595 763.9693 764.5710
   764.5710 764.8423 765.1643 767.1158 767.1158 767.1524 768.2939 768.2939
   768.7687 768.7687 768.9204 770.0394 771.8566 771.8566 772.4872 772.4872
   772.9702 772.9702 773.0269 773.1158 773.9648 773.9648 774.0027 776.2229
   776.2584 776.2584 776.7209 776.7209 776.8078 777.3031 777.4002 777.4002
   778.4664 778.4664 778.5819 782.4251 782.4251 782.6542 783.1049 783.1049
   783.1315 783.1558 783.1692 783.1692 785.0766 785.0766 785.3050 785.8418
   785.8418 785.8730 785.8898 785.8898 785.8913 788.5899 788.8184 788.8184
   790.0783 790.0783 790.2597 790.3192 790.3192 790.5923 793.2950 793.2950
   793.4186 795.2268 795.2268 795.2900 796.1535 796.1535 796.2109 798.2798
   798.2798 798.3584 798.3980 798.3980 798.4154 798.4213 799.2347 799.2347
   799.6251 799.7098 799.7098 803.4981 803.4981 803.5640 804.1040 804.1040
   804.4226 804.6322 804.6322 804.6739 805.4434 805.4434 805.5797 806.0423
   806.4446 806.4446 806.5865 808.2977 808.4025 808.4025 808.9644 808.9644
   809.0572 809.0572 809.0644 809.1708 809.2110 809.2631 809.2631 809.6547
   809.6547 809.7564 810.0535 810.0535 810.0665 814.7482 814.7482 815.8128
   815.8453 815.8453 815.9743 815.9743 816.0164 816.3736 816.3736 816.6863
   820.4160 820.6146 820.6146 820.7705 820.9545 820.9545 821.6786 821.6786
   821.9687 822.1815 822.1815 822.2038 822.2867 822.2867 822.5974 823.4284
   823.4481 823.4481 823.5939 823.5939 823.9301 825.9073 825.9073 825.9241
   826.8498 827.4634 827.4634 829.4259 829.4259 829.4489 831.3552 831.3552
   831.4033 831.4153 831.4153 831.4414 832.8699 832.8699 833.2648 836.4376
   839.4489 839.4489 839.4739 840.6484 840.6484 840.6562 842.5938 842.5938
   842.6303 842.9475 842.9475 842.9825 846.0153 846.0153 846.1684 847.2260
   847.2260 847.3155 847.5003 847.5003 847.5466 847.6583 847.6583 847.6739
   849.1249 849.1249 849.4852 849.9738 849.9738 850.1475 851.3123 851.3254
   851.3254 851.3702 851.5777 851.5777 852.1712 852.1712 852.3027 855.9140
   856.0412 856.0412 860.4671 860.4671 860.5692 862.7360 862.7747 862.7747
   863.3335 863.3335 863.3619 863.9706 863.9706 864.0335 865.0786 865.0786
   865.0978 865.8993 867.2187 867.2187 868.9574 868.9574 868.9963 869.9877
   869.9877 870.4002 871.5950 871.5950 871.6751 876.5861 876.5861 876.6086
   876.7974 876.7974 877.4679 877.7070 877.9154 877.9154 878.1313 878.9718
   878.9718 879.0117 879.2654 879.3533 879.3533 879.9071 879.9071 881.0086
   881.2992 881.2992 881.4923 881.4923 881.9716 883.7695 883.7695 883.9122
   884.7356 884.8954 884.8954 886.8406 886.8406 887.1219 887.5833 887.7242
   887.7242 887.8142 887.8142 887.8340 887.8822 887.8822 887.9731 887.9866
   892.5385 892.5385 892.6743 892.6743 892.7006 893.2894 893.2894 893.3661
   893.7642 893.7642 893.9604 894.5260 894.5260 894.5522 895.8914 897.8151
   897.8151 899.5604 901.0354 901.0354 901.0752 901.1489 901.1489 901.2899
   901.5482 901.5482 901.7902 903.2865 903.2865 903.3151 903.4377 903.4377
   903.4973 903.7370 903.7370 903.8214 904.7491 904.7491 905.2937 905.4389
   905.4389 905.8561 905.8561 906.0012 908.6243 908.6243 908.6901 908.7008
   908.7008 908.8533 913.3539 913.3539 913.3885 913.4417 913.4417 913.4610
   913.6295 913.6295 913.6751 913.7294 913.7294 913.8719 914.3561 914.3782
   914.3782 914.9520 914.9520 915.0157 915.1408 915.1408 915.1697 917.0350
   917.0350 917.0611 919.5297 919.5297 919.5595 919.8448 919.8715 919.8715
   921.6698 921.6698 921.7221 921.8986 921.8986 922.1363 922.1363 922.1808
   922.2542 924.2232 924.8657 924.8657 929.7819 929.7819 930.2593 930.4485
   930.4769 930.4769 933.6514 933.6514 933.7263 934.6973 934.7925 934.7925
   935.7864 935.7864 935.8182 936.1047 936.1047 936.1265 937.5238 937.5238
   937.6402 937.6448 937.6448 937.8001 938.2750 938.3352 938.3352 938.3555
   938.5064 938.5064 939.0573 939.0573 939.3630 939.6232 939.6232 939.6746
   939.8724 939.8724 939.8817 941.1516 941.1516 941.1733 941.6914 941.6914
   941.7247 942.1826 946.1866 946.1866 946.2433 947.8823 947.8823 947.9013
   951.1276 951.1276 951.1359 951.1573 951.1573 951.1729 951.4238 951.4238
   951.4290 951.4290 951.4656 951.8107 951.8107 951.8678 951.8680 951.8680
   951.8922 951.9274 951.9274 952.0185 952.7038 952.7038 952.7184 953.1844
   953.1844 953.2091 956.0894 956.0894 956.1179 956.1726 956.1726 956.1853
   957.6518 957.6518 957.7707 958.5935 958.5935 958.6087 958.6087 958.6130
   958.6547 959.2534 960.0210 960.0210 960.5678 960.5678 960.5758 962.9205
   962.9205 962.9423 969.1963 969.2946 969.2946 970.0719 970.0719 970.2104
   971.2117 971.2117 971.2701 972.1855 972.2374 972.2374 972.6971 972.6971
   972.7413 976.6536 977.1854 977.1854 977.2622 977.2852 977.2852 977.3248
   977.4944 977.4998 977.4998 979.5362 979.8886 979.8886 980.4404 980.4404
   980.6229 980.8711 981.0267 981.0267 981.1103 981.1103 981.3333 981.9846
   981.9846 982.0026 982.1932 982.2041 982.2041 982.3689 982.3689 983.3466
   984.3661 984.8862 984.8862 986.4605 986.4605 986.5086 986.8496 986.8496
   986.8815 986.8815 986.8936 986.9194 988.3143 988.3742 988.3742 988.7825
   988.7825 989.0127 989.2633 989.3352 989.3352 992.3226 992.3226 992.3593
   992.5331 992.5331 992.6196 992.8925 992.8925 992.9066 993.2696 993.3777
   993.3777 995.7255 995.7645 995.7645 995.9468 995.9468 995.9846 996.2382
   996.2382 996.3093 996.3093 996.3129 996.3242 998.4893 998.4893 998.5582
   999.0028 999.0028 999.0194 999.5945 999.8448 999.84481001.19531001.1953
  1001.19921001.51561001.52181001.52181001.57011001.57011001.59691002.9345
  1002.93451003.10001005.45191005.45191005.46951005.77061006.36931006.3693
  1006.39271006.65311006.65311008.05151008.84921008.84921010.05681010.0568
  1010.09721010.53621010.53621010.73101010.73101010.75031011.30611011.3061
  1011.33061011.33161013.80131013.80131013.82341013.88011014.15241014.1524
  1014.17101014.17101014.17661014.18011014.44731014.44731017.29321017.2932
  1017.31391017.71391017.71391017.72461019.92991019.92991020.22161020.6343
  1020.63431020.66491024.73351024.73351024.75871024.75871024.76101024.7667
  1024.96031024.96031024.97741024.97741024.98171025.06491026.29781026.2978
  1026.31791026.96681026.96681026.98931027.47801029.87531029.87531029.9328
  1030.02871030.05151030.05151032.12271032.12271032.77271032.86631032.8663
  1035.08851035.08851035.14931035.19041035.20601035.20601037.30501037.3129
  1037.31291037.71561037.71561037.73491037.74441037.74441039.38771039.7855
  1039.96251039.96251039.96691040.45891040.84151040.84151044.74351044.7435
  1044.79711045.19861045.19891045.19891045.22011045.22011045.26021045.4254
  1045.42541045.45781045.75281045.75281045.78671046.29461046.29461046.3070
  1047.09811047.09811047.10631047.21891047.21921047.21921048.59031048.5903
  1053.56041053.57861053.57861054.14781054.14781054.19391056.37501056.5337
  1056.53371060.77841060.77841060.79301060.84811060.84811060.86851060.9080
  1060.91051060.91051061.29791061.52171061.52171062.36241062.36241062.4177
  1063.11091063.11091063.13261066.68171066.68171066.69211066.69211066.7213
  1066.86181067.55961067.70711067.70711068.22301068.22301068.36731068.3673
  1068.37571068.59601068.65571068.65571068.67051068.84801068.84801068.8635
  1073.64331073.64331073.66131074.80251074.80251074.80411077.32031077.3203
  1077.33981078.69161078.69161078.70451078.77981078.77981078.79351080.6588
  1080.66831080.66831080.71851080.71851080.73801085.11181085.11181085.1284
  1086.18541086.18541086.19601086.27171086.27171086.28141086.34201086.3420
  1086.38901086.74211086.79321086.79321087.84761087.84761087.94811089.5387
  1091.95651091.95651091.95941091.96691091.96691091.98061092.79791092.7979
  1092.81801095.60731095.60731095.73321096.77301096.77301096.80921097.5657
  1097.56571097.58421097.63651097.63651097.64171098.88061098.88061102.7561
  1102.75611102.76571102.91591102.92941102.92941102.94011103.57411103.5741
  1103.86401103.86401103.94481103.98861104.00331104.00331104.05751104.2047
  1104.20471107.21071107.21071107.22091108.97281108.97281109.15051109.2076
  1109.25561109.25561112.44831112.58691112.58691112.62221112.63501112.6350
  1114.13341114.13341114.26631115.59291115.59291115.63221116.31811116.3181
  1116.33001116.43071116.44311116.44311116.83571116.83571116.88881117.0740

          k =-0.3750 0.3750-0.3750 (  5453 PWs)   bands (ev):

   -45.3508 -18.1528 -17.2762 -17.2762 -16.5150   0.1600   1.3878   1.3878
    11.6772  15.4484  22.1969  22.1969  25.0026  25.0026  26.2799  30.1045
    32.6139  32.6139  36.9472  36.9472  38.1142  44.5901  44.5901  47.8938
    50.3225  53.7468  53.7468  54.6017  56.2534  56.2534  57.3276  58.9393
    60.8281  61.4486  61.4486  64.3490  66.0737  66.0737  68.5533  68.5533
    73.6260  74.0704  75.2267  75.2267  76.4258  76.4258  79.1672  80.6230
    80.6230  83.5802  88.9375  88.9375  89.4172  92.9408  93.4848  93.4848
    94.2107  94.2107  95.3108  95.3108  96.6558  98.7239 100.9977 100.9977
   101.9101 103.6055 103.6055 107.3753 107.3753 107.5619 110.9889 110.9889
   111.6305 111.6305 112.5171 112.7333 114.3822 114.3822 120.7692 123.4028
   124.7558 127.0196 127.0196 127.3844 127.8103 127.8103 129.1255 129.5371
   130.1531 130.1531 132.0865 132.1280 132.1280 135.8334 135.8334 139.6964
   141.8708 141.8708 142.5727 142.5727 143.0326 143.4357 143.4357 144.2649
   145.4740 148.4421 149.6900 149.6900 151.0952 151.0952 151.4508 153.0683
   153.0683 154.1940 154.9219 156.9027 157.0398 157.0398 161.4608 161.4608
   163.7645 163.7645 163.9564 165.0421 165.0421 166.6051 168.4592 170.3057
   170.7761 170.7761 171.2052 171.2052 171.5912 172.4167 172.4167 175.1647
   175.2833 175.2833 175.6561 175.6561 177.2346 177.2346 177.3296 177.5566
   178.5353 180.4548 180.6129 180.6129 187.0555 187.0555 188.5910 188.5910
   190.3966 194.1835 194.1835 194.5783 195.8394 195.8394 196.0736 201.3358
   201.3358 201.8378 201.9503 201.9503 204.1365 204.7946 205.6113 205.6113
   206.0303 206.0303 207.8997 210.2313 210.2313 210.9595 214.1888 214.1888
   214.5151 215.5205 215.8590 215.8590 217.0486 217.0486 217.5782 219.8399
   219.8399 220.3271 220.4478 220.4478 223.4264 223.4264 223.8683 224.9939
   224.9939 225.9995 226.2408 226.2408 226.4358 228.4864 230.3719 230.3719
   231.1448 231.7363 231.7363 232.3090 235.9105 237.6877 238.0456 238.0456
   240.9985 241.7168 241.7168 241.9804 241.9804 243.5632 243.8274 244.0360
   244.0360 244.6499 246.3714 246.3714 246.9915 248.3378 248.3378 248.5765
   248.5765 248.6060 249.9465 249.9465 251.6148 253.1298 253.1298 254.5223
   255.4517 255.4517 255.5799 259.4805 261.3272 261.3272 262.6188 263.0367
   263.0367 264.6277 264.7329 264.7329 264.8349 264.8349 264.9548 266.8860
   266.8860 267.0434 267.1654 268.8056 268.8056 269.7131 269.7131 269.9354
   270.9684 272.3197 272.3197 276.1724 277.7708 277.7708 279.6773 279.7855
   279.7855 280.1609 281.8739 281.8739 282.1080 282.1080 282.1179 282.6107
   282.6107 282.8221 285.3162 288.1897 288.1897 288.9924 289.4112 289.4112
   289.7713 293.5139 295.8954 295.8954 297.9060 297.9060 298.3287 299.7465
   300.4910 300.4910 301.3914 301.3914 301.5703 301.5703 302.4975 302.6749
   303.5059 303.5059 303.6931 304.0541 304.6320 304.6320 307.9771 307.9771
   308.1123 308.9033 309.8309 309.8309 310.7370 310.7454 310.7454 312.6478
   312.6478 313.3521 316.8233 316.8233 317.2500 318.8413 318.8413 319.1165
   319.1165 319.6430 320.2487 323.7756 323.7756 324.2818 324.2818 324.4560
   325.4620 326.2542 326.2542 326.6404 327.8829 327.8829 327.9856 329.2665
   329.2665 329.9742 330.2245 330.2245 330.5001 332.0552 334.5527 334.5527
   335.8501 335.8501 336.0754 338.8022 338.8022 339.0665 339.0665 339.5277
   340.2435 341.3723 342.4803 342.4803 346.5946 346.9109 346.9109 347.1373
   348.3763 348.3763 351.6169 351.6169 353.5523 353.5523 353.9163 355.1226
   355.1226 355.6516 355.7505 355.8957 355.8957 356.8136 357.2886 358.0319
   358.0319 358.1562 358.1562 359.3423 359.9806 359.9806 360.2082 362.4010
   362.8321 362.8321 363.3676 363.8167 363.8167 364.2485 366.8841 368.0555
   368.0555 368.1797 368.1797 369.6948 369.6948 370.9998 371.0967 371.0967
   371.2192 372.8902 372.8902 373.3830 374.5600 374.5600 374.7462 375.4939
   375.4939 378.7868 378.7868 378.9117 379.5084 379.7195 379.7195 380.8049
   381.7209 381.7209 381.9553 381.9553 381.9770 382.0358 383.2657 383.2657
   385.1119 390.1538 390.1538 393.4033 393.4349 393.4349 393.5263 395.7123
   395.7123 396.2227 397.8681 398.5766 398.5766 399.4256 400.1100 400.1100
   401.4207 402.3790 402.3790 402.8249 402.8260 402.8260 403.2782 403.2782
   403.5496 403.5496 403.5689 403.5823 403.6165 404.5687 404.5687 405.4928
   406.0724 406.0724 406.3424 407.4002 408.3312 408.3312 408.3793 408.9653
   409.2205 409.2205 409.3341 409.3343 409.3343 409.5748 409.5748 411.3326
   413.4906 413.4906 415.0714 415.0714 415.1720 416.6157 416.6157 418.5239
   421.8635 421.8635 422.0289 422.4864 422.4864 422.5660 424.2881 425.1644
   425.1644 427.0703 427.0703 427.5202 428.4007 428.4007 429.8131 430.0776
   430.0776 433.4058 433.5579 433.5579 433.7409 433.7409 433.9456 434.6311
   437.9395 438.6491 438.6491 439.9612 439.9612 440.6125 440.6125 440.9027
   441.4922 441.7370 441.7370 441.8210 442.1876 442.1876 442.5243 445.2968
   445.2968 446.1555 446.4969 446.4969 446.5125 448.8261 448.8261 449.5026
   449.8963 449.8963 450.2389 450.2389 450.3265 450.6653 450.7540 450.7540
   451.0986 451.9946 451.9946 452.1721 453.7099 455.0272 455.5255 455.5255
   456.7801 456.7801 457.1065 457.6950 458.6731 458.6731 459.4502 459.4502
   459.5291 461.0784 463.0007 463.0007 467.0867 467.0867 467.6656 467.9459
   467.9459 467.9998 467.9998 468.4567 468.6329 469.2794 469.2846 469.2846
   469.3727 469.3727 469.6854 472.0793 472.0793 473.0298 473.0298 473.0633
   473.1538 473.6534 473.6534 474.3716 475.3031 475.3031 476.2624 477.2959
   477.2959 477.3753 478.8810 480.6324 480.6324 480.9127 480.9127 480.9365
   483.5740 483.5740 484.7155 484.7155 484.9679 485.0439 487.1718 488.8877
   488.8877 489.4126 490.5259 490.5259 492.6837 493.1087 493.1087 494.7384
   494.7384 495.1469 496.8475 496.8475 497.0172 503.8634 504.2226 504.2226
   506.6011 506.6011 507.2543 507.3512 507.3512 507.5313 509.2428 510.1423
   510.1423 511.4846 511.4846 511.8171 511.8171 511.8920 513.9265 514.3338
   514.3338 515.5780 515.9343 515.9343 516.0361 516.3615 516.3615 516.4553
   516.4553 516.7159 516.7159 516.7345 517.1413 517.2258 517.2258 517.7638
   517.8300 517.8300 518.1127 518.9997 520.1082 520.4480 520.4480 521.5673
   521.5673 521.8282 522.8554 524.0836 524.0836 525.6062 525.6062 526.7425
   529.2968 529.2968 529.5673 531.6885 531.6885 532.5177 532.6047 532.6047
   532.7929 533.1958 533.1958 533.4924 534.0220 534.0220 534.0567 535.8467
   535.9342 535.9342 538.2744 538.2744 538.2834 538.7963 539.5299 539.5299
   540.6318 540.6318 540.7019 540.7029 541.8663 541.8663 541.9774 542.1908
   542.1908 542.7484 544.2625 544.2625 544.6264 546.2214 546.2214 546.7915
   546.7915 546.8619 547.0484 547.0484 547.2554 547.4399 547.4399 547.4617
   548.3646 548.3646 548.4655 548.7343 549.2795 549.2795 549.5181 549.5181
   549.8287 550.1392 550.1392 550.2716 554.4157 554.4157 554.5836 554.7523
   554.7523 554.7894 554.9400 554.9400 555.0616 555.4786 555.4786 555.5043
   555.5134 558.9504 558.9504 559.0196 559.2511 559.2511 559.4474 559.4606
   559.4606 559.5267 562.7779 562.7779 563.1713 564.3342 564.3342 566.7658
   566.7658 567.5933 567.7627 567.7627 567.8057 570.0420 570.0420 570.3738
   570.3738 570.3982 570.4171 575.0282 576.2800 576.2800 577.0022 577.0022
   577.2947 580.5285 580.5285 580.9108 582.2337 582.2337 582.4092 584.6595
   584.6595 585.8746 586.7230 586.7230 587.0368 587.6443 587.6443 588.0842
   588.4280 588.4280 588.7383 591.4293 591.4293 591.9879 591.9879 592.0266
   592.6269 593.1769 593.1769 593.2397 593.6974 593.6974 593.7837 593.7837
   593.8308 594.0274 594.0481 594.0481 594.1075 596.0328 596.0328 596.9574
   597.5066 597.5066 597.6603 598.4385 598.5298 598.5298 600.3853 601.6016
   601.6016 602.1995 602.1995 602.2556 604.9614 604.9614 605.7527 605.7858
   606.9657 606.9657 609.8829 610.2739 610.2739 610.6034 610.7006 610.7006
   611.2160 611.3043 611.3043 611.4449 611.8850 611.8850 611.9646 612.9248
   612.9248 612.9863 615.9126 615.9126 615.9502 616.7828 618.4215 619.1060
   619.1060 619.6951 619.6951 620.1088 620.1088 620.9687 621.1707 621.1707
   621.5264 622.8224 622.9176 622.9176 624.6595 624.6743 624.6743 624.9285
   624.9285 625.5592 628.7637 628.7637 628.8092 629.0224 629.0224 629.2531
   632.1018 632.2400 632.2400 633.1289 633.1289 633.1620 633.7602 633.7602
   635.0352 636.2662 636.2662 636.3795 636.7998 636.7998 636.9694 640.4024
   640.4118 640.4118 640.6827 640.6827 641.0402 641.6292 641.6292 641.8666
   642.4160 642.4160 642.6524 644.2440 644.2440 644.3554 644.6198 644.6198
   644.6676 645.0468 645.0468 645.1031 645.9662 645.9662 646.1394 647.4883
   647.4883 648.2036 654.3721 654.3721 654.5779 654.5922 654.5922 654.7917
   655.9841 656.0395 656.0395 656.4809 656.4809 656.7189 657.0186 657.0186
   657.0201 657.3296 658.1361 658.1361 659.7414 659.7414 660.5882 660.6740
   660.6740 660.8136 662.1624 662.1624 662.4453 667.4526 667.5295 667.5295
   668.3509 672.8232 672.9653 672.9653 673.2213 673.2213 674.0540 674.0732
   674.0732 674.0760 674.4361 674.4361 674.4839 674.5409 674.7225 674.7225
   674.7848 674.7848 676.5686 677.4453 677.4453 677.7884 678.2712 678.2712
   678.5380 678.5380 678.9306 679.3450 679.3450 679.3962 679.7399 680.0446
   680.0446 680.5295 681.9336 682.2222 682.2222 683.6915 683.6915 683.7951
   683.7951 683.8739 684.1339 684.3798 684.3798 684.4138 686.7156 686.7156
   687.5737 687.5737 687.5999 687.7546 690.7798 690.7798 691.0125 691.0814
   691.0814 691.1336 692.2531 692.2531 692.9441 693.1761 693.1761 693.3647
   697.2959 697.2959 697.7636 698.1155 698.1155 698.4034 698.7633 698.7633
   698.7900 700.1239 700.1239 700.1540 700.3477 700.3874 700.3874 700.5007
   700.5007 701.3949 701.8135 701.8135 701.8630 702.9141 702.9141 703.6676
   704.5086 704.5086 704.5439 707.5763 707.9831 707.9831 708.2612 708.2612
   708.3651 709.9333 709.9333 710.0201 710.5443 715.7701 715.7701 716.0541
   716.1908 716.1908 716.2136 719.3212 719.3212 720.8069 720.8069 721.0645
   721.0645 721.0824 721.0910 721.7395 721.8056 721.8056 722.7779 722.7779
   723.4565 723.4565 723.4861 723.5040 724.2710 724.2710 724.4150 725.8181
   725.8181 725.8620 725.8928 725.8928 725.9320 726.4938 726.7187 726.7187
   726.7313 726.7433 726.7433 727.0816 730.2209 730.3159 730.3159 730.7004
   730.7004 730.9324 731.3019 731.3019 731.3372 732.4050 732.4050 735.6835
   735.6835 735.9557 736.9531 736.9531 737.5371 737.5371 737.5768 737.5937
   737.6510 737.6510 739.3732 740.5649 740.5649 740.7906 741.7905 741.7905
   742.0987 743.9618 743.9618 744.1624 745.6875 745.6875 745.7895 745.7895
   745.8101 745.8448 746.4821 746.4821 746.5921 746.8402 746.8402 746.8633
   749.4114 749.4114 749.4694 750.5415 750.5415 750.7478 751.1867 751.1867
   751.2388 752.2624 752.2624 752.3785 752.7818 752.7818 752.8123 753.6254
   753.7408 753.7408 755.0207 755.0207 755.1015 757.9255 757.9774 757.9774
   758.2324 758.2324 758.2828 762.7972 762.7972 763.2847 764.5264 764.5264
   764.6695 765.1925 765.1925 765.2349 767.5859 767.5859 767.6657 767.7066
   767.7066 767.7530 771.8700 772.6787 772.9128 772.9128 773.6764 774.0209
   774.0209 774.2639 774.2639 774.5876 776.0448 776.0448 776.1541 777.6582
   777.6582 777.6990 779.8179 779.8179 780.0319 780.0319 780.0648 780.3959
   780.6730 780.6730 780.7667 782.2728 782.2728 783.2130 783.2820 783.2820
   783.7627 783.7627 783.8553 784.8383 784.9928 784.9928 785.7365 785.7365
   785.8880 787.2262 787.2262 787.3582 787.3678 787.3678 787.3851 788.6785
   789.8264 789.8264 790.1205 790.1680 790.1680 792.0398 792.0398 792.4459
   793.9342 793.9342 793.9999 794.3220 794.3220 794.7651 794.9793 794.9793
   795.0045 795.8993 795.8993 795.9156 795.9534 795.9534 795.9713 796.1134
   797.8145 797.8145 797.8822 798.3508 798.3508 798.4696 799.3309 799.4154
   799.4154 799.9605 799.9605 800.0532 802.3917 802.3917 802.9095 804.0261
   804.0261 804.9812 804.9812 805.1974 806.0812 806.0890 806.0890 808.0002
   808.0002 808.0648 809.3562 809.3562 809.4743 811.5527 811.7993 811.7993
   813.4147 813.4147 813.5741 816.2857 816.2857 816.5147 818.4702 818.4702
   818.5936 818.6908 818.6908 818.7380 818.7623 818.7623 818.8241 821.5367
   821.5367 821.5551 822.0924 822.0924 822.1098 823.9356 823.9356 823.9547
   824.4585 824.4585 824.5023 825.3435 825.4053 825.4053 826.8377 826.8377
   827.1347 828.2418 828.7122 828.7122 829.0475 829.0961 829.0961 829.1161
   829.1161 829.1235 829.2742 829.6798 829.6798 832.1576 832.1576 832.2985
   832.9115 832.9115 832.9327 834.5116 834.5116 834.7431 834.7431 834.7765
   834.8419 834.9381 834.9381 835.0276 835.0741 835.1908 835.1908 835.6458
   836.0658 836.0658 836.1692 836.7130 836.7130 840.2459 840.2459 840.7243
   840.9829 840.9829 841.0164 841.7058 841.7058 841.7318 845.3082 845.3082
   845.3224 847.8020 848.6313 848.6313 848.6799 849.1142 849.1142 849.3209
   849.4552 849.4552 849.7670 849.7670 850.0847 850.2768 850.2768 850.2896
   850.7959 850.7959 851.4134 852.6955 852.6955 852.8404 854.0208 854.0912
   854.0912 857.7530 857.7530 857.7707 858.4375 858.4375 858.6088 858.7702
   859.3442 859.4663 859.4663 859.6264 859.6264 860.9911 860.9911 861.0884
   861.7199 861.7199 861.8045 861.8521 862.1811 862.1811 862.2716 862.2716
   862.3900 862.4857 862.6396 862.6396 862.7172 863.9107 864.0887 864.0887
   864.5713 864.5713 864.7093 870.4397 870.4938 870.4938 870.5960 870.6426
   870.6426 870.8945 870.8945 871.0771 871.2062 871.2062 871.2104 880.7600
   880.7600 880.8219 883.1752 883.1829 883.1829 884.1922 884.1922 884.2627
   884.6598 884.6598 884.6861 885.5897 885.5897 885.6136 887.0285 887.0579
   887.0579 887.3861 887.3861 887.4488 887.8658 887.8658 888.0872 888.5702
   888.5702 888.6061 889.3510 889.3510 889.4613 890.8638 891.0182 891.0182
   891.4244 891.4244 891.5597 891.8956 892.4693 892.4693 892.7557 892.7557
   892.8489 892.8789 892.8789 892.9035 897.3908 897.3908 897.7865 901.5714
   901.5714 901.6162 902.7975 902.7975 902.8188 903.0756 903.0756 903.1298
   904.7436 904.7436 904.9035 905.7026 905.7699 905.7699 905.7953 905.7953
   905.7966 905.8038 905.8550 905.8550 906.4716 906.4716 906.5036 907.7345
   907.9894 907.9894 908.5452 908.5452 908.8453 911.6959 911.6959 911.7178
   912.9788 913.6105 913.6105 914.9009 914.9009 915.0968 915.0968 915.1199
   915.2030 919.0938 919.0938 919.2259 919.2259 919.3801 919.4663 919.4663
   919.4925 919.6193 921.0441 921.0441 921.1467 921.7619 924.2766 924.2766
   924.2938 925.0335 925.7946 925.7946 926.4815 926.4815 926.5835 926.5835
   926.6194 926.6380 926.6666 926.6666 927.2691 927.2691 927.5063 929.3908
   929.3908 929.4266 929.8121 929.8313 929.8313 929.9828 929.9828 930.0096
   931.0747 931.0747 931.0924 931.8527 931.8527 933.6177 933.7940 933.7940
   933.8635 934.8162 934.8162 934.8761 935.0194 935.0338 935.0338 935.4351
   935.4351 935.4786 935.8879 935.8879 935.9553 936.8219 936.8219 936.8750
   937.0431 937.0431 937.0750 937.9994 937.9994 938.0419 938.0419 938.0449
   938.0623 940.1498 940.1668 940.1668 940.5896 942.7532 942.7532 942.7833
   943.2671 943.2671 943.3407 943.5374 943.5374 943.5576 944.8617 944.8786
   944.8786 945.0523 945.0523 945.0906 949.9706 949.9706 949.9980 951.8696
   951.8696 951.9163 951.9621 951.9621 952.1058 953.5425 953.5425 953.6141
[...]
   153.9909 154.9155 165.1541 165.2877 165.2877 165.3859 165.5120 166.0098
   166.0181 166.0181 169.2500 171.4067 172.3384 172.4443 172.4443 173.1107
   174.0551 174.6581 174.6581 174.6633 175.3350 175.7713 175.7713 176.5336
   176.5336 176.5834 176.9520 178.0617 179.8021 179.8021 180.7432 180.7565
   187.4379 187.4379 187.6811 187.6811 188.3199 188.5086 190.2495 190.6002
   191.0480 191.4905 191.7826 191.7826 193.2641 193.7192 196.5204 196.5204
   197.8936 197.8936 201.3081 202.5447 202.5447 202.9435 203.7990 204.1694
   204.3417 204.3417 204.3435 204.8322 207.6520 208.0027 209.2971 209.2971
   209.4079 209.4513 212.8776 212.8776 215.7264 215.7264 216.7442 217.5099
   218.1958 218.6355 218.9212 218.9212 219.6022 219.7206 219.8881 219.8881
   220.4582 220.5854 220.5854 220.6240 220.7272 222.1299 222.9882 222.9882
   230.4787 230.8028 231.4879 231.4879 233.0411 233.0411 234.1676 234.2778
   235.9418 235.9418 239.7495 240.9180 243.8456 243.8456 244.7379 244.7379
   248.0691 248.6630 248.7672 248.9213 248.9768 248.9768 250.2946 250.2946
   250.7356 252.4228 252.4487 252.7654 253.2769 254.4530 255.3862 255.3862
   256.6498 256.6498 259.1579 260.6231 260.6231 261.0968 261.5729 262.0221
   262.5535 262.5627 262.5627 263.5853 265.7743 265.7743 265.9659 266.0154
   266.9056 266.9056 266.9222 266.9727 272.9998 272.9998 273.2317 274.1376
   274.3953 275.0892 275.1821 275.1821 279.3847 279.3847 281.1592 281.3970
   282.1741 282.1741 283.7356 283.7356 285.6605 286.9509 287.3438 287.7843
   289.2858 290.6944 291.1039 291.1039 291.4498 291.7261 291.7261 291.8071
   292.7017 295.0016 296.9553 296.9553 299.3983 300.4075 303.9341 303.9341
   304.7082 305.1303 305.2097 305.2097 306.0350 306.0513 306.0513 306.3589
   306.4845 306.4845 306.5657 306.8472 306.8801 307.0528 308.0307 308.0307
   309.1118 309.2572 309.3511 309.3511 312.3752 312.3752 313.2126 314.7442
   314.7442 315.9478 317.4676 318.3051 318.5462 318.5462 318.9606 318.9903
   318.9903 319.6706 319.7071 319.7127 319.9828 320.1735 320.4794 320.4794
   325.2613 325.2680 325.2680 327.3573 330.0070 330.0330 330.0330 330.0892
   330.4819 330.4819 333.6727 333.6727 333.9530 334.2377 334.3974 334.3977
   334.3977 334.4354 335.0170 335.0170 335.1044 335.2347 335.2486 336.6595
   338.0712 338.0712 338.5841 338.5841 338.6871 338.7415 338.9634 338.9634
   339.0836 339.0952 342.6189 344.4475 344.6629 344.6629 345.1505 345.7334
   347.8373 348.4669 348.4669 349.0025 349.5125 349.5125 349.5501 349.5865
   353.3235 353.3235 353.3699 353.3774 359.2298 359.3800 359.3800 361.5088
   361.8136 361.8136 362.2217 362.2792 362.2792 362.7743 363.1830 363.1830
   363.2816 363.3976 363.6063 364.1763 370.9807 370.9807 372.5871 373.8519
   373.8519 374.2307 375.1291 376.0032 376.1561 376.1561 376.3318 376.8063
   377.0647 377.0647 377.2458 377.7780 381.4635 386.7120 387.0289 387.0289
   389.7251 389.7251 390.8235 390.8235 390.9547 391.1015 391.2754 391.5579
   391.5579 391.6429 391.6883 391.7605 391.8221 391.8221 392.0816 392.1876
   392.1876 392.3598 392.4778 392.4807 392.8441 392.8441 393.3687 393.3687
   393.3821 393.4366 393.4519 394.3919 395.6152 395.7523 397.5055 397.5055
   399.9168 400.3736 404.9615 404.9615 406.3486 406.3486 406.4972 406.5763
   406.6224 407.1809 410.0422 410.0422 410.4906 410.4906 410.5652 410.5656
   415.0950 415.5432 415.5432 416.3924 416.9813 416.9813 419.1505 419.7274
   420.1030 420.1030 420.4653 420.4653 420.5627 420.8376 421.1594 421.1594
   421.2196 421.2387 421.2467 422.1086 425.0550 425.0550 425.1718 425.1803
   426.7114 426.7114 428.6684 429.7741 430.3602 430.3602 430.5325 430.5325
   430.6951 431.6898 432.8599 433.4566 433.5797 433.7031 433.7031 434.3481
   434.3574 434.3574 434.4029 434.8296 434.8296 434.8669 435.2110 435.6148
   439.0216 439.0216 439.7449 439.7489 445.3748 445.3748 449.6225 449.9496
   449.9496 450.2924 450.3216 450.3893 450.7927 450.7927 451.9991 453.4732
   457.5390 458.9014 458.9014 460.6193 461.3647 461.3647 461.6327 461.8467
   462.1347 462.1347 462.4603 462.6188 462.8084 462.8084 462.8814 462.9491
   463.0082 463.0082 463.6477 463.8946 464.2247 464.2247 464.3353 464.4658
   464.6292 464.6693 464.6693 464.7644 467.5172 467.5525 467.5525 467.5942
   468.2948 469.3819 469.3819 471.4446 473.5423 473.5423 474.9070 475.3127
   475.6418 475.6418 475.6999 475.7420 477.7499 477.7499 478.1739 478.1739
   478.2700 478.4120 478.4579 478.5505 478.6543 478.6543 478.7147 478.7536
   478.9081 478.9753 479.1076 479.1076 479.3637 479.3637 479.5915 479.5958
   479.5958 479.6493 480.1075 480.1476 482.3224 482.3259 482.3259 482.3535
   482.9803 482.9970 482.9970 482.9996 489.4085 490.2191 490.2191 491.1805
   491.9742 492.1153 492.1153 492.4068 492.4068 492.5422 492.9228 492.9490
   499.5796 499.5796 501.0682 501.7741 502.7908 503.9990 503.9990 505.1982
   505.2358 505.2394 505.2394 505.9611 506.1781 506.1781 506.3123 506.3123
   506.3273 506.3315 507.0823 507.1480 507.2971 507.5263 507.5263 507.9321
   507.9516 507.9669 507.9669 507.9825 509.8160 510.6763 510.8550 510.8550
   510.8846 510.8939 515.7380 515.7380 516.4547 516.4750 517.3402 517.3402
   518.9321 519.2155 519.2155 519.3899 519.8969 519.9533 521.1923 521.3086
   521.3086 521.3411 521.6315 521.6315 521.6794 521.7016 522.0866 522.0866
   522.3318 522.6230 522.6230 522.6235 522.6322 522.7746 525.2265 525.2265
   525.8349 525.8349 525.8563 525.8605 533.8880 533.8880 534.5323 535.1506
   535.7804 535.7804 535.8311 535.8827 536.9259 536.9290 536.9363 536.9363
   537.1885 537.2143 537.2143 537.2562 543.2587 544.6286 544.6286 545.2098
   545.7719 545.7719 546.1102 546.1660 548.3077 548.3077 549.7112 549.9060
   549.9060 549.9157 549.9889 550.0801 554.0458 554.0458 554.8291 554.8293
   554.9103 554.9103 554.9219 554.9251 556.1933 556.1933 556.3227 557.9526
   560.3641 560.3641 561.1882 561.5107 563.5955 563.5955 564.1389 564.2097
   564.2139 564.2139 564.4389 564.6653 568.8309 568.8309 568.8774 568.8866
   569.9722 569.9722 572.0098 572.2474 573.2850 575.6051 575.6051 576.5629
   576.5629 576.6248 577.2674 577.3425 577.4884 577.4884 577.7090 577.8156
   577.8156 577.8347 577.8841 578.6115 578.6115 578.8263 578.8410 578.9032
   579.6259 579.8344 579.8344 579.9562 590.6970 590.6970 591.1974 592.0969
   592.4020 592.4020 592.5701 592.5794 592.6311 592.6311 592.9259 592.9274
   593.5933 593.5933 593.6237 593.6320 593.8415 593.8613 593.8613 593.9776
   599.1956 599.1956 601.9079 602.0130 602.1902 602.1902 602.2444 603.1952
   603.5268 603.5268 603.5421 604.6094 605.6802 605.9774 605.9774 606.3808
   606.5286 606.6858 606.8887 606.8887 607.0877 607.3680 607.3680 607.3761
   607.5477 607.5783 607.5783 607.6002 607.7114 607.7382 607.7382 607.8253
   607.8360 607.8360 608.0235 608.1030 608.1030 608.1066 608.2358 608.2358
   608.3227 608.3737 608.4093 608.4472 608.4646 608.4765 608.4765 608.7586
   608.7586 608.7587 608.7865 609.4764 612.0964 612.0981 612.1090 612.1090
   620.8395 621.0280 621.0280 621.2231 621.2610 621.2610 621.4284 621.8317
   621.8780 621.8780 621.9880 622.2131 622.2772 622.2772 622.2947 622.3924
   622.6649 622.6649 622.7669 623.2957 623.4045 623.4553 623.4553 623.5745
   623.8744 623.8744 623.8901 623.8956 630.7803 631.6252 631.6252 631.6757
   633.2283 633.2283 633.9138 634.1088 634.9422 634.9422 634.9431 635.3398
   638.7579 639.3216 641.1297 641.1297 641.1556 641.1640 646.1898 646.1898
   646.2638 647.7730 648.7824 648.7824 649.0256 649.1762 649.1762 649.2154
   649.4870 649.7181 650.0771 650.0771 650.1815 650.1980 650.5097 650.5097
   650.5940 651.3338 651.6849 651.7132 651.7132 651.9225 651.9448 651.9909
   651.9909 652.0223 652.2860 652.2860 652.3229 652.3745 652.3793 652.3797
   652.3797 652.4101 654.7031 654.7031 657.0927 657.0927 657.3515 657.5922
   662.6565 662.6565 663.0299 663.3970 664.6804 664.6804 664.8182 664.8518
   664.8518 664.8614 664.9092 665.3335 669.5836 669.5836 669.5880 669.5902
   673.9183 674.5077 674.5329 674.5329 674.8540 675.0274 675.0274 675.2295
   677.4458 677.4458 677.6706 678.1385 678.1466 678.1466 678.1622 678.3585
   678.8566 678.8566 678.8808 679.5324 679.9804 679.9804 679.9881 680.0012
   680.1519 680.1519 680.2398 680.2960 680.2990 680.2990 680.3096 680.8029
   683.5409 683.5409 684.1726 684.1825 684.1905 684.1905 684.3588 684.3622
   689.6519 689.6519 690.6491 690.6670 690.7048 690.9499 690.9499 691.0471
   691.5539 691.5539 691.6320 691.6467 693.3637 693.3637 693.7971 693.8098
   693.8098 693.8133 693.9417 694.0121 694.0121 694.0214 694.0228 694.0957
   694.1468 694.1468 694.1831 694.3601 694.4871 694.4906 694.4906 694.5597
   694.6427 694.6916 694.6916 694.7028 694.7362 694.7762 694.9417 694.9417
   695.1889 695.2232 695.2232 695.2923 706.9075 707.1089 707.1089 707.1143
   708.4725 708.4725 709.6653 709.6758 709.9548 709.9548 709.9586 709.9918
   710.2496 710.2496 710.4856 711.2743 719.7401 719.8788 719.8788 720.5003
   721.2411 721.2411 721.3152 721.3302 721.6670 721.6670 721.7046 722.0209
   722.9688 722.9688 723.0005 723.1776 723.1880 723.1880 723.2062 723.2205
   723.2205 723.2219 723.2310 723.4301 723.6505 723.6595 723.7073 723.7073
   726.5164 726.5476 726.5476 726.5625 733.6129 733.6129 733.7129 733.9743
   734.5213 734.5213 734.9150 735.0016 735.0200 735.0200 735.0267 735.0832
   736.6798 736.8222 736.8222 736.9446 736.9484 736.9907 736.9907 737.0465
   737.1246 737.1302 737.2881 737.2881 737.4222 737.4222 737.9141 737.9301
   737.9836 737.9836 738.0025 738.0727 738.0727 738.1148 738.1195 738.2350
   741.8921 741.9046 741.9046 741.9057 748.6075 748.6225 748.6225 748.8176
   750.6836 750.6836 750.9362 750.9862 750.9869 750.9869 751.0300 751.1574
   752.3817 752.3876 752.3876 752.4318 752.8786 752.8786 752.8902 752.9197
   756.2923 756.2923 756.9064 757.0225 760.5828 760.6584 760.6584 760.7102
   761.0310 761.0310 761.0961 761.1089 766.2913 766.2913 766.3557 766.3602
   766.3684 766.3684 766.3782 766.3946 769.5699 769.5699 769.5747 769.5919
   770.4532 770.4699 770.4835 770.4835 770.6120 770.6120 770.6329 770.6439
   775.0812 775.4360 775.5491 775.5491 777.2631 777.2631 778.0335 778.0558
   778.2865 778.3567 778.3567 778.3888 778.7792 778.7792 778.8356 779.4404
   779.5297 779.5297 779.5558 779.5739 780.2988 780.2988 780.3086 780.3385
   780.3578 780.3578 780.3873 780.4727 780.8082 780.8090 780.8090 780.8244
   781.2444 781.2497 781.2497 781.2557 783.0240 783.0909 784.9231 784.9244
   784.9249 784.9249 793.5144 793.5144 793.5637 793.6112 794.4139 794.4139
   794.6371 794.8220 795.6053 795.6397 795.6397 795.6740 798.5835 798.5835
   804.4619 804.4619 804.5685 804.5827 804.7766 804.7766 805.3245 805.3317
   805.8428 805.8428 805.8621 806.3374 808.3849 808.4662 808.4662 808.5545
   808.5591 808.5591 808.6445 808.6544 813.8884 813.8974 813.8994 813.8994
   817.6819 818.3805 818.5164 818.5164 819.8350 819.8350 820.0783 820.1915
   820.4676 820.4676 820.6517 820.7412 821.2965 821.2965 821.3899 821.3899
   822.2500 822.2500 822.3071 822.7238 822.7351 822.7351 822.7354 822.9217
   822.9217 822.9946 823.1986 823.2655 823.7933 823.8170 823.8170 823.8514
   823.9496 823.9726 823.9726 824.0444 824.0670 824.0824 824.1717 824.1717
   824.1760 824.2150 824.2150 824.2212 824.2772 824.3890 824.3890 824.5083
   824.6079 824.7623 824.7623 824.8653 825.0263 825.0263 825.0481 825.0642
   827.5300 827.5300 828.3010 828.3089 834.4236 834.4236 834.7154 834.8381
   835.5297 835.5297 835.6374 835.8037 837.3237 837.3237 837.3811 837.4515
   837.4645 837.5531 837.5531 837.6027 838.0260 838.0628 838.0628 838.1177
   838.1199 838.1446 838.1446 838.1895 838.3600 838.3976 838.3976 838.5780
   838.5780 838.5870 838.6259 838.6294 850.5094 850.7494 850.7554 850.7554
   851.5907 851.5907 851.7832 851.8430 851.8529 851.9059 851.9059 851.9419
   852.2309 852.2684 852.2684 852.3276 852.4094 852.4094 852.4430 852.5202
   852.5684 852.5684 852.6204 852.8872 853.0094 853.0174 853.0872 853.0872
   853.3879 853.3879 853.4397 853.4829 853.4884 853.4884 853.5214 853.5329
   858.4121 858.4121 858.7944 858.9312 859.8233 859.8233 859.8430 859.8438
   861.3650 861.3650 861.4250 861.6505 863.1611 863.1611 863.1880 863.2979
   866.6048 866.6048 866.6592 866.6804 866.7167 866.7250 866.7421 866.7421
   866.7948 866.7948 866.8129 866.8129 866.8170 866.8470 866.8477 866.9877
   871.2022 871.2061 871.2206 871.2206 871.3123 871.3198 871.3239 871.3239
   879.4853 879.4853 879.5139 879.5394 880.1897 880.1897 880.2580 880.3175
   880.6681 880.6811 881.1316 881.1316 881.1724 881.1724 881.2755 881.2755
   881.3232 881.3339 881.3663 881.3679 881.3679 881.4536 881.7601 881.7658
   892.1158 892.1158 892.2856 892.4713 892.7368 892.7906 892.7906 892.9606
   893.8185 893.8185 893.8259 894.1222 894.1933 894.1933 894.2230 894.2568
   895.0895 895.1915 895.1915 895.2204 895.2748 895.2911 895.2911 895.4838
   895.4942 895.5312 895.5312 895.5935 895.7053 895.7253 895.7253 895.7447
   903.5971 903.8403 903.9561 903.9561 904.4714 904.4714 904.6331 904.7920
   907.9116 908.0143 908.0143 908.0594 908.0594 908.1754 908.1772 908.1823
   908.4662 908.6899 908.6899 908.9340 909.0484 909.0484 909.1824 909.1997
   909.3109 909.3109 909.3364 909.3418 910.9207 910.9321 910.9321 910.9731
   911.0366 911.0366 911.0598 911.0599 911.0702 911.0778 911.0778 911.0877
   911.1550 911.1606 911.1606 911.1704 911.3908 911.3950 911.3950 911.4818
   911.6262 911.6262 911.6306 911.6393 914.1955 914.2011 914.2351 914.2351
   914.5229 914.5229 914.5595 914.5654 923.0542 923.0542 923.1564 923.1822
   923.4318 923.4318 923.4399 923.4532 923.5089 923.5089 923.5294 923.6616
   924.1627 924.1627 924.1646 924.1653 924.7631 924.7651 924.7651 924.8030
   924.8334 924.8334 924.8575 924.9106 933.3973 933.3973 933.4660 933.4924
   937.0802 937.1890 937.1890 937.2594 937.3055 937.3055 937.3143 937.3166
   937.9673 938.1541 938.1541 938.1979 938.2671 938.2703 938.2703 938.2787
   938.7097 938.7097 938.7315 938.8339 939.2240 939.2240 939.2403 939.2437
   939.4339 939.4339 939.4365 939.4465 939.4619 939.4660 939.4660 939.4731
   941.3812 941.3967 943.2876 943.2917 943.2991 943.2991 951.3086 951.3086
   951.3205 951.3544 952.6746 952.6746 952.6926 952.6926 952.7099 952.7301
   952.7431 952.7635 953.1910 953.1910 953.2160 953.2259 953.2788 953.2820
   953.2820 953.3396 956.9279 956.9279 964.3898 964.3898 964.4280 964.4970
   966.9768 966.9768 967.3894 967.4096 967.4930 967.4930 967.5094 967.5672
   967.8107 967.8107 967.8468 967.8553 968.0496 968.0709 968.4050 968.4050
   974.8509 974.8509 974.8770 974.9117 976.9569 976.9828 977.2405 977.2405
   977.7736 977.7736 977.8684 978.0237 978.4450 978.4450 978.4986 978.5075
   978.6545 978.6545 978.6864 978.7163 980.3092 980.3092 980.3137 980.3332
   980.3484 980.3484 980.3501 980.3620 981.0663 981.0680 981.0682 981.0682
   981.0886 981.0886 981.1122 981.2963 982.1130 982.1300 982.1300 982.1501
   982.2010 982.2178 982.2178 982.2460 982.6895 982.7135 982.7135 982.7166
   982.8982 982.8982 982.9100 982.9231 985.8198 985.8198 986.2922 986.2930
   986.3091 986.3091 986.6258 986.6341 994.5691 994.5691 994.5887 994.5942
   996.3864 996.3864 996.4179 996.4399 996.6226 996.6226 996.6293 996.6343
   996.6673 996.6684 996.6915 996.6915 996.7828 996.7828 996.7985 996.8354
   996.9280 996.9280 996.9460 996.9507 997.2198 997.2319 997.2705 997.2705
   997.6647 997.6647 997.6763 997.6769 997.6865 997.6880 997.6880 997.7071
  1008.19911008.19911008.22591008.23691008.32041008.32041008.34911008.4058
  1008.69291008.70381008.70381008.72561009.33211009.34991009.34991009.3501
  1010.94591010.94591010.94801010.95171011.29531011.29531011.31311011.3134
  1018.92501018.92501019.00681019.06311024.14001024.14001024.20591024.2170
  1024.30821024.31821024.31821024.34311024.74701024.74701024.75671024.7795
  1024.88341024.89311024.89311024.91551025.51411025.51421025.51421025.5337
  1025.92611025.92931025.93201025.93201026.72991026.72991026.87421027.0362
  1029.28871029.29161029.29931029.29931035.25761035.25761035.29871035.3610
  1036.06921036.06921036.10391036.15211038.13041038.13881038.13881038.2058
  1038.35331038.42701038.42701038.46011039.01471039.01641039.25851039.2585
  1039.39261039.39261039.48261039.50221039.53841039.54621039.55111039.5792
  1039.58241039.58241039.59421039.59421039.68541039.68541039.81771039.8436
  1039.87021039.87021040.04331040.05061040.05061040.09281040.15151040.1642
  1040.54481040.54481040.55581040.55871043.12561043.15401043.15401043.1666
  1048.56821048.58121048.60321048.60321050.69771050.69771050.72841050.7416
  1052.70081052.70081052.72071052.74051052.90291052.90291052.91551052.9522
  1054.67491054.68271054.68271054.69751055.13921055.13971055.13971055.1499
  1058.40471058.40471058.40741058.40931058.46261058.46991058.47031058.4703
  1062.67791062.67791062.77251062.77401065.42591065.45351065.45351065.5397
  1066.45991066.45991066.46951066.48081067.85371067.89801067.89801067.9758
  1068.13121068.15461068.15461068.21231072.79681072.79681072.80831072.8132
  1076.56421076.56421076.62781076.64681080.80081080.80541080.80761080.8076
  1081.67821081.67821081.72081081.79721081.84621081.84681081.88561081.8856
  1082.05691082.05691082.08601082.09271082.09271082.10151082.11261082.1755
  1082.18821082.18821082.19661082.19921082.54911082.54911082.55491082.5983
  1082.74741082.74761082.74761082.74921082.77681082.78291082.78481082.7848
  1083.62751083.62751083.63101083.64621083.64711083.66411083.66411083.7055
  1086.57191086.57761086.58711086.58711094.01641094.01871094.01871094.0214
  1095.30461095.30461095.34271095.36231095.46241095.52781095.52781095.5371
  1096.24061096.24061096.25431096.26651096.31061096.31481096.31481096.3201
  1103.14301103.14301103.18601103.19281108.95201108.95781108.95781108.9846
  1108.98461108.98651109.01631109.06851110.11461110.11461110.11981110.1950
  1110.54611110.56441110.56551110.56551111.14571111.15851111.30131111.3013
  1111.51191111.51191111.51571111.51891111.55041111.55041111.56211111.5724
  1111.71451111.72121111.72121111.72741111.81151111.81151111.81201111.8196
  1111.95431111.98181111.98181112.02611112.03251112.03251112.06381112.0806
  1112.08571112.10181112.12021112.12021112.30591112.30591112.32041112.3230

     the Fermi energy is     4.7037 ev
     (compare with:     4.7037 eV, computed in scf)

     Writing all to output data dir out/mp-682.save/
 
     init_run     :      0.02s CPU      0.06s WALL (       1 calls)
     electrons    :   6774.53s CPU   7252.38s WALL (       1 calls)

     Called by init_run:
     wfcinit      :      0.00s CPU      0.00s WALL (       1 calls)
     potinit      :      0.00s CPU      0.01s WALL (       1 calls)
     hinit0       :      0.01s CPU      0.03s WALL (       1 calls)

     Called by electrons:
     c_bands      :   6774.51s CPU   7252.32s WALL (       1 calls)
     v_of_rho     :      0.00s CPU      0.00s WALL (       1 calls)

     Called by c_bands:
     init_us_2    :      0.00s CPU      0.00s WALL (      29 calls)
     init_us_2:cp :      0.00s CPU      0.00s WALL (      29 calls)
     cegterg      :   6625.63s CPU   7092.46s WALL (      29 calls)

     Called by *egterg:
     cdiaghg      :   6413.93s CPU   6873.64s WALL (     245 calls)
     h_psi        :     62.29s CPU     64.85s WALL (     274 calls)
     g_psi        :      0.35s CPU      0.36s WALL (     216 calls)

     Called by h_psi:
     h_psi:calbec :      0.69s CPU      0.71s WALL (     274 calls)
     vloc_psi     :     60.34s CPU     62.85s WALL (     274 calls)
     add_vuspsi   :      0.58s CPU      0.59s WALL (     274 calls)

     General routines
     calbec       :      0.69s CPU      0.71s WALL (     274 calls)
     fft          :      0.00s CPU      0.02s WALL (      10 calls)
     fftw         :     55.20s CPU     57.55s WALL (  668274 calls)
 
     Parallel routines
 
     PWSCF        :      1h53m CPU      2h 1m WALL

 
   This run was terminated on:   0:17:17  16Nov2023            

=------------------------------------------------------------------------------=
   JOB DONE.
=------------------------------------------------------------------------------=
