
     Program PWSCF v.7.1 starts on 15Nov2023 at  7:49:34 

     This program is part of the open-source Quantum ESPRESSO suite
     for quantum simulation of materials; please cite
         "P. Giannozzi et al., J. Phys.:Condens. Matter 21 395502 (2009);
         "P. Giannozzi et al., J. Phys.:Condens. Matter 29 465901 (2017);
         "P. Giannozzi et al., J. Chem. Phys. 152 154105 (2020);
          URL http://www.quantum-espresso.org", 
     in publications or presentations arising from this work. More details at
     http://www.quantum-espresso.org/quote

     Parallel version (MPI), running on    24 processors

     MPI processes distributed on     1 nodes
     123080 MiB available memory on the printing compute node when the environment starts
 
     Reading input from pw_mp-682_nscf_k260_E159.in
Warning: card &IONS ignored
Warning: card / ignored
Warning: card &CELL ignored
Warning: card / ignored

     Current dimensions of program PWSCF are:
     Max number of different atomic species (ntypx) = 10
     Max number of k-points (npk) =  40000
     Max angular momentum in pseudopotentials (lmaxx) =  4

     Atomic positions and unit cell read from directory:
     out/mp-682.save/
     Atomic positions from file used, from input discarded
 
 
     R & G space division:  proc/nbgrp/npool/nimage =      24
     Subspace diagonalization in iterative solution of the eigenvalue problem:
     one sub-group per band group will be used
     scalapack distributed-memory algorithm (size of sub-group:  4*  4 procs)

 
     Parallelization info
     --------------------
     sticks:   dense  smooth     PW     G-vecs:    dense   smooth      PW
     Min          68      68     19                 1818     1818     280
     Max          69      69     20                 1821     1821     282
     Sum        1639    1639    475                43655    43655    6735
 
     Using Slab Decomposition
 


     bravais-lattice index     =            2
     lattice parameter (alat)  =       8.6394  a.u.
     unit-cell volume          =     161.2111 (a.u.)^3
     number of atoms/cell      =            2
     number of atomic types    =            2
     number of electrons       =        16.00
     number of Kohn-Sham states=         2040
     kinetic-energy cutoff     =     159.0000  Ry
     charge density cutoff     =     636.0000  Ry
     Exchange-correlation= PBE
                           (   1   4   3   4   0   0   0)

     celldm(1)=   8.639428  celldm(2)=   0.000000  celldm(3)=   0.000000
     celldm(4)=   0.000000  celldm(5)=   0.000000  celldm(6)=   0.000000

     crystal axes: (cart. coord. in units of alat)
               a(1) = (  -0.500000   0.000000   0.500000 )  
               a(2) = (   0.000000   0.500000   0.500000 )  
               a(3) = (  -0.500000   0.500000   0.000000 )  

     reciprocal axes: (cart. coord. in units 2 pi/alat)
               b(1) = ( -1.000000 -1.000000  1.000000 )  
               b(2) = (  1.000000  1.000000  1.000000 )  
               b(3) = ( -1.000000  1.000000 -1.000000 )  


     PseudoPot. # 1 for F  read from file:
     /usr/scratch4/magr4985/MG/HTDF/pseudo/SG15/F.upf
     MD5 check sum: 1d8275f47d602dd53cad6bcdc0eda7dc
     Pseudo is Norm-conserving, Zval =  7.0
     Generated using ONCVPSP code by D. R. Hamann
     Using radial grid of  602 points,  4 beta functions with: 
                l(1) =   0
                l(2) =   0
                l(3) =   1
                l(4) =   1

     PseudoPot. # 2 for Na read from file:
     /usr/scratch4/magr4985/MG/HTDF/pseudo/SG15/Na.upf
     MD5 check sum: 425b17ce8ead78efa4860b7b3310c7e3
     Pseudo is Norm-conserving, Zval =  9.0
     Generated using ONCVPSP code by D. R. Hamann
     Using radial grid of  602 points,  4 beta functions with: 
                l(1) =   0
                l(2) =   0
                l(3) =   1
                l(4) =   1

     atomic species   valence    mass     pseudopotential
        F              7.00    18.99840     F ( 1.00)
        Na             9.00    22.98980     Na( 1.00)

     48 Sym. Ops., with inversion, found



   Cartesian axes

     site n.     atom                  positions (alat units)
         1           Na  tau(   1) = (   0.0000000   0.0000000   0.0000000  )
         2           F   tau(   2) = (  -0.5000000   0.5000000   0.5000000  )

     number of k points=    16  Gaussian smearing, width (Ry)=  0.0005
                       cart. coord. in units 2pi/alat
        k(    1) = (   0.0000000   0.0000000   0.0000000), wk =   0.0092593
        k(    2) = (  -0.1666667   0.1666667  -0.1666667), wk =   0.0740741
        k(    3) = (  -0.3333333   0.3333333  -0.3333333), wk =   0.0740741
        k(    4) = (   0.5000000  -0.5000000   0.5000000), wk =   0.0370370
        k(    5) = (   0.0000000   0.3333333   0.0000000), wk =   0.0555556
        k(    6) = (  -0.1666667   0.5000000  -0.1666667), wk =   0.2222222
        k(    7) = (   0.6666667  -0.3333333   0.6666667), wk =   0.2222222
        k(    8) = (   0.5000000  -0.1666667   0.5000000), wk =   0.2222222
        k(    9) = (   0.3333333   0.0000000   0.3333333), wk =   0.1111111
        k(   10) = (   0.0000000   0.6666667   0.0000000), wk =   0.0555556
        k(   11) = (   0.8333333  -0.1666667   0.8333333), wk =   0.2222222
        k(   12) = (   0.6666667  -0.0000000   0.6666667), wk =   0.1111111
        k(   13) = (   0.0000000  -1.0000000   0.0000000), wk =   0.0277778
        k(   14) = (   0.6666667  -0.3333333   1.0000000), wk =   0.2222222
        k(   15) = (   0.5000000  -0.1666667   0.8333333), wk =   0.2222222
        k(   16) = (  -0.3333333  -1.0000000   0.0000000), wk =   0.1111111

     Dense  grid:    43655 G-vectors     FFT dimensions: (  50,  50,  50)

     Estimated max dynamical RAM per process >     231.53 MB

     Estimated total dynamical RAM >       5.43 GB

     The potential is recalculated from file :
     out/mp-682.save/charge-density

     Starting wfcs are random

     Band Structure Calculation
     Davidson diagonalization with overlap

     ethr =  5.00E-06,  avg # of iterations =  7.4

     total cpu time spent up to now is     4014.2 secs

     End of band structure calculation

          k = 0.0000 0.0000 0.0000 (  5577 PWs)   bands (ev):

   -45.3643 -17.5272 -17.2648 -17.2648 -17.2648   1.6183   1.6183   1.6183
     8.1952  21.0545  21.0545  21.0545  23.8915  26.3237  26.3237  29.1737
    29.1737  29.1737  36.2917  36.2917  36.2917  41.8612  51.1761  51.1761
    51.1761  52.7273  55.4662  55.4662  55.9197  55.9197  55.9197  65.0009
    65.0009  68.4829  68.4829  68.4829  71.1553  71.1553  71.1553  75.6115
    75.6115  75.6115  76.7713  76.7713  76.7713  78.1891  78.1891  78.1891
    78.3558  80.4797  80.4797  80.4797  81.0081  81.0081  81.0957  81.3291
    81.3291  81.3291  82.1547  90.6030  90.6030  90.6030  98.9461  98.9461
    98.9461 104.9492 104.9492 106.6096 118.3624 118.3624 118.3624 121.9664
   123.4851 123.4851 123.4851 128.7318 128.7318 129.3758 129.3758 129.3758
   131.8909 132.6811 132.6811 132.6811 133.6889 133.6889 134.1287 135.0870
   135.0870 135.0870 136.2493 136.2493 136.2493 137.0048 137.0048 137.0048
   137.1968 137.1968 137.1968 137.2158 137.2158 139.2362 139.2362 139.2362
   140.6797 140.6797 140.6797 142.0137 142.0137 143.0042 143.0042 143.0042
   143.7398 152.7583 152.7583 152.7583 156.4174 156.4174 156.4174 162.6999
   162.6999 162.6999 163.4006 165.6063 169.2932 169.2932 169.4873 169.4873
   169.4873 169.8259 169.8259 169.8259 170.0403 170.0403 170.0403 170.1257
   170.1257 170.1257 170.2651 170.2651 172.7106 172.7106 180.8298 185.1798
   185.1798 185.1798 185.6405 185.6405 185.6405 188.0850 190.1568 190.2983
   190.2983 190.2983 190.6756 190.6756 190.6756 191.6273 191.6273 191.6273
   191.8294 191.8294 191.8294 195.4108 195.4108 195.4689 195.4689 195.4689
   195.5711 200.7126 200.7126 200.7126 215.3948 215.3948 215.3948 221.8141
   221.8141 221.8141 222.8812 222.8812 223.1924 223.1924 223.1924 225.2290
   234.3693 234.3693 234.3693 235.7734 235.7734 235.7734 236.5272 236.5272
   237.9346 237.9346 237.9346 241.6541 243.4692 243.4692 243.4692 244.8432
   244.8432 244.8432 245.3387 245.3387 246.4777 246.7844 246.7844 246.9694
   246.9694 246.9694 247.5843 247.5843 247.5843 247.9870 248.0203 248.3476
   248.3476 248.3476 249.5846 249.5846 249.5846 249.5998 249.5998 250.3567
   250.3567 250.3567 250.9807 250.9807 250.9807 251.5064 251.6486 251.6486
   251.6486 252.1567 252.1567 252.1567 252.2798 252.2798 252.7676 252.7676
   252.7676 253.0535 255.3356 255.5834 255.5834 255.5834 255.9437 255.9437
   255.9437 255.9839 255.9839 256.2836 256.2836 256.2836 256.3800 256.3800
   256.3800 256.4492 256.4492 271.5377 271.5377 271.5377 275.9302 275.9302
   280.8370 280.8370 280.8370 281.0421 281.0421 281.0421 281.2494 281.2494
   281.2494 281.5861 281.5861 281.5861 281.8296 286.0739 286.0739 286.1359
   286.1359 286.1359 286.2674 288.0193 288.0193 288.0193 297.5818 297.5818
   297.5818 297.9462 303.1200 305.1646 305.1646 305.1646 305.7100 305.7100
   305.8842 305.8842 305.8842 306.0292 306.0292 306.0292 306.2224 306.2224
   306.2224 306.2771 306.2771 306.2771 306.4368 306.4368 310.7104 310.7104
   310.7104 311.0277 311.0277 311.2923 311.4333 311.4333 311.4333 311.5976
   311.5976 311.5976 311.8007 311.8007 311.8007 312.1305 312.1305 312.1305
   312.3679 312.3679 314.6564 328.5865 328.5865 328.5865 336.5951 336.5951
   336.5951 338.7086 338.7086 338.7086 338.8828 341.0490 343.6757 343.6757
   351.9474 353.1282 353.1282 353.1282 353.8270 353.8270 353.8270 354.7377
   354.7377 354.7377 354.9515 354.9515 354.9515 355.6849 355.6849 360.8116
   362.0304 362.0304 362.0304 362.5936 362.5936 362.5936 362.7897 362.7897
   362.7897 362.7932 362.7932 363.0451 363.0451 363.0451 363.3407 363.3407
   363.3407 363.4550 363.4550 363.4550 365.0577 365.4492 365.4492 365.4492
   365.7373 365.7373 365.7373 365.8804 365.8804 365.9809 365.9809 365.9809
   368.0506 368.0711 368.0711 368.0711 368.0952 368.0952 369.8602 369.8602
   369.8602 369.9828 369.9828 370.1683 370.2747 370.2747 370.2747 370.5688
   370.5688 370.5688 370.8033 386.5444 386.5444 386.5444 391.2652 391.3183
   391.3183 391.3183 395.2057 395.2057 395.3168 395.3168 395.3168 395.4263
   395.4263 395.4263 395.7011 395.7011 395.7011 396.0010 396.0010 396.0010
   396.1473 396.1473 398.1930 398.6397 398.6397 398.6397 400.0498 400.0498
   400.1795 400.1795 400.1795 400.2491 400.2491 400.2491 400.3455 400.3455
   400.3455 400.3918 400.3918 400.3918 400.5044 400.5044 401.7933 401.8084
   401.8084 401.8084 401.8523 401.8523 401.8523 401.9229 408.7005 408.7005
   408.7005 408.9092 408.9092 411.0271 411.0271 411.0271 411.1966 412.1920
   412.1920 412.1920 413.0493 413.0493 413.0493 415.1302 415.1302 415.1302
   415.9302 416.4251 416.4251 416.4251 416.8310 416.8310 417.2799 417.2799
   417.2799 417.9046 419.1118 420.3392 420.3392 421.0539 421.0539 421.0539
   421.2734 421.2734 421.2734 421.2957 421.2957 421.2957 421.9548 421.9548
   422.0042 422.0042 422.0042 422.4032 422.6003 422.6003 422.6003 422.6499
   422.6499 424.0031 424.0031 424.0031 424.1115 424.1115 424.1115 424.2446
   424.2446 424.2446 424.3217 424.3217 424.3217 425.1364 425.1910 425.1910
   425.1910 425.2311 425.2311 443.8796 443.8796 443.8796 448.1991 448.1991
   452.0196 466.0843 466.0843 466.0843 474.9030 474.9030 474.9030 475.3824
   475.3824 475.3824 475.5415 475.6619 475.6619 476.1451 476.1451 476.1451
   476.4119 476.4119 476.4119 476.4922 476.4922 476.4922 476.7186 476.7186
   476.7186 476.8349 476.8349 476.8978 476.8978 476.8978 477.0421 477.0904
   477.0904 477.7995 477.7995 477.7995 478.6837 478.8504 481.9686 481.9686
   481.9686 482.1663 482.1663 482.1663 482.5056 482.5056 482.5056 482.6740
   482.6740 482.6740 482.8494 485.9893 485.9893 485.9933 485.9933 486.0532
   486.0532 486.0532 486.0727 486.0727 486.0727 486.2113 486.2113 486.2113
   486.2746 486.2746 486.2746 487.5258 487.5258 487.5305 487.5305 487.5305
   487.6314 505.1448 505.1448 505.1448 509.1812 509.1812 509.1812 509.3993
   509.3993 509.4044 509.4044 509.4044 512.4177 512.4606 512.4606 512.4606
   512.6670 512.6670 512.9073 512.9073 512.9073 513.2666 513.2666 513.2666
   513.2943 513.2943 513.2943 513.5138 513.5138 513.5138 513.5295 513.5418
   513.5418 513.5511 513.5511 513.5511 514.2250 517.9317 517.9317 517.9317
   522.3400 522.3400 522.3400 522.8195 522.8195 522.8578 522.8578 522.8578
   528.5526 531.8304 532.5542 532.5542 532.5542 532.5648 532.5648 532.5648
   532.7185 532.7185 532.8141 532.8141 532.8141 533.0060 533.0060 533.0060
   533.0989 533.0989 533.0989 533.3697 534.0851 537.3354 537.3354 537.3625
   537.3625 537.3625 537.4520 537.4520 537.4520 537.5399 537.5399 537.5399
   537.5991 539.0383 539.0383 539.0383 539.5180 539.5180 539.5180 539.5339
   539.5339 539.5942 539.5942 539.5942 539.6647 539.6647 539.6647 539.7185
   540.4607 540.4607 540.4607 540.8502 540.8502 540.8807 540.8807 540.8807
   540.9900 541.5030 541.5030 541.5030 541.7367 541.7367 541.7367 541.9895
   541.9895 541.9899 541.9899 541.9899 542.5465 563.4545 563.4545 563.4545
   567.0804 567.0804 568.1549 568.1549 568.1549 568.1683 568.1683 568.1683
   568.2607 568.2607 568.2607 568.3948 568.3948 568.3948 569.1250 569.1250
   569.2428 569.2428 569.2428 569.4043 569.5763 573.0050 573.0050 573.0050
   574.4901 574.4901 577.7888 582.8979 582.8979 582.8979 584.3925 584.3925
   584.3925 584.5058 587.9422 588.8767 588.8767 588.8767 589.1513 589.1513
   589.1513 589.2301 589.2301 589.2301 589.2783 589.2783 589.2945 589.2945
   589.2945 589.4734 589.4734 592.9758 592.9758 592.9758 593.0824 593.0824
   593.0824 593.1660 593.1660 593.1660 593.2113 593.2113 593.2113 594.1895
   594.1895 594.3323 594.3323 594.3323 594.3675 594.3675 594.3675 594.3940
   594.3940 594.4124 594.4124 594.4124 594.5387 594.5387 594.5387 594.5830
   594.5830 594.5830 595.7359 595.7359 595.7359 595.8373 595.9676 595.9676
   595.9676 595.9702 595.9702 595.9702 595.9950 596.0061 596.2895 596.2895
   596.2895 596.3192 596.3192 596.5085 596.5085 596.5085 596.5576 596.5576
   596.5576 596.7380 596.7380 596.7380 596.8313 596.8313 598.2930 598.3625
   598.3625 598.3625 598.3979 598.3979 598.9042 601.2730 601.2730 601.3663
   601.3663 601.3663 601.5595 601.5595 601.5595 601.5653 601.5653 601.5653
   601.6606 601.7137 601.7137 601.7137 601.8100 601.8100 601.8266 601.8266
   601.8266 601.9852 601.9852 601.9852 602.0815 620.3123 620.3123 620.3123
   621.2435 621.2991 621.2991 621.2991 622.5846 629.9293 629.9293 629.9585
   629.9585 629.9585 629.9695 629.9695 629.9695 629.9742 629.9742 629.9742
   630.0230 630.0230 630.0727 630.0727 630.0727 637.4593 637.4593 637.4593
   639.2758 639.2758 642.0107 642.7420 642.7420 642.7420 642.8980 642.8980
   642.8980 642.9121 642.9121 642.9121 642.9849 642.9849 642.9849 647.5734
   647.5734 647.6338 647.6338 647.6338 647.6417 651.8330 651.8474 651.8474
   651.8474 651.8835 651.8835 654.1768 654.1768 654.1768 654.2017 654.2017
   654.2017 654.2044 654.2044 654.2044 654.2609 654.2609 654.2609 655.3328
   655.3328 655.3606 655.3606 655.3606 655.4457 681.2610 681.2610 681.2610
   683.8620 683.8620 683.8620 684.0512 684.6071 684.6165 684.6165 684.7252
   684.7252 684.7252 684.7996 684.7996 684.7996 684.8998 684.8998 684.8998
   684.9077 684.9077 684.9077 684.9905 684.9905 693.1782 693.1782 693.1782
   696.9984 696.9984 696.9984 698.1575 698.5037 699.1787 699.1787 699.2138
   699.2138 699.2138 700.9238 700.9238 700.9238 701.7966 701.7966 701.7966
   702.5907 703.7905 703.7905 703.7905 704.7752 704.7752 705.4655 705.4655
   705.4655 705.6663 705.6663 705.6663 705.7845 705.7845 705.7906 705.7906
   705.7906 706.1128 706.1128 706.1128 706.4804 707.1294 707.1294 707.1294
   707.2929 707.2929 707.4178 707.4178 707.4178 707.5140 707.6070 707.6070
   707.6070 707.7339 707.7339 707.7339 707.7828 707.7828 708.1393 708.1393
   708.1393 708.6287 709.7395 709.7395 709.7395 709.7662 709.7662 709.7662
   709.7870 709.7870 709.8621 709.8621 709.8931 709.8931 709.8931 709.9299
   709.9299 709.9299 710.7589 711.2591 711.2591 711.2653 711.2653 711.2653
   711.2654 711.2654 711.2654 711.2972 711.2972 711.2972 711.3364 715.5427
   715.5427 715.5427 715.5430 715.5430 715.5430 715.5448 715.5748 715.5748
   715.5748 715.5968 715.5968 734.7884 734.7884 734.7884 735.8382 735.8382
   736.6739 739.0908 739.0908 739.0908 739.4278 739.4278 739.4278 739.9560
   739.9560 739.9560 740.1030 740.4469 740.4469 740.5748 740.5748 740.5748
   740.7187 740.7187 740.7187 740.7211 740.8330 740.8330 740.8330 740.9290
   740.9290 741.4349 741.4349 741.4349 741.7409 741.7409 741.7409 741.7757
   741.7757 741.7757 742.0703 742.0703 742.0703 745.1403 745.1403 745.2332
   745.2791 745.2791 745.2791 745.3099 745.3099 745.3099 745.4231 745.4231
   745.4231 745.4269 745.4269 745.4269 745.4408 745.4408 745.5697 745.5697
   745.5697 745.6997 745.6997 745.6997 745.8103 746.6767 746.6767 746.7334
   746.7334 746.7334 746.8660 755.2177 755.2177 755.2177 756.7901 756.7901
   756.7901 756.9941 756.9941 757.0079 757.0079 757.0079 758.4438 758.6731
   758.6731 758.6731 758.8138 758.8138 758.8678 758.8678 758.8678 759.1511
   759.1511 759.1511 759.3665 762.6608 763.0191 763.0191 763.0191 763.3362
   763.3362 763.3362 763.7708 763.7708 763.7963 763.7963 763.7963 764.9543
   765.1523 765.1523 765.1523 765.3467 765.3467 765.3467 765.5209 765.5209
   765.5209 765.5299 765.5299 768.6845 768.6845 768.6845 768.6860 768.6860
   768.8302 768.8302 768.8302 768.9603 768.9603 768.9603 769.1005 769.1051
   769.2231 769.2231 769.2232 769.3101 769.3101 769.3101 769.3666 769.3666
   769.3780 769.3780 769.3780 770.1901 770.1901 770.1901 770.4230 770.4321
   770.4321 770.4321 770.6950 771.2481 771.2481 771.2481 771.4448 771.4448
   771.9318 771.9318 771.9318 771.9403 771.9403 771.9403 771.9809 771.9809
   771.9809 771.9824 772.0141 772.0141 772.0141 772.5500 772.5500 772.5845
   772.5845 772.5845 772.5879 816.4716 816.4716 816.4716 817.8817 818.0479
   818.0479 818.0479 818.1716 818.6313 818.6313 818.7360 818.7360 818.7360
   818.8756 818.8756 818.8756 818.9279 818.9279 818.9279 818.9970 818.9970
   818.9970 819.0850 819.0850 820.9886 820.9886 820.9886 821.6393 821.6393
   821.6393 821.7382 823.3609 824.1666 824.1666 824.2409 824.2409 824.2409
   824.3367 824.3367 824.3367 824.3498 824.3498 824.3498 824.4516 824.4516
   824.4516 824.4624 824.5066 824.5066 824.5825 824.5825 824.5825 824.7072
   824.7072 824.7072 824.7916 824.7916 824.8298 824.9602 824.9602 824.9602
   825.3695 825.3695 825.3695 825.7484 825.7484 825.7484 825.7710 825.7710
   825.7710 826.4271 826.4271 827.2325 827.2325 827.2325 827.3058 827.4282
   827.4282 827.6487 827.6487 827.6487 827.6741 827.6741 827.6741 827.7201
   827.7201 827.7201 827.9789 827.9789 827.9789 828.0325 828.3918 828.3918
   828.3918 828.3927 828.3927 831.7150 831.7150 831.7150 831.7383 831.7383
   831.8134 831.8134 831.8134 831.8785 831.8785 831.9082 831.9082 831.9082
   831.9135 831.9135 831.9135 833.4582 833.4700 833.4700 833.4700 833.4984
   833.4984 833.4984 833.5429 854.6697 854.6697 854.6697 855.1178 855.1178
   855.3018 855.5217 855.5217 855.5217 855.5542 855.5542 855.5542 855.5705
   855.5705 855.5705 855.6114 855.6114 855.6114 855.9173 855.9173 855.9190
   855.9458 855.9458 855.9458 860.4120 860.4120 860.4464 860.4464 860.4464
   860.5578 860.7066 860.7066 860.7066 860.7206 860.7206 860.7206 860.7293
   860.7293 860.7293 860.7696 860.7696 860.7696 860.9432 860.9814 860.9814
   860.9814 860.9820 860.9820 862.0360 862.0360 862.0360 862.2793 862.2793
   863.0830 872.3136 872.3136 872.3136 872.5841 872.5989 872.5989 872.5989
   873.0536 880.8305 880.8305 880.8305 880.8407 880.8407 880.8407 880.8483
   880.8483 880.8483 880.9050 880.9050 880.9050 881.7075 881.7075 881.7075
   881.7212 881.7212 881.7258 881.7258 881.7258 881.7396 881.7396 881.7562
   881.7562 881.7562 881.7794 881.7794 881.7794 886.1391 886.1693 886.1693
   886.1693 886.1836 886.1836 912.0767 912.0767 912.0767 912.3384 912.3384
   912.3384 912.3658 912.3658 912.3663 912.3663 912.3663 912.5889 922.8226
   922.8226 922.8226 924.1811 924.1811 924.2007 924.2007 924.2007 924.3650
   924.4907 924.4907 924.4907 927.0671 927.0671 927.3184 927.3184 927.3184
   928.4718 929.8827 929.8827 929.8827 930.5292 930.5292 930.5292 930.6884
   930.6884 930.6884 931.2843 931.2843 931.2843 934.2589 934.8982 934.8982
   934.8982 935.0122 935.0176 935.0176 935.4375 935.4375 935.4375 935.7310
   935.7310 935.7310 935.9508 935.9508 935.9508 935.9911 935.9911 935.9911
   936.1584 936.1584 936.2076 936.2076 936.4696 936.5716 936.5716 936.5716
   936.6638 936.6638 936.6638 936.9698 937.0444 937.0444 937.0444 937.1331
   937.1331 937.1331 937.3609 937.3609 937.3609 937.5009 937.5009 939.8428
   939.8813 939.8813 939.8813 939.9217 939.9217 940.2456 940.2456 940.2637
   940.2637 940.2637 940.3224 940.3224 940.3224 940.3967 940.3967 940.3967
   940.5071 941.4750 941.4750 941.4750 941.8933 941.8933 941.8933 942.0422
   942.0422 942.0422 942.0489 942.0489 942.0489 942.0905 942.0905 942.0905
   942.0969 942.0969 942.0969 942.1638 942.4104 942.5246 942.5246 942.5246
   942.5629 942.5629 942.5629 942.5812 942.5812 942.6183 942.6183 942.6212
   942.6212 942.6212 942.6265 942.7811 942.7811 942.7811 942.9478 942.9478
   942.9478 942.9861 942.9861 942.9861 943.0928 943.0928 943.0928 943.1598
   943.1598 943.2322 943.2322 943.2349 943.2349 943.2349 943.3107 944.3046
   944.3046 944.3688 944.3688 944.3688 944.4769 944.4769 944.4769 944.5714
   944.5714 944.5714 944.9114 944.9114 944.9114 944.9136 944.9136 945.0758
   945.3556 945.3556 945.3556 945.4719 945.4719 945.4719 945.5359 966.1344
   966.1344 966.1344 966.2232 966.2313 966.2313 966.2313 966.4481 971.0393
   971.0393 971.0393 971.0447 971.0447 971.0681 971.0681 971.0681 971.1204
   971.1204 971.1204 971.2400 971.2400 971.2400 971.2449 971.2449 971.2449
   971.2462 971.2462 971.2667 971.2667 971.2667 971.2947 971.3706 975.3226
   975.3226 975.3281 975.3281 975.3281 975.3553 975.3553 975.3556 975.3556
   975.3556 975.3641 975.3641 975.3641 975.3700 975.3700 975.3700 990.5440
   990.5440 990.5440 990.8234 990.8234 990.8234 990.9851 991.0567 991.3619
   991.3619 991.4047 991.4047 991.4048 991.5898 991.5898 991.5898 991.6612
   991.6612 991.6612 991.8112 991.8112 991.8112 991.8421 991.8421 993.8133
   993.8133 993.8795 993.8795 993.8795 994.1334 994.1334 994.1334 994.1601
   994.1601 994.1601 994.3747 994.3747 994.3747 994.4864 994.5369 994.5369
   994.6718 994.6718 994.6718 994.8972 994.8972 994.8972 995.0671 997.1539
   997.1640 997.1640 997.1802 997.1802 997.1802 997.1957 997.1957 997.1957
   997.2177 997.2177 997.2177 997.3044 997.3044 997.3044 997.3104 997.3104
   997.3104 997.3192 997.3192 997.3282 997.3282 997.3282 997.33841001.2331
  1001.23311001.23311001.39591001.39591001.39591001.48381001.48381001.5213
  1001.52131001.52131001.54231001.69161001.69161001.69161001.71411001.7788
  1001.77881001.77881001.84461001.84461001.84461001.91001001.91001001.9666
  1001.96661002.09261002.09261002.09261002.16211002.16211002.16211002.2661
  1002.26611002.26611002.29171002.50871002.50871002.50871002.60291002.6029
  1002.68021002.68021002.68021002.81221002.81221002.81221002.88671023.5243
  1023.52431023.52431023.65501023.65501023.79951029.73991029.73991029.7399
  1029.74271029.76231029.76231029.76241029.87781030.52581030.52581030.5258
  1030.52681030.52681030.53231030.53231030.53231030.54111030.54111030.5437
  1030.54371030.54371030.54521030.54521030.54521045.88481045.88481045.8869
  1045.88691045.88691046.19761046.19761046.19761046.20981046.21221046.2122
  1046.21221046.24081046.24081046.24081046.26421046.26421046.26421046.6800
  1046.70091046.70091046.73901046.73901046.73901050.80661050.81961050.8196
  1050.81961050.82411050.82411050.82411050.89241052.62531052.62531052.6253
  1052.70161052.70161052.84181056.32311056.32981056.32981056.32981056.3391
  1056.33911056.55501056.55501056.55501056.56951056.56951056.56951056.5764
  1056.57641056.57641056.60461056.60461056.60461056.78571056.78571056.8053
  1056.80531056.80531056.86421058.11721058.11721058.11721058.12081058.1208
  1058.12081058.14231058.14231058.14231058.15281058.15281058.15281063.2299
  1063.22991063.25701063.25701063.25701063.30661084.21361084.21361084.2136
  1084.24911084.26491084.26491084.26491084.48501084.70661084.70661084.7066
  1084.71101084.71101084.75281084.75281084.75281084.76561084.76561084.7928
  1084.79281084.79281084.80251084.80251084.80251088.19901088.23361088.2336
  1088.23361088.29161088.29161088.73951088.73951088.73951088.74391088.7439
  1088.74391088.77001088.77001088.77001088.81531088.81531088.81531089.3395
  1089.37221089.37221089.37221089.37731089.37731090.44481090.44481090.4685
  1090.46851090.46851090.51651090.51651090.51651090.52321090.52321090.5232
  1090.57651090.57651090.57651090.59661090.59661090.79921090.81091090.8109
  1090.81091090.82721090.82721090.82721090.84661100.74741100.75871100.7587
  1100.75871100.78041100.78041100.78041101.16271104.31251104.31251104.3598
  1104.35981104.35981104.38821104.38821104.38821104.39981104.39981104.3998
  1104.43571104.43571104.43571104.43921104.43921108.10371108.14311108.1431
  1108.14311108.23431108.23431108.23431108.31891108.94641108.94641108.9672
  1108.96721108.96721109.01961109.01961109.01961109.03151109.03151109.0315
  1109.07901109.07901109.07901109.09771109.09771111.66201111.66311111.6633

          k =-0.1667 0.1667-0.1667 (  5468 PWs)   bands (ev):

   -45.3604 -17.8323 -17.2682 -17.2682 -16.9239   1.1148   1.5497   1.5497
     9.1406  18.4983  21.4740  21.4740  25.4382  25.4382  26.4640  29.7630
    30.4302  30.4302  34.5078  37.0936  37.0936  43.8956  46.8147  46.8147
    51.7381  53.5781  54.0394  54.0394  56.5172  62.2714  62.2714  63.4874
    63.4874  65.2623  66.3810  67.4498  67.4498  68.9108  68.9108  70.6205
    70.6205  70.8664  74.9285  75.3829  75.4417  75.4417  78.8181  80.8496
    80.8649  80.8649  81.5271  81.5271  84.4913  84.4913  85.2878  87.0556
    88.1818  90.9359  90.9359  91.1757  91.1757  95.0663  97.4426  97.5922
    97.5922 104.9026 104.9026 106.1480 116.0592 116.0592 116.9214 118.5519
   118.5519 119.6847 122.6365 122.6365 123.8386 125.3956 125.3956 126.6853
   126.6853 126.6897 126.9212 126.9212 127.8614 129.4123 130.6533 133.7612
   133.7612 134.4247 134.4247 135.4445 135.6105 135.7200 138.1853 138.1853
   138.4973 139.3555 139.3555 141.4798 141.4798 143.0236 144.1712 144.1712
   145.6570 145.7483 148.5665 149.6826 149.6826 150.8199 150.8199 151.2073
   151.2073 152.5905 152.7144 152.7144 153.5287 153.5287 155.6362 155.6362
   156.7536 157.3918 160.6579 160.6579 161.0617 164.3038 164.3038 167.3789
   168.1487 168.8435 168.8435 169.2369 171.0687 171.0687 174.1896 175.8858
   175.8858 177.6718 177.6718 177.7306 179.1177 179.5021 179.7562 179.7562
   179.8783 179.8783 180.1445 180.4342 183.2911 183.7416 183.7416 185.7838
   185.8266 185.8266 189.3342 189.3342 194.2371 194.2371 195.9195 196.3896
   197.5104 197.5104 199.1669 201.8976 201.8976 203.0304 203.1840 203.1840
   206.4267 208.7238 208.7238 209.8133 209.8133 210.4523 211.4450 211.4450
   212.5354 217.6021 222.7361 222.7361 223.7507 223.8729 223.8729 224.1670
   225.1793 225.1793 227.5719 229.3604 229.9194 230.1473 230.1473 231.7063
   231.7063 233.1429 233.1429 233.2294 233.5906 233.5906 235.7897 235.8060
   235.8060 237.0710 237.4515 237.4515 238.5148 240.3786 240.3786 241.4673
   243.8176 243.8176 245.2410 245.3491 245.3491 245.7801 246.5596 246.5596
   247.4898 247.7036 248.0186 248.0186 249.1327 249.1327 249.1646 249.8867
   251.0298 251.0298 251.8285 252.5573 252.5573 253.4444 253.4444 253.6590
   256.4856 256.4856 256.9371 256.9648 257.4903 258.5814 258.5814 258.8077
   258.8077 260.0287 260.0287 261.2854 262.5858 262.5858 264.2379 264.2379
   264.5202 264.5202 264.8991 265.3832 265.3895 267.6709 269.2510 269.2510
   269.3506 269.6886 269.6886 270.1718 270.1718 270.6517 271.1424 272.6599
   272.6599 272.9951 273.7012 275.1370 275.1370 275.2292 279.8966 279.8966
   280.3872 280.3872 283.0510 283.0510 285.1643 286.1027 286.1027 288.4712
   288.4916 288.4916 290.6568 293.0225 293.0225 293.3560 294.4475 294.4475
   294.7823 295.8476 296.0798 296.0798 297.7935 297.7935 298.0032 298.6682
   298.6682 299.9418 299.9591 299.9591 302.7707 303.0379 303.0379 303.8154
   303.8154 304.1323 304.8896 306.2289 306.2289 307.4557 309.8760 311.2423
   313.9682 313.9682 315.5112 315.5112 317.3600 318.3796 318.4100 318.4100
   318.7162 320.8793 320.8793 324.4956 324.4956 324.7125 326.5515 326.5515
   326.6711 328.7090 328.7090 328.7958 330.6573 331.7625 331.7625 332.5637
   332.9800 332.9800 333.0846 335.9309 335.9309 338.4299 338.4299 338.4644
   341.9342 341.9342 342.7294 343.6991 343.6991 345.6436 346.2362 346.2362
   346.4154 346.4154 346.4434 346.9202 346.9202 347.1820 349.2337 349.2337
   349.9978 353.5723 353.5757 353.5757 355.1609 355.1609 355.2732 356.4292
   356.4292 356.7081 358.9107 360.4613 360.4613 361.0328 361.2448 361.2448
   362.0014 364.0323 366.5087 366.5087 366.5861 366.9854 366.9854 367.0385
   367.6310 367.6310 368.1693 371.4480 371.4480 372.1747 372.1747 372.9036
   373.3178 373.3178 373.4147 373.6963 373.8175 375.1805 375.1805 376.1717
   376.8724 376.8724 379.3551 379.3551 380.1825 380.2451 380.6748 380.6748
   380.7804 381.2406 381.2406 382.0282 384.1481 384.1481 385.3215 385.7699
   385.7699 387.1686 387.1974 387.1974 387.9644 387.9644 389.0779 389.1326
   389.1326 389.2383 390.0542 390.2937 390.2937 390.5935 390.9944 390.9944
   391.4173 391.4173 392.0748 393.3902 393.3902 394.5875 394.5875 395.0336
   395.6066 395.9607 395.9607 396.7472 396.7472 397.4864 398.6418 399.4178
   399.4178 400.0803 400.0990 400.0990 400.3191 401.1016 401.1016 401.1726
   402.0527 402.0527 402.2512 402.7145 402.7145 404.5490 405.8054 405.8054
   405.8516 406.6860 406.6860 407.3411 407.9689 407.9689 408.0472 410.1629
   410.1629 410.7436 412.9003 412.9003 413.8150 414.8853 414.8853 414.9369
   415.5876 415.8483 415.8483 416.5382 416.5382 416.6003 418.2615 418.2615
   418.4270 420.1155 420.1155 420.1515 421.6489 421.6489 422.1428 423.2546
   424.7568 424.7568 424.7849 426.0238 426.0238 427.8372 427.8372 429.0615
   429.0615 429.4770 429.6010 429.6010 429.7988 431.1828 432.4968 432.4968
   432.6092 433.7808 433.7808 434.1399 434.9596 436.0483 436.0483 437.5958
   437.6055 437.6055 439.9460 440.3014 440.3014 442.4390 443.8518 445.8223
   445.8223 445.8235 447.1337 447.1337 448.8238 449.9582 449.9582 450.2449
   451.8911 451.8911 453.5740 453.5740 454.3108 454.3108 455.2659 458.1257
   458.1257 460.2181 460.2181 460.2690 460.4482 460.5488 460.5488 461.0526
   462.6881 462.6881 464.3847 466.0406 466.0406 466.4648 467.0725 467.0725
   470.2418 471.2180 471.5909 471.5909 472.3678 472.3678 472.6928 473.7966
   473.7966 474.7483 478.5802 478.5802 479.1022 479.6356 479.7044 479.7044
   480.5166 481.1323 481.1323 484.1536 484.1536 485.1274 485.1274 485.2936
   487.3469 489.6253 491.3565 491.3565 493.3661 493.3661 493.6692 493.6692
   493.7800 494.0890 494.0890 494.1674 494.3496 494.3496 494.3626 494.8183
   494.8183 495.0971 496.0450 496.5265 496.5265 497.2880 498.7191 498.7451
   499.4855 499.4855 500.9926 500.9926 501.3618 502.7565 503.2662 503.2662
   503.8123 503.8123 504.2164 504.2974 504.5624 504.5624 507.2302 507.8415
   508.0282 508.0282 508.3003 508.3003 509.1087 509.1087 509.4004 509.7664
   509.7664 510.1042 510.1042 510.1682 510.4342 510.4875 510.4875 510.8073
   512.1792 512.1792 512.2051 512.2986 516.1028 516.1028 517.7786 518.0678
   518.0678 520.0600 520.0600 520.5232 520.5232 521.0272 521.5006 522.9630
   522.9630 523.3746 523.3999 523.3999 523.8819 531.7584 531.7660 531.7660
   532.6143 532.6143 532.6867 533.5334 533.5334 533.9848 533.9848 534.0338
   534.1291 535.0410 535.1556 535.1556 535.4835 535.4835 535.6502 536.3849
   536.3849 536.5258 537.2526 537.2526 537.3162 537.3613 538.7952 538.7952
   539.3747 539.3747 540.5692 540.5692 540.5732 540.7981 542.2875 542.2875
   542.6618 543.5458 543.5458 543.8409 544.5352 544.5352 544.6129 545.0550
   545.0550 545.6433 546.3935 546.3935 546.6369 546.6369 546.6870 546.8858
   547.7577 550.7300 550.7300 551.2277 551.9055 551.9055 554.4094 554.4094
   555.2720 558.8269 558.8269 559.0738 559.0738 559.7158 559.7158 559.7802
   559.7899 560.6263 561.3359 561.3359 561.5928 562.6087 563.7210 563.7210
   565.4218 565.4787 565.4787 566.1080 566.1080 566.2952 567.1617 567.1617
   567.3532 568.6763 568.6763 568.9300 569.6797 569.6797 569.8997 570.3956
   570.8374 570.8374 571.0054 571.2367 571.8049 571.8049 572.6670 572.6670
   573.0805 573.9587 574.0592 574.0592 575.1555 575.1555 575.2110 575.2122
   575.3897 575.3897 576.7110 576.7110 578.2601 578.8330 578.8330 578.9005
   579.0419 579.0796 579.0796 579.4901 579.4901 580.0205 580.5390 580.5390
   580.5854 583.5746 585.5810 585.5810 585.9694 585.9694 586.0003 586.0413
   587.6448 587.6448 588.1111 589.6245 589.6245 591.0648 591.9300 591.9300
   592.2529 592.2529 592.4479 592.7016 592.7016 592.7333 594.2084 594.2084
   594.2962 596.4014 596.4282 596.4282 597.4066 597.4066 597.4467 597.7611
   597.7611 597.8908 597.8908 598.1236 598.5983 601.1718 601.1718 602.1515
   603.1023 603.1023 603.5863 604.2954 604.4443 604.4443 606.5615 606.5615
   606.7463 607.0737 607.0737 607.1263 611.2200 611.4001 611.4001 611.9562
   611.9562 612.5753 613.0064 613.0064 613.2141 613.2477 613.2477 613.6534
   614.0829 614.0829 614.2309 615.1321 615.3044 615.3044 616.6985 616.6985
   616.8362 616.9200 616.9200 617.0612 617.2563 617.2563 617.4232 620.3119
   620.9897 620.9897 621.0454 622.1728 622.1728 622.5157 623.7454 623.7454
   624.1082 624.1863 624.1863 624.5775 624.5775 624.5958 624.7166 625.6900
   625.6900 625.7390 625.9566 625.9566 628.6212 628.6212 629.1741 629.6884
   630.3984 630.3984 631.0035 631.0035 631.3936 631.3936 631.4328 632.5481
   632.9226 632.9226 633.5096 635.6782 635.6782 635.9764 639.1108 639.1108
   639.1191 640.1838 640.1838 640.2315 642.0479 642.0479 642.0950 645.6035
   647.0544 647.0544 648.1030 648.1030 648.1155 654.2542 654.2542 655.0526
   657.6183 659.8881 660.0663 660.0663 660.1471 663.9164 663.9164 664.9571
   666.0283 666.0283 666.2045 666.2045 666.3015 666.8707 667.3793 667.3793
   667.8966 668.5215 668.5215 668.8170 668.8170 668.8995 668.9662 668.9662
   671.5271 671.8887 671.8887 672.0359 672.0359 672.1002 674.0778 674.0778
   674.3070 674.5403 674.5403 674.6045 678.0915 678.0915 678.3489 680.8792
   680.8792 682.1971 682.2785 682.2785 682.4853 682.4853 682.5507 682.6313
   683.5969 683.5969 684.3152 684.9598 685.0689 685.0689 685.1629 685.1629
   685.2212 685.2212 685.2617 685.3516 685.4816 685.4816 685.9246 687.6153
   687.6153 687.6885 693.0902 693.0902 693.1361 696.7215 696.7215 698.5349
   699.0111 699.0111 699.8058 699.8884 700.6279 700.6279 701.4502 701.4502
   701.6695 701.8578 702.9541 702.9541 703.2319 703.2319 704.0920 704.0920
   704.1497 704.1916 705.5675 705.5675 705.9202 705.9202 705.9335 706.4024
   707.3386 707.3386 707.8303 709.9238 710.1755 710.1755 710.6074 710.6074
   710.9467 711.9954 711.9954 712.1088 712.1088 712.1207 712.3002 713.2636
   713.2636 713.2992 714.4145 714.4145 714.5141 715.1249 715.4200 715.4200
   717.2417 717.2417 717.3998 718.0098 718.0098 718.2246 718.2246 718.2504
   718.3206 720.1063 720.5708 720.5708 720.9046 721.5640 721.5640 721.8047
   721.8801 721.8801 722.7366 723.6685 723.6685 725.2476 725.2476 725.4897
   725.4897 725.5256 725.5626 725.9574 725.9574 726.1879 726.4644 726.7644
   726.7644 727.9232 728.6250 728.8048 728.8048 729.3646 729.3646 729.5056
   731.4298 731.4298 731.4901 733.2042 733.2847 733.2847 733.5696 733.5696
   733.6390 733.6390 733.6672 733.7157 735.3486 735.3486 735.3517 736.3781
   736.3781 736.4879 738.7524 739.2114 739.2114 739.2353 739.4143 739.4143
   739.4258 740.9655 740.9655 742.0215 742.1932 742.1932 742.6467 742.6467
   742.6978 743.0856 743.0856 743.1161 743.7343 743.7343 743.8853 744.4181
   744.4181 744.4420 744.7285 745.8051 745.8051 746.2685 747.8072 747.8072
   748.2420 748.3139 748.3139 748.3220 748.8993 748.8993 749.0292 749.0292
   749.0663 749.4948 749.6452 749.6452 749.6648 750.8260 750.8260 753.4226
   753.4226 753.5606 753.5607 753.5607 753.5868 756.1636 756.1636 756.3255
   757.2847 757.2847 757.3724 757.6221 757.6221 757.7048 757.9993 757.9993
   758.0743 758.2412 758.2412 758.4798 760.0330 760.0330 760.1272 760.4253
   760.4253 760.4630 763.3194 763.3194 763.3479 767.6004 767.6004 767.8460
   768.1752 768.1752 768.2557 768.4301 768.4301 768.5772 769.9708 769.9708
   770.1825 772.0081 772.0126 772.0126 772.4284 772.4284 772.5075 773.7088
   773.9348 773.9348 774.9184 774.9184 775.1183 776.8080 778.6554 778.7592
   778.7592 779.4373 779.4373 779.6123 779.6516 779.6516 779.7331 779.7331
   779.7651 779.8842 783.7505 783.7505 784.2059 784.2059 784.2081 784.2081
   784.4715 784.5125 785.2293 785.2293 785.3357 787.1267 787.1267 787.1818
   788.6829 788.6829 788.8002 789.0677 789.0677 790.8409 792.3544 792.3544
   792.5880 793.0298 793.3318 793.3318 793.6136 793.8291 793.8291 794.1439
   794.1439 794.5025 795.0450 795.0450 795.2169 795.3958 795.3958 795.4615
   796.5494 796.5494 796.5853 796.5853 796.5993 796.6987 801.3081 801.3081
   801.5907 801.9837 802.5830 802.5830 803.5020 803.5020 803.7748 805.9018
   805.9727 805.9727 806.1321 806.1321 806.2101 806.2173 806.2173 806.2434
   806.3705 806.7278 806.7278 807.1464 807.1464 807.2116 812.0485 812.0485
   812.4597 813.1140 813.1140 813.3464 814.1284 814.4912 814.6351 814.6351
   815.6113 815.6113 815.7173 816.9328 816.9328 817.1968 817.8947 817.9928
   817.9928 821.5960 821.5960 821.8231 822.6304 822.6304 822.6532 822.7942
   822.7942 822.9054 823.0040 823.0040 823.0451 827.2827 827.2827 827.2846
   827.6241 827.8360 827.8360 827.8738 829.1850 829.2145 829.2145 829.3382
   829.3382 829.3740 829.7424 829.7424 830.1500 835.4635 835.4635 835.7742
   836.0281 836.0281 836.0575 836.7803 836.7803 837.9129 837.9129 838.1054
   838.2049 838.2049 838.2431 840.3054 840.3054 840.3406 840.3704 840.3704
   840.3924 841.1953 841.1953 841.4929 841.9528 841.9528 842.2378 843.2084
   843.4889 843.4889 844.3585 844.3585 844.4795 846.6918 846.6918 846.8050
   849.1375 849.1375 849.1419 849.6051 849.6051 849.6323 851.6739 851.6739
   851.6865 851.6865 851.6959 851.7046 853.9840 853.9901 853.9901 855.0441
   855.0441 855.0868 855.4184 855.4184 855.5951 856.2727 856.2727 856.3257
   858.6682 859.7546 859.7546 861.1552 861.1552 861.2211 861.6372 861.6372
   861.7027 862.1222 862.1400 862.1400 865.6618 865.7095 865.7095 865.7249
   865.7249 865.8043 865.9960 866.5718 866.5718 866.6470 870.2946 870.2946
   870.3216 870.3216 870.3410 870.9839 870.9839 871.0061 874.4363 874.5256
   874.5256 875.5038 875.5038 877.1490 877.1490 877.2155 877.2239 877.2439
   877.2439 877.2655 885.3400 886.2791 886.2791 886.7205 886.7205 886.9284
   887.7401 887.7401 887.8017 888.2774 888.2774 888.2847 888.7491 888.7491
   889.0888 891.3815 891.3815 891.5439 894.3230 894.3230 894.3422 894.5339
   894.5339 894.5374 894.6701 894.6701 895.4544 896.6171 897.8082 897.8082
   899.4482 899.6191 899.6191 899.6505 900.1791 900.1791 900.4917 900.4917
   900.4931 901.9770 901.9770 902.2119 902.2180 902.2180 902.3868 902.8439
   902.8439 903.0438 905.4566 905.4566 905.5815 906.7223 906.7525 906.7525
   907.1077 907.1077 907.1967 907.8122 907.8122 907.8427 908.5815 908.5815
   908.6503 910.5424 910.5424 910.5649 911.4033 911.4033 911.5335 912.6731
   912.6731 912.7506 912.9566 912.9566 913.2120 914.0764 914.0764 914.1234
   914.8837 914.9119 914.9119 915.4021 915.4719 915.4719 915.8531 915.8531
   915.9924 918.6715 919.0158 920.0619 920.0619 920.0940 920.1259 920.1259
   920.1840 922.0435 922.0435 922.0620 923.5378 923.5378 923.7390 923.7686
   923.7686 923.9967 925.1945 925.1945 925.2296 927.8963 927.8963 927.9577
   927.9577 933.3343 933.3343 933.3473 933.5140 933.5140 933.5320 933.9891
   933.9891 934.0660 936.5170 936.5170 936.5906 936.7402 936.8103 936.8103
   937.8822 937.8822 938.1299 938.1762 938.3585 938.3585 939.1307 939.1307
   939.2559 939.5462 939.5462 939.6819 939.9024 939.9024 939.9234 939.9978
   939.9978 940.0198 946.1438 946.8342 946.8342 947.2459 947.2459 947.2816
   947.4015 947.4015 947.4264 947.7485 947.7485 947.8126 948.5965 948.5965
   948.6384 949.0665 949.0886 949.0886 949.1119 949.1119 949.3295 950.0176
   950.0176 950.0183 951.1636 951.1636 951.1779 951.6418 951.6418 952.2834
   952.8608 952.8608 952.8627 954.3549 954.5781 954.5781 956.7254 956.7254
   956.7436 957.6314 957.7589 957.7589 958.5284 958.5284 958.7765 958.9818
   959.2330 959.2330 959.7851 959.7851 960.1055 960.3156 960.4611 960.4611
   960.9759 960.9759 961.0115 961.5728 961.5728 961.6601 962.2972 962.2972
   962.3241 962.3241 962.3314 962.3835 962.7920 963.2125 963.2125 964.7108
   964.7108 964.7149 964.8450 964.8450 966.0326 966.1507 966.1507 966.1779
   966.9089 967.6576 967.6576 967.8522 967.8522 967.9611 968.1277 968.1277
   968.1732 968.3880 968.3880 968.4124 968.6227 968.6305 968.6305 968.9268
   968.9268 968.9758 969.3696 969.3696 969.4058 974.1546 974.1546 974.2391
   974.7623 974.8621 974.8621 977.8293 977.8293 977.9258 978.0476 978.0969
   978.0969 979.0963 979.4559 979.4559 980.4063 980.4063 980.4486 981.1872
   981.1872 981.2266 981.2266 981.2324 981.2525 981.9944 981.9944 982.3346
   982.3346 982.3627 982.3819 982.4173 982.4173 982.4468 982.4927 982.5761
   982.7964 982.7964 982.8166 983.2219 983.2219 983.4324 983.4324 985.6921
   986.5780 986.5780 988.2514 988.2514 988.2819 988.2819 988.3247 988.3277
   988.3277 988.3426 989.0233 991.2457 991.2457 991.2495 992.9588 992.9588
   992.9851 993.5266 993.5266 993.5430 995.0666 995.0666 995.0872 995.1437
   995.1437 995.2458 996.4234 996.4234 996.4953 996.8648 996.8648 996.8771
   997.6150 997.6150 997.6303 998.0152 998.0152 998.03191001.07861002.0930
  1002.09301002.09501006.68271006.68271006.71021007.39871007.39871007.4063
  1007.44561007.44561007.45611007.64151007.64151007.65631007.75851007.7585
  1007.84431007.84431007.86761007.87501008.26571008.28331008.28331010.0058
  1010.00581010.05371010.17431010.18231010.18231014.71741016.84211016.8421
  1016.86231016.86231016.86991016.87221019.29201019.30391019.30391019.3941
  1019.39411019.42691021.01761021.01761021.07841021.11531021.11531021.1461
  1021.25681021.27011021.27011021.59751021.59751021.60911021.95111021.9511
  1021.98921023.75261023.75261023.76371023.88351023.88351027.08911027.0891
  1027.11261028.89781028.89781028.93751031.40621031.40621031.45991032.0902
  1032.09021032.10371032.84561032.84561032.89921034.62611034.62611034.6455
  1034.89861035.25841035.25841035.97851035.97851036.01741036.54861036.5486
  1036.56491037.08791037.63321037.63321037.81251037.81251037.83421038.1004
  1038.11951038.11951040.19151040.19151040.21971040.73511040.73511040.7465
  1043.15831043.15831043.16441043.17761043.17761043.21251043.21251043.3705
  1043.45181043.52341043.52341043.54371045.20701045.40281045.40281045.9465
  1045.94651046.26911051.00291051.07021051.07021051.78021052.73931052.7393
  1052.79601056.31171056.31171058.14401058.14401058.19651058.60231058.6023
  1058.61081059.67541059.67771059.67771060.54911060.54911060.62941060.6827
  1060.68271060.69781060.79581060.80061060.80061061.00561061.00561061.0134
  1061.65531061.65531062.63511063.63051063.63051064.13831067.50081067.5008
  1067.55331068.18291068.18291068.20441069.71151069.71151069.72321069.9718
  1069.97181069.97711069.99511069.99511070.00651072.05851072.07211072.0721
  1072.16741072.16741072.18811076.17191076.17191076.24101077.50941077.5094
  1077.53151078.28221079.05551079.05551079.43871079.43871079.48011081.5127
  1081.51271081.51601084.31531084.33981084.33981084.53771084.53771084.6296
  1085.14221085.14231085.14231085.43951085.43951085.45051085.52191085.5219
  1085.56011085.90911085.90911085.92711088.80951088.80951088.82381089.0382
  1089.03821089.04951090.03111090.03111090.03841091.20391091.20391091.2067
  1091.21901091.21901091.23401092.92281092.92281092.93701094.08391094.0839
  1094.09251095.36291095.36291095.39981095.91411095.92921095.92921096.2765
  1096.27651096.31811099.44331099.44331099.48361100.79141100.79141100.8027
  1101.78701105.26931105.31231105.31231105.58051105.58051105.59061105.8650
  1105.86501105.87471106.28851106.28851106.37141106.57411106.57411106.5919
  1106.67481106.67481106.70661108.60801108.61001108.61001113.77471113.7747
  1113.80921114.97821114.97821114.99341115.04301117.00621117.00621117.2054
  1117.34791117.34791117.37821117.58171117.59871117.59871118.33881118.3388

          k =-0.3333 0.3333-0.3333 (  5450 PWs)   bands (ev):

   -45.3525 -18.1098 -17.2748 -17.2748 -16.5734   0.3065   1.4152   1.4152
    11.1548  15.9615  22.1275  22.1275  24.9421  24.9421  26.4092  30.5432
    32.1581  32.1581  36.4263  37.5745  37.5745  43.9494  43.9494  47.4012
    51.0473  54.4874  55.4184  55.4184  55.8302  55.8302  58.3071  58.7025
    61.3716  62.5261  62.5261  65.5032  66.1326  66.1326  68.7436  68.7436
    73.5099  74.1460  74.6874  74.6874  74.9604  74.9604  79.3770  80.3627
    80.3627  83.0455  87.5782  87.5782  89.6592  92.4958  92.8021  92.8021
    93.3176  93.3176  94.2323  94.8764  94.8764  98.7754  99.6259 102.1090
   102.1090 103.8770 103.8770 105.6441 105.6441 109.2971 110.8870 113.1731
   113.1731 113.8484 113.8484 115.2981 115.2981 115.6606 120.1308 124.3872
   125.4198 126.8290 126.8290 127.2376 127.2376 127.5336 129.4223 129.7861
   131.9170 131.9170 132.6491 134.1956 134.1956 135.6081 135.6081 138.9703
   141.5968 141.5968 141.6753 141.6753 141.9161 144.1695 144.4509 144.4509
   147.3060 149.3280 149.6455 149.6455 150.5188 150.5188 151.8707 153.4430
   153.4430 153.6675 154.1183 154.6819 154.6819 156.3066 161.7602 161.7602
   163.1553 163.1553 164.2835 166.5690 167.2828 167.2828 168.4080 168.4080
   168.9582 169.6149 170.3030 170.3030 170.5739 170.5739 170.9668 171.6154
   171.6154 173.3691 173.8830 173.8830 176.2146 178.5431 178.5431 178.5504
   179.6131 181.2891 183.0568 183.0568 186.5783 186.5783 187.2190 187.2190
   188.6223 191.2383 191.2383 191.5344 197.9672 198.6252 198.6252 201.3888
   202.4182 202.4182 203.4382 203.4382 203.8077 205.8536 206.5367 206.5367
   208.7781 210.4515 210.4515 211.0889 211.0889 211.7272 213.1426 213.1426
   214.1232 214.1232 215.2770 216.4890 216.4890 216.7079 217.8029 217.8029
   218.1576 218.8361 222.1884 222.1884 223.7990 223.7990 224.5680 225.4219
   225.4501 225.4501 225.9925 226.8525 227.0876 227.0876 227.3479 227.3479
   231.3500 231.3500 232.1494 232.5298 234.2032 238.6199 240.5793 240.5793
   242.1401 242.1401 242.3972 243.8603 243.8603 244.5750 245.1512 246.1176
   246.1176 246.9864 247.4477 247.5869 247.5869 248.1049 248.1049 249.0009
   249.0009 249.3862 250.7467 252.7025 252.7025 254.2119 254.2119 254.2442
   255.7614 255.7614 255.8408 260.5187 261.7498 262.2179 262.2179 262.6632
   262.6632 264.6045 264.6045 264.7708 264.7941 265.2414 265.2414 266.0162
   266.0162 266.4028 266.6244 266.6427 266.6427 268.1968 268.2581 268.2581
   268.4922 272.6431 272.6431 275.2668 275.2668 276.4605 276.6348 276.6348
   280.8256 283.2967 283.2967 283.7198 283.7198 284.1303 284.1326 284.3572
   284.3572 284.5558 285.1845 285.2871 285.2871 285.4698 285.4698 285.6341
   286.9233 288.5566 292.0460 292.0460 295.0705 295.4267 295.4267 296.6985
   297.1184 297.1184 299.1089 299.1089 299.5372 301.3904 302.5599 302.5599
   303.3357 303.6599 303.6599 304.8099 305.0074 305.0074 305.0434 306.1265
   306.1265 308.2357 308.2357 310.8616 311.5541 311.5541 312.6099 313.3351
   314.1004 314.1004 318.8099 318.8099 320.1238 320.5837 320.5837 321.7908
   321.7908 322.0346 323.3850 324.1155 324.1155 324.4322 324.4322 324.6416
   325.0043 325.0781 325.0781 325.1160 326.1541 326.1541 327.9481 328.6547
   328.6547 330.1886 331.4828 331.4828 331.5313 332.3655 332.3655 332.4772
   335.9960 339.2575 339.2575 341.1535 341.1535 341.8656 341.8656 342.1276
   342.7615 342.7615 342.8989 342.9030 345.3217 345.3217 345.4157 346.7803
   347.6093 347.6093 352.1333 352.1333 352.4467 355.3048 355.3048 355.5752
   356.9574 357.2581 357.2581 358.1098 358.2549 359.4278 359.6528 359.6528
   360.2219 360.2219 361.0531 361.0531 361.3286 361.3286 361.5644 361.7015
   361.7015 362.4257 363.8527 363.8527 363.8579 363.9025 363.9353 363.9353
   368.1709 368.1709 369.0125 369.0125 369.0708 370.0335 370.0335 370.1743
   370.2636 373.7446 373.7446 375.7595 377.0671 377.0671 378.3159 378.3159
   378.6799 378.6799 378.7904 379.4175 379.4737 379.4737 379.6605 381.3636
   381.8207 381.8207 382.0321 382.0321 382.0468 382.0958 386.3646 386.3646
   387.3496 391.7181 391.7181 392.3773 395.3815 395.3815 395.7166 395.7166
   395.7994 395.8097 395.8097 396.5034 397.2311 397.3335 397.9323 397.9323
   398.2107 398.2107 398.7488 398.7984 402.0963 402.0963 402.1888 402.4322
   402.8914 402.8914 402.9511 403.1218 403.1218 404.1802 404.1802 404.6952
   405.6755 406.1336 406.1336 407.4386 409.0493 409.0493 409.3571 409.3571
   409.4183 409.5419 409.6957 409.6957 410.5471 410.5471 410.5880 411.6704
   411.6704 412.8579 415.4990 416.5459 416.6002 416.6002 417.5997 418.0960
   418.0960 418.5322 418.5322 418.8024 418.8560 418.8560 419.8708 420.8065
   420.8065 421.1411 421.1546 421.1546 427.0769 427.0769 430.7279 431.1905
   431.1905 432.1683 433.9387 433.9387 434.4621 435.2645 436.0278 436.0278
   436.8153 436.8153 437.4744 438.1262 438.1262 438.4659 438.7778 438.7778
   439.2531 441.0292 441.0292 441.0718 443.4421 443.4421 443.7198 445.2728
   445.2728 445.3667 446.3282 446.3282 446.7695 446.7695 446.8775 447.1477
   448.0878 449.2166 449.2166 452.8356 452.8356 453.0058 454.1906 454.2176
   454.2176 454.4349 455.3660 455.3660 455.4003 455.4003 455.6283 458.0979
   458.3601 458.4321 458.4321 458.5794 458.5794 459.4098 459.7522 459.7522
   460.0701 460.1279 460.1279 460.9748 460.9748 461.7194 463.2936 463.2936
   463.3569 463.4920 465.7991 465.7991 467.6813 471.8228 472.8503 472.8503
   473.7243 473.7243 474.4986 475.0205 475.0205 475.5033 475.5839 475.5839
   475.7870 476.7969 476.7969 476.8137 477.1147 477.1147 477.1713 477.3254
   477.3254 477.4133 477.5788 477.5788 477.8319 479.2093 482.1028 482.1028
   483.4599 483.6328 483.6328 484.0649 486.2478 486.2478 486.6415 486.6415
   486.9822 487.0026 487.0026 488.8988 491.1898 491.1898 493.2480 495.1804
   495.1804 496.0261 496.8511 496.9431 496.9431 504.8750 504.8750 507.9568
   510.2591 510.2591 510.7919 510.7919 510.9728 511.0682 511.7846 511.7846
   512.2592 512.2592 512.3199 512.3199 512.3494 512.4535 512.6397 512.8793
   512.8793 513.2229 513.2229 513.2330 513.6552 513.6552 513.8074 513.8184
   515.7877 516.0059 516.2737 516.2737 516.5092 516.5092 517.3153 517.3153
   517.4915 517.8312 517.9369 517.9369 519.7861 519.7861 519.8456 524.7699
   524.7699 526.4645 527.4472 528.9445 528.9445 529.9823 529.9823 531.0434
   532.1562 532.1562 532.2650 532.6531 532.6531 532.7130 532.7652 532.7652
   532.9093 533.3286 533.3286 534.5199 534.5333 534.5333 534.5489 535.2994
   535.2994 535.4032 535.6295 535.6475 535.6475 537.0108 537.0108 537.2845
   538.4157 538.4157 539.1707 539.4484 539.4484 539.5086 540.3656 541.0752
   541.0752 545.4117 546.2742 546.2742 547.3682 547.6685 548.3503 548.3503
   549.6105 549.8323 549.8323 550.2788 550.2788 550.3104 551.2834 551.7035
   552.0444 552.1316 552.1316 552.2064 552.2064 552.4939 552.4939 552.5322
   552.6141 552.6141 552.6640 552.7395 552.7395 552.8875 553.1279 553.1279
   553.4249 553.5092 553.5092 553.8746 553.8746 554.0096 554.3456 554.7505
   554.8134 554.8134 554.9927 554.9927 555.0834 555.3406 555.3406 555.7251
   555.7251 559.2057 559.2057 559.6430 562.7571 562.7571 562.7837 568.5049
   568.8003 568.8003 569.3998 569.3998 569.8761 570.1296 570.1296 570.1718
   572.7078 572.7078 572.9901 572.9901 573.0631 573.2987 573.2987 573.3199
   573.5441 579.4502 580.3867 580.3867 583.2565 583.2565 584.2409 585.6353
   585.6353 586.9054 588.0586 588.0586 588.9424 588.9424 588.9644 589.1789
   589.1789 589.3162 589.6167 590.1040 590.1040 590.1968 590.2343 590.2343
   590.2931 590.2931 590.4156 590.5774 591.7756 591.7756 591.8947 591.9749
   591.9749 592.0026 594.3368 594.3368 594.3827 594.7547 594.7547 595.7561
   597.7346 598.7843 598.7843 599.7802 599.7802 599.9994 600.1258 600.1258
   600.1920 600.9602 600.9602 601.0129 601.9613 601.9613 602.2633 605.7083
   605.7083 606.5488 607.0948 608.5913 610.2500 610.4642 610.4642 610.5800
   610.5800 610.9512 610.9870 610.9870 612.4731 612.4731 612.5801 613.9207
   613.9207 614.3172 614.4632 614.4632 614.4844 615.5628 615.5628 616.4580
   616.4580 616.4768 616.5258 617.3706 617.3706 617.9064 618.1813 618.5814
   618.5814 620.3362 626.6534 626.6534 627.1306 627.3387 627.3387 627.4225
   627.4318 627.4318 627.6334 629.0942 629.0942 630.0737 630.0737 630.1338
   630.3682 630.3682 630.4876 631.2262 631.2262 631.2720 632.6803 633.1234
   633.1234 634.6794 634.6794 635.1207 635.9084 635.9084 636.1161 637.3871
   637.3871 637.5965 638.3496 638.6026 638.6026 639.9475 639.9475 640.1175
   641.1983 641.1983 641.6980 644.2434 644.2434 645.2086 647.7168 647.7168
   647.7975 648.4621 648.4621 648.6876 648.8018 648.8018 648.9359 649.0506
   649.0506 649.0854 649.9501 649.9501 650.0284 650.1316 650.1367 650.1367
   650.9127 650.9127 650.9986 651.7168 651.7168 651.7673 658.0314 659.8931
   659.8931 660.6668 663.5276 663.5276 664.3181 664.3181 664.9908 665.3326
   665.4066 665.4321 665.4321 665.7136 665.7136 666.3810 666.9484 666.9484
   668.5592 668.5592 668.6745 668.6745 668.6830 669.1838 669.1838 670.2261
   670.3410 671.0125 671.0125 671.0573 671.0573 671.3683 671.3886 671.6236
   671.6236 671.7616 675.4724 675.4724 675.5262 678.0246 678.0246 678.0683
   682.1207 683.2761 683.2761 684.4057 684.4057 684.4365 685.1728 685.1728
   685.4243 685.7607 685.7607 686.1036 686.3929 686.3929 686.4921 686.6756
   686.6756 686.6911 686.9940 686.9980 686.9980 687.4019 688.4392 688.7341
   688.7341 690.2544 690.2544 690.4331 691.9780 691.9780 692.2730 692.5805
   692.5899 692.5899 693.2652 693.2652 694.1197 694.3323 694.3323 694.5368
   699.3307 699.5154 699.5154 700.1856 700.3298 700.3298 700.6775 700.6775
   700.7224 701.1295 701.2981 701.2981 702.6428 702.6754 702.6754 702.7013
   702.7486 702.7486 702.8469 704.3273 704.3273 704.5809 705.3544 705.3544
   705.4242 706.0554 706.0554 706.1140 707.8083 707.8083 707.8170 708.3195
   708.3195 708.3607 709.1045 709.1045 713.5810 713.6438 713.6438 714.2226
   714.2226 714.2391 714.7171 714.7171 715.0068 715.1659 715.1659 715.1864
   717.5651 717.5651 717.6056 721.1727 721.1727 721.6820 722.2594 722.2594
   722.8735 722.8741 722.9106 722.9106 723.6891 723.6891 724.2454 725.0385
   725.2768 725.2768 725.5556 725.5556 725.6128 726.2069 726.2069 726.3739
   726.3739 726.4034 726.4304 727.4673 727.5189 727.5189 727.5811 727.5811
   727.6246 736.4724 738.7614 738.7614 739.2427 739.4895 739.4895 739.5904
   739.6759 739.6759 739.7130 739.8800 739.8800 740.2521 742.5283 742.5283
   743.1508 743.1508 743.3090 743.6765 743.6765 744.3470 744.4927 744.4927
   744.5490 745.1881 745.1881 745.2116 745.2402 745.2402 745.5104 746.0579
   746.0712 746.0712 746.1872 746.1872 746.1992 746.2016 746.2038 746.2038
   747.7906 747.7906 749.5203 751.5513 751.5513 751.8709 751.9321 752.1179
   752.1179 752.2099 752.2099 752.2357 752.4157 752.4157 752.4843 753.6041
   753.6041 753.6996 754.0884 754.0884 754.1218 756.4641 756.4641 756.7672
   761.3752 761.5626 761.5626 762.6002 762.7703 762.7703 762.8582 763.8952
   763.8952 764.5624 764.5624 764.6662 764.6792 764.6792 764.7317 767.3052
   767.4150 767.4150 770.4127 770.4127 770.6155 771.0983 771.0983 771.1416
   775.5851 776.0263 776.0263 777.1543 777.1543 777.6405 778.0703 778.0703
   778.1444 778.9761 779.5717 779.5717 779.7267 780.0940 780.0940 780.3247
   780.3247 780.6179 780.8456 780.8784 780.8784 781.3413 781.3413 781.4257
   781.5203 781.7616 781.7616 782.5734 782.5734 782.9074 784.1572 784.3987
   784.5788 784.5788 785.0478 785.0478 785.2557 785.3445 785.3445 785.3960
   785.5953 786.5709 786.5709 786.6132 790.8121 790.8121 790.9530 790.9530
   790.9693 790.9838 792.4227 792.4227 792.4389 792.4848 792.4848 792.5056
   793.0232 793.0232 793.2258 793.2258 798.1610 798.1968 798.1968 798.6604
   798.6604 799.3289 799.6031 799.6031 799.6869 799.8468 799.8468 800.0410
   802.1956 802.2702 802.2702 802.4580 802.4580 802.5694 802.7374 802.7374
   802.9158 803.0905 803.2343 803.2343 803.4030 803.4030 803.4496 803.7124
   803.7124 803.7460 803.8183 804.0751 804.0751 805.5575 805.5575 805.7234
   808.8886 808.8886 809.3728 816.3477 816.3477 816.5315 817.6828 817.9551
   817.9551 819.0768 819.0784 819.0784 819.2966 819.5951 819.5951 821.9829
   821.9829 822.0068 822.3915 822.3915 822.4283 822.4283 822.4298 822.4547
   822.8524 822.8524 822.9099 822.9099 822.9161 822.9247 824.3164 824.3164
   824.5188 824.5188 824.5346 824.6507 825.7417 825.7417 825.9774 826.3431
   826.3431 826.4909 826.6900 826.6999 826.6999 827.7744 827.7744 827.8132
   830.4299 830.4299 830.4686 831.6727 831.6727 831.6944 835.0146 835.0146
   835.4354 836.4721 836.5286 836.5286 837.9471 837.9582 837.9582 839.1824
   839.6392 839.6392 840.3049 840.3049 840.5953 840.6106 840.6114 840.6114
   841.0201 841.0323 841.0323 841.2476 841.2476 841.2632 842.4325 842.4325
   842.4638 844.4787 844.4787 844.4877 845.5691 847.1661 847.1661 848.0212
   848.7035 848.7035 849.7409 849.7409 850.3509 855.1135 855.1135 855.2587
   856.5466 856.5466 856.5742 856.9648 856.9648 857.0499 857.5889 857.5889
   857.6805 858.1937 858.2237 858.2237 858.2987 858.2987 858.4146 858.7453
   859.0767 859.3118 859.3118 859.6724 859.8515 859.8515 860.1325 860.1325
   860.1512 860.3574 860.3574 860.4932 860.8820 860.8820 861.5248 862.2713
   862.4254 862.4254 866.9407 866.9407 867.2168 867.4940 867.8511 867.8511
   870.7115 870.7115 870.8249 873.0721 876.4839 876.5254 876.5254 877.1142
   877.1142 877.1992 877.4600 877.4600 877.4926 877.6168 877.6168 877.6990
   877.9719 878.0166 878.0166 878.2791 878.2791 878.4016 878.8061 878.8061
   878.8458 881.8372 881.8372 881.9534 881.9534 881.9887 882.5095 882.5095
   882.5327 892.0782 892.0782 892.3015 893.9788 893.9788 894.0890 895.1277
   895.3011 895.3011 895.4657 895.6420 895.6420 896.0131 896.0131 896.0986
   896.0986 896.1076 896.1284 896.1909 896.1909 896.2700 896.2700 896.3362
   896.4246 898.4313 898.4313 898.4640 898.6290 898.6290 898.6618 898.8365
   898.8690 898.8690 899.0642 899.0642 899.1149 900.9972 900.9972 901.1739
   902.1160 902.6669 902.8231 902.8231 903.1986 903.1986 905.4723 905.4723
   905.4821 908.0822 908.0822 908.1036 908.1216 908.1216 908.2704 908.2704
   908.5354 908.5552 909.4410 909.4410 909.4652 910.2955 914.0753 914.0753
   914.2841 914.5262 914.5262 914.5587 914.6588 914.6588 915.0017 915.1305
   915.1305 915.3766 915.4165 915.4165 917.8139 918.0799 918.0799 918.6347
   918.6347 918.7240 918.7240 918.7552 918.8065 918.8065 918.8296 918.9367
   920.1416 920.1416 920.3255 920.3255 920.3501 920.4335 920.4335 920.4953
   922.1915 925.1079 925.1079 925.1218 930.7630 930.7630 930.8308 932.1880
   932.1880 932.3137 933.1270 933.1595 933.1595 933.9057 933.9057 934.0164
   934.7384 934.7384 934.7527 935.1826 935.1826 935.2374 935.5498 935.5547
   935.5547 935.9518 935.9518 935.9972 936.3440 936.3440 936.3522 936.4477
   936.7705 936.7705 936.8128 936.8925 936.8925 936.9133 936.9411 936.9662
   936.9662 937.1327 937.1327 937.4827 937.4827 937.5000 937.5856 937.5856
   937.6429 939.7124 939.7124 939.7383 939.7487 939.7487 939.7768 941.8901
   941.8901 941.9167 942.0464 942.0464 942.0978 943.8470 943.8470 943.8693
   943.9511 943.9511 943.9991 943.9991 944.0027 944.0147 946.5371 946.5627
   946.5627 952.5306 953.0209 953.0209 953.0733 953.1420 953.1420 953.2919
   954.0943 954.0943 954.1910 955.3292 955.3292 955.3441 955.3615 955.3615
   955.3773 956.9309 956.9528 956.9528 957.0249 957.0249 957.0440 957.8505
   957.8573 957.8573 965.9933 967.2530 967.2530 967.3097 967.4622 967.4622
   967.5518 970.0721 970.0721 970.1671 970.3720 970.3720 970.3911 972.4024
   972.4024 972.4814 972.4820 972.4820 972.5108 972.7067 972.7067 972.7321
   973.0177 973.0177 973.0308 975.1515 975.1515 975.1726 975.2520 975.2520
   975.9927 975.9927 975.9938 976.0147 976.0147 976.0454 981.2313 981.2364
   981.2364 981.8493 981.8493 981.9371 983.8769 983.9416 983.9416 984.1420
   984.1420 984.1941 984.1941 984.1950 984.1991 984.2152 984.2152 984.2365
   990.2780 990.5503 990.5503 990.6144 990.6144 990.8504 991.5745 991.5745
   991.6066 991.6611 991.6921 991.6921 991.7709 991.9872 991.9872 992.0236
   992.1422 992.1422 992.3682 992.3682 992.4911 992.7005 992.7061 992.7061
   994.4134 994.4220 994.4220 994.4544 994.4544 994.4746 994.9349 994.9349
   994.9511 995.2579 995.2653 995.2653 995.7119 995.7119 995.7401 997.0129
   997.0129 997.3008 997.6400 997.8450 997.8450 999.6170 999.61701000.0416
  1000.82991000.82991000.89351001.34021001.34021001.35621003.38961003.5653
  1003.56531003.58121008.25531008.25531009.45961009.45961009.49421010.7648
  1010.76481010.78471010.92211010.92211011.02411011.69001011.69001011.7631
  1012.48221012.50561012.50561012.53511012.59651012.59651013.77461013.7746
  1014.37491014.41181014.41181014.81411014.85561014.85561015.03031015.0303
  1015.07081015.07081015.08491015.11121015.44481015.45351015.45351015.6815
  1015.73321015.73321015.74641016.08411016.08411016.10131018.00521018.0052
  1018.06831018.06831018.07711018.08901018.65401018.81751018.81751019.5971
  1019.59711019.62261020.54131020.73841020.73841020.84911020.84911020.8759
  1021.11371021.11371021.12111021.12111021.12511021.14191023.66661023.6666
  1023.68921024.15481024.15481024.27561029.28681030.36541030.36541030.8089
  1031.43101031.43101031.55851031.55851031.60881031.92381031.92381031.9332
  1032.01941032.01941032.02181032.35361032.35361032.37631032.97491032.9749
  1032.99201032.99201033.00241033.01031033.12631033.12631033.82981033.8347
  1033.83471033.94371033.94681033.94681033.95621048.19381048.19381048.2388
  1048.73671048.73671048.75191049.14321049.14321049.16681049.23811049.2499
  1049.24991050.23961050.23961050.33891050.34051050.38751050.38751051.5666
  1051.56661051.60431052.15891052.15891052.16981052.20501052.20501052.2217
  1052.29991052.29991052.31911052.31971052.32061052.32061056.34761056.3476
  1056.36371056.58641056.58641056.60111061.57151061.57151061.58931061.8597
  1061.85971061.89951064.22501064.37161068.37291068.43181068.43181068.8827
  1068.88271068.92131069.01361069.03301069.03301069.71991069.71991069.8552
  1071.48721071.50011071.50011072.09111072.09111072.13521073.46851073.4685
  1073.60541073.60541074.47891074.50231074.50231074.99451074.99451075.0596
  1075.86061075.86061075.87001077.87061077.96591077.96591078.02791078.0279
  1078.04321078.72311078.72311078.73351082.95631082.95631083.01901083.3381
  1083.33811083.37751084.98761085.28931085.28931086.33821086.33821086.3611
  1087.24401087.24401087.26841087.57921087.57921087.61721088.62621088.6262
  1088.79211089.39801089.44481089.44481089.71451089.71451089.71661089.7344
  1089.73441089.74641090.17491090.32911090.32911090.35831090.36011090.3601
  1090.40111090.40111090.53451090.98771090.98771091.34861091.90451092.0772
  1092.07721093.00801093.00801093.01201093.02191093.02191093.03271093.6656
  1093.66561093.78891094.33321094.33321094.36241094.86011094.86011094.8811
  1100.21491100.21491100.22431100.33401100.33401100.34541106.22701106.2270
  1106.23611106.56951106.56951106.62621107.06671107.06671107.08091107.9815
  1108.07241108.07241109.98811109.99611109.99611110.16151110.16151110.1718
  1110.82261110.82261110.83031112.47151112.47151112.54621122.95671122.9567
  1122.97101123.04831123.04831123.10381123.27931123.43151123.46061123.4606

          k = 0.5000-0.5000 0.5000 (  5444 PWs)   bands (ev):

   -45.3485 -18.2089 -17.2781 -17.2781 -16.4369  -0.0384   1.3493   1.3493
    12.7041  14.4739  22.2455  22.2455  25.1878  25.1878  26.1114  29.4086
    33.9530  33.9530  35.0453  35.0453  43.4452  44.0233  47.7220  47.7220
    49.3177  49.3177  51.5443  53.9993  55.3524  58.0504  58.0504  59.0177
    59.0177  60.3418  61.0331  61.5837  65.9357  65.9357  68.3001  68.3001
    73.9948  74.0317  76.1837  76.1837  77.0337  77.0337  79.0735  83.3720
    86.0482  86.0482  86.3631  86.3631  90.8385  91.7802  93.5734  93.5734
    95.4982  95.4982  99.4977  99.4977  99.7830  99.7830 100.5728 101.9759
   102.7128 102.7128 102.8816 102.8816 104.3211 104.4168 109.2792 109.2792
   110.2521 111.7000 113.2443 113.2443 118.4143 118.4143 118.4767 118.4767
   119.8712 121.6532 124.0408 127.7221 127.7221 127.7449 127.7449 128.4126
   129.8867 131.1561 133.6481 134.4327 134.4327 134.7554 135.2015 135.2015
   141.1730 141.1730 141.5676 141.6519 141.6519 143.2643 146.6001 146.6001
   146.7007 146.7007 146.8425 147.0033 152.5270 153.3587 153.3587 153.6266
   153.6266 153.9375 158.0948 158.0948 158.8935 158.8935 159.7758 159.9735
   160.1508 160.2151 165.9412 165.9412 167.0551 167.0551 170.9829 170.9829
   171.3469 171.3469 172.2507 172.8633 173.6934 173.7858 173.8693 173.8693
   173.9522 173.9522 174.9020 176.9453 180.6138 180.6138 180.8204 180.8204
   183.0498 183.7040 188.4985 188.4985 188.5119 188.5119 189.4555 189.4555
   189.5091 189.5091 190.5445 190.5544 193.3298 193.3298 194.2190 194.2190
   198.9985 199.0011 201.6962 201.6962 202.1596 202.1596 204.0374 204.0374
   204.1161 204.2519 204.3617 204.3617 204.9797 209.3054 212.7916 212.7916
   213.6717 213.6717 215.2118 215.7483 221.1334 221.9729 221.9729 222.0956
   222.5420 222.5420 225.4997 226.3559 227.2426 227.2426 227.5457 227.5457
   227.6471 228.0939 228.0939 228.1189 228.1189 228.4128 228.8209 231.6491
   231.6491 231.6770 231.6770 231.9001 231.9345 232.5008 232.5008 232.5275
   232.5275 232.6034 241.3447 241.3447 241.7081 241.7081 243.0484 243.1610
   243.6011 244.5252 246.0949 246.0949 246.1460 246.1460 246.9732 246.9732
   247.2179 247.2515 247.2515 247.5823 250.8903 250.8903 251.8106 251.8106
   254.3079 255.2934 256.7078 257.1426 259.5420 259.5420 259.6825 260.0083
   260.0083 260.3264 264.8167 265.9904 265.9904 266.5792 266.5792 268.0882
   272.5242 272.5242 272.7824 272.7824 272.9539 274.2022 274.2249 274.2249
   274.3208 274.3208 274.3248 274.4190 275.3674 275.3674 275.5125 275.6443
   275.6443 276.0582 277.5830 280.2274 283.1500 283.1500 283.3699 283.3699
   289.1006 289.1006 289.7841 291.0303 291.0303 291.3494 294.6557 294.6557
   296.0137 296.0137 297.9693 299.9216 301.2360 301.2360 301.3433 301.3433
   302.7283 302.9256 302.9256 302.9447 302.9885 302.9885 303.0974 303.3740
   303.3740 303.3858 303.3858 303.9938 303.9951 304.6687 310.3690 310.3690
   311.2525 311.4496 311.4496 311.4621 314.4946 315.4125 315.6114 315.6544
   315.6544 315.7461 315.7461 315.7969 315.7969 316.0793 316.0793 316.3481
   317.6559 317.6559 317.6816 317.7828 317.8122 317.8122 319.7227 319.7227
   319.7292 319.7292 321.1005 321.1011 322.0306 323.7171 331.1146 331.1146
   332.1855 332.1855 332.5209 332.5807 332.5807 332.6711 332.6928 332.6928
   336.9858 336.9858 337.8024 339.9405 339.9405 340.0149 341.3414 341.3414
   341.6933 341.6933 343.9110 344.9433 345.6169 345.6169 345.7550 345.7550
   346.3391 346.3709 346.9839 346.9839 347.0316 347.0316 347.2502 347.3646
   350.1853 350.1853 352.7652 352.7652 356.1828 356.1828 356.5233 356.5233
   356.5439 356.5926 357.9748 358.7708 359.2754 359.8431 359.8431 360.1714
   360.1714 360.6670 360.6670 360.7294 360.7986 360.7986 360.8797 360.8864
   370.9447 370.9447 371.6204 372.7655 372.7655 373.2038 373.7411 373.7411
   373.8173 373.8173 374.6230 374.6552 374.6552 375.1273 375.1273 375.1546
   375.2126 375.2498 376.8739 381.2042 382.5836 382.5836 385.3922 385.3922
   385.9751 386.5231 386.7250 386.8336 386.8336 387.0195 387.4388 387.4388
   387.5928 387.9797 388.3276 388.3276 388.5029 388.5029 389.9662 389.9662
   390.0202 390.0202 392.6428 392.6428 393.0593 393.0593 395.1564 397.8910
   399.9078 399.9078 400.1075 400.1075 400.1705 400.3586 401.2028 401.2028
   401.2642 401.2642 402.3817 402.9280 405.0428 405.0818 405.0818 405.2611
   405.2611 405.3586 406.0689 406.0689 406.0823 406.1249 406.1249 406.2439
   411.2887 413.7229 413.7229 414.2907 414.2907 415.0497 417.8361 417.8361
   418.1058 418.1058 418.4421 418.4455 422.3563 425.4876 425.4876 427.7116
   427.9236 427.9236 429.8108 429.8108 429.9932 430.1080 430.1080 430.5044
   431.4982 431.4982 431.5063 431.5063 431.5758 431.6399 432.0385 432.2939
   433.1430 433.1430 433.1665 433.1665 433.2846 433.3437 436.4991 436.4991
   437.1113 439.0072 439.0880 439.0880 439.7863 439.7863 440.3082 440.3082
   441.3690 441.3690 442.0192 442.2723 442.2723 442.9031 443.6043 444.0610
   446.0449 446.3384 446.4942 446.6847 446.6847 446.8049 446.8049 446.8586
   446.8586 446.8744 446.8744 446.9773 447.2816 447.2816 447.2919 447.2919
   447.6810 447.7006 448.2994 448.2994 448.4270 448.4270 448.5818 448.7527
   458.8884 458.8884 459.0128 459.3848 459.3848 459.6297 460.7620 460.7620
   461.0785 461.0785 461.2055 461.2055 461.2198 461.2707 461.2707 461.3408
   461.4292 461.7721 463.3088 463.3088 463.3244 463.3244 463.3393 463.3413
   472.5386 472.5386 472.7740 474.0701 474.0701 474.4781 474.5782 474.5782
   474.5914 474.5914 474.8900 475.0562 478.9400 482.7387 484.1904 484.1904
   486.1156 486.1156 486.6595 486.8008 487.1315 487.1315 487.1956 487.1956
   487.4778 487.4778 487.8909 487.8909 487.9967 488.0114 488.0430 488.0430
   488.5477 488.5477 489.1713 489.5204 491.8600 491.8600 491.8605 491.8605
   493.5059 493.5064 498.7808 498.7808 499.2680 500.7738 501.9910 501.9910
   502.1694 502.1694 502.2040 502.2040 502.7330 502.8765 505.8909 505.8909
   506.6393 506.6393 506.6482 506.6482 506.8952 506.8968 508.7618 508.7618
   509.3529 511.2032 512.6811 512.7344 513.4179 513.4179 513.8139 514.0408
   514.0408 514.3894 514.4941 514.4941 514.5055 514.5055 515.9724 516.4857
   520.4007 520.4007 520.4093 520.4093 526.7985 526.7985 527.4589 528.6862
   528.6862 529.5801 529.5801 529.5967 529.5967 529.6174 529.8702 530.1346
   530.7936 530.7936 531.0805 531.0805 531.4352 531.5899 531.5899 531.7162
   531.7162 531.7698 531.9831 532.8509 532.9249 532.9439 533.0124 533.0124
   533.0809 533.1274 533.1274 533.2179 533.2179 533.4393 533.4393 533.6263
   533.6460 533.6528 533.6696 533.6696 533.8998 533.8998 534.6887 534.6887
   534.7287 534.7287 534.9582 535.0129 542.8719 542.8719 544.2096 544.2096
   544.4219 544.5449 545.0662 545.0662 545.3807 545.4486 545.4486 545.5973
   548.1989 548.1989 548.2588 548.2678 548.2678 548.4011 554.2773 555.4442
   555.4442 556.1251 556.1251 556.7753 559.7454 559.7454 560.5865 560.5865
   560.7096 560.8727 560.9101 561.1809 561.1809 561.1870 561.2162 561.2162
   561.6666 561.6666 561.7653 561.7653 561.8506 561.9434 561.9999 561.9999
   562.1358 562.1358 562.2618 562.2618 562.3254 562.3254 562.3551 562.3594
   562.4277 562.6808 572.0713 573.2633 573.2633 574.0763 574.0763 574.2092
   574.2376 574.6958 575.0978 575.0978 575.1800 575.1800 576.1977 576.1977
   576.2979 576.2979 576.3001 576.3001 576.3112 576.3112 576.3357 576.3388
   576.4295 576.7595 581.5986 582.6438 586.2901 586.2901 587.1411 587.1411
   587.4379 587.5851 591.6952 591.6952 591.7692 591.7692 592.5126 592.5126
   592.5304 592.5386 592.5386 592.6138 596.8661 596.8661 598.4374 599.4919
   599.4919 599.6744 600.5950 600.6325 600.6325 600.7922 600.7922 601.1580
   602.3395 602.4962 602.4991 602.4991 602.6757 602.6757 602.6858 602.6858
   602.8612 602.8612 602.8670 602.9599 604.4174 604.4174 604.4536 604.4536
   604.7063 604.8535 606.5042 606.5042 606.5227 606.5766 606.5766 606.6552
   610.3637 610.3637 611.0266 611.0266 611.2063 611.5892 617.3941 617.3941
   617.6413 617.6413 617.6831 617.6983 619.0257 619.0257 619.1784 619.1784
   619.2057 619.2556 619.7856 619.7856 619.8307 619.8307 619.9584 619.9643
   621.8998 621.8998 621.9257 621.9257 621.9258 621.9863 630.6874 631.2135
   631.2513 631.2513 631.9562 631.9562 632.0345 632.0345 632.3682 632.4254
   632.4254 632.5632 632.7237 632.7237 632.7875 632.7875 632.7993 632.9414
   635.6474 635.6474 635.7417 635.7417 636.1528 636.1541 637.8692 637.8692
   638.0422 638.9514 638.9514 639.3353 645.1173 645.5367 645.5367 645.7481
   646.2666 646.2666 646.6257 646.7393 646.7492 646.7910 646.7910 646.8319
   646.8319 646.9039 646.9744 647.0540 647.0540 647.0680 647.0680 647.8254
   656.3044 656.3044 656.6200 657.3393 657.3393 657.6222 658.5049 658.5895
   658.5895 658.7249 658.7712 658.7712 659.4061 659.4061 659.4437 659.4437
   659.8340 659.8951 659.8951 659.9172 659.9172 659.9383 659.9730 660.2123
   660.2167 660.2441 660.2441 660.2549 660.2549 661.3001 662.8141 662.8182
   663.0960 663.0960 663.1132 663.1132 664.1576 664.1576 664.1656 664.2185
   664.2185 664.3021 664.4901 664.4901 664.5014 664.5014 664.6693 664.6829
   676.6004 676.6777 676.6777 676.8485 676.8564 676.8564 677.3167 677.3167
   677.3573 677.3573 677.4622 677.4638 677.6942 677.7768 677.7904 677.7904
   677.7949 677.7949 683.3448 683.3448 685.0945 685.0945 685.1612 685.6382
   689.4478 689.4478 689.9145 689.9193 689.9193 690.1566 690.2685 690.2685
   690.3155 690.3155 690.3739 690.5911 690.8051 690.8413 690.8413 690.9047
   690.9047 690.9440 691.1187 691.1915 691.1915 691.2330 691.2330 691.2907
   696.1239 697.4920 700.2004 700.2004 700.9426 701.0426 701.0426 701.4834
   701.5217 701.5639 701.5691 701.5691 701.5994 701.5994 701.7566 702.0904
   702.0904 702.1522 702.1522 702.5129 702.5129 702.5167 702.5167 703.1437
   705.7398 705.7398 705.7498 705.7498 705.8059 705.8059 705.8169 705.8210
   705.8845 705.8845 705.8906 705.9174 707.3269 707.3269 707.3305 707.3305
   707.7185 707.7196 707.8270 707.8270 707.8273 707.8273 709.4071 709.4075
   718.9168 718.9168 719.4053 719.4184 719.4184 719.4493 719.9644 719.9644
   720.1512 720.1512 720.2096 720.2411 729.0988 729.0988 729.7212 730.4970
   730.6234 730.6234 730.8263 730.8263 730.8591 730.8797 730.8797 730.9258
   731.8625 731.8625 731.8787 731.8787 731.9125 732.1164 732.1164 732.2168
   732.2320 732.2320 732.2679 732.3660 732.4594 732.4676 732.4676 732.6339
   732.6339 732.6757 733.7364 733.7364 733.7461 733.7461 733.7729 734.2800
   741.1988 741.4058 746.0791 746.0791 746.4334 746.6842 746.6842 746.6919
   746.8853 746.8853 746.9099 746.9099 746.9630 747.2021 747.2838 747.2838
   747.4136 747.4136 747.4785 747.4909 748.1755 748.2324 748.2324 748.3075
   748.3075 748.3107 748.5999 748.6521 748.6521 748.7275 748.7275 748.7971
   748.8500 748.8500 748.9353 748.9477 748.9477 749.2627 749.4086 749.4086
   749.4196 749.4494 749.4494 749.5098 750.4603 750.4603 750.4640 750.4640
   751.4169 751.4169 751.4185 751.4185 751.4475 751.4511 758.6910 758.6910
   758.9633 758.9633 758.9855 759.1388 764.4128 764.4128 764.4391 764.4391
   764.4720 764.4840 775.7182 775.7182 775.8730 776.3752 776.3752 776.4135
   776.4800 776.4800 776.5065 776.5165 776.5165 776.5220 777.1624 777.1702
   777.1702 777.1751 777.1751 777.2104 777.2104 777.2320 777.2661 777.2661
   777.3066 777.5920 782.1119 782.1119 782.6523 782.6589 782.6589 782.7264
   787.8460 787.8460 788.1535 788.4690 788.4690 788.7669 788.8785 788.8785
   789.1232 789.1232 789.2250 789.3725 790.7856 790.8792 790.8792 791.1489
   791.1489 791.2264 791.4840 791.4840 791.5012 791.6286 791.6286 791.7186
   800.6859 801.8354 801.9427 801.9427 802.1222 802.1222 803.0080 803.0080
   803.1146 803.1146 803.1294 803.1883 804.1169 804.5619 805.1647 805.1647
   805.1865 805.1865 806.7006 806.7006 806.7556 806.7556 806.7729 806.7848
   806.8991 806.9074 806.9074 806.9427 806.9427 806.9933 807.1190 807.1190
   807.1275 807.1275 807.1524 807.1690 812.0825 812.0825 812.1212 812.2950
   812.2950 812.4939 816.5992 816.5992 816.8544 816.8544 816.8795 816.8933
   817.7105 818.0434 818.6227 818.6227 818.6336 818.6336 818.7222 819.0166
   819.0166 819.0582 819.0636 819.0636 820.9888 820.9888 820.9915 820.9915
   821.3181 821.3181 821.3189 821.3189 821.3651 821.3654 821.5576 821.5586
   821.7707 821.7934 821.8072 821.8072 821.8265 821.8265 822.6428 822.6481
   822.6481 822.6906 822.6906 822.7323 828.4394 828.4864 829.6348 829.6348
   829.7123 829.7593 829.7597 829.7597 831.0314 831.0314 831.1726 831.1726
   831.2152 831.5067 833.3378 833.3378 833.3656 833.3656 833.4980 833.5261
   835.1573 835.1890 835.4168 835.4168 835.4187 835.4187 836.9177 836.9177
   836.9184 836.9184 837.0502 837.0502 837.0575 837.0721 837.0721 837.1070
   837.4708 837.4708 837.4718 837.4718 837.6064 837.6100 845.8638 845.8638
   846.0362 846.0371 846.0371 846.0862 847.8708 847.8708 847.9002 847.9386
   847.9386 847.9461 849.5704 849.5704 849.6069 849.6069 849.6458 849.6774
   849.6875 849.6909 849.6909 849.7005 849.7005 849.7699 851.0805 851.0980
   851.0980 851.1655 851.1655 851.2199 859.3767 859.8273 860.3245 860.3245
   860.4050 860.4050 860.9884 860.9884 860.9920 860.9920 861.0538 861.0580
   861.2008 861.3268 861.3268 861.3438 861.3438 861.6292 865.6289 865.6289
   865.6306 865.6306 865.9885 865.9887 873.9129 873.9129 874.2425 874.2687
   874.2687 874.3976 875.4573 875.4573 875.4628 875.4628 875.5647 875.6533
   876.9521 876.9725 876.9896 876.9896 877.0003 877.0003 877.0456 877.0752
   877.0752 877.0754 877.0754 877.0856 877.0959 877.2209 877.2209 877.2311
   877.2311 877.2705 877.3429 877.5006 877.5797 877.5797 877.6114 877.6114
   877.6642 877.6642 877.7207 877.7207 877.7913 877.8778 878.0494 878.2713
   878.2713 878.2742 878.2742 878.3462 878.7854 878.7854 878.7861 878.7861
   879.0728 879.0731 890.7117 890.7117 890.7526 890.7736 890.7736 890.8242
   891.5172 891.5335 892.2681 892.2681 892.2704 892.2704 895.3029 895.3029
   895.3129 895.3129 895.3192 895.3425 903.3807 903.3807 903.4283 903.4608
   903.4683 903.4683 905.1686 905.1925 906.1172 906.1172 906.1318 906.1661
   906.1661 906.2910 906.7301 906.7301 906.7354 906.7354 906.7621 906.7631
   908.8852 908.8852 908.8874 908.8874 908.9187 908.9243 914.8071 914.8071
   915.1051 915.6449 915.6449 916.3163 916.3669 916.8471 916.8471 917.2389
   917.2389 917.2887 917.3063 917.3063 917.4560 917.4560 917.6363 917.6677
   920.5177 920.5396 920.5396 920.5677 920.5677 920.5849 920.6689 920.6689
   920.6807 920.7043 920.7043 920.7266 923.1590 923.1642 923.1642 923.2032
   923.2032 923.2375 932.2543 932.3377 932.3377 932.3925 932.3925 932.4092
   933.2475 933.2475 933.2649 933.2649 933.2799 933.2800 934.0634 934.0634
   934.1550 934.2362 934.2362 934.3719 935.4090 935.4135 935.4135 935.4302
   935.4302 935.4571 936.0073 936.0073 936.0468 936.0468 936.0677 936.1300
   940.7798 940.7798 940.8669 940.8669 940.8789 941.1952 945.9262 945.9678
   946.5762 946.5762 946.5793 946.5793 946.7612 946.8093 946.8093 946.8564
   946.8564 947.0007 947.8486 947.8486 947.8778 947.8778 947.8780 947.8986
   949.1858 949.1858 949.2104 949.2104 949.2148 949.3124 949.5252 949.5472
   949.5472 949.5697 949.5697 949.5766 950.7122 950.7122 950.7136 950.7187
   950.7195 950.7195 950.7729 950.7729 950.7847 950.7847 950.7874 950.8555
   952.0661 952.0661 952.0664 952.0664 952.3504 952.3508 956.2909 956.3230
   961.0202 961.0202 961.0314 961.0314 961.4442 961.4792 961.5449 961.5449
   961.5513 961.5513 963.3179 963.3179 963.3537 963.4632 963.4632 963.5360
   963.7152 963.7767 963.7767 963.8536 963.8536 963.8835 963.9197 963.9197
   963.9255 963.9260 963.9260 964.0367 964.7852 964.7852 964.7912 964.7912
   964.8030 964.8184 964.9565 964.9565 964.9634 964.9828 964.9828 965.0442
   965.4662 965.4662 965.4740 965.4740 965.4937 965.4939 966.5480 966.5480
   966.5481 966.5481 968.3463 968.3463 975.9706 975.9768 976.0149 976.0149
   976.0202 976.0202 979.9354 979.9525 979.9662 979.9662 979.9712 979.9712
   981.0953 981.0953 981.0954 981.0954 981.1202 981.1203 987.6832 987.6832
   987.7083 987.7083 987.7680 987.8086 992.6456 992.6456 992.6560 992.6840
   992.6840 992.7192 992.8606 992.8606 992.8623 992.8764 992.8764 992.9029
   993.8808 993.8808 993.8925 993.8984 993.8984 993.91281003.37401003.3740
[...]
   159.0923 159.7470 160.1798 160.9003 162.2156 162.2914 164.8191 165.0251
   165.8095 167.0550 168.9171 169.3291 169.5445 170.1269 170.9823 171.7955
   172.0001 172.4312 172.5992 174.2613 174.3123 175.7366 176.0795 176.5352
   176.9907 178.1406 181.5710 181.7544 182.6267 184.2727 184.6667 186.1084
   186.9590 187.6147 188.3498 188.4937 188.8086 189.6821 190.4051 190.5519
   191.3326 191.6646 192.0503 192.6669 193.5575 194.9189 195.3947 195.4803
   196.0200 198.3334 200.5979 201.0203 201.0246 201.3212 201.3424 202.5831
   203.1206 204.5232 204.7217 204.8835 205.8804 209.7188 209.8069 210.1718
   210.8967 212.0847 212.6213 212.6214 213.9942 214.1832 215.8944 216.0679
   217.4238 217.6653 217.7665 218.0216 218.4878 218.5719 221.7201 222.5238
   222.5286 223.0704 223.3436 223.5811 223.9491 223.9600 224.1456 224.6769
   224.8339 225.7644 226.1213 229.3403 229.5785 233.1483 236.1242 236.4390
   237.3053 239.5170 240.3511 240.8110 241.7935 242.2797 243.0189 243.0435
   243.3148 244.8121 244.9062 246.3069 248.0863 249.1848 251.0420 252.7007
   253.2331 253.8150 254.0443 254.5809 254.6099 254.8655 255.1251 255.1677
   255.7397 256.1666 256.2515 257.3594 258.2617 262.0104 263.2684 264.8436
   264.9758 265.2691 265.6856 266.4072 266.5534 266.6719 266.7668 267.1850
   267.4859 270.2838 270.5844 270.8457 271.3392 271.9586 275.6046 276.3059
   276.7278 277.8130 277.9246 278.1120 278.5446 278.8079 279.6279 281.3187
   281.9821 282.3326 283.5389 284.8626 285.4036 286.9026 286.9135 287.1818
   287.3267 288.8366 289.1885 289.2571 289.9265 292.2268 292.4320 292.7370
   293.2071 293.5231 293.6405 294.6125 297.6154 298.8000 299.3359 299.6121
   301.0421 301.7034 301.9459 302.9384 303.3064 303.6738 304.0550 304.1342
   304.4559 305.9208 306.3600 306.6164 308.5470 309.2653 309.3421 309.4810
   309.7636 310.0595 310.9383 312.4338 312.9461 313.9423 314.7356 315.0894
   315.4034 316.0293 317.2532 317.6884 317.9488 318.6288 318.6362 318.9794
   318.9857 319.6123 319.7358 320.2691 320.7661 321.5355 322.9313 323.6684
   325.5412 325.5893 325.7052 325.9002 325.9375 327.7353 327.9046 328.2173
   328.5813 329.4022 330.2368 330.6762 331.0951 332.0380 332.0674 332.3586
   333.8797 335.2089 335.4109 336.1973 337.2188 337.4144 338.5511 338.7627
   339.1205 339.1592 339.1707 339.7289 340.4515 340.7046 340.7055 340.9786
   341.1652 342.1867 342.5144 343.9374 345.2287 345.2350 345.2374 345.5656
   347.1106 347.6637 351.9786 352.0356 353.0179 353.8587 353.9153 354.7884
   355.6401 357.1156 357.1736 357.5778 358.1241 358.1840 359.4045 360.1805
   360.4475 360.5571 361.5392 361.9838 362.4070 364.4291 364.9264 365.1593
   366.6958 367.1136 368.5162 369.3399 369.5164 370.2058 371.6101 373.1625
   373.9979 375.0178 375.0442 375.1140 375.4036 375.9625 376.3688 376.3872
   376.9476 377.0069 377.0333 377.1266 377.8515 378.2055 378.3421 379.1780
   379.5830 379.7929 380.1694 382.6644 383.0572 383.4931 384.4913 385.7340
   386.2010 386.4542 388.7135 389.6403 389.9790 390.3693 390.4577 392.3398
   394.6584 396.2142 396.6009 396.8095 396.8467 396.9459 396.9709 397.9251
   398.1648 398.3179 399.3450 399.8608 399.9410 400.9999 401.4103 402.6752
   403.2717 404.3945 404.7067 405.2997 405.4382 405.5605 406.3582 407.5043
   408.0287 408.1874 408.2179 408.4309 409.5299 409.8755 409.9941 410.6583
   412.1628 412.6012 412.6717 412.9213 412.9295 414.5233 414.9028 415.0381
   415.2293 415.3260 416.4741 420.4989 421.3388 421.5665 421.8051 421.9553
   421.9696 423.4752 424.0077 424.0664 425.4541 425.6220 425.9720 426.8293
   427.2298 428.0995 428.8821 429.2948 430.8749 431.0064 431.1764 431.5694
   431.7811 432.1126 432.5042 433.1126 433.7750 434.5339 434.5400 434.5731
   440.7143 440.8436 441.8087 442.4637 443.1914 443.2313 444.4922 444.8565
   445.2052 445.4646 445.7002 445.7341 447.2375 447.3242 447.5197 447.9338
   448.5893 448.8723 451.5302 451.8112 451.9296 452.3017 452.5262 453.0699
   453.2829 453.5970 453.6302 454.2589 454.6507 455.4947 455.6484 456.1765
   457.1552 457.5172 457.5734 457.9267 458.8290 459.4536 460.5636 460.6598
   461.0140 462.2132 462.7385 462.8925 463.0946 463.2303 463.3294 463.6679
   463.9053 464.1550 466.5643 466.5807 468.5035 468.5859 469.4828 469.5002
   471.0643 471.1857 472.3515 472.4151 472.4257 472.4588 472.4701 472.6984
   472.8627 472.9821 473.2438 473.2912 473.5798 473.9177 474.4901 474.6926
   475.1809 475.2689 476.2915 476.5292 476.6220 476.7787 477.0079 477.8743
   479.5117 479.5146 479.6157 479.6200 480.6887 481.0514 483.1276 483.1524
   483.3170 483.4743 484.0776 484.1882 484.5866 484.8941 484.9755 485.1352
   486.4779 486.4812 488.2925 488.5301 489.9943 491.1236 491.4295 491.7671
   492.4173 492.4259 492.4490 492.8225 493.5289 493.6296 494.0727 494.6023
   494.7476 495.0459 495.9024 495.9104 496.2929 498.3747 498.6675 500.1783
   500.6925 500.8587 501.2524 501.9629 502.6324 505.0293 505.1757 505.3135
   505.6721 507.5311 508.0191 508.0794 509.3765 509.9693 509.9743 510.8758
   510.9802 511.2280 511.7580 511.9042 511.9355 512.1630 512.2480 512.4305
   512.7205 512.7652 512.8434 513.7538 516.2814 516.4524 517.2554 517.7486
   518.4598 518.6214 519.1826 519.2387 519.2651 519.4177 520.2390 521.0576
   521.5382 521.5918 522.1537 522.3635 522.8402 523.0158 523.0244 523.3544
   523.3752 523.4154 524.7562 524.8980 529.2689 529.5652 529.5812 529.7924
   530.0741 532.0853 532.5943 532.7387 533.1273 533.6641 533.6645 533.8812
   533.8887 533.9108 534.2270 534.6613 534.8690 538.1243 538.4422 538.5997
   539.7225 540.1443 540.3212 540.3879 540.9761 541.6185 541.7697 542.3528
   543.0488 543.8631 543.8963 545.7898 546.7808 546.7895 547.4318 547.7738
   548.6079 548.9232 549.5632 549.6584 553.1780 553.3475 554.4067 554.6343
   555.9657 556.0874 557.0722 557.4104 557.9356 558.4003 558.4164 558.5031
   558.5546 558.9867 559.0117 559.3476 560.5580 560.9769 561.8955 562.1315
   563.4778 563.4809 564.3193 565.0772 565.9508 566.2009 566.6661 566.9999
   567.5820 569.4838 569.8053 570.4710 570.7920 571.0312 571.9635 573.1170
   573.7535 573.9485 574.6336 574.8295 575.1469 575.4243 577.4095 577.4945
   577.5763 577.6305 579.8331 580.1271 580.3971 580.4449 584.3929 584.4850
   586.7996 587.6052 587.6527 587.9296 587.9943 588.4201 588.5494 588.5556
   589.9015 590.1977 590.4202 590.4959 591.0957 591.1102 591.5890 591.8886
   593.1460 593.6150 594.3023 595.5063 595.9306 596.2873 596.5322 596.7239
   596.8823 596.9753 597.5668 597.9503 598.0969 598.1548 598.2825 598.7792
   599.0899 599.3084 601.3268 601.3570 601.4840 602.2742 602.8241 603.6714
   603.8162 604.0612 604.1595 605.3296 605.6400 605.6789 605.7526 605.8815
   606.1261 606.1506 606.6814 606.9921 606.9951 607.0166 607.0308 607.0385
   607.4676 607.5956 607.9994 608.0336 608.1689 608.1741 608.2218 608.2741
   611.5584 611.9109 612.9399 613.2766 615.2756 615.8947 615.9023 616.0048
   616.0620 616.1930 616.8553 618.6510 618.6579 618.9763 618.9850 619.3055
   619.6160 619.7952 619.9641 620.4577 620.4638 620.9108 620.9337 620.9821
   621.0056 623.1128 623.1147 625.1245 625.4541 625.7206 625.8351 625.9829
   626.2070 626.8050 626.8343 626.9152 626.9269 627.2309 627.4041 627.4199
   627.4940 627.9111 628.3174 628.4279 629.0156 631.6545 632.1129 632.3049
   632.9040 633.2851 633.5615 633.7547 634.9825 635.3115 635.3875 635.7269
   636.1083 636.4430 636.5520 636.6426 637.5279 637.8068 637.9852 638.0382
   640.0612 640.3177 644.1080 644.4181 644.5730 644.6954 645.9192 645.9312
   646.3056 646.3276 649.1197 649.1593 649.1850 649.2391 651.2854 651.8171
   651.8408 652.0221 652.3143 652.5151 652.9183 653.8741 654.3941 654.4394
   654.8449 655.2364 655.3781 655.4306 655.4906 655.5867 655.8905 656.1746
   656.3311 656.4734 657.7000 657.7116 658.2087 658.2390 660.8129 660.9379
   661.1264 661.6420 661.7148 661.7690 661.7934 662.4151 662.7514 662.8185
   663.0834 663.1464 663.5199 664.1740 664.4288 664.4921 664.5550 665.1915
   665.1946 665.3164 665.7478 671.1574 671.1615 671.3955 671.4003 671.8042
   672.1064 673.2162 673.6833 674.1029 674.3222 674.3839 674.3844 674.4867
   674.6453 674.6963 675.0477 675.1526 675.5987 675.6457 675.7550 676.1970
   676.4714 676.4952 676.5266 677.6832 683.8634 684.4827 684.5001 684.6360
   684.7913 684.8475 686.3763 686.4075 686.4329 686.5724 686.5926 686.7001
   686.8417 686.8554 687.7035 687.7116 688.7215 688.9207 689.4906 690.0921
   690.3295 690.8326 691.7705 691.9726 691.9744 692.0116 692.9461 693.2051
   693.2626 693.3962 694.5498 694.6650 695.7563 695.7697 697.5433 697.6413
   697.6455 697.9818 701.7616 702.0895 702.2770 702.3831 702.6774 702.6845
   703.2450 703.2704 703.3544 703.3697 703.6196 703.6536 704.1500 704.3886
   704.6872 704.7442 706.4373 706.7318 706.9132 706.9400 706.9742 707.3022
   708.3043 708.7640 709.5108 710.1107 710.9859 711.1819 711.6396 711.6584
   711.9264 712.1011 712.3886 712.7505 713.5375 713.6098 713.7587 713.8711
   713.9488 713.9770 714.0106 714.0756 714.1772 714.3584 714.3627 714.5869
   714.8534 715.2415 715.3800 715.4505 719.9304 720.1021 720.2650 720.3297
   724.8161 724.9259 725.1822 725.1835 725.5639 725.5656 727.7092 727.7094
   729.8416 729.9171 729.9921 730.1891 730.3739 730.4182 730.4338 730.6895
   730.7836 730.8287 730.9579 731.0246 731.9173 731.9550 731.9562 732.3280
   737.1076 737.2596 737.8935 738.0920 738.6878 738.6901 739.9645 739.9878
   740.1089 740.2891 740.3149 740.4666 740.5682 740.5811 741.3565 741.7852
   741.8326 741.9724 742.3578 742.3735 742.5843 742.7084 742.7870 743.2264
   743.5439 743.5634 744.0579 744.0898 745.5262 745.5332 748.0275 748.0421
   750.7244 750.8221 750.8302 751.0674 751.1977 751.2025 751.2210 751.2453
   751.4209 751.5774 751.6149 751.6303 754.3747 754.4961 754.8305 754.8399
   755.6595 756.1904 758.3345 759.6426 760.0210 760.3433 760.9118 761.5248
   761.7363 762.0248 762.1677 762.2622 762.2925 762.7917 762.8271 763.4434
   763.4616 763.8525 763.9030 764.2172 764.2280 764.6713 764.7815 764.8098
   765.3878 767.1181 767.2803 769.3118 769.4483 769.5108 769.5920 771.2882
   771.6265 771.6795 771.7531 773.6101 774.3025 774.3725 775.1749 775.1903
   777.6275 777.9386 777.9555 778.0191 779.0851 779.6569 780.3142 780.3342
   780.5184 780.5769 781.8737 781.8834 781.9982 782.0234 783.6926 783.7091
   786.0313 786.0375 787.9205 788.0035 788.2820 788.3477 788.4024 788.4489
   788.5078 788.5400 790.8566 790.8897 791.0730 791.1205 791.1712 791.4489
   792.7771 792.7794 793.4893 793.5829 793.6105 793.9022 795.4946 795.7528
   797.3306 797.4001 797.6674 797.7412 797.9218 798.0526 798.1924 798.5344
   798.9366 798.9468 799.0779 799.0991 800.0067 800.4574 801.4091 801.6468
   802.5697 803.3248 804.3005 804.4016 804.8491 804.8543 805.4645 805.4655
   805.7851 805.7870 806.0121 806.0222 806.2378 806.4631 807.0511 807.0955
   807.1409 807.3000 807.5057 807.5084 808.1416 808.4968 808.5364 808.5554
   808.9036 810.9853 811.0305 811.5951 811.6143 812.6681 812.8527 817.5120
   817.6302 818.0030 818.0150 818.3777 818.4050 818.5968 818.6396 820.0691
   820.1415 820.1722 820.1915 821.4183 821.4578 821.4821 821.5035 822.4334
   822.4396 823.9382 825.7936 825.8422 826.2299 826.5656 826.6776 826.6915
   827.1717 827.2050 827.2480 827.2631 829.0325 829.0337 829.0421 829.1721
   829.3041 829.4395 829.7971 829.8081 829.9059 829.9959 830.4935 830.5493
   834.6119 834.7095 834.9393 834.9441 835.1800 835.2465 835.2735 835.3099
   836.5938 836.7511 836.7950 836.9553 837.4444 837.4678 837.9265 837.9559
   838.5196 838.6655 838.8612 838.9905 839.1362 839.1651 839.2644 839.2742
   842.2316 842.2622 842.7175 843.0145 843.2469 843.4032 844.6224 844.6422
   845.5169 845.9442 846.5067 846.5522 846.5818 846.6197 846.9116 847.1476
   848.2260 848.3946 848.4830 848.5114 848.8615 848.9434 848.9850 849.0019
   850.3596 850.4690 850.5986 850.6271 850.7750 850.8944 852.8833 853.3623
   853.3793 853.6670 855.4277 855.4286 855.4794 855.5350 855.7700 856.1983
   856.2118 856.5003 856.7967 856.8195 856.9184 856.9536 857.5384 857.7178
   858.3020 858.3415 858.3639 858.4092 858.6231 858.6407 858.8394 858.8423
   859.0589 859.0989 859.1930 859.3487 859.4250 859.9468 860.7303 860.7388
   863.7935 863.8248 865.5412 865.6519 865.6699 865.6750 872.0903 872.2414
   874.7811 874.8936 875.0974 875.2508 875.3249 875.3519 875.3833 875.3906
   875.4367 875.4513 875.5959 875.6313 875.6486 875.6591 875.6723 875.8714
   876.2603 876.2918 877.9660 877.9982 878.3373 878.3479 879.4787 879.5101
   881.5315 881.5626 882.2884 882.2969 882.9455 883.0521 883.3783 883.4766
   885.0246 885.0506 885.0601 885.0786 886.5094 886.5310 886.6195 886.6896
   887.4510 887.4513 887.4892 887.5280 889.3679 889.3841 889.5344 889.5403
   891.6432 891.6533 892.1840 892.2174 892.2496 892.4680 892.5389 892.7455
   892.9300 892.9595 893.0359 893.0629 893.0908 893.0973 894.3207 894.3961
   894.4059 894.4375 894.4884 894.7776 894.9372 894.9976 895.2084 895.2096
   895.6316 895.6588 895.9303 895.9602 896.3921 896.4756 896.5415 896.5601
   903.5782 903.5972 903.6291 903.6613 904.0539 904.0556 905.8083 905.8241
   906.0706 906.2962 906.3008 906.4636 906.5330 907.1193 907.7490 907.7617
   908.2748 908.2851 908.2946 908.3287 908.4859 908.4960 912.4932 912.6009
   912.8826 912.8902 913.3125 914.1167 914.1821 914.5400 914.6046 914.7122
   914.7341 914.7760 914.8061 915.2598 915.3179 915.4787 915.6096 915.6109
   915.6150 915.6378 915.8785 915.8955 916.0038 916.4894 916.5012 916.5281
   916.5384 920.2575 920.3578 922.2758 922.2826 922.2898 922.3582 922.3600
   922.3730 922.4085 922.4329 924.2383 924.2829 924.3060 924.3254 926.3973
   926.3990 926.9669 926.9870 927.0530 927.0638 929.5333 929.8469 929.9536
   930.2829 930.2926 932.5255 932.5310 932.6058 932.6486 932.9272 932.9913
   933.1614 933.1808 933.1910 933.2576 933.4446 933.4566 933.4571 933.4878
   933.5811 933.6022 934.0785 934.2272 934.3628 934.3844 937.0226 937.0402
   939.6117 939.6677 939.9031 939.9186 941.2279 941.3351 942.2373 942.4910
   942.4981 942.5784 942.6177 942.6220 942.6549 942.6848 943.1220 943.1397
   943.2272 943.4860 944.8044 944.8085 944.8232 944.9179 945.1957 945.2209
   945.3894 945.4138 945.4235 945.4319 945.4327 945.4660 947.4139 947.4596
   949.6719 949.9654 953.4220 953.4402 953.4588 953.4624 954.7052 954.7602
   956.7078 956.7176 958.4285 959.2461 959.8601 959.8811 959.9556 959.9831
   960.9239 960.9659 960.9686 960.9867 961.0267 961.1121 961.1575 961.1614
   964.4040 964.4124 964.4150 964.4499 966.1053 966.1218 968.9522 970.2998
   970.3354 970.3596 970.3683 971.7726 971.7785 972.2577 972.3165 972.4702
   972.4851 972.5207 972.5365 972.5400 972.6082 973.1361 973.1806 973.2013
   973.2050 973.2519 973.3166 973.6006 973.6299 978.7545 978.7908 978.8190
   978.8830 980.7370 980.7489 980.7724 980.7996 981.5169 981.5196 981.6228
   981.6419 982.0268 982.0433 983.6594 983.7041 983.9664 983.9849 984.6934
   989.4057 989.4700 989.6858 989.6933 989.7096 989.7711 989.8143 989.8925
   990.4986 990.5290 990.5637 990.5971 990.6167 990.6233 990.6794 990.7182
   990.7210 990.7895 992.1847 992.2063 992.2194 992.2369 992.2415 992.7775
   993.0554 993.0591 993.1810 993.4540 993.4718 993.7526 994.7223 994.7244
   994.7264 994.7326 995.5980 995.7045 996.8724 996.8857 998.1423 998.1444
  1001.34691001.35621001.35621001.36341001.77101001.78631001.82301001.8433
  1002.84591002.87201003.51421003.51741003.71071003.79351004.73011004.9917
  1006.87721006.89451009.65941009.71291009.99251010.01411011.14201011.1583
  1011.17301011.19251011.65331012.10241012.14121012.52101012.53371012.7419
  1012.76161012.77981013.55661013.75231013.76061014.41171017.15621017.1728
  1018.04401018.09391018.70051018.71311018.72591018.73971019.20981019.2181
  1019.65031019.65411021.99431021.99951022.00801022.01231022.01561022.0532
  1022.55421022.59821024.06161024.10331025.82721026.04881026.12171026.1482
  1026.27801026.38021026.79621027.06751028.23821028.25081028.45061028.4864
  1029.24611029.25071029.46891029.48661029.62881029.64351030.12121030.1338
  1030.82891030.85651031.11591031.14371033.44751033.45741034.92411034.9304
  1034.98121034.98321034.99611035.04921035.32791035.41501036.52471036.5478
  1036.57591036.63211037.07201037.07311038.48581038.49751038.50521038.5086
  1040.40451040.41151040.42071040.42071042.22481042.23281044.25701044.2669
  1045.08931045.09941045.42661045.44021048.33901048.36331048.41351048.4149
  1048.82301048.82601049.90661049.92301049.94031049.96431050.77911050.7804
  1051.40481051.42141051.73001051.75201051.75571051.75781053.77741053.8257
  1055.29271055.29511056.86431056.94431057.00711057.02171057.54531057.5564
  1057.56111057.58181057.66771057.67571057.68081057.72961059.36001059.3729
  1059.39861059.42121059.43021059.44381059.45181059.48161059.79701059.8172
  1059.86501059.87051062.12261062.12791065.19531065.20681065.23541065.2710
  1066.47451066.49251066.49521066.49961066.76281066.76361066.82931067.2209
  1067.27661067.30211067.30561067.30931067.36821067.39471067.41351067.8855
  1068.05191068.06771071.51101071.56651073.75731073.77181073.80581073.8100
  1076.57431076.58351076.68131076.70051076.74151076.74361076.81711076.8400
  1078.29371078.31431078.40271078.40341080.74651080.76771080.77841080.7803
  1080.97621080.98251081.01781081.04131082.54601082.62491083.77211083.7734
  1083.78421086.25771086.45981086.56541086.59211087.08951087.09871087.1125
  1087.12451088.47571088.49751088.50081088.51301089.06621089.13791089.3436
  1089.34381090.42141090.52191091.90391091.92801093.08811093.09281093.7959
  1093.80921093.82271093.84261094.12421094.13401094.53511094.57501094.5969
  1094.62601095.75571095.88741096.03381096.11471096.90661096.92621097.7379
  1097.78241098.00021098.01701098.01801098.38971098.39171098.41971098.6017
  1098.62391098.72491098.72501099.02781099.26911099.27871099.29701099.8989
  1100.53711100.55211102.68831102.72071104.06651104.08671104.68141104.7077
  1104.91311104.95071104.97671104.99351105.90401105.91591105.94331105.9487
  1106.22821106.23461106.74471106.76291107.17951107.27411107.33351107.3474
  1107.92931107.96071109.46411109.47481112.51551112.52831113.77021113.7718
  1114.18931114.20671114.35821114.37881114.42251114.45721114.47121114.5028

     the Fermi energy is     4.8015 ev
     (compare with:     4.8015 eV, computed in scf)

     Writing all to output data dir out/mp-682.save/
 
     init_run     :      0.03s CPU      0.06s WALL (       1 calls)
     electrons    :   3749.87s CPU   4013.09s WALL (       1 calls)

     Called by init_run:
     wfcinit      :      0.00s CPU      0.00s WALL (       1 calls)
     potinit      :      0.01s CPU      0.01s WALL (       1 calls)
     hinit0       :      0.01s CPU      0.03s WALL (       1 calls)

     Called by electrons:
     c_bands      :   3749.86s CPU   4013.05s WALL (       1 calls)
     v_of_rho     :      0.00s CPU      0.00s WALL (       1 calls)

     Called by c_bands:
     init_us_2    :      0.00s CPU      0.00s WALL (      16 calls)
     init_us_2:cp :      0.00s CPU      0.00s WALL (      16 calls)
     cegterg      :   3667.87s CPU   3925.06s WALL (      16 calls)

     Called by *egterg:
     cdiaghg      :   3551.27s CPU   3804.48s WALL (     135 calls)
     h_psi        :     34.51s CPU     35.99s WALL (     151 calls)
     g_psi        :      0.19s CPU      0.20s WALL (     119 calls)

     Called by h_psi:
     h_psi:calbec :      0.36s CPU      0.38s WALL (     151 calls)
     vloc_psi     :     33.48s CPU     34.91s WALL (     151 calls)
     add_vuspsi   :      0.31s CPU      0.32s WALL (     151 calls)

     General routines
     calbec       :      0.36s CPU      0.38s WALL (     151 calls)
     fft          :      0.00s CPU      0.02s WALL (      10 calls)
     fftw         :     30.51s CPU     31.82s WALL (  368792 calls)
 
     Parallel routines
 
     PWSCF        :      1h 2m CPU      1h 6m WALL

 
   This run was terminated on:   8:56:34  15Nov2023            

=------------------------------------------------------------------------------=
   JOB DONE.
=------------------------------------------------------------------------------=
