
     Program PWSCF v.7.1 starts on 15Nov2023 at 20:13:17 

     This program is part of the open-source Quantum ESPRESSO suite
     for quantum simulation of materials; please cite
         "P. Giannozzi et al., J. Phys.:Condens. Matter 21 395502 (2009);
         "P. Giannozzi et al., J. Phys.:Condens. Matter 29 465901 (2017);
         "P. Giannozzi et al., J. Chem. Phys. 152 154105 (2020);
          URL http://www.quantum-espresso.org", 
     in publications or presentations arising from this work. More details at
     http://www.quantum-espresso.org/quote

     Parallel version (MPI), running on    24 processors

     MPI processes distributed on     1 nodes
     123059 MiB available memory on the printing compute node when the environment starts
 
     Reading input from pw_mp-682_scf_k3000_E159.in
Warning: card &CELL ignored
Warning: card / ignored

     Current dimensions of program PWSCF are:
     Max number of different atomic species (ntypx) = 10
     Max number of k-points (npk) =  40000
     Max angular momentum in pseudopotentials (lmaxx) =  4
 
     R & G space division:  proc/nbgrp/npool/nimage =      24
     Subspace diagonalization in iterative solution of the eigenvalue problem:
     a serial algorithm will be used

 
     Parallelization info
     --------------------
     sticks:   dense  smooth     PW     G-vecs:    dense   smooth      PW
     Min          68      68     19                 1818     1818     283
     Max          69      69     20                 1821     1821     287
     Sum        1639    1639    475                43655    43655    6855
 
     Using Slab Decomposition
 


     bravais-lattice index     =            2
     lattice parameter (alat)  =       8.6394  a.u.
     unit-cell volume          =     161.2111 (a.u.)^3
     number of atoms/cell      =            2
     number of atomic types    =            2
     number of electrons       =        16.00
     number of Kohn-Sham states=           16
     kinetic-energy cutoff     =     159.0000  Ry
     charge density cutoff     =     636.0000  Ry
     scf convergence threshold =      1.0E-10
     mixing beta               =       0.7000
     number of iterations used =            8  plain     mixing
     Exchange-correlation= PBE
                           (   1   4   3   4   0   0   0)

     celldm(1)=   8.639428  celldm(2)=   0.000000  celldm(3)=   0.000000
     celldm(4)=   0.000000  celldm(5)=   0.000000  celldm(6)=   0.000000

     crystal axes: (cart. coord. in units of alat)
               a(1) = (  -0.500000   0.000000   0.500000 )  
               a(2) = (   0.000000   0.500000   0.500000 )  
               a(3) = (  -0.500000   0.500000   0.000000 )  

     reciprocal axes: (cart. coord. in units 2 pi/alat)
               b(1) = ( -1.000000 -1.000000  1.000000 )  
               b(2) = (  1.000000  1.000000  1.000000 )  
               b(3) = ( -1.000000  1.000000 -1.000000 )  


     PseudoPot. # 1 for F  read from file:
     /usr/scratch4/magr4985/MG/HTDF/pseudo/SG15/F.upf
     MD5 check sum: 1d8275f47d602dd53cad6bcdc0eda7dc
     Pseudo is Norm-conserving, Zval =  7.0
     Generated using ONCVPSP code by D. R. Hamann
     Using radial grid of  602 points,  4 beta functions with: 
                l(1) =   0
                l(2) =   0
                l(3) =   1
                l(4) =   1

     PseudoPot. # 2 for Na read from file:
     /usr/scratch4/magr4985/MG/HTDF/pseudo/SG15/Na.upf
     MD5 check sum: 425b17ce8ead78efa4860b7b3310c7e3
     Pseudo is Norm-conserving, Zval =  9.0
     Generated using ONCVPSP code by D. R. Hamann
     Using radial grid of  602 points,  4 beta functions with: 
                l(1) =   0
                l(2) =   0
                l(3) =   1
                l(4) =   1

     atomic species   valence    mass     pseudopotential
        F              7.00    18.99840     F ( 1.00)
        Na             9.00    22.98980     Na( 1.00)

     48 Sym. Ops., with inversion, found



   Cartesian axes

     site n.     atom                  positions (alat units)
         1           Na  tau(   1) = (   0.0000000   0.0000000   0.0000000  )
         2           F   tau(   2) = (  -0.5000000   0.5000000   0.5000000  )

     number of k points=    72  Gaussian smearing, width (Ry)=  0.0005
                       cart. coord. in units 2pi/alat
        k(    1) = (   0.0000000   0.0000000   0.0000000), wk =   0.0011574
        k(    2) = (  -0.0833333   0.0833333  -0.0833333), wk =   0.0092593
        k(    3) = (  -0.1666667   0.1666667  -0.1666667), wk =   0.0092593
        k(    4) = (  -0.2500000   0.2500000  -0.2500000), wk =   0.0092593
        k(    5) = (  -0.3333333   0.3333333  -0.3333333), wk =   0.0092593
        k(    6) = (  -0.4166667   0.4166667  -0.4166667), wk =   0.0092593
        k(    7) = (   0.5000000  -0.5000000   0.5000000), wk =   0.0046296
        k(    8) = (   0.0000000   0.1666667   0.0000000), wk =   0.0069444
        k(    9) = (  -0.0833333   0.2500000  -0.0833333), wk =   0.0277778
        k(   10) = (  -0.1666667   0.3333333  -0.1666667), wk =   0.0277778
        k(   11) = (  -0.2500000   0.4166667  -0.2500000), wk =   0.0277778
        k(   12) = (  -0.3333333   0.5000000  -0.3333333), wk =   0.0277778
        k(   13) = (   0.5833333  -0.4166667   0.5833333), wk =   0.0277778
        k(   14) = (   0.5000000  -0.3333333   0.5000000), wk =   0.0277778
        k(   15) = (   0.4166667  -0.2500000   0.4166667), wk =   0.0277778
        k(   16) = (   0.3333333  -0.1666667   0.3333333), wk =   0.0277778
        k(   17) = (   0.2500000  -0.0833333   0.2500000), wk =   0.0277778
        k(   18) = (   0.1666667  -0.0000000   0.1666667), wk =   0.0138889
        k(   19) = (   0.0000000   0.3333333   0.0000000), wk =   0.0069444
        k(   20) = (  -0.0833333   0.4166667  -0.0833333), wk =   0.0277778
        k(   21) = (  -0.1666667   0.5000000  -0.1666667), wk =   0.0277778
        k(   22) = (  -0.2500000   0.5833333  -0.2500000), wk =   0.0277778
        k(   23) = (   0.6666667  -0.3333333   0.6666667), wk =   0.0277778
        k(   24) = (   0.5833333  -0.2500000   0.5833333), wk =   0.0277778
        k(   25) = (   0.5000000  -0.1666667   0.5000000), wk =   0.0277778
        k(   26) = (   0.4166667  -0.0833333   0.4166667), wk =   0.0277778
        k(   27) = (   0.3333333   0.0000000   0.3333333), wk =   0.0138889
        k(   28) = (   0.0000000   0.5000000   0.0000000), wk =   0.0069444
        k(   29) = (  -0.0833333   0.5833333  -0.0833333), wk =   0.0277778
        k(   30) = (  -0.1666667   0.6666667  -0.1666667), wk =   0.0277778
        k(   31) = (   0.7500000  -0.2500000   0.7500000), wk =   0.0277778
        k(   32) = (   0.6666667  -0.1666667   0.6666667), wk =   0.0277778
        k(   33) = (   0.5833333  -0.0833333   0.5833333), wk =   0.0277778
        k(   34) = (   0.5000000   0.0000000   0.5000000), wk =   0.0138889
        k(   35) = (   0.0000000   0.6666667   0.0000000), wk =   0.0069444
        k(   36) = (  -0.0833333   0.7500000  -0.0833333), wk =   0.0277778
        k(   37) = (   0.8333333  -0.1666667   0.8333333), wk =   0.0277778
        k(   38) = (   0.7500000  -0.0833333   0.7500000), wk =   0.0277778
        k(   39) = (   0.6666667  -0.0000000   0.6666667), wk =   0.0138889
        k(   40) = (   0.0000000   0.8333333   0.0000000), wk =   0.0069444
        k(   41) = (   0.9166667  -0.0833333   0.9166667), wk =   0.0277778
        k(   42) = (   0.8333333   0.0000000   0.8333333), wk =   0.0138889
        k(   43) = (   0.0000000  -1.0000000   0.0000000), wk =   0.0034722
        k(   44) = (  -0.1666667   0.3333333   0.0000000), wk =   0.0277778
        k(   45) = (  -0.2500000   0.4166667  -0.0833333), wk =   0.0555556
        k(   46) = (  -0.3333333   0.5000000  -0.1666667), wk =   0.0555556
        k(   47) = (   0.5833333  -0.4166667   0.7500000), wk =   0.0555556
        k(   48) = (   0.5000000  -0.3333333   0.6666667), wk =   0.0277778
        k(   49) = (  -0.1666667   0.5000000   0.0000000), wk =   0.0277778
        k(   50) = (  -0.2500000   0.5833333  -0.0833333), wk =   0.0555556
        k(   51) = (   0.6666667  -0.3333333   0.8333333), wk =   0.0555556
        k(   52) = (   0.5833333  -0.2500000   0.7500000), wk =   0.0555556
        k(   53) = (   0.5000000  -0.1666667   0.6666667), wk =   0.0555556
        k(   54) = (   0.4166667  -0.0833333   0.5833333), wk =   0.0555556
        k(   55) = (   0.3333333   0.0000000   0.5000000), wk =   0.0277778
        k(   56) = (  -0.1666667   0.6666667  -0.0000000), wk =   0.0277778
        k(   57) = (   0.7500000  -0.2500000   0.9166667), wk =   0.0555556
        k(   58) = (   0.6666667  -0.1666667   0.8333333), wk =   0.0555556
        k(   59) = (   0.5833333  -0.0833333   0.7500000), wk =   0.0555556
        k(   60) = (   0.5000000   0.0000000   0.6666667), wk =   0.0277778
        k(   61) = (   0.8333333  -0.1666667   1.0000000), wk =   0.0277778
        k(   62) = (   0.7500000  -0.0833333   0.9166667), wk =   0.0555556
        k(   63) = (   0.6666667   0.0000000   0.8333333), wk =   0.0277778
        k(   64) = (  -0.1666667  -1.0000000  -0.0000000), wk =   0.0138889
        k(   65) = (   0.6666667  -0.3333333   1.0000000), wk =   0.0277778
        k(   66) = (   0.5833333  -0.2500000   0.9166667), wk =   0.0555556
        k(   67) = (   0.5000000  -0.1666667   0.8333333), wk =   0.0277778
        k(   68) = (   0.6666667  -0.1666667   1.0000000), wk =   0.0277778
        k(   69) = (   0.5833333  -0.0833333   0.9166667), wk =   0.0555556
        k(   70) = (   0.5000000   0.0000000   0.8333333), wk =   0.0277778
        k(   71) = (  -0.3333333  -1.0000000   0.0000000), wk =   0.0138889
        k(   72) = (  -0.5000000  -1.0000000   0.0000000), wk =   0.0069444

     Dense  grid:    43655 G-vectors     FFT dimensions: (  50,  50,  50)

     Estimated max dynamical RAM per process >       2.87 MB

     Estimated total dynamical RAM >      68.78 MB

     Initial potential from superposition of free atoms

     starting charge      15.8629, renormalised to      16.0000
     Starting wfcs are random

     total cpu time spent up to now is        0.7 secs

     Self-consistent Calculation

     iteration #  1     ecut=   159.00 Ry     beta= 0.70
     Davidson diagonalization with overlap
     ethr =  1.00E-02,  avg # of iterations =  7.7

     Threshold (ethr) on eigenvalues was too large:
     Diagonalizing with lowered threshold

     Davidson diagonalization with overlap
     ethr =  9.28E-04,  avg # of iterations =  1.1

     total cpu time spent up to now is        3.6 secs

     total energy              =    -133.14297344 Ry
     estimated scf accuracy    <       0.15201815 Ry

     iteration #  2     ecut=   159.00 Ry     beta= 0.70
     Davidson diagonalization with overlap
     ethr =  9.50E-04,  avg # of iterations =  2.1

     total cpu time spent up to now is        4.4 secs

     total energy              =    -133.18004037 Ry
     estimated scf accuracy    <       0.10491283 Ry

     iteration #  3     ecut=   159.00 Ry     beta= 0.70
     Davidson diagonalization with overlap
     ethr =  6.56E-04,  avg # of iterations =  1.8

     total cpu time spent up to now is        5.2 secs

     total energy              =    -133.20244867 Ry
     estimated scf accuracy    <       0.00125718 Ry

     iteration #  4     ecut=   159.00 Ry     beta= 0.70
     Davidson diagonalization with overlap
     ethr =  7.86E-06,  avg # of iterations =  4.4

     total cpu time spent up to now is        6.2 secs

     total energy              =    -133.20272558 Ry
     estimated scf accuracy    <       0.00001048 Ry

     iteration #  5     ecut=   159.00 Ry     beta= 0.70
     Davidson diagonalization with overlap
     ethr =  6.55E-08,  avg # of iterations =  2.2

     total cpu time spent up to now is        7.0 secs

     total energy              =    -133.20272936 Ry
     estimated scf accuracy    <       0.00000108 Ry

     iteration #  6     ecut=   159.00 Ry     beta= 0.70
     Davidson diagonalization with overlap
     ethr =  6.77E-09,  avg # of iterations =  2.0

     total cpu time spent up to now is        7.8 secs

     total energy              =    -133.20272961 Ry
     estimated scf accuracy    <       0.00000006 Ry

     iteration #  7     ecut=   159.00 Ry     beta= 0.70
     Davidson diagonalization with overlap
     ethr =  3.71E-10,  avg # of iterations =  1.0

     total cpu time spent up to now is        8.6 secs

     total energy              =    -133.20272962 Ry
     estimated scf accuracy    <          4.7E-10 Ry

     iteration #  8     ecut=   159.00 Ry     beta= 0.70
     Davidson diagonalization with overlap
     ethr =  2.93E-12,  avg # of iterations =  2.0

     total cpu time spent up to now is        9.5 secs

     total energy              =    -133.20272962 Ry
     estimated scf accuracy    <          1.1E-10 Ry

     iteration #  9     ecut=   159.00 Ry     beta= 0.70
     Davidson diagonalization with overlap
     ethr =  6.85E-13,  avg # of iterations =  2.0

     total cpu time spent up to now is       10.3 secs

     End of self-consistent calculation

          k = 0.0000 0.0000 0.0000 (  5577 PWs)   bands (ev):

   -45.3643 -17.5272 -17.2648 -17.2648 -17.2648   1.6183   1.6183   1.6183
     8.1952  21.0545  21.0545  21.0545  23.8915  26.3237  26.3237  29.1737

          k =-0.0833 0.0833-0.0833 (  5480 PWs)   bands (ev):

   -45.3633 -17.6514 -17.2657 -17.2657 -17.1311   1.4737   1.5998   1.5998
     8.4520  20.0308  21.1687  21.1687  25.0519  26.0052  26.0052  29.1954

          k =-0.1667 0.1667-0.1667 (  5468 PWs)   bands (ev):

   -45.3604 -17.8323 -17.2682 -17.2682 -16.9239   1.1148   1.5497   1.5497
     9.1406  18.4983  21.4740  21.4740  25.4382  25.4382  26.4640  29.7630

          k =-0.2500 0.2500-0.2500 (  5438 PWs)   bands (ev):

   -45.3564 -17.9902 -17.2715 -17.2715 -16.7297   0.6862   1.4820   1.4820
    10.0945  17.1274  21.8515  21.8515  25.0299  25.0299  26.6770  30.9858

          k =-0.3333 0.3333-0.3333 (  5450 PWs)   bands (ev):

   -45.3525 -18.1098 -17.2748 -17.2748 -16.5734   0.3065   1.4152   1.4152
    11.1548  15.9615  22.1275  22.1275  24.9421  24.9421  26.4092  30.5432

          k =-0.4167 0.4167-0.4167 (  5468 PWs)   bands (ev):

   -45.3496 -18.1838 -17.2772 -17.2772 -16.4720   0.0512   1.3669   1.3669
    12.1591  14.9897  22.2303  22.2303  25.0888  25.0888  26.1850  29.7354

          k = 0.5000-0.5000 0.5000 (  5444 PWs)   bands (ev):

   -45.3485 -18.2089 -17.2781 -17.2781 -16.4369  -0.0384   1.3493   1.3493
    12.7041  14.4739  22.2455  22.2455  25.1878  25.1878  26.1114  29.4086

          k = 0.0000 0.1667 0.0000 (  5465 PWs)   bands (ev):

   -45.3629 -17.6715 -17.2688 -17.2688 -17.1030   1.4441   1.5869   1.5869
     8.5351  19.8861  21.1241  21.1241  25.3439  25.4582  26.5100  29.4990

          k =-0.0833 0.2500-0.0833 (  5466 PWs)   bands (ev):

   -45.3606 -17.7986 -17.2731 -17.2707 -16.9548   1.1781   1.5420   1.5449
     9.0737  18.7249  21.2808  21.3543  24.5163  26.4088  26.8748  29.6685

          k =-0.1667 0.3333-0.1667 (  5453 PWs)   bands (ev):

   -45.3570 -17.9397 -17.2775 -17.2728 -16.7831   0.7992   1.4773   1.4777
     9.9331  17.4462  21.5494  21.6822  23.9108  26.0922  27.4777  30.4263

          k =-0.2500 0.4167-0.2500 (  5454 PWs)   bands (ev):

   -45.3531 -18.0577 -17.2809 -17.2766 -16.6308   0.4300   1.3992   1.4116
    10.9585  16.3024  21.7948  21.8183  23.7895  25.8740  27.3591  30.9807

          k =-0.3333 0.5000-0.3333 (  5460 PWs)   bands (ev):

   -45.3499 -18.1391 -17.2822 -17.2814 -16.5204   0.1534   1.3314   1.3610
    12.0002  15.3099  21.6437  22.0211  24.0824  25.7515  27.1921  30.5384

          k = 0.5833-0.4167 0.5833 (  5465 PWs)   bands (ev):

   -45.3482 -18.1778 -17.2857 -17.2812 -16.4661   0.0184   1.2918   1.3388
    12.7960  14.5782  21.4588  22.1783  24.4631  25.5366  27.0860  30.2135

          k = 0.5000-0.3333 0.5000 (  5471 PWs)   bands (ev):

   -45.3485 -18.1716 -17.2884 -17.2782 -16.4748   0.0462   1.2905   1.3506
    12.5903  14.7734  21.3398  22.3428  24.8096  25.0702  27.0558  30.3522

          k = 0.4167-0.2500 0.4167 (  5455 PWs)   bands (ev):

   -45.3508 -18.1208 -17.2884 -17.2739 -16.5454   0.2321   1.3280   1.3938
    11.6589  15.6361  21.2848  22.4972  24.4546  25.0954  27.1543  30.9057

          k = 0.3333-0.1667 0.3333 (  5453 PWs)   bands (ev):

   -45.3544 -18.0288 -17.2856 -17.2695 -16.6694   0.5455   1.3956   1.4572
    10.6056  16.6761  21.2440  22.4027  24.1525  25.3540  27.3401  31.2366

          k = 0.2500-0.0833 0.2500 (  5449 PWs)   bands (ev):

   -45.3584 -17.9031 -17.2802 -17.2661 -16.8308   0.9257   1.4771   1.5243
     9.6193  17.8553  21.1757  21.9307  24.4934  25.6811  27.2754  30.1908

          k = 0.1667-0.0000 0.1667 (  5463 PWs)   bands (ev):

   -45.3616 -17.7612 -17.2729 -17.2647 -17.0035   1.2758   1.5528   1.5768
     8.8495  19.1060  21.1263  21.4510  25.2010  26.0325  26.2348  29.4913

          k = 0.0000 0.3333 0.0000 (  5457 PWs)   bands (ev):

   -45.3591 -17.8241 -17.2796 -17.2796 -16.9096   1.0558   1.5038   1.5038
     9.4314  18.2685  21.3048  21.3048  23.4132  27.0644  28.2705  29.6155

          k =-0.0833 0.4167-0.0833 (  5448 PWs)   bands (ev):

   -45.3561 -17.8938 -17.2860 -17.2843 -16.8169   0.8016   1.4376   1.4459
    10.1380  17.3927  21.4084  21.4663  22.5731  27.1779  29.2149  29.6319

          k =-0.1667 0.5000-0.1667 (  5467 PWs)   bands (ev):

   -45.3526 -17.9744 -17.2904 -17.2891 -16.7104   0.5237   1.3407   1.3842
    11.0735  16.4728  21.0375  21.6756  22.4993  27.0451  29.2064  29.8889

          k =-0.2500 0.5833-0.2500 (  5457 PWs)   bands (ev):

   -45.3493 -18.0426 -17.2970 -17.2918 -16.6160   0.2975   1.2350   1.3347
    12.1048  15.6128  20.4868  21.8726  22.7869  26.8468  29.2496  30.1504

          k = 0.6667-0.3333 0.6667 (  5448 PWs)   bands (ev):

   -45.3473 -18.0870 -17.3064 -17.2898 -16.5518   0.1668   1.1513   1.3102
    13.0509  14.8459  20.0892  22.0565  23.1292  26.4844  29.0372  31.0988

          k = 0.5833-0.2500 0.5833 (  5451 PWs)   bands (ev):

   -45.3470 -18.1025 -17.3137 -17.2849 -16.5291   0.1508   1.1149   1.3168
    13.2410  14.7103  19.8929  22.2724  23.6018  25.7900  28.8084  31.7787

          k = 0.5000-0.1667 0.5000 (  5457 PWs)   bands (ev):

   -45.3486 -18.0883 -17.3155 -17.2784 -16.5523   0.2480   1.1401   1.3533
    12.4134  15.4273  19.9299  22.5737  24.2235  24.7906  28.7041  31.4749

          k = 0.4167-0.0833 0.4167 (  5455 PWs)   bands (ev):

   -45.3516 -18.0461 -17.3097 -17.2720 -16.6188   0.4370   1.2255   1.4104
    11.3930  16.2426  20.2105  22.9702  23.7479  24.8695  28.6567  31.1524

          k = 0.3333 0.0000 0.3333 (  5468 PWs)   bands (ev):

   -45.3551 -17.9810 -17.2968 -17.2675 -16.7181   0.6800   1.3513   1.4731
    10.4141  17.0610  20.6706  22.6398  23.7236  25.3946  28.3081  30.6609

          k = 0.0000 0.5000 0.0000 (  5457 PWs)   bands (ev):

   -45.3539 -17.8709 -17.2946 -17.2946 -16.8245   0.6777   1.3957   1.3957
    10.6748  16.9333  21.2782  21.5328  21.5328  27.9690  28.8098  31.5964

          k =-0.0833 0.5833-0.0833 (  5467 PWs)   bands (ev):

   -45.3510 -17.8778 -17.3023 -17.3010 -16.8019   0.5132   1.3141   1.3409
    11.4739  16.3240  20.2085  21.6711  21.7738  28.2563  28.4814  31.8489

          k =-0.1667 0.6667-0.1667 (  5470 PWs)   bands (ev):

   -45.3481 -17.9059 -17.3157 -17.3035 -16.7517   0.3857   1.1789   1.2957
    12.4391  15.7245  19.3538  21.8230  21.9385  28.2067  28.7052  31.6087

          k = 0.7500-0.2500 0.7500 (  5452 PWs)   bands (ev):

   -45.3461 -17.9435 -17.3342 -17.3015 -16.6883   0.3290   1.0218   1.2717
    13.4346  15.1320  18.7620  21.9729  22.0561  27.8763  29.4628  31.1833

          k = 0.6667-0.1667 0.6667 (  5446 PWs)   bands (ev):

   -45.3455 -17.9826 -17.3481 -17.2955 -16.6312   0.3364   0.9032   1.2751
    13.9865  14.8006  18.4753  22.1454  22.3872  27.0944  30.3008  30.9660

          k = 0.5833-0.0833 0.5833 (  5450 PWs)   bands (ev):

   -45.3464 -18.0173 -17.3486 -17.2870 -16.5963   0.3619   0.8991   1.3052
    13.2994  15.3527  18.6070  22.3838  23.0703  25.8906  30.1647  31.2257

          k = 0.5000 0.0000 0.5000 (  5452 PWs)   bands (ev):

   -45.3486 -18.0409 -17.3340 -17.2785 -16.5919   0.3826   1.0312   1.3546
    12.3401  15.8400  19.2350  22.7178  23.9886  24.6181  29.6639  31.1119

          k = 0.0000 0.6667 0.0000 (  5462 PWs)   bands (ev):

   -45.3488 -17.7939 -17.3096 -17.3096 -16.8840   0.4310   1.2936   1.2936
    12.1247  15.9635  19.1923  21.7449  21.7449  27.6537  29.1707  33.6188

          k =-0.0833 0.7500-0.0833 (  5476 PWs)   bands (ev):

   -45.3465 -17.7492 -17.3252 -17.3141 -16.9147   0.3666   1.2066   1.2547
    12.9769  15.5925  18.2581  21.7720  21.8439  27.4584  29.5680  33.5282

          k = 0.8333-0.1667 0.8333 (  5458 PWs)   bands (ev):

   -45.3449 -17.7589 -17.3612 -17.3132 -16.8664   0.3747   1.0333   1.2340
    13.9370  15.2592  17.5446  21.6244  21.9427  28.0177  29.5365  32.6019

          k = 0.7500-0.0833 0.7500 (  5454 PWs)   bands (ev):

   -45.3443 -17.8238 -17.3842 -17.3071 -16.7718   0.4719   0.8042   1.2368
    14.6655  14.9897  17.1991  21.6251  22.0491  28.8366  29.1017  31.3948

          k = 0.6667-0.0000 0.6667 (  5450 PWs)   bands (ev):

   -45.3448 -17.9211 -17.3763 -17.2976 -16.6735   0.5470   0.6731   1.2627
    14.1410  15.3002  17.5674  22.1109  22.1900  27.3778  30.4164  31.1116

          k = 0.0000 0.8333 0.0000 (  5458 PWs)   bands (ev):

   -45.3450 -17.6106 -17.3208 -17.3208 -17.0680   0.3194   1.2224   1.2224
    13.7022  15.3778  17.2535  21.8933  21.8933  26.7185  30.4861  34.2019

          k = 0.9167-0.0833 0.9167 (  5461 PWs)   bands (ev):

   -45.3440 -17.5511 -17.3771 -17.3217 -17.0729   0.3220   1.1429   1.2069
    14.5640  15.2226  16.4460  21.7667  21.9429  26.8529  30.8881  33.0912

          k = 0.8333 0.0000 0.8333 (  5458 PWs)   bands (ev):

   -45.3437 -17.6505 -17.4107 -17.3167 -16.9330   0.3955   0.9676   1.2121
    15.0822  15.1485  16.2473  21.5000  21.9890  27.7757  30.8820  31.1633

          k = 0.0000-1.0000 0.0000 (  5434 PWs)   bands (ev):

   -45.3437 -17.4240 -17.3248 -17.3248 -17.2577   0.2918   1.1970   1.1970
    15.1305  15.1821  15.7115  21.9467  21.9467  26.3638  31.2139  34.2167

          k =-0.1667 0.3333 0.0000 (  5453 PWs)   bands (ev):

   -45.3580 -17.8849 -17.2842 -17.2713 -16.8426   0.9320   1.4620   1.5060
     9.6927  17.8548  21.1085  21.7820  23.6440  26.4286  28.0747  29.8415

          k =-0.2500 0.4167-0.0833 (  5463 PWs)   bands (ev):

   -45.3544 -17.9797 -17.2941 -17.2735 -16.7163   0.6292   1.3616   1.4452
    10.5835  16.8778  20.8871  22.2872  23.1222  26.1561  28.5532  30.2873

          k =-0.3333 0.5000-0.1667 (  5453 PWs)   bands (ev):

   -45.3509 -18.0584 -17.3001 -17.2783 -16.6072   0.3542   1.2676   1.3805
    11.6074  15.9468  20.6480  22.2304  23.4665  25.8266  28.5429  30.7435

          k = 0.5833-0.4167 0.7500 (  5463 PWs)   bands (ev):

   -45.3482 -18.1092 -17.3022 -17.2837 -16.5345   0.1663   1.2015   1.3322
    12.6101  15.0905  20.4704  22.0122  24.0377  25.5218  28.5352  31.2802

          k = 0.5000-0.3333 0.6667 (  5448 PWs)   bands (ev):

   -45.3473 -18.1266 -17.3023 -17.2863 -16.5091   0.1000   1.1778   1.3144
    13.1917  14.5761  20.4093  21.9273  24.2877  25.3783  28.5435  31.3592

          k =-0.1667 0.5000 0.0000 (  5463 PWs)   bands (ev):

   -45.3532 -17.9242 -17.2998 -17.2862 -16.7642   0.6107   1.3441   1.3963
    10.8846  16.7297  20.8057  21.8983  22.0263  27.3451  29.2341  30.4004

          k =-0.2500 0.5833-0.0833 (  5462 PWs)   bands (ev):

   -45.3500 -17.9627 -17.3112 -17.2914 -16.7002   0.4342   1.2236   1.3344
    11.8280  16.0531  20.0587  21.5608  22.6576  27.1119  29.3744  30.7233

          k = 0.6667-0.3333 0.8333 (  5471 PWs)   bands (ev):

   -45.3474 -17.9975 -17.3195 -17.2983 -16.6409   0.3141   1.1003   1.2859
    12.8392  15.3822  19.4867  21.3308  23.2300  26.7153  29.9596  30.6696

          k = 0.5833-0.2500 0.7500 (  5454 PWs)   bands (ev):

   -45.3461 -18.0221 -17.3277 -17.2992 -16.6002   0.2649   1.0126   1.2675
    13.6783  14.7712  19.1680  21.2713  23.7265  26.1779  30.4127  30.9938

          k = 0.5000-0.1667 0.6667 (  5449 PWs)   bands (ev):

   -45.3464 -18.0334 -17.3324 -17.2933 -16.5871   0.2818   0.9973   1.2836
    13.4050  15.0254  19.1287  21.4637  24.2270  25.4294  30.2562  31.1641

          k = 0.4167-0.0833 0.5833 (  5452 PWs)   bands (ev):

   -45.3483 -18.0301 -17.3282 -17.2846 -16.6051   0.3531   1.0694   1.3286
    12.4663  15.6885  19.4314  21.8662  24.1860  25.1218  30.0081  30.6693

          k = 0.3333 0.0000 0.5000 (  5459 PWs)   bands (ev):

   -45.3512 -18.0117 -17.3142 -17.2772 -16.6514   0.4717   1.2075   1.3889
    11.4705  16.2919  20.0686  22.3912  23.2476  25.7118  29.5918  30.3306

          k =-0.1667 0.6667-0.0000 (  5467 PWs)   bands (ev):

   -45.3484 -17.8513 -17.3155 -17.3080 -16.8123   0.4190   1.2324   1.2803
    12.2933  15.8798  19.2412  21.3926  22.2149  28.1039  28.6306  32.9370

          k = 0.7500-0.2500 0.9167 (  5453 PWs)   bands (ev):

   -45.3462 -17.8494 -17.3340 -17.3172 -16.7850   0.3823   1.0882   1.2300
    13.2513  15.4711  18.4530  21.0053  22.7237  28.0577  28.7844  32.3461

          k = 0.6667-0.1667 0.8333 (  5455 PWs)   bands (ev):

   -45.3448 -17.8740 -17.3578 -17.3158 -16.7313   0.4180   0.9040   1.2131
    14.1812  15.0374  17.9564  20.7495  23.1616  27.6686  29.3984  31.5484

          k = 0.5833-0.0833 0.7500 (  5453 PWs)   bands (ev):

   -45.3448 -17.9218 -17.3663 -17.3074 -16.6731   0.4771   0.7760   1.2292
    14.2250  15.1035  17.8900  20.8469  23.6360  26.6943  30.3937  31.0508

          k = 0.5000 0.0000 0.6667 (  5449 PWs)   bands (ev):

   -45.3461 -17.9798 -17.3539 -17.2956 -16.6278   0.4228   0.8654   1.2722
    13.4009  15.4755  18.4242  21.2875  24.2711  25.4324  30.6936  31.1210

          k = 0.8333-0.1667 1.0000 (  5460 PWs)   bands (ev):

   -45.3449 -17.6867 -17.3478 -17.3271 -16.9483   0.3528   1.1545   1.1885
    13.8328  15.3570  17.3929  21.2781  22.3396  27.3775  29.9310  32.6626

          k = 0.7500-0.0833 0.9167 (  5459 PWs)   bands (ev):

   -45.3440 -17.6991 -17.3900 -17.3293 -16.8869   0.4120   0.9883   1.1676
    14.7161  15.1720  16.8138  20.7495  22.7672  27.9899  29.6018  31.4214

          k = 0.6667 0.0000 0.8333 (  5453 PWs)   bands (ev):

   -45.3439 -17.7956 -17.3929 -17.3211 -16.7806   0.5401   0.7596   1.1862
    14.8407  15.1865  16.9420  20.5433  23.1503  28.2810  29.0972  31.0089

          k =-0.1667-1.0000-0.0000 (  5462 PWs)   bands (ev):

   -45.3437 -17.5398 -17.4172 -17.3314 -17.0328   0.3444   1.1267   1.1522
    15.1351  15.1809  15.9860  21.2330  22.3838  27.0958  31.1698  31.6069

          k = 0.6667-0.3333 1.0000 (  5469 PWs)   bands (ev):

   -45.3474 -17.9456 -17.3317 -17.3020 -16.6875   0.3983   1.0716   1.2666
    12.7522  15.6868  19.1285  20.9495  23.5255  26.5791  29.5473  31.8533

          k = 0.5833-0.2500 0.9167 (  5455 PWs)   bands (ev):

   -45.3455 -17.9293 -17.3456 -17.3162 -16.6769   0.4152   0.9265   1.2084
    13.7062  15.2902  18.5002  20.4028  24.3881  25.9694  29.9611  31.5868

          k = 0.5000-0.1667 0.8333 (  5464 PWs)   bands (ev):

   -45.3448 -17.9225 -17.3502 -17.3231 -16.6727   0.4374   0.8586   1.1860
    14.3503  14.8833  18.2843  20.1748  24.8730  25.5975  30.4026  30.9825

          k = 0.6667-0.1667 1.0000 (  5449 PWs)   bands (ev):

   -45.3446 -17.8081 -17.3516 -17.3446 -16.7853   0.4441   0.9768   1.1333
    14.1515  15.3051  17.7497  20.1447  23.6354  27.5767  28.9428  31.5350

          k = 0.5833-0.0833 0.9167 (  5457 PWs)   bands (ev):

   -45.3439 -17.8066 -17.3744 -17.3483 -16.7581   0.5638   0.8035   1.0978
    14.8797  15.0926  17.4426  19.6018  24.4506  26.8100  29.3360  30.8571

          k = 0.5000 0.0000 0.8333 (  5461 PWs)   bands (ev):

   -45.3442 -17.8555 -17.3686 -17.3372 -16.7182   0.5794   0.7502   1.1332
    14.5172  15.2425  17.7364  19.7081  25.1864  25.6726  29.8645  30.8273

          k =-0.3333-1.0000 0.0000 (  5472 PWs)   bands (ev):

   -45.3436 -17.7134 -17.3989 -17.3494 -16.8392   0.4930   0.9429   1.0636
    15.1472  15.1750  16.7153  19.8986  23.6655  28.4156  28.4440  30.9288

          k =-0.5000-1.0000 0.0000 (  5440 PWs)   bands (ev):

   -45.3436 -17.7759 -17.3741 -17.3741 -16.7665   0.7092   0.7092   1.0198
    15.1626  15.1626  17.3446  19.0380  25.7130  25.7130  29.2730  30.5831

     the Fermi energy is     4.3894 ev

!    total energy              =    -133.20272962 Ry
     estimated scf accuracy    <          4.3E-13 Ry
     smearing contrib. (-TS)   =      -0.00000000 Ry
     internal energy E=F+TS    =    -133.20272962 Ry

     The total energy is F=E-TS. E is the sum of the following terms:
     one-electron contribution =     -64.76811138 Ry
     hartree contribution      =      38.45968243 Ry
     xc contribution           =     -22.01154851 Ry
     ewald contribution        =     -84.88275216 Ry

     convergence has been achieved in   9 iterations

     Writing all to output data dir out/mp-682.save/
 
     init_run     :      0.40s CPU      0.54s WALL (       1 calls)
     electrons    :      8.65s CPU     10.10s WALL (       1 calls)

     Called by init_run:
     wfcinit      :      0.35s CPU      0.46s WALL (       1 calls)
     potinit      :      0.01s CPU      0.01s WALL (       1 calls)
     hinit0       :      0.01s CPU      0.04s WALL (       1 calls)

     Called by electrons:
     c_bands      :      7.33s CPU      8.12s WALL (      10 calls)
     sum_band     :      1.27s CPU      1.44s WALL (      10 calls)
     v_of_rho     :      0.03s CPU      0.04s WALL (      10 calls)
     mix_rho      :      0.01s CPU      0.02s WALL (      10 calls)

     Called by c_bands:
     init_us_2    :      0.07s CPU      0.08s WALL (    1512 calls)
     init_us_2:cp :      0.06s CPU      0.07s WALL (    1512 calls)
     cegterg      :      6.93s CPU      7.33s WALL (     720 calls)

     Called by *egterg:
     cdiaghg      :      0.70s CPU      0.74s WALL (    2535 calls)
     h_psi        :      6.06s CPU      6.43s WALL (    2679 calls)
     g_psi        :      0.03s CPU      0.03s WALL (    1887 calls)

     Called by h_psi:
     h_psi:calbec :      0.10s CPU      0.10s WALL (    2679 calls)
     vloc_psi     :      5.89s CPU      6.25s WALL (    2679 calls)
     add_vuspsi   :      0.05s CPU      0.06s WALL (    2679 calls)

     General routines
     calbec       :      0.09s CPU      0.09s WALL (    2679 calls)
     fft          :      0.02s CPU      0.04s WALL (     100 calls)
     ffts         :      0.00s CPU      0.00s WALL (      10 calls)
     fftw         :      6.45s CPU      6.85s WALL (   74930 calls)
     davcio       :      0.11s CPU      0.56s WALL (    2390 calls)
 
     Parallel routines
 
     PWSCF        :      9.28s CPU     12.87s WALL

 
   This run was terminated on:  20:13:30  15Nov2023            

=------------------------------------------------------------------------------=
   JOB DONE.
=------------------------------------------------------------------------------=
