
     Program PWSCF v.7.1 starts on 14Nov2023 at 20:31: 3 

     This program is part of the open-source Quantum ESPRESSO suite
     for quantum simulation of materials; please cite
         "P. Giannozzi et al., J. Phys.:Condens. Matter 21 395502 (2009);
         "P. Giannozzi et al., J. Phys.:Condens. Matter 29 465901 (2017);
         "P. Giannozzi et al., J. Chem. Phys. 152 154105 (2020);
          URL http://www.quantum-espresso.org", 
     in publications or presentations arising from this work. More details at
     http://www.quantum-espresso.org/quote

     Parallel version (MPI), running on     8 processors

     MPI processes distributed on     1 nodes
     123160 MiB available memory on the printing compute node when the environment starts
 
     Reading input from pw_mp-682_nscf_k0_E159.in
Warning: card &IONS ignored
Warning: card / ignored
Warning: card &CELL ignored
Warning: card / ignored

     Current dimensions of program PWSCF are:
     Max number of different atomic species (ntypx) = 10
     Max number of k-points (npk) =  40000
     Max angular momentum in pseudopotentials (lmaxx) =  4

     Atomic positions and unit cell read from directory:
     out/mp-682.save/
     Atomic positions from file used, from input discarded
 
 
     R & G space division:  proc/nbgrp/npool/nimage =       8
     Subspace diagonalization in iterative solution of the eigenvalue problem:
     one sub-group per band group will be used
     scalapack distributed-memory algorithm (size of sub-group:  2*  2 procs)

 
     Parallelization info
     --------------------
     sticks:   dense  smooth     PW     G-vecs:    dense   smooth      PW
     Min         204     204     52                 5455     5455     696
     Max         205     205     53                 5458     5458     698
     Sum        1639    1639    421                43655    43655    5577
 
     Using Slab Decomposition
 


     bravais-lattice index     =            2
     lattice parameter (alat)  =       8.6394  a.u.
     unit-cell volume          =     161.2111 (a.u.)^3
     number of atoms/cell      =            2
     number of atomic types    =            2
     number of electrons       =        16.00
     number of Kohn-Sham states=         2080
     kinetic-energy cutoff     =     159.0000  Ry
     charge density cutoff     =     636.0000  Ry
     Exchange-correlation= PBE
                           (   1   4   3   4   0   0   0)

     celldm(1)=   8.639428  celldm(2)=   0.000000  celldm(3)=   0.000000
     celldm(4)=   0.000000  celldm(5)=   0.000000  celldm(6)=   0.000000

     crystal axes: (cart. coord. in units of alat)
               a(1) = (  -0.500000   0.000000   0.500000 )  
               a(2) = (   0.000000   0.500000   0.500000 )  
               a(3) = (  -0.500000   0.500000   0.000000 )  

     reciprocal axes: (cart. coord. in units 2 pi/alat)
               b(1) = ( -1.000000 -1.000000  1.000000 )  
               b(2) = (  1.000000  1.000000  1.000000 )  
               b(3) = ( -1.000000  1.000000 -1.000000 )  


     PseudoPot. # 1 for F  read from file:
     /usr/scratch4/magr4985/MG/HTDF/pseudo/SG15/F.upf
     MD5 check sum: 1d8275f47d602dd53cad6bcdc0eda7dc
     Pseudo is Norm-conserving, Zval =  7.0
     Generated using ONCVPSP code by D. R. Hamann
     Using radial grid of  602 points,  4 beta functions with: 
                l(1) =   0
                l(2) =   0
                l(3) =   1
                l(4) =   1

     PseudoPot. # 2 for Na read from file:
     /usr/scratch4/magr4985/MG/HTDF/pseudo/SG15/Na.upf
     MD5 check sum: 425b17ce8ead78efa4860b7b3310c7e3
     Pseudo is Norm-conserving, Zval =  9.0
     Generated using ONCVPSP code by D. R. Hamann
     Using radial grid of  602 points,  4 beta functions with: 
                l(1) =   0
                l(2) =   0
                l(3) =   1
                l(4) =   1

     atomic species   valence    mass     pseudopotential
        F              7.00    18.99840     F ( 1.00)
        Na             9.00    22.98980     Na( 1.00)

     48 Sym. Ops., with inversion, found



   Cartesian axes

     site n.     atom                  positions (alat units)
         1           Na  tau(   1) = (   0.0000000   0.0000000   0.0000000  )
         2           F   tau(   2) = (  -0.5000000   0.5000000   0.5000000  )

     number of k points=     1  Gaussian smearing, width (Ry)=  0.0005
                       cart. coord. in units 2pi/alat
        k(    1) = (   0.0000000   0.0000000   0.0000000), wk =   2.0000000

     Dense  grid:    43655 G-vectors     FFT dimensions: (  50,  50,  50)

     Estimated max dynamical RAM per process >     310.19 MB

     Estimated total dynamical RAM >       2.42 GB

     The potential is recalculated from file :
     out/mp-682.save/charge-density

     Starting wfcs are random

     Band Structure Calculation
     Davidson diagonalization with overlap

     ethr =  5.00E-06,  avg # of iterations =  4.0

     total cpu time spent up to now is      467.0 secs

     End of band structure calculation

          k = 0.0000 0.0000 0.0000 (  5577 PWs)   bands (ev):

   -45.3643 -17.5272 -17.2648 -17.2648 -17.2648   1.6183   1.6183   1.6183
     8.1952  21.0545  21.0545  21.0545  23.8915  26.3237  26.3237  29.1737
    29.1737  29.1737  36.2917  36.2917  36.2917  41.8612  51.1761  51.1761
    51.1761  52.7273  55.4662  55.4662  55.9197  55.9197  55.9197  65.0009
    65.0009  68.4829  68.4829  68.4829  71.1553  71.1553  71.1553  75.6115
    75.6115  75.6115  76.7713  76.7713  76.7713  78.1891  78.1891  78.1891
    78.3558  80.4797  80.4797  80.4797  81.0081  81.0081  81.0957  81.3291
    81.3291  81.3291  82.1547  90.6030  90.6030  90.6030  98.9461  98.9461
    98.9461 104.9492 104.9492 106.6096 118.3624 118.3624 118.3624 121.9664
   123.4851 123.4851 123.4851 128.7318 128.7318 129.3758 129.3758 129.3758
   131.8909 132.6811 132.6811 132.6811 133.6889 133.6889 134.1287 135.0870
   135.0870 135.0870 136.2493 136.2493 136.2493 137.0048 137.0048 137.0048
   137.1968 137.1968 137.1968 137.2158 137.2158 139.2362 139.2362 139.2362
   140.6797 140.6797 140.6797 142.0137 142.0137 143.0042 143.0042 143.0042
   143.7398 152.7583 152.7583 152.7583 156.4174 156.4174 156.4174 162.6999
   162.6999 162.6999 163.4006 165.6063 169.2932 169.2932 169.4873 169.4873
   169.4873 169.8259 169.8259 169.8259 170.0403 170.0403 170.0403 170.1257
   170.1257 170.1257 170.2651 170.2651 172.7106 172.7106 180.8298 185.1798
   185.1798 185.1798 185.6405 185.6405 185.6405 188.0850 190.1568 190.2983
   190.2983 190.2983 190.6756 190.6756 190.6756 191.6273 191.6273 191.6273
   191.8294 191.8294 191.8294 195.4108 195.4108 195.4689 195.4689 195.4689
   195.5711 200.7126 200.7126 200.7126 215.3948 215.3948 215.3948 221.8141
   221.8141 221.8141 222.8812 222.8812 223.1924 223.1924 223.1924 225.2290
   234.3693 234.3693 234.3693 235.7734 235.7734 235.7734 236.5272 236.5272
   237.9346 237.9346 237.9346 241.6541 243.4692 243.4692 243.4692 244.8432
   244.8432 244.8432 245.3387 245.3387 246.4777 246.7844 246.7844 246.9694
   246.9694 246.9694 247.5843 247.5843 247.5843 247.9870 248.0203 248.3476
   248.3476 248.3476 249.5846 249.5846 249.5846 249.5998 249.5998 250.3567
   250.3567 250.3567 250.9807 250.9807 250.9807 251.5064 251.6486 251.6486
   251.6486 252.1567 252.1567 252.1567 252.2798 252.2798 252.7676 252.7676
   252.7676 253.0535 255.3356 255.5834 255.5834 255.5834 255.9437 255.9437
   255.9437 255.9839 255.9839 256.2836 256.2836 256.2836 256.3800 256.3800
   256.3800 256.4492 256.4492 271.5377 271.5377 271.5377 275.9302 275.9302
   280.8370 280.8370 280.8370 281.0421 281.0421 281.0421 281.2494 281.2494
   281.2494 281.5861 281.5861 281.5861 281.8296 286.0739 286.0739 286.1359
   286.1359 286.1359 286.2674 288.0193 288.0193 288.0193 297.5818 297.5818
   297.5818 297.9462 303.1200 305.1646 305.1646 305.1646 305.7100 305.7100
   305.8842 305.8842 305.8842 306.0292 306.0292 306.0292 306.2224 306.2224
   306.2224 306.2771 306.2771 306.2771 306.4368 306.4368 310.7104 310.7104
   310.7104 311.0277 311.0277 311.2923 311.4333 311.4333 311.4333 311.5976
   311.5976 311.5976 311.8007 311.8007 311.8007 312.1305 312.1305 312.1305
   312.3679 312.3679 314.6564 328.5865 328.5865 328.5865 336.5951 336.5951
   336.5951 338.7086 338.7086 338.7086 338.8828 341.0490 343.6757 343.6757
   351.9474 353.1282 353.1282 353.1282 353.8270 353.8270 353.8270 354.7377
   354.7377 354.7377 354.9515 354.9515 354.9515 355.6849 355.6849 360.8116
   362.0304 362.0304 362.0304 362.5936 362.5936 362.5936 362.7897 362.7897
   362.7897 362.7932 362.7932 363.0451 363.0451 363.0451 363.3407 363.3407
   363.3407 363.4550 363.4550 363.4550 365.0577 365.4492 365.4492 365.4492
   365.7373 365.7373 365.7373 365.8804 365.8804 365.9809 365.9809 365.9809
   368.0506 368.0711 368.0711 368.0711 368.0952 368.0952 369.8602 369.8602
   369.8602 369.9828 369.9828 370.1683 370.2747 370.2747 370.2747 370.5688
   370.5688 370.5688 370.8033 386.5444 386.5444 386.5444 391.2652 391.3183
   391.3183 391.3183 395.2057 395.2057 395.3168 395.3168 395.3168 395.4263
   395.4263 395.4263 395.7011 395.7011 395.7011 396.0010 396.0010 396.0010
   396.1473 396.1473 398.1930 398.6397 398.6397 398.6397 400.0498 400.0498
   400.1795 400.1795 400.1795 400.2491 400.2491 400.2491 400.3455 400.3455
   400.3455 400.3918 400.3918 400.3918 400.5044 400.5044 401.7933 401.8084
   401.8084 401.8084 401.8523 401.8523 401.8523 401.9229 408.7005 408.7005
   408.7005 408.9092 408.9092 411.0271 411.0271 411.0271 411.1966 412.1920
   412.1920 412.1920 413.0493 413.0493 413.0493 415.1302 415.1302 415.1302
   415.9302 416.4251 416.4251 416.4251 416.8310 416.8310 417.2799 417.2799
   417.2799 417.9046 419.1118 420.3392 420.3392 421.0539 421.0539 421.0539
   421.2734 421.2734 421.2734 421.2957 421.2957 421.2957 421.9548 421.9548
   422.0042 422.0042 422.0042 422.4032 422.6003 422.6003 422.6003 422.6499
   422.6499 424.0031 424.0031 424.0031 424.1115 424.1115 424.1115 424.2446
   424.2446 424.2446 424.3217 424.3217 424.3217 425.1364 425.1910 425.1910
   425.1910 425.2311 425.2311 443.8796 443.8796 443.8796 448.1991 448.1991
   452.0196 466.0843 466.0843 466.0843 474.9030 474.9030 474.9030 475.3824
   475.3824 475.3824 475.5415 475.6619 475.6619 476.1451 476.1451 476.1451
   476.4119 476.4119 476.4119 476.4922 476.4922 476.4922 476.7186 476.7186
   476.7186 476.8349 476.8349 476.8978 476.8978 476.8978 477.0421 477.0904
   477.0904 477.7995 477.7995 477.7995 478.6837 478.8504 481.9686 481.9686
   481.9686 482.1663 482.1663 482.1663 482.5056 482.5056 482.5056 482.6740
   482.6740 482.6740 482.8494 485.9893 485.9893 485.9933 485.9933 486.0532
   486.0532 486.0532 486.0727 486.0727 486.0727 486.2113 486.2113 486.2113
   486.2746 486.2746 486.2746 487.5258 487.5258 487.5305 487.5305 487.5305
   487.6314 505.1448 505.1448 505.1448 509.1812 509.1812 509.1812 509.3993
   509.3993 509.4044 509.4044 509.4044 512.4177 512.4606 512.4606 512.4606
   512.6670 512.6670 512.9073 512.9073 512.9073 513.2666 513.2666 513.2666
   513.2943 513.2943 513.2943 513.5138 513.5138 513.5138 513.5295 513.5418
   513.5418 513.5511 513.5511 513.5511 514.2250 517.9317 517.9317 517.9317
   522.3400 522.3400 522.3400 522.8195 522.8195 522.8578 522.8578 522.8578
   528.5526 531.8304 532.5542 532.5542 532.5542 532.5648 532.5648 532.5648
   532.7185 532.7185 532.8141 532.8141 532.8141 533.0060 533.0060 533.0060
   533.0989 533.0989 533.0989 533.3697 534.0851 537.3354 537.3354 537.3625
   537.3625 537.3625 537.4520 537.4520 537.4520 537.5399 537.5399 537.5399
   537.5991 539.0383 539.0383 539.0383 539.5180 539.5180 539.5180 539.5339
   539.5339 539.5942 539.5942 539.5942 539.6647 539.6647 539.6647 539.7185
   540.4607 540.4607 540.4607 540.8502 540.8502 540.8807 540.8807 540.8807
   540.9900 541.5030 541.5030 541.5030 541.7367 541.7367 541.7367 541.9895
   541.9895 541.9899 541.9899 541.9899 542.5465 563.4545 563.4545 563.4545
   567.0804 567.0804 568.1549 568.1549 568.1549 568.1683 568.1683 568.1683
   568.2607 568.2607 568.2607 568.3948 568.3948 568.3948 569.1250 569.1250
   569.2428 569.2428 569.2428 569.4043 569.5763 573.0050 573.0050 573.0050
   574.4901 574.4901 577.7888 582.8979 582.8979 582.8979 584.3925 584.3925
   584.3925 584.5058 587.9422 588.8767 588.8767 588.8767 589.1513 589.1513
   589.1513 589.2301 589.2301 589.2301 589.2783 589.2783 589.2945 589.2945
   589.2945 589.4734 589.4734 592.9758 592.9758 592.9758 593.0824 593.0824
   593.0824 593.1660 593.1660 593.1660 593.2113 593.2113 593.2113 594.1895
   594.1895 594.3323 594.3323 594.3323 594.3675 594.3675 594.3675 594.3940
   594.3940 594.4124 594.4124 594.4124 594.5387 594.5387 594.5387 594.5830
   594.5830 594.5830 595.7359 595.7359 595.7359 595.8373 595.9676 595.9676
   595.9676 595.9702 595.9702 595.9702 595.9950 596.0061 596.2895 596.2895
   596.2895 596.3192 596.3192 596.5085 596.5085 596.5085 596.5576 596.5576
   596.5576 596.7380 596.7380 596.7380 596.8313 596.8313 598.2930 598.3625
   598.3625 598.3625 598.3979 598.3979 598.9042 601.2730 601.2730 601.3663
   601.3663 601.3663 601.5595 601.5595 601.5595 601.5653 601.5653 601.5653
   601.6606 601.7137 601.7137 601.7137 601.8100 601.8100 601.8266 601.8266
   601.8266 601.9852 601.9852 601.9852 602.0815 620.3123 620.3123 620.3123
   621.2435 621.2991 621.2991 621.2991 622.5846 629.9293 629.9293 629.9585
   629.9585 629.9585 629.9695 629.9695 629.9695 629.9742 629.9742 629.9742
   630.0230 630.0230 630.0727 630.0727 630.0727 637.4593 637.4593 637.4593
   639.2758 639.2758 642.0107 642.7420 642.7420 642.7420 642.8980 642.8980
   642.8980 642.9121 642.9121 642.9121 642.9849 642.9849 642.9849 647.5734
   647.5734 647.6338 647.6338 647.6338 647.6417 651.8330 651.8474 651.8474
   651.8474 651.8835 651.8835 654.1768 654.1768 654.1768 654.2017 654.2017
   654.2017 654.2044 654.2044 654.2044 654.2609 654.2609 654.2609 655.3328
   655.3328 655.3606 655.3606 655.3606 655.4457 681.2610 681.2610 681.2610
   683.8620 683.8620 683.8620 684.0512 684.6071 684.6165 684.6165 684.7252
   684.7252 684.7252 684.7996 684.7996 684.7996 684.8998 684.8998 684.8998
   684.9077 684.9077 684.9077 684.9905 684.9905 693.1782 693.1782 693.1782
   696.9984 696.9984 696.9984 698.1575 698.5037 699.1787 699.1787 699.2138
   699.2138 699.2138 700.9238 700.9238 700.9238 701.7966 701.7966 701.7966
   702.5907 703.7905 703.7905 703.7905 704.7752 704.7752 705.4655 705.4655
   705.4655 705.6663 705.6663 705.6663 705.7845 705.7845 705.7906 705.7906
   705.7906 706.1128 706.1128 706.1128 706.4804 707.1294 707.1294 707.1294
   707.2929 707.2929 707.4178 707.4178 707.4178 707.5140 707.6070 707.6070
   707.6070 707.7339 707.7339 707.7339 707.7828 707.7828 708.1393 708.1393
   708.1393 708.6287 709.7395 709.7395 709.7395 709.7662 709.7662 709.7662
   709.7870 709.7870 709.8621 709.8621 709.8931 709.8931 709.8931 709.9299
   709.9299 709.9299 710.7589 711.2591 711.2591 711.2653 711.2653 711.2653
   711.2654 711.2654 711.2654 711.2972 711.2972 711.2972 711.3364 715.5427
   715.5427 715.5427 715.5430 715.5430 715.5430 715.5448 715.5748 715.5748
   715.5748 715.5968 715.5968 734.7884 734.7884 734.7884 735.8382 735.8382
   736.6739 739.0908 739.0908 739.0908 739.4278 739.4278 739.4278 739.9560
   739.9560 739.9560 740.1030 740.4469 740.4469 740.5748 740.5748 740.5748
   740.7187 740.7187 740.7187 740.7211 740.8330 740.8330 740.8330 740.9290
   740.9290 741.4349 741.4349 741.4349 741.7409 741.7409 741.7409 741.7757
   741.7757 741.7757 742.0703 742.0703 742.0703 745.1403 745.1403 745.2332
   745.2791 745.2791 745.2791 745.3099 745.3099 745.3099 745.4231 745.4231
   745.4231 745.4269 745.4269 745.4269 745.4408 745.4408 745.5697 745.5697
   745.5697 745.6997 745.6997 745.6997 745.8103 746.6767 746.6767 746.7334
   746.7334 746.7334 746.8660 755.2177 755.2177 755.2177 756.7901 756.7901
   756.7901 756.9941 756.9941 757.0079 757.0079 757.0079 758.4438 758.6731
   758.6731 758.6731 758.8138 758.8138 758.8678 758.8678 758.8678 759.1511
   759.1511 759.1511 759.3665 762.6608 763.0191 763.0191 763.0191 763.3362
   763.3362 763.3362 763.7708 763.7708 763.7963 763.7963 763.7963 764.9543
   765.1523 765.1523 765.1523 765.3467 765.3467 765.3467 765.5209 765.5209
   765.5209 765.5299 765.5299 768.6845 768.6845 768.6845 768.6860 768.6860
   768.8302 768.8302 768.8302 768.9603 768.9603 768.9603 769.1005 769.1051
   769.2231 769.2231 769.2232 769.3101 769.3101 769.3101 769.3666 769.3666
   769.3780 769.3780 769.3780 770.1901 770.1901 770.1901 770.4230 770.4321
   770.4321 770.4321 770.6950 771.2481 771.2481 771.2481 771.4448 771.4448
   771.9318 771.9318 771.9318 771.9403 771.9403 771.9403 771.9809 771.9809
   771.9809 771.9824 772.0141 772.0141 772.0141 772.5500 772.5500 772.5845
   772.5845 772.5845 772.5879 816.4716 816.4716 816.4716 817.8817 818.0479
   818.0479 818.0479 818.1716 818.6313 818.6313 818.7360 818.7360 818.7360
   818.8756 818.8756 818.8756 818.9279 818.9279 818.9279 818.9970 818.9970
   818.9970 819.0850 819.0850 820.9886 820.9886 820.9886 821.6393 821.6393
   821.6393 821.7382 823.3609 824.1666 824.1666 824.2409 824.2409 824.2409
   824.3367 824.3367 824.3367 824.3498 824.3498 824.3498 824.4516 824.4516
   824.4516 824.4624 824.5066 824.5066 824.5825 824.5825 824.5825 824.7072
   824.7072 824.7072 824.7916 824.7916 824.8298 824.9602 824.9602 824.9602
   825.3695 825.3695 825.3695 825.7484 825.7484 825.7484 825.7710 825.7710
   825.7710 826.4271 826.4271 827.2325 827.2325 827.2325 827.3058 827.4281
   827.4282 827.6487 827.6487 827.6487 827.6741 827.6741 827.6741 827.7201
   827.7201 827.7201 827.9789 827.9789 827.9789 828.0325 828.3918 828.3918
   828.3918 828.3927 828.3927 831.7150 831.7150 831.7150 831.7383 831.7383
   831.8134 831.8134 831.8134 831.8785 831.8785 831.9082 831.9082 831.9082
   831.9135 831.9135 831.9135 833.4582 833.4700 833.4700 833.4700 833.4984
   833.4984 833.4984 833.5429 854.6697 854.6697 854.6697 855.1178 855.1178
   855.3018 855.5217 855.5217 855.5217 855.5542 855.5542 855.5542 855.5705
   855.5705 855.5705 855.6114 855.6114 855.6114 855.9173 855.9173 855.9190
   855.9458 855.9458 855.9458 860.4120 860.4120 860.4464 860.4464 860.4464
   860.5578 860.7066 860.7066 860.7066 860.7206 860.7206 860.7206 860.7293
   860.7293 860.7293 860.7696 860.7696 860.7696 860.9432 860.9814 860.9814
   860.9814 860.9820 860.9820 862.0360 862.0360 862.0360 862.2793 862.2793
   863.0830 872.3136 872.3136 872.3136 872.5841 872.5989 872.5989 872.5989
   873.0536 880.8305 880.8305 880.8305 880.8407 880.8407 880.8407 880.8483
   880.8483 880.8483 880.9050 880.9050 880.9050 881.7075 881.7075 881.7075
   881.7212 881.7212 881.7258 881.7258 881.7258 881.7396 881.7396 881.7562
   881.7562 881.7562 881.7794 881.7794 881.7794 886.1391 886.1693 886.1693
   886.1693 886.1836 886.1836 912.0767 912.0767 912.0767 912.3384 912.3384
   912.3384 912.3658 912.3658 912.3663 912.3663 912.3663 912.5889 922.8226
   922.8226 922.8226 924.1811 924.1811 924.2007 924.2007 924.2007 924.3650
   924.4907 924.4907 924.4907 927.0671 927.0671 927.3184 927.3184 927.3184
   928.4718 929.8827 929.8827 929.8827 930.5292 930.5292 930.5292 930.6884
   930.6884 930.6884 931.2843 931.2843 931.2843 934.2589 934.8982 934.8982
   934.8982 935.0122 935.0176 935.0176 935.4375 935.4375 935.4375 935.7310
   935.7310 935.7310 935.9508 935.9508 935.9508 935.9911 935.9911 935.9911
   936.1584 936.1584 936.2076 936.2076 936.4696 936.5716 936.5716 936.5716
   936.6638 936.6638 936.6638 936.9698 937.0444 937.0444 937.0444 937.1331
   937.1331 937.1331 937.3609 937.3609 937.3609 937.5009 937.5009 939.8428
   939.8813 939.8813 939.8813 939.9217 939.9217 940.2456 940.2456 940.2637
   940.2637 940.2637 940.3224 940.3224 940.3224 940.3967 940.3967 940.3967
   940.5071 941.4750 941.4750 941.4750 941.8933 941.8933 941.8933 942.0422
   942.0422 942.0422 942.0489 942.0489 942.0489 942.0905 942.0905 942.0905
   942.0969 942.0969 942.0969 942.1638 942.4104 942.5246 942.5246 942.5246
   942.5629 942.5629 942.5629 942.5812 942.5812 942.6183 942.6183 942.6212
   942.6212 942.6212 942.6265 942.7811 942.7811 942.7811 942.9478 942.9478
   942.9478 942.9861 942.9861 942.9861 943.0928 943.0928 943.0928 943.1598
   943.1598 943.2322 943.2322 943.2349 943.2349 943.2349 943.3107 944.3046
   944.3046 944.3688 944.3688 944.3688 944.4769 944.4769 944.4769 944.5714
   944.5714 944.5714 944.9114 944.9114 944.9114 944.9136 944.9136 945.0758
   945.3556 945.3556 945.3556 945.4719 945.4719 945.4719 945.5359 966.1344
   966.1344 966.1344 966.2232 966.2313 966.2313 966.2313 966.4481 971.0393
   971.0393 971.0393 971.0447 971.0447 971.0681 971.0681 971.0681 971.1204
   971.1204 971.1204 971.2400 971.2400 971.2400 971.2449 971.2449 971.2449
   971.2462 971.2462 971.2667 971.2667 971.2667 971.2947 971.3706 975.3225
   975.3226 975.3281 975.3281 975.3281 975.3553 975.3553 975.3556 975.3556
   975.3556 975.3641 975.3641 975.3641 975.3700 975.3700 975.3700 990.5440
   990.5440 990.5440 990.8234 990.8234 990.8234 990.9851 991.0567 991.3619
   991.3619 991.4047 991.4047 991.4048 991.5898 991.5898 991.5898 991.6612
   991.6612 991.6612 991.8112 991.8112 991.8112 991.8421 991.8421 993.8133
   993.8133 993.8795 993.8795 993.8795 994.1334 994.1334 994.1334 994.1601
   994.1601 994.1601 994.3747 994.3747 994.3747 994.4864 994.5369 994.5369
   994.6718 994.6718 994.6718 994.8972 994.8972 994.8972 995.0671 997.1539
   997.1640 997.1640 997.1802 997.1802 997.1802 997.1957 997.1957 997.1957
   997.2177 997.2177 997.2177 997.3044 997.3044 997.3044 997.3104 997.3104
   997.3104 997.3192 997.3192 997.3282 997.3282 997.3282 997.33841001.2331
  1001.23311001.23311001.39591001.39591001.39591001.48381001.48381001.5213
  1001.52131001.52131001.54231001.69161001.69161001.69161001.71411001.7788
  1001.77881001.77881001.84461001.84461001.84461001.91001001.91001001.9666
  1001.96661002.09261002.09261002.09261002.16211002.16211002.16211002.2661
  1002.26611002.26611002.29171002.50871002.50871002.50871002.60291002.6029
  1002.68021002.68021002.68021002.81221002.81221002.81221002.88671023.5243
  1023.52431023.52431023.65501023.65501023.79951029.73991029.73991029.7399
  1029.74271029.76231029.76231029.76241029.87781030.52581030.52581030.5258
  1030.52681030.52681030.53231030.53231030.53231030.54111030.54111030.5437
  1030.54371030.54371030.54521030.54521030.54521045.88481045.88481045.8869
  1045.88691045.88691046.19761046.19761046.19761046.20981046.21221046.2122
  1046.21221046.24081046.24081046.24081046.26421046.26421046.26421046.6800
  1046.70091046.70091046.73901046.73901046.73901050.80661050.81961050.8196
  1050.81961050.82411050.82411050.82411050.89241052.62531052.62531052.6253
  1052.70161052.70161052.84181056.32311056.32981056.32981056.32981056.3391
  1056.33911056.55501056.55501056.55501056.56951056.56951056.56951056.5764
  1056.57641056.57641056.60461056.60461056.60461056.78571056.78571056.8053
  1056.80531056.80531056.86421058.11721058.11721058.11721058.12081058.1208
  1058.12081058.14231058.14231058.14231058.15281058.15281058.15281063.2299
  1063.22991063.25701063.25701063.25701063.30661084.21361084.21361084.2136
  1084.24911084.26491084.26491084.26491084.48501084.70661084.70661084.7066
  1084.71101084.71101084.75281084.75281084.75281084.76561084.76561084.7928
  1084.79281084.79281084.80251084.80251084.80251088.19901088.23361088.2336
  1088.23361088.29161088.29161088.73951088.73951088.73951088.74391088.7439
  1088.74391088.77001088.77001088.77001088.81531088.81531088.81531089.3395
  1089.37221089.37221089.37221089.37731089.37731090.44481090.44481090.4685
  1090.46851090.46851090.51651090.51651090.51651090.52321090.52321090.5232
  1090.57651090.57651090.57651090.59661090.59661090.79921090.81091090.8109
  1090.81091090.82721090.82721090.82721090.84661100.74741100.75871100.7587
  1100.75871100.78041100.78041100.78041101.16271104.31251104.31251104.3598
  1104.35981104.35981104.38821104.38821104.38821104.39981104.39981104.3998
  1104.43571104.43571104.43571104.43921104.43921108.10371108.14311108.1431
  1108.14311108.23431108.23431108.23431108.31891108.94641108.94641108.9672
  1108.96721108.96721109.01961109.01961109.01961109.03151109.03151109.0315
  1109.07901109.07901109.07901109.09761109.09761111.66171111.66171111.6631
  1111.66311111.66311111.72501111.72501111.72501111.81371111.81371111.8137
  1111.84791111.87041111.87041111.89111111.89111111.89111111.94391111.9439
  1111.94391112.05481112.05481112.05481112.17961113.23081113.23091113.2422
  1113.24221113.24221113.28291113.28291113.28291113.29111113.29111113.2911
  1113.31091113.31091113.31091113.32271113.32271114.40021114.40581114.4067

     the Fermi energy is     4.4124 ev
     (compare with:     4.4124 eV, computed in scf)

     Writing all to output data dir out/mp-682.save/
 
     init_run     :      0.08s CPU      0.12s WALL (       1 calls)
     electrons    :    434.91s CPU    466.62s WALL (       1 calls)

     Called by init_run:
     wfcinit      :      0.00s CPU      0.00s WALL (       1 calls)
     potinit      :      0.01s CPU      0.02s WALL (       1 calls)
     hinit0       :      0.01s CPU      0.04s WALL (       1 calls)

     Called by electrons:
     c_bands      :    434.91s CPU    466.61s WALL (       1 calls)
     v_of_rho     :      0.01s CPU      0.02s WALL (       1 calls)

     Called by c_bands:
     init_us_2    :      0.00s CPU      0.00s WALL (       1 calls)
     init_us_2:cp :      0.00s CPU      0.00s WALL (       1 calls)
     cegterg      :    419.91s CPU    450.43s WALL (       1 calls)

     Called by *egterg:
     cdiaghg      :    404.28s CPU    435.05s WALL (       5 calls)
     h_psi        :      3.95s CPU      4.07s WALL (       6 calls)
     g_psi        :      0.03s CPU      0.03s WALL (       4 calls)

     Called by h_psi:
     h_psi:calbec :      0.05s CPU      0.06s WALL (       6 calls)
     vloc_psi     :      3.82s CPU      3.93s WALL (       6 calls)
     add_vuspsi   :      0.04s CPU      0.04s WALL (       6 calls)

     General routines
     calbec       :      0.05s CPU      0.06s WALL (       6 calls)
     fft          :      0.00s CPU      0.03s WALL (      10 calls)
     fftw         :      3.37s CPU      3.47s WALL (   22666 calls)
 
     Parallel routines
 
     PWSCF        :   7m15.43s CPU   7m47.34s WALL

 
   This run was terminated on:  20:38:51  14Nov2023            

=------------------------------------------------------------------------------=
   JOB DONE.
=------------------------------------------------------------------------------=
