
     Program PWSCF v.7.1 starts on  5Apr2024 at 13:11: 4 

     This program is part of the open-source Quantum ESPRESSO suite
     for quantum simulation of materials; please cite
         "P. Giannozzi et al., J. Phys.:Condens. Matter 21 395502 (2009);
         "P. Giannozzi et al., J. Phys.:Condens. Matter 29 465901 (2017);
         "P. Giannozzi et al., J. Chem. Phys. 152 154105 (2020);
          URL http://www.quantum-espresso.org", 
     in publications or presentations arising from this work. More details at
     http://www.quantum-espresso.org/quote

     Parallel version (MPI), running on     8 processors

     MPI processes distributed on     1 nodes
     203685 MiB available memory on the printing compute node when the environment starts
 
     Reading input from pw_mp-252_nscf_k60_E60.in
Warning: card &IONS ignored
Warning: card / ignored
Warning: card &CELL ignored
Warning: card / ignored

     Current dimensions of program PWSCF are:
     Max number of different atomic species (ntypx) = 10
     Max number of k-points (npk) =  40000
     Max angular momentum in pseudopotentials (lmaxx) =  4

     Atomic positions and unit cell read from directory:
     out/mp-252.save/
     Atomic positions from file used, from input discarded
 
 
     R & G space division:  proc/nbgrp/npool/nimage =       8
     Subspace diagonalization in iterative solution of the eigenvalue problem:
     one sub-group per band group will be used
     scalapack distributed-memory algorithm (size of sub-group:  2*  2 procs)

 
     Parallelization info
     --------------------
     sticks:   dense  smooth     PW     G-vecs:    dense   smooth      PW
     Min         119     119     35                 2416     2416     389
     Max         120     120     36                 2419     2419     391
     Sum         955     955    283                19339    19339    3119
 
     Using Slab Decomposition
 


     bravais-lattice index     =            2
     lattice parameter (alat)  =      10.7014  a.u.
     unit-cell volume          =     306.3778 (a.u.)^3
     number of atoms/cell      =            2
     number of atomic types    =            2
     number of electrons       =        20.00
     number of Kohn-Sham states=         1200
     kinetic-energy cutoff     =      60.0000  Ry
     charge density cutoff     =     240.0000  Ry
     Exchange-correlation= PBE
                           (   1   4   3   4   0   0   0)

     celldm(1)=  10.701363  celldm(2)=   0.000000  celldm(3)=   0.000000
     celldm(4)=   0.000000  celldm(5)=   0.000000  celldm(6)=   0.000000

     crystal axes: (cart. coord. in units of alat)
               a(1) = (  -0.500000   0.000000   0.500000 )  
               a(2) = (   0.000000   0.500000   0.500000 )  
               a(3) = (  -0.500000   0.500000   0.000000 )  

     reciprocal axes: (cart. coord. in units 2 pi/alat)
               b(1) = ( -1.000000 -1.000000  1.000000 )  
               b(2) = (  1.000000  1.000000  1.000000 )  
               b(3) = ( -1.000000  1.000000 -1.000000 )  


     PseudoPot. # 1 for Be read from file:
     /usr/scratch4/magr4985/FGWC/FGWC/pseudo/SG15/Be.upf
     MD5 check sum: dc1f98d164da9dc61a6fd2fad64b4ce2
     Pseudo is Norm-conserving, Zval =  4.0
     Generated using ONCVPSP code by D. R. Hamann
     Using radial grid of  602 points,  4 beta functions with: 
                l(1) =   0
                l(2) =   0
                l(3) =   1
                l(4) =   1

     PseudoPot. # 2 for Te read from file:
     /usr/scratch4/magr4985/FGWC/FGWC/pseudo/SG15/Te.upf
     MD5 check sum: dd4de4dac1e38587f63aaf3700bb29d3
     Pseudo is Norm-conserving, Zval = 16.0
     Generated using ONCVPSP code by D. R. Hamann
     Using radial grid of  602 points,  6 beta functions with: 
                l(1) =   0
                l(2) =   0
                l(3) =   1
                l(4) =   1
                l(5) =   2
                l(6) =   2

     atomic species   valence    mass     pseudopotential
        Be             4.00     9.01220     Be( 1.00)
        Te            16.00   127.60000     Te( 1.00)

     24 Sym. Ops. (no inversion) found



   Cartesian axes

     site n.     atom                  positions (alat units)
         1           Be  tau(   1) = (   0.0000000   0.0000000   0.0000000  )
         2           Te  tau(   2) = (  -0.7500000   0.7500000   0.7500000  )

     number of k points=     8  Gaussian smearing, width (Ry)=  0.0005
                       cart. coord. in units 2pi/alat
        k(    1) = (   0.0000000   0.0000000   0.0000000), wk =   0.0312500
        k(    2) = (  -0.2500000   0.2500000  -0.2500000), wk =   0.2500000
        k(    3) = (   0.5000000  -0.5000000   0.5000000), wk =   0.1250000
        k(    4) = (   0.0000000   0.5000000   0.0000000), wk =   0.1875000
        k(    5) = (   0.7500000  -0.2500000   0.7500000), wk =   0.7500000
        k(    6) = (   0.5000000   0.0000000   0.5000000), wk =   0.3750000
        k(    7) = (   0.0000000  -1.0000000   0.0000000), wk =   0.0937500
        k(    8) = (  -0.5000000  -1.0000000   0.0000000), wk =   0.1875000

     Dense  grid:    19339 G-vectors     FFT dimensions: (  40,  40,  40)

     Estimated max dynamical RAM per process >      96.94 MB

     Estimated total dynamical RAM >     775.52 MB

     The potential is recalculated from file :
     out/mp-252.save/charge-density

     Starting wfcs are random

     Band Structure Calculation
     ParO style diagonalization

     ethr =  5.00E-06,  avg # of iterations =  5.9

     total cpu time spent up to now is      283.2 secs

     End of band structure calculation

          k = 0.0000 0.0000 0.0000 (  2421 PWs)   bands (ev):

   -92.4219 -28.1757 -28.1757 -28.1757 -28.1638 -28.1638  -4.1123   8.0776
     8.0776   8.0776  11.7365  11.7365  11.7365  11.8025  16.5323  18.5011
    18.5011  19.5412  19.5412  19.5412  23.2308  31.7586  31.7586  31.7586
    33.9843  33.9843  33.9843  35.8613  35.8613  35.8613  36.6787  36.6787
    43.4652  43.4652  43.4652  44.0587  46.1840  47.3401  47.3401  47.3401
    49.7040  49.7040  49.7040  50.8057  50.8057  50.8058  50.8058  50.8058
    50.8621  50.8621  50.8621  51.3589  51.3589  52.0624  52.0624  52.0624
    56.0255  56.4905  56.4905  56.4905  57.5209  57.5209  57.5209  61.6323
    62.7072  71.6867  71.6867  71.6867  74.1575  74.1575  74.3965  74.3965
    74.3965  74.9665  77.5819  77.5819  77.5819  82.9443  82.9443  82.9443
    83.8998  83.8998  84.4412  85.1178  86.8728  86.8728  86.8728  87.1272
    87.1272  87.1272  87.2802  87.2802  88.5369  88.5369  88.5369  90.7139
    90.7139  90.7139  91.4792  91.4792  91.4792  92.1948  92.1948  92.1948
    93.9186  94.2946  94.2946  94.2946  94.3189  94.3189  95.0866  95.0866
    95.0866  95.4379  95.4379  95.4379  95.6135  95.8105  95.8105 103.1006
   105.8440 105.8440 105.8440 108.2900 108.2900 108.2900 108.3349 108.3349
   108.3349 108.8907 108.8907 108.8907 109.3992 109.3992 109.3992 110.1767
   110.1767 113.1559 113.1559 113.5210 113.5210 113.5210 113.5575 116.6943
   118.5940 118.5940 118.5940 121.0384 121.0384 121.0384 123.4986 123.9956
   123.9956 123.9956 124.5708 124.5708 124.5708 124.8475 124.8475 124.8475
   125.1677 125.1677 125.1677 125.5039 125.5082 125.5082 125.5410 125.5410
   125.5410 127.3746 127.3746 128.2773 128.2773 128.2773 135.9561 135.9561
   135.9561 136.8239 136.8239 136.8239 136.9275 139.5058 144.5061 144.5061
   145.1830 145.1830 145.1830 146.9367 146.9367 146.9367 150.5694 151.8846
   151.8846 151.8846 153.3930 153.3930 153.3930 155.6929 155.6929 155.6929
   156.0884 156.0884 156.2275 156.2275 156.2275 158.9386 158.9386 158.9386
   159.0992 159.0992 159.0992 159.3616 159.3616 159.4315 160.7061 160.7061
   160.7061 160.7239 161.1554 161.1554 161.1554 162.4353 162.5413 162.5413
   162.5413 162.7569 162.7569 163.7720 163.7720 163.7720 163.8909 163.8909
   163.9733 163.9733 163.9733 164.3695 164.3695 164.3695 164.8150 165.4837
   165.4837 165.4837 166.6551 168.5827 168.5827 168.5827 168.5942 168.5942
   168.9748 168.9748 168.9748 169.0590 169.0590 169.0590 169.4346 169.4346
   169.5839 169.5839 169.5839 173.8857 173.8857 176.1292 176.1292 176.1292
   178.0437 178.0437 178.0437 178.2754 183.1686 183.1686 183.1686 183.4621
   183.4621 183.4621 183.4904 183.4904 183.4904 185.6185 185.9688 185.9688
   185.9688 186.9328 186.9328 187.0579 187.0579 187.0579 187.1202 189.6293
   189.6293 189.6293 191.0159 191.0159 191.7555 193.2695 193.2695 193.2695
   195.3493 195.3493 195.3493 195.4480 195.4480 195.4480 195.4765 195.4765
   195.4765 195.7709 195.7709 198.5978 199.9741 199.9741 199.9741 202.6655
   202.6655 203.0867 203.0867 203.0867 204.2880 204.2880 204.2880 204.4242
   204.8307 204.8307 204.8307 204.8448 204.8448 204.8448 205.3494 205.3494
   205.3494 205.5291 205.5291 209.7493 209.7493 209.7493 212.0246 212.0246
   217.9852 217.9852 217.9852 218.8527 219.1506 219.1506 219.1506 220.5341
   221.1588 221.1588 221.1588 221.7378 221.7378 221.7378 223.4636 223.4636
   224.1945 226.0072 226.0072 226.0072 227.7149 229.5876 230.5834 230.5834
   230.5834 234.1805 234.1805 234.1805 234.3276 234.3276 234.3276 234.6278
   234.6278 235.1726 235.1726 235.1726 235.5065 235.5065 235.5065 235.8203
   235.8203 235.8203 235.9327 235.9327 235.9327 235.9344 236.6685 236.6685
   236.6685 237.7034 237.7034 239.1613 239.1613 239.6896 239.9884 239.9884
   239.9884 240.0207 240.0207 240.0207 240.2478 240.2478 240.2478 242.1264
   242.1264 242.1264 242.6839 243.9382 243.9382 243.9421 243.9421 243.9421
   244.0266 244.0266 244.0266 245.9680 245.9680 245.9680 248.1483 248.8721
   248.8721 248.8721 250.4313 250.4313 251.5096 252.9423 252.9423 252.9423
   252.9434 252.9434 252.9434 253.4282 253.4282 253.4282 253.7385 253.7385
   253.7385 254.0151 254.0151 258.0752 258.0752 258.4698 258.4698 258.4698
   258.6521 258.6521 258.6521 258.9368 258.9368 258.9368 259.4413 259.4413
   259.4413 259.7664 259.7664 260.2853 260.9848 260.9848 260.9848 261.3826
   261.3826 261.3826 261.6785 264.9798 264.9798 264.9798 265.6162 266.4336
   266.4336 267.0741 267.0741 267.0741 267.2779 269.3507 269.3507 269.3507
   270.1832 270.1832 270.1832 270.2470 270.2470 270.2470 270.4710 270.4710
   270.4710 271.4144 271.4144 271.4144 271.6043 273.0645 273.0645 273.0645
   273.0683 273.0683 273.1949 273.1949 273.1949 273.3858 273.7125 273.7125
   273.8718 274.8271 274.8271 274.8271 274.8718 274.8718 274.8718 275.3256
   275.3256 275.3914 275.3914 275.3914 275.6869 275.6869 275.6869 275.6874
   275.6874 275.9584 275.9584 275.9584 276.1883 276.1883 276.1883 276.3104
   276.3104 276.3104 276.5420 276.5420 276.5420 276.9004 277.0917 277.0917
   277.0917 277.1245 277.1245 291.2399 291.2399 293.2582 293.2582 293.2582
   293.7184 298.4544 298.4544 298.4544 300.7022 300.7022 300.7022 302.1531
   302.7047 302.7047 303.8819 304.7154 304.7154 304.7154 305.2149 305.2149
   305.2149 305.4127 305.4127 305.4127 305.4231 305.4231 305.4231 306.1847
   306.1847 309.3418 310.0040 310.0040 310.0040 310.8058 310.8058 311.3179
   311.3179 311.3179 312.3529 313.1663 313.1663 313.1663 314.2960 314.6191
   314.6191 314.6191 314.7455 314.7455 314.7455 314.7608 314.7608 314.7608
   315.4344 315.4344 315.4344 317.3066 317.3066 317.6499 317.6499 317.6499
   317.9283 317.9283 317.9283 317.9561 318.2270 318.2270 318.2711 318.2711
   318.2711 318.3019 318.3019 318.3019 318.3384 318.3384 318.3384 318.4127
   318.4127 320.5277 320.5277 320.5277 321.0997 321.0997 321.8785 321.8785
   321.8785 322.0416 322.0416 322.0416 324.4413 330.8496 330.8496 330.8496
   331.9441 331.9441 332.0305 333.2744 333.2744 333.2744 333.3583 333.3583
   333.3583 333.5073 333.5073 333.5073 333.6210 333.6210 333.6210 334.5258
   334.5690 334.5690 334.5690 334.6107 334.6107 338.6963 338.6963 338.6963
   340.4183 340.6612 340.6612 340.6612 340.8671 340.8671 340.8671 341.0147
   341.0147 343.0714 343.0714 343.0714 343.2893 344.0853 344.0853 344.0853
   344.4317 344.4317 344.4392 344.5225 344.5225 344.5225 344.5798 344.5798
   344.6294 344.6294 344.6294 344.7586 344.7586 344.7586 344.8108 344.8108
   344.8108 346.2836 346.2836 346.2836 346.6033 347.3487 347.6212 347.6212
   347.6212 350.4974 350.4974 350.4974 350.5710 350.5710 350.5710 350.6178
   350.6178 350.6521 350.6521 350.6521 350.7220 353.7643 353.7643 353.7643
   354.4098 354.5893 354.5893 354.5893 354.7276 354.7276 354.9687 354.9687
   354.9687 355.9289 355.9289 355.9289 355.9585 355.9585 355.9720 355.9720
   355.9720 356.0768 356.0768 356.0768 356.0944 367.1273 367.1273 368.3392
   368.3392 368.3392 369.3774 369.3774 369.3774 369.6465 370.0833 370.0833
   370.0833 370.1226 370.1226 370.1226 370.1713 370.1713 370.1713 370.9239
   370.9771 370.9771 370.9771 370.9795 370.9795 372.8092 372.8092 372.8092
   374.0731 376.0929 376.0929 376.0929 376.3375 376.3375 376.3375 376.4472
   376.4472 376.6092 377.0423 377.8685 377.8685 377.8685 377.9837 377.9837
   377.9837 377.9900 377.9900 378.2245 378.2245 378.2245 378.5189 378.5189
   378.5189 378.9317 378.9317 383.9602 383.9602 383.9602 384.0000 384.0000
   384.0000 384.0061 384.0061 384.1038 384.1038 384.1038 384.2249 384.2249
   384.2249 384.4334 384.4334 384.8726 384.8726 384.8726 386.0642 386.1331
   386.1331 386.1331 386.1398 386.1398 386.1398 386.2921 386.2921 386.2921
   386.5075 386.5661 386.5661 386.5661 386.6878 386.7079 386.7079 386.7079
   386.7202 386.7202 386.7202 388.0098 388.0098 388.6212 388.6212 388.6212
   388.8632 390.1387 390.4943 390.4943 390.4943 390.9458 390.9458 390.9458
   390.9714 390.9714 390.9714 390.9940 390.9940 391.1704 391.1704 391.1704
   391.2244 391.2244 391.2244 391.5600 391.5600 392.8153 392.8153 392.9575
   392.9575 392.9575 393.2317 393.2317 393.2317 393.2851 393.3603 393.3603
   393.3603 393.3969 393.3969 393.3969 393.6514 393.6514 393.6555 393.6555
   393.6555 393.8924 393.8924 393.8924 394.0263 403.4154 403.4154 403.4154
   404.3042 404.5793 404.8117 404.8117 404.8117 410.7603 410.7603 410.7603
   410.7947 410.7947 410.8010 410.8010 410.8010 410.8090 410.8090 410.8090
   410.8224 410.8224 410.8224 410.8390 410.8390 416.8215 416.8215 417.0913
   417.0913 417.0913 417.5627 418.5517 418.5517 418.5517 418.7735 418.7735
   418.7735 418.8470 418.8470 418.8470 418.8805 418.8805 418.8805 421.4654
   421.4654 421.4654 422.3499 422.3499 422.3665 422.3665 422.3665 422.3897
   422.6937 423.7465 423.7465 425.4810 425.4810 425.4810 425.5173 425.5173
   425.5173 425.5982 425.5982 425.5982 425.7233 425.7233 425.7233 426.6099
   426.6099 426.6159 426.6159 426.6159 426.6328 439.6484 439.6484 439.6484
   440.2028 440.2028 440.2028 440.6365 441.1853 441.4349 441.4349 441.5196
   441.5196 441.5196 442.0051 442.0051 442.0051 442.3041 442.3041 442.3041
   442.3468 442.3468 442.3468 442.3512 442.3512 444.2255 444.2255 444.2255
   444.3698 444.3698 444.3698 444.5380 444.5380 444.8914 444.8914 444.8914
   445.5477 453.5097 453.5097 453.5097 455.5710 455.8878 455.9834 455.9834
   455.9834 457.9517 457.9517 457.9517 458.5078 458.5078 458.8243 458.8243
   458.8243 459.2657 459.2657 459.2657 459.4287 459.4287 459.5723 459.7198
   459.7198 459.7198 459.8097 459.8321 459.8321 459.8321 459.8659 459.8659
   459.8659 460.2950 460.2950 460.2950 460.5186 460.5186 460.5186 460.6460
   460.6460 460.8831 460.8831 460.8831 461.0122 462.2619 462.2619 462.4346
   462.4346 462.4346 462.8100 462.8100 462.8100 462.8457 462.8457 462.8562
   462.8562 462.8562 462.8655 462.8869 462.8869 462.8869 463.0087 463.0087
   463.0087 463.1233 463.1233 463.9126 464.1559 464.1559 464.1559 464.3719
   464.3719 464.3719 464.5698 464.5698 464.5698 464.6000 464.6000 468.6434
   468.6434 468.6434 468.9682 468.9682 468.9682 468.9861 468.9861 469.0728
   469.1194 469.1194 469.1194 476.5757 476.5757 476.5757 478.3089 478.3089
   478.3428 478.3428 478.3428 478.5345 478.7359 478.7359 478.7359 478.7714
   478.7714 478.7714 479.0062 479.0062 479.1216 479.5006 479.5006 479.5006
   479.5027 479.5027 479.5969 479.5969 479.5969 479.8536 479.8536 479.8536
   479.9225 481.6683 481.6683 481.6683 481.9144 481.9144 481.9144 482.0985
   482.0985 482.0985 482.3173 482.7154 482.7154 482.9958 482.9958 482.9958
   483.4989 483.4989 483.4989 483.5774 483.5774 483.5774 483.8440 483.8440
   483.8440 484.3424 484.3424 484.3493 484.3493 484.3493 484.3975 484.3975
   484.3975 484.4324 484.4324 484.4324 484.4812 486.6637 486.6637 486.7191
   486.7191 486.7191 486.8156 494.1873 494.1873 494.1873 495.2411 495.4910
   495.4910 495.4910 495.5524 495.5524 495.5524 495.6057 495.6057 495.9358
   495.9358 495.9358 496.1977 496.1977 496.1977 496.2359 496.2359 496.2866
   496.2866 496.2866 496.3631 496.3631 496.3631 496.4872 497.6820 498.0605
   498.2199 498.2199 498.2199 498.2552 498.2552 498.2552 498.3022 498.3022
   498.5376 498.5376 498.5376 498.7980 498.7980 498.7980 499.1936 499.1936
   499.2200 499.2200 499.2200 499.9591 499.9591 499.9591 500.1288 500.1288
   500.1288 500.2685 500.3133 500.3133 500.3133 500.3724 500.3724 500.3758

          k =-0.2500 0.2500-0.2500 (  2418 PWs)   bands (ev):

   -92.4219 -28.1748 -28.1743 -28.1743 -28.1635 -28.1635  -3.5737   4.8220
     7.4245   7.4245  11.3862  12.6009  12.6009  15.0825  17.2478  17.2569
    17.2569  19.7922  23.6967  23.6967  26.4274  26.9100  26.9100  27.9981
    32.9982  32.9982  34.4706  36.8284  36.8284  37.2327  38.7960  38.7960
    40.0001  42.5741  42.5741  42.9155  43.5084  43.5084  44.2497  44.7536
    45.1960  45.1960  46.6201  48.7482  48.7482  49.4340  50.9865  50.9865
    52.0073  53.9654  53.9654  56.0541  56.0541  56.6102  57.5348  57.8026
    57.8577  57.8577  61.8958  61.8958  62.1281  62.7300  62.7300  65.1249
    65.3548  65.3548  66.2804  68.6964  68.6964  70.8858  72.7951  72.7951
    73.3689  73.7321  76.5323  76.5323  77.8174  79.0500  79.0500  79.6961
    79.8014  81.9367  81.9367  82.5554  82.5554  82.9299  85.1283  85.2132
    85.2132  85.6444  86.9118  86.9118  87.8533  88.1385  88.3706  88.3706
    89.8545  89.8545  90.7135  90.7135  91.0324  92.1129  93.1261  93.1261
    94.4821  94.8512  94.8512  96.5774  97.8227  97.8227  98.6363  98.8791
    98.8791 100.3819 100.7483 101.2884 101.2884 102.1951 102.1951 103.1041
   103.1041 103.1986 104.8598 104.8598 105.0949 105.9360 107.1592 108.4805
   108.4805 108.5375 109.4180 109.4180 109.5154 110.9383 110.9383 111.1490
   111.5187 111.5187 113.2914 113.2914 114.2195 114.6726 114.6726 114.7300
   116.5742 116.5742 116.7211 118.1801 118.1801 118.6498 118.7349 119.8029
   119.8029 121.8140 121.8140 122.2108 124.4458 125.2979 125.2979 126.6040
   128.6471 128.7321 128.7321 130.7464 130.7464 130.8895 131.5949 131.5949
   134.1039 134.4736 134.4736 134.7680 135.5508 135.5508 136.9352 137.1489
   137.1489 137.8623 138.3898 138.3898 139.4895 140.0079 140.0079 141.0354
   141.1813 141.1813 141.2548 144.0731 144.0731 144.3165 145.2527 145.2527
   145.8986 146.8239 146.8239 146.8998 147.3675 147.3675 148.0230 148.6416
   148.6416 151.6602 152.6988 152.6988 152.7184 153.0274 153.8513 153.8513
   154.1454 154.1454 154.6565 155.9317 155.9317 156.2761 158.7285 158.7285
   158.9500 159.1876 159.7046 159.7046 160.9673 160.9673 160.9794 161.3919
   162.3191 162.4313 162.4313 163.6550 163.6550 164.9326 165.0319 165.2463
   165.2463 166.7591 166.7591 166.9298 167.3547 167.6280 167.6280 168.1968
   169.6610 169.6610 170.2606 170.2606 170.7597 171.4369 171.4369 172.7962
   172.7962 173.6245 173.8106 173.8106 174.3176 174.4840 174.4840 174.5783
   175.0664 175.0664 176.9943 177.1430 177.2198 177.9407 177.9407 178.1013
   178.9617 178.9617 179.4245 179.4245 179.9530 180.5204 180.5204 181.7196
   182.9126 182.9126 183.3440 183.3440 183.7919 183.7919 183.8874 185.3265
   185.7524 186.4597 186.4597 187.5158 188.3422 189.2869 189.2869 190.6670
   190.6670 191.4819 192.2575 192.2575 192.6907 192.7806 192.7806 193.7148
   193.9664 193.9664 194.3477 194.5943 194.5943 195.0669 195.1679 195.1679
   197.7041 199.3211 199.3211 200.0664 200.7257 200.7257 200.9974 203.0212
   203.0212 204.7281 204.7281 204.7488 205.5283 206.3583 206.3583 207.0672
   207.6256 207.6256 208.5918 208.7878 208.8186 208.8186 209.5374 209.9253
   209.9253 210.5899 212.5215 212.5215 213.4293 214.6208 214.6208 215.7641
   216.2170 216.4219 216.4219 216.6803 216.9296 216.9296 218.3866 218.4634
   218.4634 218.9072 218.9072 219.3132 219.4835 220.2378 220.2378 220.6901
   220.6901 220.9950 221.0449 221.0449 221.9623 222.2207 222.2207 223.1887
   224.8061 224.8061 225.0276 226.1225 226.1225 226.8130 228.7042 228.7042
   229.8643 229.8643 230.1522 231.3900 231.3900 232.0510 232.0510 232.2539
   233.4558 233.4558 233.8501 234.8736 235.0121 235.0121 235.0328 236.3942
   236.3942 237.8123 238.1642 238.2308 238.2308 239.2060 239.5414 239.5414
   239.8610 240.1105 240.1105 241.6088 241.6088 241.8669 242.6303 244.4505
   244.4505 244.7317 245.1250 245.1250 245.7986 246.4123 246.4123 246.6635
   246.6635 246.6974 247.7995 247.7995 248.1040 248.1040 248.2404 248.7014
   248.7699 249.0075 249.0075 249.3714 250.1774 250.4173 250.4173 250.9803
   251.2887 251.2887 252.5382 252.5382 252.6369 253.4930 253.5305 253.5305
   253.8457 253.8457 253.9097 254.5711 254.5711 254.6361 256.0857 256.9020
   256.9020 257.6223 257.6223 257.6427 257.9339 258.5304 258.5305 258.7032
   258.7032 258.8858 259.8118 259.8118 259.9757 261.0414 261.0414 261.4009
   262.6441 262.6441 262.7876 263.3398 263.3398 263.4800 263.5095 263.5095
   263.6329 265.5966 265.5966 266.2118 266.3545 266.4879 266.4879 267.1097
   267.3003 267.3003 268.0938 268.4938 268.4938 269.5753 269.5997 269.5997
   269.9409 269.9409 270.0473 270.2671 273.0240 273.0240 273.7485 274.1008
   274.1008 275.5287 276.4173 276.4173 276.4555 277.2410 277.2410 277.6918
   277.6918 277.7334 278.5453 278.5453 278.6052 279.3179 281.3452 281.3452
   281.5337 281.6134 281.6134 281.8399 283.0111 283.0111 283.2343 285.1773
   285.1773 285.3148 285.7808 285.7808 286.3609 286.3609 286.5467 286.6924
   286.6924 287.4246 287.5690 287.5690 288.0829 288.0829 289.6784 289.7439
   290.4857 291.0345 291.0743 291.0743 291.5678 291.5678 292.9480 293.3326
   293.3326 293.9677 293.9677 294.0657 294.2599 294.6577 294.6577 295.0419
   295.1417 295.1417 296.3853 298.0345 298.0345 298.4816 298.4816 298.5584
   299.2825 299.5083 299.5083 301.5760 302.1612 302.1612 302.3680 303.2643
   303.2643 303.3391 304.3177 304.3177 304.7165 304.9817 304.9817 305.2423
   305.7878 305.7878 306.0267 306.2149 306.2149 306.3100 306.7073 306.7073
   309.7835 311.6621 311.6621 312.3591 312.3591 312.5784 312.8520 313.9860
   313.9860 314.7541 314.7541 314.9099 315.4562 315.8842 315.8842 315.9380
   316.4284 316.4284 317.2069 317.2069 317.3284 317.4786 318.4326 318.4326
   318.6186 319.3161 319.3161 320.2619 321.4167 321.4167 321.4881 322.7521
   322.7521 322.7849 323.4503 323.4707 323.4707 323.8574 324.1824 324.1824
   324.2320 324.3195 324.3195 325.5209 325.5209 325.5652 326.6127 326.8683
   326.8683 330.1434 330.1434 330.8631 330.9572 331.0489 331.0489 331.1485
   332.0433 332.0433 333.0205 333.7182 333.7182 333.8288 334.5815 334.5815
   335.6207 335.6207 335.8252 337.6439 337.7633 337.7633 338.7245 339.1803
   339.2836 339.2836 339.4675 339.4675 339.8875 340.5993 340.5993 340.7971
   341.0060 341.0060 342.3123 342.3123 342.4816 343.2618 343.2618 343.3904
   343.4525 343.4525 343.4741 343.6913 344.0279 344.0279 344.2414 345.5059
   345.6554 345.6554 346.2702 346.2702 346.4786 346.5495 346.5495 346.7889
   349.1367 349.1367 350.4332 350.5765 350.5765 351.1368 351.1368 351.5579
   351.5579 351.5795 351.5799 351.7717 351.7717 352.6860 353.0146 353.0374
   353.0374 353.3825 353.3825 353.5489 353.6826 353.7848 353.7848 354.3125
   354.3125 354.5233 354.7061 354.7943 354.7943 356.4552 356.6204 356.6204
   357.5988 357.9628 357.9628 358.2911 358.6022 358.6022 359.3041 359.8284
   359.8284 360.8399 360.8399 360.9057 360.9423 360.9423 361.2686 361.4551
   361.4791 361.4791 362.2301 362.3522 362.3522 362.4315 362.4331 362.4331
   362.7056 362.7056 362.9933 364.4460 364.7976 364.7976 366.3400 366.3400
   366.6839 367.1241 368.0920 368.0920 368.4231 368.7187 369.3792 369.3792
   369.8549 369.8549 370.1026 370.5181 370.5181 370.7298 370.7335 370.8555
   370.8555 371.1701 371.2140 371.2140 372.6117 372.7740 372.7740 374.2621
   374.2886 374.2886 374.6011 374.6011 375.6216 375.6216 376.1034 377.5762
   377.5762 377.7981 379.2480 379.2480 379.2517 379.5358 379.5358 379.6540
   380.0233 380.3215 380.3215 380.4048 380.4567 380.4567 380.5843 380.5936
   380.5936 381.3719 381.3719 381.4586 382.1106 384.6704 384.6868 384.6868
   384.7939 384.7939 384.8589 387.5047 387.5047 388.2734 388.3106 388.3106
   388.7323 389.1153 389.1592 389.1592 389.5196 389.5196 389.6949 391.1915
   391.1915 391.2381 392.6311 392.6311 392.9377 393.2741 393.2741 393.4005
   393.4834 393.4834 393.7873 394.2136 394.2407 394.2407 396.2494 396.2494
   396.4879 397.1014 397.6797 397.6797 397.9472 397.9472 397.9556 398.3387
   398.3563 398.3563 399.4390 399.4390 399.4573 399.5085 399.5220 399.5220
   399.9833 400.1195 400.1195 402.4223 402.4223 402.4387 403.0084 403.2955
   403.2955 403.8285 404.8932 404.8932 404.9947 405.1129 405.3304 405.3304
   405.4971 405.4971 405.6274 405.8067 405.8067 406.5862 406.5862 406.6144
   406.7534 406.7534 406.8144 407.2429 407.3011 407.3011 409.0358 409.0358
   409.0581 409.6923 410.6416 410.6416 411.0334 411.1276 411.1276 411.8990
   412.0048 412.0048 412.8044 413.9892 413.9892 414.3813 414.3813 414.4159
   414.7689 414.9975 414.9975 416.2693 416.2775 416.2775 416.4625 416.4625
   416.5160 417.1006 419.4753 419.4753 421.0733 421.0733 421.0838 421.3871
   422.8073 423.2850 423.2850 423.6329 423.6329 423.8670 424.3635 424.3635
   424.3981 425.4413 425.4413 425.8969 426.0267 426.0267 427.5810 427.5810
   427.6163 427.8117 427.8117 428.1975 429.0950 429.1506 429.1506 431.1401
   431.1401 431.3961 432.0000 432.2515 432.2515 435.3091 435.3091 435.3383
   436.7722 436.9575 436.9575 437.8051 437.8051 438.0199 438.7191 438.7191
   439.4018 439.7454 439.7454 439.8129 440.0665 440.4615 440.4899 440.4899
   440.5913 440.5913 440.9999 440.9999 441.0699 441.5672 441.5672 441.8551
   442.0764 442.4382 442.4382 442.9138 443.2778 443.2778 443.4088 443.8329
   444.2040 444.2040 444.6865 444.6865 445.2724 447.0511 447.0511 447.0625
   447.1254 447.1254 447.1545 447.5378 447.5378 447.5755 448.6338 448.6338
   448.6557 449.1001 449.1001 451.2247 451.5309 451.5309 452.7414 452.8467
   452.8467 453.2119 453.4433 453.4433 454.6166 454.6166 454.8737 455.5284
   455.6304 455.6304 455.7463 455.9220 455.9220 456.5374 456.5482 456.5482
   457.2457 457.2457 457.5881 457.5907 458.7651 458.7651 459.6879 459.7136
   459.7136 459.7843 459.8093 459.8093 461.0158 461.0158 461.2475 461.6610
   461.9098 461.9098 461.9160 462.7375 462.7375 462.9804 463.5315 463.5315
   463.5920 463.6102 463.7038 463.7038 463.9461 463.9461 463.9548 464.2662
   464.2956 464.2956 466.8191 466.8191 467.1543 467.1863 467.1863 467.2075
   467.8063 467.8063 467.8487 468.7084 469.3345 469.3345 469.6516 469.6516
   469.6856 470.5931 470.7124 470.7124 471.2014 471.2014 471.3946 471.6020
   471.6020 471.7480 473.0499 473.0499 473.1143 473.1724 473.1724 473.2386
   473.7453 473.7838 473.7838 476.0089 476.1981 476.1981 476.7764 477.1078
   477.1078 479.1923 479.1923 479.3904 479.4049 479.4982 479.4982 479.5600
   479.6637 479.6637 480.4606 480.7383 480.7383 480.9093 480.9093 481.0934
   481.1516 481.1516 481.2108 481.9411 482.0170 482.0170 482.2161 482.2382
   482.2382 482.4406 482.4406 482.4853 482.5336 482.5336 482.5397 485.9180
   486.1330 486.1330 486.3594 486.8701 486.8701 487.3697 487.5545 487.5684
   487.5684 487.7169 487.7169 487.8715 487.8715 488.0865 489.0569 489.0569
   489.1391 491.3458 491.3458 491.4341 491.5269 491.5269 491.5601 492.8059
   493.0768 493.0768 493.1221 493.2077 493.2077 493.5667 493.5667 493.6729
   494.0468 494.0468 494.0671 494.2579 494.2579 494.3760 494.3818 494.3818
   494.9058 495.5864 496.0374 496.0374 497.6420 497.7112 498.1693 498.1693
   498.2710 499.7020 499.7106 499.7106 500.1605 500.1605 502.6997 502.6997
   502.7390 502.7390 502.7907 503.0701 503.0726 503.0726 503.3267 503.3267
   503.7333 504.1523 504.1523 504.1524 504.8606 504.8606 504.8748 505.1926
   505.2086 505.2086 505.8471 505.8471 505.9843 506.1411 506.1411 506.4228

          k = 0.5000-0.5000 0.5000 (  2392 PWs)   bands (ev):

   -92.4219 -28.1738 -28.1732 -28.1732 -28.1629 -28.1629  -2.8150   2.6540
     6.9776   6.9776  11.1400  12.7109  12.7109  16.0162  19.0544  19.7416
    19.7416  20.4131  21.5134  21.5134  27.2988  29.4229  29.4229  30.6305
    31.2940  31.2940  33.6631  34.5052  34.5052  35.0108  35.1023  37.9648
    37.9648  40.6401  40.6401  41.3092  41.3092  42.1968  42.4482  43.7107
    45.4966  47.4317  47.4317  49.6600  49.6600  51.1186  53.1275  53.6029
    53.6029  56.6139  56.6139  57.5767  58.1946  58.1946  59.5268  60.0570
    60.0570  63.2639  63.2639  63.4862  64.5906  64.5906  65.4550  66.1794
    66.1794  66.2283  67.6453  67.8350  68.3399  68.3399  69.9809  70.6462
    70.6462  71.4145  71.4145  74.2159  74.7429  74.7429  75.6363  76.9474
    76.9474  77.4240  79.8786  80.6561  80.6561  83.3358  83.3358  83.5732
    84.9108  85.9722  86.7325  86.7325  88.0041  88.0041  88.0856  88.4864
    90.0922  90.0922  92.1147  92.7654  93.3117  93.3117  93.3458  94.8433
    94.8433  95.0626  95.3518  95.9048  96.1202  96.1202  96.8097  96.8097
    98.3788  98.3788 101.1734 102.4198 102.4198 104.2200 104.2200 105.0109
   105.1070 105.1070 105.3012 105.7436 106.0921 106.0921 106.5724 106.5724
   107.5046 108.9305 109.4359 110.3219 110.3219 112.0883 112.2421 112.2421
   114.0518 114.0518 114.6874 114.9511 114.9511 115.8708 117.0467 117.0467
   117.7020 117.7020 119.2577 120.0241 120.0241 121.1446 121.1446 122.0082
   123.2063 123.2385 123.2385 123.2825 125.2614 125.5639 126.7093 126.7093
   127.4791 127.5430 127.5430 127.9410 127.9410 129.7330 130.2919 130.2919
   131.1646 132.9190 132.9190 133.7103 133.7103 135.5416 135.9892 135.9892
   136.7628 137.5321 137.9518 138.9224 138.9224 139.2880 139.4668 139.4668
   140.9052 140.9052 141.0118 141.7968 143.9056 143.9056 145.8963 145.8963
   146.7741 147.9435 148.6678 148.6678 149.4699 149.4699 149.9654 150.0351
   150.0351 150.3423 150.5822 150.5822 150.7623 150.7623 151.5227 151.5227
   151.6567 152.2825 152.9854 152.9854 153.2188 154.7452 154.7452 155.0660
   155.3096 157.0139 157.0139 157.6765 159.2742 159.2742 159.2790 159.8920
   159.8920 160.4354 160.4354 161.2464 161.4583 161.4583 162.9096 164.0848
   164.0848 164.9699 166.6282 166.6282 166.8885 167.8793 168.6262 168.6262
   169.3966 170.1206 170.3925 170.3925 170.5039 170.5039 170.7410 170.9186
   171.8088 171.8088 173.0404 173.8285 173.9576 173.9576 174.7862 174.8514
   174.8514 175.5153 176.1802 176.1802 177.5931 178.9611 178.9612 179.4351
   180.1852 180.1852 181.9008 181.9008 182.4097 182.4097 182.5660 182.6982
   184.7644 184.7644 185.9664 187.8237 188.9931 188.9931 190.6851 190.6851
   191.0697 191.4539 191.4539 191.9188 192.5743 192.5743 193.1391 193.2043
   193.2043 194.0241 195.5765 195.9262 195.9767 195.9845 197.0381 197.0381
   197.2400 197.2400 199.2088 199.2088 199.7276 200.1800 200.9065 200.9065
   201.0596 201.0596 201.3466 201.3466 202.1982 202.1982 203.5588 203.5588
   203.6670 204.1353 204.1353 204.2723 205.0192 205.0192 205.1031 206.1168
   206.6756 206.6756 206.7769 206.7769 206.9514 207.1906 207.2612 207.2612
   207.4738 207.4738 208.7568 208.7717 209.2222 211.5824 211.5824 211.7375
   214.0577 214.0577 214.3533 215.4353 215.4353 215.5946 216.8405 216.8405
   217.8738 217.8738 217.9645 218.3525 218.3914 218.3914 218.6416 218.6416
   218.8263 219.7180 220.6208 220.6208 221.5859 221.5859 221.9064 221.9064
   222.2589 222.7700 223.7258 223.8824 224.2575 224.2575 224.4670 224.4670
   226.8087 226.8087 226.8316 226.8316 227.1185 227.2338 230.8553 231.8368
   231.8368 232.6831 233.1361 233.1361 233.9038 233.9038 234.4725 234.8836
   234.8836 234.9707 234.9707 235.0184 235.3879 235.5178 235.5178 235.5395
   237.8563 238.1614 238.1614 239.6550 239.6550 239.7695 240.8113 240.9890
   240.9890 241.1632 242.2267 242.2267 242.7647 243.4934 243.5177 244.1876
   244.1876 244.7815 244.7815 245.0116 245.3214 245.3214 247.3707 247.3707
   248.4446 248.4446 249.5160 251.1138 251.1138 251.8569 252.6697 252.7279
   252.7279 252.9273 253.4148 253.4148 253.6260 253.9689 254.5154 254.5172
   254.5172 255.3873 255.3873 256.4161 256.5489 256.5489 257.1895 257.1895
   257.9130 257.9130 258.5981 259.2496 259.2496 259.5457 260.4173 260.4764
   260.4764 260.9695 260.9695 261.2155 262.1680 262.1680 263.0897 263.3236
   263.3236 264.5583 264.7015 264.7015 266.8586 266.9076 266.9076 267.0684
   267.0684 267.2127 267.2228 267.2228 267.3943 267.8471 268.3665 268.3665
   268.4753 269.4380 269.4380 269.5393 272.0927 272.1510 272.4684 272.4684
   272.8819 272.8819 275.6388 275.6388 275.8607 276.0582 276.9507 276.9507
   277.1622 277.1622 277.5123 277.7069 277.7069 277.8748 277.9100 279.1755
   280.2827 280.2827 280.9387 280.9509 280.9608 280.9608 283.4414 284.1781
   284.1781 284.5174 285.1201 285.1201 286.0020 286.0020 286.3835 286.3835
   286.8626 287.2586 287.6346 287.6346 287.6980 288.3385 288.3385 288.4020
   289.3346 289.3346 289.3987 289.4071 289.5415 289.5415 291.5681 291.5681
   291.6379 291.6927 291.6927 291.7234 292.9318 292.9318 292.9973 292.9973
   293.0091 293.0819 294.2660 294.2660 294.3532 294.6183 294.6183 294.6496
   295.1212 295.8301 295.8301 295.9170 296.2425 296.2425 298.3422 298.3422
   299.0279 299.0279 299.1599 299.1862 299.5487 299.7172 299.7172 299.7644
   300.2657 300.2657 301.1017 301.1017 301.3082 301.3494 301.3536 301.3536
   304.1052 304.5056 304.5056 305.4041 305.4041 305.4065 307.2499 308.0483
   309.8396 309.8396 310.4284 310.5335 310.5335 310.5650 310.8323 310.8323
   311.8991 311.8991 316.5609 316.5609 316.8468 316.8468 317.2709 317.2709
   317.5716 317.7373 317.7433 317.8695 317.8695 317.9212 318.4233 318.4233
   318.5956 318.6333 318.6333 318.8468 319.6251 319.6251 319.6985 319.6985
   320.1355 320.1355 320.9668 320.9726 321.3720 322.2065 322.2065 322.4756
   323.3051 325.3983 325.4999 325.4999 326.8208 326.8208 326.9084 327.2324
   327.2324 327.3034 327.3789 327.3789 330.5096 330.5096 330.5706 330.5706
   330.7525 330.7574 332.3738 332.3738 332.6819 333.5202 333.6098 333.6098
   333.8105 334.3364 335.6441 335.6441 337.1270 337.1271 337.1430 337.2536
   337.7171 337.7171 338.5534 339.2139 339.2139 339.4819 339.5757 339.5757
   339.6173 339.6173 340.4291 340.7489 340.7489 341.0011 341.0011 341.2028
   342.2801 342.2801 342.4115 342.9833 342.9833 343.0676 343.7236 344.2974
   344.2974 344.6839 344.8901 344.8901 346.0637 346.0637 346.2933 346.3679
   346.3679 346.4221 347.2057 347.2057 347.4627 347.4627 347.7734 347.9603
   348.6492 348.8735 348.8990 348.8990 349.8447 349.8447 351.2145 351.2145
   351.3116 351.3251 351.3251 351.3273 353.7710 353.7710 354.1202 354.6586
   354.6586 354.7323 355.5629 355.7453 355.7453 356.4870 356.4870 356.8633
   357.0605 357.5072 357.5072 357.9267 357.9267 357.9984 360.1822 360.1823
   360.3881 360.7049 360.7049 360.7541 361.2263 361.2699 361.2699 361.7074
   361.7120 361.7120 361.8396 361.8396 361.9381 361.9416 361.9867 361.9867
   366.2476 366.2476 366.3299 366.3299 366.4210 366.4269 366.7814 366.7814
   367.5424 367.8832 368.5040 368.5040 368.5820 368.9203 369.0032 369.0032
   369.0898 369.1277 369.1277 369.3205 371.1093 371.1093 371.1785 371.1786
   373.1551 373.2437 373.2437 373.5963 373.5963 373.8508 374.1069 374.3054
   374.3054 374.5009 374.7820 374.7820 374.8091 374.8364 374.8479 374.8479
   374.9156 374.9156 377.3290 377.3290 377.5994 377.7522 377.8326 377.8326
   379.1939 379.9014 379.9014 380.4209 380.4209 380.5953 381.3007 381.6729
   384.0705 384.0705 384.0813 384.1009 384.1009 384.1361 386.6153 386.6153
   386.6800 386.6800 390.8822 390.8822 391.4972 391.6231 391.6231 391.8679
   392.2228 392.2228 392.5211 392.8481 392.9142 392.9142 392.9344 392.9344
   393.0082 393.1179 393.1849 393.1849 393.2678 393.2678 393.2914 393.4192
   393.4192 393.4519 395.7955 395.7955 395.8158 395.8566 395.8566 395.8848
   395.8925 396.6620 396.6620 397.2999 397.4424 397.4424 400.8436 400.8436
   401.3463 401.4573 401.4653 401.5606 401.6090 401.6090 401.6696 401.6696
   401.7903 401.7903 405.1513 405.1513 405.1947 405.2316 405.2396 405.2396
   405.9096 406.3555 406.3555 406.5773 406.6641 406.6641 407.3988 407.3988
   407.4617 408.0444 408.0532 408.0532 408.2480 408.2480 408.3253 408.4260
   408.4980 408.4980 408.7084 408.8548 408.8548 408.9937 408.9937 408.9967
   412.6779 412.6779 412.7286 412.7286 412.7847 412.7877 416.8927 416.8927
   416.9827 417.0491 417.0491 417.2936 418.0671 419.7971 420.7568 420.7568
   421.7552 421.7552 421.7751 421.7871 421.8618 421.9913 421.9913 422.1506
   422.3984 422.3984 422.8699 422.8699 423.2099 423.2099 423.5963 424.0895
   424.7092 424.7092 425.0326 425.2646 425.2851 425.2851 427.3045 427.3045
   427.6592 427.6592 427.6847 427.8667 428.2787 428.2787 428.5969 428.6187
   428.8196 428.8196 428.9015 429.0270 429.7088 429.7088 429.7487 429.7487
   430.8422 430.8422 431.0843 431.0904 431.0904 431.7345 431.7419 431.7462
   431.9192 431.9192 432.2116 432.2116 432.9173 432.9325 432.9461 432.9461
   432.9874 432.9874 433.2005 433.2005 433.2346 433.3014 433.3014 433.3149
   439.2490 439.7815 439.7815 440.3412 440.7532 440.7532 441.0500 441.0500
   441.2339 441.2626 441.2626 441.3513 441.5239 441.5298 441.5298 441.7199
   441.7199 441.9001 441.9109 441.9715 441.9715 442.0310 442.0310 442.3022
   443.1781 444.0121 444.0121 444.3864 444.3864 445.2329 446.9326 446.9654
   446.9654 447.0365 447.0587 447.0587 447.4104 448.1639 449.6618 449.6618
   449.7995 449.7995 450.2399 450.2399 450.3312 450.4002 450.5705 450.5837
   450.5837 450.6498 450.6498 450.8030 450.8030 450.8632 453.0250 453.0250
   453.4836 453.5891 453.5891 453.6039 456.1521 456.1521 456.1863 456.1863
   457.7880 457.7890 457.8845 457.8845 457.9155 458.8582 458.8736 458.9200
   458.9200 458.9830 459.0036 459.0036 459.1770 459.1770 459.2911 459.7529
   459.7529 460.0899 460.2297 460.4129 460.4129 460.8686 461.7984 461.7984
   461.9754 461.9754 464.0717 464.0717 464.0753 464.0753 464.9074 464.9074
   464.9124 464.9153 465.1872 465.2636 465.2638 465.2638 467.8182 467.8182
   468.1322 468.2346 468.2346 468.2831 474.6906 474.6906 475.5854 475.7616
   476.0308 476.0308 476.3727 476.3727 476.3842 476.4371 476.4371 476.5033
   476.5530 476.5530 476.7397 476.7397 476.7401 476.8701 476.8782 476.9399
   476.9399 476.9775 476.9775 477.0346 477.1091 477.3919 477.3919 478.1980
   478.1980 478.5285 478.8583 478.9847 478.9847 479.1931 479.1931 479.2430
   481.6561 482.0441 482.0441 482.2355 482.4969 482.4969 482.7791 483.0069
   483.0348 483.0348 483.1483 483.1675 483.3003 483.3003 483.3481 483.3688
   483.3688 483.5358 483.5358 483.5659 483.8163 483.8163 484.0553 484.1970
   484.2437 484.2437 484.9221 485.4806 485.4806 485.9102 485.9102 485.9288
   489.1431 489.1431 489.1605 489.1605 489.4130 489.4148 489.4241 489.4241
   489.4620 489.4620 490.5450 490.5450 490.8784 490.9030 490.9030 491.0014
   491.0014 491.0116 491.1233 491.2371 491.2724 491.2724 495.1463 495.1463
   495.2734 495.7104 496.0124 496.0124 498.9991 499.0000 499.0000 499.0461
   499.0647 499.0647 502.6627 502.6627 502.8378 502.9524 502.9638 502.9638
   502.9671 502.9671 502.9823 503.0332 503.0507 503.0507 505.6874 505.6874
   505.7440 506.1244 506.2284 506.2405 506.2405 506.2936 506.2936 506.3210
   506.3789 506.3789 510.9071 510.9831 510.9931 510.9931 511.0832 511.0832

          k = 0.0000 0.5000 0.0000 (  2413 PWs)   bands (ev):

   -92.4219 -28.1763 -28.1727 -28.1727 -28.1646 -28.1626  -3.3902   5.2196
     6.4455   6.4455  10.7340  12.5103  14.5359  14.5359  16.7046  18.9416
    19.5416  21.6386  21.6386  22.7609  26.3415  26.3415  27.7486  27.9074
    30.2574  33.7495  33.7495  36.4762  36.6916  37.3806  37.3806  38.4785
    40.1636  41.1763  41.1763  42.9540  44.0994  45.2013  45.2013  46.0764
    46.4227  46.4227  47.1866  47.1955  48.0706  49.7704  49.7704  50.4791
    53.2644  54.2176  54.2176  55.1372  55.5331  56.5743  56.5743  56.5937
    57.2195  58.5172  62.2616  62.2616  62.5703  64.2308  66.7653  67.1454
    67.5668  67.5668  68.6066  68.6066  70.2257  71.7114  71.7114  73.3600
    74.0567  74.0567  74.6155  74.6873  76.1745  76.1745  76.3624  77.1231
    77.8477  78.1354  79.8919  79.8920  82.8432  83.1548  83.1548  84.1519
    84.4546  85.7899  86.3864  86.9444  86.9444  87.9213  90.5428  90.5429
    91.0058  91.0673  91.9953  92.3814  93.2131  93.2131  93.7638  94.4432
    94.6308  94.6308  94.6339  96.6144  98.0774  98.4475  98.4475  98.7322
    99.3431  99.9120  99.9120 101.5406 101.5406 101.7550 102.3218 102.3218
   102.4195 102.5674 103.3806 103.7879 104.1349 104.1349 104.8226 104.8226
   106.2452 106.3020 107.4629 110.9031 111.0215 111.0215 111.9679 112.1950
   112.1950 112.9439 114.0128 116.1124 116.1124 117.6408 118.0791 118.0791
   118.1093 118.9740 119.2303 119.2303 119.4781 120.0655 120.2058 121.2822
   121.2822 121.7779 123.4119 124.9953 124.9953 125.0954 127.0109 127.7270
   127.8019 127.9766 127.9766 128.9222 129.5381 129.5381 130.4162 131.0318
   131.0318 131.3673 133.9482 134.4670 135.2747 135.2747 136.3070 136.3070
   136.9966 137.0595 137.9319 138.2155 138.2155 138.5952 139.3860 140.0700
   140.1530 140.2967 140.2967 143.6287 143.6287 143.8416 145.0911 145.0911
   145.7380 145.7885 146.1234 147.9321 148.4903 148.4903 149.0213 150.1839
   150.1839 151.0772 151.2963 151.7446 151.7807 151.7807 152.4212 152.4212
   152.5271 152.8329 155.2297 155.7333 155.7333 155.9965 156.1235 156.1669
   156.9049 156.9049 157.2219 159.0749 159.0749 159.3146 160.2959 161.0347
   161.0347 161.4294 161.9624 163.0719 163.0719 163.4697 165.4031 165.4031
   165.4238 165.6890 165.7752 166.9945 166.9945 167.5314 168.8996 170.4380
   170.4380 170.5795 171.5013 172.5388 173.1776 173.1866 173.1866 174.0388
   174.3503 174.3503 174.8037 175.6507 175.6507 175.7076 176.1000 176.5105
   176.9787 177.0136 177.0136 178.2075 178.2075 179.9846 180.6614 180.6614
   180.8065 180.9979 181.4655 182.2724 182.4560 182.4560 182.5873 183.1154
   183.4635 183.4635 184.0524 184.6846 184.6846 184.7185 185.2335 185.6788
   185.6788 185.6913 186.1267 187.0660 187.0660 187.6109 189.1685 189.3624
   189.5629 189.5629 190.5734 190.5734 190.5809 191.5635 191.7231 193.1685
   193.6309 193.6309 194.4145 194.6698 194.9296 194.9296 195.3261 195.9006
   195.9006 195.9997 197.0586 197.5847 198.7586 201.2565 202.2730 202.2730
   202.7011 203.1508 203.1508 204.2362 205.1272 205.1272 205.1594 205.2454
   206.5601 207.6635 207.6635 208.5057 209.5522 210.9937 210.9937 211.2177
   211.5977 211.5977 212.1204 212.7854 213.9498 213.9498 214.5803 214.6920
   215.1288 215.4577 215.4577 216.2013 216.8628 216.9746 217.5218 217.5218
   217.8266 218.7130 218.7130 219.5806 219.5940 220.0252 220.0252 220.3957
   221.4394 221.6697 221.6697 223.4837 223.4837 224.6365 224.8954 225.3637
   226.2528 226.2528 226.8756 228.9425 230.4018 230.4018 230.7670 231.0966
   231.5382 231.5382 232.1225 232.2781 232.2781 233.1201 233.4106 233.4794
   233.4794 234.2852 234.9794 234.9794 235.1931 235.5912 236.2381 236.3871
   237.5870 237.5870 237.7025 238.2602 238.2602 238.2701 238.3994 238.7102
   239.3772 239.3772 239.9647 239.9647 240.0958 240.3642 240.5458 240.7545
   240.7545 240.7670 241.0875 242.3159 242.3845 242.3845 242.4665 242.9372
   243.4292 243.4292 243.6603 244.4862 244.4862 245.0160 245.4039 245.4494
   245.5411 245.5411 245.8835 246.7632 246.8375 246.8375 247.2856 248.4114
   248.6957 248.6957 249.2977 250.9733 251.2569 251.2569 251.2788 253.1379
   253.1412 253.1412 253.3022 254.5529 256.0001 256.5066 256.8504 256.8504
   257.8214 257.9553 257.9851 257.9851 258.6101 258.7407 260.1350 260.1350
   261.1534 261.6835 261.6939 261.6939 261.9350 261.9628 262.0552 262.0552
   262.1667 262.6115 262.6115 262.9228 263.3743 265.0630 266.1329 266.1329
   266.2533 267.8774 268.4242 268.4242 269.2260 269.4169 269.4169 269.4850
   269.8665 270.0226 270.0226 270.1678 270.8050 270.8791 271.7106 271.7192
   271.7192 272.0061 272.0061 273.7338 274.4937 274.8366 274.8366 275.1320
   276.0247 276.4960 276.4960 276.7773 277.3387 277.3387 277.3536 277.7359
   278.3993 279.1087 279.1087 279.1999 279.5897 279.5897 280.0004 281.5901
   281.7546 282.0069 282.0069 282.7777 283.4589 284.5240 284.5240 285.5461
   285.8479 286.6465 286.6465 286.8808 287.2937 287.3269 287.3269 287.4390
   287.8565 288.6688 288.6845 288.6845 289.1420 289.9816 289.9816 290.2014
   290.6503 290.6530 290.6530 291.1266 291.1506 291.3137 291.3137 291.8951
   293.5295 293.9332 293.9332 294.2975 294.6203 294.6203 294.7132 295.3455
   296.3601 296.7986 296.8957 296.8957 297.2880 297.8387 297.8387 298.5168
   299.5595 299.5969 299.5969 300.0104 300.0130 300.0483 300.0483 300.0745
   301.7963 301.8402 301.8632 301.8632 302.0087 303.7938 303.7938 305.2650
   305.2650 305.5664 305.7822 306.4821 306.9740 309.7487 309.7487 310.7470
   310.7586 311.9191 311.9191 311.9930 312.5657 313.6058 313.6205 313.6205
   314.1227 314.7858 314.7858 314.8606 314.9731 314.9731 314.9944 315.0929
   318.0548 318.8756 318.8756 319.0047 319.2046 319.4154 319.4154 320.4311
   320.8038 320.8038 321.2359 321.3352 321.6693 321.9267 321.9267 322.2068
   322.8764 322.8764 322.9047 323.5598 323.9322 324.0798 324.0798 324.7804
   325.1515 325.2545 325.2545 325.7257 325.8897 326.0087 326.0087 326.0359
   326.1970 326.3613 326.3613 326.5245 328.5919 328.8241 328.8653 328.8653
   330.1912 330.2018 330.2018 330.4151 330.7103 330.9564 331.2958 331.2958
   331.5501 332.2497 334.2561 334.2561 335.1450 337.0634 337.0776 337.0776
   337.3567 337.4729 337.6047 337.6047 337.7088 337.9622 337.9622 338.2014
   338.5452 339.0185 341.9627 342.3503 342.3503 342.3588 342.7403 342.9637
   342.9637 343.3353 343.6354 343.6354 344.2326 344.5211 344.8448 344.9587
   344.9587 345.1547 346.2361 346.2361 346.6233 346.7484 347.4319 347.4990
   347.4990 348.0991 348.0991 348.3019 348.4823 349.3987 349.4912 349.4912
   349.7284 349.9117 349.9919 349.9919 350.2498 350.8638 351.2176 351.2176
   351.3275 351.4794 352.2096 352.2096 352.2336 352.5384 353.5220 353.5220
   354.1659 354.1927 354.2267 354.2267 354.3417 354.7390 354.7809 354.7809
   356.6958 357.3499 357.3826 357.3826 357.7697 358.6539 358.7872 358.7872
   359.6980 360.0498 360.1567 360.1567 360.2804 363.6793 363.6793 363.8186
   364.4203 367.1479 367.5557 367.5557 367.6825 367.8291 368.1070 368.1070
   368.3139 368.9073 369.3551 369.3790 369.3790 370.0129 370.0742 370.0742
   370.0885 370.6091 370.8161 370.8161 371.0627 371.4150 371.5666 371.5666
   371.9440 371.9599 371.9671 371.9671 372.5196 372.6616 372.6616 372.7504
   373.1532 373.2086 373.2676 373.2676 373.4058 373.6188 373.7239 373.7239
   374.0710 375.7826 375.9746 376.1508 376.1508 376.2381 376.4109 376.4681
   376.5098 376.5098 377.9057 377.9057 378.3403 378.6739 378.6739 379.3056
   379.9486 379.9486 379.9786 380.0150 381.4884 381.5789 382.2180 382.2180
   382.5521 382.7687 383.0416 383.0416 383.1360 383.5341 383.9112 383.9112
   383.9915 384.0283 384.1761 384.1761 384.2127 384.4239 384.4734 384.5693
   384.5693 384.7937 384.8801 384.8801 385.6255 386.3679 386.3726 386.3842
   386.3842 387.8517 387.8557 387.8557 388.0469 390.6550 390.6550 390.8564
   392.0306 392.0306 392.0434 392.0993 392.1521 392.1521 392.1537 392.2015
   392.4840 392.7910 393.0921 393.0921 393.4813 394.7695 394.8657 394.8657
   395.0425 402.1803 402.1803 402.4510 403.1463 404.3504 404.5584 404.5584
   404.7350 404.8146 404.8360 404.8360 404.9097 405.1428 405.1428 405.2720
   405.4668 405.5393 405.5733 405.5733 405.7171 405.8743 406.1597 406.1597
   406.2897 407.0056 408.1036 408.1036 409.2786 410.4688 410.4688 410.6646
   410.9710 411.1266 411.3924 411.3924 411.4674 411.7851 411.7851 411.7905
   412.0908 413.1576 413.3192 413.3192 413.7668 414.6505 414.9642 414.9642
   415.1004 415.2829 418.2595 418.2595 418.3173 418.3353 418.4545 418.4545
   418.4704 418.5126 418.7398 419.4970 419.5081 419.5081 419.5866 419.7432
   419.7432 419.8854 420.0329 422.6933 422.7304 422.7304 423.3969 424.4815
   424.4815 424.5432 425.1176 425.2498 425.8101 425.8101 426.9671 427.2777
   427.2777 427.4802 427.7952 427.7952 427.8026 428.0073 428.0198 428.0545
   428.0545 428.1609 428.1660 428.1660 428.3395 428.4393 428.5929 428.7763
   428.7763 428.8191 428.9344 430.7719 430.7936 430.7936 431.0091 431.0407
   431.0455 431.0455 431.2033 431.3712 431.3712 431.7474 433.0052 435.7600
   435.7600 435.7642 435.8003 436.7586 436.7586 436.9056 437.1188 437.2404
   437.2404 437.3951 437.4382 437.4382 437.6105 438.9745 438.9745 439.0116
   439.0180 440.0347 440.0347 440.0392 440.1138 440.3222 440.3275 440.3275
   440.3637 440.4875 440.4875 440.5309 440.6842 440.7907 443.1044 443.2335
   443.2335 443.3705 443.8295 443.9347 443.9347 443.9456 445.2923 445.2956
   445.2956 445.3149 446.9867 446.9867 446.9901 447.1285 447.1285 447.2580
   447.4196 447.4905 452.6077 453.3070 453.3070 453.6940 454.6412 454.8943
   454.8943 455.0616 455.2254 455.4832 455.4832 456.5365 457.0089 457.6796
   457.6796 457.8130 459.0540 459.0540 459.7624 459.7661 459.9170 460.0001
   460.0001 460.0939 460.3697 461.4335 461.5335 461.5335 461.8001 461.9211
   461.9211 462.1122 462.1122 462.1725 462.4688 462.4688 462.6634 462.7067
   462.8781 465.0936 465.0996 465.0996 465.1459 465.5933 465.6335 466.5171
   466.5171 466.6305 466.8736 467.0911 467.2032 467.2032 467.4571 468.9014
   468.9014 469.8775 469.8775 469.9631 469.9908 470.0686 471.4961 471.4961
   471.9338 472.0457 472.3148 472.3148 472.3684 472.3943 474.0244 474.0244
   474.6077 475.0681 475.2410 475.2410 475.4439 475.4511 475.5590 475.5590
   475.8227 475.9023 475.9124 475.9124 475.9144 475.9502 476.0276 476.0276
   476.0404 476.2866 476.6582 476.8263 476.8263 477.2796 477.9063 477.9063
   477.9305 478.1917 479.2969 479.9337 479.9337 480.4282 482.3412 482.6667
   482.6667 482.9096 483.6245 483.6245 483.8132 483.8581 483.8969 483.9039
   483.9039 483.9438 486.2152 486.2152 486.3418 486.5711 486.6464 486.8508
   486.8508 486.9498 486.9888 486.9888 487.0169 487.0456 489.3121 489.3121
   489.3911 489.6304 491.8057 491.8057 492.0071 492.2058 492.2788 492.5327
   492.5327 492.7983 492.7983 492.8605 493.1709 493.1715 493.4437 493.4437
   493.7495 493.7938 493.9685 494.0054 494.0054 494.0995 494.1508 494.2081
   494.2081 494.2220 494.3865 495.0937 495.0937 495.2480 495.3481 495.3503
   495.3503 495.4403 495.6031 495.6101 495.6101 495.7569 495.7689 495.9653
   495.9653 496.0941 496.7427 496.7427 496.7492 496.7892 501.2257 501.8161
   501.8161 501.9145 502.7816 503.2790 503.2790 503.6873 504.1286 504.1286
   504.2407 504.4459 504.4459 504.4459 504.7286 504.8324 504.9030 505.0513
   505.0513 505.0537 505.0842 505.1071 505.1071 505.2658 506.0611 506.0611

          k = 0.7500-0.2500 0.7500 (  2405 PWs)   bands (ev):

   -92.4219 -28.1751 -28.1716 -28.1713 -28.1643 -28.1623  -2.6107   3.3281
     5.1607   6.1139  11.0879  13.6483  14.5974  14.9541  18.4984  20.0359
    20.4465  21.2309  22.3855  25.5117  26.5126  27.0885  28.4168  28.5101
    29.5985  31.3609  32.6449  32.9498  34.3955  35.4686  35.9866  37.4553
    37.6414  39.3552  40.0143  40.3863  42.6062  43.7440  44.9404  45.1494
    45.9926  48.0083  49.7840  50.0326  50.8854  51.3721  52.4836  52.9227
    52.9971  54.6656  55.0511  56.2232  56.9926  58.1429  58.1700  59.6839
    61.7274  61.7694  63.0074  63.5168  63.9791  65.4742  65.8714  66.4730
    66.6177  67.8390  67.9428  68.8876  69.4512  69.6140  71.1445  71.2264
    72.1742  72.7576  74.3935  74.4694  75.1071  76.0737  76.2111  76.7045
    77.1008  78.0202  79.4670  79.5665  80.5143  80.7904  82.1038  83.6656
    83.7894  84.5273  85.1001  85.5152  85.5627  86.4340  86.6020  87.1662
    88.6316  88.8252  90.3387  90.8796  91.3042  92.4439  92.5999  93.1603
    93.8013  94.4314  95.2113  95.4368  96.5192  97.1708  97.3689  98.4666
    99.6695  99.9463 101.4157 101.7695 102.4849 102.7029 103.8179 103.9646
   104.7844 105.5632 105.5649 105.8768 106.6597 107.4198 108.0149 108.6309
   108.8363 110.2526 111.0473 111.3283 112.3124 112.3798 112.8816 113.4263
   114.6546 115.1580 115.5779 116.9288 117.0942 118.0900 118.1851 118.7275
   119.2404 119.4382 119.9393 120.5091 120.9963 121.5017 121.8035 122.4588
   122.6057 123.3122 124.5140 124.7991 125.6157 125.6780 126.4760 126.8272
   127.2387 127.3444 128.5975 128.6783 129.5908 130.2724 130.6913 130.8280
   131.3558 132.0194 132.5869 132.6178 133.0731 134.2469 134.2557 135.0390
   135.4691 135.6351 136.6656 136.7187 137.2965 137.6636 138.2559 139.0920
   139.8180 140.1376 140.6868 141.3305 141.3648 142.4028 142.5187 142.6688
   143.7422 143.9930 145.2802 146.1097 146.6401 147.2334 148.3235 148.5965
   148.9541 149.0401 149.9848 150.1348 150.9908 151.0240 151.5802 151.8935
   152.5376 152.6856 153.5350 153.5547 154.1903 155.0498 155.0695 156.3404
   156.8138 157.1455 158.0535 158.1205 158.6820 159.5951 159.6119 160.2891
   160.5035 160.7064 161.0612 161.7774 162.1370 162.7695 162.7776 164.4723
   164.5135 164.8120 166.5558 166.9521 167.3496 168.0412 168.7219 169.0823
   170.0260 170.1843 170.5043 170.7577 170.8772 171.8288 172.0418 173.1675
   173.2023 173.9067 174.1556 174.9586 175.2450 175.7889 176.1006 176.5440
   177.1187 177.6795 177.8933 178.3061 179.1961 180.0622 180.5833 180.7244
   181.2380 181.7985 182.7334 182.7791 183.8033 183.9495 184.6441 185.4109
   186.0144 186.5422 186.6278 187.1728 187.4663 187.9934 188.6072 188.7735
   189.1985 189.2838 190.2944 190.8626 191.6966 191.7016 192.1682 192.2694
   192.4658 193.1419 193.9214 194.1002 194.7947 194.9965 195.3541 195.6988
   196.1320 196.3613 196.6810 196.7949 197.2390 197.3166 197.7139 198.3623
   198.6088 199.5059 199.7134 200.8914 201.5087 201.7598 202.1359 202.3862
   202.7317 203.8685 204.5252 204.6198 205.2278 205.3141 205.7100 206.0433
   206.4719 207.0751 207.6545 207.9298 208.5928 208.5983 209.3173 209.3963
   210.3240 210.9077 211.2382 211.4143 212.1411 212.3775 212.9675 213.6302
   213.8430 214.0949 214.7204 215.0309 215.6680 215.7186 216.1626 216.2776
   216.7282 216.9558 217.3016 218.1815 218.3680 218.8708 219.1980 219.4871
   220.4248 220.4563 221.2602 221.6303 221.8375 222.0669 222.6266 222.7539
   223.3906 224.0358 224.4445 224.5776 225.1798 225.2661 225.4277 225.9187
   226.3926 227.7850 227.9403 229.0880 229.6746 230.1436 230.6735 230.7067
   231.1388 231.5247 231.7385 231.9639 232.4846 233.1166 233.1752 233.6742
   233.7143 234.1782 234.5340 234.9296 235.1921 235.2585 235.5361 236.1345
   236.5266 237.3331 237.3334 238.0949 238.4700 239.6116 239.8649 240.1626
   240.2974 240.7337 240.9099 241.6062 241.6498 242.3009 242.4405 242.7453
   243.6554 243.7712 244.3598 244.7624 245.0343 245.3899 246.2076 246.7854
   246.8080 247.2758 247.9234 247.9958 248.2109 248.2988 249.1674 249.2710
   250.1266 250.3821 250.7966 251.2102 251.2876 252.2348 252.3273 252.9550
   254.4708 255.4001 256.4033 256.9581 257.0892 257.4493 257.6010 258.0903
   258.5749 258.7989 258.8965 259.4239 259.5058 260.0201 260.3344 260.6878
   260.8799 261.3953 261.7938 262.4348 262.8529 262.9769 263.3048 263.3526
   263.6830 264.7548 264.8428 265.5601 265.6555 266.2301 267.2291 267.2638
   267.5697 268.0805 268.1661 268.6493 268.7108 269.2133 269.8277 270.3740
   270.6359 271.7426 272.0358 272.3350 272.6682 272.7482 273.1637 273.5670
   273.8767 273.9635 274.2147 274.4844 274.7914 275.5702 276.0807 276.2602
   276.8245 277.0692 277.4920 277.6101 278.1701 278.7289 278.7960 279.2198
   279.2633 279.6430 280.1775 280.3233 280.5037 280.8349 282.2761 282.9309
   283.6222 284.1813 284.6255 284.7607 285.3110 285.3726 285.8781 286.2166
   286.8769 286.9759 287.2808 288.1116 288.7120 288.7766 289.3919 289.4178
   289.5717 289.6642 289.8405 289.9886 290.9993 291.2077 291.3506 291.6738
   291.7142 292.4342 292.4449 292.7095 293.1159 293.1723 293.4225 293.4556
   293.7136 294.2191 294.3911 295.3096 295.7061 295.8956 296.1865 296.2262
   297.0088 297.0940 297.2347 297.8221 297.9145 298.1947 298.3211 299.0610
   299.5366 301.0256 301.1062 301.9322 302.0478 302.4758 302.5452 304.1882
   304.8501 305.5603 305.5766 305.8406 306.1001 306.5669 306.7190 306.8885
   307.0218 307.0544 307.4520 307.5430 307.7708 308.6250 308.9088 309.0966
   309.1814 309.8150 310.2218 310.6691 310.8855 311.1969 311.9448 312.2320
   312.4709 313.2251 313.3589 313.3917 313.8143 314.2896 314.4074 314.6748
   314.8172 315.0043 315.3606 316.3658 316.8600 317.1229 317.1516 317.6447
   317.6680 318.5921 318.9662 319.0330 319.0996 319.2395 319.7359 319.9736
   320.0207 320.4439 320.7410 320.7427 321.3118 322.1012 322.4571 322.6337
   322.8443 323.0575 323.4528 323.9280 324.4788 325.0062 325.1985 325.5334
   326.3610 326.7925 326.8513 327.2268 327.5794 327.6247 327.6513 327.9414
   328.1365 328.3883 328.7281 329.2962 329.4899 329.6775 330.5400 330.6727
   330.7662 330.9903 331.3079 331.3726 332.2869 333.9395 334.7201 334.9175
   335.3509 335.8122 335.9320 336.4370 336.6684 337.0001 337.0970 337.1251
   337.3235 337.5327 337.5783 338.3714 338.4718 338.5626 338.6789 338.7199
   339.1916 339.5537 339.6096 340.0136 340.5239 340.8390 341.2984 341.3691
   342.0876 342.1700 342.2363 342.2724 343.9423 344.3608 345.9119 345.9751
   346.1354 346.2317 346.3788 346.5736 348.4518 348.6864 349.0750 349.2486
   349.3685 349.4944 349.7695 350.2527 350.3975 350.5521 350.9274 350.9719
   351.1786 351.3858 351.4707 351.5637 351.5924 352.0199 352.3776 352.4439
   353.6769 354.2522 354.3674 354.4633 354.7900 355.3996 355.4009 356.8048
   356.9135 356.9281 357.3406 357.8291 358.5795 359.3741 359.3989 360.3840
   360.4403 360.6446 360.9967 362.2115 362.2679 363.7142 363.7283 364.1997
   364.3102 364.4856 364.8238 364.8615 364.9813 365.6275 365.7232 365.8630
   365.8751 366.1087 366.5050 366.8246 366.8741 366.9692 369.4712 369.5472
   369.7572 369.8295 370.0958 370.5624 370.7181 370.8324 370.9718 371.0738
   371.2163 371.3632 371.4765 371.8127 372.0321 372.1298 372.5039 373.1401
   373.4940 374.2166 374.2248 374.5387 374.6382 374.6629 374.7085 376.1682
   376.4585 376.7422 376.8948 377.0699 377.1052 377.9255 378.6889 379.0370
   379.0759 379.2496 380.1220 380.6632 380.8302 381.1450 381.5192 381.8609
   382.3436 382.6158 382.6571 382.9662 382.9985 383.2640 384.3766 384.6051
   384.7309 384.7727 385.1262 385.2438 385.6535 385.8598 386.1568 386.2023
   386.3181 387.0546 387.3894 387.9087 388.1153 388.3438 388.5816 388.6442
   388.8877 389.1350 389.7246 389.8635 390.1832 391.2170 391.5676 391.8820
   392.2288 392.3692 392.9170 393.0684 394.0972 394.2649 394.3021 394.4089
   394.4460 394.6927 395.6294 395.7638 395.8993 396.0293 396.5209 397.5637
   397.7583 398.3809 399.9740 400.0158 400.1706 401.1049 401.1135 401.4679
   401.6604 401.8133 401.9981 402.0099 402.2573 402.5529 402.9951 403.5599
   403.5989 404.2054 404.3929 404.6596 404.7922 404.8135 404.9497 405.0861
   405.1784 405.4482 405.5187 405.7029 407.2959 407.6607 407.9191 408.1615
   408.1928 408.4351 408.7203 408.7837 408.9214 408.9623 409.7804 410.0445
   410.1787 410.5046 410.7634 410.9984 411.0690 411.4136 412.5987 412.7084
   412.8513 412.8875 412.9643 412.9828 413.1440 413.4707 413.5507 413.9483
   414.0948 415.2696 415.3325 416.0066 417.8644 417.9702 418.2391 418.2656
   418.4797 418.7033 418.8188 418.9641 419.1048 419.3019 419.3620 419.4465
   419.5765 419.6557 420.3359 420.9527 421.1044 421.1474 421.8649 421.8707
   422.6346 422.6515 422.6954 423.0768 423.2334 423.3721 424.1562 425.5375
   425.5392 426.5952 427.0156 427.1158 427.2383 427.6229 427.7609 428.1758
   428.2147 428.5415 428.6554 428.8632 429.1302 429.2695 429.3376 429.4181
   429.4917 429.5496 429.6216 429.7382 429.8827 429.9815 430.6663 430.7296
   431.6168 431.6993 432.6391 432.6469 432.7447 433.4661 433.7962 434.1841
   435.0298 435.1414 435.5565 435.6790 435.8648 436.0301 436.8365 436.9150
   437.5696 437.7033 437.8613 437.9005 438.4917 438.5297 439.1802 439.2125
   439.4973 439.5987 440.6834 440.8184 441.1986 441.2582 441.3070 441.6392
   441.8171 441.9237 441.9591 441.9822 443.0410 443.0858 443.2276 443.3419
   443.3424 443.8103 443.8277 444.4843 444.5916 444.8322 445.0092 445.0561
   445.3304 446.2113 446.5873 446.7423 446.8845 447.0545 447.3425 447.3619
   448.0958 448.1856 448.6951 448.8185 448.9165 449.1714 449.4926 449.7818
   449.7873 449.8401 449.9594 450.7422 451.4917 452.9287 454.4854 454.5040
   454.5629 454.6955 455.1216 455.3731 455.6272 455.9074 455.9634 456.0734
   456.4644 456.5872 456.6206 457.1486 458.2567 458.4190 459.2278 459.4674
   459.5274 459.9450 460.2780 460.5063 460.6627 460.9367 461.0456 461.2815
   461.2897 461.4682 462.3809 462.4981 462.5825 462.9085 463.1505 463.5167
   463.7685 464.0209 464.1231 464.1381 464.7149 464.7210 464.8708 464.9980
   465.1127 465.2775 465.3412 466.4059 466.6001 466.7070 466.7788 466.8182
   466.8612 467.3545 467.4298 467.6935 468.1372 468.2510 468.4499 470.3415
   470.4655 471.4706 471.5370 472.5343 472.5624 472.5768 473.2117 473.4222
   473.9674 473.9737 475.0049 475.5914 475.8072 476.2889 476.3729 476.4315
   476.4842 476.5610 476.7303 476.8712 476.9378 477.0697 477.0713 477.2245
   477.3042 477.5730 477.6383 477.7247 477.8835 479.5319 479.7196 479.9877
   480.1428 480.7329 481.0002 481.2620 481.8510 481.8664 482.5110 482.5739
   482.6732 482.8005 483.1216 483.1228 484.0129 484.1525 484.4992 484.9326
   485.0267 485.0405 486.4949 486.6213 487.1055 487.3195 487.3459 487.4586
   488.1608 489.2129 489.6701 490.1962 490.2680 490.6470 490.9141 490.9174
   491.1188 491.1287 491.2541 491.3299 491.8284 491.9667 492.1954 492.1990
   492.8897 493.1301 493.3302 493.7768 493.8881 494.1955 494.3790 494.4900
   494.8938 495.5077 496.4163 496.5020 496.7742 496.9810 497.2860 497.3363
   497.6505 498.1939 498.2142 498.4359 498.7620 499.5588 500.0279 500.3379
   500.5982 500.6002 500.9586 501.0531 501.0842 501.3101 501.3307 501.4821
   501.5707 501.8993 501.9145 502.8748 503.3119 503.4053 503.5939 503.6877
   503.7261 503.7487 504.7124 504.8935 504.9802 505.1252 505.4707 505.5785
   505.6556 505.9131 505.9236 506.8978 507.2189 508.0687 508.6019 509.0219

          k = 0.5000 0.0000 0.5000 (  2395 PWs)   bands (ev):

   -92.4219 -28.1736 -28.1733 -28.1726 -28.1635 -28.1631  -2.8823   3.8040
     4.9885   6.9053  11.8609  13.6405  14.2581  14.7183  16.6081  17.9938
    20.5043  21.7647  22.6346  25.1502  26.6272  26.7085  28.4305  29.7092
    30.6038  31.9052  33.0218  33.5150  33.9859  35.5720  36.1651  37.5974
    39.1414  39.5902  41.4018  41.5832  42.7518  43.8691  43.9472  45.2412
    45.3503  46.2639  46.6903  50.0090  50.2776  51.9261  52.4797  53.0547
    53.2535  55.0011  56.4251  56.5475  56.5516  57.8987  58.8731  59.5472
    60.4114  61.6623  61.8584  63.2626  63.5014  63.5072  64.6336  65.1242
    66.6909  66.7036  67.4294  67.9118  69.6263  70.1312  71.6424  72.4695
    72.9544  73.5590  74.7237  75.1934  75.6609  76.2746  76.5927  76.9350
    77.4271  78.4546  79.1559  79.7930  80.9133  81.1813  83.0684  83.9846
    84.3486  84.3823  85.1851  85.4599  85.9862  87.3079  87.3923  88.2863
    88.4454  88.8921  90.1125  90.7086  91.9257  92.0783  92.6456  93.1285
    94.4528  95.3022  96.6429  97.2041  98.2958  98.5673  98.8121  99.4141
    99.6539 101.0015 101.5138 102.1336 102.4338 103.0267 103.0534 103.3900
   103.9610 104.2158 105.4281 105.4589 106.1865 106.7717 107.0386 107.7290
   108.6655 108.9177 109.4757 110.0431 110.4073 111.1926 112.6467 112.9149
   113.3678 113.9292 114.1713 114.2881 115.1598 115.3718 115.7404 117.0776
   117.8507 119.2660 119.4601 120.2200 120.9296 121.7787 122.4299 122.4886
   123.2974 123.6718 124.7437 124.8552 125.2786 125.8335 126.1077 126.2495
   127.1140 127.6514 127.7241 128.1197 128.2875 129.7834 130.6816 132.1007
   132.5658 132.9272 133.7336 133.9936 134.4279 134.9191 135.1676 135.4985
   136.2565 137.0725 137.6402 137.6745 138.7629 138.7956 139.1791 139.8305
   140.1769 140.6677 140.8044 141.5905 141.9384 142.9437 143.5199 144.2167
   144.5287 145.4290 145.8942 146.2510 146.6590 147.8143 148.3916 148.7511
   149.2931 149.5398 150.4422 150.6397 151.4473 151.4645 152.4664 152.6859
   153.3759 153.6580 153.9493 154.3112 154.6075 154.8700 154.8992 156.0558
   156.6858 156.7577 157.2701 157.5559 158.1482 158.5055 159.3381 159.5657
   160.3737 160.8263 161.3676 161.6940 162.4493 163.3333 163.8808 164.7235
   164.8165 166.0074 166.8019 167.4259 168.3839 168.5035 168.9836 169.1860
   169.7146 169.9105 170.1233 170.4379 170.5750 171.1722 171.5558 173.2263
   173.2324 173.3736 173.9116 174.2838 174.4717 175.0336 175.3577 175.7369
   176.1667 176.3425 176.9525 177.7176 178.3022 179.2080 179.4782 180.3754
   181.2736 181.6062 181.8692 182.4900 182.6365 183.0756 183.2162 183.6552
   184.1039 185.2337 185.3785 186.1934 186.7913 187.4791 187.8525 188.8134
   189.2084 189.3699 189.9434 190.0289 190.5716 191.4540 192.7638 192.7647
   192.8505 193.2705 193.7895 193.9606 194.6389 194.7416 195.9114 195.9150
   196.3125 196.4601 197.1860 197.2796 197.3849 198.0616 198.1132 198.4618
   198.4677 198.7082 199.0757 199.2770 200.7576 201.1154 201.4417 202.1426
   203.1558 203.5572 204.2235 204.5981 205.0713 205.9654 206.1034 206.6569
   207.0224 207.3597 207.4970 207.9266 207.9307 208.3885 208.6512 209.7771
   210.1497 211.1122 211.1462 211.6478 212.1317 212.4997 212.6573 213.1008
   213.1314 213.4515 213.8846 214.0222 215.7120 216.1443 216.8358 217.1050
   217.5296 218.2765 218.6011 219.0453 219.3619 219.9384 220.8065 221.1033
   221.8758 222.1640 222.2469 223.0183 223.2360 223.3188 223.5255 223.6597
   224.3692 224.6362 224.9339 224.9568 225.3515 225.4276 225.6611 226.0271
   226.1738 226.4732 226.9765 227.6723 228.1361 228.8465 229.4270 230.1532
   230.9851 231.7832 231.9714 232.1499 232.6937 233.2534 233.3765 233.6933
   233.9344 234.4897 235.0882 235.1958 235.3155 235.4994 236.2751 237.5033
   237.5845 238.0818 238.1451 238.2059 238.3284 239.0473 239.0806 239.5882
   239.6203 240.0132 241.0084 241.1751 241.4180 241.9216 242.1388 242.9983
   243.9499 243.9941 245.0208 245.7971 246.1142 246.2856 246.7212 246.9904
   247.6402 247.8168 248.0141 249.0529 249.1970 249.3159 249.4538 249.5724
   250.0070 251.6433 251.7145 252.9609 253.5537 254.3343 255.6642 256.1081
   256.2658 256.9732 257.2857 257.5198 257.6966 257.9546 258.0412 258.3090
   258.9983 259.1932 259.2366 259.3332 259.4592 259.8679 260.3271 261.2951
   261.4987 262.0204 262.3664 262.6899 262.8843 263.3424 263.7778 264.1559
   264.4048 265.3748 265.4833 265.5623 266.0779 266.4716 266.7997 266.8907
   267.2718 267.3071 267.9892 268.0573 268.3036 268.3611 269.0427 269.1866
   269.1992 269.2326 269.4197 269.5135 270.2731 271.0864 271.7696 271.9321
   272.0686 273.4909 273.6868 273.7915 274.1803 275.1836 275.6240 275.7507
   275.8901 276.4562 276.4853 276.8114 276.9352 277.5738 277.9786 278.1271
   278.1507 278.1723 278.4326 278.6297 278.7437 279.7804 280.3502 282.4271
   283.7624 284.1039 284.2115 284.6356 285.1146 285.6471 285.9165 286.2965
   286.5267 286.5930 286.6400 286.8675 286.9217 287.5249 288.1229 288.2731
   288.3762 288.7240 288.8381 288.9246 289.8046 289.9388 290.2615 290.5682
   290.7159 290.8416 291.2267 291.3797 291.6509 291.8093 292.9379 293.1694
   293.5493 294.0969 294.5423 294.6515 294.8449 294.8882 295.2123 295.3181
   295.4842 296.2913 296.4101 296.7590 297.4675 297.5273 299.0278 300.5705
   302.3378 302.4468 302.5144 302.9459 303.0267 303.0312 303.1075 303.6725
   303.7223 304.2959 304.4804 304.5801 305.6451 305.7538 306.6510 306.8538
   307.2924 307.5236 307.9169 308.2234 308.2405 308.7535 308.9276 308.9387
   309.1421 309.4616 309.9357 310.3463 310.5562 310.8063 310.9379 311.1087
   312.4634 312.7638 313.0940 313.3870 314.8261 315.0798 315.3393 315.4007
   315.6641 315.7863 316.0273 316.3002 316.8551 317.4122 317.8649 318.1016
   318.2463 318.4497 319.0483 319.5491 319.6578 319.9697 319.9869 320.2915
   320.6121 321.0637 321.9021 322.0093 322.4263 322.5474 323.0651 323.2551
   323.4406 323.6032 323.6211 323.7347 323.8097 324.0814 324.4563 324.7152
   325.1481 325.2242 326.7625 327.5612 327.7882 327.8781 328.8066 329.1184
   329.1644 329.1993 330.7166 331.3891 332.0843 332.2354 332.5159 332.6825
   333.7772 334.0712 334.2202 334.7851 334.8762 334.9763 335.5385 335.8520
   336.2119 336.5121 336.5757 336.9415 336.9949 337.3908 337.5481 337.5893
   337.7730 337.9930 338.1623 338.3450 338.3828 338.6096 338.6762 338.8822
   338.8984 339.0119 340.9120 341.0035 342.3899 342.5441 343.2528 343.4015
   343.7777 343.8990 346.2297 347.1821 347.3735 347.4562 347.5328 347.7493
   347.8372 348.0322 348.1225 348.3733 348.5707 349.0633 349.3373 349.7176
   350.4734 350.5045 350.5509 350.9244 350.9641 351.5522 351.5881 351.9450
   352.9223 352.9835 352.9992 353.2088 353.3509 353.5200 353.5477 353.6804
   354.1194 354.1990 354.6625 354.7084 355.0239 355.1137 355.8584 355.8904
   356.0811 356.1470 356.4872 356.7396 357.8594 358.8073 358.8768 358.9048
   359.9717 360.1694 361.0251 361.7368 362.3686 362.5036 363.4184 363.6352
   363.7241 364.3629 364.4325 364.4585 364.6428 364.7598 364.7849 365.2405
   365.2658 365.2889 365.8999 365.9737 366.4871 366.6242 366.7028 366.8989
   367.1626 367.1782 367.4605 367.5138 368.8990 369.1350 369.4115 369.7311
   369.8143 370.2030 370.4468 370.4548 371.2480 371.2644 371.5531 371.6769
   371.7193 371.7819 373.2677 373.4505 373.8423 374.0723 374.5698 374.8845
   375.9018 376.0685 376.1590 376.3003 377.4921 377.5947 377.6019 377.6577
   379.0313 379.1648 379.5698 379.6608 379.8504 379.8935 379.9076 379.9934
   380.0297 380.2324 382.0305 382.4695 383.0104 383.0478 383.4072 383.9028
   383.9306 384.1769 384.9153 385.3161 385.4750 385.6713 385.7191 385.9126
   387.1302 387.1905 387.1938 387.4121 387.6219 388.4640 388.5298 388.6254
   388.6519 388.6957 389.7706 389.8735 390.8530 391.2608 391.2851 391.8170
   391.8870 392.3512 392.6846 392.9604 393.6243 393.6958 394.2741 394.4430
   394.6563 394.8576 394.9348 394.9561 395.0169 395.2262 395.9490 396.7069
   396.8349 397.1394 397.5857 398.8290 398.8909 399.4879 399.8951 399.9326
   400.5421 400.6467 400.9024 401.0596 401.4628 402.6528 402.7664 402.9765
   403.0678 403.1127 403.1385 403.1432 403.2774 404.8209 404.8627 404.9294
   404.9516 405.4345 405.8962 406.0451 406.1987 406.4729 407.1019 407.1613
   407.5587 407.7557 408.6347 408.7990 408.8349 409.1657 409.3411 409.9362
   409.9557 410.3727 410.5185 410.8156 411.0117 411.2451 411.4021 411.4078
   411.5883 412.1781 412.1796 412.3157 412.5863 412.6900 412.7180 413.0107
   414.4911 415.0435 415.2119 415.6956 415.7903 415.9063 416.4901 416.7145
   416.8652 417.7931 417.8677 418.4821 418.5567 419.3505 419.6401 419.6532
   420.3038 420.3717 420.5550 420.6542 421.1868 422.0992 422.1003 422.2879
   422.3488 423.7221 424.0071 424.1356 424.4888 424.5637 424.7060 426.6082
   426.8830 426.9247 426.9770 427.6648 427.7895 428.0243 428.1261 428.2491
   428.3052 428.3617 428.5837 429.0541 430.2045 430.3535 430.8808 432.2272
   432.2618 432.3970 432.4609 432.6012 433.1334 433.2418 433.3953 433.3968
   433.4922 433.7277 433.7827 434.0260 434.1770 434.4771 435.1614 435.3135
   435.4459 435.6751 435.8589 436.0469 436.2355 436.8471 436.8917 436.9542
   437.0173 437.1926 437.5576 438.5305 438.6153 438.8189 438.8561 439.0658
   439.4767 440.4019 440.6037 440.6688 440.8253 440.9337 440.9552 440.9749
   441.0155 441.8273 442.4452 442.6014 442.9409 443.1054 443.1153 444.2125
   444.2373 444.5460 444.5658 445.6775 445.8717 446.0891 446.1354 446.2151
   446.3257 446.9191 447.5061 447.7219 447.9956 448.6734 448.6989 448.7592
   448.7678 449.5505 449.5867 449.7934 450.5310 450.5987 450.8669 451.1214
   451.4317 451.5357 451.6346 452.7110 452.7552 452.8305 452.8819 454.0288
   454.1681 454.5852 454.7313 455.1520 455.2688 455.2804 455.4764 455.9061
   455.9969 456.0052 456.0114 459.3715 459.9453 459.9696 460.3015 460.4656
   460.6438 460.9820 461.0054 461.1940 461.4282 461.6138 461.7599 462.1852
   462.3847 462.4011 462.5987 462.6739 463.0555 463.3803 463.4918 463.5447
   463.8416 463.8468 464.1246 464.5844 464.6566 464.7344 464.8644 465.4544
   465.5770 466.0277 466.0284 466.0841 466.1310 466.6504 466.8273 466.8608
   466.9311 467.7850 467.7876 467.9672 467.9920 470.8220 470.9897 471.3125
   471.3465 471.4008 471.4785 471.5505 471.6496 472.1374 472.4521 473.6724
   473.8365 473.9935 474.0670 474.6157 474.7186 474.7967 475.2058 475.3172
   475.9888 476.6325 476.6623 476.7654 476.9616 476.9977 477.4123 477.6356
   477.7197 477.9504 477.9648 478.0553 478.1137 478.1714 478.1975 479.0502
   479.0731 480.1030 480.1859 480.5426 481.0939 481.1326 481.3095 481.5160
   481.6008 481.8639 482.0544 483.0297 483.1052 483.1126 483.1214 483.6388
   483.7114 484.6727 484.8618 484.8868 485.4096 486.4426 486.6444 487.6552
   487.6803 489.6668 489.6949 489.7887 489.8582 490.0068 490.0795 490.6874
   490.8289 492.2121 492.4413 492.7051 492.9085 493.5159 493.5202 493.6405
   493.7313 493.8227 493.9087 493.9337 494.0259 494.1551 494.1978 495.0309
   495.0956 495.1063 495.2940 495.9091 495.9160 496.1256 496.1396 497.9694
   497.9807 498.2222 498.2398 499.9273 500.1936 500.3282 500.6674 500.7690
   500.9276 500.9701 501.1598 501.4426 501.4584 502.5500 502.6069 502.6115
   502.7023 503.4303 503.4354 503.9433 503.9922 504.1000 504.2765 504.2770
   504.6436 504.8010 505.1021 505.2368 505.2890 505.4812 505.5477 505.6074
   505.6458 505.8677 505.8932 506.4544 506.5690 506.5909 506.6302 507.5364

          k = 0.0000-1.0000 0.0000 (  2450 PWs)   bands (ev):

   -92.4219 -28.1770 -28.1697 -28.1697 -28.1655 -28.1614  -2.3425   3.0644
     5.5020   5.5020  10.1104  10.7963  17.7648  17.7648  19.6589  20.9902
    21.7819  21.7819  22.5343  22.8283  27.1856  27.1856  27.6351  28.1215
    28.4926  28.4926  29.1253  30.2131  35.8805  35.8805  37.3168  39.4662
    39.4662  39.8071  41.4031  41.6852  43.7128  44.4049  44.4049  44.8999
    45.7578  46.6984  47.1096  47.1096  47.8601  50.0639  51.9175  53.7860
    55.4181  55.4181  56.3114  56.3114  58.4212  60.9782  62.0138  62.0361
    62.0361  63.2481  63.3842  63.3842  63.3929  64.6443  64.6443  64.9957
    65.0874  65.5421  65.5421  66.9945  69.1778  69.7661  72.1327  72.1327
    73.0981  75.3426  75.3426  75.9776  76.0315  76.6402  76.6402  78.6538
    78.6599  78.6881  80.3032  80.3032  80.3857  81.3830  81.8748  81.8748
    82.0999  82.6241  83.8188  83.8188  84.4248  84.4248  84.7489  84.7525
    85.2387  89.4153  89.7869  89.7869  90.1038  91.1542  92.6749  93.6811
    93.6811  94.8746  95.7362  95.7362  96.2740  97.0517  97.0517  97.5753
    98.3743  99.2750 100.7173 100.8313 100.8313 101.4723 103.0731 103.0731
   103.6585 105.0563 105.1002 106.4614 108.4855 108.4855 109.8315 110.2351
   111.4516 112.1235 112.1235 114.0944 114.0944 114.5220 114.8066 117.1347
   117.1347 118.1714 118.4587 118.8297 118.9073 119.4514 119.4514 119.8384
   119.8384 119.9675 120.0159 120.4628 120.4628 121.0682 121.2753 121.2753
   121.2945 121.5005 122.3663 124.1371 126.2496 127.2386 127.2386 128.7073
   129.0553 129.7992 129.8056 129.8056 130.2806 130.2806 130.8562 130.8562
   131.5462 131.5963 132.1786 132.8995 133.4340 133.4340 134.3472 135.0737
   135.0737 135.4516 135.9886 136.6694 137.2322 137.2322 137.5250 138.2088
   138.2088 138.5872 138.5956 139.3826 139.3826 139.7520 140.0418 140.4982
   140.4982 140.8883 141.4065 141.4065 143.4038 144.4204 145.5299 146.9812
   146.9812 147.3039 147.7396 149.4226 149.4226 149.4582 150.4469 152.1584
   152.1584 152.7519 154.6196 154.6383 154.6383 155.0491 155.5367 155.7125
   156.9784 156.9784 157.1471 158.4489 159.1405 159.3541 159.3541 160.0150
   160.0150 160.6651 162.2240 163.4916 163.4916 165.4438 166.0801 167.1613
   167.1613 167.2485 169.3319 169.4474 170.7524 170.8452 171.0214 171.1560
   171.1560 171.3319 171.3319 172.1436 172.6230 172.6230 173.4507 173.8997
   174.2342 174.4543 174.4734 174.4734 174.8204 174.8204 176.3350 176.6500
   176.8313 176.9923 176.9923 177.5729 177.8241 177.8241 179.3159 183.0183
   183.4342 183.4342 184.4745 185.3418 185.8934 185.8934 186.3545 186.8496
   187.1215 187.1215 187.3232 187.5875 187.6810 187.6810 189.5321 189.5321
   189.7949 189.8550 189.9415 190.6922 190.6922 191.0425 191.2522 191.3776
   191.3776 191.5917 191.8856 192.0097 192.1744 192.1744 192.6574 194.0244
   194.0244 194.1508 194.1884 194.3026 194.3026 194.4364 195.9613 197.4927
   198.3225 198.3225 200.4469 200.4469 201.0989 202.1026 203.7010 205.0179
   205.1986 205.5178 205.5178 205.7716 205.8124 206.5694 206.5694 207.2020
   207.3028 208.0007 208.0007 208.2382 208.2530 208.2530 208.3390 208.9048
   209.1787 210.5405 210.5405 211.4259 211.4259 212.0497 212.4586 213.6772
   213.9897 214.6753 215.2917 215.2917 215.5975 215.5975 216.1980 216.4190
   216.4190 216.4482 216.5054 216.6015 216.6015 218.7477 219.9403 220.9104
   220.9104 221.1794 221.1794 221.9190 222.3435 222.3726 222.6671 222.6671
   222.8683 222.9737 223.5294 224.0214 224.9364 225.9757 225.9757 226.2577
   227.6044 227.6044 227.8862 229.7204 229.8212 230.3831 230.3831 230.6687
   231.9610 231.9610 232.0276 232.3176 233.8872 233.8955 233.8955 233.9157
   234.0101 234.0101 234.0456 234.1580 235.5471 237.1280 237.6048 237.6048
   238.7419 239.1708 239.7885 239.7885 240.0218 241.3779 241.4297 241.4297
   241.4589 241.7293 241.7705 241.7705 242.6888 242.6888 244.6524 245.2394
   245.6341 245.7954 245.7954 246.4215 246.6251 246.7133 246.7133 246.7361
   247.0268 247.0268 247.0900 247.4194 247.4194 247.4426 247.6292 247.6292
   247.7405 247.7481 247.7491 247.9769 248.1064 248.8396 248.8396 251.1656
   251.1803 251.6596 251.6596 251.9173 251.9339 251.9568 252.0140 252.0140
   252.4661 252.7604 252.7604 252.7928 257.5346 258.4663 258.4663 259.3207
   261.1668 261.1668 261.7524 262.6436 262.6500 262.8136 263.1534 263.3246
   263.3246 263.9818 263.9818 265.0337 265.1726 266.4104 266.4104 266.5692
   267.2467 267.3788 267.4832 267.4832 267.6569 267.6569 267.7144 267.7641
   268.8094 268.8094 269.5172 271.2421 273.5446 273.7736 273.7736 275.1629
   275.7110 276.4774 276.4774 276.5014 278.1237 278.4472 278.4472 278.8096
   278.9441 279.4046 279.4046 279.6237 280.9884 283.0457 283.4554 283.4554
   285.1856 285.2012 285.2583 285.2583 285.2836 285.7342 285.7342 286.4620
   286.6521 286.8644 286.9984 286.9984 287.3148 287.4228 287.4228 288.0204
   288.0446 288.3881 288.3881 288.4474 288.4684 288.5147 288.5147 288.8908
   289.4826 289.4826 289.5041 289.5195 292.1465 293.3906 293.9967 294.9231
   294.9231 294.9698 294.9698 295.1326 295.5804 296.1163 296.6280 296.9778
   296.9778 297.3400 297.8836 298.0014 298.0014 298.5899 298.6011 298.6011
   298.9796 299.0160 300.6941 300.6941 301.1033 301.1033 302.0016 302.0083
   302.0383 302.0383 302.1107 302.1458 302.6965 302.7220 303.0135 303.2309
   303.2309 303.3983 304.5629 304.6824 304.6824 304.8542 306.0885 306.0885
   306.1904 306.2363 306.2368 306.5376 306.6571 306.6571 307.0055 307.0055
   307.0765 307.0765 307.2565 307.7852 308.7726 308.7726 308.8431 308.8536
   308.9630 309.0051 309.0051 309.1627 311.9849 312.5297 312.5297 312.8760
   313.1089 313.2038 313.2763 313.2763 314.5078 315.7725 316.4209 316.4209
   316.8269 316.8300 316.8300 316.9448 318.8205 318.8565 318.8913 318.8913
   319.3439 319.3439 319.4667 319.4667 319.8141 319.8217 320.1238 320.8398
   321.1182 321.9387 321.9387 321.9772 321.9814 322.1951 322.4647 322.4647
   323.2766 323.7715 323.7715 324.0013 324.3886 324.4711 324.7156 324.7156
   327.2852 327.3477 327.3768 327.3768 327.4558 327.4558 327.5193 327.5696
   334.8045 334.8045 335.3858 335.5978 335.6537 335.6537 336.1340 336.5548
   336.7511 336.8289 336.8289 336.8712 337.8994 338.0322 338.4818 338.4818
   338.8832 339.2733 339.3076 339.3076 339.3506 339.6406 339.6406 339.7767
   339.7767 339.7918 340.3773 340.6285 340.6643 340.6643 340.7229 340.7229
   340.9177 341.0578 341.8577 342.7205 342.7205 342.7643 342.8499 343.0101
   343.0204 343.4671 345.8499 345.8499 346.0470 346.0470 346.6681 346.6681
   346.9361 346.9948 346.9955 347.1412 351.3370 351.3370 352.0996 352.3882
   353.2761 353.6185 353.6185 354.2812 355.3278 355.4942 355.4942 355.8686
   355.9337 356.0883 356.0883 356.5297 356.6671 356.6671 356.8720 357.0986
   357.2827 357.2827 357.3169 357.3739 358.4737 358.4737 358.5199 358.9203
   358.9542 359.1478 359.1478 359.3099 359.4405 359.5092 359.5092 359.5551
   359.6561 359.6561 359.6609 359.6632 361.3011 361.4110 361.4110 361.5644
   362.8589 362.8869 362.8869 362.9253 369.7057 370.1898 370.1898 370.3471
   370.5377 370.9012 370.9012 371.0376 371.9542 372.2280 372.2904 372.2904
   372.7031 372.9555 373.2633 373.7678 373.7678 374.1900 375.0159 375.0159
   375.9191 375.9676 376.3110 376.3110 376.5017 376.6676 377.2403 377.4375
   377.4375 377.5656 378.3954 378.3954 378.4901 378.6737 378.8690 378.8690
   379.0159 379.1334 379.2760 379.2760 379.4458 379.9159 380.1613 380.3169
   380.3169 380.5153 381.6548 381.9068 381.9068 382.0296 382.2038 382.2038
   382.4144 382.4412 382.4412 382.4424 382.7507 382.8886 388.6775 389.9800
   393.9708 393.9708 394.0430 394.0430 394.8188 394.8188 395.1700 395.3725
   395.6169 395.7363 395.8244 395.8244 396.4234 396.5282 396.5323 396.5323
   396.6915 396.7885 396.7885 396.9058 396.9058 397.3496 397.3682 397.5591
   397.6044 397.6725 398.2560 398.3383 398.9526 398.9526 399.5103 399.5103
   399.8079 399.8813 399.9810 399.9810 400.0172 400.1144 400.1144 400.1146
   400.2277 400.9267 401.4205 401.5049 401.5753 401.5753 407.0572 407.0572
   407.2693 407.5474 407.7505 407.7505 407.8716 407.9230 408.2426 408.2488
   408.2734 408.2734 408.4841 408.5404 408.5404 408.5821 408.6969 409.0238
   409.0238 409.0595 409.2052 409.2052 409.3186 409.3262 410.3594 411.1422
   411.1766 411.1766 411.2037 411.2495 411.2495 411.3948 411.4455 412.8138
   412.8921 412.8921 413.3146 413.3146 414.0480 414.0661 414.4195 414.4195
   414.4807 414.5397 414.5397 414.6253 414.6334 414.6422 416.8320 416.8320
   416.9044 416.9829 417.5976 417.5976 417.6470 417.6732 417.7219 417.7219
   418.2333 418.3399 418.5721 418.5730 418.6632 418.6632 418.8760 418.8760
   418.8893 419.0186 419.0771 419.1596 419.1596 419.4022 421.1279 421.1889
   421.1889 421.2258 421.3185 421.3845 421.3930 421.3930 421.4419 421.6457
   421.6457 421.6972 421.7073 421.7073 421.7386 421.7678 428.1978 428.1978
   428.4620 428.5398 428.5619 428.6960 428.6960 428.8333 429.2433 429.2460
   429.2744 429.2744 429.3036 429.3041 429.3041 429.3161 434.4174 434.4174
   435.6925 435.9091 435.9091 436.0938 436.1033 436.4307 436.7371 436.8051
   436.8403 436.8403 436.9479 437.1311 437.2342 437.2342 437.9374 437.9374
   437.9888 438.1487 438.2404 438.4596 438.5005 438.5005 438.7139 438.8238
   438.8403 438.8403 439.0356 439.0356 439.0391 439.0547 443.0566 443.2610
   443.2610 443.3921 446.6305 446.7681 447.2358 447.2358 447.5753 447.5753
   447.9417 448.5075 449.4742 449.4742 449.5264 449.7184 449.9106 449.9117
   449.9199 449.9199 450.3296 450.7655 451.3690 451.3690 451.7584 451.7584
   451.9811 452.1989 452.8069 452.8888 452.8888 452.9671 453.0686 453.0686
   453.1023 453.1082 455.7497 455.7542 456.0257 456.0258 456.0425 456.0425
   456.2885 456.2907 457.3949 457.3949 457.6916 457.9511 457.9658 458.0089
   458.0089 458.3235 461.8072 461.8072 462.5278 462.9482 463.5245 463.6887
   463.7592 463.7592 463.8083 463.9281 466.1197 466.1315 466.1315 466.1400
   466.1793 466.2374 466.2374 466.2388 466.2717 466.2717 466.4683 467.0524
   467.1430 467.2204 467.2204 468.0827 469.2957 469.2957 469.4123 469.4123
   469.8283 469.8374 469.9844 470.1991 470.8618 470.8953 471.1497 471.1497
   471.2398 471.2398 471.3100 471.3100 471.3291 471.3432 471.6181 471.8212
   472.2185 472.2247 472.4049 472.4049 472.4335 472.5046 472.5046 472.5332
   472.5442 472.5442 472.8330 472.8496 475.8306 475.8306 476.0080 476.0080
   476.0347 476.0347 476.3726 476.5361 476.9292 477.3222 477.7491 477.7491
   477.7608 477.7772 482.2466 482.2466 482.5825 482.7315 482.8153 482.8153
   482.8306 482.8510 482.9579 482.9579 483.1739 483.2537 483.2537 483.4212
   483.4438 483.6040 485.5702 485.6084 485.6084 485.6308 485.6444 485.6682
   485.6682 485.6988 488.7979 488.7979 489.4632 489.7555 490.6176 490.6394
   490.6394 490.6578 492.9608 492.9608 492.9734 493.0235 493.0235 493.1101
   493.1295 493.2093 493.9469 493.9469 494.5334 494.7440 494.7903 494.8018
   494.8018 494.8688 494.9026 494.9026 495.0149 495.0200 495.1005 495.1005
   495.1914 495.4725 501.2133 501.2133 501.5356 501.5558 501.8962 501.8963
   501.9111 502.0147 505.1878 505.2119 505.2119 505.2594 505.5991 505.6022
   505.6022 505.6121 505.8571 505.8654 506.3806 506.3806 506.5363 506.5732
   506.5860 506.5860 506.5924 506.6281 507.2569 507.2569 507.4011 507.4011
   507.7155 507.9533 507.9533 508.7429 508.9447 508.9813 508.9813 509.1957

          k =-0.5000-1.0000 0.0000 (  2400 PWs)   bands (ev):

   -92.4219 -28.1736 -28.1731 -28.1697 -28.1645 -28.1624  -2.3111   3.5775
     4.4816   4.9567  13.3852  13.6621  13.6965  14.2564  19.0463  19.7559
    21.1268  22.1508  25.3384  25.4046  25.7210  26.4602  27.7416  28.4303
    30.7133  31.0108  31.9885  32.7066  33.9788  34.4958  34.9404  35.5046
    35.7700  37.0168  40.0809  41.4084  43.4327  43.6042  45.6564  47.3071
    47.4294  48.1176  49.0308  50.5065  50.9690  52.4345  53.2374  53.3441
    54.3985  54.5140  55.1586  55.9726  56.6714  58.1283  59.9562  60.3049
    61.4641  61.9152  62.4432  62.7037  62.8255  64.2171  64.7633  65.4001
    66.3209  67.5607  68.1700  68.8122  69.8680  71.1337  71.4241  71.6018
    72.2986  73.9322  75.2787  75.7185  76.0377  77.0216  77.3428  77.5411
    78.2102  79.8759  79.9205  79.9390  80.3065  80.5170  81.1063  81.1422
    83.3647  84.1514  84.5413  84.7274  85.0061  85.1855  85.2151  87.4832
    87.6221  87.6776  88.4610  88.5880  89.0809  90.7187  91.0057  91.2796
    91.7555  92.4333  94.3289  94.5023  95.3748  96.4431  96.5267  98.1574
    99.0684 100.2582 101.0312 102.5144 104.2661 104.4595 105.1922 105.2147
   106.5207 106.6315 107.1983 107.6045 108.2858 109.1000 110.9607 111.0600
   111.3163 111.9743 113.2237 113.9771 114.2802 114.4442 114.4811 114.6621
   115.2073 116.1950 116.2706 117.0654 117.1330 118.0121 118.2327 118.3674
   118.9284 119.0808 119.1621 119.3253 120.3256 120.4416 120.8121 121.1407
   122.4230 123.2217 123.3670 124.0652 124.0831 124.1482 124.9534 125.0892
   126.9640 128.0681 128.4864 129.1374 129.7786 131.8801 132.0195 132.2080
   132.2465 132.8233 132.8470 133.2420 134.0190 134.1935 134.4352 134.9568
   135.6555 135.9530 136.2296 136.5264 136.6011 136.7569 137.4892 138.3101
   138.7241 139.2296 140.3619 140.6342 140.9041 142.9229 142.9399 143.0481
   143.4465 144.6052 144.6522 144.9361 145.0912 145.5682 145.7482 145.7860
   146.3716 147.0885 147.6285 148.0750 148.4729 149.3453 149.4262 149.4782
   150.2761 152.4914 152.6516 152.9669 153.5698 155.5671 156.8471 157.0154
   157.1470 157.7083 158.1449 159.0873 159.2834 159.9869 160.3674 160.7143
   161.7762 162.0895 162.7614 163.3413 163.4087 164.3230 164.6366 165.1032
   165.5371 166.4178 167.3724 167.4297 167.6245 168.6291 169.1253 169.9358
   170.4924 171.1857 171.3009 171.6274 171.6709 172.3476 172.3822 172.4789
   172.8143 173.0536 173.8772 173.8982 174.0360 174.5165 175.1227 175.9444
   177.1244 177.1411 177.4166 179.1918 180.0075 180.2278 180.3713 180.5724
   180.8807 181.1109 181.3019 181.9482 182.4072 182.5949 182.8434 185.1649
   185.2624 185.6906 185.8897 186.8846 187.4959 188.7529 188.7940 189.4347
   190.0430 190.2235 190.2728 191.0947 192.9608 193.4790 193.4949 194.8847
   195.0137 195.6326 195.8681 195.9220 196.1107 196.8828 197.2180 197.3169
   197.5097 197.8855 197.9636 198.1747 198.2555 198.4855 198.5224 198.9045
   198.9360 199.0092 199.4468 200.1070 200.5726 201.1643 201.2360 201.3033
   204.3653 204.4513 205.6253 205.6572 205.7712 206.0184 206.9951 207.0215
   207.0376 208.1872 208.6546 208.8109 209.0448 209.0500 209.2821 209.3122
   211.1210 211.2398 211.3211 211.9386 212.0660 212.7591 212.8219 212.8470
   213.7153 214.2952 214.3296 214.3584 215.4734 215.4874 215.5498 215.7408
   215.9100 216.7067 216.9446 217.7089 217.9544 218.7350 218.8572 219.7008
   220.0100 220.1729 220.2453 220.2812 220.6255 220.8055 220.8110 220.9940
   221.3932 221.4273 222.0548 222.2461 224.0420 224.4699 224.6073 224.6946
   225.3025 225.5424 225.6897 225.6907 227.9719 228.5231 228.7004 229.1686
   229.4505 229.5228 230.2843 230.3761 231.2174 231.3927 231.5874 231.6834
   231.8071 232.3840 232.4240 232.5692 235.4242 235.6860 235.9143 236.2160
   236.3107 236.4966 236.5055 236.5610 238.6656 238.9612 239.7825 240.7135
   241.7521 242.2382 243.2800 243.5321 243.8450 244.3823 244.3910 244.5138
   244.9234 244.9471 245.0319 245.6220 245.7530 245.8334 245.8561 245.9154
   248.0395 248.0692 248.4898 249.1545 249.5984 249.6898 249.9580 250.1728
   253.4025 253.6078 253.7526 253.9977 254.1579 254.5710 254.7759 255.0758
   255.3017 255.9797 255.9914 256.0590 256.1846 256.3283 256.7813 257.3441
   257.4349 257.9557 257.9575 258.5248 259.4584 259.7777 259.9111 260.4856
   260.5080 260.5125 260.6244 261.2971 261.3856 261.5043 261.6108 261.6623
   261.6953 262.6413 263.5979 263.6039 263.7453 263.8950 265.2371 265.7523
   265.7638 267.3903 268.4908 268.5576 268.6452 268.8238 268.8432 269.3736
   271.5191 271.7781 272.0894 272.1306 272.5835 272.7041 273.0735 273.1572
   274.6969 274.8001 274.9338 275.0606 275.5662 275.8949 276.0686 276.4522
   277.7622 277.8914 278.0635 278.6075 279.7320 279.9685 280.0355 280.6146
   281.1118 281.3229 281.6432 281.7229 281.7751 282.1622 282.2198 282.3612
   282.6894 283.0335 283.1427 283.3424 283.5188 283.5444 283.7080 283.8950
   284.7349 284.8731 285.7840 285.7915 288.1121 288.9681 289.3283 289.6027
   290.6316 291.3276 291.5091 291.6007 291.9010 291.9735 292.8554 293.7445
   293.8759 293.8828 294.3635 294.4354 294.9308 295.0947 295.1584 295.9281
   296.6046 296.6287 296.6547 296.8511 300.0608 300.5685 300.7054 300.7282
   301.1097 301.1750 301.2561 301.7046 302.0982 302.1332 302.4544 303.2052
   303.3702 303.8753 303.9055 303.9136 304.4012 304.5092 304.5447 304.6517
   304.7627 304.8284 304.8515 304.9245 306.6038 306.8959 306.9364 307.2127
   307.3022 307.6599 307.7220 307.8862 308.0685 308.1249 308.1533 308.2607
   308.3382 308.5043 308.6244 308.7385 309.1903 309.3100 309.5113 309.5493
   310.6243 310.6728 310.7076 310.8049 311.9875 312.2095 312.5273 313.2934
   313.8534 313.8957 313.9407 313.9953 314.4757 314.8310 314.8474 315.0044
   315.1107 315.1693 315.1891 315.1932 319.0035 319.7793 320.1320 320.5171
   321.3895 321.6180 321.6345 321.7034 321.7557 321.8057 321.8936 321.9726
   323.1917 323.2904 324.3089 324.3562 324.5978 324.7148 325.2387 325.8598
   326.3396 326.6509 326.9041 326.9449 327.2647 327.3180 327.4702 327.4931
   328.0573 328.1964 328.2136 328.2847 329.0398 329.6004 329.6132 329.7018
   330.1465 330.1599 330.1865 330.4551 331.3154 331.4359 331.5742 331.9188
   332.8490 333.3653 336.4788 336.5089 336.7612 336.9931 337.8403 337.9516
   338.0340 338.1464 338.5183 338.6952 338.7068 338.8874 338.9200 338.9323
   338.9343 339.0941 339.1232 339.1689 339.3463 339.6796 339.7916 339.8522
   339.9232 340.1353 340.5197 340.5325 340.6056 340.6279 340.9895 341.8564
   342.4223 342.4742 342.6547 342.6801 347.6306 348.0790 348.3070 348.3277
   348.5862 348.5882 348.7323 348.9026 348.9111 349.2210 349.3296 350.0016
   350.1757 350.2172 350.2593 350.2664 350.3122 350.3291 350.4077 350.8459
   353.7307 353.9417 354.1821 354.2926 354.4021 354.4830 354.6589 354.6981
   355.5759 355.6553 355.7601 355.8223 356.4657 356.5770 356.5971 356.6887
   357.8716 359.3117 360.4512 360.4665 360.7309 360.7538 360.8380 360.9335
   365.5397 365.7993 365.8158 366.0907 367.0310 367.0959 367.2986 367.3926
   367.4981 368.0170 368.0505 368.2321 369.7928 369.9989 370.0484 370.1005
   371.0944 371.4277 371.5706 372.0200 372.2984 372.3418 372.4642 372.5602
   373.3985 373.8451 373.8803 373.9555 375.0726 375.2405 375.3748 375.4385
   375.8216 375.9413 376.1276 376.1488 377.4443 377.4729 377.5053 377.5557
   378.0743 378.1888 378.2993 378.4591 379.4722 380.1040 380.1852 380.1879
   382.0240 382.5527 382.5874 382.6846 384.5145 384.5186 384.5498 384.5550
   385.0706 385.1638 385.4500 385.5647 385.7967 386.1926 386.2660 386.2922
   386.3999 386.5512 386.5881 386.7906 388.5686 388.8763 389.0981 389.2575
   389.2678 389.6428 389.6893 389.6902 391.9212 392.2252 392.2337 392.3551
   393.5117 393.6692 393.7003 393.7799 394.1812 394.3405 394.5285 394.5874
   394.7669 394.8945 394.8946 394.8999 394.9623 395.1149 395.1291 395.2671
   395.5262 395.6635 395.9035 395.9448 396.1209 396.4505 396.7049 396.7414
   396.8264 396.8615 397.1209 397.3331 398.3647 398.3953 398.6594 398.6628
   399.2362 399.3252 399.4261 399.4972 399.5267 399.5356 399.6678 399.6968
   401.6054 401.6745 401.7250 401.8579 403.7075 403.8207 404.4746 404.5330
   404.6199 404.7563 404.9312 405.1168 405.3080 405.4140 405.4348 405.4950
   405.6762 405.7333 405.7479 405.7574 405.9380 406.0306 406.0740 406.1013
   406.2026 406.2647 406.3658 406.4212 410.8783 410.8794 410.9708 411.2875
   411.9738 411.9829 412.3894 412.4209 413.5751 413.6877 413.8904 413.9568
   415.3911 415.5619 415.5768 415.6679 416.4197 416.9736 417.0007 417.1859
   418.3445 418.4991 418.5856 418.6773 418.7674 418.7723 419.9079 419.9413
   419.9755 420.0385 421.1687 421.3352 421.9540 422.5635 422.6119 422.7784
   422.7877 422.9925 423.0285 423.3473 423.3883 423.6631 424.1329 424.1591
   424.1863 424.3102 425.4657 426.0298 426.9881 427.1603 427.3819 427.5507
   427.6171 427.7308 427.7720 427.7990 428.3552 428.4007 428.4438 428.4750
   428.5303 428.6420 428.8892 429.0160 429.3312 429.6744 429.7008 429.9785
   431.9588 431.9793 432.0096 432.0970 433.2891 433.3394 433.3404 433.3639
   436.5462 436.5928 436.7245 436.7506 439.3075 439.3869 439.3951 439.4198
   440.1374 440.1607 440.1609 440.2556 440.2658 440.2862 440.3060 440.3439
   440.4400 440.7830 440.7968 440.8574 441.0506 441.4209 441.8694 442.2297
   442.4568 442.4627 442.5761 442.6163 443.2877 443.6851 444.1154 444.5284
   445.2299 445.5447 445.5752 445.5752 446.0468 446.0582 446.0720 446.1061
   446.6255 446.6692 446.6997 446.7878 447.5782 447.6116 447.6488 447.6911
   450.0961 450.3632 450.4024 450.5039 450.6748 450.8119 450.8341 450.8962
   451.2669 451.3696 452.0586 452.2132 452.3566 452.3783 452.4080 452.4964
   452.5557 452.5840 452.6256 452.7020 452.8587 453.0927 453.1098 453.1933
   453.2235 453.2826 453.3030 453.4132 454.9759 455.4073 455.4947 455.5669
   455.5837 455.6674 455.8689 455.9024 460.9219 461.0445 461.0932 461.1009
   461.6666 461.7205 462.0530 462.0898 462.2117 462.2286 462.2761 462.4576
   464.2315 464.2769 464.3506 464.3831 464.6353 464.8019 465.0930 465.1252
   465.2104 465.2443 465.2538 465.2960 466.3725 466.4021 466.4741 466.4811
   466.5421 466.5571 466.6062 466.6525 469.9437 469.9994 470.0234 470.0413
   472.2576 472.3339 472.7655 472.8169 472.9948 473.4184 473.6283 473.6683
   473.9715 473.9871 474.2959 474.3668 476.1218 476.2937 476.4573 476.6371
   477.1541 477.6364 477.9630 478.0000 478.1719 478.1847 478.1918 478.1987
   478.5044 478.5676 478.6390 478.6822 478.7794 478.9103 478.9819 479.1432
   479.2265 479.3168 479.3229 479.4058 479.5480 479.6104 479.8601 480.0952
   480.3838 480.3916 480.4401 480.5329 480.5557 480.5575 480.5711 480.5778
   481.2895 481.3620 481.6122 481.6309 482.3704 482.6288 482.7896 482.9953
   489.1901 489.3149 489.4556 489.6672 489.7192 489.7269 489.7510 489.8898
   490.5430 490.5525 490.5809 490.5932 491.3148 491.3442 491.3457 491.3458
   494.1388 494.2320 494.3417 494.3530 495.4416 495.8409 495.8826 495.9271
   496.1674 496.2000 496.2806 496.2909 497.6094 497.6951 497.7019 497.7339
   498.7701 499.0940 499.2827 499.4822 499.4827 499.5355 499.5412 499.5491
   499.7556 499.8017 499.8816 499.9460 500.9844 501.2471 501.2566 501.4602
   501.7017 501.9380 501.9402 501.9500 502.0527 502.1916 502.2133 502.2675
   502.7313 502.7403 502.7421 502.7493 506.3701 506.4341 506.4439 506.4444
   507.4915 507.4917 507.4928 507.5156 507.5829 507.6046 507.6140 507.6279

     the Fermi energy is     8.9066 ev
     (compare with:     9.2470 eV, computed in scf)

     Writing all to output data dir out/mp-252.save/
 
     init_run     :      0.08s CPU      0.12s WALL (       1 calls)
     electrons    :    273.68s CPU    282.87s WALL (       1 calls)

     Called by init_run:
     wfcinit      :      0.00s CPU      0.00s WALL (       1 calls)
     potinit      :      0.04s CPU      0.04s WALL (       1 calls)
     hinit0       :      0.02s CPU      0.06s WALL (       1 calls)

     Called by electrons:
     c_bands      :    273.68s CPU    282.87s WALL (       1 calls)
     v_of_rho     :      0.01s CPU      0.01s WALL (       1 calls)

     Called by c_bands:
     init_us_2    :      0.00s CPU      0.00s WALL (       8 calls)
     init_us_2:cp :      0.00s CPU      0.00s WALL (       8 calls)
     paro_k       :    263.08s CPU    271.94s WALL (       8 calls)

     Called by paro_*:
     h_psi        :      5.63s CPU      5.84s WALL (     826 calls)
     g_psi        :      0.08s CPU      0.09s WALL (   79533 calls)

     Called by h_psi:
     h_psi:calbec :      0.12s CPU      0.13s WALL (     826 calls)
     vloc_psi     :      5.41s CPU      5.61s WALL (     826 calls)
     add_vuspsi   :      0.07s CPU      0.07s WALL (     826 calls)

     General routines
     calbec       :      0.12s CPU      0.13s WALL (     826 calls)
     fft          :      0.00s CPU      0.05s WALL (      10 calls)
     fftw         :      4.91s CPU      5.09s WALL (  131654 calls)
 
     Parallel routines
 
     PWSCF        :   4m34.47s CPU   4m43.95s WALL

 
   This run was terminated on:  13:15:48   5Apr2024            

=------------------------------------------------------------------------------=
   JOB DONE.
=------------------------------------------------------------------------------=
