
     Program PWSCF v.7.1 starts on  5Apr2024 at 13: 3:23 

     This program is part of the open-source Quantum ESPRESSO suite
     for quantum simulation of materials; please cite
         "P. Giannozzi et al., J. Phys.:Condens. Matter 21 395502 (2009);
         "P. Giannozzi et al., J. Phys.:Condens. Matter 29 465901 (2017);
         "P. Giannozzi et al., J. Chem. Phys. 152 154105 (2020);
          URL http://www.quantum-espresso.org", 
     in publications or presentations arising from this work. More details at
     http://www.quantum-espresso.org/quote

     Parallel version (MPI), running on     8 processors

     MPI processes distributed on     1 nodes
     200729 MiB available memory on the printing compute node when the environment starts
 
     Reading input from pw_mp-252_nscf_k0_E60.in
Warning: card &IONS ignored
Warning: card / ignored
Warning: card &CELL ignored
Warning: card / ignored

     Current dimensions of program PWSCF are:
     Max number of different atomic species (ntypx) = 10
     Max number of k-points (npk) =  40000
     Max angular momentum in pseudopotentials (lmaxx) =  4

     Atomic positions and unit cell read from directory:
     out/mp-252.save/
     Atomic positions from file used, from input discarded
 
 
     R & G space division:  proc/nbgrp/npool/nimage =       8
     Subspace diagonalization in iterative solution of the eigenvalue problem:
     one sub-group per band group will be used
     scalapack distributed-memory algorithm (size of sub-group:  2*  2 procs)

 
     Parallelization info
     --------------------
     sticks:   dense  smooth     PW     G-vecs:    dense   smooth      PW
     Min         119     119     30                 2416     2416     302
     Max         120     120     31                 2419     2419     304
     Sum         955     955    241                19339    19339    2421
 
     Using Slab Decomposition
 


     bravais-lattice index     =            2
     lattice parameter (alat)  =      10.7014  a.u.
     unit-cell volume          =     306.3778 (a.u.)^3
     number of atoms/cell      =            2
     number of atomic types    =            2
     number of electrons       =        20.00
     number of Kohn-Sham states=          880
     kinetic-energy cutoff     =      60.0000  Ry
     charge density cutoff     =     240.0000  Ry
     Exchange-correlation= PBE
                           (   1   4   3   4   0   0   0)

     celldm(1)=  10.701363  celldm(2)=   0.000000  celldm(3)=   0.000000
     celldm(4)=   0.000000  celldm(5)=   0.000000  celldm(6)=   0.000000

     crystal axes: (cart. coord. in units of alat)
               a(1) = (  -0.500000   0.000000   0.500000 )  
               a(2) = (   0.000000   0.500000   0.500000 )  
               a(3) = (  -0.500000   0.500000   0.000000 )  

     reciprocal axes: (cart. coord. in units 2 pi/alat)
               b(1) = ( -1.000000 -1.000000  1.000000 )  
               b(2) = (  1.000000  1.000000  1.000000 )  
               b(3) = ( -1.000000  1.000000 -1.000000 )  


     PseudoPot. # 1 for Be read from file:
     /usr/scratch4/magr4985/FGWC/FGWC/pseudo/SG15/Be.upf
     MD5 check sum: dc1f98d164da9dc61a6fd2fad64b4ce2
     Pseudo is Norm-conserving, Zval =  4.0
     Generated using ONCVPSP code by D. R. Hamann
     Using radial grid of  602 points,  4 beta functions with: 
                l(1) =   0
                l(2) =   0
                l(3) =   1
                l(4) =   1

     PseudoPot. # 2 for Te read from file:
     /usr/scratch4/magr4985/FGWC/FGWC/pseudo/SG15/Te.upf
     MD5 check sum: dd4de4dac1e38587f63aaf3700bb29d3
     Pseudo is Norm-conserving, Zval = 16.0
     Generated using ONCVPSP code by D. R. Hamann
     Using radial grid of  602 points,  6 beta functions with: 
                l(1) =   0
                l(2) =   0
                l(3) =   1
                l(4) =   1
                l(5) =   2
                l(6) =   2

     atomic species   valence    mass     pseudopotential
        Be             4.00     9.01220     Be( 1.00)
        Te            16.00   127.60000     Te( 1.00)

     24 Sym. Ops. (no inversion) found



   Cartesian axes

     site n.     atom                  positions (alat units)
         1           Be  tau(   1) = (   0.0000000   0.0000000   0.0000000  )
         2           Te  tau(   2) = (  -0.7500000   0.7500000   0.7500000  )

     number of k points=     1  Gaussian smearing, width (Ry)=  0.0005
                       cart. coord. in units 2pi/alat
        k(    1) = (   0.0000000   0.0000000   0.0000000), wk =   2.0000000

     Dense  grid:    19339 G-vectors     FFT dimensions: (  40,  40,  40)

     Estimated max dynamical RAM per process >      59.49 MB

     Estimated total dynamical RAM >     475.90 MB

     The potential is recalculated from file :
     out/mp-252.save/charge-density

     Starting wfcs are random

     Band Structure Calculation
     Davidson diagonalization with overlap

     ethr =  5.00E-06,  avg # of iterations = 12.0

     total cpu time spent up to now is       32.4 secs

     End of band structure calculation

          k = 0.0000 0.0000 0.0000 (  2421 PWs)   bands (ev):

   -92.4219 -28.1757 -28.1757 -28.1757 -28.1638 -28.1638  -4.1123   8.0776
     8.0776   8.0776  11.7365  11.7365  11.7365  11.8025  16.5323  18.5011
    18.5011  19.5412  19.5412  19.5412  23.2308  31.7586  31.7586  31.7586
    33.9843  33.9843  33.9843  35.8613  35.8613  35.8613  36.6787  36.6787
    43.4652  43.4652  43.4652  44.0587  46.1840  47.3401  47.3401  47.3401
    49.7040  49.7040  49.7040  50.8057  50.8057  50.8058  50.8058  50.8058
    50.8621  50.8621  50.8621  51.3589  51.3589  52.0624  52.0624  52.0624
    56.0255  56.4905  56.4905  56.4905  57.5209  57.5209  57.5209  61.6323
    62.7072  71.6867  71.6867  71.6867  74.1575  74.1575  74.3965  74.3965
    74.3965  74.9665  77.5819  77.5819  77.5819  82.9443  82.9443  82.9443
    83.8998  83.8998  84.4412  85.1178  86.8728  86.8728  86.8728  87.1272
    87.1272  87.1272  87.2802  87.2802  88.5369  88.5369  88.5369  90.7139
    90.7139  90.7139  91.4792  91.4792  91.4792  92.1948  92.1948  92.1948
    93.9186  94.2946  94.2946  94.2946  94.3189  94.3189  95.0866  95.0866
    95.0866  95.4379  95.4379  95.4379  95.6135  95.8105  95.8105 103.1006
   105.8440 105.8440 105.8440 108.2900 108.2900 108.2900 108.3349 108.3349
   108.3349 108.8907 108.8907 108.8907 109.3992 109.3992 109.3992 110.1767
   110.1767 113.1559 113.1559 113.5210 113.5210 113.5210 113.5575 116.6943
   118.5940 118.5940 118.5940 121.0384 121.0384 121.0384 123.4986 123.9956
   123.9956 123.9956 124.5708 124.5708 124.5708 124.8475 124.8475 124.8475
   125.1677 125.1677 125.1677 125.5039 125.5082 125.5082 125.5410 125.5410
   125.5410 127.3746 127.3746 128.2773 128.2773 128.2773 135.9561 135.9561
   135.9561 136.8239 136.8239 136.8239 136.9275 139.5058 144.5061 144.5061
   145.1830 145.1830 145.1830 146.9367 146.9367 146.9367 150.5694 151.8846
   151.8846 151.8846 153.3930 153.3930 153.3930 155.6929 155.6929 155.6929
   156.0884 156.0884 156.2275 156.2275 156.2275 158.9386 158.9386 158.9386
   159.0992 159.0992 159.0992 159.3616 159.3616 159.4315 160.7061 160.7061
   160.7061 160.7239 161.1554 161.1554 161.1554 162.4353 162.5413 162.5413
   162.5413 162.7569 162.7569 163.7720 163.7720 163.7720 163.8909 163.8909
   163.9733 163.9733 163.9733 164.3695 164.3695 164.3695 164.8150 165.4837
   165.4837 165.4837 166.6551 168.5827 168.5827 168.5827 168.5942 168.5942
   168.9748 168.9748 168.9748 169.0590 169.0590 169.0590 169.4346 169.4346
   169.5839 169.5839 169.5839 173.8857 173.8857 176.1292 176.1292 176.1292
   178.0437 178.0437 178.0437 178.2754 183.1686 183.1686 183.1686 183.4621
   183.4621 183.4621 183.4904 183.4904 183.4904 185.6185 185.9688 185.9688
   185.9688 186.9328 186.9328 187.0579 187.0579 187.0579 187.1202 189.6293
   189.6293 189.6293 191.0159 191.0159 191.7555 193.2695 193.2695 193.2695
   195.3493 195.3493 195.3493 195.4480 195.4480 195.4480 195.4765 195.4765
   195.4765 195.7709 195.7709 198.5978 199.9741 199.9741 199.9741 202.6655
   202.6655 203.0867 203.0867 203.0867 204.2880 204.2880 204.2880 204.4242
   204.8307 204.8307 204.8307 204.8448 204.8448 204.8448 205.3494 205.3494
   205.3494 205.5291 205.5291 209.7493 209.7493 209.7493 212.0246 212.0246
   217.9852 217.9852 217.9852 218.8527 219.1506 219.1506 219.1506 220.5341
   221.1588 221.1588 221.1588 221.7378 221.7378 221.7378 223.4636 223.4636
   224.1945 226.0072 226.0072 226.0072 227.7149 229.5876 230.5834 230.5834
   230.5834 234.1805 234.1805 234.1805 234.3276 234.3276 234.3276 234.6278
   234.6278 235.1726 235.1726 235.1726 235.5065 235.5065 235.5065 235.8203
   235.8203 235.8203 235.9327 235.9327 235.9327 235.9344 236.6685 236.6685
   236.6685 237.7034 237.7034 239.1613 239.1613 239.6896 239.9884 239.9884
   239.9884 240.0207 240.0207 240.0207 240.2478 240.2478 240.2478 242.1264
   242.1264 242.1264 242.6839 243.9382 243.9382 243.9421 243.9421 243.9421
   244.0266 244.0266 244.0266 245.9680 245.9680 245.9680 248.1483 248.8721
   248.8721 248.8721 250.4313 250.4313 251.5096 252.9423 252.9423 252.9423
   252.9434 252.9434 252.9434 253.4282 253.4282 253.4282 253.7385 253.7385
   253.7385 254.0151 254.0151 258.0752 258.0752 258.4698 258.4698 258.4698
   258.6521 258.6521 258.6521 258.9368 258.9368 258.9368 259.4413 259.4413
   259.4413 259.7664 259.7664 260.2853 260.9848 260.9848 260.9848 261.3826
   261.3826 261.3826 261.6785 264.9798 264.9798 264.9798 265.6162 266.4336
   266.4336 267.0741 267.0741 267.0741 267.2779 269.3507 269.3507 269.3507
   270.1832 270.1832 270.1832 270.2470 270.2470 270.2470 270.4710 270.4710
   270.4710 271.4144 271.4144 271.4144 271.6043 273.0645 273.0645 273.0645
   273.0683 273.0683 273.1949 273.1949 273.1949 273.3858 273.7125 273.7125
   273.8718 274.8271 274.8271 274.8271 274.8718 274.8718 274.8718 275.3256
   275.3256 275.3914 275.3914 275.3914 275.6869 275.6869 275.6869 275.6874
   275.6874 275.9584 275.9584 275.9584 276.1883 276.1883 276.1883 276.3104
   276.3104 276.3104 276.5420 276.5420 276.5420 276.9004 277.0917 277.0917
   277.0917 277.1245 277.1245 291.2399 291.2399 293.2582 293.2582 293.2582
   293.7184 298.4544 298.4544 298.4544 300.7022 300.7022 300.7022 302.1531
   302.7047 302.7047 303.8819 304.7154 304.7154 304.7154 305.2149 305.2149
   305.2149 305.4127 305.4127 305.4127 305.4231 305.4231 305.4231 306.1847
   306.1847 309.3418 310.0040 310.0040 310.0040 310.8058 310.8058 311.3179
   311.3179 311.3179 312.3529 313.1663 313.1663 313.1663 314.2960 314.6191
   314.6191 314.6191 314.7455 314.7455 314.7455 314.7608 314.7608 314.7608
   315.4344 315.4344 315.4344 317.3066 317.3066 317.6499 317.6499 317.6499
   317.9283 317.9283 317.9283 317.9561 318.2270 318.2270 318.2711 318.2711
   318.2711 318.3019 318.3019 318.3019 318.3384 318.3384 318.3384 318.4127
   318.4127 320.5277 320.5277 320.5277 321.0997 321.0997 321.8785 321.8785
   321.8785 322.0416 322.0416 322.0416 324.4413 330.8496 330.8496 330.8496
   331.9441 331.9441 332.0305 333.2744 333.2744 333.2744 333.3583 333.3583
   333.3583 333.5073 333.5073 333.5073 333.6210 333.6210 333.6210 334.5258
   334.5690 334.5690 334.5690 334.6107 334.6107 338.6963 338.6963 338.6963
   340.4183 340.6612 340.6612 340.6612 340.8671 340.8671 340.8671 341.0147
   341.0147 343.0714 343.0714 343.0714 343.2893 344.0853 344.0853 344.0853
   344.4317 344.4317 344.4392 344.5225 344.5225 344.5225 344.5798 344.5798
   344.6294 344.6294 344.6294 344.7586 344.7586 344.7586 344.8108 344.8108
   344.8108 346.2836 346.2836 346.2836 346.6033 347.3487 347.6212 347.6212
   347.6212 350.4974 350.4974 350.4974 350.5710 350.5710 350.5710 350.6178
   350.6178 350.6521 350.6521 350.6521 350.7220 353.7643 353.7643 353.7643
   354.4098 354.5893 354.5893 354.5893 354.7276 354.7276 354.9687 354.9687
   354.9687 355.9289 355.9289 355.9289 355.9585 355.9585 355.9720 355.9720
   355.9720 356.0768 356.0768 356.0768 356.0944 367.1273 367.1273 368.3392
   368.3392 368.3392 369.3774 369.3774 369.3774 369.6465 370.0833 370.0833
   370.0833 370.1226 370.1226 370.1226 370.1713 370.1713 370.1713 370.9239
   370.9771 370.9771 370.9771 370.9795 370.9795 372.8092 372.8092 372.8092
   374.0731 376.0929 376.0929 376.0929 376.3375 376.3375 376.3375 376.4472
   376.4472 376.6092 377.0423 377.8685 377.8685 377.8685 377.9837 377.9837
   377.9837 377.9900 377.9900 378.2245 378.2245 378.2245 378.5189 378.5189
   378.5189 378.9317 378.9317 383.9602 383.9602 383.9602 384.0000 384.0000
   384.0000 384.0061 384.0061 384.1038 384.1038 384.1038 384.2249 384.2249
   384.2249 384.4334 384.4335 384.8726 384.8726 384.8726 386.0642 386.1331
   386.1331 386.1331 386.1398 386.1398 386.1398 386.2921 386.2921 386.2921
   386.5075 386.5661 386.5661 386.5661 386.6878 386.7079 386.7079 386.7079
   386.7202 386.7202 386.7202 388.0098 388.0098 388.6212 388.6212 388.6212
   388.8632 390.1387 390.4943 390.4943 390.4943 390.9458 390.9458 390.9458
   390.9714 390.9714 390.9714 390.9940 390.9940 391.1704 391.1704 391.1704
   391.2244 391.2244 391.2244 391.5600 391.5600 392.8153 392.8153 392.9575
   392.9575 392.9575 393.2317 393.2317 393.2317 393.2851 393.3603 393.3603
   393.3603 393.3969 393.3969 393.3969 393.6514 393.6514 393.6555 393.6555
   393.6555 393.8924 393.8924 393.8924 394.0263 403.4154 403.4154 403.4154
   404.3042 404.5793 404.8117 404.8117 404.8117 410.7603 410.7603 410.7605

     the Fermi energy is     9.7499 ev
     (compare with:     9.7499 eV, computed in scf)

     Writing all to output data dir out/mp-252.save/
 
     init_run     :      0.06s CPU      0.15s WALL (       1 calls)
     electrons    :     31.01s CPU     32.10s WALL (       1 calls)

     Called by init_run:
     wfcinit      :      0.00s CPU      0.00s WALL (       1 calls)
     potinit      :      0.02s CPU      0.05s WALL (       1 calls)
     hinit0       :      0.02s CPU      0.08s WALL (       1 calls)

     Called by electrons:
     c_bands      :     31.01s CPU     32.10s WALL (       1 calls)
     v_of_rho     :      0.01s CPU      0.01s WALL (       1 calls)

     Called by c_bands:
     init_us_2    :      0.00s CPU      0.00s WALL (       1 calls)
     init_us_2:cp :      0.00s CPU      0.00s WALL (       1 calls)
     cegterg      :     30.30s CPU     31.34s WALL (       1 calls)

     Called by *egterg:
     cdiaghg      :     29.20s CPU     30.19s WALL (      13 calls)
     h_psi        :      0.54s CPU      0.56s WALL (      14 calls)
     g_psi        :      0.00s CPU      0.00s WALL (      12 calls)

     Called by h_psi:
     h_psi:calbec :      0.01s CPU      0.01s WALL (      14 calls)
     vloc_psi     :      0.52s CPU      0.54s WALL (      14 calls)
     add_vuspsi   :      0.01s CPU      0.01s WALL (      14 calls)

     General routines
     calbec       :      0.01s CPU      0.01s WALL (      14 calls)
     fft          :      0.01s CPU      0.07s WALL (      10 calls)
     fftw         :      0.48s CPU      0.50s WALL (   10036 calls)
 
     Parallel routines
 
     PWSCF        :     31.27s CPU     32.53s WALL

 
   This run was terminated on:  13: 3:55   5Apr2024            

=------------------------------------------------------------------------------=
   JOB DONE.
=------------------------------------------------------------------------------=
