
     Program PWSCF v.7.1 starts on  5Apr2024 at 14:39: 0 

     This program is part of the open-source Quantum ESPRESSO suite
     for quantum simulation of materials; please cite
         "P. Giannozzi et al., J. Phys.:Condens. Matter 21 395502 (2009);
         "P. Giannozzi et al., J. Phys.:Condens. Matter 29 465901 (2017);
         "P. Giannozzi et al., J. Chem. Phys. 152 154105 (2020);
          URL http://www.quantum-espresso.org", 
     in publications or presentations arising from this work. More details at
     http://www.quantum-espresso.org/quote

     Parallel version (MPI), running on    16 processors

     MPI processes distributed on     1 nodes
     153580 MiB available memory on the printing compute node when the environment starts
 
     Reading input from pw_mp-252_scf_k3000_E60.in
Warning: card &CELL ignored
Warning: card / ignored

     Current dimensions of program PWSCF are:
     Max number of different atomic species (ntypx) = 10
     Max number of k-points (npk) =  40000
     Max angular momentum in pseudopotentials (lmaxx) =  4
 
     R & G space division:  proc/nbgrp/npool/nimage =      16
     Subspace diagonalization in iterative solution of the eigenvalue problem:
     a serial algorithm will be used

 
     Parallelization info
     --------------------
     sticks:   dense  smooth     PW     G-vecs:    dense   smooth      PW
     Min          59      59     17                 1207     1207     195
     Max          60      60     18                 1210     1210     198
     Sum         955     955    283                19339    19339    3143
 
     Using Slab Decomposition
 


     bravais-lattice index     =            2
     lattice parameter (alat)  =      10.7014  a.u.
     unit-cell volume          =     306.3778 (a.u.)^3
     number of atoms/cell      =            2
     number of atomic types    =            2
     number of electrons       =        20.00
     number of Kohn-Sham states=           20
     kinetic-energy cutoff     =      60.0000  Ry
     charge density cutoff     =     240.0000  Ry
     scf convergence threshold =      1.0E-10
     mixing beta               =       0.7000
     number of iterations used =            8  plain     mixing
     Exchange-correlation= PBE
                           (   1   4   3   4   0   0   0)

     celldm(1)=  10.701363  celldm(2)=   0.000000  celldm(3)=   0.000000
     celldm(4)=   0.000000  celldm(5)=   0.000000  celldm(6)=   0.000000

     crystal axes: (cart. coord. in units of alat)
               a(1) = (  -0.500000   0.000000   0.500000 )  
               a(2) = (   0.000000   0.500000   0.500000 )  
               a(3) = (  -0.500000   0.500000   0.000000 )  

     reciprocal axes: (cart. coord. in units 2 pi/alat)
               b(1) = ( -1.000000 -1.000000  1.000000 )  
               b(2) = (  1.000000  1.000000  1.000000 )  
               b(3) = ( -1.000000  1.000000 -1.000000 )  


     PseudoPot. # 1 for Be read from file:
     /usr/scratch4/magr4985/FGWC/FGWC/pseudo/SG15/Be.upf
     MD5 check sum: dc1f98d164da9dc61a6fd2fad64b4ce2
     Pseudo is Norm-conserving, Zval =  4.0
     Generated using ONCVPSP code by D. R. Hamann
     Using radial grid of  602 points,  4 beta functions with: 
                l(1) =   0
                l(2) =   0
                l(3) =   1
                l(4) =   1

     PseudoPot. # 2 for Te read from file:
     /usr/scratch4/magr4985/FGWC/FGWC/pseudo/SG15/Te.upf
     MD5 check sum: dd4de4dac1e38587f63aaf3700bb29d3
     Pseudo is Norm-conserving, Zval = 16.0
     Generated using ONCVPSP code by D. R. Hamann
     Using radial grid of  602 points,  6 beta functions with: 
                l(1) =   0
                l(2) =   0
                l(3) =   1
                l(4) =   1
                l(5) =   2
                l(6) =   2

     atomic species   valence    mass     pseudopotential
        Be             4.00     9.01220     Be( 1.00)
        Te            16.00   127.60000     Te( 1.00)

     24 Sym. Ops. (no inversion) found



   Cartesian axes

     site n.     atom                  positions (alat units)
         1           Be  tau(   1) = (   0.0000000   0.0000000   0.0000000  )
         2           Te  tau(   2) = (  -0.7500000   0.7500000   0.7500000  )

     number of k points=    72  Gaussian smearing, width (Ry)=  0.0018
                       cart. coord. in units 2pi/alat
        k(    1) = (   0.0000000   0.0000000   0.0000000), wk =   0.0011574
        k(    2) = (  -0.0833333   0.0833333  -0.0833333), wk =   0.0092593
        k(    3) = (  -0.1666667   0.1666667  -0.1666667), wk =   0.0092593
        k(    4) = (  -0.2500000   0.2500000  -0.2500000), wk =   0.0092593
        k(    5) = (  -0.3333333   0.3333333  -0.3333333), wk =   0.0092593
        k(    6) = (  -0.4166667   0.4166667  -0.4166667), wk =   0.0092593
        k(    7) = (   0.5000000  -0.5000000   0.5000000), wk =   0.0046296
        k(    8) = (   0.0000000   0.1666667   0.0000000), wk =   0.0069444
        k(    9) = (  -0.0833333   0.2500000  -0.0833333), wk =   0.0277778
        k(   10) = (  -0.1666667   0.3333333  -0.1666667), wk =   0.0277778
        k(   11) = (  -0.2500000   0.4166667  -0.2500000), wk =   0.0277778
        k(   12) = (  -0.3333333   0.5000000  -0.3333333), wk =   0.0277778
        k(   13) = (   0.5833333  -0.4166667   0.5833333), wk =   0.0277778
        k(   14) = (   0.5000000  -0.3333333   0.5000000), wk =   0.0277778
        k(   15) = (   0.4166667  -0.2500000   0.4166667), wk =   0.0277778
        k(   16) = (   0.3333333  -0.1666667   0.3333333), wk =   0.0277778
        k(   17) = (   0.2500000  -0.0833333   0.2500000), wk =   0.0277778
        k(   18) = (   0.1666667  -0.0000000   0.1666667), wk =   0.0138889
        k(   19) = (   0.0000000   0.3333333   0.0000000), wk =   0.0069444
        k(   20) = (  -0.0833333   0.4166667  -0.0833333), wk =   0.0277778
        k(   21) = (  -0.1666667   0.5000000  -0.1666667), wk =   0.0277778
        k(   22) = (  -0.2500000   0.5833333  -0.2500000), wk =   0.0277778
        k(   23) = (   0.6666667  -0.3333333   0.6666667), wk =   0.0277778
        k(   24) = (   0.5833333  -0.2500000   0.5833333), wk =   0.0277778
        k(   25) = (   0.5000000  -0.1666667   0.5000000), wk =   0.0277778
        k(   26) = (   0.4166667  -0.0833333   0.4166667), wk =   0.0277778
        k(   27) = (   0.3333333   0.0000000   0.3333333), wk =   0.0138889
        k(   28) = (   0.0000000   0.5000000   0.0000000), wk =   0.0069444
        k(   29) = (  -0.0833333   0.5833333  -0.0833333), wk =   0.0277778
        k(   30) = (  -0.1666667   0.6666667  -0.1666667), wk =   0.0277778
        k(   31) = (   0.7500000  -0.2500000   0.7500000), wk =   0.0277778
        k(   32) = (   0.6666667  -0.1666667   0.6666667), wk =   0.0277778
        k(   33) = (   0.5833333  -0.0833333   0.5833333), wk =   0.0277778
        k(   34) = (   0.5000000   0.0000000   0.5000000), wk =   0.0138889
        k(   35) = (   0.0000000   0.6666667   0.0000000), wk =   0.0069444
        k(   36) = (  -0.0833333   0.7500000  -0.0833333), wk =   0.0277778
        k(   37) = (   0.8333333  -0.1666667   0.8333333), wk =   0.0277778
        k(   38) = (   0.7500000  -0.0833333   0.7500000), wk =   0.0277778
        k(   39) = (   0.6666667  -0.0000000   0.6666667), wk =   0.0138889
        k(   40) = (   0.0000000   0.8333333   0.0000000), wk =   0.0069444
        k(   41) = (   0.9166667  -0.0833333   0.9166667), wk =   0.0277778
        k(   42) = (   0.8333333   0.0000000   0.8333333), wk =   0.0138889
        k(   43) = (   0.0000000  -1.0000000   0.0000000), wk =   0.0034722
        k(   44) = (  -0.1666667   0.3333333   0.0000000), wk =   0.0277778
        k(   45) = (  -0.2500000   0.4166667  -0.0833333), wk =   0.0555556
        k(   46) = (  -0.3333333   0.5000000  -0.1666667), wk =   0.0555556
        k(   47) = (   0.5833333  -0.4166667   0.7500000), wk =   0.0555556
        k(   48) = (   0.5000000  -0.3333333   0.6666667), wk =   0.0277778
        k(   49) = (  -0.1666667   0.5000000   0.0000000), wk =   0.0277778
        k(   50) = (  -0.2500000   0.5833333  -0.0833333), wk =   0.0555556
        k(   51) = (   0.6666667  -0.3333333   0.8333333), wk =   0.0555556
        k(   52) = (   0.5833333  -0.2500000   0.7500000), wk =   0.0555556
        k(   53) = (   0.5000000  -0.1666667   0.6666667), wk =   0.0555556
        k(   54) = (   0.4166667  -0.0833333   0.5833333), wk =   0.0555556
        k(   55) = (   0.3333333   0.0000000   0.5000000), wk =   0.0277778
        k(   56) = (  -0.1666667   0.6666667  -0.0000000), wk =   0.0277778
        k(   57) = (   0.7500000  -0.2500000   0.9166667), wk =   0.0555556
        k(   58) = (   0.6666667  -0.1666667   0.8333333), wk =   0.0555556
        k(   59) = (   0.5833333  -0.0833333   0.7500000), wk =   0.0555556
        k(   60) = (   0.5000000   0.0000000   0.6666667), wk =   0.0277778
        k(   61) = (   0.8333333  -0.1666667   1.0000000), wk =   0.0277778
        k(   62) = (   0.7500000  -0.0833333   0.9166667), wk =   0.0555556
        k(   63) = (   0.6666667   0.0000000   0.8333333), wk =   0.0277778
        k(   64) = (  -0.1666667  -1.0000000  -0.0000000), wk =   0.0138889
        k(   65) = (   0.6666667  -0.3333333   1.0000000), wk =   0.0277778
        k(   66) = (   0.5833333  -0.2500000   0.9166667), wk =   0.0555556
        k(   67) = (   0.5000000  -0.1666667   0.8333333), wk =   0.0277778
        k(   68) = (   0.6666667  -0.1666667   1.0000000), wk =   0.0277778
        k(   69) = (   0.5833333  -0.0833333   0.9166667), wk =   0.0555556
        k(   70) = (   0.5000000   0.0000000   0.8333333), wk =   0.0277778
        k(   71) = (  -0.3333333  -1.0000000   0.0000000), wk =   0.0138889
        k(   72) = (  -0.5000000  -1.0000000   0.0000000), wk =   0.0069444

     Dense  grid:    19339 G-vectors     FFT dimensions: (  40,  40,  40)

     Estimated max dynamical RAM per process >       3.73 MB

     Estimated total dynamical RAM >      59.64 MB

     Initial potential from superposition of free atoms

     starting charge      19.9363, renormalised to      20.0000
     Starting wfcs are random

     total cpu time spent up to now is        0.8 secs

     Self-consistent Calculation

     iteration #  1     ecut=    60.00 Ry     beta= 0.70
     Davidson diagonalization with overlap
     ethr =  1.00E-02,  avg # of iterations =  8.3

     Threshold (ethr) on eigenvalues was too large:
     Diagonalizing with lowered threshold

     Davidson diagonalization with overlap
     ethr =  1.82E-04,  avg # of iterations =  2.8

     total cpu time spent up to now is        2.8 secs

     total energy              =    -201.43870642 Ry
     estimated scf accuracy    <       0.03370384 Ry

     iteration #  2     ecut=    60.00 Ry     beta= 0.70
     Davidson diagonalization with overlap
     ethr =  1.69E-04,  avg # of iterations =  1.5

     total cpu time spent up to now is        3.3 secs

     total energy              =    -201.44306369 Ry
     estimated scf accuracy    <       0.00401466 Ry

     iteration #  3     ecut=    60.00 Ry     beta= 0.70
     Davidson diagonalization with overlap
     ethr =  2.01E-05,  avg # of iterations =  2.9

     total cpu time spent up to now is        3.8 secs

     total energy              =    -201.44395118 Ry
     estimated scf accuracy    <       0.00031371 Ry

     iteration #  4     ecut=    60.00 Ry     beta= 0.70
     Davidson diagonalization with overlap
     ethr =  1.57E-06,  avg # of iterations =  3.7

     total cpu time spent up to now is        4.4 secs

     total energy              =    -201.44400121 Ry
     estimated scf accuracy    <       0.00000416 Ry

     iteration #  5     ecut=    60.00 Ry     beta= 0.70
     Davidson diagonalization with overlap
     ethr =  2.08E-08,  avg # of iterations =  2.1

     total cpu time spent up to now is        4.9 secs

     total energy              =    -201.44400187 Ry
     estimated scf accuracy    <       0.00000008 Ry

     iteration #  6     ecut=    60.00 Ry     beta= 0.70
     Davidson diagonalization with overlap
     ethr =  4.16E-10,  avg # of iterations =  2.2

     total cpu time spent up to now is        5.5 secs

     total energy              =    -201.44400189 Ry
     estimated scf accuracy    <          1.7E-09 Ry

     iteration #  7     ecut=    60.00 Ry     beta= 0.70
     Davidson diagonalization with overlap
     ethr =  8.33E-12,  avg # of iterations =  2.1

     total cpu time spent up to now is        6.0 secs

     End of self-consistent calculation

          k = 0.0000 0.0000 0.0000 (  2421 PWs)   bands (ev):

   -92.4219 -28.1757 -28.1757 -28.1757 -28.1638 -28.1638  -4.1123   8.0776
     8.0776   8.0776  11.7365  11.7365  11.7365  11.8025  16.5323  18.5011
    18.5011  19.5412  19.5412  19.5412

          k =-0.0833 0.0833-0.0833 (  2415 PWs)   bands (ev):

   -92.4219 -28.1755 -28.1755 -28.1755 -28.1637 -28.1637  -4.0478   7.4065
     7.9684   7.9684  11.6792  11.9000  11.9000  12.4930  16.7377  17.8822
    17.8822  19.3248  20.4612  20.4613

          k =-0.1667 0.1667-0.1667 (  2397 PWs)   bands (ev):

   -92.4219 -28.1752 -28.1749 -28.1749 -28.1637 -28.1637  -3.8608   6.1227
     7.7114   7.7114  11.5428  12.2708  12.2708  13.8052  17.1417  17.3083
    17.3083  19.1675  21.9796  21.9796

          k =-0.2500 0.2500-0.2500 (  2418 PWs)   bands (ev):

   -92.4219 -28.1747 -28.1743 -28.1743 -28.1635 -28.1635  -3.5737   4.8220
     7.4245   7.4245  11.3862  12.6009  12.6009  15.0825  17.2477  17.2569
    17.2569  19.7922  23.6967  23.6967

          k =-0.3333 0.3333-0.3333 (  2424 PWs)   bands (ev):

   -92.4219 -28.1743 -28.1737 -28.1737 -28.1632 -28.1632  -3.2353   3.7119
     7.1849   7.1849  11.2540  12.7331  12.7331  15.9049  17.4798  17.8298
    17.8298  20.7116  24.3733  24.3733

          k =-0.4167 0.4167-0.4167 (  2425 PWs)   bands (ev):

   -92.4219 -28.1739 -28.1733 -28.1733 -28.1630 -28.1630  -2.9386   2.9384
     7.0305   7.0305  11.1690  12.7284  12.7284  16.0371  18.3636  18.8780
    18.8780  20.8296  22.6347  22.6347

          k = 0.5000-0.5000 0.5000 (  2392 PWs)   bands (ev):

   -92.4219 -28.1738 -28.1732 -28.1732 -28.1629 -28.1629  -2.8150   2.6540
     6.9776   6.9776  11.1399  12.7109  12.7109  16.0162  19.0544  19.7416
    19.7416  20.4130  21.5134  21.5134

          k = 0.0000 0.1667 0.0000 (  2405 PWs)   bands (ev):

   -92.4219 -28.1758 -28.1753 -28.1753 -28.1639 -28.1636  -4.0263   7.5199
     7.7553   7.7553  11.5371  12.1938  12.1938  12.3829  16.6956  17.2888
    18.6166  19.7735  19.7735  20.7202

          k =-0.0833 0.2500-0.0833 (  2403 PWs)   bands (ev):

   -92.4219 -28.1757 -28.1748 -28.1747 -28.1639 -28.1634  -3.8799   6.4936
     7.4448   7.6213  11.5604  12.1899  12.6631  13.4219  16.4345  17.4149
    18.2409  19.6299  20.8254  21.8949

          k =-0.1667 0.3333-0.1667 (  2412 PWs)   bands (ev):

   -92.4219 -28.1753 -28.1741 -28.1741 -28.1639 -28.1632  -3.6252   5.2312
     7.1500   7.3689  11.6637  12.2744  13.0653  14.3471  16.6399  17.6984
    18.0350  19.7641  22.4432  23.5764

          k =-0.2500 0.4167-0.2500 (  2412 PWs)   bands (ev):

   -92.4219 -28.1747 -28.1736 -28.1734 -28.1637 -28.1630  -3.3004   4.0791
     6.9345   7.0637  11.6015  12.4757  13.2158  15.0087  17.5304  17.6700
    18.4312  20.5129  23.9413  24.9458

          k =-0.3333 0.5000-0.3333 (  2412 PWs)   bands (ev):

   -92.4219 -28.1742 -28.1732 -28.1730 -28.1634 -28.1628  -2.9817   3.2000
     6.7936   6.8270  11.5202  12.5620  13.1483  15.7157  17.6558  18.7786
    19.3222  20.7582  22.4849  24.2367

          k = 0.5833-0.4167 0.5833 (  2410 PWs)   bands (ev):

   -92.4219 -28.1738 -28.1731 -28.1729 -28.1631 -28.1628  -2.7905   2.7492
     6.6056   6.8364  11.4835  12.6151  13.0120  16.1488  18.2475  19.4979
    19.7609  20.5343  21.6406  22.9065

          k = 0.5000-0.3333 0.5000 (  2410 PWs)   bands (ev):

   -92.4219 -28.1738 -28.1732 -28.1730 -28.1630 -28.1629  -2.8323   2.8441
     6.5243   6.9590  11.5035  12.7203  12.8926  16.1901  18.3238  18.5827
    19.6745  20.7707  22.3562  22.9342

          k = 0.4167-0.2500 0.4167 (  2407 PWs)   bands (ev):

   -92.4219 -28.1741 -28.1734 -28.1733 -28.1634 -28.1630  -3.0815   3.4561
     6.5622   7.1795  11.5771  12.7777  12.8633  15.8197  17.4139  17.7649
    19.4346  20.6896  23.2522  24.7125

          k = 0.3333-0.1667 0.3333 (  2414 PWs)   bands (ev):

   -92.4219 -28.1746 -28.1740 -28.1737 -28.1637 -28.1632  -3.4137   4.4401
     6.7236   7.4670  11.6934  12.5760  12.9053  15.0618  16.7070  17.5776
    18.5099  20.2787  23.3871  24.8638

          k = 0.2500-0.0833 0.2500 (  2417 PWs)   bands (ev):

   -92.4219 -28.1751 -28.1747 -28.1743 -28.1638 -28.1634  -3.7211   5.6295
     7.0083   7.7637  11.8237  12.2412  12.6296  14.2214  16.6103  17.2614
    18.0371  19.8088  21.5920  23.4430

          k = 0.1667-0.0000 0.1667 (  2401 PWs)   bands (ev):

   -92.4219 -28.1754 -28.1752 -28.1749 -28.1638 -28.1636  -3.9424   6.7697
     7.4451   7.9687  11.8512  11.9363  12.1693  13.2490  16.9729  17.0598
    17.8840  20.0123  20.0852  21.8271

          k = 0.0000 0.3333 0.0000 (  2405 PWs)   bands (ev):

   -92.4219 -28.1760 -28.1742 -28.1742 -28.1642 -28.1632  -3.7763   6.4032
     7.0979   7.0979  11.1502  13.0575  13.2478  13.2478  15.9930  17.8194
    18.9632  20.4733  20.4733  21.7447

          k =-0.0833 0.4167-0.0833 (  2414 PWs)   bands (ev):

   -92.4219 -28.1759 -28.1735 -28.1735 -28.1643 -28.1629  -3.5616   5.4909
     6.7835   6.8444  11.1579  12.9062  13.7691  13.7887  16.4635  18.3278
    18.9237  20.5170  21.5883  22.9823

          k =-0.1667 0.5000-0.1667 (  2398 PWs)   bands (ev):

   -92.4219 -28.1755 -28.1729 -28.1728 -28.1642 -28.1626  -3.2660   4.4441
     6.5133   6.5632  11.3629  13.0275  13.8278  14.0583  17.6844  18.5154
    19.1577  20.7443  23.2067  24.6098

          k =-0.2500 0.5833-0.2500 (  2405 PWs)   bands (ev):

   -92.4219 -28.1749 -28.1726 -28.1724 -28.1640 -28.1625  -2.9508   3.5594
     6.1482   6.4652  11.4585  13.2368  14.0178  14.2632  18.3307  19.0376
    19.8673  20.8384  22.4989  24.9515

          k = 0.6667-0.3333 0.6667 (  2408 PWs)   bands (ev):

   -92.4219 -28.1743 -28.1726 -28.1722 -28.1636 -28.1626  -2.7192   3.0107
     5.8427   6.4985  11.5231  13.2148  13.8211  15.3167  17.9919  19.8430
    19.8857  20.6508  21.9761  24.8401

          k = 0.5833-0.2500 0.5833 (  2400 PWs)   bands (ev):

   -92.4219 -28.1738 -28.1728 -28.1723 -28.1633 -28.1629  -2.6841   2.9368
     5.6501   6.6576  11.6522  13.2050  13.5908  16.2761  17.5190  18.4649
    19.6585  21.4493  23.3452  23.9115

          k = 0.5000-0.1667 0.5000 (  2407 PWs)   bands (ev):

   -92.4219 -28.1736 -28.1732 -28.1728 -28.1633 -28.1631  -2.8659   3.3550
     5.6052   6.9229  11.8468  13.2712  13.3394  15.7582  17.2220  17.9084
    20.0423  21.2122  23.3466  25.1016

          k = 0.4167-0.0833 0.4167 (  2408 PWs)   bands (ev):

   -92.4219 -28.1741 -28.1734 -28.1734 -28.1637 -28.1630  -3.1680   4.1232
     5.7511   7.2538  12.0490  12.9960  13.3432  14.7702  16.4534  18.2971
    19.6616  21.0858  22.8293  23.9907

          k = 0.3333 0.0000 0.3333 (  2411 PWs)   bands (ev):

   -92.4219 -28.1747 -28.1741 -28.1737 -28.1638 -28.1631  -3.4775   4.9771
     6.1940   7.5745  12.1322  12.5593  13.0328  14.3368  16.2780  17.9904
    18.6592  20.9032  21.6840  24.7540

          k = 0.0000 0.5000 0.0000 (  2413 PWs)   bands (ev):

   -92.4219 -28.1763 -28.1727 -28.1727 -28.1646 -28.1626  -3.3902   5.2196
     6.4455   6.4455  10.7340  12.5103  14.5359  14.5359  16.7046  18.9415
    19.5416  21.6385  21.6385  22.7609

          k =-0.0833 0.5833-0.0833 (  2410 PWs)   bands (ev):

   -92.4219 -28.1763 -28.1720 -28.1720 -28.1647 -28.1623  -3.1357   4.5229
     6.0994   6.2034  10.7693  12.2510  14.8336  15.0397  17.7326  19.4014
    19.8547  21.7954  22.7860  24.2016

          k =-0.1667 0.6667-0.1667 (  2395 PWs)   bands (ev):

   -92.4219 -28.1758 -28.1716 -28.1715 -28.1646 -28.1621  -2.8478   3.8213
     5.6249   6.0891  10.9671  12.6225  14.7417  15.1411  18.9741  19.4590
    20.4230  21.6359  22.6472  24.5746

          k = 0.7500-0.2500 0.7500 (  2405 PWs)   bands (ev):

   -92.4219 -28.1751 -28.1716 -28.1713 -28.1643 -28.1622  -2.6107   3.3281
     5.1607   6.1139  11.0879  13.6482  14.5974  14.9541  18.4984  20.0359
    20.4465  21.2309  22.3855  25.5117

          k = 0.6667-0.1667 0.6667 (  2397 PWs)   bands (ev):

   -92.4219 -28.1743 -28.1720 -28.1714 -28.1639 -28.1626  -2.5248   3.1841
     4.8267   6.2745  11.2597  14.4487  14.6394  15.0608  17.2856  18.5573
    20.7299  21.7708  23.7773  25.4839

          k = 0.5833-0.0833 0.5833 (  2399 PWs)   bands (ev):

   -92.4219 -28.1738 -28.1726 -28.1719 -28.1634 -28.1631  -2.6346   3.4114
     4.7149   6.5522  11.5324  14.2216  14.4146  15.7602  16.7169  17.3182
    20.8132  21.9716  24.0467  25.4633

          k = 0.5000 0.0000 0.5000 (  2395 PWs)   bands (ev):

   -92.4219 -28.1736 -28.1732 -28.1726 -28.1635 -28.1631  -2.8823   3.8040
     4.9885   6.9053  11.8609  13.6405  14.2581  14.7183  16.6081  17.9938
    20.5043  21.7647  22.6346  25.1503

          k = 0.0000 0.6667 0.0000 (  2397 PWs)   bands (ev):

   -92.4219 -28.1766 -28.1712 -28.1712 -28.1650 -28.1619  -2.9298   4.1541
     5.9327   5.9327  10.3952  11.6188  15.8875  15.8875  18.0423  20.0848
    20.3522  23.1862  23.1863  24.1224

          k =-0.0833 0.7500-0.0833 (  2405 PWs)   bands (ev):

   -92.4219 -28.1765 -28.1707 -28.1707 -28.1651 -28.1618  -2.6907   3.6918
     5.5659   5.7891  10.4788  11.5113  16.1634  16.2953  18.9528  20.2688
    20.8928  22.7705  22.9887  24.0889

          k = 0.8333-0.1667 0.8333 (  2398 PWs)   bands (ev):

   -92.4219 -28.1760 -28.1706 -28.1705 -28.1649 -28.1618  -2.4865   3.3962
     4.9810   5.7878  10.6739  12.1604  16.0578  16.2144  18.9052  20.3973
    20.5771  22.6173  22.6355  24.9458

          k = 0.7500-0.0833 0.7500 (  2393 PWs)   bands (ev):

   -92.4219 -28.1752 -28.1710 -28.1706 -28.1645 -28.1622  -2.3945   3.3735
     4.4244   5.9284  10.8623  13.4094  15.8150  15.8869  17.5478  18.9331
    21.3127  22.6965  24.0192  25.3918

          k = 0.6667-0.0000 0.6667 (  2381 PWs)   bands (ev):

   -92.4219 -28.1744 -28.1717 -28.1711 -28.1640 -28.1626  -2.4540   3.5020
     4.2063   6.1957  11.1516  14.9150  15.1359  15.6264  16.2033  17.8436
    21.5261  22.5278  24.4382  25.3185

          k = 0.0000 0.8333 0.0000 (  2418 PWs)   bands (ev):

   -92.4219 -28.1769 -28.1701 -28.1701 -28.1654 -28.1615  -2.5177   3.3668
     5.6112   5.6112  10.1819  11.0077  17.1358  17.1358  19.1686  20.8309
    21.3939  22.5405  22.5405  24.2023

          k = 0.9167-0.0833 0.9167 (  2407 PWs)   bands (ev):

   -92.4219 -28.1767 -28.1699 -28.1699 -28.1653 -28.1615  -2.3833   3.1797
     5.2946   5.5753  10.3230  11.1200  17.2910  17.3076  19.3350  20.6873
    21.0316  22.5988  22.6411  24.1193

          k = 0.8333 0.0000 0.8333 (  2402 PWs)   bands (ev):

   -92.4219 -28.1761 -28.1703 -28.1701 -28.1651 -28.1617  -2.3378   3.2364
     4.7484   5.6849  10.5659  12.0069  16.8093  16.9300  18.2804  19.7484
    21.0704  23.3025  23.6903  24.8636

          k = 0.0000-1.0000 0.0000 (  2450 PWs)   bands (ev):

   -92.4219 -28.1770 -28.1697 -28.1697 -28.1655 -28.1613  -2.3425   3.0644
     5.5020   5.5020  10.1104  10.7963  17.7648  17.7648  19.6589  20.9902
    21.7819  21.7819  22.5343  22.8283

          k =-0.1667 0.3333 0.0000 (  2403 PWs)   bands (ev):

   -92.4219 -28.1756 -28.1742 -28.1741 -28.1640 -28.1632  -3.6991   5.7986
     6.8057   7.4977  11.5981  12.4705  13.1286  13.8495  16.3296  17.7631
    18.3483  20.5137  20.8157  23.1134

          k =-0.2500 0.4167-0.0833 (  2409 PWs)   bands (ev):

   -92.4219 -28.1752 -28.1736 -28.1735 -28.1640 -28.1630  -3.4228   4.7912
     6.3559   7.2575  11.8386  12.5512  13.5459  14.1040  16.8039  18.0888
    18.8176  20.5830  22.4039  24.6428

          k =-0.3333 0.5000-0.1667 (  2408 PWs)   bands (ev):

   -92.4219 -28.1746 -28.1732 -28.1729 -28.1638 -28.1628  -3.0997   3.8119
     6.1144   6.9592  11.9236  12.6034  13.6496  14.7043  17.5364  18.1645
    19.7547  20.7480  23.2656  24.3775

          k = 0.5833-0.4167 0.7500 (  2403 PWs)   bands (ev):

   -92.4219 -28.1740 -28.1731 -28.1725 -28.1635 -28.1628  -2.8193   3.1051
     6.0037   6.7211  11.9139  12.5369  13.6633  15.6233  17.7819  18.7831
    19.8768  20.9039  22.5480  24.5091

          k = 0.5000-0.3333 0.6667 (  2398 PWs)   bands (ev):

   -92.4219 -28.1737 -28.1732 -28.1723 -28.1633 -28.1628  -2.7036   2.8431
     5.9756   6.6289  11.9067  12.4900  13.6562  16.2495  17.5915  19.2578
    19.7399  20.7184  22.7543  23.6882

          k =-0.1667 0.5000 0.0000 (  2408 PWs)   bands (ev):

   -92.4219 -28.1759 -28.1728 -28.1727 -28.1644 -28.1626  -3.3257   4.8639
     6.1679   6.7076  11.2006  12.8000  13.8403  14.4619  17.1702  18.8069
    19.2735  21.3122  22.0110  24.1704

          k =-0.2500 0.5833-0.0833 (  2403 PWs)   bands (ev):

   -92.4219 -28.1754 -28.1724 -28.1720 -28.1644 -28.1624  -3.0309   4.0999
     5.7352   6.4544  11.4864  13.0139  13.6464  14.9095  18.0486  18.9439
    19.9937  21.4336  23.0247  23.8656

          k = 0.6667-0.3333 0.8333 (  2412 PWs)   bands (ev):

   -92.4219 -28.1748 -28.1724 -28.1716 -28.1641 -28.1624  -2.7496   3.4406
     5.4454   6.2493  11.6482  13.3534  13.8905  15.0240  18.2823  19.2376
    20.4850  21.0478  22.7895  24.6853

          k = 0.5833-0.2500 0.7500 (  2405 PWs)   bands (ev):

   -92.4219 -28.1741 -28.1727 -28.1714 -28.1638 -28.1626  -2.5874   3.0983
     5.2326   6.2228  11.7851  13.1324  14.7228  15.3412  17.2071  19.7756
    20.2656  20.7788  23.3894  25.2863

          k = 0.5000-0.1667 0.6667 (  2403 PWs)   bands (ev):

   -92.4219 -28.1736 -28.1732 -28.1716 -28.1636 -28.1628  -2.6276   3.1891
     5.1240   6.3799  11.9968  12.9589  14.6244  15.7365  16.8800  18.6065
    20.3112  21.5483  23.9851  24.7895

          k = 0.4167-0.0833 0.5833 (  2408 PWs)   bands (ev):

   -92.4219 -28.1741 -28.1731 -28.1721 -28.1638 -28.1628  -2.8473   3.6599
     5.1962   6.6671  12.2611  12.7946  14.1785  14.9310  17.4486  18.1140
    20.4529  21.5179  23.0626  24.7959

          k = 0.3333 0.0000 0.5000 (  2403 PWs)   bands (ev):

   -92.4219 -28.1747 -28.1731 -28.1728 -28.1640 -28.1628  -3.1440   4.2758
     5.5798   7.0027  12.2919  12.5969  13.8470  14.2899  16.9110  18.6247
    19.6532  21.6511  22.2959  23.9208

          k =-0.1667 0.6667-0.0000 (  2409 PWs)   bands (ev):

   -92.4219 -28.1762 -28.1715 -28.1712 -28.1648 -28.1621  -2.8852   4.0301
     5.6683   5.9911  10.8706  12.0225  14.9159  15.8639  18.4649  19.6950
    20.4435  22.5431  22.8335  23.9587

          k = 0.7500-0.2500 0.9167 (  2397 PWs)   bands (ev):

   -92.4219 -28.1757 -28.1715 -28.1707 -28.1647 -28.1620  -2.6333   3.5947
     5.1950   5.8010  11.1712  12.4323  14.6886  16.2205  18.8002  19.6268
    21.0148  21.8541  23.1303  24.1783

          k = 0.6667-0.1667 0.8333 (  2395 PWs)   bands (ev):

   -92.4219 -28.1749 -28.1718 -28.1705 -28.1644 -28.1622  -2.4648   3.3635
     4.7246   5.8059  11.3555  13.5432  14.4197  16.0590  17.6339  20.0010
    20.7719  21.6895  23.7885  25.2496

          k = 0.5833-0.0833 0.7500 (  2390 PWs)   bands (ev):

   -92.4219 -28.1741 -28.1724 -28.1707 -28.1640 -28.1626  -2.4539   3.4043
     4.4298   5.9881  11.5926  14.1397  14.9604  15.3910  16.6730  18.7123
    21.2983  22.0774  24.7062  24.8739

          k = 0.5000 0.0000 0.6667 (  2404 PWs)   bands (ev):

   -92.4219 -28.1736 -28.1731 -28.1713 -28.1637 -28.1628  -2.6044   3.5634
     4.5470   6.2996  11.9256  13.6660  14.4968  15.7143  16.8121  17.7760
    21.2212  22.0341  23.6565  25.6747

          k = 0.8333-0.1667 1.0000 (  2399 PWs)   bands (ev):

   -92.4219 -28.1764 -28.1706 -28.1701 -28.1651 -28.1617  -2.4972   3.3996
     5.3624   5.5163  10.6623  11.4468  16.1284  17.0649  19.2424  20.0826
    21.3149  22.2545  23.2585  24.3777

          k = 0.7500-0.0833 0.9167 (  2396 PWs)   bands (ev):

   -92.4219 -28.1758 -28.1708 -28.1699 -28.1649 -28.1618  -2.3683   3.3144
     4.8354   5.4883  10.9891  12.1113  15.8628  16.7958  18.5625  20.1384
    20.8948  22.4815  24.1589  24.8786

          k = 0.6667 0.0000 0.8333 (  2393 PWs)   bands (ev):

   -92.4219 -28.1750 -28.1715 -28.1701 -28.1645 -28.1622  -2.3534   3.4407
     4.3365   5.6701  11.2468  13.4220  15.3933  15.7968  17.7239  19.2187
    21.2737  22.8907  24.7045  24.8572

          k =-0.1667-1.0000-0.0000 (  2406 PWs)   bands (ev):

   -92.4219 -28.1765 -28.1702 -28.1697 -28.1653 -28.1615  -2.3347   3.1530
     5.2678   5.3453  10.5927  11.2473  17.1206  17.1909  19.3016  20.2353
    21.2867  22.0069  23.9565  23.9727

          k = 0.6667-0.3333 1.0000 (  2409 PWs)   bands (ev):

   -92.4219 -28.1749 -28.1724 -28.1712 -28.1643 -28.1624  -2.7645   3.7676
     5.1043   6.1489  12.0668  13.0855  13.3320  15.7960  18.2357  18.5640
    20.8247  22.0356  22.7538  24.9198

          k = 0.5833-0.2500 0.9167 (  2408 PWs)   bands (ev):

   -92.4219 -28.1742 -28.1727 -28.1707 -28.1641 -28.1625  -2.5424   3.4649
     4.7673   5.8557  12.4654  12.9928  13.8719  16.0760  17.2641  19.1535
    21.1519  21.6767  24.0294  24.6150

          k = 0.5000-0.1667 0.8333 (  2396 PWs)   bands (ev):

   -92.4219 -28.1736 -28.1731 -28.1705 -28.1640 -28.1626  -2.4537   3.3328
     4.6757   5.7380  12.6112  12.8009  15.0224  15.2819  16.8284  20.1058
    20.7205  21.3036  24.6294  25.1626

          k = 0.6667-0.1667 1.0000 (  2399 PWs)   bands (ev):

   -92.4219 -28.1751 -28.1718 -28.1701 -28.1646 -28.1621  -2.4465   3.4776
     4.8345   5.4049  11.8890  12.5723  14.3705  16.5692  18.1974  19.7171
    21.2328  22.2323  23.9075  24.7891

          k = 0.5833-0.0833 0.9167 (  2404 PWs)   bands (ev):

   -92.4219 -28.1743 -28.1724 -28.1699 -28.1644 -28.1623  -2.3531   3.4990
     4.4809   5.2821  12.3014  13.5596  14.0774  15.3527  18.1749  20.0818
    20.8718  22.2875  24.5829  25.2861

          k = 0.5000 0.0000 0.8333 (  2406 PWs)   bands (ev):

   -92.4219 -28.1736 -28.1731 -28.1701 -28.1642 -28.1625  -2.3910   3.5459
     4.3705   5.4781  12.6002  13.5473  14.1353  15.1313  17.7291  19.4178
    21.2412  22.4469  24.1381  25.1749

          k =-0.3333-1.0000 0.0000 (  2402 PWs)   bands (ev):

   -92.4219 -28.1752 -28.1715 -28.1697 -28.1648 -28.1620  -2.3190   3.3892
     4.7805   5.0757  11.8297  12.3947  15.4278  15.7165  19.0803  19.8310
    21.1475  22.1068  25.3924  25.4073

          k =-0.5000-1.0000 0.0000 (  2400 PWs)   bands (ev):

   -92.4219 -28.1736 -28.1731 -28.1697 -28.1644 -28.1624  -2.3111   3.5775
     4.4815   4.9567  13.3852  13.6621  13.6965  14.2564  19.0463  19.7559
    21.1268  22.1508  25.3384  25.4045

     the Fermi energy is     9.2471 ev

!    total energy              =    -201.44400189 Ry
     estimated scf accuracy    <          3.7E-11 Ry
     smearing contrib. (-TS)   =      -0.00000000 Ry
     internal energy E=F+TS    =    -201.44400189 Ry

     The total energy is F=E-TS. E is the sum of the following terms:
     one-electron contribution =    -102.35622382 Ry
     hartree contribution      =      49.71752817 Ry
     xc contribution           =     -22.67834932 Ry
     ewald contribution        =    -126.12695692 Ry

     convergence has been achieved in   7 iterations

     Writing all to output data dir out/mp-252.save/
 
     init_run     :      0.50s CPU      0.72s WALL (       1 calls)
     electrons    :      4.89s CPU      5.33s WALL (       1 calls)

     Called by init_run:
     wfcinit      :      0.43s CPU      0.56s WALL (       1 calls)
     potinit      :      0.05s CPU      0.07s WALL (       1 calls)
     hinit0       :      0.01s CPU      0.08s WALL (       1 calls)

     Called by electrons:
     c_bands      :      4.28s CPU      4.56s WALL (       8 calls)
     sum_band     :      0.59s CPU      0.64s WALL (       8 calls)
     v_of_rho     :      0.05s CPU      0.05s WALL (       8 calls)
     mix_rho      :      0.00s CPU      0.00s WALL (       8 calls)

     Called by c_bands:
     init_us_2    :      0.03s CPU      0.03s WALL (    1224 calls)
     init_us_2:cp :      0.03s CPU      0.03s WALL (    1224 calls)
     cegterg      :      4.09s CPU      4.25s WALL (     576 calls)

     Called by *egterg:
     cdiaghg      :      0.65s CPU      0.67s WALL (    2346 calls)
     h_psi        :      3.58s CPU      3.73s WALL (    2490 calls)
     g_psi        :      0.01s CPU      0.01s WALL (    1842 calls)

     Called by h_psi:
     h_psi:calbec :      0.08s CPU      0.09s WALL (    2490 calls)
     vloc_psi     :      3.46s CPU      3.60s WALL (    2490 calls)
     add_vuspsi   :      0.03s CPU      0.03s WALL (    2490 calls)

     General routines
     calbec       :      0.08s CPU      0.08s WALL (    2490 calls)
     fft          :      0.03s CPU      0.10s WALL (      80 calls)
     ffts         :      0.00s CPU      0.00s WALL (       8 calls)
     fftw         :      3.82s CPU      3.98s WALL (   78626 calls)
     davcio       :      0.04s CPU      0.25s WALL (    1924 calls)
 
     Parallel routines
 
     PWSCF        :      5.67s CPU      7.55s WALL

 
   This run was terminated on:  14:39: 8   5Apr2024            

=------------------------------------------------------------------------------=
   JOB DONE.
=------------------------------------------------------------------------------=
