
     Program PWSCF v.7.1 starts on  8Dec2023 at 11: 4:43 

     This program is part of the open-source Quantum ESPRESSO suite
     for quantum simulation of materials; please cite
         "P. Giannozzi et al., J. Phys.:Condens. Matter 21 395502 (2009);
         "P. Giannozzi et al., J. Phys.:Condens. Matter 29 465901 (2017);
         "P. Giannozzi et al., J. Chem. Phys. 152 154105 (2020);
          URL http://www.quantum-espresso.org", 
     in publications or presentations arising from this work. More details at
     http://www.quantum-espresso.org/quote

     Parallel version (MPI), running on     8 processors

     MPI processes distributed on     1 nodes
     122695 MiB available memory on the printing compute node when the environment starts
 
     Reading input from pw_mp-1029_nscf_k0_E67.in
Warning: card &IONS ignored
Warning: card / ignored
Warning: card &CELL ignored
Warning: card / ignored

     Current dimensions of program PWSCF are:
     Max number of different atomic species (ntypx) = 10
     Max number of k-points (npk) =  40000
     Max angular momentum in pseudopotentials (lmaxx) =  4

     Atomic positions and unit cell read from directory:
     out/mp-1029.save/
     Atomic positions from file used, from input discarded
 
 
     R & G space division:  proc/nbgrp/npool/nimage =       8
     Subspace diagonalization in iterative solution of the eigenvalue problem:
     one sub-group per band group will be used
     scalapack distributed-memory algorithm (size of sub-group:  2*  2 procs)

 
     Parallelization info
     --------------------
     sticks:   dense  smooth     PW     G-vecs:    dense   smooth      PW
     Min         160     160     39                 3792     3792     464
     Max         161     161     40                 3795     3795     466
     Sum        1285    1285    313                30347    30347    3719
 
     Using Slab Decomposition
 


     bravais-lattice index     =            2
     lattice parameter (alat)  =      11.7649  a.u.
     unit-cell volume          =     407.1060 (a.u.)^3
     number of atoms/cell      =            3
     number of atomic types    =            2
     number of electrons       =        24.00
     number of Kohn-Sham states=         1200
     kinetic-energy cutoff     =      67.0000  Ry
     charge density cutoff     =     268.0000  Ry
     Exchange-correlation= PBE
                           (   1   4   3   4   0   0   0)

     celldm(1)=  11.764925  celldm(2)=   0.000000  celldm(3)=   0.000000
     celldm(4)=   0.000000  celldm(5)=   0.000000  celldm(6)=   0.000000

     crystal axes: (cart. coord. in units of alat)
               a(1) = (  -0.500000   0.000000   0.500000 )  
               a(2) = (   0.000000   0.500000   0.500000 )  
               a(3) = (  -0.500000   0.500000   0.000000 )  

     reciprocal axes: (cart. coord. in units 2 pi/alat)
               b(1) = ( -1.000000 -1.000000  1.000000 )  
               b(2) = (  1.000000  1.000000  1.000000 )  
               b(3) = ( -1.000000  1.000000 -1.000000 )  


     PseudoPot. # 1 for Ba read from file:
     /usr/scratch4/magr4985/MG/HTDF/pseudo/SG15/Ba.upf
     MD5 check sum: ac4691792522964bb0504809e83fae44
     Pseudo is Norm-conserving, Zval = 10.0
     Generated using ONCVPSP code by D. R. Hamann
     Using radial grid of  602 points,  8 beta functions with: 
                l(1) =   0
                l(2) =   0
                l(3) =   1
                l(4) =   1
                l(5) =   2
                l(6) =   2
                l(7) =   3
                l(8) =   3

     PseudoPot. # 2 for F  read from file:
     /usr/scratch4/magr4985/MG/HTDF/pseudo/SG15/F.upf
     MD5 check sum: 1d8275f47d602dd53cad6bcdc0eda7dc
     Pseudo is Norm-conserving, Zval =  7.0
     Generated using ONCVPSP code by D. R. Hamann
     Using radial grid of  602 points,  4 beta functions with: 
                l(1) =   0
                l(2) =   0
                l(3) =   1
                l(4) =   1

     atomic species   valence    mass     pseudopotential
        Ba            10.00   137.32700     Ba( 1.00)
        F              7.00    18.99840     F ( 1.00)

     48 Sym. Ops., with inversion, found



   Cartesian axes

     site n.     atom                  positions (alat units)
         1           Ba  tau(   1) = (   0.0000000   0.0000000   0.0000000  )
         2           F   tau(   2) = (  -0.7500000   0.7500001   0.7500001  )
         3           F   tau(   3) = (  -0.2500000   0.2500000   0.2500001  )

     number of k points=     1  Gaussian smearing, width (Ry)=  0.0005
                       cart. coord. in units 2pi/alat
        k(    1) = (   0.0000000   0.0000000   0.0000000), wk =   2.0000000

     Dense  grid:    30347 G-vectors     FFT dimensions: (  45,  45,  45)

     Estimated max dynamical RAM per process >     118.02 MB

     Estimated total dynamical RAM >     944.19 MB

     The potential is recalculated from file :
     out/mp-1029.save/charge-density

     Starting wfcs are random

     Band Structure Calculation
     Davidson diagonalization with overlap

     ethr =  5.00E-06,  avg # of iterations = 12.0

     total cpu time spent up to now is      131.3 secs

     End of band structure calculation

          k = 0.0000 0.0000 0.0000 (  3719 PWs)   bands (ev):

   -20.0168 -15.8687 -15.8236  -4.8803  -4.8803  -4.8803   1.5396   1.5396
     1.5396   2.8811   2.8811   2.8811   9.7718  12.2170  12.2170  14.3370
    14.3370  14.3370  15.4898  15.4898  15.4898  16.1559  16.1850  16.1850
    16.1850  19.8856  19.8856  19.8856  23.0499  26.6373  26.6373  26.6373
    27.1712  27.1712  28.8138  29.1238  29.1238  29.1238  33.0451  33.0451
    33.0451  37.7217  37.7217  38.2943  38.2943  38.2943  39.9551  40.7747
    40.7747  41.7103  41.7103  41.7103  42.1312  42.1312  42.1312  42.7349
    42.7349  42.7349  44.4475  44.4475  44.4475  44.6789  45.0532  45.0532
    45.0532  46.2062  51.6849  51.6849  51.6849  54.1505  54.1505  54.1505
    58.9236  58.9236  60.0989  63.1241  63.1241  63.1241  64.4302  64.4302
    64.9085  65.1424  65.1424  65.1424  66.5438  66.5438  66.5438  68.3510
    69.2161  69.2161  69.2161  71.4695  71.4695  71.5843  71.5843  71.5843
    71.6900  71.6900  71.6900  71.8526  71.8526  75.0520  75.1627  75.1627
    75.1627  75.6579  75.6579  75.6579  75.7591  75.7591  75.7591  77.0838
    77.0838  77.0838  79.0384  79.1270  79.1270  79.1270  79.2314  79.2314
    79.4327  79.4327  79.4327  83.8733  83.8733  83.8733  87.8320  88.1507
    88.1507  88.1507  89.6752  89.6752  90.3060  90.3060  90.3060  90.7066
    90.7066  90.7066  90.9161  90.9161  90.9161  91.3895  91.3895  91.5671
    91.5671  91.5671  93.0166  97.5411  97.5411  97.5411  97.5693  97.5693
    97.9323  98.6146 100.1622 100.1622 101.5795 101.5795 101.5795 102.2472
   102.2472 102.2472 103.7203 103.7203 103.7203 104.3645 104.4334 104.4334
   104.4334 104.4565 104.4565 104.4565 104.8969 104.8969 104.8969 107.4720
   108.2963 108.2963 108.2963 114.7778 114.7778 114.7778 115.2507 115.2507
   116.5880 116.5880 116.5880 119.3404 119.3404 119.3404 121.7093 123.3132
   123.3132 123.3132 125.6150 125.6150 125.7567 125.7567 125.7567 126.0014
   126.0014 126.0014 127.2774 127.2774 127.2774 128.3844 129.6953 129.6953
   130.0416 130.0416 130.0416 130.4338 131.4697 131.4697 131.6959 131.6959
   131.6959 131.8029 131.8029 131.8029 132.5533 132.5533 132.5533 132.9380
   132.9380 132.9380 133.0533 133.3554 133.4971 133.4971 133.4971 134.4411
   134.4411 134.4411 134.7955 134.7955 135.0859 135.1912 135.1912 136.1955
   136.1955 136.1955 136.3367 136.3367 136.3367 136.8401 137.0666 137.0666
   137.0666 137.7025 138.6732 138.6732 138.6732 139.0945 139.0945 139.1855
   139.1855 139.1855 139.3878 139.3878 139.5420 139.5420 139.5420 139.8351
   139.8351 139.8351 144.2249 144.2249 144.2249 146.1402 146.1402 147.0234
   149.0729 149.0729 149.0729 152.0793 152.0793 152.0793 152.5522 152.5522
   152.5522 153.0440 153.0440 153.0440 153.2790 153.2790 153.2790 155.4661
   155.5972 155.5972 155.7685 155.7685 155.7685 155.7803 157.0694 157.0694
   157.0694 158.5787 158.5787 158.5787 160.6025 160.6025 161.2476 161.2476
   161.2476 161.6806 161.6806 161.6806 162.0056 162.0056 163.6231 163.7048
   163.7048 163.7048 164.1034 164.1034 164.1034 165.2936 165.2936 165.2936
   166.1967 167.4549 167.4549 168.2393 168.7890 168.7890 168.7890 169.0972
   169.0972 169.0972 169.1129 169.1129 169.1129 169.2582 169.2582 169.2582
   170.0763 170.0763 172.3678 172.3678 172.3678 177.2416 177.2416 177.2416
   180.8056 181.8703 181.8703 181.8703 183.2691 183.2691 183.5918 183.5918
   183.5918 184.0544 184.7229 184.7229 184.7229 184.7945 187.0381 187.0381
   188.2931 189.4657 189.4657 189.6125 189.6125 189.6125 191.1267 191.1267
   191.1267 191.8138 191.8138 191.8138 192.1171 192.1171 192.1171 192.2374
   192.2374 192.2374 193.2645 193.2645 193.2645 193.3983 193.3983 194.4307
   195.0611 195.0611 195.0611 195.9749 195.9749 195.9749 196.6557 197.4431
   197.4431 197.4431 197.4853 197.4853 197.4853 198.0997 198.0997 198.0997
   198.1433 198.3189 198.3189 198.7523 198.7523 198.7523 198.9297 198.9297
   198.9297 199.1105 199.1105 199.8196 199.8196 199.8196 200.2961 200.2961
   200.2961 202.0379 203.2336 203.2336 203.2336 204.3998 204.3998 204.3998
   206.1505 207.2086 207.2086 207.7380 207.7380 207.7380 208.8411 208.8411
   208.8411 209.3087 209.3087 210.2486 210.2486 210.2486 211.8267 211.8267
   211.8267 212.5828 212.5828 212.5828 213.0910 213.5662 213.5662 214.0662
   214.0662 214.0662 214.1004 214.1004 214.1004 214.4104 214.4104 215.0142
   215.0142 215.0142 216.0944 216.2081 216.2081 216.2081 216.7820 216.7820
   216.7820 216.8416 216.8416 216.8416 217.0327 217.0327 217.0327 217.3235
   217.8019 220.3373 220.3373 220.6484 220.6484 220.6484 221.2597 221.2597
   221.2597 222.3776 222.3776 222.3776 223.0484 223.0484 223.1614 223.1614
   223.1614 224.3347 224.6841 224.6841 224.6841 225.0959 225.6257 225.6257
   225.6257 226.3211 226.3211 226.5658 226.5658 226.5658 226.6492 226.6492
   226.6492 226.9861 227.2487 227.2487 227.2487 227.4988 227.4988 228.0800
   228.0800 228.0800 228.2369 228.2369 228.6111 228.6111 228.6111 228.6757
   228.6757 228.6757 228.6883 228.6883 228.6883 229.4154 229.5417 229.5417
   229.5417 229.5809 229.5809 230.5078 230.5078 230.5078 230.6270 232.2776
   232.2776 232.2776 235.3886 235.3886 235.3886 241.7271 241.7271 243.1596
   244.7223 244.7223 244.7223 245.9146 245.9146 245.9146 247.9874 247.9874
   247.9874 248.8425 248.8425 251.2628 251.2628 251.7058 252.0156 252.0156
   252.0156 252.3715 252.3715 252.3715 253.2610 253.2610 253.2610 253.5735
   253.8529 253.8529 253.8529 254.1028 254.1028 255.5903 255.5903 255.5903
   258.2880 258.3113 259.4367 259.4367 259.4367 260.1746 260.1746 260.1746
   260.3219 260.3219 260.3219 260.5489 260.5489 260.5489 262.0406 262.0406
   262.0406 262.3638 262.3638 262.4638 262.4638 262.4638 262.6217 262.6217
   262.6217 262.9211 262.9211 262.9211 262.9319 262.9319 263.0637 263.0637
   263.0637 263.8053 263.8053 263.8699 263.9507 263.9507 263.9507 264.8071
   266.2490 266.2490 266.2490 266.4606 266.4606 266.4606 266.7023 266.7023
   268.0809 269.8268 269.8268 269.8268 271.1948 271.1948 271.1948 271.5075
   271.5075 274.5002 274.5002 274.5002 274.6457 274.6457 274.6457 274.8936
   274.8936 274.8936 275.0878 276.8864 276.8864 276.9293 276.9293 276.9293
   277.6079 278.0225 278.0225 278.0225 278.4053 278.4053 278.4053 279.1777
   279.1777 279.1777 280.2789 280.2789 280.4138 280.4138 280.4138 280.4274
   280.4274 280.4274 281.7590 281.7590 281.7590 282.0401 282.0401 283.6049
   283.6049 283.6049 283.9277 284.8808 284.8808 284.8808 285.0013 285.0013
   285.0013 285.0124 285.3610 285.3610 285.3610 285.3926 285.4451 285.4451
   285.6486 288.9567 288.9567 288.9567 289.4101 289.4101 290.0492 290.0492
   290.0492 290.1902 290.1902 290.1902 290.3976 290.5521 290.5521 290.5521
   290.5897 290.5897 290.5897 291.1080 291.1080 291.1080 291.5230 291.5230
   291.5230 291.5365 291.5365 292.6507 292.6507 292.6507 292.8137 292.8137
   292.8137 292.8492 292.8492 293.0734 294.1353 294.1353 294.1353 294.4041
   296.8344 296.8344 296.8344 297.1173 301.9366 301.9366 301.9366 302.7350
   302.7350 302.7350 305.5892 305.5892 305.7992 305.7992 305.7992 306.2751
   306.6475 306.6475 306.6475 306.6519 306.6519 306.9126 306.9126 306.9126
   307.0505 307.2981 307.2981 307.2981 308.5259 308.5259 308.6778 308.6778
   308.6778 309.0919 309.0919 309.0919 309.8038 310.3254 310.3254 310.3925
   310.3925 310.3925 310.7974 310.7974 310.7974 311.9002 311.9002 311.9002
   312.4148 312.4148 312.4148 312.4604 312.6571 312.6571 313.5913 313.5913
   313.5913 314.4677 314.4677 316.0026 316.0026 316.0026 316.3450 316.3450
   316.3450 316.5478 316.5478 316.5478 316.9490 317.1147 317.1147 317.2858
   317.2858 317.3680 317.3680 317.3680 317.5905 317.5905 317.5905 318.7199
   318.7199 318.7199 318.7244 319.8283 319.8283 319.8283 319.9274 319.9880
   319.9880 319.9880 320.0270 320.0270 320.0270 320.0596 320.1040 320.1040
   320.1040 320.2888 320.2888 320.4692 320.4692 320.4692 320.9836 320.9836
   320.9836 321.5253 321.5253 321.5253 321.6449 321.6449 321.6449 322.1296
   322.1296 322.1296 322.3792 322.3792 322.7062 324.6799 324.6799 325.0352
   325.0352 325.0352 325.4035 325.4035 325.4035 325.6708 325.6708 325.6708
   325.7922 325.7922 325.7922 325.9497 326.1541 326.1541 326.4145 326.4145
   326.4145 326.7045 326.7045 326.7045 326.8525 326.8525 326.8525 326.8908
   326.9971 326.9971 326.9971 327.8104 331.9260 333.9766 333.9766 333.9766
   337.1118 337.1118 337.1118 338.9077 338.9077 338.9077 339.7102 339.7102
   339.7265 339.7265 339.7868 339.7868 339.7868 340.5076 340.5076 340.5076
   340.5358 340.5358 340.5358 341.7615 341.7615 341.7615 343.6443 343.6443
   345.5097 345.5097 345.5097 345.5591 345.5591 345.5591 345.8261 345.8261
   345.8261 346.2204 346.2700 346.2700 348.1178 349.1276 349.1276 349.1276
   350.0120 350.0120 350.0487 350.7045 350.7045 350.7045 351.0474 351.0474
   351.0474 351.0639 351.0639 351.0639 351.2965 351.2965 351.2965 352.4283
   352.8844 352.8844 352.9516 352.9516 352.9516 353.0689 353.3506 353.3506
   353.3506 356.0522 356.0522 356.0522 358.7883 358.7883 358.7883 361.1816
   361.1816 361.1816 364.4021 364.4021 364.4117 364.4117 364.4117 365.1646
   365.1646 365.1646 365.1815 365.1815 365.1815 365.2631 365.3284 365.3284
   365.6435 365.6435 365.6435 366.9781 366.9781 366.9781 367.9675 367.9675
   368.0071 368.1242 368.1242 368.1242 368.2818 368.2818 368.2818 370.6407
   372.1143 373.6776 373.6776 373.6776 374.8128 374.8128 374.8128 375.6031
   375.6031 375.7381 375.7381 375.7381 376.0621 376.0621 376.0621 378.3597
   378.3597 378.3597 378.5154 378.5154 378.5154 379.0250 379.0250 379.2055
   379.2055 379.4275 379.4275 379.4275 379.6112 379.6112 379.6112 379.8086
   380.3471 380.3471 380.3471 380.7471 380.7496 380.7496 380.7566 380.7566
   380.7566 380.8625 382.0947 382.0948 382.0948 382.3086 382.3086 382.3086
   382.3164 382.9968 382.9968 382.9968 383.0470 383.0470 383.0470 383.0563
   383.0563 383.0563 383.1516 383.1516 383.1537 383.1537 384.0220 384.0506
   384.0506 384.0506 384.1635 384.1635 384.1790 384.1790 384.1791 384.2143
   384.2143 384.2143 384.2435 384.2435 384.2435 384.3809 384.3809 384.3809
   384.5582 384.5582 387.4320 387.4320 387.4320 387.7695 389.6288 389.6288
   390.0309 390.0309 390.0309 392.3801 392.3801 392.3801 392.8654 392.9686
   393.3878 393.3878 393.3878 393.9892 393.9892 394.2214 394.2214 394.2214
   394.9706 394.9706 394.9706 395.2380 395.2380 395.2380 395.2624 395.2624
   396.5527 398.1986 398.1986 398.1986 398.2574 398.2574 398.2574 398.3914
   398.3914 398.3914 399.1402 399.4812 399.4812 399.5710 399.5710 399.5710
   400.0613 400.0613 400.0613 400.1208 400.1208 400.1208 400.4023 400.4023
   400.4023 400.8050 400.8440 400.8440 400.8440 400.8544 400.8544 400.8544
   400.9318 400.9318 400.9318 400.9448 400.9448 402.8375 402.8945 402.8945
   402.8945 403.3985 403.3985 403.4216 403.4216 403.4216 403.5115 404.6440
   404.6440 404.6440 406.5507 406.5507 406.5507 407.9847 407.9847 407.9847
   408.0608 408.0608 408.0608 408.2169 408.2169 408.3238 408.3238 408.3238
   408.6355 409.0555 409.0555 409.0555 409.0998 409.0998 409.4372 409.4372
   409.4372 409.6203 409.6203 409.6203 409.7669 409.7669 409.8977 409.8977
   409.8977 410.9283 410.9283 410.9283 411.5406 411.5736 411.5736 411.5736
   411.7561 411.7561 411.7561 411.8452 411.8452 412.0512 412.0557 412.0557
   412.1776 412.1776 412.1776 412.3236 412.3236 412.3236 412.3719 412.3719

     the Fermi energy is     6.9528 ev
     (compare with:     7.3006 eV, computed in scf)

     Writing all to output data dir out/mp-1029.save/
 
     init_run     :      0.05s CPU      0.09s WALL (       1 calls)
     electrons    :    121.50s CPU    130.88s WALL (       1 calls)

     Called by init_run:
     wfcinit      :      0.00s CPU      0.00s WALL (       1 calls)
     potinit      :      0.01s CPU      0.03s WALL (       1 calls)
     hinit0       :      0.02s CPU      0.03s WALL (       1 calls)

     Called by electrons:
     c_bands      :    121.50s CPU    130.88s WALL (       1 calls)
     v_of_rho     :      0.01s CPU      0.01s WALL (       1 calls)

     Called by c_bands:
     init_us_2    :      0.00s CPU      0.00s WALL (       1 calls)
     init_us_2:cp :      0.00s CPU      0.00s WALL (       1 calls)
     cegterg      :    118.88s CPU    128.10s WALL (       1 calls)

     Called by *egterg:
     cdiaghg      :    111.58s CPU    120.65s WALL (      13 calls)
     h_psi        :      2.16s CPU      2.24s WALL (      14 calls)
     g_psi        :      0.02s CPU      0.02s WALL (      12 calls)

     Called by h_psi:
     h_psi:calbec :      0.05s CPU      0.06s WALL (      14 calls)
     vloc_psi     :      2.05s CPU      2.12s WALL (      14 calls)
     add_vuspsi   :      0.04s CPU      0.04s WALL (      14 calls)

     General routines
     calbec       :      0.05s CPU      0.06s WALL (      14 calls)
     fft          :      0.01s CPU      0.02s WALL (      10 calls)
     fftw         :      1.86s CPU      1.92s WALL (   14884 calls)
 
     Parallel routines
 
     PWSCF        :   2m 1.82s CPU   2m11.43s WALL

 
   This run was terminated on:  11: 6:54   8Dec2023            

=------------------------------------------------------------------------------=
   JOB DONE.
=------------------------------------------------------------------------------=
