
     Program PWSCF v.7.1 starts on 14Nov2023 at 19:55:15 

     This program is part of the open-source Quantum ESPRESSO suite
     for quantum simulation of materials; please cite
         "P. Giannozzi et al., J. Phys.:Condens. Matter 21 395502 (2009);
         "P. Giannozzi et al., J. Phys.:Condens. Matter 29 465901 (2017);
         "P. Giannozzi et al., J. Chem. Phys. 152 154105 (2020);
          URL http://www.quantum-espresso.org", 
     in publications or presentations arising from this work. More details at
     http://www.quantum-espresso.org/quote

     Parallel version (MPI), running on     8 processors

     MPI processes distributed on     1 nodes
     123535 MiB available memory on the printing compute node when the environment starts
 
     Reading input from pw_mp-1265_nscf_k60_E164.in
Warning: card &IONS ignored
Warning: card / ignored
Warning: card &CELL ignored
Warning: card / ignored

     Current dimensions of program PWSCF are:
     Max number of different atomic species (ntypx) = 10
     Max number of k-points (npk) =  40000
     Max angular momentum in pseudopotentials (lmaxx) =  4

     Atomic positions and unit cell read from directory:
     out/mp-1265.save/
     Atomic positions from file used, from input discarded
 
 
     R & G space division:  proc/nbgrp/npool/nimage =       8
     Subspace diagonalization in iterative solution of the eigenvalue problem:
     one sub-group per band group will be used
     scalapack distributed-memory algorithm (size of sub-group:  2*  2 procs)

 
     Parallelization info
     --------------------
     sticks:   dense  smooth     PW     G-vecs:    dense   smooth      PW
     Min         177     177     51                 4417     4417     666
     Max         178     178     52                 4420     4420     667
     Sum        1417    1417    409                35341    35341    5329
 
     Using Slab Decomposition
 


     bravais-lattice index     =            2
     lattice parameter (alat)  =       7.9255  a.u.
     unit-cell volume          =     124.4580 (a.u.)^3
     number of atoms/cell      =            2
     number of atomic types    =            2
     number of electrons       =        16.00
     number of Kohn-Sham states=         2200
     kinetic-energy cutoff     =     164.0000  Ry
     charge density cutoff     =     656.0000  Ry
     Exchange-correlation= PBE
                           (   1   4   3   4   0   0   0)

     celldm(1)=   7.925516  celldm(2)=   0.000000  celldm(3)=   0.000000
     celldm(4)=   0.000000  celldm(5)=   0.000000  celldm(6)=   0.000000

     crystal axes: (cart. coord. in units of alat)
               a(1) = (  -0.500000   0.000000   0.500000 )  
               a(2) = (   0.000000   0.500000   0.500000 )  
               a(3) = (  -0.500000   0.500000   0.000000 )  

     reciprocal axes: (cart. coord. in units 2 pi/alat)
               b(1) = ( -1.000000 -1.000000  1.000000 )  
               b(2) = (  1.000000  1.000000  1.000000 )  
               b(3) = ( -1.000000  1.000000 -1.000000 )  


     PseudoPot. # 1 for Mg read from file:
     /usr/scratch4/magr4985/MG/HTDF/pseudo/SG15/Mg.upf
     MD5 check sum: 330956729b1f868fdecd9f5113f6a961
     Pseudo is Norm-conserving, Zval = 10.0
     Generated using ONCVPSP code by D. R. Hamann
     Using radial grid of  602 points,  4 beta functions with: 
                l(1) =   0
                l(2) =   0
                l(3) =   1
                l(4) =   1

     PseudoPot. # 2 for O  read from file:
     /usr/scratch4/magr4985/MG/HTDF/pseudo/SG15/O.upf
     MD5 check sum: e36c48deb68f4e355fffe4602be2c42c
     Pseudo is Norm-conserving, Zval =  6.0
     Generated using ONCVPSP code by D. R. Hamann
     Using radial grid of  602 points,  4 beta functions with: 
                l(1) =   0
                l(2) =   0
                l(3) =   1
                l(4) =   1

     atomic species   valence    mass     pseudopotential
        Mg            10.00    24.30500     Mg( 1.00)
        O              6.00    15.99940     O ( 1.00)

     48 Sym. Ops., with inversion, found



   Cartesian axes

     site n.     atom                  positions (alat units)
         1           Mg  tau(   1) = (   0.0000000   0.0000000   0.0000000  )
         2           O   tau(   2) = (  -0.5000000   0.5000000   0.5000000  )

     number of k points=     8  Gaussian smearing, width (Ry)=  0.0005
                       cart. coord. in units 2pi/alat
        k(    1) = (   0.0000000   0.0000000   0.0000000), wk =   0.0312500
        k(    2) = (  -0.2500000   0.2500000  -0.2500000), wk =   0.2500000
        k(    3) = (   0.5000000  -0.5000000   0.5000000), wk =   0.1250000
        k(    4) = (   0.0000000   0.5000000   0.0000000), wk =   0.1875000
        k(    5) = (   0.7500000  -0.2500000   0.7500000), wk =   0.7500000
        k(    6) = (   0.5000000   0.0000000   0.5000000), wk =   0.3750000
        k(    7) = (   0.0000000  -1.0000000   0.0000000), wk =   0.0937500
        k(    8) = (  -0.5000000  -1.0000000   0.0000000), wk =   0.1875000

     Dense  grid:    35341 G-vectors     FFT dimensions: (  45,  45,  45)

     Estimated max dynamical RAM per process >     317.14 MB

     Estimated total dynamical RAM >       2.48 GB

     The potential is recalculated from file :
     out/mp-1265.save/charge-density

     Starting wfcs are random

     Band Structure Calculation
     ParO style diagonalization

     ethr =  5.00E-06,  avg # of iterations =  5.5

     total cpu time spent up to now is     4558.5 secs

     End of band structure calculation

          k = 0.0000 0.0000 0.0000 (  4477 PWs)   bands (ev):

   -63.3966 -30.1615 -30.1615 -30.1615  -8.3448   8.9260   8.9260   8.9260
    13.8204  24.9022  24.9022  24.9022  28.7411  30.7343  30.7343  33.5286
    33.5286  33.5286  47.5948  47.5948  47.5948  48.3813  59.6611  59.6611
    59.6611  65.1858  65.1858  66.2885  66.2885  66.2885  70.3129  75.1143
    75.1143  82.4433  82.4433  82.4433  82.9520  82.9520  82.9520  89.5789
    89.5789  89.5789  91.1254  91.1254  91.1254  92.7710  92.7710  92.7710
    92.9549  95.4812  95.4812  95.4812  96.4634  96.4634  96.5430  96.5430
    96.5430  97.8483  98.4902 106.7197 106.7197 106.7197 121.2867 121.2867
   121.2867 121.9943 121.9943 127.0523 142.1508 142.1508 142.1508 143.2825
   143.2825 143.2825 145.0929 151.3020 151.3020 152.4491 152.4491 152.4491
   155.9091 155.9091 155.9091 156.0362 157.8310 157.8310 160.4811 160.4811
   160.4811 161.9230 161.9230 161.9230 162.1585 162.1585 162.1585 163.0793
   163.0793 163.0793 163.0921 163.0921 164.8508 164.8508 164.8508 166.3573
   167.0486 167.0486 167.0486 168.5695 168.5695 169.8422 169.8422 169.8422
   170.6543 182.6242 182.6242 182.6242 187.8775 187.8775 187.8775 191.8534
   191.8534 191.8534 192.8132 197.0846 199.4589 199.4589 201.1665 201.1665
   201.1665 201.4084 201.4084 201.4084 201.9673 201.9673 201.9673 202.0140
   202.0140 202.0140 202.0458 202.0458 202.5017 202.5017 218.7474 218.7474
   218.7474 218.9937 219.0373 219.0373 219.0373 222.5623 225.5923 225.5923
   225.5923 226.1875 226.1875 226.1875 227.4625 227.4625 227.4625 227.5787
   227.8807 227.8807 227.8807 232.4407 232.4407 232.4982 232.4982 232.4982
   232.6008 242.4991 242.4991 242.4991 258.8728 258.8728 258.8728 260.8231
   260.8231 260.8231 262.5810 262.5810 263.7765 263.7765 263.7765 267.7307
   275.3085 275.3085 275.3085 278.5895 278.5895 280.8357 280.8357 280.8357
   280.8414 280.8414 280.8414 288.0082 288.0082 288.0082 288.4775 288.9607
   288.9607 289.8913 289.8913 289.8913 290.4961 291.3855 291.3855 291.6100
   291.6100 291.6100 293.0953 293.0953 293.0953 294.5813 294.6536 295.0390
   295.0390 295.0390 295.0459 295.0459 295.0459 296.3784 296.3784 297.3990
   297.3990 297.3990 297.7848 298.2611 298.2611 298.2611 299.1671 299.1671
   299.1671 299.7636 299.7636 299.7636 299.8527 299.8527 300.4070 300.4070
   300.4070 300.7405 303.2077 303.2077 303.2077 303.8112 303.8112 303.8122
   303.8122 303.8122 304.4868 304.4868 304.4868 304.7585 304.7585 304.7585
   304.7855 304.7855 310.6664 323.0279 323.0279 323.0279 325.9829 325.9829
   332.9032 332.9032 332.9032 332.9283 332.9283 332.9283 333.3451 333.3451
   333.3451 333.8262 333.8262 333.8262 337.8077 339.6955 339.6955 339.7794
   339.7794 339.7794 340.0189 343.2616 343.2616 343.2616 351.1661 351.1661
   351.1661 352.0143 361.5117 362.4103 362.4103 362.4692 362.4692 362.4692
   363.2134 363.2134 363.2134 363.2209 363.2209 363.2209 363.4352 363.4352
   363.4352 363.5534 363.5534 363.5534 363.6140 363.6140 368.1578 368.1578
   368.1578 368.8283 368.8283 369.4933 369.5077 369.5077 369.5077 369.7927
   369.7927 369.7927 370.1310 370.1310 370.1310 370.7689 370.7689 370.7689
   371.0051 371.0051 376.4808 390.2237 390.2237 390.2237 397.9797 397.9797
   397.9797 401.1692 401.1692 401.1692 401.7112 402.7455 402.7455 405.5663
   416.5239 416.5239 416.5239 417.3376 417.3376 417.3376 417.7478 418.2172
   418.2172 418.2172 419.9341 419.9341 419.9341 420.3041 420.3041 428.3696
   428.3696 428.3696 429.3730 429.3730 429.4552 429.4552 429.4552 429.5538
   430.6019 430.6019 430.6019 430.9274 430.9274 430.9274 431.1203 431.1203
   431.1203 431.3403 431.3403 431.3403 433.2593 433.9646 433.9646 433.9646
   434.4706 434.4706 434.4706 434.7389 434.7389 434.7848 434.7848 434.7848
   437.6040 437.6040 437.6062 437.6062 437.6062 437.6176 438.7825 438.7825
   438.7825 438.8326 438.8326 439.5558 439.5558 439.5558 439.9348 439.9348
   439.9348 440.1680 445.5997 459.1914 459.1914 459.1914 462.6950 462.7342
   462.7342 462.7342 468.3255 468.3255 468.6535 468.6535 468.6535 468.7999
   468.7999 468.7999 469.3515 469.3515 469.3515 469.6587 469.6587 469.6587
   469.7061 469.7061 469.7061 470.0413 470.0413 474.8756 474.8756 475.2291
   475.2291 475.2291 475.3922 475.3922 475.3922 475.6138 475.6138 475.6138
   475.6222 475.6222 475.6222 475.7134 475.8571 475.8571 477.1542 477.3547
   477.3547 477.3547 477.5748 477.5748 477.5748 477.7864 482.0609 482.0609
   482.0609 483.0636 483.0636 486.1093 486.1672 486.1672 486.1672 487.6340
   487.6340 487.6340 489.2033 489.2033 489.2033 491.9812 491.9812 491.9812
   493.3692 493.9658 493.9658 493.9658 494.6002 494.6002 495.2585 495.2585
   495.2585 495.8935 499.0864 499.0864 500.0234 500.0234 500.0234 500.2192
   500.2192 500.2192 500.2999 500.2999 500.2999 501.3777 501.3777 501.3795
   501.3795 501.3795 501.8850 502.1686 502.1686 502.1892 502.1892 502.1892
   503.8868 503.8868 503.8868 504.0392 504.0392 504.0392 504.2422 504.2422
   504.2422 504.3577 504.3577 504.3577 505.2823 505.2823 505.2889 505.2889
   505.2889 505.3105 506.9528 522.1688 522.1688 522.1688 528.3886 528.3886
   537.4989 553.2463 553.2463 553.2463 559.0450 559.0450 559.0450 561.2583
   561.2583 561.2583 562.6397 563.2939 563.2939 564.4977 564.4977 564.4977
   564.9842 564.9842 564.9842 565.0237 565.0237 565.0237 565.3410 565.3410
   565.3583 565.3583 565.3583 565.5574 565.5963 565.5963 565.5963 565.9035
   565.9035 566.2481 566.2481 566.2481 567.5559 570.1832 571.4033 571.4033
   571.4033 571.8579 571.8579 571.8579 572.3150 572.3150 572.3150 572.7458
   572.7458 572.7458 577.1643 577.1643 577.2563 577.2563 577.2790 577.2790
   577.2790 577.3748 577.3748 577.3748 577.4079 577.4079 577.4079 577.6259
   577.6259 577.6259 578.7812 578.9877 578.9877 579.0740 579.0740 579.0740
   579.2785 599.2407 599.2407 599.2407 602.3860 602.3860 602.3860 602.7876
   602.7876 602.7998 602.7998 602.7998 606.3008 606.3008 606.3008 608.4066
   608.4066 608.4654 608.4654 608.4654 608.7595 608.8334 608.8334 608.8334
   609.4324 609.4324 609.4324 609.7739 609.7739 609.7739 609.8842 610.0557
   610.0557 610.0622 610.0622 610.0622 610.0668 610.0668 610.0668 613.2369
   617.1552 617.1552 617.1552 618.2310 618.2310 618.2847 618.2847 618.2847
   629.9071 630.6758 631.3504 631.3504 631.3504 631.5772 631.5772 631.5772
   631.8640 631.8640 632.1814 632.1814 632.1814 632.3840 632.3840 632.3840
   632.6723 632.6723 632.6723 633.1430 634.7010 637.9913 637.9913 637.9913
   638.0129 638.0129 638.0665 638.0665 638.0665 638.4018 638.4018 638.4018
   638.4100 638.4100 638.4100 638.5648 641.0469 641.0469 641.0469 641.1245
   641.1245 641.1245 641.1409 641.1409 641.2203 641.2203 641.2203 641.3617
   641.3617 641.3617 641.5140 641.7688 641.7688 641.7688 641.8100 641.8100
   642.2907 643.0728 643.0728 643.0728 643.5099 643.5099 643.5099 643.7946
   643.7946 643.8317 643.8317 643.8317 645.9900 668.6962 668.6962 668.6962
   672.0012 672.0012 672.1177 672.1177 672.1177 673.8096 673.8096 673.8096
   673.8864 673.8864 673.8864 674.0248 674.0248 674.0248 674.1262 674.1262
   674.1262 675.3184 675.3184 675.5087 675.5087 675.5087 675.9361 676.9614
   676.9614 678.7414 684.2185 689.7449 689.7449 689.7449 691.4535 691.4535
   691.4535 691.6714 698.0105 698.0105 698.0105 698.6536 698.6536 698.6536
   698.8078 698.8078 698.8078 698.8838 698.8838 699.0067 699.0067 699.0067
   699.3089 699.3089 700.9504 702.8559 702.8559 702.8559 704.1166 704.1166
   704.1166 704.1574 704.1574 704.1574 704.3893 704.3893 704.3893 704.5219
   704.5219 704.5219 705.7658 705.7658 705.9409 705.9409 705.9409 705.9635
   705.9635 706.0020 706.0020 706.0020 706.0052 706.0052 706.0052 706.0789
   706.0789 706.0789 706.1993 706.1993 706.1993 706.3178 707.5099 707.5099
   707.5964 707.5964 707.5964 707.9083 707.9083 707.9083 707.9612 707.9612
   707.9612 708.0750 708.1203 708.1203 708.1203 708.1333 708.1333 708.1333
   708.1396 708.2978 708.2978 708.2978 708.4518 708.4518 711.2096 711.2168
   711.2168 711.2168 711.2209 711.2209 712.2206 714.0400 714.0400 714.1686
   714.1686 714.1686 714.6451 714.6451 714.6451 714.6667 714.6783 714.6783
   714.6783 714.8682 714.8682 714.8682 715.0066 715.0066 715.0066 715.2708
   715.2708 715.3370 715.3370 715.3370 715.3883 734.8003 734.8003 734.8003
   736.0930 736.1675 736.1675 736.1675 739.2294 748.1586 748.1586 748.1586
   748.1928 748.1928 748.2416 748.2416 748.2416 748.3101 748.3101 748.3101
   748.4340 748.4340 748.4437 748.4437 748.4437 753.7290 753.7290 753.7290
   756.7143 756.7143 761.5071 761.5071 761.5071 761.7648 761.7648 761.7648
   761.7836 761.7836 761.7836 762.0389 762.0389 762.0389 762.5684 768.7353
   768.7353 768.8624 768.8624 768.8624 769.0364 774.3011 774.3011 774.3011
   774.3088 774.3267 774.3267 777.3906 777.3906 777.3906 777.4042 777.4042
   777.4042 777.4449 777.4449 777.4449 777.4670 777.4670 777.4670 778.7849
   778.7849 778.8065 778.8065 778.8065 778.8365 807.0107 807.0107 807.0107
   810.7799 810.7799 810.7799 811.4122 811.9581 811.9581 812.3131 812.3131
   812.3131 812.5800 812.5800 812.5800 812.7954 812.7954 812.7954 812.9466
   812.9466 812.9466 813.1459 813.1459 813.6908 817.8782 817.8782 817.8782
   823.8924 823.8924 823.8924 826.7422 826.8914 826.8914 826.9018 826.9018
   826.9018 828.7394 830.2536 830.2536 830.2536 830.3777 830.3777 830.3777
   833.0016 833.0016 833.0016 833.3657 835.3172 835.3172 836.6967 836.6967
   836.6967 837.1331 837.1331 837.1331 837.2053 837.2053 837.5979 837.5979
   837.5979 837.7279 837.7279 837.7404 837.7404 837.7404 838.5641 838.5641
   838.5641 838.6832 838.6832 838.6832 838.7995 838.9690 838.9690 838.9690
   838.9738 838.9738 839.8594 839.9583 839.9583 839.9583 840.0215 840.0215
   840.0215 840.2067 841.8505 843.0902 843.0902 843.0902 843.1649 843.1649
   843.1942 843.1942 843.1942 843.3639 843.3639 843.3639 843.4004 843.4004
   843.4120 843.4120 843.4120 845.1260 845.1290 845.1290 845.1290 845.1495
   845.1495 845.1495 845.1990 845.1990 845.2005 845.2005 845.2005 849.5631
   849.5631 849.5631 849.6311 849.6311 849.6311 849.7211 849.7211 849.7211
   849.7413 849.7413 849.8361 870.7981 870.7981 870.7981 872.2191 872.2191
   873.8321 876.3973 876.3973 876.3973 876.7163 876.7163 876.7163 877.7205
   877.7205 877.7205 877.7561 878.5911 878.5911 878.7801 878.7801 878.7801
   879.0002 879.0002 879.0002 879.2563 879.3518 879.3518 879.3518 879.5807
   879.5807 880.1489 880.1489 880.1489 880.5098 880.5098 880.5098 880.5648
   880.5648 880.5648 881.0146 881.0146 881.0146 884.9034 884.9034 885.1166
   885.1330 885.1330 885.1330 885.2186 885.2186 885.2186 885.3760 885.3760
   885.3760 885.6221 885.6221 885.6669 885.6669 885.6669 885.8705 885.8705
   885.8705 885.9256 885.9307 885.9307 885.9307 887.1153 887.1153 887.1510
   887.1510 887.1510 887.2155 893.5596 893.5596 893.5596 896.6563 896.6563
   896.6563 897.0168 897.0168 897.1067 897.1067 897.1067 898.9688 899.6183
   899.6183 899.6183 899.8889 899.8889 900.0569 900.0569 900.0569 900.6776
   900.6776 900.6776 901.0253 904.8701 905.4876 905.4876 905.4876 906.1066
   906.1066 906.1066 906.8074 906.8074 906.8497 906.8497 906.8497 908.5460
   908.7570 908.7570 908.7570 909.0377 909.0377 909.0377 909.2890 909.2890
   909.2890 909.3093 909.3093 913.3082 913.3082 913.3169 913.3169 913.3169
   913.5107 913.5107 913.5107 913.5799 913.5799 913.5799 913.6737 913.6737
   913.6737 913.8563 913.8585 913.9813 913.9813 913.9813 914.1684 914.1684
   914.1684 914.2432 914.2515 914.2515 914.2515 914.2718 914.2718 914.2718
   914.2896 914.2896 914.6466 915.4521 915.4521 915.4521 915.6672 915.6672
   916.3125 916.5944 916.5944 916.5944 916.6350 916.6350 916.6350 916.6689
   916.6689 916.6689 916.6700 916.6700 916.6700 917.7937 917.7937 917.8207
   917.8207 917.8207 917.8486 968.7122 968.7122 968.7122 969.3712 969.3712
   969.3712 969.6905 969.9269 969.9269 969.9269 970.8487 970.8487 970.9645
   971.2504 971.2504 971.2504 971.3657 971.3657 971.3657 971.4604 971.4604
   971.4604 971.6540 971.6540 971.6540 971.8515 971.8515 973.9079 973.9079
   973.9079 974.1176 974.2157 977.6597 977.6597 978.1320 978.1320 978.1320
   978.3514 978.3514 978.3514 978.7870 978.7870 978.7870 978.9497 978.9497
   979.1165 979.1165 979.1165 979.2460 979.2460 979.2668 979.2668 979.2668
   979.3526 979.3526 979.3526 979.4316 979.4316 979.4316 979.5027 979.6321
   979.6321 979.6321 979.7495 979.7769 979.7769 979.7769 979.9698 979.9698
   979.9698 981.0633 981.0633 981.2179 981.7239 981.7239 981.7239 982.0519
   982.0519 982.5507 982.5507 982.5507 982.5998 982.5998 982.5998 982.6967
   982.6967 982.6967 982.9186 983.0008 983.0008 983.0008 983.6093 983.6093
   983.6395 983.6395 983.6395 988.1295 988.1295 988.1295 988.1802 988.1802
   988.1802 988.2406 988.2406 988.2995 988.2995 988.3874 988.3874 988.3874
   988.4002 988.4002 988.4002 990.3763 990.3763 990.3763 990.3811 990.3902
   990.3902 990.3902 990.41991014.66011014.66011014.66011015.01861015.0186
  1015.52361015.52361015.52361015.55231015.55231015.55231015.57871015.5790
  1015.57901015.57901015.60721015.60721015.60721016.15711016.15711016.1900
  1016.22551016.22551016.22551017.74871017.74871017.74871018.91851018.9185
  1019.31991021.95921021.95921021.98851021.98851021.98851022.11341022.5304
  1022.53041022.53041022.54361022.54361022.54361022.62071022.62071022.6207
  1022.63681022.63681022.63681023.05241023.05241023.11391023.11391023.1139
  1023.25241033.62891033.62891033.62891034.29261034.29261034.29261034.2928
  1034.62521046.02401046.02401046.02401046.03061046.03061046.03061046.0371
  1046.03711046.03711046.04371046.04371046.04371047.33471047.33471047.3347
  1047.33961047.33961047.36641047.36641047.38471047.38471047.38471047.3921
  1047.39211047.39211047.39641047.39641047.39641053.19961053.21011053.2101
  1053.21011053.21401053.21401080.80911080.80911080.80911081.10071081.1007
  1081.10071081.12171081.12171081.12171081.16081081.16081081.53521091.0018
  1091.00181091.00181093.32221094.25021094.25021094.25021094.27511094.2751
  1094.75711094.75711094.75711098.76531098.76531098.98811098.98811098.9881
  1101.17881102.19721102.19721102.19721103.55271103.55271103.55271103.9625
  1103.96251103.96251105.05141105.05141105.05141108.92961109.15391109.6992
  1109.69921109.69921110.06351110.06351110.09271110.09271110.09271110.6931
  1110.69311110.69311111.01181111.01181111.01181111.05001111.05001111.3637
  1111.36371111.36371111.62091111.77061111.77061111.98371111.98371111.9837
  1112.24611112.24611112.24611112.64871112.64871112.64871112.80981112.8101
  1112.81011112.81011113.23991113.23991113.23991113.40461113.40461115.5246
  1115.52461115.52461116.54301116.64701116.64701116.64701116.69771116.7102
  1116.71021116.71741116.71741116.73431116.73431116.73431116.87281116.8728
  1116.87281116.96001116.96001116.96001117.06101117.42421117.42421117.4242
  1118.22601118.44381118.44381118.56181118.56181118.56181119.31791119.3179
  1119.31791119.33181119.33181119.33181119.42881119.42881119.42881119.4350
  1119.43501119.43501119.53001119.53001119.53001119.55791119.55791119.5579
  1119.66151119.66151119.66151119.87431119.87431120.12061120.15821120.1582
  1120.18251120.18251120.18251120.18321120.18321120.18321120.23451120.2345
  1120.23451120.87731120.87731120.90841120.90841120.90841120.96411121.3254
  1121.32541121.53021121.53021121.53021121.81871121.81871121.81871121.9109
  1121.91091121.91091122.54161122.54221122.54221122.54221122.58561122.5856
  1123.05171123.05171123.05171123.19931123.19931123.19931123.27141145.5028
  1145.50281145.50281145.83181145.83181145.83181145.86531145.89051152.2358
  1152.23581152.23581152.45311152.45311152.50571152.50571152.50571152.5677
  1152.56771152.56771152.66291152.77501152.77501152.77501152.78351152.7835
  1152.78351152.78841152.78841152.85411152.85411152.85411152.95651158.5683
  1158.56831158.62401158.62401158.62401158.64431158.64431158.64431158.6737
  1158.67371158.67371158.68551158.68551158.68551158.70071158.70071174.3716
  1174.37161174.37161174.89681175.15691175.15691175.15691175.39821176.3426
  1176.34261176.35531176.35531176.35531176.65791176.65791176.65791176.8059
  1176.80591176.80591177.00961177.00961177.00961177.06261177.06261179.8787
  1179.87871179.93901179.93901179.93901180.31471180.31471180.31471180.4380
  1180.43801180.43801180.79341180.79341180.79341180.93271180.93271181.0237
  1181.31861181.31861181.31861181.62811181.62811181.62811181.88521184.3824
  1184.52811184.52811184.52811184.67301184.67301184.67301184.67321184.6732
  1184.67321184.73061184.73061184.74141184.74141184.74141184.75741184.7574
  1184.75741184.77651184.77651184.77651184.83571184.83571184.88371188.2437
  1188.24371188.24371188.60621188.91931188.91931188.93361188.93361188.9336
  1189.09431189.09431189.09431189.52021189.52021189.52021189.65901189.6590
  1189.65901189.68981189.88731189.88731189.88731189.91781189.91781190.0592
  1190.05921190.18261190.18261190.18261190.40151190.40151190.40151190.4843
  1190.51041190.51041190.51041190.89061190.89061190.89061190.99181190.9918
  1191.17471191.17471191.17471191.36591191.36591191.36591191.49961211.8456
  1211.84561211.84561212.18541212.21131212.21131222.38881222.38881222.3888
  1222.48921222.57831222.57831222.57831222.60741223.82841223.82841223.8284
  1223.83951223.83951223.83951223.85331223.85331223.87581223.87581223.8766
  1223.87661223.87661223.87721223.87721223.87721240.28691240.28691240.2869
  1240.60881240.63161240.63161241.14801241.14801241.14801241.19211241.1921
  1241.19211241.20921241.20921241.20921241.22951241.22951241.22951242.0858
  1242.08581242.19731242.19731242.19731242.27071247.21751247.21751247.2175
  1247.25301247.28071247.28071247.28071247.32281248.50381248.50381248.5038
  1248.72271248.72271248.75831255.03881255.03881255.03881255.04041255.0551
  1255.05511255.39111255.39111255.39111255.40261255.40261255.40261255.4200
  1255.42001255.42001255.43921255.43921255.43921255.75961255.76151255.7615
  1255.77081255.77081255.77081256.17191256.17191256.17191256.17741256.1774
  1256.17741256.19821256.19821256.19821256.21931256.21931256.21931263.1971
  1263.19711263.21281263.21281263.21281263.23571285.89731285.89731285.8973
  1286.13571286.13571286.13571286.23361286.24611287.09491287.09491287.0949
  1287.09691287.09691287.17691287.17691287.17691287.20021287.20021287.2002
  1287.34241287.34241287.34241287.42091287.42091292.27911292.34021292.3402
  1292.34021292.44371292.44371293.18091293.18091293.18091293.19541293.1954
  1293.19541293.24131293.24131293.24131293.28811293.28811293.28811294.2481
  1294.25861294.25861294.25981294.25981294.25981295.29781295.29781295.3504
  1295.35041295.35041295.44191295.44191295.44191295.46291295.46291295.4629
  1295.53121295.53121295.53121295.60221295.60221295.70721295.86361295.8636
  1295.86361295.98411295.98411295.98411296.06211304.41031304.41031304.4103
  1304.77861304.77861304.77861304.78631305.08701310.22321310.22321310.2232
  1310.23581310.23581310.34711310.34711310.34711310.35371310.35371310.3537
  1310.40761310.40761310.40761310.46411310.46411315.77921315.90801315.9080
  1315.90801316.10861316.10861316.10861316.27671316.93171316.93171316.9852
  1316.98521316.98521317.09781317.09781317.09781317.10601317.10601317.1060
  1317.22161317.22161317.22161317.27821317.27821320.57201320.57201320.6332
  1320.63321320.63321320.73401320.73401320.73401320.81821320.81821320.8182
  1320.91501320.93591320.93591320.95751320.95751320.95751321.07781321.0778
  1321.07781321.20561321.20561321.20561321.28611322.68761322.68761322.6876
  1322.69821322.69821322.69821322.70851322.70851322.76131322.76131322.7710
  1322.77101322.77101322.79801322.79801322.79801324.18411324.20491324.2049
  1324.20491324.21881324.21881324.21881324.22621355.56931355.56931355.5693
  1355.75691355.75691355.85131357.19301357.19301357.19301357.27571357.2757
  1357.27571357.29991357.29991357.29991357.35291357.35291357.35291358.8208
  1358.82081358.91611358.91611358.91611358.99291374.44281374.44281374.4957
  1374.49571374.49571374.51621374.51621374.51621374.55691374.55691374.5569
  1374.66331382.99791382.99791382.99791383.53931383.60071383.60071383.6007
  1384.33141384.89041384.89041384.89191384.89191384.89191385.76051385.7605
  1385.76051386.22111386.22111386.22111386.66941391.01621391.01621391.0162
  1391.06431391.06431391.22361391.22361391.22361391.58071391.58071391.5807
  1391.80001391.80001391.80001391.84561391.86981391.86981391.86981391.9318
  1391.93181391.95321391.95321391.95321391.97501391.97501391.97501391.9863
  1391.98631391.98631391.98811392.04511392.04511392.07731392.07731392.0773
  1392.15771396.25531396.57581396.57581396.57581396.88801396.88801396.8880
  1397.04011397.04011397.09541397.09541397.09541397.83911397.83911397.8391
  1397.84921397.84921397.90631397.90631397.90631397.96271397.96271397.9627

          k =-0.2500 0.2500-0.2500 (  4420 PWs)   bands (ev):

   -63.3920 -30.2066 -30.1660 -30.1660  -7.7275   6.2613   8.5831   8.5831
    16.1634  21.6238  25.7709  25.7709  29.3286  29.3286  31.1967  37.0133
    37.8449  37.8449  43.5176  46.1845  46.1845  52.9605  53.5211  53.5211
    62.1301  63.9484  63.9484  67.8723  69.0103  69.6635  69.6635  73.6057
    76.2571  76.2571  76.8176  78.4487  78.4487  80.7512  82.2146  82.2146
    83.6319  83.6319  88.2201  88.5008  88.5008  88.5086  94.8197  95.4112
    95.4112  96.8686 100.1518 100.1518 104.9367 104.9367 105.8961 106.3454
   108.2575 108.2575 110.7392 113.2634 114.4485 114.4485 115.5300 115.5300
   119.3251 124.9419 124.9419 126.9762 131.5104 131.5104 135.5632 136.8214
   136.8214 139.7988 139.7988 140.2006 142.0741 142.0741 144.3958 147.0987
   147.8315 147.8315 149.6925 149.6925 151.1826 152.5016 155.5584 157.0315
   157.0315 158.9341 159.3734 160.1618 160.1618 163.3856 165.9922 165.9922
   166.2841 166.8680 166.8680 169.2870 169.2870 170.6787 173.0695 173.0695
   173.1742 174.0222 174.0222 176.0793 176.0793 176.3427 179.0203 179.0203
   179.6821 185.1666 185.1666 185.1707 186.2661 186.2661 186.4449 186.6270
   190.4335 191.6743 191.6743 193.4891 193.4891 196.1724 196.8393 196.8393
   199.1898 199.1898 199.5050 201.0942 201.0942 201.5256 203.8210 203.8210
   204.1685 206.2026 209.7742 209.7742 211.5094 213.0729 214.1703 214.1703
   215.4900 215.4900 216.5622 218.6080 218.6080 219.6094 220.2524 220.2524
   220.3537 221.3701 227.4146 227.4146 229.4689 234.7125 234.7125 237.0295
   237.0295 237.2951 242.2632 243.2761 243.2761 245.6940 245.6940 246.4839
   246.4839 247.0170 248.7084 248.8081 248.8081 251.0721 255.5023 255.5023
   256.5627 258.8336 259.2401 259.2401 260.5912 260.5912 262.1904 262.1904
   262.3157 263.3248 263.3248 264.2204 265.0815 266.1130 266.6027 266.6027
   267.1564 267.9456 268.4459 268.4459 270.1365 270.1365 274.8181 274.8181
   275.6155 275.8343 275.8343 277.5375 279.8738 288.5043 288.5043 288.7603
   288.7603 288.8829 290.2133 290.5711 290.5711 291.4952 293.6720 293.6720
   293.6909 294.3683 294.3683 294.4567 296.3895 296.3895 296.8653 297.5280
   297.5280 298.2217 298.3420 298.3420 298.7194 301.6167 303.4760 303.4760
   303.9415 303.9415 304.0959 306.3140 306.3140 307.0792 308.8838 308.8838
   309.4623 310.8654 312.3100 312.3100 313.9732 314.0114 314.5358 314.8160
   314.8160 315.2837 315.2837 316.9203 316.9203 317.8980 317.8980 321.4473
   321.4609 321.4609 321.6222 324.4427 324.4427 325.9527 328.3668 328.7668
   328.7668 329.2134 329.2134 329.2274 330.9755 330.9755 331.0342 333.4739
   333.4739 335.1652 337.2682 337.2682 338.6986 338.8905 342.6893 342.6893
   343.0520 343.0520 343.5103 346.0711 346.1128 346.1128 346.3064 347.2106
   347.2106 348.2190 348.2190 350.0660 354.3117 354.5134 354.5134 354.7959
   356.1230 356.1230 357.9590 359.4263 359.4263 361.4749 361.4749 361.5050
   363.1987 364.6887 365.4389 365.4389 369.9371 369.9371 371.5615 372.2885
   372.2885 372.9017 376.5397 376.5397 378.9171 378.9171 379.4509 379.6952
   379.6952 380.6767 383.8880 383.8880 384.0648 385.9264 385.9264 386.3065
   386.6928 388.0084 389.6054 389.6054 393.8083 393.8083 394.2765 394.6605
   394.6605 397.0154 397.0154 397.1412 397.8501 397.8501 398.2636 398.7291
   399.1335 399.1335 399.4680 401.9987 401.9987 402.0793 402.3659 410.1579
   410.1579 410.7317 411.8535 411.8535 412.9776 413.0316 413.0316 414.2174
   414.2568 414.2568 414.6017 414.6017 419.0037 419.0037 419.1292 420.1361
   420.1361 421.6246 421.7404 423.1420 423.1420 425.4090 425.8799 425.8799
   426.1863 426.1863 426.3307 427.8449 431.1670 432.7078 432.7078 434.7180
   434.7180 435.4184 436.7392 436.7392 437.0115 437.4783 437.7158 437.7158
   440.4822 440.8136 440.8136 441.7268 441.7268 441.8903 443.1648 443.1648
   445.9675 445.9675 446.0499 446.1925 447.3520 447.3520 449.8751 449.8751
   449.9391 451.2731 453.3651 456.0728 456.0728 456.0903 457.1811 457.1811
   457.3056 457.3194 457.3899 457.3899 458.9755 458.9755 460.6457 460.6457
   462.1275 462.2096 462.2096 462.7187 462.8779 464.1531 464.1531 464.8789
   466.0320 466.0320 467.3136 467.3136 467.9765 469.4945 469.7773 469.7773
   470.0095 471.0081 471.0081 472.3360 472.3855 472.3855 472.8667 472.8667
   472.9247 474.9463 475.0317 475.0317 476.2323 476.2323 476.2608 477.3072
   477.3072 477.3558 477.6379 479.4263 480.2603 480.2603 482.5075 482.5075
   483.1060 483.1060 483.9223 483.9321 485.9996 485.9996 487.7588 489.1681
   489.1801 489.1801 489.4246 489.4396 489.4396 490.6194 490.6194 490.7219
   491.1579 491.1579 491.2166 493.1566 493.1566 499.4809 499.8455 499.8455
   504.0619 504.4816 504.4816 504.7223 505.6392 505.6392 506.4071 507.5791
   509.6119 511.1175 511.1175 511.2777 511.2777 511.3042 511.3042 511.3225
   512.3882 514.7899 514.7899 515.2462 515.8522 518.5049 518.5049 521.4098
   521.4098 521.6272 521.6272 521.9011 522.6765 522.6765 522.9854 525.9167
   526.2601 526.2601 527.9217 527.9217 528.2157 528.2157 529.4685 530.2673
   531.1024 531.9703 531.9703 532.4021 532.4021 533.9636 534.7319 534.7319
   535.6580 535.8723 535.8723 536.9887 536.9887 537.1378 539.0626 539.0626
   539.2326 542.1126 544.1372 544.1372 544.6533 546.0086 546.5029 546.5029
   550.2360 550.8174 550.8174 551.1589 551.1911 551.8886 551.8886 551.9684
   553.3587 553.3587 553.7463 553.7960 553.7960 558.0059 558.0059 559.1094
   559.1094 560.0657 560.1434 560.1434 561.3958 561.3958 561.5423 564.9988
   566.5587 566.5587 567.5420 567.5420 567.5912 568.5650 570.3388 570.3388
   571.7934 573.9055 575.4370 575.4370 576.4044 576.4077 576.4077 576.8360
   578.0101 578.0101 580.6088 580.6088 581.3680 581.5177 584.7285 584.7285
   584.7454 588.8930 588.8930 589.1151 592.4300 592.4300 593.1431 593.1804
   593.1804 593.3491 593.5037 593.5037 593.8816 593.8816 595.9229 595.9229
   596.2600 596.4641 597.2675 597.6580 597.6580 598.6595 600.3009 600.6434
   600.6434 601.8837 601.8837 602.3985 603.8186 603.8186 604.7675 604.9008
   604.9008 605.8118 605.8118 606.0179 606.4127 606.8949 606.8949 611.9074
   612.4733 612.4733 613.1677 613.3965 613.3965 615.0214 616.3003 616.3003
   617.7947 620.2098 620.2098 620.5156 620.5346 622.2379 622.2379 622.3270
   622.8272 622.8272 625.0424 625.0424 625.4617 626.2827 627.5624 627.5624
   628.8722 629.5482 631.6242 631.6242 633.2627 633.2627 633.4368 633.5492
   634.4284 634.4284 635.0293 635.0293 635.4496 635.7022 635.7022 635.7413
   636.1490 636.1490 636.8124 637.5219 637.5219 637.7288 638.3176 638.3176
   639.2541 639.2541 641.9300 643.5288 643.5288 643.7673 643.7673 644.5647
   644.6003 644.6014 644.6014 645.6341 648.0462 649.5255 649.5255 650.0059
   650.0059 650.5415 650.5415 650.8030 650.9588 650.9588 651.0267 652.5780
   652.5780 652.6573 652.8641 654.8470 654.8470 655.7649 655.9355 655.9355
   656.1335 656.5568 656.5568 656.9362 658.1941 658.1941 658.6847 658.6847
   659.4634 659.5960 659.5960 660.0246 660.8548 661.7356 661.7356 662.3394
   664.7468 664.7468 665.0168 665.9380 666.8822 666.8822 668.1187 668.1187
   668.2414 668.2414 668.5776 669.2047 669.5608 669.5608 669.8532 670.2094
   670.2094 670.2660 671.7065 677.9463 677.9463 678.0594 680.6586 680.6586
   681.5919 681.5919 682.5080 682.5876 682.5876 682.6259 683.0739 683.0739
   683.6178 686.1090 686.1090 686.4252 687.4051 687.4051 688.1844 688.1844
   688.2235 688.6037 689.9864 690.4781 690.4781 691.9879 691.9879 693.0085
   693.3236 693.3236 693.3578 695.5751 695.5751 695.8167 695.8167 696.1318
   696.6875 698.9406 699.1611 699.1611 699.9937 701.6039 701.6039 702.0099
   703.4142 703.4406 703.4406 703.7284 703.7444 703.7444 707.2875 707.3279
   707.3279 707.4520 707.4668 707.4668 708.3902 708.3902 710.1265 710.8618
   710.8618 711.0016 714.0573 714.0573 715.3233 715.3233 715.6366 717.3049
   717.3049 717.9820 718.4438 723.4312 723.4312 724.3112 724.8793 724.8793
   724.8882 724.9658 725.1383 725.1383 725.4123 725.4123 725.6060 726.6130
   726.6130 726.8945 726.8945 727.3859 727.6305 727.6583 727.6583 727.7324
   727.7324 727.7971 728.1765 732.8879 732.8879 732.9013 735.8612 735.8612
   736.8195 736.8195 737.1784 737.4005 737.6539 737.6539 737.7207 739.1944
   739.1944 739.7864 740.1187 740.1187 740.1622 741.7987 741.7987 741.9473
   743.8535 744.2775 744.2775 744.3440 745.9213 745.9213 746.1911 746.1911
   746.3404 751.7856 751.7856 751.8339 752.8973 754.0994 754.0994 754.8559
   754.8559 755.1444 755.6542 756.2438 756.2460 756.2460 756.7788 756.7788
   756.8001 758.2998 758.2998 758.3531 758.8682 764.4050 764.4050 766.2824
   766.7451 766.7451 767.0471 767.0471 767.0516 768.8822 768.8822 770.0065
   771.1347 771.1347 771.6910 771.6910 773.7044 775.3242 775.3242 776.0373
   776.0373 776.4628 776.7272 777.1405 777.1405 778.0583 779.8042 779.8042
   780.1548 781.4465 781.4999 781.4999 781.8054 781.8608 781.8608 783.3699
   783.3699 785.6772 787.1236 787.1236 787.4305 790.4303 790.4303 791.5402
   792.1174 792.1174 792.2057 794.0757 794.0757 795.0633 798.0391 798.0391
   799.6855 800.9823 800.9823 801.0707 803.4981 803.4981 803.9468 804.6242
   804.6242 804.6535 805.5654 805.8417 805.8417 806.1666 810.9701 812.4659
   812.4659 812.8600 812.8600 813.0676 813.3459 813.3459 813.7210 813.7210
   813.8803 814.1790 814.1790 814.1826 814.7123 816.8950 816.8950 817.1541
   818.2363 818.2363 818.4407 818.4407 819.0260 823.6392 823.6392 826.0985
   826.1135 826.1135 826.3754 826.3754 826.6591 827.3527 827.6955 828.3441
   828.3441 828.6422 828.7223 828.7223 828.8985 828.8985 829.1379 829.9515
   829.9515 830.6114 832.6781 832.7898 832.7898 832.8719 833.1565 833.1565
   833.2611 833.3724 833.3724 834.2633 834.2633 835.4337 835.4650 835.4650
   835.7964 835.7964 835.9718 836.2595 838.8353 840.3599 840.3599 841.3500
   841.4427 841.7604 841.7604 844.0663 844.1415 844.1415 845.6866 845.6866
   846.3920 846.9151 846.9151 847.3483 847.3483 847.3909 847.8498 848.2847
   848.2847 848.4256 851.0227 851.0227 851.2479 851.3503 851.3559 851.3559
   853.2734 853.2734 853.5151 854.8549 854.8549 855.2749 855.3271 855.3271
   855.6370 855.6370 855.6754 855.6824 856.5577 856.5577 856.6124 858.9461
   858.9461 858.9600 862.8531 862.8531 862.8975 865.9275 865.9275 866.3577
   866.3577 866.3753 866.5186 866.6584 866.6584 866.6616 872.6892 872.6892
   872.7140 875.4637 875.5867 875.5867 875.6981 875.7050 875.7050 877.7809
   877.7809 878.4405 878.8507 878.8507 879.0799 879.4825 879.4825 879.5259
   881.2498 881.2788 881.2788 881.8279 881.8279 881.9616 882.2814 882.3329
   882.3329 882.8275 882.8275 882.9115 883.5207 883.5207 883.5583 883.8510
   883.8510 883.9621 884.8987 884.8987 884.9108 887.7418 888.3696 888.3696
   890.4119 890.4119 890.5934 892.4610 892.4610 892.5255 895.1561 895.1561
   895.4073 896.3367 896.3367 896.3713 896.4267 897.6158 898.4972 898.4972
   898.8696 898.8696 898.8887 899.4031 899.4031 899.4147 900.1728 900.3539
   900.3539 900.5160 901.0088 901.0088 901.1051 901.1194 901.1194 901.2357
   903.4528 903.4528 905.5185 905.5185 907.1862 907.5894 907.5894 908.1673
   908.1673 908.5633 908.7954 910.6861 910.6861 910.9783 912.3491 912.3491
   912.4855 912.7750 912.7750 914.9849 915.5612 915.5612 916.4968 916.8435
   916.8435 916.9427 916.9564 916.9564 918.9201 918.9201 918.9663 921.5356
   921.5931 921.5931 921.8606 922.0249 922.0249 922.3928 922.3928 922.5334
   923.7194 923.7194 924.0022 928.0759 928.0759 928.4036 928.9340 928.9914
   928.9914 929.4418 929.4418 929.5277 931.5378 931.5378 931.9937 933.5678
   933.5678 933.5883 933.6646 933.6646 933.6738 936.3373 936.7889 936.7889
   937.1276 937.1276 937.5580 938.5960 938.5960 938.8000 941.4749 941.4749
   941.6914 944.3300 944.3300 944.4552 945.4341 945.4341 945.4471 946.9878
   947.7223 947.7223 947.8935 947.9811 947.9811 948.0299 948.6042 948.6042
   949.3506 949.3506 949.3695 952.6112 952.7715 952.7715 954.7132 955.0543
   955.0543 955.0967 955.0967 955.5737 955.8990 955.8990 955.9626 956.0385
   956.6561 956.6561 956.9143 959.4144 959.6065 959.6065 959.9484 959.9484
   960.3797 960.7883 960.8054 960.8054 960.9742 960.9742 960.9941 961.1379
   961.1379 961.1384 961.1994 961.4261 961.4261 967.4987 967.4987 967.7896
   967.7896 968.3422 968.8306 968.8446 968.8446 968.9675 968.9675 969.0041
   971.9498 972.0226 972.0226 973.4496 973.4496 973.6577 974.3040 975.0460
   975.0460 976.1591 976.1591 976.5828 976.6550 976.6550 976.6858 977.3119
   977.3119 977.7254 977.7908 977.7908 977.8075 981.0128 981.0128 981.0361
   981.8864 982.8245 982.8245 985.4220 985.4220 985.4431 987.1214 987.1214
   987.4888 987.4888 987.4958 987.4978 987.6628 987.6628 988.0049 992.5438
   996.9320 996.9320 996.9759 998.3215 998.3215 998.36401000.54781000.5478
  1000.59641000.67301000.67301000.70531003.27921003.27921003.49141005.0621
  1005.06211005.32261005.52561005.52561005.63561006.94061006.94061007.0519
  1007.05191007.06251007.29081008.66221008.66221008.96631010.67281011.0507
  1011.05071011.50511011.50851011.50851012.10971012.10971012.29321014.1618
  1014.21231014.21231021.41081021.41081021.55041023.68261023.69901023.6990
  1024.51681025.17721025.17721025.22881026.03211026.03211026.15221027.0442
  1027.04421027.56581027.56581027.58811032.33051032.33051032.34371032.4973
  1032.49731032.92181034.68981034.68981034.81971039.98341039.98341040.3697
  1041.34311041.34311041.42741041.42741041.44121041.56201041.91021042.1618
  1043.06711043.06711043.19831043.93351043.93351044.14961044.14961044.2235
  1045.71521045.71521046.71561046.71561047.61781048.98621048.98621049.2299
  1050.73341050.91481050.91481052.06651053.42161053.42161053.88471054.1268
  1054.12681054.21901054.23501054.23501054.29461054.92301054.92301055.0514
  1059.17341059.17341059.48561059.48561059.81701060.08871060.14961060.1496
  1061.09901061.09901061.11191061.73811061.73811061.75371062.41151065.2863
  1065.28631065.53751066.63251066.63251068.88291069.04151069.04151069.2905
  1070.28121070.28121070.30131072.33171072.33171072.51881072.83541072.8523
  1072.85231072.95071072.95071072.96321074.24281074.61121074.61121074.7658
  1074.76581075.30571075.30571075.58571078.21521078.21521078.57961078.6951
  1078.69511078.69761082.57531082.57531082.69981082.69981082.70211082.7818
  1084.72651084.74551084.74551085.13651085.13651085.17611085.34221085.4068
  1085.40681085.87461085.95001085.95001086.25801086.25801086.37101089.5777
  1089.57771089.59901092.33081092.36541092.36541092.39141092.39141092.5272
  1092.76171092.76171093.45771093.45771093.47171093.51621094.69641094.7050
  1094.70501095.96141097.57261097.57261104.25981104.25981105.08981105.5372
  1105.54981105.54981107.94971107.94971108.01391109.97631110.13271110.1327
  1111.02901111.02901111.06451111.43661111.43661111.82251112.03031112.0303
  1112.11261112.66501112.66501112.81751113.84531113.87001113.87001113.8747
  1114.42981114.42981115.38571115.38571115.61851115.61851115.69901115.7367
  1115.73671115.74891115.88301116.79221117.16751117.16751117.16831118.4510
  1118.45101118.52601122.50271122.50271122.51161125.98071125.98071125.9952
  1129.05971129.05971129.14371129.15161129.15161129.15851129.70991129.7099
  1129.72111129.94911129.94911129.97711130.15191130.15191130.50161130.5016
  1130.70391130.71981130.71981130.72811131.36701131.42911131.42911132.4438
  1132.44381132.48401135.25721135.25721135.26661135.39581135.39771135.3977
  1135.71161135.71161135.79631137.81781137.81781137.86561138.00281138.0028
  1138.00791138.76311140.10691140.10691140.94451140.94451140.95191142.8896
  1142.88961142.94841149.32791149.48571149.48571151.34711151.36261151.3626
  1151.57801151.57801151.72581154.62191154.79251154.79251155.55871155.5587
  1155.63201159.07271159.76791159.76791159.85731160.09171160.09171160.1620
  1160.57061160.61101160.61101161.03271161.38121161.38121161.74131162.4376
  1162.43761163.15261163.15261163.27701164.05461164.05461164.07671164.9869
  1164.98691166.36831166.36831166.39061166.50621166.50621166.54101167.3447
  1167.79551169.14301169.14301170.42741170.42741170.48751171.21851171.2185
  1171.31011171.44441171.44441171.46411172.62001172.79781172.79781173.7367
  1173.74511173.74511173.88841173.88841173.99991178.19861178.19861178.2552
  1178.90251178.90251179.10101179.23261179.23471179.23471179.57711179.8604
  1179.86041182.08731182.14001182.14001182.50291182.51111182.51111182.9159
  1182.92241182.92241183.77831183.77831183.80821185.47991185.47991185.6215
  1186.46581186.46581186.47681186.88941187.48951187.48951188.81801188.8193
  1188.81931189.77611189.81851189.81851189.91541189.91541189.94951191.5115
  1191.51151191.94381193.77891194.14841194.21501194.21501194.39791194.3979
  1194.41911195.19711195.19711195.81131197.63361197.63361199.25761199.2576
  1199.33061200.25291200.25291200.43861200.44121200.44121200.92661200.9392
  1200.93921201.33111202.53701203.72941203.72941203.78391203.85961203.8596
  1204.24221204.24221204.30351204.32071204.36721204.36721208.02621208.0262
  1208.04651208.73071208.73071208.73641211.25381211.25381211.27971211.5693
  1211.56931212.02281215.80151215.80151215.93971216.16881216.16881216.1940
  1216.95561216.95561217.00921217.02031217.02741217.02741217.66791218.8834
  1218.88341218.93241218.97981218.97981218.98381222.29771222.35971222.3597
  1222.62331222.62331222.64411224.95161224.95161226.70231226.72261226.7226
  1228.82001228.82001228.83361229.12311229.12931229.12931232.28371232.2837
  1232.29001232.59161232.63731232.63731232.93261232.93711232.93711234.3769
  1234.40361234.40361235.36051235.47591236.07111236.07111239.68331239.6833
  1239.77691240.56321240.63811240.63811241.59221241.59221241.64021241.6841
  1241.69081241.69081241.97291241.97291242.10591242.58071242.58071242.5829
  1243.72131243.72131243.74441243.94161243.94481243.94481245.64301245.6430
  1251.10641251.17431251.17431252.11141252.11141252.17671253.74741254.2696
  1254.26961259.52531259.57601259.57601259.58111259.69311259.69311259.8248
  1259.87051259.94201259.94201259.99911259.99911260.48271260.48271260.5599
  1262.06041262.06041262.07821264.01211264.04441264.04441266.68241266.6824
  1266.83381266.85961266.85961267.09281267.87591267.88361267.88361267.8904
  1268.17561268.17561268.78441268.78611268.78611269.16461269.16461269.6458
  1275.37511275.37511275.39431276.34941276.35971276.35971278.66711278.6671
  1278.70661281.02541281.02541281.05841281.24521281.24521281.25941283.8399
  1283.83991283.85621283.95641283.97611283.97611288.03731288.03731288.0386
  1288.92191288.93881288.93881289.07841289.23001289.23001289.32731289.3984
  1289.39841290.12241290.12641290.12641291.24551291.24551291.52741291.9617
  1297.10901297.10901297.12481297.15561297.16571297.16571297.18351297.1835
  1297.18731298.34871298.34871298.49401301.64421301.64421301.73141303.0800
  1303.08001303.11731303.51191303.51191303.52621305.23501305.23501309.3963
  1309.53861309.66641309.66641309.75101309.75101309.77141310.09361310.0983
  1310.09831310.15681310.15681310.24011310.36381310.36381310.36851310.8646
  1310.86461313.95341313.95411313.95411316.73051316.73051317.04901317.7918
  1317.79181317.81601321.20711321.43511321.43921321.43921321.56221321.5622
  1323.68921323.68921323.75991323.75991323.77011323.85241325.03461325.0346
  1325.03991325.80481325.83401325.83401326.23781326.23781326.30291326.3222
  1326.38231326.38231326.96511326.96511326.99121327.33881327.33881327.4259
  1328.51531328.51531328.53021329.46251329.46251329.48781334.82721334.8325
  1334.83251335.93401335.93481335.93481336.29741336.29741336.29771336.3301
  1336.33011336.34001338.63931342.46721342.63571342.63571344.36651344.3665
  1344.41881344.92921344.99771344.99771346.27021346.27021346.32051346.6921
  1346.69221346.69221346.93751346.93751346.98621348.28651348.28651348.2919
  1348.75631348.75631348.98251349.16111349.16111349.23571354.96141354.9649
  1354.96491354.98781354.98781355.00091357.57151357.57151357.58371357.6151
  1357.61511357.62761359.05841359.09661359.09661360.27521362.10271362.1027
  1362.23391362.23391362.24861363.14281363.14281363.15211365.34521365.3452
  1365.64241365.83651365.83651367.05511367.05511367.08551367.25801367.4779
  1367.47791367.52801369.46331369.82101369.82101369.83431370.21281370.2128
  1370.43581370.96851370.99411370.99411371.40131371.40131373.38151373.4384
  1373.43841373.77121374.07271374.07271374.12991374.12991374.16871374.2593
  1374.89561374.90961374.90961374.93671374.93671375.14631375.14631375.1654
  1376.05741376.05741376.06141376.24681376.24731376.24731382.52851382.5285
  1382.53551382.53551382.64701382.64701382.64821382.78671382.98771385.1144
  1385.12401385.12401386.57311386.57311386.58361391.87681391.87681391.9472
  1392.68451392.76801392.76801392.77921393.83131393.83351393.83351394.6702
  1394.67021394.67831394.67831394.67991394.69161395.02671395.02671400.1763

          k = 0.5000-0.5000 0.5000 (  4446 PWs)   bands (ev):

   -63.3874 -30.2512 -30.1706 -30.1706  -6.9959   4.2781   8.2683   8.2683
    16.9388  21.6855  25.4392  25.4392  30.1053  31.6932  31.6932  37.7784
    40.0921  40.0921  42.1025  42.1025  51.8646  53.5312  56.1494  56.1494
    59.5192  60.1139  60.1139  62.5772  67.2227  67.2227  68.8428  70.2780
    70.2780  71.9493  73.4869  76.4247  77.5956  77.5956  81.8408  81.8408
    88.0152  88.5105  90.3040  90.3040  90.7545  90.7545  92.1552 100.9315
   100.9315 101.8364 101.8364 102.9965 108.0070 108.4177 110.7955 110.7955
   114.0632 114.0632 117.6370 117.6370 118.1928 118.1928 119.1316 121.6737
   121.6737 121.8102 121.8102 123.0238 123.7624 123.9706 128.8846 128.8846
   130.6155 132.8442 137.9165 137.9165 140.6049 140.6049 140.6126 140.6126
   142.7932 144.3983 145.7792 147.8760 147.8760 152.1019 152.1019 152.7839
   155.7241 155.9867 158.2840 159.1283 159.1283 159.4424 159.4424 160.7312
   166.6109 166.6109 167.3699 167.3699 168.1606 172.5843 174.0958 174.0958
   174.1800 174.1800 174.3447 174.4444 181.4547 182.5055 182.5055 182.8523
   182.8523 183.6426 187.2545 187.2545 187.6919 187.6919 189.6439 189.8164
   190.3855 192.1125 196.9577 196.9577 199.0603 199.0603 201.3026 201.3026
   202.8302 202.8302 203.1031 204.6225 204.7816 206.2517 206.2517 206.7028
   206.7028 206.7131 207.7117 212.6236 214.0490 214.0490 214.0527 214.0527
   216.1585 220.0298 223.3713 223.3713 223.4749 223.4749 224.9382 224.9382
   225.2657 225.2657 226.2067 226.2106 230.1579 230.1579 232.3745 232.3745
   235.7674 236.9677 238.1029 238.1029 239.2858 239.2858 241.8810 241.8810
   242.3133 242.3483 242.5543 242.5543 243.4392 251.3234 251.4887 251.4887
   252.1594 252.1594 255.1354 256.2271 263.0241 263.0241 263.3682 263.9010
   264.7144 265.1011 265.1011 266.8038 266.8038 267.6241 268.1502 269.8145
   269.8145 269.8976 269.8976 270.9227 270.9227 271.3091 271.6214 274.8081
   274.8081 274.8707 274.8707 275.0852 275.2422 275.9468 275.9468 275.9901
   275.9901 280.4097 286.6808 286.6808 287.3143 287.3143 288.4656 288.4907
   289.5210 290.9554 292.2389 292.2389 292.2639 292.2639 293.2356 293.2356
   293.4070 293.4070 293.7448 293.8762 297.3868 297.3868 299.3199 299.3199
   302.0933 303.4110 304.6990 305.3226 307.9560 307.9560 308.1336 308.1336
   308.2310 308.6001 314.8175 314.8175 316.1791 316.1791 316.5116 318.1837
   322.7590 322.7590 323.6287 323.9300 323.9300 325.0899 325.0899 325.1091
   325.1091 325.3845 325.4209 326.1504 327.2614 327.2614 327.3601 327.3601
   327.5358 327.8804 330.6277 333.3394 334.4607 334.4607 334.9743 334.9743
   341.6575 341.7554 341.7554 344.2523 344.2523 345.8041 348.3055 348.3055
   348.8769 348.8769 352.5421 356.4464 357.0147 357.0147 357.5384 357.5384
   359.4064 359.4821 359.4821 359.5436 359.5436 359.7087 359.7420 359.9194
   359.9194 359.9500 359.9500 360.7987 360.8437 364.0058 368.0715 368.0715
   368.9416 369.0671 369.4770 369.4770 373.2595 374.1288 374.2991 374.4481
   374.4481 374.5230 374.5230 374.7929 374.7929 374.9006 374.9006 376.3146
   376.8055 376.8055 376.8806 376.9191 376.9191 377.0530 379.8142 379.8142
   379.8172 379.8172 380.4852 381.5469 381.5512 387.0175 393.8525 393.8525
   394.4240 394.4240 394.7260 394.7260 394.8039 394.8039 394.9054 395.1782
   401.0978 401.0978 401.4983 402.1283 402.1283 402.4850 403.8672 403.8672
   404.4761 404.4761 408.1271 408.6855 408.6855 410.1444 410.1444 410.4427
   410.4653 410.8656 411.4971 411.4971 411.5464 411.5464 412.1874 412.4326
   416.0123 416.0123 416.0915 416.0915 419.7324 419.7324 419.7778 422.4576
   423.5896 423.5896 424.0679 426.2849 426.8051 427.2026 427.2026 427.2508
   427.2508 428.2076 428.2076 428.2507 428.2507 428.3586 428.4329 431.5671
   441.0260 441.0260 441.2717 441.8778 441.8778 441.8832 442.4555 442.4555
   443.7409 443.7409 444.7487 444.7487 444.7609 444.8835 445.0849 445.0849
   445.2960 445.7019 448.3978 450.8729 454.4654 454.4654 456.2506 456.2506
   456.8302 457.3936 458.5348 458.7316 458.7316 458.7640 458.8779 458.8779
   459.4569 459.5595 459.8497 459.8497 460.0497 460.0497 460.8552 460.8552
   462.4036 462.4036 464.7803 464.7803 465.0657 465.0657 468.5071 473.0883
   473.6201 473.6201 473.9159 473.9159 473.9959 475.1616 475.9877 475.9877
   476.6941 476.6941 477.0247 480.8526 480.8860 480.8860 480.9714 480.9714
   481.0372 481.9297 482.6418 482.6668 482.6668 482.7509 482.7509 482.8669
   489.0219 490.7057 490.7057 491.1115 491.1115 491.8606 495.4908 495.4908
   495.6387 495.6387 496.6260 496.6397 502.2559 502.6613 505.0048 505.0048
   505.4760 505.4760 507.1122 507.1122 509.0837 509.9468 509.9468 510.3192
   511.8102 511.8102 511.9526 511.9778 511.9778 512.1583 512.5142 513.7737
   514.3687 514.3687 514.4090 514.4090 514.5403 514.5413 516.8713 516.8713
   517.5788 519.8353 519.8353 519.9844 520.4112 520.4112 520.4343 520.4343
   523.0919 523.0919 523.2228 523.2228 524.3474 524.3902 526.7880 527.9249
   529.2249 529.2611 529.8396 530.1885 530.1885 530.2825 530.2825 530.5577
   530.5577 530.6907 530.6907 530.7700 530.7700 530.7800 530.7800 531.4391
   531.4418 532.4786 532.4786 532.5253 532.5253 532.8512 532.9132 535.4937
   544.7569 544.7569 544.9723 544.9723 545.2321 545.2355 546.8296 546.8296
   547.3577 547.3577 547.5648 547.5648 547.6276 547.6276 547.6470 547.6482
   547.9256 549.3291 550.2927 550.2927 550.3364 550.3364 550.4435 550.4724
   560.6886 560.6886 561.1262 561.7923 561.7923 562.7589 563.0621 563.0621
   563.0849 563.0849 563.5143 564.0303 569.0258 569.6287 574.7808 574.7808
   574.8392 575.5296 575.5296 576.4455 576.4455 577.3385 577.7352 577.7352
   578.3581 578.3581 578.7414 578.7414 578.8730 578.8730 578.9694 578.9838
   578.9838 578.9909 581.0635 581.6706 584.2086 584.2086 584.2219 584.2219
   586.3711 586.3714 590.4472 590.4472 591.3887 593.1404 593.5074 593.5074
   596.1178 596.1178 596.1265 596.1265 596.5027 596.6684 597.1039 597.1039
   598.6773 598.6773 601.9007 601.9007 601.9071 601.9071 602.2563 602.2581
   602.9596 605.6589 605.6797 606.1986 606.1986 606.6774 606.6774 607.5616
   607.9834 609.5036 609.5036 611.0793 611.2881 611.2881 611.8196 615.8999
   618.1272 618.1272 618.1324 618.1324 625.7228 625.7228 625.7389 625.7702
   625.7702 626.6557 626.6557 626.8227 628.2944 628.2944 628.8057 628.8499
   628.9080 628.9080 629.8638 629.8638 630.2514 630.4043 630.4043 630.4202
   630.5667 630.5667 632.3936 632.5322 632.8739 632.9124 632.9124 632.9581
   632.9581 633.0282 633.1052 633.1052 633.4434 633.4434 633.5622 633.6349
   633.7628 633.7628 633.8042 634.0215 634.0215 634.5736 635.1942 635.1942
   635.2058 635.2058 635.4884 635.5332 643.5746 643.5746 645.1692 645.1692
   646.3300 646.4638 646.4638 646.5814 646.8012 646.8767 646.8767 646.9786
   650.9973 650.9973 651.1341 651.1341 651.2389 651.3098 657.5640 658.0506
   658.0506 658.6632 658.6632 659.6530 664.2392 664.2392 664.5859 664.5859
   664.6233 665.3884 665.6077 665.6784 665.6784 665.7414 665.7414 666.0370
   666.5154 666.5154 666.8436 666.8436 667.1345 667.1345 667.1757 667.2303
   667.6423 667.6423 667.9981 667.9981 668.0813 668.0896 668.0995 668.0995
   668.1605 669.0453 679.4647 679.8219 679.8219 680.2333 680.7477 680.7477
   681.1578 681.3786 682.5043 682.5043 682.5395 682.5395 683.8069 683.8069
   684.0804 684.0804 684.2656 684.2656 684.3011 684.3011 684.3271 684.3327
   684.6415 685.1374 687.7709 689.9664 695.3295 695.3295 695.9187 695.9187
   696.7026 697.3889 702.4521 702.4521 702.5461 702.5461 703.7380 703.7493
   703.7493 703.8514 703.8514 703.8812 706.7177 706.7177 709.3540 709.3540
   710.0657 710.2694 710.9268 710.9268 710.9517 710.9517 711.5392 711.7904
   714.8674 714.9222 714.9222 714.9299 715.0003 715.0352 715.0352 715.0826
   715.0826 715.1105 715.1249 715.1249 717.5976 717.5976 717.6345 717.6345
   717.8650 718.2043 720.3692 720.3692 720.3754 720.4605 720.4605 720.4854
   722.1033 722.1033 723.1095 723.1095 723.8665 725.1089 733.1464 733.1464
   733.3437 733.3437 733.4166 733.5483 734.7230 734.7230 734.9811 735.1594
   735.1594 735.5035 735.5253 735.5253 735.5588 735.5588 736.0380 736.0435
   738.8962 738.8987 738.8987 738.9258 738.9258 738.9306 747.7445 747.7445
   748.1335 748.4501 749.4847 749.4847 750.0317 750.0317 750.1541 750.1541
   750.3204 750.7283 750.7751 750.7751 750.8202 750.8202 751.0651 751.1321
   753.7523 753.7523 754.2430 754.2430 754.8147 755.7682 755.7702 755.8035
   755.8743 755.8743 756.1903 756.1903 764.6024 764.6024 765.8528 766.1871
   766.1871 766.2296 766.7756 767.3911 767.3911 767.3953 767.4872 767.4872
   767.4880 767.5269 767.9184 768.0729 768.0729 768.0737 768.0737 768.7184
   778.4690 778.4690 779.2339 779.2339 779.4891 779.6803 781.0573 781.0573
   781.2985 781.3590 781.3726 781.3726 781.9363 781.9363 782.1795 782.1795
   782.6993 782.6993 782.8495 782.8495 783.2334 783.2711 783.3726 783.3726
   783.4093 783.4250 783.4250 783.4497 783.5158 783.5235 786.8788 786.9247
   787.3712 787.3712 787.4088 787.4088 788.9049 788.9049 788.9108 788.9331
   788.9331 788.9733 789.3596 789.3596 789.4196 789.4196 789.5311 789.5874
   803.4771 803.5184 803.5184 803.7823 803.7823 803.8238 804.6309 804.6309
   804.6468 804.6763 804.6763 804.6836 804.8242 804.8873 804.8873 804.8873
   804.8873 804.9073 809.8118 809.8118 811.0139 811.0139 812.1972 813.1560
   817.0744 817.0744 817.6533 817.6533 818.1117 818.3284 819.2057 819.2057
   819.9519 819.9550 820.0310 820.0310 820.1602 820.1602 820.2672 820.2952
   820.2952 820.3309 820.4663 820.4683 820.4683 820.5990 820.5990 820.6366
   825.3353 825.4480 828.3680 828.5709 828.5709 828.8819 828.8819 829.7355
   831.8557 831.8557 831.9458 831.9458 831.9763 831.9763 832.1492 832.4622
   833.5419 833.6470 833.6470 834.4741 834.4741 834.4839 834.5268 834.5268
   838.0882 838.0882 838.1054 838.1054 838.1923 838.1923 838.1984 838.2046
   838.2117 838.2117 838.2193 838.2983 839.8225 839.8225 839.8349 839.8349
   840.6260 840.6260 841.2849 841.2849 841.2873 841.2873 843.0269 843.0270
   853.1784 853.1784 854.0564 854.1986 854.1986 854.5631 854.6791 854.6791
   854.8639 854.8639 854.9481 854.9838 864.7610 864.7610 865.0567 866.2660
   866.3596 866.3596 866.4976 866.4976 867.2170 867.2170 867.3620 867.3725
   867.7235 867.7235 868.0531 868.0531 868.2075 868.4801 868.4801 868.6212
   868.6212 868.9914 869.0087 869.0612 869.0843 869.1424 869.3469 869.3469
   869.4312 869.4312 870.6645 870.6645 870.9945 870.9945 870.9961 871.1413
   878.3050 878.7100 884.7910 884.7910 885.5622 885.7300 885.7300 885.7896
   886.7932 886.8052 886.8052 886.8150 886.8150 886.8851 886.8851 886.9180
   886.9499 886.9499 886.9938 887.3433 887.9129 887.9315 887.9315 888.1095
   888.1095 888.1961 888.7228 888.7228 888.7361 888.7361 888.7695 888.7957
   889.4606 889.4606 889.8097 889.8097 889.9120 889.9996 890.5647 890.5647
   890.5835 890.5835 890.5901 890.5901 891.4031 891.4031 891.4092 891.4092
   892.7153 892.7153 892.7225 892.7225 892.8485 892.8529 899.5663 899.5663
   900.1367 900.2227 900.2227 900.3573 907.8263 907.8400 907.8400 907.8528
   907.8528 907.8818 920.8804 920.8804 921.3074 921.3606 921.3606 921.3782
   921.4163 921.4163 921.7214 921.7214 921.7468 921.7468 921.7530 921.7680
   922.5856 922.5856 922.6190 922.7524 922.7524 922.7560 922.8399 922.8399
   922.8418 922.9475 924.9840 924.9840 925.2570 925.6543 925.6543 925.7573
   934.2163 934.2163 935.0374 935.0374 935.2841 935.3993 935.8955 935.8955
   936.0569 936.0569 936.1380 936.1547 938.8673 939.0115 939.0115 939.0348
   939.1617 939.1617 939.9170 939.9170 939.9753 939.9753 940.0474 940.1620
   949.1080 949.6864 949.8206 949.8206 949.8813 949.8813 952.1052 953.0150
   953.0150 953.3135 953.3135 953.3151 953.4754 953.8266 955.3319 955.3319
   955.5083 955.5083 958.0107 958.0107 958.0903 958.0903 958.1175 958.1477
   958.3815 958.3815 958.4734 958.4734 958.4798 958.5278 958.5499 958.5499
   958.5852 958.5852 958.5950 958.5977 962.0412 962.0829 962.0829 962.6192
   962.6192 963.3468 968.4870 968.8318 968.8318 969.0209 969.0209 969.0219
   969.4384 969.5483 970.7034 970.7034 971.2135 971.2135 971.3212 971.3899
   972.1170 972.1170 972.1392 972.1392 974.8999 974.8999 974.9431 974.9431
   975.2768 975.2768 975.2798 975.2798 975.3155 975.3209 975.8638 975.8838
   976.2376 976.2397 976.2502 976.2502 976.2655 976.2655 977.2015 977.2036
   977.2036 977.2546 977.2546 977.3003 982.6908 982.8635 983.9685 983.9685
   984.0279 984.1873 984.2441 984.2441 985.6865 985.6865 986.1631 986.1631
   986.2313 986.3621 989.3129 989.3129 989.3580 989.3580 989.6762 989.6770
   991.5117 991.5296 992.0137 992.0137 992.0245 992.0245 994.1987 994.1987
   994.2022 994.2022 994.3894 994.3894 994.4067 994.4067 994.4101 994.4368
   994.9406 994.9406 994.9472 994.9472 995.0892 995.09961003.82921003.8292
  1004.14361004.14361004.15611004.22271006.05951006.10381006.10381006.3537
  1006.35371006.40961008.87501008.87501008.98891008.98891009.03261009.0451
  1009.05381009.06191009.06631009.06631009.10231009.10231011.00921011.0092
  1011.02281011.02281011.02371011.04501019.63331019.85651020.94861020.9486
  1020.99861020.99861021.08051021.47481021.47481021.53531021.53531021.7166
  1021.73521021.81431021.95331021.95331022.13691022.13691028.21201028.2120
  1028.21721028.21721028.77211028.77351036.04451036.04451036.66071036.6607
  1036.71501036.80651038.32971038.32971038.42261038.42261038.61551038.7892
  1039.82671039.96791040.00861040.00861040.35221040.35221040.79501040.7950
  1040.91011040.91011040.98391041.03731041.81361041.83831041.83831041.9688
  1042.12461042.12461042.13631042.15881042.15881042.19301042.23921042.2535
  1042.25351042.66721042.78281042.78281042.80091042.80091042.89821042.8982
  1042.90181042.93051042.98951042.98951043.86931043.86931043.86951043.8695
  1044.31741044.32101057.63411057.63411057.73341057.73341057.75991057.7766
  1058.34121058.47451059.66591059.66591059.67261059.67261063.72721063.7272
  1063.72831063.72831063.74151063.74631071.68721071.68721071.72571071.7371
  1071.73711071.75221074.07121074.29121075.68321075.68321075.77841076.0710
  1076.07101076.08651076.48371076.48371076.50841076.50841076.51151076.5658
  1079.89861079.89861079.91081079.91841079.92481079.92481083.30861083.3086
  1083.54291083.68871083.68871083.96651085.76611085.76611086.27901087.2160
  1087.21601087.44461089.30431089.30431089.45691089.59901089.59901089.9525
  1092.94131092.99351093.02881093.02881093.05991093.05991093.17081093.1764
  1093.17641093.20661093.20661093.21311096.59391096.59391096.59481096.6459
  1096.64591096.70481105.82921106.21171106.24921106.24921106.33241106.3324
  1107.62141107.62141107.65121107.65121107.74781107.79001107.95271107.9527
  1108.41451108.41451108.45061108.45841110.47691110.47691110.74561110.9468
  1110.94681111.03181111.44751111.46991111.46991111.48011111.49171111.4917
  1112.56131112.84861112.84861113.24941113.25321113.25321121.65921121.8548
  1123.19291123.19291123.19791123.19791123.85671123.91751123.91751123.9348
  1123.93481124.32071124.68271124.81091124.81091124.99841124.99841125.0855
  1126.79891126.79891126.92531126.92531126.92741126.96081127.54871127.5792
  1127.58671127.58671127.62611127.62611129.23271129.24731129.24731129.2788
  1129.28711129.28711129.34131129.34131129.34461129.34461129.35591129.3582
  1130.89081130.89081130.89271130.89271131.34251131.34261132.96071133.5545
  1140.74461140.74461140.77231140.77231141.40811141.44721141.44721141.4950
  1141.50691141.50691143.35951143.35951143.45541143.57531143.57531143.6094
  1143.96781143.98921143.98921144.10071144.10071144.17331144.34201144.3420
  1144.36721144.41291144.41571144.41571145.96601145.96601145.97701146.0358
  1146.03581146.07721146.41161146.50051146.50051146.51911146.51911146.6816
  1146.86631146.86631146.87281146.91781146.91781146.92341148.24521148.2452
  1148.24641148.24641150.60641150.60671158.51661158.65891158.65891158.6701
  1158.67641158.67641164.08241164.10981164.10981164.11291164.11321164.1132
  1165.52911165.52911165.53241165.53241165.66261165.66591171.40901171.4090
  1171.59731171.62401171.62401171.64931178.50781178.52081178.52081178.5354
  1178.53541178.60501178.81901178.83661178.83661178.89811178.89811178.9372
  1180.37291180.37291180.37601180.37831180.37831180.39561190.54011190.5401
  1190.71591190.78421190.78421191.24921191.32731191.32731191.40261191.5862
  1191.58621191.67191192.27861192.49911192.49911192.90541192.90541193.0574
  1193.72781193.91541193.91541193.91721193.97391193.97391194.07951194.0795
  1194.20451194.20811194.20811194.27011195.88271195.94551195.94551196.1031
  1196.10311196.25301196.52291196.62881196.62881196.71761196.71761196.7281
  1197.62421197.63461197.66061197.66061197.69391197.69391197.87881197.8788
  1197.89051197.89051197.91991197.93421202.57691202.83601211.06021211.1100
  1211.11001211.25901211.26151211.26151212.00411212.00411212.00641212.0064
  1212.02121212.05781214.45671214.45671214.48231214.49951214.49951214.5069
  1215.20591215.21211215.21211215.21251215.21251215.21681216.10281216.1028
  1216.10821216.10821222.94021222.94841223.08211223.08211223.09221223.0922
  1224.46981224.94341224.94341225.10181225.10181225.11671226.42411226.4241
  1226.46651226.46651226.57051226.57871227.56441227.56441227.59371227.5937
  1227.82861227.84951229.95361229.95361229.99261230.00051230.00051230.0627
  1230.23371230.23371230.27071230.28301230.28541230.28541230.36391230.3651
  1230.36511230.36711230.36751230.36751233.37221233.37221233.37701233.4076
  1233.40761233.44121236.52821236.74381236.74381236.83211236.83211236.9133
  1245.69041245.69041245.69751245.69751245.89871245.94661247.26401247.2640
  1247.33591247.34591247.35121247.35121247.35511247.35511247.37851247.3903
  1247.39031247.40211248.43671248.43671248.43871248.46591248.46591248.4713
  1248.98751248.99031249.27351249.27351249.27721249.27721251.96731251.9673
  1251.96771251.96771252.02601252.02811262.72981262.76921263.04271263.0427
  1263.05751263.05751263.51641263.51641263.53451263.56721263.56721263.6165
  1264.60601264.61061264.61061264.61251264.61251264.61611268.36791268.3679
  1268.36921268.36921268.62541268.62621276.03791276.33631278.26681278.2668
  1278.30231278.30231280.05271280.23381280.60211280.60211280.60571280.6649
  1280.66491280.71191280.71191280.72981280.72981280.73611280.73651280.7574
  1280.87771280.87771280.89261280.89261282.25491282.25491282.26131282.2613
  1283.05291283.05841291.35171291.35171291.36891291.38131291.38131291.3890
  1294.13311294.13311294.16311294.21311294.21311294.25101294.29911294.2991
  1294.54391294.54391294.56911294.57931295.24301295.25591295.33171295.3317
  1295.33681295.33681295.40701295.49441295.49441295.52801295.52801295.5783
  1295.58561295.59191295.59191295.67601295.67601295.67641296.39731296.3983
  1296.39831296.40751296.41331296.41331301.29781301.32751301.32751301.3807
  1301.38071301.40131302.09591302.10781302.10781302.11261302.11701302.1170
  1302.92301302.92561302.92561302.93431302.93431302.94341313.31161313.3116
  1313.36991313.37571313.37981313.37981316.05551316.17261316.22751316.2275
  1316.28311316.28311317.07761317.07761317.07921317.07921317.35161317.3652
  1317.37221317.37221317.37711317.38571317.39611317.39611317.40151317.4015
  1317.41281317.41281317.41621317.43411318.57811318.73541318.73551318.7355
  1318.81091318.81091322.61741322.71241331.78221331.88751331.91751331.9175
  1331.94261331.94261332.72461332.72921332.72921332.74391332.74751332.7475
  1335.84941335.84941335.85011335.85011344.75161344.81781345.32711345.3271
  1345.37561345.37561345.38391345.44101345.56971345.56971345.57071345.5707
  1346.02891346.02891346.03931346.04201346.04201346.06481346.73481346.7348
  1346.77291346.79061346.79061346.83491349.47411349.61071349.61071349.6143
  1349.62441349.62441350.21961350.21961350.22301350.22301350.43961350.4414
  1351.49641351.49641351.51421351.51421351.52391351.53501352.79471352.8078
  1352.80781352.82231352.82231352.82731353.47221353.47221353.47301353.4730
  1353.57351353.58301353.58301353.60491353.60491353.61401353.86661353.8668
  1365.37081365.37081365.38171365.38171365.38301365.48381365.52871365.5287
  1365.54261365.61211365.61211365.62001369.28221369.28431369.28431369.2926
  1369.29261369.30071374.82761374.85121374.85121374.92681374.92681375.0218
  1377.10921377.10921377.11561377.12801377.12801377.13501379.55421379.5542
  1379.76821379.77161379.77161379.88851379.98511379.98511379.99571379.9957
  1380.00361380.05511380.44361380.47041380.47041380.47461380.47461380.5499
  1382.76881382.80741382.80741382.85791382.85791382.86141383.65991383.6924
  1383.69241383.75931383.75931383.80401385.09161385.10161385.10161385.1031
  1385.11621385.11621399.77521399.81251399.91681399.91681399.92131399.9391
  1399.93911399.97691400.20821400.22381400.22381400.23681400.23681400.2720

          k = 0.0000 0.5000 0.0000 (  4432 PWs)   bands (ev):

   -63.3905 -30.2020 -30.1764 -30.1764  -7.5660   6.2892   8.1864   8.1864
    17.1564  20.1932  24.6396  26.5861  26.5861  32.6353  36.5859  36.5859
    37.0927  37.6970  44.8542  45.1034  45.1034  51.2258  55.4423  55.4423
    55.7928  61.1693  64.5479  67.6695  67.6695  70.1025  71.4483  73.0978
    73.9059  75.9954  75.9954  79.6409  79.6409  80.9565  82.2558  83.2084
    84.8908  86.0448  86.0448  87.9913  89.1211  89.4831  89.4831  96.4590
    96.4590  97.0737  99.8500 100.9049 104.0713 104.0713 105.5114 108.1304
   111.6159 112.6490 112.6490 115.5113 116.7015 116.7015 119.4130 119.4130
   122.6649 123.4048 124.2288 129.1424 129.3052 130.2431 130.2431 132.8436
   136.5296 136.5304 136.5304 139.4708 139.4708 139.5913 140.7999 144.8217
   144.8217 145.2127 145.7009 149.0187 150.3161 154.4227 154.4227 154.9865
   156.1665 159.1036 159.1036 161.5588 164.1529 165.6725 165.6725 165.9678
   166.8957 167.3987 167.6393 167.6393 168.9440 171.1540 172.7282 173.4408
   173.4408 178.4996 178.5796 179.0256 179.0256 180.5750 180.5750 182.4562
   182.4562 183.0005 183.0159 185.1161 186.3908 186.8460 186.9629 186.9629
   187.6371 188.2616 188.2616 189.5142 189.5142 190.8638 191.5004 191.6474
   198.0146 198.0146 199.1663 199.7077 200.2121 202.5190 202.5190 205.2312
   209.3134 209.6854 209.6854 210.4981 212.6195 220.1081 220.5723 220.5723
   220.7607 221.2944 221.3071 221.5715 221.5715 222.3761 225.6052 225.6052
   226.3066 228.3850 228.3850 230.6229 231.7378 234.2793 235.0608 235.3464
   235.3464 236.4876 237.4280 237.4280 238.9905 240.0018 240.0018 240.5695
   241.8454 247.3643 248.6654 248.6654 249.6694 249.7530 249.7530 250.6952
   253.5383 254.0972 257.6727 257.6727 259.0828 259.0828 259.1974 259.3980
   261.0835 262.7514 264.2497 265.9615 265.9615 267.0689 268.4715 270.0350
   270.0350 270.7409 270.7409 270.8968 270.9019 272.2914 272.3368 272.3368
   274.5414 276.4841 276.4841 276.8811 277.2578 278.7489 281.8362 281.8362
   282.7184 284.7420 284.7420 286.9273 287.1697 287.3646 287.5448 287.5448
   287.9485 288.5444 288.5444 290.0963 290.7121 294.3778 295.6928 296.7542
   296.7542 299.3448 299.3448 300.3295 300.9334 303.3644 304.5027 305.2436
   305.2436 306.3370 306.4844 310.5128 310.5128 312.9950 314.3655 314.3655
   315.1218 315.1218 315.3827 315.8901 317.2593 318.0929 318.0929 318.4694
   319.0985 319.7142 320.4690 320.4690 321.6617 324.2448 325.0986 325.3096
   325.3096 325.8802 326.4899 330.0796 330.0796 331.4957 331.4957 331.7007
   332.7989 332.7989 333.8234 333.8282 334.7891 334.7921 334.7921 335.1611
   335.1611 335.2671 335.3834 335.6067 335.8993 339.0119 339.4306 339.7752
   339.7752 340.0023 340.2364 340.4107 340.4107 340.6462 341.0368 343.6274
   343.6274 344.0301 344.9437 348.2960 352.1498 352.1498 352.4158 353.2002
   353.2002 353.3260 354.8102 355.0905 355.9041 355.9041 356.2776 358.6094
   367.7993 367.7993 368.7052 368.7052 369.4585 370.0182 374.1898 374.1898
   375.0021 377.0661 377.9474 379.0265 379.0265 379.8042 381.0374 382.4099
   382.4099 382.9246 385.4201 385.4880 385.4880 386.9375 387.1824 387.1824
   387.6858 388.2479 388.5453 388.5453 389.0114 390.8337 391.1302 391.1302
   391.8489 393.1954 393.3073 393.6612 393.6612 393.7834 394.1596 397.5877
   397.5877 402.1578 402.1578 402.9430 403.1819 404.1271 404.2537 405.5102
   405.5102 406.0487 413.5131 414.9046 415.5889 415.6646 415.6646 417.0358
   417.0358 418.4885 419.1649 421.0029 421.0029 422.0148 423.5386 424.1920
   424.1920 425.0388 425.2771 425.6848 425.6848 426.1373 427.0040 427.2746
   427.2746 427.3883 428.0224 429.9217 429.9217 434.3132 434.3132 434.9374
   435.0419 436.1757 437.7491 437.8667 437.8667 438.2509 438.3737 438.5476
   438.5645 438.5645 439.6434 439.9113 439.9113 439.9660 440.5454 440.5454
   440.6802 441.3726 441.9149 441.9347 442.1564 442.1564 442.3467 443.2767
   445.4950 445.4950 445.4987 445.6634 445.6634 445.6889 447.4259 447.5315
   448.5299 448.5299 450.7852 455.6138 455.6138 456.0015 456.1666 458.2816
   458.8589 458.8589 459.2341 459.8132 460.7122 460.7122 460.7284 460.8525
   460.9004 460.9004 462.1465 463.1294 464.7253 464.7253 466.7058 467.1044
   467.1044 469.3036 469.4211 470.7213 473.0396 473.1996 473.1996 473.8325
   477.9172 478.6212 478.6941 478.9272 478.9272 479.1767 479.1767 479.2575
   479.6101 484.2449 484.2449 485.6360 485.8932 486.4630 486.4630 487.6371
   488.4661 488.4953 488.5753 488.5753 488.7793 488.7793 488.9338 489.8453
   492.1493 492.6471 492.6471 493.3156 493.3156 493.3900 493.5484 499.1682
   499.5246 503.5590 503.9685 503.9685 504.8656 504.8656 506.4635 506.4635
   507.1526 507.2820 507.4203 507.4203 507.6602 507.7485 508.0691 508.3800
   508.4474 508.4474 509.0107 509.0358 509.0358 509.3993 511.3880 512.8234
   516.3555 516.3555 518.4087 518.5126 518.5126 519.0123 520.7512 521.0474
   521.8543 521.9287 521.9287 522.8239 522.8239 522.9390 523.0695 524.6738
   525.8733 525.8733 528.5012 528.9745 528.9745 528.9982 529.4290 530.9726
   531.0291 531.0291 531.0862 534.3351 536.5497 537.3687 537.3687 538.0087
   538.0087 538.1403 539.2524 539.5451 539.5451 539.7854 540.9136 541.6043
   541.6836 541.6836 542.0541 542.4779 542.4779 542.7733 543.9314 544.6327
   544.9966 544.9966 545.0771 545.2316 545.2316 545.3583 545.4999 545.9346
   547.8193 551.7328 551.7328 553.2642 553.2642 553.7279 555.1124 557.6050
   558.2090 558.2090 558.6721 559.2423 562.9887 563.2596 563.2596 565.8677
   565.8677 566.0442 566.6710 567.1879 570.6683 570.6683 573.1846 573.2099
   573.6823 573.6823 573.8299 575.9156 580.7417 581.3336 581.3336 582.0775
   585.0450 585.0450 586.4138 587.0446 587.1150 588.8280 588.8280 590.1041
   590.1041 590.7649 591.1814 591.1814 591.3238 591.6779 591.7925 591.9779
   591.9779 592.1564 592.8627 592.9124 592.9858 593.0452 593.0452 593.3922
   593.5024 593.5024 593.8106 594.5291 594.5291 594.8274 595.1093 595.2431
   595.4565 595.7302 595.7302 595.8798 599.1284 599.1352 599.1352 599.4096
   599.5097 599.5097 599.5520 600.8605 602.3306 604.1287 606.4008 606.4008
   606.6218 606.7447 608.3039 608.3039 609.6519 611.1686 613.0501 613.0712
   613.0712 613.3604 613.9889 613.9889 616.9919 620.1129 625.4660 625.4660
   625.8455 626.3162 626.3162 626.4757 626.7357 627.3126 627.8371 627.8371
   627.8667 628.2130 628.2130 628.2433 628.4613 628.5783 628.6426 628.6426
   628.7767 628.9255 628.9255 629.1028 629.1028 629.1414 629.1722 630.0981
   634.8787 636.1152 638.1413 638.1413 638.6782 638.9460 640.2689 640.2689
   641.4375 641.8316 642.0099 642.0099 642.2678 642.5711 642.5711 642.8274
   642.8274 643.2180 643.7096 644.3847 646.6929 646.9216 646.9216 647.1978
   648.3678 648.4958 648.4958 648.5400 648.6090 648.8638 648.8638 649.3554
   649.4020 656.0560 656.0560 656.5009 657.3517 657.4416 657.4416 659.6348
   659.9317 659.9317 660.3049 660.6569 661.0145 661.4866 661.4866 661.8626
   661.9401 663.9961 663.9961 666.9144 667.9001 671.6229 671.6229 673.8749
   673.9964 673.9964 674.1370 674.4909 674.4909 674.6240 675.9755 675.9905
   676.2762 676.8785 676.8785 676.9380 676.9853 677.1724 677.1724 677.4715
   678.1747 678.8476 678.8476 679.1791 679.2446 679.2446 679.4576 679.5602
   679.8084 679.8084 679.9201 679.9699 680.4116 682.4325 682.6515 682.6515
   682.8873 684.3105 684.3769 684.5262 684.5262 684.6537 687.1561 687.1561
   689.1126 689.1126 689.5780 689.5780 689.6223 689.6301 690.3852 690.6874
   693.7863 693.7863 694.1047 694.7779 695.7434 695.7788 696.3924 696.3924
   696.7738 697.4591 697.4591 697.6235 697.8236 697.8236 697.8281 697.8737
   698.0054 699.3491 699.4759 699.4759 699.5504 699.6147 700.4930 700.4930
   700.5178 700.5624 701.6102 701.9139 701.9139 702.2526 702.6200 702.6200
   703.9859 708.4628 708.4628 708.6614 709.1718 710.1947 710.1947 710.7642
   711.2133 713.8272 713.8272 713.9589 714.1411 718.7155 718.7265 718.7265
   718.9025 723.4386 723.4386 724.1294 725.2745 727.8158 727.8158 728.9242
   729.2308 729.2899 729.2899 729.4313 729.4649 732.8130 732.8130 732.8982
   732.9118 737.2756 737.2756 738.4270 738.5347 740.3461 743.8883 743.8883
   745.1435 745.1435 745.3257 745.6910 745.7039 745.7171 745.7171 746.0190
   746.3736 746.4685 746.7025 746.7025 747.0123 747.6498 747.6498 748.1358
   748.3292 748.8684 749.0545 749.0545 749.2030 751.7920 751.7920 751.8782
   751.9151 752.4198 753.7202 759.9583 759.9583 760.7306 760.7603 760.7603
   761.1278 761.6873 761.6946 761.8335 761.8335 761.9678 762.0034 762.0034
   762.3842 763.5167 764.3572 767.9276 768.0214 768.0214 768.1190 769.0955
   769.3469 769.3469 771.2409 772.6581 773.0250 773.0250 775.8358 775.8358
   775.9259 776.1441 777.0383 777.8606 778.0714 778.0714 779.3069 779.3644
   779.3644 779.8707 779.8998 779.8998 779.9303 780.0733 780.6448 780.6448
   780.9128 780.9185 780.9366 780.9449 780.9449 781.0351 782.2874 782.5619
   782.5619 782.5684 782.6564 783.2880 783.2880 784.6561 785.2265 785.2265
   785.7519 787.0384 787.2111 787.2111 787.3596 789.4102 790.2801 792.3695
   792.3695 792.5749 792.5768 794.3181 794.3181 794.9090 795.4861 795.8084
   795.8548 795.8548 796.0756 796.2155 796.2155 796.3890 796.7685 796.7685
   797.0359 801.2097 801.2097 801.2389 801.2457 801.5702 801.6801 801.6801
   801.8262 803.5925 804.6443 804.6443 804.6516 804.6543 814.1171 814.1171
   814.2645 814.7222 814.7222 814.8389 815.2437 815.4601 815.5638 815.6716
   815.6716 815.6995 815.8186 815.9036 815.9036 816.2062 822.8109 824.1502
   824.1502 825.4992 826.1741 826.1741 826.4355 827.4714 829.5284 829.5284
   832.0951 832.5857 833.0762 833.3039 833.3039 833.7786 833.7985 833.7985
   833.9299 834.1839 834.1839 834.4753 835.1439 836.6985 837.8549 837.9280
   838.2948 838.2948 838.6269 838.7218 839.0301 839.0301 840.0347 840.6445
   840.6445 847.8514 847.9795 847.9795 848.2113 848.6022 848.6022 848.6612
   848.6931 848.7782 848.7962 848.7962 848.8297 848.8921 849.1732 849.7478
   849.7478 850.0280 850.0280 850.1135 850.4337 850.6947 851.9169 851.9171
   851.9210 851.9210 853.3503 856.5096 856.5096 857.8980 859.7460 859.7460
   860.0236 860.0522 862.5325 862.5325 863.1120 863.3693 864.1722 864.1722
   865.3125 865.3933 865.4328 865.4786 865.4786 865.5707 865.7467 865.9036
   865.9036 866.1403 867.1497 867.2293 867.2293 867.2400 870.7370 870.8341
   870.8341 870.9183 872.8900 872.8900 872.9031 872.9046 876.6603 876.6603
   876.7341 877.2593 880.2507 880.2507 880.9874 881.1642 881.6375 881.6537
   881.6735 881.6813 881.6813 882.0846 882.0846 882.4627 882.4627 882.5918
   882.8731 883.0870 886.3868 886.7623 886.7623 887.2048 889.6883 889.7052
   889.7052 889.8078 893.5917 894.7390 894.7390 895.4372 895.5706 896.0338
   896.0338 896.7492 896.7848 896.9919 897.0463 897.0463 897.4509 897.4509
   897.6224 897.8498 897.8519 897.8591 897.8591 898.0414 898.0414 898.1183
   898.5755 899.4634 900.4456 900.4456 900.5122 900.5586 900.6434 901.2036
   901.2036 901.8082 902.0005 902.0005 902.1896 902.3898 903.0849 903.0877
   903.0877 903.1016 904.4533 904.5203 904.5428 904.5428 904.5852 904.5856
   904.5856 904.6929 906.8788 906.9708 906.9708 907.0501 911.9206 911.9429
   911.9671 911.9671 914.9692 915.6653 915.6653 915.9064 917.4036 918.0482
   918.0482 918.5170 918.7876 918.7876 918.9706 919.0593 919.9396 919.9396
   919.9401 919.9611 920.5631 920.6981 920.6981 920.8688 923.8902 926.7131
   931.7026 931.8907 931.8907 932.3170 932.5094 932.6702 932.6702 932.7594
   932.7594 932.8389 933.2182 933.2182 933.3007 933.4514 933.4883 933.8154
   934.2373 934.2373 934.2594 934.4696 934.4696 934.5749 934.6878 935.1272
   935.3487 935.3487 935.4207 935.5098 935.6509 935.7959 935.7959 935.9092
   936.1114 936.1782 936.1782 936.2577 936.6836 936.7869 936.7869 936.8099
   938.7074 939.2654 939.2654 939.7848 943.7263 943.7263 944.0723 944.1094
   948.6512 948.6512 948.8224 948.9484 949.5675 949.5675 949.7015 949.7849
   951.6720 952.0175 952.0175 952.5132 952.5132 952.7373 952.8365 952.8737
   953.0003 953.0086 953.0086 953.0181 953.0744 953.7266 953.7266 954.0271
   954.1603 954.1603 956.2185 956.2349 956.2349 956.2605 957.9212 957.9288
   957.9288 957.9584 960.4241 961.2870 967.1367 967.3417 967.3417 967.4550
   967.5736 967.6807 967.6807 967.8760 967.8760 968.6182 968.7620 969.4176
   969.4176 969.7407 974.6216 978.4942 978.8568 978.8568 979.3581 979.4206
[...]
   335.3309 335.3309 336.2437 336.2437 337.2866 337.3900 340.8051 341.4483
   342.0858 345.1280 345.1280 345.1575 345.8432 345.8432 345.9733 345.9879
   347.0092 350.2527 352.1746 352.1746 354.1311 356.9583 361.3121 361.3121
   361.4104 361.6872 361.6872 362.3056 362.8937 362.8937 363.3123 363.3349
   363.7152 363.7152 363.7765 364.0070 364.2891 364.5913 364.7443 364.7443
   366.7222 367.0555 367.2562 367.2562 370.5786 370.5786 372.4119 373.2276
   373.2276 373.6309 376.4772 376.5054 377.1410 377.1410 378.1184 378.1184
   378.2088 378.8305 379.2399 379.4711 379.7485 380.1556 380.1556 380.1730
   384.6214 384.6214 385.4867 388.6871 390.2230 391.0874 391.0874 391.3048
   391.7292 391.7292 395.5588 395.5588 395.6226 395.8336 396.0921 396.5567
   396.5567 397.3853 397.6164 398.0817 398.0817 398.1904 398.2463 400.1207
   400.5486 400.5486 401.6783 401.6783 402.3466 402.3778 402.3822 402.3822
   402.9629 402.9685 405.4864 407.9408 408.7190 408.7190 409.2984 411.2108
   412.5384 413.2717 413.2717 414.8924 414.8924 414.9157 414.9960 416.5399
   419.8884 419.8884 419.9413 419.9501 427.1959 427.1959 427.4003 427.9445
   428.3768 428.3768 429.5085 429.5085 429.5742 430.1435 430.7384 430.7384
   430.7542 430.9468 431.0207 433.2235 439.9550 439.9550 442.3998 442.3998
   442.5255 443.3696 443.5517 444.9807 445.6640 445.6640 446.5715 447.0952
   447.1264 447.1264 447.1865 449.7338 452.9868 454.6349 458.2013 458.2013
   461.6555 461.6555 462.6876 462.6876 462.7942 463.3904 463.8269 463.8269
   463.9720 464.0035 464.0597 464.1541 464.4909 465.1371 465.1371 465.4191
   465.4191 466.2710 466.3695 466.3712 466.4545 466.4545 467.1767 467.1767
   467.2460 467.2604 467.3290 467.6088 467.8085 469.4729 470.5975 470.5975
   473.4788 476.9923 480.3468 480.3468 481.8741 481.8741 482.1320 482.3451
   482.9567 484.1956 486.9059 486.9059 487.4743 487.4743 487.5660 487.5670
   492.6175 493.1788 493.1788 493.2453 494.3684 494.3684 496.3091 497.7728
   497.8201 497.8201 498.2705 498.2705 498.7926 499.2580 499.7838 499.7838
   499.9453 499.9527 500.3765 501.7803 504.8975 504.8975 505.1877 505.2122
   505.3219 505.3219 507.5384 507.7398 507.7398 507.8239 509.1311 510.0203
   510.0203 511.9853 512.0950 513.8813 514.1101 514.2312 514.2312 515.2916
   515.2916 515.4536 515.5201 515.8189 515.8189 515.9377 516.6960 519.8121
   521.3353 521.3353 522.5880 522.5930 525.9824 525.9824 533.2847 533.2847
   533.7164 534.0176 534.1199 534.4857 534.5212 534.5212 534.8704 536.1326
   543.2369 543.2369 544.0341 545.9285 545.9285 545.9389 546.3310 546.4687
   547.5524 547.6435 547.6435 547.8380 548.2773 548.3148 548.3148 549.1435
   549.1435 549.3370 549.9271 550.6161 550.7984 551.1404 551.1404 551.8718
   551.9482 551.9482 552.1844 552.8418 554.0682 554.0682 554.3730 555.2984
   555.3016 555.3016 555.3038 556.1742 560.0798 560.0798 561.6476 564.4915
   564.5746 564.5746 564.6655 566.4647 566.8916 566.8916 567.2909 567.3529
   567.3529 567.5734 567.5734 567.5763 567.8183 567.8371 567.9037 568.0685
   568.2801 568.7210 568.7210 569.1641 569.3500 569.3500 569.8904 569.8904
   569.9097 569.9468 570.1897 572.2953 572.7664 572.7664 572.7998 572.8177
   573.9216 573.9241 573.9337 573.9337 580.4162 581.2060 581.2060 582.2245
   583.6707 583.6707 584.0880 584.0880 584.0994 584.8161 585.0715 585.0791
   591.8751 591.8751 594.1405 594.4730 595.0514 597.4828 597.7618 597.7618
   598.4767 598.4767 598.9433 598.9549 599.4558 599.4558 600.4148 600.4477
   600.4477 600.4587 600.8886 601.0530 602.2887 602.2887 602.9144 603.0935
   603.1601 603.1650 603.1650 603.4679 604.4877 605.2721 606.5767 606.5767
   606.6344 606.6497 611.2302 611.2302 611.4870 612.5485 613.4227 613.4227
   615.1098 615.1098 615.3873 615.5116 617.2651 617.7830 618.9015 618.9015
   618.9027 618.9234 618.9798 618.9798 619.0028 619.0608 619.4954 619.4954
   620.4778 620.6634 620.6634 620.7091 620.7225 621.2519 623.8395 623.8395
   624.7502 624.7502 624.7597 624.7826 633.1521 633.1521 634.0435 634.9281
   635.9838 635.9838 636.0489 636.0595 637.6485 637.7222 637.7336 637.7336
   638.0260 638.0265 638.0265 638.0473 644.2649 645.3647 645.3647 645.4783
   647.5161 647.5161 647.8577 647.8950 649.0344 649.0344 652.0652 652.2533
   652.2533 652.4190 652.5148 653.0330 657.4735 657.4735 657.9876 657.9876
   658.5970 659.3208 659.3310 659.3742 659.3783 659.3783 659.3837 660.1217
   662.8067 662.8067 663.5721 667.4833 668.7382 668.7382 669.0995 669.0995
   669.2457 669.3193 669.9237 670.3222 672.2242 672.2242 675.6930 675.6934
   675.6934 675.7171 676.3217 676.6493 680.4309 681.9145 682.6682 682.6682
   683.4083 683.4083 684.0226 684.0226 684.4947 684.5571 685.3276 685.4410
   685.4410 685.5592 686.1978 686.1978 686.7808 686.8515 686.8551 687.2068
   688.4155 688.4895 688.4895 688.6751 700.7953 700.7953 701.4806 702.0924
   702.8129 702.8129 703.1245 703.1245 703.2992 703.3191 703.9449 703.9722
   704.4390 704.4390 704.5908 704.5951 704.8889 704.9410 704.9410 705.0008
   710.1889 710.1889 710.7172 711.2123 711.2123 712.8767 713.9688 714.1048
   714.1048 715.3175 715.4189 716.8207 718.5132 718.5132 718.7796 719.4162
   719.4162 719.4877 719.4895 719.5869 720.0604 720.5080 720.5080 720.5153
   720.7207 720.9440 720.9756 721.1337 721.1337 721.2255 721.3467 721.3467
   721.4255 721.4255 722.1190 722.1190 722.2598 722.3877 722.3877 722.4152
   722.4246 722.4300 722.5493 722.7783 722.7783 722.9790 723.0108 723.0108
   723.0402 723.0873 723.4521 723.5229 727.1972 727.1972 727.2042 727.2133
   736.7348 737.0951 737.0951 737.1246 737.3120 737.3120 737.3463 737.9313
   738.0713 738.0713 738.6049 738.6927 738.6927 738.7352 738.7727 738.8034
   738.8034 738.9798 739.2970 740.0192 740.2897 740.3818 740.3818 740.5131
   741.0989 741.1337 741.1337 741.2066 748.5554 749.0278 749.2820 749.2820
   750.9513 750.9513 752.0344 752.1534 752.5849 752.7413 752.7413 752.9133
   754.9509 755.0951 761.7891 761.7891 761.8299 761.8409 765.9808 765.9808
   766.1044 767.0973 767.8191 767.8191 769.5919 769.6794 769.6794 769.8324
   769.9594 770.1955 770.7542 770.7542 771.5432 771.5622 771.5622 771.6575
   772.0266 772.6294 773.8949 773.9162 773.9162 773.9701 774.3414 774.4002
   774.4002 774.4131 774.8573 774.8573 774.9319 775.0144 775.0144 775.0434
   775.0989 775.1273 777.6491 777.6491 778.3299 778.3299 778.6174 779.4178
   786.1971 786.1971 786.4653 787.1996 787.8839 787.8839 788.9300 788.9509
   788.9509 788.9594 789.1503 789.1662 795.3726 795.3760 795.3760 795.3816
   799.1751 799.6180 799.8181 799.8181 800.8576 800.9175 800.9175 801.0025
   803.3327 803.3327 803.6242 804.4456 804.4456 804.4618 804.4664 804.6002
   805.0044 805.0044 805.8517 806.2954 807.1008 807.1008 807.2137 807.2347
   807.5296 807.5296 807.6095 807.6095 807.6386 807.7693 807.8763 808.1780
   811.7579 811.7579 812.9980 813.0028 813.0028 813.0048 813.2089 813.2230
   817.7476 817.7476 818.6361 819.0455 819.0455 819.1610 819.2593 819.3055
   819.9677 820.0167 820.0167 820.7551 821.9269 821.9269 822.5801 822.6001
   823.3998 823.5161 823.5161 823.5771 824.2256 824.2256 824.3006 824.3653
   824.3747 824.3747 824.4574 824.4789 824.4865 824.4865 824.8373 824.8435
   824.8974 824.9138 824.9246 824.9246 825.1095 825.5418 825.5557 825.5557
   825.7806 825.8063 825.8063 825.8316 836.1525 836.1525 838.5888 838.8833
   838.9860 838.9860 839.2949 840.4381 843.2281 843.2281 843.3500 843.3502
   843.3502 843.3716 843.3797 843.3926 854.2630 854.2630 854.4689 854.6563
   854.8728 854.8728 855.4077 855.4206 855.4564 855.4564 855.8579 855.9749
   857.6858 857.6858 857.7416 857.9166 858.2727 858.2850 858.2850 858.3576
   858.8887 859.1757 859.1757 859.3172 859.8804 859.8804 859.9187 859.9284
   862.9675 862.9987 862.9987 863.0356 870.1835 870.1835 870.6879 871.0370
   871.0694 871.0694 871.4457 871.4718 871.4774 871.4774 871.6670 871.9647
   874.3385 874.5775 874.7368 874.7368 874.8550 874.8550 874.8743 874.8939
   874.9430 875.0025 875.0025 875.0187 875.5310 875.5310 876.3260 876.3433
   876.3433 876.3522 876.3927 876.4231 876.4386 876.4440 876.4440 876.4706
   881.5277 881.5349 881.5349 881.5392 886.8158 886.8158 886.8360 887.2783
   890.8467 890.8467 891.4039 891.4859 891.4859 891.5471 891.5608 891.5611
   893.4881 893.5035 893.5035 893.5291 894.3051 894.3051 894.3539 894.3596
   895.3853 895.3853 895.9158 896.6049 902.1725 902.2589 902.2589 902.2677
   902.7195 902.7195 902.7433 902.8142 909.8504 909.8631 909.8631 909.9695
   910.0623 910.0623 910.0797 910.0812 913.6946 913.6946 913.7279 913.7446
   915.3164 915.3349 915.3463 915.3463 915.6184 915.6184 915.6492 915.6548
   918.4027 919.3431 920.0615 920.0615 922.0992 922.0992 922.5698 922.5698
   922.6539 922.9408 923.0728 923.2730 923.2730 923.3589 923.8454 924.0138
   924.7570 924.7570 924.7684 924.8901 925.7050 926.1140 926.2411 926.2411
   926.2743 926.3817 926.8083 926.8083 926.8816 926.8943 927.3643 927.3643
   927.5070 927.5128 927.8291 927.8397 927.8397 927.8503 932.6907 932.6988
   932.7088 932.7088 941.7858 941.7858 941.8906 941.8980 942.7265 942.7265
   943.1773 943.2931 944.7551 944.7914 944.7914 944.8826 948.5656 948.5656
   952.0230 952.0230 952.0829 952.4900 954.7093 954.7093 954.8255 954.9777
   956.4439 956.4439 957.5649 957.5866 959.2151 959.3405 959.3405 959.4103
   959.5441 959.5441 959.7065 959.7383 967.0576 967.0576 967.0600 967.0788
   970.2788 970.8383 971.2177 971.2177 971.3558 971.7080 971.7080 972.3129
   972.7746 972.7746 973.0028 973.1504 974.2017 974.2753 974.2753 974.5689
   975.0013 975.0013 975.4045 975.5114 976.0628 976.0628 976.1694 976.1715
   976.9065 976.9065 977.3872 977.4394 978.0884 978.0884 978.1317 978.1871
   978.5050 978.5776 978.6821 978.7136 978.7201 978.7201 978.7619 978.7619
   978.8327 978.8533 978.8533 978.8767 979.1236 979.2542 979.2542 979.4277
   979.5354 979.6522 979.6522 979.7368 979.9376 979.9448 979.9448 980.0068
   982.9339 982.9339 984.2992 984.3039 989.2336 989.2336 990.0190 990.3559
   990.9113 990.9113 991.0171 991.1576 994.0758 994.0758 994.1674 994.1936
   994.2403 994.2403 994.2548 994.3008 994.7451 994.7578 994.7669 994.7669
   995.0798 995.1931 995.1931 995.2937 995.4128 995.5000 995.5000 995.5422
   995.7990 995.7990 995.8148 995.83451009.24881009.36371009.36371009.5914
  1010.86521010.86521010.97301011.07261011.07261011.12081011.26241011.3704
  1011.42461011.48981011.48981011.68691011.81871011.85931011.85931011.9909
  1012.00201012.10031012.10031012.17571013.16181013.16181013.17621013.1999
  1013.47071013.47071013.78761013.98521014.01151014.02191014.02191014.1631
  1016.10801016.10801016.51391016.80261017.81641017.81641017.86471018.0272
  1021.30591021.30591021.58831021.60781024.02881024.39751024.39751024.6745
  1028.78861028.78861028.95111028.95281029.08731029.09731029.10411029.1041
  1029.18091029.18091029.19851029.21701029.30401029.31071029.31071029.3184
  1035.08411035.09721035.09941035.09941035.26931035.26951035.26951035.2723
  1043.67871043.67871043.71431043.82681044.85381044.85381044.97501045.0011
  1045.18581045.39141046.14471046.14471046.24641046.24641046.30531046.3075
  1046.30751046.38601046.43581046.44591046.44591046.52601047.16321047.1937
  1058.55521058.55521058.92881058.96601058.96601059.03311059.11701059.2045
  1060.41901060.41901060.72171060.77341061.17091061.17091061.18411061.2525
  1062.64381062.69861062.69861062.71521063.13551063.13551063.13691063.1838
  1063.26391063.29541063.29541063.30761063.32991063.35651063.35651063.4100
  1071.46381072.08451072.08451072.10171072.85721073.03381073.03381073.1028
  1077.33711077.33711077.36461077.50191077.66971077.66971077.73191077.7464
  1078.03351078.15851078.15851078.58551078.79141078.79141079.02831079.0694
  1079.09721079.32041079.32041079.37471081.86921081.91731081.91731081.9511
  1082.18081082.18741082.18741082.24081082.27451082.28251082.28251082.3144
  1082.32331082.32331082.33881082.36931082.36931082.37921082.38131082.3910
  1082.98061082.98061082.98401083.00981086.11291086.12671086.13621086.1362
  1086.61621086.61621086.62731086.63901095.37131095.37131095.49231095.6823
  1096.04931096.04931096.13001096.13991096.15931096.18441096.18441096.2008
  1097.29701097.30621097.30621097.31701098.14181098.14181098.14191098.1935
  1098.19351098.22641098.23811098.25781107.54901107.54901107.66841107.6691
  1110.58551111.39541112.36131112.36131112.51371112.51371112.51951112.5295
  1112.53581112.74881113.36541113.36541113.76581113.76581113.76831113.8011
  1114.46121114.46121114.54651114.54681115.29571115.30931115.53351115.5335
  1115.53611115.55381115.72331115.72331115.77031115.77241115.77391115.7783
  1115.77831115.79531120.81531120.82041120.82061120.82061128.77391128.7739
  1128.86111128.89141130.71781131.00761131.00761131.03741131.08371131.0837
  1131.17031131.18441131.93901131.93901131.99831132.00141132.00421132.0042
  1132.00571132.02331136.75631136.75631143.75121143.98531143.98531144.0434
  1147.95191147.95191148.49711148.61081148.61081148.64281148.69361148.7683
  1149.16631149.16631149.32281149.32321149.58911149.60191150.23811150.2381
  1154.23861154.23861154.31331154.32741158.96751159.26631159.67731159.6773
  1159.85641159.85641160.17251160.38171160.48831160.48831160.56581160.5951
  1161.08491161.25341161.25611161.25611163.09611163.09611163.10081163.1035
  1163.13341163.15381163.15381163.15901164.49261164.49261164.62421164.8149
  1164.81581164.82161164.82161164.85701166.48651166.51261166.51261166.5404
  1166.73871166.74611166.74611166.76731167.22561167.26901167.26901167.2851
  1167.62411167.62881167.62881167.63521170.99711170.99711171.81081171.8250
  1171.82501171.82531172.42581172.42821180.39001180.49791180.49791180.5488
  1182.30931182.31391182.31391182.34271182.86031182.86031182.86371182.8781
  1183.54221183.55601183.55601183.62471184.48541184.48541184.51251184.5997
  1184.60971184.61691184.64001184.64001184.87061184.87061184.87571184.8837
  1185.09781185.09781185.13331185.14871185.15191185.15191185.15861185.1659
  1195.91111195.91111196.04041196.05791196.06171196.20581196.20581196.2847
  1197.08191197.08191197.09951197.10931198.12161198.12161198.17351198.2429
  1200.46881200.47451200.47501200.47501201.16071201.16071201.16611201.1776
  1208.22801208.22801208.43361208.57711214.36951214.36951214.68541214.7493
  1216.24481216.27351216.27351216.29581216.31311216.31311216.46111216.4672
  1216.62251216.62251216.64541216.65141216.81001216.81001216.84341216.9513
  1217.70521217.75221217.75221217.75651218.56771218.56771218.60071218.6141
  1222.77181222.77181222.77381222.77961225.39011225.40491225.41891225.4189
  1230.54141230.54141230.82331230.90981232.12481232.26991232.26991232.3391
  1232.68851232.70551232.70551232.70621233.37391233.51401234.13721234.1372
  1234.21601234.22641234.22841234.22841234.30651234.30651234.50551234.5341
  1234.62451234.64791234.68501234.68501234.77701234.77701234.87451234.8901
  1234.91501234.91501235.00561235.00561235.01061235.03731235.43101235.4578
  1236.09971236.10691236.10691236.11041239.16211239.17691239.17691239.1919
  1244.28421244.38411244.41601244.41601247.42791247.42791247.46111247.4715
  1249.64921249.64921249.77911249.80391249.88461249.92261249.92261249.9314
  1252.87081252.87291252.87291252.87401253.18221253.18341253.18811253.1881
  1257.57361257.58041257.60231257.60231257.64681257.65341257.65341257.6670
  1260.87191260.95321260.95321260.97371264.72391264.72391264.77751264.8933
  1265.67361265.70431265.70431265.72531267.75421267.75421267.77111267.8400
  1268.38371268.38371268.40571268.42791274.64391274.64391274.64391274.6565
  1277.14791277.14791277.23041277.26831282.74861282.76351282.78311282.7831
  1282.87681282.87681283.00631283.01451283.23871283.24121283.31481283.3148
  1284.44981284.44981284.46951284.52131285.04921285.05341285.05891285.0589
  1285.42641285.65761285.65761285.66881285.69371285.72321285.72321285.7731
  1285.77311285.77831285.79471285.82281285.86991285.88151285.89381285.8938
  1287.41821287.43121287.43121287.44171287.58301287.58301287.62561287.6802
  1290.78601290.79451290.79521290.79521296.87161296.91421296.93071296.9307
  1300.22851300.22851300.28791300.34761300.56361300.57121300.57411300.5741
  1301.62701301.65901301.65901301.68201301.68201301.70421301.71201301.7152
  1308.08331308.14401308.14401308.30631315.80631315.80631315.83941315.8820
  1315.88751315.92141315.92141315.94041317.20981317.31871317.31871317.3690
  1317.64391317.64831318.21081318.21081318.22381318.24161318.74471318.7447
  1319.25491319.25491319.30011319.32251319.40651319.55061320.25411320.2551
  1320.25511320.27811320.50011320.52031320.52031320.55831320.59681320.6211
  1320.63011320.63011320.73531320.73531320.75371320.77811321.09091321.0909
  1321.24661321.24731321.24981321.24981321.33451321.36871321.43111321.4312
  1321.46891321.46891321.71471321.71751321.73041321.73041325.55741325.5623
  1325.56531325.56531329.07161329.07161329.09081329.09321331.56421331.5642
  1331.70131331.78321331.78321331.80491331.81841331.89041332.58091332.6275
  1332.62751332.73471333.05161333.05161333.11721333.12821333.71191333.7618
  1333.76181333.81381334.42271334.45771334.45771334.48851336.33981336.3575
  1336.35751336.39601336.39601336.40121336.48921336.49701336.49701336.5413
  1336.89351336.92741337.51021337.53831337.53831337.55791337.67871337.6787
  1337.69731337.69901337.77121337.78661337.81481337.81481338.00721338.0244
  1338.23111338.23111338.69601338.69601338.71131338.74081341.95531341.9553
  1342.90071342.90071342.90201342.90461343.67441343.67891343.67891343.6812
  1351.92321351.94261351.94261351.94301353.55231353.55231353.59951353.6052
  1354.19091354.19091354.19181354.19581354.59731354.60401354.60401354.6109
  1354.63001354.63001354.63721354.63921355.91851355.91851355.92611355.9311
  1355.93111355.93371355.93421355.94551364.34031364.37841364.78101364.7810
  1370.85971370.86081370.86081370.88021370.89151370.89501370.89501370.9383
  1371.10141371.11791371.11791371.14051371.14111371.14111371.15551371.1803
  1371.46101371.46101371.50961371.55751372.52891372.54341372.56461372.5646
  1376.24911376.24911377.63581377.63611385.22401385.22401385.23901385.2397
  1386.26191386.26191386.27821386.28451386.79161386.81171386.82111386.8211
  1388.21391388.21961388.21961388.23031388.23031388.23961388.24131388.2548

     the Fermi energy is    10.8742 ev
     (compare with:    11.0098 eV, computed in scf)

     Writing all to output data dir out/mp-1265.save/
 
     init_run     :      0.07s CPU      0.08s WALL (       1 calls)
     electrons    :   4245.65s CPU   4558.18s WALL (       1 calls)

     Called by init_run:
     wfcinit      :      0.00s CPU      0.00s WALL (       1 calls)
     potinit      :      0.01s CPU      0.02s WALL (       1 calls)
     hinit0       :      0.01s CPU      0.02s WALL (       1 calls)

     Called by electrons:
     c_bands      :   4245.64s CPU   4558.17s WALL (       1 calls)
     v_of_rho     :      0.01s CPU      0.01s WALL (       1 calls)

     Called by c_bands:
     init_us_2    :      0.00s CPU      0.00s WALL (       8 calls)
     init_us_2:cp :      0.00s CPU      0.00s WALL (       8 calls)
     paro_k       :   4106.43s CPU   4408.21s WALL (       8 calls)

     Called by paro_*:
     h_psi        :     33.38s CPU     34.36s WALL (    1306 calls)
     g_psi        :      0.57s CPU      0.65s WALL (  138123 calls)

     Called by h_psi:
     h_psi:calbec :      0.43s CPU      0.45s WALL (    1306 calls)
     vloc_psi     :     32.47s CPU     33.40s WALL (    1306 calls)
     add_vuspsi   :      0.29s CPU      0.30s WALL (    1306 calls)

     General routines
     calbec       :      0.43s CPU      0.45s WALL (    1306 calls)
     fft          :      0.01s CPU      0.01s WALL (      10 calls)
     fftw         :     29.54s CPU     30.36s WALL (  226114 calls)
 
     Parallel routines
 
     PWSCF        :      1h10m CPU      1h16m WALL

 
   This run was terminated on:  21:11:16  14Nov2023            

=------------------------------------------------------------------------------=
   JOB DONE.
=------------------------------------------------------------------------------=
