
     Program PWSCF v.7.1 starts on 14Nov2023 at 19:51:56 

     This program is part of the open-source Quantum ESPRESSO suite
     for quantum simulation of materials; please cite
         "P. Giannozzi et al., J. Phys.:Condens. Matter 21 395502 (2009);
         "P. Giannozzi et al., J. Phys.:Condens. Matter 29 465901 (2017);
         "P. Giannozzi et al., J. Chem. Phys. 152 154105 (2020);
          URL http://www.quantum-espresso.org", 
     in publications or presentations arising from this work. More details at
     http://www.quantum-espresso.org/quote

     Parallel version (MPI), running on     8 processors

     MPI processes distributed on     1 nodes
     123544 MiB available memory on the printing compute node when the environment starts
 
     Reading input from pw_mp-1265_scf_k3000_E164.in
Warning: card &CELL ignored
Warning: card / ignored

     Current dimensions of program PWSCF are:
     Max number of different atomic species (ntypx) = 10
     Max number of k-points (npk) =  40000
     Max angular momentum in pseudopotentials (lmaxx) =  4
 
     R & G space division:  proc/nbgrp/npool/nimage =       8
     Subspace diagonalization in iterative solution of the eigenvalue problem:
     a serial algorithm will be used

 
     Parallelization info
     --------------------
     sticks:   dense  smooth     PW     G-vecs:    dense   smooth      PW
     Min         177     177     52                 4417     4417     698
     Max         178     178     53                 4420     4420     701
     Sum        1417    1417    421                35341    35341    5601
 
     Using Slab Decomposition
 


     bravais-lattice index     =            2
     lattice parameter (alat)  =       7.9255  a.u.
     unit-cell volume          =     124.4580 (a.u.)^3
     number of atoms/cell      =            2
     number of atomic types    =            2
     number of electrons       =        16.00
     number of Kohn-Sham states=           16
     kinetic-energy cutoff     =     164.0000  Ry
     charge density cutoff     =     656.0000  Ry
     scf convergence threshold =      1.0E-10
     mixing beta               =       0.7000
     number of iterations used =            8  plain     mixing
     Exchange-correlation= PBE
                           (   1   4   3   4   0   0   0)

     celldm(1)=   7.925516  celldm(2)=   0.000000  celldm(3)=   0.000000
     celldm(4)=   0.000000  celldm(5)=   0.000000  celldm(6)=   0.000000

     crystal axes: (cart. coord. in units of alat)
               a(1) = (  -0.500000   0.000000   0.500000 )  
               a(2) = (   0.000000   0.500000   0.500000 )  
               a(3) = (  -0.500000   0.500000   0.000000 )  

     reciprocal axes: (cart. coord. in units 2 pi/alat)
               b(1) = ( -1.000000 -1.000000  1.000000 )  
               b(2) = (  1.000000  1.000000  1.000000 )  
               b(3) = ( -1.000000  1.000000 -1.000000 )  


     PseudoPot. # 1 for Mg read from file:
     /usr/scratch4/magr4985/MG/HTDF/pseudo/SG15/Mg.upf
     MD5 check sum: 330956729b1f868fdecd9f5113f6a961
     Pseudo is Norm-conserving, Zval = 10.0
     Generated using ONCVPSP code by D. R. Hamann
     Using radial grid of  602 points,  4 beta functions with: 
                l(1) =   0
                l(2) =   0
                l(3) =   1
                l(4) =   1

     PseudoPot. # 2 for O  read from file:
     /usr/scratch4/magr4985/MG/HTDF/pseudo/SG15/O.upf
     MD5 check sum: e36c48deb68f4e355fffe4602be2c42c
     Pseudo is Norm-conserving, Zval =  6.0
     Generated using ONCVPSP code by D. R. Hamann
     Using radial grid of  602 points,  4 beta functions with: 
                l(1) =   0
                l(2) =   0
                l(3) =   1
                l(4) =   1

     atomic species   valence    mass     pseudopotential
        Mg            10.00    24.30500     Mg( 1.00)
        O              6.00    15.99940     O ( 1.00)

     48 Sym. Ops., with inversion, found



   Cartesian axes

     site n.     atom                  positions (alat units)
         1           Mg  tau(   1) = (   0.0000000   0.0000000   0.0000000  )
         2           O   tau(   2) = (  -0.5000000   0.5000000   0.5000000  )

     number of k points=    72  Gaussian smearing, width (Ry)=  0.0005
                       cart. coord. in units 2pi/alat
        k(    1) = (   0.0000000   0.0000000   0.0000000), wk =   0.0011574
        k(    2) = (  -0.0833333   0.0833333  -0.0833333), wk =   0.0092593
        k(    3) = (  -0.1666667   0.1666667  -0.1666667), wk =   0.0092593
        k(    4) = (  -0.2500000   0.2500000  -0.2500000), wk =   0.0092593
        k(    5) = (  -0.3333333   0.3333333  -0.3333333), wk =   0.0092593
        k(    6) = (  -0.4166667   0.4166667  -0.4166667), wk =   0.0092593
        k(    7) = (   0.5000000  -0.5000000   0.5000000), wk =   0.0046296
        k(    8) = (   0.0000000   0.1666667   0.0000000), wk =   0.0069444
        k(    9) = (  -0.0833333   0.2500000  -0.0833333), wk =   0.0277778
        k(   10) = (  -0.1666667   0.3333333  -0.1666667), wk =   0.0277778
        k(   11) = (  -0.2500000   0.4166667  -0.2500000), wk =   0.0277778
        k(   12) = (  -0.3333333   0.5000000  -0.3333333), wk =   0.0277778
        k(   13) = (   0.5833333  -0.4166667   0.5833333), wk =   0.0277778
        k(   14) = (   0.5000000  -0.3333333   0.5000000), wk =   0.0277778
        k(   15) = (   0.4166667  -0.2500000   0.4166667), wk =   0.0277778
        k(   16) = (   0.3333333  -0.1666667   0.3333333), wk =   0.0277778
        k(   17) = (   0.2500000  -0.0833333   0.2500000), wk =   0.0277778
        k(   18) = (   0.1666667  -0.0000000   0.1666667), wk =   0.0138889
        k(   19) = (   0.0000000   0.3333333   0.0000000), wk =   0.0069444
        k(   20) = (  -0.0833333   0.4166667  -0.0833333), wk =   0.0277778
        k(   21) = (  -0.1666667   0.5000000  -0.1666667), wk =   0.0277778
        k(   22) = (  -0.2500000   0.5833333  -0.2500000), wk =   0.0277778
        k(   23) = (   0.6666667  -0.3333333   0.6666667), wk =   0.0277778
        k(   24) = (   0.5833333  -0.2500000   0.5833333), wk =   0.0277778
        k(   25) = (   0.5000000  -0.1666667   0.5000000), wk =   0.0277778
        k(   26) = (   0.4166667  -0.0833333   0.4166667), wk =   0.0277778
        k(   27) = (   0.3333333   0.0000000   0.3333333), wk =   0.0138889
        k(   28) = (   0.0000000   0.5000000   0.0000000), wk =   0.0069444
        k(   29) = (  -0.0833333   0.5833333  -0.0833333), wk =   0.0277778
        k(   30) = (  -0.1666667   0.6666667  -0.1666667), wk =   0.0277778
        k(   31) = (   0.7500000  -0.2500000   0.7500000), wk =   0.0277778
        k(   32) = (   0.6666667  -0.1666667   0.6666667), wk =   0.0277778
        k(   33) = (   0.5833333  -0.0833333   0.5833333), wk =   0.0277778
        k(   34) = (   0.5000000   0.0000000   0.5000000), wk =   0.0138889
        k(   35) = (   0.0000000   0.6666667   0.0000000), wk =   0.0069444
        k(   36) = (  -0.0833333   0.7500000  -0.0833333), wk =   0.0277778
        k(   37) = (   0.8333333  -0.1666667   0.8333333), wk =   0.0277778
        k(   38) = (   0.7500000  -0.0833333   0.7500000), wk =   0.0277778
        k(   39) = (   0.6666667  -0.0000000   0.6666667), wk =   0.0138889
        k(   40) = (   0.0000000   0.8333333   0.0000000), wk =   0.0069444
        k(   41) = (   0.9166667  -0.0833333   0.9166667), wk =   0.0277778
        k(   42) = (   0.8333333   0.0000000   0.8333333), wk =   0.0138889
        k(   43) = (   0.0000000  -1.0000000   0.0000000), wk =   0.0034722
        k(   44) = (  -0.1666667   0.3333333   0.0000000), wk =   0.0277778
        k(   45) = (  -0.2500000   0.4166667  -0.0833333), wk =   0.0555556
        k(   46) = (  -0.3333333   0.5000000  -0.1666667), wk =   0.0555556
        k(   47) = (   0.5833333  -0.4166667   0.7500000), wk =   0.0555556
        k(   48) = (   0.5000000  -0.3333333   0.6666667), wk =   0.0277778
        k(   49) = (  -0.1666667   0.5000000   0.0000000), wk =   0.0277778
        k(   50) = (  -0.2500000   0.5833333  -0.0833333), wk =   0.0555556
        k(   51) = (   0.6666667  -0.3333333   0.8333333), wk =   0.0555556
        k(   52) = (   0.5833333  -0.2500000   0.7500000), wk =   0.0555556
        k(   53) = (   0.5000000  -0.1666667   0.6666667), wk =   0.0555556
        k(   54) = (   0.4166667  -0.0833333   0.5833333), wk =   0.0555556
        k(   55) = (   0.3333333   0.0000000   0.5000000), wk =   0.0277778
        k(   56) = (  -0.1666667   0.6666667  -0.0000000), wk =   0.0277778
        k(   57) = (   0.7500000  -0.2500000   0.9166667), wk =   0.0555556
        k(   58) = (   0.6666667  -0.1666667   0.8333333), wk =   0.0555556
        k(   59) = (   0.5833333  -0.0833333   0.7500000), wk =   0.0555556
        k(   60) = (   0.5000000   0.0000000   0.6666667), wk =   0.0277778
        k(   61) = (   0.8333333  -0.1666667   1.0000000), wk =   0.0277778
        k(   62) = (   0.7500000  -0.0833333   0.9166667), wk =   0.0555556
        k(   63) = (   0.6666667   0.0000000   0.8333333), wk =   0.0277778
        k(   64) = (  -0.1666667  -1.0000000  -0.0000000), wk =   0.0138889
        k(   65) = (   0.6666667  -0.3333333   1.0000000), wk =   0.0277778
        k(   66) = (   0.5833333  -0.2500000   0.9166667), wk =   0.0555556
        k(   67) = (   0.5000000  -0.1666667   0.8333333), wk =   0.0277778
        k(   68) = (   0.6666667  -0.1666667   1.0000000), wk =   0.0277778
        k(   69) = (   0.5833333  -0.0833333   0.9166667), wk =   0.0555556
        k(   70) = (   0.5000000   0.0000000   0.8333333), wk =   0.0277778
        k(   71) = (  -0.3333333  -1.0000000   0.0000000), wk =   0.0138889
        k(   72) = (  -0.5000000  -1.0000000   0.0000000), wk =   0.0069444

     Dense  grid:    35341 G-vectors     FFT dimensions: (  45,  45,  45)

     Estimated max dynamical RAM per process >       4.84 MB

     Estimated total dynamical RAM >      38.71 MB

     Initial potential from superposition of free atoms

     starting charge      15.9336, renormalised to      16.0000
     Starting wfcs are random

     total cpu time spent up to now is        0.6 secs

     Self-consistent Calculation

     iteration #  1     ecut=   164.00 Ry     beta= 0.70
     Davidson diagonalization with overlap
     ethr =  1.00E-02,  avg # of iterations =  7.7

     total cpu time spent up to now is        3.9 secs

     total energy              =    -140.69943480 Ry
     estimated scf accuracy    <       0.36439154 Ry

     iteration #  2     ecut=   164.00 Ry     beta= 0.70
     Davidson diagonalization with overlap
     ethr =  2.28E-03,  avg # of iterations =  2.0

     total cpu time spent up to now is        5.1 secs

     total energy              =    -140.79408570 Ry
     estimated scf accuracy    <       0.29811188 Ry

     iteration #  3     ecut=   164.00 Ry     beta= 0.70
     Davidson diagonalization with overlap
     ethr =  1.86E-03,  avg # of iterations =  1.7

     total cpu time spent up to now is        6.3 secs

     total energy              =    -140.85282732 Ry
     estimated scf accuracy    <       0.00155166 Ry

     iteration #  4     ecut=   164.00 Ry     beta= 0.70
     Davidson diagonalization with overlap
     ethr =  9.70E-06,  avg # of iterations =  5.3

     total cpu time spent up to now is        7.8 secs

     total energy              =    -140.85318876 Ry
     estimated scf accuracy    <       0.00001622 Ry

     iteration #  5     ecut=   164.00 Ry     beta= 0.70
     Davidson diagonalization with overlap
     ethr =  1.01E-07,  avg # of iterations =  2.1

     total cpu time spent up to now is        9.0 secs

     total energy              =    -140.85319187 Ry
     estimated scf accuracy    <       0.00000149 Ry

     iteration #  6     ecut=   164.00 Ry     beta= 0.70
     Davidson diagonalization with overlap
     ethr =  9.33E-09,  avg # of iterations =  2.0

     total cpu time spent up to now is       10.2 secs

     total energy              =    -140.85319214 Ry
     estimated scf accuracy    <       0.00000015 Ry

     iteration #  7     ecut=   164.00 Ry     beta= 0.70
     Davidson diagonalization with overlap
     ethr =  9.22E-10,  avg # of iterations =  1.0

     total cpu time spent up to now is       11.3 secs

     total energy              =    -140.85319215 Ry
     estimated scf accuracy    <          3.5E-09 Ry

     iteration #  8     ecut=   164.00 Ry     beta= 0.70
     Davidson diagonalization with overlap
     ethr =  2.20E-11,  avg # of iterations =  2.0

     total cpu time spent up to now is       12.5 secs

     total energy              =    -140.85319215 Ry
     estimated scf accuracy    <          1.2E-10 Ry

     iteration #  9     ecut=   164.00 Ry     beta= 0.70
     Davidson diagonalization with overlap
     ethr =  7.54E-13,  avg # of iterations =  1.5

     total cpu time spent up to now is       13.6 secs

     End of self-consistent calculation

          k = 0.0000 0.0000 0.0000 (  4477 PWs)   bands (ev):

   -63.3966 -30.1615 -30.1615 -30.1615  -8.3449   8.9259   8.9259   8.9259
    13.8203  24.9022  24.9022  24.9022  28.7411  30.7343  30.7343  33.5286

          k =-0.0833 0.0833-0.0833 (  4423 PWs)   bands (ev):

   -63.3960 -30.1676 -30.1621 -30.1621  -8.2672   8.4585   8.8781   8.8781
    14.2706  23.9167  25.0740  25.0740  30.0462  30.1612  30.1612  33.5028

          k =-0.1667 0.1667-0.1667 (  4429 PWs)   bands (ev):

   -63.3943 -30.1841 -30.1638 -30.1638  -8.0475   7.4193   8.7506   8.7506
    15.2316  22.5239  25.4802  25.4802  29.4187  29.4187  31.4398  34.4288

          k =-0.2500 0.2500-0.2500 (  4420 PWs)   bands (ev):

   -63.3920 -30.2066 -30.1660 -30.1660  -7.7275   6.2613   8.5831   8.5831
    16.1634  21.6238  25.7709  25.7709  29.3286  29.3286  31.1967  37.0134

          k =-0.3333 0.3333-0.3333 (  4419 PWs)   bands (ev):

   -63.3897 -30.2289 -30.1683 -30.1683  -7.3796   5.2390   8.4226   8.4226
    16.7286  21.3798  25.7034  25.7034  30.0877  30.0877  30.6470  38.4338

          k =-0.4167 0.4167-0.4167 (  4407 PWs)   bands (ev):

   -63.3880 -30.2452 -30.1700 -30.1700  -7.1028   4.5322   8.3090   8.3090
    16.9133  21.5552  25.5195  25.5195  30.2454  31.1582  31.1582  38.0713

          k = 0.5000-0.5000 0.5000 (  4446 PWs)   bands (ev):

   -63.3874 -30.2511 -30.1706 -30.1706  -6.9959   4.2780   8.2683   8.2683
    16.9388  21.6855  25.4392  25.4392  30.1053  31.6932  31.6932  37.7784

          k = 0.0000 0.1667 0.0000 (  4436 PWs)   bands (ev):

   -63.3958 -30.1672 -30.1635 -30.1635  -8.2419   8.4049   8.8174   8.8174
    14.4166  23.6242  25.1441  25.1441  29.2063  30.4913  30.9507  33.8656

          k =-0.0833 0.2500-0.0833 (  4434 PWs)   bands (ev):

   -63.3944 -30.1794 -30.1658 -30.1645  -8.0714   7.6332   8.6809   8.7097
    15.2004  22.5006  25.4612  25.4774  28.1864  30.7103  32.0646  34.3573

          k =-0.1667 0.3333-0.1667 (  4427 PWs)   bands (ev):

   -63.3923 -30.1995 -30.1685 -30.1663  -7.7872   6.5849   8.5105   8.5394
    16.1586  21.5643  25.6006  25.8057  27.8905  30.4977  32.2448  36.5415

          k =-0.2500 0.4167-0.2500 (  4410 PWs)   bands (ev):

   -63.3900 -30.2213 -30.1707 -30.1690  -7.4501   5.5725   8.3336   8.3532
    16.8839  21.1967  25.2432  25.8693  28.6373  30.9071  31.7964  38.6545

          k =-0.3333 0.5000-0.3333 (  4407 PWs)   bands (ev):

   -63.3882 -30.2391 -30.1720 -30.1718  -7.1489   4.7940   8.1483   8.2475
    17.1972  21.3566  24.8523  25.7361  29.7671  31.4403  31.6517  38.5612

          k = 0.5833-0.4167 0.5833 (  4420 PWs)   bands (ev):

   -63.3872 -30.2482 -30.1740 -30.1720  -6.9833   4.4028   8.0289   8.2170
    17.2668  21.5953  24.6596  25.6237  30.6448  31.3778  31.9106  38.4413

          k = 0.5000-0.3333 0.5000 (  4414 PWs)   bands (ev):

   -63.3874 -30.2463 -30.1750 -30.1706  -7.0180   4.4852   8.0017   8.2684
    17.2637  21.5512  24.6946  25.6573  30.9811  31.0906  31.4875  38.5510

          k = 0.4167-0.2500 0.4167 (  4421 PWs)   bands (ev):

   -63.3887 -30.2338 -30.1744 -30.1683  -7.2387   5.0216   8.0742   8.3909
    17.1443  21.3051  24.9261  25.8635  29.6804  30.8664  31.5674  38.7629

          k = 0.3333-0.1667 0.3333 (  4432 PWs)   bands (ev):

   -63.3908 -30.2142 -30.1724 -30.1656  -7.5629   5.8949   8.2350   8.5564
    16.6903  21.3115  25.2339  26.1143  28.4611  30.2850  31.9774  37.5652

          k = 0.2500-0.0833 0.2500 (  4422 PWs)   bands (ev):

   -63.3931 -30.1928 -30.1693 -30.1633  -7.8910   6.9303   8.4555   8.7228
    15.8375  21.9062  25.3837  25.9129  28.2415  29.9793  32.2902  35.4483

          k = 0.1667-0.0000 0.1667 (  4431 PWs)   bands (ev):

   -63.3950 -30.1756 -30.1655 -30.1621  -8.1427   7.8931   8.6954   8.8427
    14.8797  22.9696  25.2583  25.3710  29.0242  30.1889  31.4102  34.2856

          k = 0.0000 0.3333 0.0000 (  4428 PWs)   bands (ev):

   -63.3935 -30.1824 -30.1689 -30.1689  -7.9584   7.3421   8.5370   8.5370
    15.7143  21.7575  25.7767  25.7767  26.8404  31.5932  33.7740  34.8913

          k =-0.0833 0.4167-0.0833 (  4432 PWs)   bands (ev):

   -63.3918 -30.1965 -30.1722 -30.1714  -7.7296   6.6342   8.3408   8.3631
    16.5438  20.9586  25.3921  26.1432  26.6656  31.7434  34.3947  36.2415

          k =-0.1667 0.5000-0.1667 (  4417 PWs)   bands (ev):

   -63.3897 -30.2147 -30.1749 -30.1745  -7.4332   5.8321   8.0571   8.2066
    17.3756  20.5726  24.4393  26.3183  27.4913  31.9956  34.0986  37.8692

          k =-0.2500 0.5833-0.2500 (  4407 PWs)   bands (ev):

   -63.3878 -30.2308 -30.1787 -30.1762  -7.1429   5.1482   7.7410   8.1049
    17.8692  20.7910  23.7483  26.2550  28.3602  32.5056  33.8059  38.0321

          k = 0.6667-0.3333 0.6667 (  4412 PWs)   bands (ev):

   -63.3866 -30.2406 -30.1830 -30.1758  -6.9471   4.7340   7.4801   8.0808
    18.0386  21.2669  23.3728  26.1227  29.1285  32.5763  33.5707  38.3702

          k = 0.5833-0.2500 0.5833 (  4409 PWs)   bands (ev):

   -63.3865 -30.2416 -30.1859 -30.1737  -6.9160   4.6872   7.3415   8.1394
    18.0958  21.4257  23.3195  26.0848  29.8525  31.5316  33.4306  38.9734

          k = 0.5000-0.1667 0.5000 (  4414 PWs)   bands (ev):

   -63.3874 -30.2339 -30.1863 -30.1706  -7.0615   5.0121   7.3682   8.2687
    18.0309  21.1627  23.6047  26.2344  29.8519  30.4572  33.4879  38.8710

          k = 0.4167-0.0833 0.4167 (  4417 PWs)   bands (ev):

   -63.3891 -30.2203 -30.1836 -30.1673  -7.3292   5.6053   7.5855   8.4390
    17.6124  20.9630  24.1767  26.6150  28.2030  30.6128  33.6719  37.6101

          k = 0.3333 0.0000 0.3333 (  4419 PWs)   bands (ev):

   -63.3912 -30.2052 -30.1773 -30.1646  -7.6325   6.2955   7.9849   8.6066
    16.7648  21.2522  24.8647  26.7760  27.3551  30.3321  33.4896  36.0202

          k = 0.0000 0.5000 0.0000 (  4432 PWs)   bands (ev):

   -63.3905 -30.2020 -30.1764 -30.1764  -7.5660   6.2892   8.1864   8.1864
    17.1564  20.1932  24.6396  26.5861  26.5861  32.6353  36.5859  36.5859

          k =-0.0833 0.5833-0.0833 (  4429 PWs)   bands (ev):

   -63.3887 -30.2140 -30.1803 -30.1797  -7.3318   5.7796   7.9268   8.0282
    17.9058  19.7113  23.6808  26.8889  27.1282  33.1231  36.6755  37.0905

          k =-0.1667 0.6667-0.1667 (  4416 PWs)   bands (ev):

   -63.3871 -30.2255 -30.1860 -30.1814  -7.0841   5.3391   7.4929   7.9263
    18.5054  19.8711  22.9187  26.9265  27.6399  33.6068  36.5120  36.9458

          k = 0.7500-0.2500 0.7500 (  4415 PWs)   bands (ev):

   -63.3859 -30.2323 -30.1931 -30.1810  -6.8933   5.0926   7.0022   7.9031
    18.7469  20.6395  22.4070  26.7930  27.9577  33.7022  36.0299  37.3512

          k = 0.6667-0.1667 0.6667 (  4420 PWs)   bands (ev):

   -63.3855 -30.2327 -30.1994 -30.1786  -6.8214   5.0851   6.6261   7.9636
    18.9259  21.2035  22.1873  26.6525  28.3617  32.5750  35.6523  37.9576

          k = 0.5833-0.0833 0.5833 (  4415 PWs)   bands (ev):

   -63.3861 -30.2287 -30.2014 -30.1748  -6.8933   5.2432   6.5515   8.0956
    18.9796  21.0739  22.4500  26.6121  29.2007  30.7643  35.4329  38.2137

          k = 0.5000 0.0000 0.5000 (  4403 PWs)   bands (ev):

   -63.3874 -30.2245 -30.1953 -30.1707  -7.0830   5.4122   6.9199   8.2688
    18.5460  20.8260  23.1624  26.6844  29.1113  30.1690  34.9833  37.9653

          k = 0.0000 0.6667 0.0000 (  4424 PWs)   bands (ev):

   -63.3874 -30.2203 -30.1838 -30.1838  -7.1691   5.4783   7.8668   7.8668
    18.3881  19.0516  22.9906  27.3565  27.3565  34.0013  36.2860  38.6424

          k =-0.0833 0.7500-0.0833 (  4409 PWs)   bands (ev):

   -63.3861 -30.2276 -30.1885 -30.1862  -6.9864   5.2048   7.5810   7.7612
    18.7416  19.0379  22.4474  27.5452  27.6441  34.6803  35.8930  38.8828

          k = 0.8333-0.1667 0.8333 (  4403 PWs)   bands (ev):

   -63.3851 -30.2304 -30.1967 -30.1862  -6.8343   5.1324   7.0210   7.7342
    18.8208  19.8946  22.0320  27.4552  27.6317  35.1462  36.0145  38.2518

          k = 0.7500-0.0833 0.7500 (  4406 PWs)   bands (ev):

   -63.3848 -30.2265 -30.2075 -30.1837  -6.7582   5.3365   6.3403   7.7916
    19.1025  20.8446  21.6710  27.2135  27.5277  34.2530  36.5979  37.6507

          k = 0.6667-0.0000 0.6667 (  4426 PWs)   bands (ev):

   -63.3851 -30.2198 -30.2153 -30.1796  -6.7807   5.6867   5.8503   7.9218
    19.3482  21.2517  21.6456  26.9262  28.0008  32.3600  36.8117  37.4296

          k = 0.0000 0.8333 0.0000 (  4416 PWs)   bands (ev):

   -63.3852 -30.2330 -30.1893 -30.1893  -6.8769   4.9899   7.6495   7.6495
    18.3608  19.0192  22.2403  27.9150  27.9150  35.1530  35.4492  39.9251

          k = 0.9167-0.0833 0.9167 (  4397 PWs)   bands (ev):

   -63.3846 -30.2349 -30.1934 -30.1900  -6.7877   4.9306   7.3842   7.6155
    18.3832  19.3140  22.0924  27.9021  27.9417  35.0661  36.0966  38.8761

          k = 0.8333 0.0000 0.8333 (  4396 PWs)   bands (ev):

   -63.3844 -30.2313 -30.2013 -30.1879  -6.7447   5.0972   6.8264   7.6663
    18.7361  20.0132  21.8757  27.5621  27.6726  35.6869  36.4474  36.8697

          k = 0.0000-1.0000 0.0000 (  4360 PWs)   bands (ev):

   -63.3844 -30.2374 -30.1914 -30.1914  -6.7699   4.8300   7.5731   7.5731
    18.1298  19.1067  22.1556  28.1220  28.1220  34.6564  36.2061  40.0874

          k =-0.1667 0.3333 0.0000 (  4439 PWs)   bands (ev):

   -63.3929 -30.1909 -30.1712 -30.1655  -7.8705   6.9772   8.3811   8.6279
    15.9955  21.6437  25.4145  26.0281  27.3123  30.8190  33.3051  35.2072

          k =-0.2500 0.4167-0.0833 (  4426 PWs)   bands (ev):

   -63.3908 -30.2083 -30.1761 -30.1673  -7.5799   6.1435   8.0581   8.4807
    16.9133  21.0261  24.8896  26.4102  27.4182  30.9689  33.4993  36.7617

          k =-0.3333 0.5000-0.1667 (  4411 PWs)   bands (ev):

   -63.3887 -30.2262 -30.1795 -30.1701  -7.2669   5.3476   7.7990   8.3094
    17.5671  20.9476  24.2539  26.1995  28.5202  31.3390  33.2186  38.5968

          k = 0.5833-0.4167 0.7500 (  4418 PWs)   bands (ev):

   -63.3872 -30.2395 -30.1811 -30.1728  -7.0207   4.7758   7.6356   8.1767
    17.8099  21.2822  23.8154  25.9709  29.6912  31.4745  33.1072  38.7752

          k = 0.5000-0.3333 0.6667 (  4422 PWs)   bands (ev):

   -63.3866 -30.2444 -30.1815 -30.1739  -6.9263   4.5671   7.5802   8.1271
    17.8504  21.4876  23.6662  25.8815  30.3032  31.3177  33.1647  39.0196

          k =-0.1667 0.5000 0.0000 (  4427 PWs)   bands (ev):

   -63.3901 -30.2078 -30.1789 -30.1730  -7.4969   6.0938   7.9899   8.2558
    17.3505  20.3604  24.4363  26.6584  26.8683  32.1438  35.5326  36.6197

          k =-0.2500 0.5833-0.0833 (  4424 PWs)   bands (ev):

   -63.3882 -30.2209 -30.1846 -30.1755  -7.2255   5.5470   7.6006   8.0939
    18.1546  20.2004  23.5324  26.5800  27.7346  32.4134  35.6194  37.6162

          k = 0.6667-0.3333 0.8333 (  4411 PWs)   bands (ev):

   -63.3866 -30.2314 -30.1890 -30.1780  -6.9881   5.1256   7.2375   7.9673
    18.5739  20.6559  22.8928  26.3494  28.5466  32.4371  35.5113  37.8209

          k = 0.5833-0.2500 0.7500 (  4407 PWs)   bands (ev):

   -63.3859 -30.2362 -30.1926 -30.1784  -6.8598   4.9295   6.9797   7.9366
    18.7117  21.1890  22.5811  26.1660  29.1792  31.9101  35.4491  38.0132

          k = 0.5000-0.1667 0.6667 (  4414 PWs)   bands (ev):

   -63.3861 -30.2344 -30.1943 -30.1763  -6.8863   5.0025   6.9056   8.0093
    18.7497  21.1661  22.6545  26.1813  29.7155  30.9241  35.2277  38.3442

          k = 0.4167-0.0833 0.5833 (  4417 PWs)   bands (ev):

   -63.3872 -30.2273 -30.1924 -30.1729  -7.0575   5.2960   7.0768   8.1597
    18.5514  20.7560  23.1347  26.3984  29.0275  30.8778  35.1036  38.3109

          k = 0.3333 0.0000 0.5000 (  4416 PWs)   bands (ev):

   -63.3889 -30.2178 -30.1858 -30.1695  -7.3143   5.7011   7.5009   8.3385
    17.8567  20.6672  23.9350  26.7041  27.7584  31.1439  34.7824  37.2024

          k =-0.1667 0.6667-0.0000 (  4409 PWs)   bands (ev):

   -63.3872 -30.2222 -30.1866 -30.1819  -7.1234   5.4406   7.6346   7.8678
    18.6136  19.3721  22.9138  26.9818  27.6482  33.6539  36.6661  38.0661

          k = 0.7500-0.2500 0.9167 (  4413 PWs)   bands (ev):

   -63.3859 -30.2279 -30.1933 -30.1842  -6.9264   5.2403   7.1682   7.7335
    19.0770  19.7946  22.2980  26.6871  28.2233  33.7498  36.7452  37.7329

          k = 0.6667-0.1667 0.8333 (  4406 PWs)   bands (ev):

   -63.3851 -30.2286 -30.2015 -30.1841  -6.7986   5.2557   6.6102   7.7129
    19.2591  20.7231  21.8651  26.2875  28.5865  33.2211  36.8871  37.5096

          k = 0.5833-0.0833 0.7500 (  4409 PWs)   bands (ev):

   -63.3851 -30.2251 -30.2083 -30.1814  -6.7806   5.4363   6.2045   7.8013
    19.4734  21.1183  21.7658  26.1288  29.0137  31.8917  37.0193  37.4897

          k = 0.5000 0.0000 0.6667 (  4419 PWs)   bands (ev):

   -63.3859 -30.2249 -30.2048 -30.1771  -6.8776   5.4091   6.4124   7.9675
    19.3602  20.8043  22.2591  26.2833  29.8516  30.3041  36.5409  37.7776

          k = 0.8333-0.1667 1.0000 (  4403 PWs)   bands (ev):

   -63.3851 -30.2313 -30.1923 -30.1891  -6.8520   5.0754   7.3935   7.5737
    18.7605  19.3753  22.1099  27.2291  28.2024  35.0096  35.8897  38.2620

          k = 0.7500-0.0833 0.9167 (  4397 PWs)   bands (ev):

   -63.3846 -30.2298 -30.2000 -30.1894  -6.7587   5.1653   6.8712   7.5264
    19.0315  20.0972  21.8093  26.6116  28.5312  34.9350  35.9913  37.2970

          k = 0.6667 0.0000 0.8333 (  4396 PWs)   bands (ev):

   -63.3846 -30.2230 -30.2106 -30.1863  -6.7330   5.4828   6.2140   7.6225
    19.4037  20.9686  21.4650  26.1300  28.6641  33.5797  36.2931  37.7807

          k =-0.1667-1.0000-0.0000 (  4386 PWs)   bands (ev):

   -63.3844 -30.2343 -30.1944 -30.1919  -6.7536   4.9646   7.3087   7.4625
    18.5542  19.5227  22.0037  27.2884  28.4060  35.0996  36.6129  37.3180

          k = 0.6667-0.3333 1.0000 (  4418 PWs)   bands (ev):

   -63.3866 -30.2251 -30.1943 -30.1785  -7.0084   5.3727   7.0684   7.9044
    19.0819  20.1014  22.6846  26.3381  28.6027  32.1060  37.1269  37.5767

          k = 0.5833-0.2500 0.9167 (  4412 PWs)   bands (ev):

   -63.3855 -30.2271 -30.2011 -30.1820  -6.8428   5.3188   6.6297   7.7251
    19.5486  20.5927  22.0859  25.8929  29.5502  31.4765  37.1936  37.7150

          k = 0.5000-0.1667 0.8333 (  4408 PWs)   bands (ev):

   -63.3851 -30.2277 -30.2034 -30.1836  -6.7806   5.3221   6.4497   7.6537
    19.6132  20.9970  21.8674  25.6462  29.9600  31.1856  37.0621  37.6823

          k = 0.6667-0.1667 1.0000 (  4413 PWs)   bands (ev):

   -63.3850 -30.2266 -30.2005 -30.1883  -6.7956   5.3185   6.7781   7.4586
    19.7112  20.1510  21.7681  25.9292  29.1500  33.0754  36.4978  37.7837

          k = 0.5833-0.0833 0.9167 (  4403 PWs)   bands (ev):

   -63.3846 -30.2215 -30.2087 -30.1898  -6.7294   5.5854   6.2698   7.3580
    20.0306  20.8975  21.3909  25.2387  29.8850  32.1765  36.0950  38.1220

          k = 0.5000 0.0000 0.8333 (  4403 PWs)   bands (ev):

   -63.3848 -30.2194 -30.2118 -30.1869  -6.7471   5.6983   6.0766   7.4788
    20.2195  20.7232  21.5646  25.2711  30.5425  30.9351  36.4929  38.3189

          k =-0.3333-1.0000 0.0000 (  4388 PWs)   bands (ev):

   -63.3844 -30.2259 -30.2028 -30.1930  -6.7207   5.3559   6.6766   7.2499
    19.5737  20.5537  21.5249  25.6569  29.3421  33.8426  35.5444  37.6792

          k =-0.5000-1.0000 0.0000 (  4388 PWs)   bands (ev):

   -63.3844 -30.2143 -30.2143 -30.1935  -6.7041   5.9601   5.9601   7.1474
    20.6845  20.6845  21.3085  24.6701  31.1215  31.1215  35.6803  38.2596

     the Fermi energy is    11.0098 ev

!    total energy              =    -140.85319215 Ry
     estimated scf accuracy    <          9.5E-12 Ry
     smearing contrib. (-TS)   =      -0.00000000 Ry
     internal energy E=F+TS    =    -140.85319215 Ry

     The total energy is F=E-TS. E is the sum of the following terms:
     one-electron contribution =     -55.88097660 Ry
     hartree contribution      =      31.43236711 Ry
     xc contribution           =     -21.22981011 Ry
     ewald contribution        =     -95.17477254 Ry

     convergence has been achieved in   9 iterations

     Writing all to output data dir out/mp-1265.save/
 
     init_run     :      0.53s CPU      0.59s WALL (       1 calls)
     electrons    :     12.20s CPU     13.01s WALL (       1 calls)

     Called by init_run:
     wfcinit      :      0.45s CPU      0.49s WALL (       1 calls)
     potinit      :      0.02s CPU      0.02s WALL (       1 calls)
     hinit0       :      0.02s CPU      0.04s WALL (       1 calls)

     Called by electrons:
     c_bands      :     10.34s CPU     10.97s WALL (       9 calls)
     sum_band     :      1.79s CPU      1.95s WALL (       9 calls)
     v_of_rho     :      0.07s CPU      0.07s WALL (      10 calls)
     mix_rho      :      0.01s CPU      0.02s WALL (       9 calls)

     Called by c_bands:
     init_us_2    :      0.14s CPU      0.15s WALL (    1368 calls)
     init_us_2:cp :      0.13s CPU      0.15s WALL (    1368 calls)
     cegterg      :      9.98s CPU     10.29s WALL (     648 calls)

     Called by *egterg:
     cdiaghg      :      0.69s CPU      0.72s WALL (    2465 calls)
     h_psi        :      8.84s CPU      9.12s WALL (    2537 calls)
     g_psi        :      0.06s CPU      0.06s WALL (    1817 calls)

     Called by h_psi:
     h_psi:calbec :      0.17s CPU      0.17s WALL (    2537 calls)
     vloc_psi     :      8.53s CPU      8.80s WALL (    2537 calls)
     add_vuspsi   :      0.10s CPU      0.11s WALL (    2537 calls)

     General routines
     calbec       :      0.16s CPU      0.17s WALL (    2537 calls)
     fft          :      0.03s CPU      0.05s WALL (      99 calls)
     ffts         :      0.00s CPU      0.00s WALL (       9 calls)
     fftw         :      9.23s CPU      9.54s WALL (   68880 calls)
     davcio       :      0.11s CPU      0.43s WALL (    2174 calls)
 
     Parallel routines
 
     PWSCF        :     12.87s CPU     13.92s WALL

 
   This run was terminated on:  19:52:10  14Nov2023            

=------------------------------------------------------------------------------=
   JOB DONE.
=------------------------------------------------------------------------------=
