
     Program PWSCF v.7.1 starts on 17Nov2023 at 19:37:26 

     This program is part of the open-source Quantum ESPRESSO suite
     for quantum simulation of materials; please cite
         "P. Giannozzi et al., J. Phys.:Condens. Matter 21 395502 (2009);
         "P. Giannozzi et al., J. Phys.:Condens. Matter 29 465901 (2017);
         "P. Giannozzi et al., J. Chem. Phys. 152 154105 (2020);
          URL http://www.quantum-espresso.org", 
     in publications or presentations arising from this work. More details at
     http://www.quantum-espresso.org/quote

     Parallel version (MPI), running on    24 processors

     MPI processes distributed on     1 nodes
     123446 MiB available memory on the printing compute node when the environment starts
 
     Reading input from pw_mp-2605_scf_k3000_E72.in
Warning: card &CELL ignored
Warning: card / ignored

     Current dimensions of program PWSCF are:
     Max number of different atomic species (ntypx) = 10
     Max number of k-points (npk) =  40000
     Max angular momentum in pseudopotentials (lmaxx) =  4
 
     K-points division:     npool     =       2
     R & G space division:  proc/nbgrp/npool/nimage =      12
     Subspace diagonalization in iterative solution of the eigenvalue problem:
     a serial algorithm will be used

 
     Parallelization info
     --------------------
     sticks:   dense  smooth     PW     G-vecs:    dense   smooth      PW
     Min          68      68     21                 1289     1289     223
     Max          69      69     22                 1291     1291     226
     Sum         823     823    253                15473    15473    2685
 
     Using Slab Decomposition
 


     bravais-lattice index     =            2
     lattice parameter (alat)  =       9.0841  a.u.
     unit-cell volume          =     187.4084 (a.u.)^3
     number of atoms/cell      =            2
     number of atomic types    =            2
     number of electrons       =        16.00
     number of Kohn-Sham states=           16
     kinetic-energy cutoff     =      72.0000  Ry
     charge density cutoff     =     288.0000  Ry
     scf convergence threshold =      1.0E-10
     mixing beta               =       0.7000
     number of iterations used =            8  plain     mixing
     Exchange-correlation= PBE
                           (   1   4   3   4   0   0   0)

     celldm(1)=   9.084123  celldm(2)=   0.000000  celldm(3)=   0.000000
     celldm(4)=   0.000000  celldm(5)=   0.000000  celldm(6)=   0.000000

     crystal axes: (cart. coord. in units of alat)
               a(1) = (  -0.500000   0.000000   0.500000 )  
               a(2) = (   0.000000   0.500000   0.500000 )  
               a(3) = (  -0.500000   0.500000   0.000000 )  

     reciprocal axes: (cart. coord. in units 2 pi/alat)
               b(1) = ( -1.000000 -1.000000  1.000000 )  
               b(2) = (  1.000000  1.000000  1.000000 )  
               b(3) = ( -1.000000  1.000000 -1.000000 )  


     PseudoPot. # 1 for Ca read from file:
     /usr/scratch4/magr4985/MG/HTDF/pseudo/SG15/Ca.upf
     MD5 check sum: b43c970dc090f2312d256360aabdb6f1
     Pseudo is Norm-conserving, Zval = 10.0
     Generated using ONCVPSP code by D. R. Hamann
     Using radial grid of  602 points,  6 beta functions with: 
                l(1) =   0
                l(2) =   0
                l(3) =   1
                l(4) =   1
                l(5) =   2
                l(6) =   2

     PseudoPot. # 2 for O  read from file:
     /usr/scratch4/magr4985/MG/HTDF/pseudo/SG15/O.upf
     MD5 check sum: e36c48deb68f4e355fffe4602be2c42c
     Pseudo is Norm-conserving, Zval =  6.0
     Generated using ONCVPSP code by D. R. Hamann
     Using radial grid of  602 points,  4 beta functions with: 
                l(1) =   0
                l(2) =   0
                l(3) =   1
                l(4) =   1

     atomic species   valence    mass     pseudopotential
        Ca            10.00    40.07800     Ca( 1.00)
        O              6.00    15.99940     O ( 1.00)

     48 Sym. Ops., with inversion, found



   Cartesian axes

     site n.     atom                  positions (alat units)
         1           Ca  tau(   1) = (   0.0000000   0.0000000   0.0000000  )
         2           O   tau(   2) = (  -0.5000000   0.5000000   0.5000000  )

     number of k points=    72  Gaussian smearing, width (Ry)=  0.0005
                       cart. coord. in units 2pi/alat
        k(    1) = (   0.0000000   0.0000000   0.0000000), wk =   0.0011574
        k(    2) = (  -0.0833333   0.0833333  -0.0833333), wk =   0.0092593
        k(    3) = (  -0.1666667   0.1666667  -0.1666667), wk =   0.0092593
        k(    4) = (  -0.2500000   0.2500000  -0.2500000), wk =   0.0092593
        k(    5) = (  -0.3333333   0.3333333  -0.3333333), wk =   0.0092593
        k(    6) = (  -0.4166667   0.4166667  -0.4166667), wk =   0.0092593
        k(    7) = (   0.5000000  -0.5000000   0.5000000), wk =   0.0046296
        k(    8) = (   0.0000000   0.1666667   0.0000000), wk =   0.0069444
        k(    9) = (  -0.0833333   0.2500000  -0.0833333), wk =   0.0277778
        k(   10) = (  -0.1666667   0.3333333  -0.1666667), wk =   0.0277778
        k(   11) = (  -0.2500000   0.4166667  -0.2500000), wk =   0.0277778
        k(   12) = (  -0.3333333   0.5000000  -0.3333333), wk =   0.0277778
        k(   13) = (   0.5833333  -0.4166667   0.5833333), wk =   0.0277778
        k(   14) = (   0.5000000  -0.3333333   0.5000000), wk =   0.0277778
        k(   15) = (   0.4166667  -0.2500000   0.4166667), wk =   0.0277778
        k(   16) = (   0.3333333  -0.1666667   0.3333333), wk =   0.0277778
        k(   17) = (   0.2500000  -0.0833333   0.2500000), wk =   0.0277778
        k(   18) = (   0.1666667  -0.0000000   0.1666667), wk =   0.0138889
        k(   19) = (   0.0000000   0.3333333   0.0000000), wk =   0.0069444
        k(   20) = (  -0.0833333   0.4166667  -0.0833333), wk =   0.0277778
        k(   21) = (  -0.1666667   0.5000000  -0.1666667), wk =   0.0277778
        k(   22) = (  -0.2500000   0.5833333  -0.2500000), wk =   0.0277778
        k(   23) = (   0.6666667  -0.3333333   0.6666667), wk =   0.0277778
        k(   24) = (   0.5833333  -0.2500000   0.5833333), wk =   0.0277778
        k(   25) = (   0.5000000  -0.1666667   0.5000000), wk =   0.0277778
        k(   26) = (   0.4166667  -0.0833333   0.4166667), wk =   0.0277778
        k(   27) = (   0.3333333   0.0000000   0.3333333), wk =   0.0138889
        k(   28) = (   0.0000000   0.5000000   0.0000000), wk =   0.0069444
        k(   29) = (  -0.0833333   0.5833333  -0.0833333), wk =   0.0277778
        k(   30) = (  -0.1666667   0.6666667  -0.1666667), wk =   0.0277778
        k(   31) = (   0.7500000  -0.2500000   0.7500000), wk =   0.0277778
        k(   32) = (   0.6666667  -0.1666667   0.6666667), wk =   0.0277778
        k(   33) = (   0.5833333  -0.0833333   0.5833333), wk =   0.0277778
        k(   34) = (   0.5000000   0.0000000   0.5000000), wk =   0.0138889
        k(   35) = (   0.0000000   0.6666667   0.0000000), wk =   0.0069444
        k(   36) = (  -0.0833333   0.7500000  -0.0833333), wk =   0.0277778
        k(   37) = (   0.8333333  -0.1666667   0.8333333), wk =   0.0277778
        k(   38) = (   0.7500000  -0.0833333   0.7500000), wk =   0.0277778
        k(   39) = (   0.6666667  -0.0000000   0.6666667), wk =   0.0138889
        k(   40) = (   0.0000000   0.8333333   0.0000000), wk =   0.0069444
        k(   41) = (   0.9166667  -0.0833333   0.9166667), wk =   0.0277778
        k(   42) = (   0.8333333   0.0000000   0.8333333), wk =   0.0138889
        k(   43) = (   0.0000000  -1.0000000   0.0000000), wk =   0.0034722
        k(   44) = (  -0.1666667   0.3333333   0.0000000), wk =   0.0277778
        k(   45) = (  -0.2500000   0.4166667  -0.0833333), wk =   0.0555556
        k(   46) = (  -0.3333333   0.5000000  -0.1666667), wk =   0.0555556
        k(   47) = (   0.5833333  -0.4166667   0.7500000), wk =   0.0555556
        k(   48) = (   0.5000000  -0.3333333   0.6666667), wk =   0.0277778
        k(   49) = (  -0.1666667   0.5000000   0.0000000), wk =   0.0277778
        k(   50) = (  -0.2500000   0.5833333  -0.0833333), wk =   0.0555556
        k(   51) = (   0.6666667  -0.3333333   0.8333333), wk =   0.0555556
        k(   52) = (   0.5833333  -0.2500000   0.7500000), wk =   0.0555556
        k(   53) = (   0.5000000  -0.1666667   0.6666667), wk =   0.0555556
        k(   54) = (   0.4166667  -0.0833333   0.5833333), wk =   0.0555556
        k(   55) = (   0.3333333   0.0000000   0.5000000), wk =   0.0277778
        k(   56) = (  -0.1666667   0.6666667  -0.0000000), wk =   0.0277778
        k(   57) = (   0.7500000  -0.2500000   0.9166667), wk =   0.0555556
        k(   58) = (   0.6666667  -0.1666667   0.8333333), wk =   0.0555556
        k(   59) = (   0.5833333  -0.0833333   0.7500000), wk =   0.0555556
        k(   60) = (   0.5000000   0.0000000   0.6666667), wk =   0.0277778
        k(   61) = (   0.8333333  -0.1666667   1.0000000), wk =   0.0277778
        k(   62) = (   0.7500000  -0.0833333   0.9166667), wk =   0.0555556
        k(   63) = (   0.6666667   0.0000000   0.8333333), wk =   0.0277778
        k(   64) = (  -0.1666667  -1.0000000  -0.0000000), wk =   0.0138889
        k(   65) = (   0.6666667  -0.3333333   1.0000000), wk =   0.0277778
        k(   66) = (   0.5833333  -0.2500000   0.9166667), wk =   0.0555556
        k(   67) = (   0.5000000  -0.1666667   0.8333333), wk =   0.0277778
        k(   68) = (   0.6666667  -0.1666667   1.0000000), wk =   0.0277778
        k(   69) = (   0.5833333  -0.0833333   0.9166667), wk =   0.0555556
        k(   70) = (   0.5000000   0.0000000   0.8333333), wk =   0.0277778
        k(   71) = (  -0.3333333  -1.0000000   0.0000000), wk =   0.0138889
        k(   72) = (  -0.5000000  -1.0000000   0.0000000), wk =   0.0069444

     Dense  grid:    15473 G-vectors     FFT dimensions: (  36,  36,  36)

     Estimated max dynamical RAM per process >       5.30 MB

     Estimated total dynamical RAM >     123.34 MB

     Initial potential from superposition of free atoms

     starting charge      15.7951, renormalised to      16.0000
     Starting wfcs are random

     total cpu time spent up to now is        0.3 secs

     Self-consistent Calculation

     iteration #  1     ecut=    72.00 Ry     beta= 0.70
     Davidson diagonalization with overlap
     ethr =  1.00E-02,  avg # of iterations =  8.8

     total cpu time spent up to now is        0.9 secs

     total energy              =    -105.81511529 Ry
     estimated scf accuracy    <       0.34941475 Ry

     iteration #  2     ecut=    72.00 Ry     beta= 0.70
     Davidson diagonalization with overlap
     ethr =  2.18E-03,  avg # of iterations =  2.2

     total cpu time spent up to now is        1.2 secs

     total energy              =    -105.80761439 Ry
     estimated scf accuracy    <       0.87948816 Ry

     iteration #  3     ecut=    72.00 Ry     beta= 0.70
     Davidson diagonalization with overlap
     ethr =  2.18E-03,  avg # of iterations =  2.0

     total cpu time spent up to now is        1.4 secs

     total energy              =    -105.98311022 Ry
     estimated scf accuracy    <       0.00912910 Ry

     iteration #  4     ecut=    72.00 Ry     beta= 0.70
     Davidson diagonalization with overlap
     ethr =  5.71E-05,  avg # of iterations =  2.3

     total cpu time spent up to now is        1.6 secs

     total energy              =    -105.98487920 Ry
     estimated scf accuracy    <       0.00031600 Ry

     iteration #  5     ecut=    72.00 Ry     beta= 0.70
     Davidson diagonalization with overlap
     ethr =  1.97E-06,  avg # of iterations =  3.5

     total cpu time spent up to now is        1.9 secs

     total energy              =    -105.98492804 Ry
     estimated scf accuracy    <       0.00000302 Ry

     iteration #  6     ecut=    72.00 Ry     beta= 0.70
     Davidson diagonalization with overlap
     ethr =  1.89E-08,  avg # of iterations =  2.2

     total cpu time spent up to now is        2.3 secs

     total energy              =    -105.98492896 Ry
     estimated scf accuracy    <       0.00000014 Ry

     iteration #  7     ecut=    72.00 Ry     beta= 0.70
     Davidson diagonalization with overlap
     ethr =  8.44E-10,  avg # of iterations =  2.0

     total cpu time spent up to now is        2.5 secs

     total energy              =    -105.98492898 Ry
     estimated scf accuracy    <          9.8E-09 Ry

     iteration #  8     ecut=    72.00 Ry     beta= 0.70
     Davidson diagonalization with overlap
     ethr =  6.15E-11,  avg # of iterations =  2.0

     total cpu time spent up to now is        2.7 secs

     total energy              =    -105.98492899 Ry
     estimated scf accuracy    <          1.4E-10 Ry

     iteration #  9     ecut=    72.00 Ry     beta= 0.70
     Davidson diagonalization with overlap
     ethr =  8.84E-13,  avg # of iterations =  2.0

     total cpu time spent up to now is        3.0 secs

     End of self-consistent calculation

          k = 0.0000 0.0000 0.0000 (  1917 PWs)   bands (ev):

   -29.8978 -10.6672 -10.6672 -10.6672  -7.7142   7.7786   7.7786   7.7786
    12.5107  13.9963  13.9963  13.9963  15.4924  15.4924  22.8673  30.1847

          k =-0.0833 0.0833-0.0833 (  1937 PWs)   bands (ev):

   -29.8911 -10.7644 -10.6709 -10.6709  -7.6126   7.5214   7.6806   7.6806
    12.8351  13.9709  14.1149  14.1149  15.6598  15.6598  23.1493  29.6742

          k =-0.1667 0.1667-0.1667 (  1931 PWs)   bands (ev):

   -29.8727 -11.0033 -10.6807 -10.6807  -7.3606   6.9253   7.4307   7.4307
    13.6100  13.9789  14.4507  14.4507  16.1125  16.1125  23.7002  28.7940

          k =-0.2500 0.2500-0.2500 (  1934 PWs)   bands (ev):

   -29.8474 -11.2860 -10.6940 -10.6940  -7.0589   6.2525   7.1214   7.1214
    14.0291  14.6428  14.9451  14.9451  16.7340  16.7340  23.7101  27.6938

          k =-0.3333 0.3333-0.3333 (  1922 PWs)   bands (ev):

   -29.8219 -11.5351 -10.7073 -10.7073  -6.7891   5.6737   6.8413   6.8413
    14.3075  15.4921  15.4921  15.5295  17.3909  17.3909  22.9857  26.2747

          k =-0.4167 0.4167-0.4167 (  1937 PWs)   bands (ev):

   -29.8031 -11.7020 -10.7169 -10.7169  -6.6059   5.2876   6.6505   6.6505
    14.6451  15.9333  15.9333  16.1127  17.9343  17.9343  22.2656  25.1695

          k = 0.5000-0.5000 0.5000 (  1916 PWs)   bands (ev):

   -29.7962 -11.7605 -10.7204 -10.7204  -6.5409   5.1531   6.5838   6.5838
    14.8146  16.1045  16.1045  16.2930  18.1603  18.1603  21.9957  24.7365

          k = 0.0000 0.1667 0.0000 (  1925 PWs)   bands (ev):

   -29.8889 -10.7718 -10.6823 -10.6823  -7.5861   7.3431   7.7197   7.7197
    12.8995  13.7474  14.2582  14.2582  15.5611  15.8699  23.2507  29.4853

          k =-0.0833 0.2500-0.0833 (  1938 PWs)   bands (ev):

   -29.8744 -10.9449 -10.6990 -10.6889  -7.4040   6.8890   7.5331   7.5812
    13.4469  13.6028  14.5545  14.6055  15.7893  16.3475  23.7472  28.5729

          k =-0.1667 0.3333-0.1667 (  1938 PWs)   bands (ev):

   -29.8515 -11.1975 -10.7163 -10.6981  -7.1450   6.3554   7.1981   7.3226
    13.6201  14.3323  14.9437  15.0948  16.2837  16.9568  23.9672  27.5673

          k =-0.2500 0.4167-0.2500 (  1935 PWs)   bands (ev):

   -29.8261 -11.4438 -10.7296 -10.7142  -6.8895   5.8492   6.8778   7.0319
    13.8742  15.1472  15.5012  15.6204  16.9314  17.5653  23.3302  26.3333

          k =-0.3333 0.5000-0.3333 (  1939 PWs)   bands (ev):

   -29.8051 -11.6283 -10.7354 -10.7332  -6.6951   5.4626   6.6632   6.7857
    14.2991  15.4728  16.0283  16.2854  17.5912  18.0651  22.4550  25.3095

          k = 0.5833-0.4167 0.5833 (  1935 PWs)   bands (ev):

   -29.7942 -11.7187 -10.7496 -10.7321  -6.5972   5.2672   6.5881   6.6354
    14.7139  15.4953  16.1681  16.7554  18.0536  18.3297  21.9590  24.6304

          k = 0.5000-0.3333 0.5000 (  1933 PWs)   bands (ev):

   -29.7965 -11.7010 -10.7589 -10.7208  -6.6127   5.2999   6.6072   6.6566
    14.6933  15.5246  15.9760  16.6790  18.1176  18.1715  22.0610  24.5379

          k = 0.4167-0.2500 0.4167 (  1932 PWs)   bands (ev):

   -29.8113 -11.5786 -10.7581 -10.7043  -6.7396   5.5592   6.7062   6.8526
    14.3134  15.4587  15.5265  16.1569  17.5976  17.8017  22.7171  25.1308

          k = 0.3333-0.1667 0.3333 (  1938 PWs)   bands (ev):

   -29.8345 -11.3717 -10.7465 -10.6871  -6.9566   6.0059   6.9159   7.1381
    13.9743  14.9135  14.9860  15.5444  16.8812  17.2587  23.5885  26.0814

          k = 0.2500-0.0833 0.2500 (  1938 PWs)   bands (ev):

   -29.8598 -11.1206 -10.7259 -10.6736  -7.2217   6.5667   7.1964   7.4420
    13.8080  14.0609  14.5107  15.0017  16.2373  16.6306  23.9361  27.2489

          k = 0.1667-0.0000 0.1667 (  1939 PWs)   bands (ev):

   -29.8805 -10.8910 -10.6981 -10.6677  -7.4690   7.1323   7.4807   7.6527
    13.2702  13.8526  14.2028  14.4998  15.7941  16.0525  23.5342  28.6492

          k = 0.0000 0.3333 0.0000 (  1952 PWs)   bands (ev):

   -29.8645 -10.9889 -10.7236 -10.7236  -7.3378   6.5777   7.5917   7.5917
    13.1548  13.6318  14.9441  14.9441  15.7541  16.8149  24.1633  28.1566

          k =-0.0833 0.4167-0.0833 (  1948 PWs)   bands (ev):

   -29.8456 -11.1456 -10.7478 -10.7412  -7.1929   6.2466   7.4007   7.4578
    12.9632  14.1939  15.3601  15.4048  16.0246  17.3600  24.5026  27.0545

          k =-0.1667 0.5000-0.1667 (  1943 PWs)   bands (ev):

   -29.8227 -11.3378 -10.7651 -10.7615  -7.0196   5.9656   7.0611   7.2300
    13.0767  14.9625  15.7788  15.8837  16.5429  17.8817  23.8932  26.0417

          k =-0.2500 0.5833-0.2500 (  1937 PWs)   bands (ev):

   -29.8019 -11.5020 -10.7925 -10.7710  -6.8626   5.7431   6.7564   6.9821
    13.4687  15.4443  16.2399  16.3197  17.1898  18.3730  22.7644  25.1864

          k = 0.6667-0.3333 0.6667 (  1942 PWs)   bands (ev):

   -29.7888 -11.6018 -10.8267 -10.7641  -6.7539   5.5804   6.6127   6.7782
    14.0553  15.3560  16.3493  16.8031  17.7695  18.8608  21.9445  24.3267

          k = 0.5833-0.2500 0.5833 (  1939 PWs)   bands (ev):

   -29.7870 -11.6205 -10.8525 -10.7460  -6.7143   5.5138   6.6514   6.6621
    14.6471  14.9807  16.1548  16.7924  18.0828  19.0441  21.7865  23.8191

          k = 0.5000-0.1667 0.5000 (  1930 PWs)   bands (ev):

   -29.7971 -11.5589 -10.8587 -10.7216  -6.7537   5.5853   6.6549   6.8295
    14.3996  15.1637  15.7248  16.3936  18.0526  18.4954  22.3931  23.9188

          k = 0.4167-0.0833 0.4167 (  1929 PWs)   bands (ev):

   -29.8162 -11.4332 -10.8380 -10.6973  -6.8689   5.8055   6.7577   7.0812
    14.0132  15.0731  15.2178  15.9794  17.5733  17.7293  23.3913  24.4561

          k = 0.3333 0.0000 0.3333 (  1935 PWs)   bands (ev):

   -29.8392 -11.2743 -10.7896 -10.6797  -7.0387   6.1504   6.9517   7.3194
    13.8155  14.5665  14.7815  15.5759  16.7419  17.2143  24.0135  25.5720

          k = 0.0000 0.5000 0.0000 (  1964 PWs)   bands (ev):

   -29.8315 -11.1733 -10.7798 -10.7798  -7.1941   6.1041   7.4775   7.4775
    12.4848  14.3979  15.8185  15.8185  16.0318  17.7781  25.1374  26.6119

          k =-0.0833 0.5833-0.0833 (  1937 PWs)   bands (ev):

   -29.8127 -11.2666 -10.8096 -10.8040  -7.1504   6.0203   7.3104   7.3753
    12.3540  14.9205  16.2034  16.2189  16.3406  18.1587  24.6385  25.4098

          k =-0.1667 0.6667-0.1667 (  1936 PWs)   bands (ev):

   -29.7943 -11.3675 -10.8569 -10.8140  -7.0725   6.0019   6.9852   7.1888
    12.5906  15.5013  16.4286  16.5139  16.8518  18.6216  23.1711  24.8028

          k = 0.7500-0.2500 0.7500 (  1923 PWs)   bands (ev):

   -29.7812 -11.4388 -10.9206 -10.8072  -6.9777   5.9924   6.6974   6.9793
    13.1249  15.6201  16.5891  16.6153  17.3967  19.3365  22.1206  23.9391

          k = 0.6667-0.1667 0.6667 (  1944 PWs)   bands (ev):

   -29.7771 -11.4717 -10.9739 -10.7854  -6.8897   5.8913   6.6315   6.8013
    13.8436  15.2209  16.4415  16.6151  17.8429  20.1089  21.5820  23.0996

          k = 0.5833-0.0833 0.5833 (  1929 PWs)   bands (ev):

   -29.7830 -11.4771 -10.9825 -10.7542  -6.8319   5.7621   6.6948   6.7545
    14.5679  14.7003  16.0553  16.3923  18.0718  19.8224  22.0090  22.8288

          k = 0.5000 0.0000 0.5000 (  1947 PWs)   bands (ev):

   -29.7974 -11.4658 -10.9304 -10.7220  -6.8234   5.7207   6.6790   6.9327
    14.2633  15.0351  15.6026  16.1441  18.0274  18.6919  23.0166  23.1493

          k = 0.0000 0.6667 0.0000 (  1948 PWs)   bands (ev):

   -29.7987 -11.2614 -10.8360 -10.8360  -7.2458   6.0846   7.4175   7.4175
    11.9193  15.1374  16.3278  16.6090  16.6090  18.3452  24.1106  25.8518

          k =-0.0833 0.7500-0.0833 (  1936 PWs)   bands (ev):

   -29.7844 -11.2871 -10.8794 -10.8527  -7.2719   6.1858   7.2691   7.3449
    11.8969  15.5431  16.5669  16.7664  16.8887  18.6736  22.9504  25.0940

          k = 0.8333-0.1667 0.8333 (  1932 PWs)   bands (ev):

   -29.7737 -11.2957 -10.9741 -10.8499  -7.2172   6.3073   6.9309   7.1862
    12.2709  15.9062  16.5209  16.8739  17.0694  19.4224  22.0598  24.0857

          k = 0.7500-0.0833 0.7500 (  1919 PWs)   bands (ev):

   -29.7695 -11.2862 -11.0885 -10.8282  -7.0997   6.3493   6.6140   6.9931
    12.9380  15.7316  16.3773  16.7734  17.4715  20.4789  21.6360  22.8518

          k = 0.6667-0.0000 0.6667 (  1911 PWs)   bands (ev):

   -29.7729 -11.3570 -11.0882 -10.7933  -6.9576   6.0574   6.6507   6.8162
    13.7647  15.1748  16.4000  16.4442  17.8559  21.1969  21.5530  21.9687

          k = 0.0000 0.8333 0.0000 (  1940 PWs)   bands (ev):

   -29.7748 -11.2704 -10.8771 -10.8771  -7.3987   6.3256   7.4016   7.4016
    11.5521  15.6576  16.5581  17.1103  17.1103  18.7142  22.1567  25.8232

          k = 0.9167-0.0833 0.9167 (  1934 PWs)   bands (ev):

   -29.7681 -11.2564 -10.9314 -10.8809  -7.4057   6.4364   7.2532   7.3427
    11.6559  15.8631  16.7372  16.9532  17.1824  19.2251  21.5145  24.9869

          k = 0.8333 0.0000 0.8333 (  1934 PWs)   bands (ev):

   -29.7662 -11.2136 -11.0629 -10.8631  -7.2917   6.5086   6.8825   7.1905
    12.1607  16.1105  16.3797  17.0542  17.0692  20.0341  21.3325  23.8472

          k = 0.0000-1.0000 0.0000 (  1964 PWs)   bands (ev):

   -29.7661 -11.2614 -10.8921 -10.8921  -7.4787   6.4692   7.4001   7.4001
    11.4256  15.8074  16.6456  17.2715  17.2715  19.0400  21.2372  25.7569

          k =-0.1667 0.3333 0.0000 (  1940 PWs)   bands (ev):

   -29.8577 -11.0953 -10.7413 -10.6924  -7.2383   6.4795   7.3140   7.5062
    13.4115  13.9708  14.8201  15.1269  16.0414  16.8909  24.1382  27.1080

          k =-0.2500 0.4167-0.0833 (  1935 PWs)   bands (ev):

   -29.8348 -11.2946 -10.7789 -10.7023  -7.0337   6.0780   7.0203   7.2848
    13.4715  14.6870  15.1971  15.6488  16.5806  17.4783  24.0003  25.7444

          k =-0.3333 0.5000-0.1667 (  1935 PWs)   bands (ev):

   -29.8117 -11.4814 -10.8019 -10.7208  -6.8484   5.7429   6.7698   7.0093
    13.7764  15.2612  15.6830  16.1070  17.2910  18.0269  23.0725  24.8920

          k = 0.5833-0.4167 0.7500 (  1932 PWs)   bands (ev):

   -29.7947 -11.6107 -10.8112 -10.7404  -6.7223   5.5170   6.6325   6.7765
    14.2670  15.2929  16.1040  16.6171  17.8697  18.5353  22.1679  24.3300

          k = 0.5000-0.3333 0.6667 (  1940 PWs)   bands (ev):

   -29.7885 -11.6565 -10.8126 -10.7493  -6.6780   5.4365   6.6179   6.6595
    14.6927  15.0249  16.2552  16.8798  18.0573  18.8065  21.8011  24.1374

          k =-0.1667 0.5000 0.0000 (  1941 PWs)   bands (ev):

   -29.8268 -11.2533 -10.8001 -10.7498  -7.1042   6.0459   7.2212   7.3713
    12.8014  14.6743  15.7268  15.8861  16.3321  17.8406  24.5799  25.4642

          k =-0.2500 0.5833-0.0833 (  1935 PWs)   bands (ev):

   -29.8062 -11.3753 -10.8436 -10.7684  -6.9995   5.9171   6.9504   7.1739
    12.9678  15.2273  16.0971  16.1932  16.9237  18.3344  23.6121  24.5742

          k = 0.6667-0.3333 0.8333 (  1924 PWs)   bands (ev):

   -29.7893 -11.4735 -10.8765 -10.7895  -6.9040   5.8403   6.7174   6.9517
    13.4154  15.4037  16.4255  16.4450  17.5081  18.9576  22.4282  24.0808

          k = 0.5833-0.2500 0.7500 (  1933 PWs)   bands (ev):

   -29.7808 -11.5247 -10.9061 -10.7919  -6.8381   5.7737   6.6355   6.7772
    14.0516  15.0262  16.5105  16.6884  17.8647  19.6184  21.7066  23.6114

          k = 0.5000-0.1667 0.6667 (  1938 PWs)   bands (ev):

   -29.7830 -11.5221 -10.9225 -10.7725  -6.8162   5.7276   6.6696   6.7463
    14.4415  14.7252  16.3282  16.5599  17.9940  19.5873  21.8302  23.3748

          k = 0.4167-0.0833 0.5833 (  1931 PWs)   bands (ev):

   -29.7952 -11.4725 -10.9077 -10.7431  -6.8456   5.7499   6.7002   6.9317
    13.9198  15.1420  15.9502  16.2284  17.8311  18.7875  22.7337  23.5644

          k = 0.3333 0.0000 0.5000 (  1937 PWs)   bands (ev):

   -29.8142 -11.3913 -10.8553 -10.7164  -6.9237   5.8660   6.8263   7.1435
    13.5748  15.0426  15.5330  16.0032  17.2482  18.0356  23.7551  24.1826

          k =-0.1667 0.6667-0.0000 (  1944 PWs)   bands (ev):

   -29.7962 -11.3075 -10.8588 -10.8243  -7.1566   6.0535   7.1810   7.2916
    12.2767  15.3220  16.4041  16.5607  16.6877  18.5181  23.7258  24.6622

          k = 0.7500-0.2500 0.9167 (  1937 PWs)   bands (ev):

   -29.7817 -11.3410 -10.9177 -10.8496  -7.1173   6.1356   6.9179   7.1264
    12.5713  15.6368  16.3705  16.8035  17.1338  19.1461  22.6227  24.0259

          k = 0.6667-0.1667 0.8333 (  1929 PWs)   bands (ev):

   -29.7732 -11.3554 -10.9984 -10.8468  -7.0433   6.1884   6.6736   6.9471
    13.1548  15.4166  16.3989  16.8517  17.5454  20.0752  21.8812  23.2225

          k = 0.5833-0.0833 0.7500 (  1929 PWs)   bands (ev):

   -29.7729 -11.3748 -11.0447 -10.8194  -6.9574   6.0601   6.6645   6.7971
    13.9088  14.8456  16.4141  16.6652  17.8436  20.8719  21.5200  22.4862

          k = 0.5000 0.0000 0.6667 (  1920 PWs)   bands (ev):

   -29.7810 -11.4253 -11.0049 -10.7801  -6.8847   5.8690   6.7080   6.7983
    14.2989  14.6543  16.3028  16.3198  17.9763  19.9680  22.4205  22.4312

          k = 0.8333-0.1667 1.0000 (  1944 PWs)   bands (ev):

   -29.7740 -11.2739 -10.9017 -10.9017  -7.3050   6.3246   7.1676   7.2615
    11.9344  15.7879  16.6139  16.8533  17.0980  19.1381  22.1292  24.6342

          k = 0.7500-0.0833 0.9167 (  1930 PWs)   bands (ev):

   -29.7677 -11.2344 -11.0214 -10.8965  -7.2441   6.4571   6.8654   7.1170
    12.3597  15.9276  16.2084  17.1339  17.2012  19.9968  21.6102  23.7581

          k = 0.6667 0.0000 0.8333 (  1929 PWs)   bands (ev):

   -29.7673 -11.2005 -11.1487 -10.8657  -7.1141   6.4549   6.5806   6.9513
    13.0627  15.4177  16.2641  16.9806  17.5464  20.9283  21.5311  22.6003

          k =-0.1667-1.0000-0.0000 (  1940 PWs)   bands (ev):

   -29.7659 -11.2372 -10.9434 -10.9174  -7.3818   6.4893   7.1586   7.2556
    11.8165  15.9452  16.6336  16.8867  17.2729  19.6209  21.2844  24.6343

          k = 0.6667-0.3333 1.0000 (  1930 PWs)   bands (ev):

   -29.7896 -11.3925 -10.9208 -10.7990  -6.9786   5.9479   6.8105   7.0316
    13.1806  15.3210  16.2171  16.4376  17.4593  19.0161  23.0457  23.4652

          k = 0.5833-0.2500 0.9167 (  1928 PWs)   bands (ev):

   -29.7774 -11.3926 -10.9738 -10.8387  -6.9628   6.0214   6.7107   6.8614
    13.6588  14.9641  16.3274  16.7269  17.7557  19.9576  22.1448  23.0372

          k = 0.5000-0.1667 0.8333 (  1930 PWs)   bands (ev):

   -29.7729 -11.3897 -10.9918 -10.8578  -6.9570   6.0631   6.6847   6.7723
    14.3065  14.3103  16.4282  16.8396  17.8342  20.6517  21.5244  22.9130

          k = 0.6667-0.1667 1.0000 (  1930 PWs)   bands (ev):

   -29.7718 -11.2873 -10.9686 -10.9243  -7.1203   6.2939   6.7945   6.9801
    12.9018  15.4086  16.1977  17.0634  17.4524  19.9990  22.1269  23.2915

          k = 0.5833-0.0833 0.9167 (  1924 PWs)   bands (ev):

   -29.7673 -11.2292 -11.0578 -10.9435  -7.0855   6.3896   6.6678   6.8435
    13.4995  14.7973  16.2104  17.1492  17.6758  21.0225  21.7691  22.5466

          k = 0.5000 0.0000 0.8333 (  1928 PWs)   bands (ev):

   -29.7693 -11.2790 -11.0591 -10.9017  -7.0277   6.2424   6.7338   6.7538
    14.1512  14.2469  16.2590  17.0158  17.7829  21.1000  22.0388  22.0708

          k =-0.3333-1.0000 0.0000 (  1928 PWs)   bands (ev):

   -29.7654 -11.1707 -11.0395 -10.9861  -7.1927   6.5616   6.7103   6.9668
    12.8037  15.4317  16.0955  17.2757  17.4449  20.6845  21.4938  23.2481

          k =-0.5000-1.0000 0.0000 (  1912 PWs)   bands (ev):

   -29.7651 -11.0847 -11.0789 -11.0789  -7.0996   6.4999   6.7167   6.7167
    14.0873  14.0873  16.1435  17.2771  17.7216  21.6964  21.9123  21.9123

     the Fermi energy is     9.5508 ev

!    total energy              =    -105.98492899 Ry
     estimated scf accuracy    <          2.1E-11 Ry
     smearing contrib. (-TS)   =      -0.00000000 Ry
     internal energy E=F+TS    =    -105.98492899 Ry

     The total energy is F=E-TS. E is the sum of the following terms:
     one-electron contribution =     -26.31627813 Ry
     hartree contribution      =      20.83595102 Ry
     xc contribution           =     -17.46861029 Ry
     ewald contribution        =     -83.03599159 Ry

     convergence has been achieved in   9 iterations

     Writing all to output data dir out/mp-2605.save/
 
     init_run     :      0.09s CPU      0.18s WALL (       1 calls)
     electrons    :      2.42s CPU      2.71s WALL (       1 calls)

     Called by init_run:
     wfcinit      :      0.07s CPU      0.12s WALL (       1 calls)
     potinit      :      0.00s CPU      0.01s WALL (       1 calls)
     hinit0       :      0.00s CPU      0.04s WALL (       1 calls)

     Called by electrons:
     c_bands      :      2.10s CPU      2.36s WALL (       9 calls)
     sum_band     :      0.29s CPU      0.31s WALL (       9 calls)
     v_of_rho     :      0.01s CPU      0.02s WALL (      10 calls)
     mix_rho      :      0.00s CPU      0.00s WALL (       9 calls)

     Called by c_bands:
     init_us_2    :      0.03s CPU      0.04s WALL (     684 calls)
     init_us_2:cp :      0.03s CPU      0.04s WALL (     684 calls)
     cegterg      :      1.92s CPU      2.06s WALL (     324 calls)

     Called by *egterg:
     cdiaghg      :      0.36s CPU      0.40s WALL (    1343 calls)
     h_psi        :      1.44s CPU      1.56s WALL (    1379 calls)
     g_psi        :      0.01s CPU      0.01s WALL (    1019 calls)

     Called by h_psi:
     h_psi:calbec :      0.05s CPU      0.06s WALL (    1379 calls)
     vloc_psi     :      1.35s CPU      1.46s WALL (    1379 calls)
     add_vuspsi   :      0.03s CPU      0.03s WALL (    1379 calls)

     General routines
     calbec       :      0.05s CPU      0.06s WALL (    1379 calls)
     fft          :      0.01s CPU      0.04s WALL (      99 calls)
     ffts         :      0.01s CPU      0.01s WALL (       9 calls)
     fftw         :      1.44s CPU      1.54s WALL (   35498 calls)
 
     Parallel routines
 
     PWSCF        :      2.57s CPU      3.08s WALL

 
   This run was terminated on:  19:37:29  17Nov2023            

=------------------------------------------------------------------------------=
   JOB DONE.
=------------------------------------------------------------------------------=
