
     Program PWSCF v.7.1 starts on 19Dec2023 at  2:15:33 

     This program is part of the open-source Quantum ESPRESSO suite
     for quantum simulation of materials; please cite
         "P. Giannozzi et al., J. Phys.:Condens. Matter 21 395502 (2009);
         "P. Giannozzi et al., J. Phys.:Condens. Matter 29 465901 (2017);
         "P. Giannozzi et al., J. Chem. Phys. 152 154105 (2020);
          URL http://www.quantum-espresso.org", 
     in publications or presentations arising from this work. More details at
     http://www.quantum-espresso.org/quote

     Parallel version (MPI), running on    24 processors

     MPI processes distributed on     1 nodes
     122629 MiB available memory on the printing compute node when the environment starts
 
     Reading input from pw_mp-2114_scf_k3000_E139.in
Warning: card &CELL ignored
Warning: card / ignored

     Current dimensions of program PWSCF are:
     Max number of different atomic species (ntypx) = 10
     Max number of k-points (npk) =  40000
     Max angular momentum in pseudopotentials (lmaxx) =  4
 
     R & G space division:  proc/nbgrp/npool/nimage =      24
     Subspace diagonalization in iterative solution of the eigenvalue problem:
     a serial algorithm will be used

 
     Parallelization info
     --------------------
     sticks:   dense  smooth     PW     G-vecs:    dense   smooth      PW
     Min          68      68     19                 1827     1827     283
     Max          69      69     20                 1831     1831     287
     Sum        1639    1639    475                43895    43895    6855
 
     Using Slab Decomposition
 


     bravais-lattice index     =            2
     lattice parameter (alat)  =       9.2535  a.u.
     unit-cell volume          =     198.0857 (a.u.)^3
     number of atoms/cell      =            2
     number of atomic types    =            2
     number of electrons       =        16.00
     number of Kohn-Sham states=           16
     kinetic-energy cutoff     =     139.0000  Ry
     charge density cutoff     =     556.0000  Ry
     scf convergence threshold =      1.0E-10
     mixing beta               =       0.7000
     number of iterations used =            8  plain     mixing
     Exchange-correlation= PBE
                           (   1   4   3   4   0   0   0)

     celldm(1)=   9.253465  celldm(2)=   0.000000  celldm(3)=   0.000000
     celldm(4)=   0.000000  celldm(5)=   0.000000  celldm(6)=   0.000000

     crystal axes: (cart. coord. in units of alat)
               a(1) = (  -0.500000   0.000000   0.500000 )  
               a(2) = (   0.000000   0.500000   0.500000 )  
               a(3) = (  -0.500000   0.500000   0.000000 )  

     reciprocal axes: (cart. coord. in units 2 pi/alat)
               b(1) = ( -1.000000 -1.000000  1.000000 )  
               b(2) = (  1.000000  1.000000  1.000000 )  
               b(3) = ( -1.000000  1.000000 -1.000000 )  


     PseudoPot. # 1 for N  read from file:
     /usr/scratch4/magr4985/MG/HTDF/pseudo/SG15/N.upf
     MD5 check sum: c233fa8df51455e992258b7c3dee8a9f
     Pseudo is Norm-conserving, Zval =  5.0
     Generated using ONCVPSP code by D. R. Hamann
     Using radial grid of  602 points,  4 beta functions with: 
                l(1) =   0
                l(2) =   0
                l(3) =   1
                l(4) =   1

     PseudoPot. # 2 for Y  read from file:
     /usr/scratch4/magr4985/MG/HTDF/pseudo/SG15/Y.upf
     MD5 check sum: 1a657b90673a6e990374512484d9703d
     Pseudo is Norm-conserving, Zval = 11.0
     Generated using ONCVPSP code by D. R. Hamann
     Using radial grid of  602 points,  6 beta functions with: 
                l(1) =   0
                l(2) =   0
                l(3) =   1
                l(4) =   1
                l(5) =   2
                l(6) =   2

     atomic species   valence    mass     pseudopotential
        N              5.00    14.00670     N ( 1.00)
        Y             11.00    88.90590     Y ( 1.00)

     48 Sym. Ops., with inversion, found



   Cartesian axes

     site n.     atom                  positions (alat units)
         1           Y   tau(   1) = (   0.0000000   0.0000000   0.0000000  )
         2           N   tau(   2) = (  -0.5000000   0.5000000   0.5000000  )

     number of k points=    72  Gaussian smearing, width (Ry)=  0.0005
                       cart. coord. in units 2pi/alat
        k(    1) = (   0.0000000   0.0000000   0.0000000), wk =   0.0011574
        k(    2) = (  -0.0833333   0.0833333  -0.0833333), wk =   0.0092593
        k(    3) = (  -0.1666667   0.1666667  -0.1666667), wk =   0.0092593
        k(    4) = (  -0.2500000   0.2500000  -0.2500000), wk =   0.0092593
        k(    5) = (  -0.3333333   0.3333333  -0.3333333), wk =   0.0092593
        k(    6) = (  -0.4166667   0.4166667  -0.4166667), wk =   0.0092593
        k(    7) = (   0.5000000  -0.5000000   0.5000000), wk =   0.0046296
        k(    8) = (   0.0000000   0.1666667   0.0000000), wk =   0.0069444
        k(    9) = (  -0.0833333   0.2500000  -0.0833333), wk =   0.0277778
        k(   10) = (  -0.1666667   0.3333333  -0.1666667), wk =   0.0277778
        k(   11) = (  -0.2500000   0.4166667  -0.2500000), wk =   0.0277778
        k(   12) = (  -0.3333333   0.5000000  -0.3333333), wk =   0.0277778
        k(   13) = (   0.5833333  -0.4166667   0.5833333), wk =   0.0277778
        k(   14) = (   0.5000000  -0.3333333   0.5000000), wk =   0.0277778
        k(   15) = (   0.4166667  -0.2500000   0.4166667), wk =   0.0277778
        k(   16) = (   0.3333333  -0.1666667   0.3333333), wk =   0.0277778
        k(   17) = (   0.2500000  -0.0833333   0.2500000), wk =   0.0277778
        k(   18) = (   0.1666667  -0.0000000   0.1666667), wk =   0.0138889
        k(   19) = (   0.0000000   0.3333333   0.0000000), wk =   0.0069444
        k(   20) = (  -0.0833333   0.4166667  -0.0833333), wk =   0.0277778
        k(   21) = (  -0.1666667   0.5000000  -0.1666667), wk =   0.0277778
        k(   22) = (  -0.2500000   0.5833333  -0.2500000), wk =   0.0277778
        k(   23) = (   0.6666667  -0.3333333   0.6666667), wk =   0.0277778
        k(   24) = (   0.5833333  -0.2500000   0.5833333), wk =   0.0277778
        k(   25) = (   0.5000000  -0.1666667   0.5000000), wk =   0.0277778
        k(   26) = (   0.4166667  -0.0833333   0.4166667), wk =   0.0277778
        k(   27) = (   0.3333333   0.0000000   0.3333333), wk =   0.0138889
        k(   28) = (   0.0000000   0.5000000   0.0000000), wk =   0.0069444
        k(   29) = (  -0.0833333   0.5833333  -0.0833333), wk =   0.0277778
        k(   30) = (  -0.1666667   0.6666667  -0.1666667), wk =   0.0277778
        k(   31) = (   0.7500000  -0.2500000   0.7500000), wk =   0.0277778
        k(   32) = (   0.6666667  -0.1666667   0.6666667), wk =   0.0277778
        k(   33) = (   0.5833333  -0.0833333   0.5833333), wk =   0.0277778
        k(   34) = (   0.5000000   0.0000000   0.5000000), wk =   0.0138889
        k(   35) = (   0.0000000   0.6666667   0.0000000), wk =   0.0069444
        k(   36) = (  -0.0833333   0.7500000  -0.0833333), wk =   0.0277778
        k(   37) = (   0.8333333  -0.1666667   0.8333333), wk =   0.0277778
        k(   38) = (   0.7500000  -0.0833333   0.7500000), wk =   0.0277778
        k(   39) = (   0.6666667  -0.0000000   0.6666667), wk =   0.0138889
        k(   40) = (   0.0000000   0.8333333   0.0000000), wk =   0.0069444
        k(   41) = (   0.9166667  -0.0833333   0.9166667), wk =   0.0277778
        k(   42) = (   0.8333333   0.0000000   0.8333333), wk =   0.0138889
        k(   43) = (   0.0000000  -1.0000000   0.0000000), wk =   0.0034722
        k(   44) = (  -0.1666667   0.3333333   0.0000000), wk =   0.0277778
        k(   45) = (  -0.2500000   0.4166667  -0.0833333), wk =   0.0555556
        k(   46) = (  -0.3333333   0.5000000  -0.1666667), wk =   0.0555556
        k(   47) = (   0.5833333  -0.4166667   0.7500000), wk =   0.0555556
        k(   48) = (   0.5000000  -0.3333333   0.6666667), wk =   0.0277778
        k(   49) = (  -0.1666667   0.5000000   0.0000000), wk =   0.0277778
        k(   50) = (  -0.2500000   0.5833333  -0.0833333), wk =   0.0555556
        k(   51) = (   0.6666667  -0.3333333   0.8333333), wk =   0.0555556
        k(   52) = (   0.5833333  -0.2500000   0.7500000), wk =   0.0555556
        k(   53) = (   0.5000000  -0.1666667   0.6666667), wk =   0.0555556
        k(   54) = (   0.4166667  -0.0833333   0.5833333), wk =   0.0555556
        k(   55) = (   0.3333333   0.0000000   0.5000000), wk =   0.0277778
        k(   56) = (  -0.1666667   0.6666667  -0.0000000), wk =   0.0277778
        k(   57) = (   0.7500000  -0.2500000   0.9166667), wk =   0.0555556
        k(   58) = (   0.6666667  -0.1666667   0.8333333), wk =   0.0555556
        k(   59) = (   0.5833333  -0.0833333   0.7500000), wk =   0.0555556
        k(   60) = (   0.5000000   0.0000000   0.6666667), wk =   0.0277778
        k(   61) = (   0.8333333  -0.1666667   1.0000000), wk =   0.0277778
        k(   62) = (   0.7500000  -0.0833333   0.9166667), wk =   0.0555556
        k(   63) = (   0.6666667   0.0000000   0.8333333), wk =   0.0277778
        k(   64) = (  -0.1666667  -1.0000000  -0.0000000), wk =   0.0138889
        k(   65) = (   0.6666667  -0.3333333   1.0000000), wk =   0.0277778
        k(   66) = (   0.5833333  -0.2500000   0.9166667), wk =   0.0555556
        k(   67) = (   0.5000000  -0.1666667   0.8333333), wk =   0.0277778
        k(   68) = (   0.6666667  -0.1666667   1.0000000), wk =   0.0277778
        k(   69) = (   0.5833333  -0.0833333   0.9166667), wk =   0.0555556
        k(   70) = (   0.5000000   0.0000000   0.8333333), wk =   0.0277778
        k(   71) = (  -0.3333333  -1.0000000   0.0000000), wk =   0.0138889
        k(   72) = (  -0.5000000  -1.0000000   0.0000000), wk =   0.0069444

     Dense  grid:    43895 G-vectors     FFT dimensions: (  50,  50,  50)

     Estimated max dynamical RAM per process >       5.54 MB

     Estimated total dynamical RAM >     132.85 MB

     Initial potential from superposition of free atoms

     starting charge      15.7879, renormalised to      16.0000
     Starting wfcs are random

     total cpu time spent up to now is        0.7 secs

     Self-consistent Calculation

     iteration #  1     ecut=   139.00 Ry     beta= 0.70
     Davidson diagonalization with overlap
     ethr =  1.00E-02,  avg # of iterations =  8.3

     total cpu time spent up to now is        2.9 secs

     total energy              =     -97.01305275 Ry
     estimated scf accuracy    <       0.63974142 Ry

     iteration #  2     ecut=   139.00 Ry     beta= 0.70
     Davidson diagonalization with overlap
     ethr =  4.00E-03,  avg # of iterations =  2.0

     total cpu time spent up to now is        3.8 secs

     total energy              =     -96.99833089 Ry
     estimated scf accuracy    <       1.99939418 Ry

     iteration #  3     ecut=   139.00 Ry     beta= 0.70
     Davidson diagonalization with overlap
     ethr =  4.00E-03,  avg # of iterations =  2.0

     total cpu time spent up to now is        4.6 secs

     total energy              =     -97.34279548 Ry
     estimated scf accuracy    <       0.01108492 Ry

     iteration #  4     ecut=   139.00 Ry     beta= 0.70
     Davidson diagonalization with overlap
     ethr =  6.93E-05,  avg # of iterations =  2.5

     total cpu time spent up to now is        5.4 secs

     total energy              =     -97.34511236 Ry
     estimated scf accuracy    <       0.00130680 Ry

     iteration #  5     ecut=   139.00 Ry     beta= 0.70
     Davidson diagonalization with overlap
     ethr =  8.17E-06,  avg # of iterations =  3.0

     total cpu time spent up to now is        6.3 secs

     total energy              =     -97.34527858 Ry
     estimated scf accuracy    <       0.00001875 Ry

     iteration #  6     ecut=   139.00 Ry     beta= 0.70
     Davidson diagonalization with overlap
     ethr =  1.17E-07,  avg # of iterations =  2.6

     total cpu time spent up to now is        7.2 secs

     total energy              =     -97.34528230 Ry
     estimated scf accuracy    <       0.00000093 Ry

     iteration #  7     ecut=   139.00 Ry     beta= 0.70
     Davidson diagonalization with overlap
     ethr =  5.81E-09,  avg # of iterations =  2.0

     total cpu time spent up to now is        8.1 secs

     total energy              =     -97.34528245 Ry
     estimated scf accuracy    <       0.00000072 Ry

     iteration #  8     ecut=   139.00 Ry     beta= 0.70
     Davidson diagonalization with overlap
     ethr =  4.47E-09,  avg # of iterations =  2.0

     total cpu time spent up to now is        8.9 secs

     total energy              =     -97.34528257 Ry
     estimated scf accuracy    <          4.3E-09 Ry

     iteration #  9     ecut=   139.00 Ry     beta= 0.70
     Davidson diagonalization with overlap
     ethr =  2.66E-11,  avg # of iterations =  2.0

     total cpu time spent up to now is        9.8 secs

     End of self-consistent calculation

          k = 0.0000 0.0000 0.0000 (  5577 PWs)   bands (ev):

   -28.8022  -8.4667  -8.4667  -8.4667  -0.8289  12.0321  12.0321  12.0321
    15.1655  15.1655  15.1655  16.1633  17.1402  17.1402  22.9533  35.3070

          k =-0.0833 0.0833-0.0833 (  5513 PWs)   bands (ev):

   -28.7945  -8.5519  -8.4724  -8.4724  -0.7098  11.5801  11.7881  11.7881
    15.2240  15.3378  15.3378  16.5748  17.4957  17.4957  23.4056  33.6996

          k =-0.1667 0.1667-0.1667 (  5498 PWs)   bands (ev):

   -28.7733  -8.7743  -8.4876  -8.4876  -0.3907  10.6251  11.2445  11.2445
    15.3657  15.8051  15.8051  17.5211  18.3944  18.3944  24.5668  31.6040

          k =-0.2500 0.2500-0.2500 (  5477 PWs)   bands (ev):

   -28.7441  -9.0574  -8.5083  -8.5083   0.0359   9.6137  10.6660  10.6660
    15.6962  16.4976  16.4976  18.5340  19.5452  19.5452  25.7859  30.2531

          k =-0.3333 0.3333-0.3333 (  5480 PWs)   bands (ev):

   -28.7148  -9.3212  -8.5288  -8.5288   0.4608   8.7564  10.1940  10.1940
    16.2889  17.3163  17.3163  19.1974  20.7155  20.7155  26.0087  28.2024

          k =-0.4167 0.4167-0.4167 (  5480 PWs)   bands (ev):

   -28.6931  -9.5042  -8.5437  -8.5437   0.7770   8.1793   9.8924   9.8924
    17.0955  18.0539  18.0539  19.1452  21.6966  21.6966  25.8550  26.5247

          k = 0.5000-0.5000 0.5000 (  5480 PWs)   bands (ev):

   -28.6851  -9.5693  -8.5491  -8.5491   0.8950   7.9743   9.7892   9.7892
    17.6912  18.3704  18.3704  18.7533  22.1438  22.1438  25.8019  25.8019

          k = 0.0000 0.1667 0.0000 (  5521 PWs)   bands (ev):

   -28.7919  -8.5503  -8.4885  -8.4885  -0.6769  11.2248  11.8881  11.8881
    14.8501  15.5980  15.5980  16.4888  17.2344  18.0537  23.5494  33.5831

          k =-0.0833 0.2500-0.0833 (  5490 PWs)   bands (ev):

   -28.7752  -8.7138  -8.5129  -8.4978  -0.4440  10.5093  11.4851  11.5827
    14.7552  16.0179  16.1039  17.0347  17.6753  19.0489  24.4683  31.7530

          k =-0.1667 0.3333-0.1667 (  5473 PWs)   bands (ev):

   -28.7488  -8.9683  -8.5388  -8.5131  -0.0833   9.7369  10.8310  11.0675
    14.9881  16.5722  16.7812  17.9757  18.6229  20.1363  25.7121  29.8532

          k =-0.2500 0.4167-0.2500 (  5479 PWs)   bands (ev):

   -28.7195  -9.2294  -8.5593  -8.5384   0.3074   9.0100  10.2818  10.5472
    15.4967  17.2891  17.5606  18.8706  19.7819  21.1002  26.1426  28.3181

          k =-0.3333 0.5000-0.3333 (  5488 PWs)   bands (ev):

   -28.6952  -9.4318  -8.5690  -8.5668   0.6304   8.4431   9.9510  10.1372
    16.2606  17.9453  18.2292  19.3247  20.9508  21.8205  25.7081  26.7555

          k = 0.5833-0.4167 0.5833 (  5492 PWs)   bands (ev):

   -28.6827  -9.5323  -8.5904  -8.5655   0.8025   8.1487   9.8476   9.8937
    17.1797  17.9142  18.4468  19.5179  21.8871  22.1426  25.3886  26.0069

          k = 0.5000-0.3333 0.5000 (  5492 PWs)   bands (ev):

   -28.6853  -9.5115  -8.6027  -8.5496   0.7745   8.1942   9.8422   9.9594
    17.1635  17.9685  18.0519  19.5776  21.6846  22.1094  25.4568  26.2847

          k = 0.4167-0.2500 0.4167 (  5474 PWs)   bands (ev):

   -28.7024  -9.3738  -8.5999  -8.5256   0.5532   8.5789   9.9885  10.2655
    16.3401  17.2859  18.0959  19.2070  20.7798  21.5544  25.8583  27.0225

          k = 0.3333-0.1667 0.3333 (  5465 PWs)   bands (ev):

   -28.7292  -9.1478  -8.5818  -8.4997   0.1993   9.2395  10.3205  10.7290
    15.7212  16.4746  17.4904  18.4043  19.8741  20.5693  26.1534  28.1858

          k = 0.2500-0.0833 0.2500 (  5491 PWs)   bands (ev):

   -28.7584  -8.8862  -8.5513  -8.4789  -0.1963  10.0721  10.8012  11.2723
    15.3672  15.8163  16.6686  17.4700  18.8815  19.4161  25.3007  29.8311

          k = 0.1667-0.0000 0.1667 (  5503 PWs)   bands (ev):

   -28.7823  -8.6635  -8.5113  -8.4689  -0.5310  10.9352  11.3471  11.7142
    15.2100  15.4158  15.9185  16.8464  17.9120  18.3136  24.0901  31.9987

          k = 0.0000 0.3333 0.0000 (  5509 PWs)   bands (ev):

   -28.7638  -8.7529  -8.5477  -8.5477  -0.3455  10.0248  11.6522  11.6522
    14.1388  16.6421  16.6421  16.9386  17.5034  20.0154  25.0818  31.3975

          k =-0.0833 0.4167-0.0833 (  5477 PWs)   bands (ev):

   -28.7419  -8.9245  -8.5827  -8.5734  -0.1330   9.5686  11.2781  11.4059
    14.0331  17.1975  17.2781  17.5390  18.0095  20.9567  26.1661  29.6250

          k =-0.1667 0.5000-0.1667 (  5479 PWs)   bands (ev):

   -28.7153  -9.1389  -8.6085  -8.6048   0.1297   9.2017  10.6583  10.9792
    14.3723  17.8525  17.9741  18.3871  18.9565  21.6739  26.5488  28.4463

          k =-0.2500 0.5833-0.2500 (  5487 PWs)   bands (ev):

   -28.6911  -9.3230  -8.6499  -8.6184   0.3774   8.8946  10.1846  10.5384
    15.0208  18.2728  18.5481  19.2881  20.0972  22.0930  25.5536  27.1808

          k = 0.6667-0.3333 0.6667 (  5480 PWs)   bands (ev):

   -28.6760  -9.4326  -8.6973  -8.6099   0.5551   8.6357  10.0104  10.1893
    15.9182  18.0396  18.6692  20.0126  21.2428  22.3271  24.9089  26.5424

          k = 0.5833-0.2500 0.5833 (  5485 PWs)   bands (ev):

   -28.6740  -9.4466  -8.7318  -8.5852   0.6206   8.5108   9.9863  10.0954
    16.9083  17.3610  18.2349  20.0604  22.0123  22.2640  24.9248  26.3693

          k = 0.5000-0.1667 0.5000 (  5473 PWs)   bands (ev):

   -28.6857  -9.3663  -8.7395  -8.5507   0.5509   8.6045   9.9534  10.3501
    16.5423  17.4880  17.8278  19.3664  21.6059  22.0680  25.3598  26.4537

          k = 0.4167-0.0833 0.4167 (  5467 PWs)   bands (ev):

   -28.7079  -9.2163  -8.7107  -8.5156   0.3549   8.9322  10.0935  10.7001
    15.9832  16.7272  17.9960  18.4845  20.6547  21.4849  26.1586  26.8389

          k = 0.3333 0.0000 0.3333 (  5468 PWs)   bands (ev):

   -28.7346  -9.0406  -8.6424  -8.4892   0.0801   9.4494  10.3903  11.0577
    15.6082  16.1381  17.5631  17.6404  19.7695  20.5186  26.2707  27.7880

          k = 0.0000 0.5000 0.0000 (  5457 PWs)   bands (ev):

   -28.7253  -8.9794  -8.6280  -8.6280  -0.1130   9.4162  11.5255  11.5255
    13.3777  17.5494  17.9032  17.9085  17.9085  21.6753  27.1241  29.4657

          k =-0.0833 0.5833-0.0833 (  5475 PWs)   bands (ev):

   -28.7033  -9.1086  -8.6709  -8.6627  -0.0351   9.3724  11.1921  11.3605
    13.3847  18.1274  18.3679  18.4836  18.5532  22.1337  27.1616  28.2170

          k =-0.1667 0.6667-0.1667 (  5486 PWs)   bands (ev):

   -28.6819  -9.2342  -8.7351  -8.6779   0.0850   9.3967  10.6172  11.0105
    13.8816  18.6153  18.9607  19.1763  19.3275  22.3783  25.5006  27.7230

          k = 0.7500-0.2500 0.7500 (  5479 PWs)   bands (ev):

   -28.6668  -9.3102  -8.8185  -8.6697   0.2265   9.3277  10.2555  10.6212
    14.6730  18.3595  19.0115  19.9553  20.4341  22.7277  24.5303  27.2697

          k = 0.6667-0.1667 0.6667 (  5462 PWs)   bands (ev):

   -28.6621  -9.3240  -8.8918  -8.6402   0.3593   9.0758  10.2537  10.2934
    15.6963  17.7057  18.5880  19.9782  21.4529  23.3390  24.4195  26.3999

          k = 0.5833-0.0833 0.5833 (  5471 PWs)   bands (ev):

   -28.6691  -9.2958  -8.9110  -8.5969   0.4445   8.8561  10.0814  10.4011
    16.7901  17.0421  17.9073  19.3843  22.0593  23.1944  24.8194  25.9038

          k = 0.5000 0.0000 0.5000 (  5452 PWs)   bands (ev):

   -28.6859  -9.2600  -8.8418  -8.5513   0.4465   8.7977  10.0118  10.5685
    16.4417  17.2315  17.6971  18.8288  21.8848  22.0541  25.3994  26.4000

          k = 0.0000 0.6667 0.0000 (  5490 PWs)   bands (ev):

   -28.6868  -9.1591  -8.7076  -8.7076  -0.1468   9.5902  11.5306  11.5306
    12.7579  18.2914  18.3501  19.0327  19.0327  22.3160  26.6103  28.5945

          k =-0.0833 0.7500-0.0833 (  5497 PWs)   bands (ev):

   -28.6700  -9.2260  -8.7618  -8.7315  -0.1709   9.8380  11.1853  11.4158
    12.9407  18.7805  18.8136  19.3757  19.3912  22.3786  25.2316  28.1986

          k = 0.8333-0.1667 0.8333 (  5488 PWs)   bands (ev):

   -28.6575  -9.2487  -8.8655  -8.7285  -0.0949  10.0160  10.6130  11.0964
    13.5933  18.8465  19.4106  19.6561  19.6709  22.7836  24.2679  27.7734

          k = 0.7500-0.0833 0.7500 (  5475 PWs)   bands (ev):

   -28.6527  -9.2052  -9.0049  -8.6994   0.0643   9.7794  10.3946  10.7060
    14.5062  18.2712  19.0517  19.7891  20.6382  23.6486  24.1330  26.6451

          k = 0.6667-0.0000 0.6667 (  5480 PWs)   bands (ev):

   -28.6570  -9.1835  -9.0618  -8.6513   0.2636   9.2801  10.3463  10.4137
    15.6304  17.5992  18.4770  19.5661  21.5208  24.2605  25.0059  25.0102

          k = 0.0000 0.8333 0.0000 (  5498 PWs)   bands (ev):

   -28.6585  -9.2652  -8.7654  -8.7654  -0.3222  10.1828  11.5974  11.5974
    12.3633  18.7161  18.9615  19.7054  19.7054  22.2230  24.4464  28.3737

          k = 0.9167-0.0833 0.9167 (  5479 PWs)   bands (ev):

   -28.6507  -9.2767  -8.8179  -8.7710  -0.3277  10.4022  11.1833  11.4822
    12.7316  19.0762  19.2460  19.6151  19.7589  22.5038  23.7412  28.4048

          k = 0.8333 0.0000 0.8333 (  5480 PWs)   bands (ev):

   -28.6486  -9.2340  -8.9291  -8.7470  -0.1863  10.4635  10.5081  11.1407
    13.5016  18.9572  19.5011  19.5792  19.7803  23.3527  23.5260  27.5073

          k = 0.0000-1.0000 0.0000 (  5466 PWs)   bands (ev):

   -28.6482  -9.2991  -8.7865  -8.7865  -0.4127  10.5116  11.6340  11.6340
    12.2285  18.8603  19.2129  19.8993  19.8993  22.2720  23.4390  28.4652

          k =-0.1667 0.3333 0.0000 (  5489 PWs)   bands (ev):

   -28.7559  -8.8612  -8.5732  -8.5047  -0.2120   9.9027  11.0758  11.4218
    14.6535  16.4263  16.8569  17.2461  18.3055  20.0770  25.4534  29.7771

          k =-0.2500 0.4167-0.0833 (  5486 PWs)   bands (ev):

   -28.7294  -9.0723  -8.6271  -8.5209   0.0937   9.3374  10.5471  11.0153
    14.9205  16.9209  17.7003  17.8734  19.2974  21.0344  26.4025  27.9385

          k =-0.3333 0.5000-0.1667 (  5474 PWs)   bands (ev):

   -28.7027  -9.2801  -8.6609  -8.5484   0.3890   8.8583  10.1397  10.5683
    15.4509  17.5683  18.1900  18.8576  20.3117  21.7638  25.9374  27.1182

          k = 0.5833-0.4167 0.7500 (  5474 PWs)   bands (ev):

   -28.6830  -9.4278  -8.6760  -8.5759   0.6001   8.5237   9.9511  10.2028
    16.2253  17.9539  18.2523  19.7170  21.2913  22.1819  25.2542  26.4519

          k = 0.5000-0.3333 0.6667 (  5492 PWs)   bands (ev):

   -28.6758  -9.4809  -8.6791  -8.5881   0.6765   8.4023   9.9772   9.9882
    17.0312  17.2915  18.5443  20.0642  21.8925  22.1902  25.0096  26.4522

          k =-0.1667 0.5000 0.0000 (  5481 PWs)   bands (ev):

   -28.7199  -9.0541  -8.6571  -8.5874   0.0103   9.3247  10.9964  11.2258
    13.9807  17.7489  17.7578  18.0587  18.6598  21.6831  27.0400  27.7871

          k =-0.2500 0.5833-0.0833 (  5490 PWs)   bands (ev):

   -28.6959  -9.2003  -8.7196  -8.6132   0.1769   9.1829  10.5230  10.8968
    14.3700  18.2318  18.2688  18.7193  19.6791  22.1665  26.0648  27.2934

          k = 0.6667-0.3333 0.8333 (  5491 PWs)   bands (ev):

   -28.6763  -9.3160  -8.7673  -8.6398   0.3284   9.0629  10.1884  10.5528
    15.0390  18.1309  18.7551  19.4550  20.7571  22.5102  24.9968  26.8193

          k = 0.5833-0.2500 0.7500 (  5479 PWs)   bands (ev):

   -28.6665  -9.3708  -8.8077  -8.6426   0.4335   8.9149  10.1438  10.2618
    15.9425  17.4025  18.8788  20.0557  21.4281  22.8586  24.6259  26.6623

          k = 0.5000-0.1667 0.6667 (  5478 PWs)   bands (ev):

   -28.6690  -9.3557  -8.8292  -8.6177   0.4668   8.8274  10.0856  10.3015
    16.4779  17.0313  18.5283  19.7481  21.7857  22.8813  24.7994  26.2381

          k = 0.4167-0.0833 0.5833 (  5478 PWs)   bands (ev):

   -28.6833  -9.2836  -8.8091  -8.5787   0.4132   8.8688  10.0747  10.5482
    15.7753  17.8236  17.9384  19.0083  21.3709  22.3673  25.3135  26.5088

          k = 0.3333 0.0000 0.5000 (  5473 PWs)   bands (ev):

   -28.7055  -9.1813  -8.7358  -8.5419   0.2777   9.0417  10.2453  10.8147
    15.2390  17.3719  17.9209  18.4793  20.2793  21.7925  26.2830  26.8137

          k =-0.1667 0.6667-0.0000 (  5489 PWs)   bands (ev):

   -28.6840  -9.1879  -8.7401  -8.6875  -0.0290   9.5112  11.0400  11.1436
    13.4602  18.3396  18.9226  18.9438  19.1837  22.3790  25.9557  27.7145

          k = 0.7500-0.2500 0.9167 (  5491 PWs)   bands (ev):

   -28.6671  -9.2430  -8.8172  -8.7151   0.0334   9.6607  10.5780  10.8964
    13.9896  18.4499  19.1668  19.2861  20.1477  22.6926  24.8186  27.2669

          k = 0.6667-0.1667 0.8333 (  5478 PWs)   bands (ev):

   -28.6572  -9.2503  -8.9167  -8.7122   0.1406   9.5972  10.3323  10.6166
    14.7845  17.8368  19.3064  19.7049  20.7961  23.3734  24.3427  26.8205

          k = 0.5833-0.0833 0.7500 (  5473 PWs)   bands (ev):

   -28.6570  -9.2276  -8.9914  -8.6779   0.2644   9.3005  10.3418  10.3859
    15.8060  17.0425  18.9657  19.6444  21.3812  24.2315  24.4259  25.7761

          k = 0.5000 0.0000 0.6667 (  5493 PWs)   bands (ev):

   -28.6666  -9.2477  -8.9461  -8.6274   0.3668   9.0299  10.1458  10.4775
    16.3340  16.9229  18.4404  19.2264  21.8188  23.4942  24.8001  25.8619

          k = 0.8333-0.1667 1.0000 (  5491 PWs)   bands (ev):

   -28.6577  -9.2511  -8.8004  -8.7727  -0.2067  10.1262  11.1177  11.1205
    13.1617  18.8260  19.1635  19.6400  19.6823  22.5574  24.3698  27.7984

          k = 0.7500-0.0833 0.9167 (  5480 PWs)   bands (ev):

   -28.6504  -9.2254  -8.9039  -8.7750  -0.1261  10.2780  10.5661  10.9336
    13.8084  18.4605  19.3166  19.7235  20.1782  23.2384  23.9470  27.2985

          k = 0.6667 0.0000 0.8333 (  5483 PWs)   bands (ev):

   -28.6502  -9.1451  -9.0516  -8.7367   0.0471   9.8627  10.4299  10.6544
    14.7031  17.7216  19.4278  19.5668  20.7350  23.9437  24.3329  26.2976

          k =-0.1667-1.0000-0.0000 (  5472 PWs)   bands (ev):

   -28.6480  -9.2662  -8.8223  -8.8074  -0.2976  10.4864  11.1156  11.1345
    13.0703  19.0968  19.1553  19.6432  19.9023  22.8896  23.4794  27.9284

          k = 0.6667-0.3333 1.0000 (  5469 PWs)   bands (ev):

   -28.6765  -9.2378  -8.8280  -8.6490   0.2219   9.2538  10.3355  10.7071
    14.7935  18.0223  18.7122  18.9295  20.7714  22.6659  25.1869  26.7519

          k = 0.5833-0.2500 0.9167 (  5486 PWs)   bands (ev):

   -28.6622  -9.2523  -8.9029  -8.6931   0.2537   9.3132  10.2543  10.5188
    15.4518  17.2831  19.1269  19.3733  21.2981  23.4139  24.6881  26.2831

          k = 0.5000-0.1667 0.8333 (  5480 PWs)   bands (ev):

   -28.6570  -9.2550  -8.9287  -8.7136   0.2651   9.3219  10.3333  10.3611
    16.2160  16.4126  19.3107  19.7263  21.2333  23.9457  24.4880  26.2203

          k = 0.6667-0.1667 1.0000 (  5494 PWs)   bands (ev):

   -28.6554  -9.2123  -8.8948  -8.7773   0.0363   9.8641  10.4660  10.6791
    14.5224  17.7917  19.2044  19.6159  20.7289  23.3583  24.5107  26.6884

          k = 0.5833-0.0833 0.9167 (  5480 PWs)   bands (ev):

   -28.6501  -9.1470  -8.9949  -8.8004   0.0875   9.8072  10.4190  10.5399
    15.2854  16.9176  19.4021  19.7276  20.8688  24.1820  24.6571  26.0663

          k = 0.5000 0.0000 0.8333 (  5484 PWs)   bands (ev):

   -28.6526  -9.1486  -9.0214  -8.7596   0.1673   9.5753  10.3893  10.4704
    16.1066  16.2401  19.4157  19.5194  21.1103  24.3930  24.9497  25.4897

          k =-0.3333-1.0000 0.0000 (  5494 PWs)   bands (ev):

   -28.6477  -9.1753  -8.9192  -8.8486  -0.0567  10.2757  10.4463  10.6767
    14.4349  17.6809  19.2342  19.9085  20.5458  23.9015  24.0613  26.7519

          k =-0.5000-1.0000 0.0000 (  5520 PWs)   bands (ev):

   -28.6476  -9.0487  -9.0487  -8.8689   0.0701   9.8896  10.4775  10.4775
    16.0258  16.0258  19.2955  19.9115  20.8309  24.4081  25.3950  25.3950

     the Fermi energy is    12.1599 ev

!    total energy              =     -97.34528257 Ry
     estimated scf accuracy    <          4.1E-11 Ry
     smearing contrib. (-TS)   =      -0.00000000 Ry
     internal energy E=F+TS    =     -97.34528257 Ry

     The total energy is F=E-TS. E is the sum of the following terms:
     one-electron contribution =      -9.76231643 Ry
     hartree contribution      =      13.04588766 Ry
     xc contribution           =     -15.33534273 Ry
     ewald contribution        =     -85.29351107 Ry

     convergence has been achieved in   9 iterations

     Writing all to output data dir out/mp-2114.save/
 
     init_run     :      0.49s CPU      0.60s WALL (       1 calls)
     electrons    :      8.38s CPU      9.25s WALL (       1 calls)

     Called by init_run:
     wfcinit      :      0.46s CPU      0.56s WALL (       1 calls)
     potinit      :      0.01s CPU      0.01s WALL (       1 calls)
     hinit0       :      0.01s CPU      0.01s WALL (       1 calls)

     Called by electrons:
     c_bands      :      7.14s CPU      7.72s WALL (       9 calls)
     sum_band     :      1.19s CPU      1.32s WALL (       9 calls)
     v_of_rho     :      0.03s CPU      0.04s WALL (      10 calls)
     mix_rho      :      0.01s CPU      0.01s WALL (       9 calls)

     Called by c_bands:
     init_us_2    :      0.09s CPU      0.10s WALL (    1368 calls)
     init_us_2:cp :      0.09s CPU      0.10s WALL (    1368 calls)
     cegterg      :      6.65s CPU      6.93s WALL (     648 calls)

     Called by *egterg:
     cdiaghg      :      0.70s CPU      0.73s WALL (    2542 calls)
     h_psi        :      5.90s CPU      6.19s WALL (    2614 calls)
     g_psi        :      0.03s CPU      0.03s WALL (    1894 calls)

     Called by h_psi:
     h_psi:calbec :      0.13s CPU      0.14s WALL (    2614 calls)
     vloc_psi     :      5.67s CPU      5.95s WALL (    2614 calls)
     add_vuspsi   :      0.07s CPU      0.08s WALL (    2614 calls)

     General routines
     calbec       :      0.12s CPU      0.13s WALL (    2614 calls)
     fft          :      0.01s CPU      0.02s WALL (      99 calls)
     ffts         :      0.00s CPU      0.00s WALL (       9 calls)
     fftw         :      6.19s CPU      6.51s WALL (   70048 calls)
     davcio       :      0.09s CPU      0.38s WALL (    2174 calls)
 
     Parallel routines
 
     PWSCF        :      9.12s CPU     12.48s WALL

 
   This run was terminated on:   2:15:45  19Dec2023            

=------------------------------------------------------------------------------=
   JOB DONE.
=------------------------------------------------------------------------------=
