
     Program PWSCF v.7.1 starts on 18Dec2023 at 18:51:19 

     This program is part of the open-source Quantum ESPRESSO suite
     for quantum simulation of materials; please cite
         "P. Giannozzi et al., J. Phys.:Condens. Matter 21 395502 (2009);
         "P. Giannozzi et al., J. Phys.:Condens. Matter 29 465901 (2017);
         "P. Giannozzi et al., J. Chem. Phys. 152 154105 (2020);
          URL http://www.quantum-espresso.org", 
     in publications or presentations arising from this work. More details at
     http://www.quantum-espresso.org/quote

     Parallel version (MPI), running on    24 processors

     MPI processes distributed on     1 nodes
     122783 MiB available memory on the printing compute node when the environment starts
 
     Reading input from pw_mp-2114_nscf_k260_E139.in
Warning: card &IONS ignored
Warning: card / ignored
Warning: card &CELL ignored
Warning: card / ignored

     Current dimensions of program PWSCF are:
     Max number of different atomic species (ntypx) = 10
     Max number of k-points (npk) =  40000
     Max angular momentum in pseudopotentials (lmaxx) =  4

     Atomic positions and unit cell read from directory:
     out/mp-2114.save/
     Atomic positions from file used, from input discarded
 
 
     R & G space division:  proc/nbgrp/npool/nimage =      24
     Subspace diagonalization in iterative solution of the eigenvalue problem:
     one sub-group per band group will be used
     scalapack distributed-memory algorithm (size of sub-group:  4*  4 procs)

 
     Parallelization info
     --------------------
     sticks:   dense  smooth     PW     G-vecs:    dense   smooth      PW
     Min          68      68     19                 1827     1827     280
     Max          69      69     20                 1831     1831     282
     Sum        1639    1639    475                43895    43895    6735
 
     Using Slab Decomposition
 


     bravais-lattice index     =            2
     lattice parameter (alat)  =       9.2535  a.u.
     unit-cell volume          =     198.0857 (a.u.)^3
     number of atoms/cell      =            2
     number of atomic types    =            2
     number of electrons       =        16.00
     number of Kohn-Sham states=         2040
     kinetic-energy cutoff     =     139.0000  Ry
     charge density cutoff     =     556.0000  Ry
     Exchange-correlation= PBE
                           (   1   4   3   4   0   0   0)

     celldm(1)=   9.253465  celldm(2)=   0.000000  celldm(3)=   0.000000
     celldm(4)=   0.000000  celldm(5)=   0.000000  celldm(6)=   0.000000

     crystal axes: (cart. coord. in units of alat)
               a(1) = (  -0.500000   0.000000   0.500000 )  
               a(2) = (   0.000000   0.500000   0.500000 )  
               a(3) = (  -0.500000   0.500000   0.000000 )  

     reciprocal axes: (cart. coord. in units 2 pi/alat)
               b(1) = ( -1.000000 -1.000000  1.000000 )  
               b(2) = (  1.000000  1.000000  1.000000 )  
               b(3) = ( -1.000000  1.000000 -1.000000 )  


     PseudoPot. # 1 for N  read from file:
     /usr/scratch4/magr4985/MG/HTDF/pseudo/SG15/N.upf
     MD5 check sum: c233fa8df51455e992258b7c3dee8a9f
     Pseudo is Norm-conserving, Zval =  5.0
     Generated using ONCVPSP code by D. R. Hamann
     Using radial grid of  602 points,  4 beta functions with: 
                l(1) =   0
                l(2) =   0
                l(3) =   1
                l(4) =   1

     PseudoPot. # 2 for Y  read from file:
     /usr/scratch4/magr4985/MG/HTDF/pseudo/SG15/Y.upf
     MD5 check sum: 1a657b90673a6e990374512484d9703d
     Pseudo is Norm-conserving, Zval = 11.0
     Generated using ONCVPSP code by D. R. Hamann
     Using radial grid of  602 points,  6 beta functions with: 
                l(1) =   0
                l(2) =   0
                l(3) =   1
                l(4) =   1
                l(5) =   2
                l(6) =   2

     atomic species   valence    mass     pseudopotential
        N              5.00    14.00670     N ( 1.00)
        Y             11.00    88.90590     Y ( 1.00)

     48 Sym. Ops., with inversion, found



   Cartesian axes

     site n.     atom                  positions (alat units)
         1           Y   tau(   1) = (   0.0000000   0.0000000   0.0000000  )
         2           N   tau(   2) = (  -0.5000000   0.5000000   0.5000000  )

     number of k points=    16  Gaussian smearing, width (Ry)=  0.0005
                       cart. coord. in units 2pi/alat
        k(    1) = (   0.0000000   0.0000000   0.0000000), wk =   0.0092593
        k(    2) = (  -0.1666667   0.1666667  -0.1666667), wk =   0.0740741
        k(    3) = (  -0.3333333   0.3333333  -0.3333333), wk =   0.0740741
        k(    4) = (   0.5000000  -0.5000000   0.5000000), wk =   0.0370370
        k(    5) = (   0.0000000   0.3333333   0.0000000), wk =   0.0555556
        k(    6) = (  -0.1666667   0.5000000  -0.1666667), wk =   0.2222222
        k(    7) = (   0.6666667  -0.3333333   0.6666667), wk =   0.2222222
        k(    8) = (   0.5000000  -0.1666667   0.5000000), wk =   0.2222222
        k(    9) = (   0.3333333   0.0000000   0.3333333), wk =   0.1111111
        k(   10) = (   0.0000000   0.6666667   0.0000000), wk =   0.0555556
        k(   11) = (   0.8333333  -0.1666667   0.8333333), wk =   0.2222222
        k(   12) = (   0.6666667  -0.0000000   0.6666667), wk =   0.1111111
        k(   13) = (   0.0000000  -1.0000000   0.0000000), wk =   0.0277778
        k(   14) = (   0.6666667  -0.3333333   1.0000000), wk =   0.2222222
        k(   15) = (   0.5000000  -0.1666667   0.8333333), wk =   0.2222222
        k(   16) = (  -0.3333333  -1.0000000   0.0000000), wk =   0.1111111

     Dense  grid:    43895 G-vectors     FFT dimensions: (  50,  50,  50)

     Estimated max dynamical RAM per process >     234.79 MB

     Estimated total dynamical RAM >       5.50 GB

     The potential is recalculated from file :
     out/mp-2114.save/charge-density

     Starting wfcs are random

     Band Structure Calculation
     Davidson diagonalization with overlap

     ethr =  5.00E-06,  avg # of iterations =  7.1

     total cpu time spent up to now is     4252.4 secs

     End of band structure calculation

          k = 0.0000 0.0000 0.0000 (  5577 PWs)   bands (ev):

   -28.8022  -8.4668  -8.4668  -8.4668  -0.8289  12.0321  12.0321  12.0321
    15.1654  15.1654  15.1654  16.1634  17.1402  17.1402  22.9533  35.3070
    35.3070  35.3070  36.5596  36.5596  36.5596  39.7109  39.7109  39.7109
    41.1925  41.1925  45.9997  45.9997  45.9997  46.0684  52.9822  52.9822
    58.4599  58.4599  58.4599  60.9005  61.3640  61.3640  61.3640  61.4462
    65.8856  65.8856  65.8856  67.5140  67.5140  67.5140  69.4203  69.4203
    69.4203  69.4894  69.4894  69.4894  72.6165  72.6165  73.4210  73.4210
    73.4210  74.4619  75.0862  84.0263  84.0263  84.0263  85.1670  85.1670
    97.1988  97.1988  97.1988  97.1991 101.8078 101.8078 101.8078 102.3345
   102.3345 102.3345 103.8434 103.8434 109.1206 109.1206 109.1206 109.8005
   114.0877 114.0877 114.0877 116.5293 116.5293 116.5293 117.1030 117.1030
   117.3192 117.3192 117.3192 118.2421 118.2421 118.2421 118.5523 119.6737
   119.6737 119.6737 120.0467 120.0467 120.0467 120.2654 120.2654 121.4646
   121.4646 121.4646 123.8868 123.8868 124.8333 124.8333 124.8333 125.7209
   128.3570 136.2654 136.2654 136.2654 137.3314 138.5660 138.5660 138.5660
   141.7826 141.7826 146.9886 146.9886 147.0076 147.0076 147.0076 147.0196
   147.0196 147.0196 147.0335 147.0335 147.0335 147.1322 147.1322 147.1322
   148.3712 148.3712 148.3712 148.8670 148.8670 151.9430 159.5450 160.2416
   160.2416 160.2416 160.4624 160.4624 160.4624 162.7902 164.1799 164.1799
   164.1799 164.6561 164.6561 164.6561 165.6731 165.6731 165.6731 165.8491
   165.8491 165.8491 171.2772 172.0185 172.0185 172.0965 172.0965 172.0965
   172.2138 185.2782 185.2782 185.3108 185.3108 185.3108 185.3859 185.3859
   185.3859 188.4537 188.4537 188.4537 194.7578 194.7578 194.7578 195.4733
   203.0642 203.0642 203.0642 203.9805 203.9805 205.0857 205.0857 205.0857
   205.3700 206.1351 206.1351 206.1351 206.7693 206.7693 207.8621 207.8621
   207.8621 208.0288 208.0288 208.0288 210.2342 211.6781 211.6781 211.6781
   212.0605 212.0605 212.7272 212.7272 212.7272 213.2227 213.6069 213.6069
   214.3149 215.4514 215.4514 215.4514 215.8873 215.8873 215.8873 217.0592
   217.0592 217.0592 217.5228 217.5228 217.5228 218.4586 219.9499 219.9499
   219.9499 220.0453 220.0453 220.6997 220.6997 220.6997 221.6602 221.6602
   221.6602 222.2390 223.2842 223.2842 223.2842 223.4170 223.4170 224.1257
   224.1257 224.1257 224.7273 224.7273 224.7273 225.2072 225.2072 225.2072
   225.2640 225.2640 228.0552 238.4068 238.4068 238.4068 239.4694 239.4694
   241.2997 241.2997 241.2997 241.4677 241.4677 241.4677 241.5920 241.5920
   241.5920 241.7800 241.7800 241.7800 244.9010 249.1239 249.1239 249.2060
   249.2060 249.2060 249.2883 255.2816 255.2816 255.2816 255.3038 256.9720
   256.9720 256.9720 259.6558 263.4844 263.4844 263.6378 263.6378 263.6378
   264.1051 264.1051 264.1051 264.2181 264.2181 264.2181 264.3022 264.3022
   264.3022 264.4204 264.4204 268.9224 268.9224 268.9224 270.1464 270.4455
   270.4455 270.4455 272.2402 272.2402 272.2402 272.2761 272.2761 272.2761
   272.2887 272.2887 272.2887 272.2952 272.2952 272.4414 272.4414 272.4414
   272.4677 272.4677 274.6111 284.3290 284.3290 284.3290 291.2919 291.2919
   293.2678 293.4584 293.4584 293.4584 293.6428 295.3810 295.3810 295.3810
   297.4214 297.4214 297.4214 297.8779 297.8779 298.0569 298.0569 298.0569
   299.9958 301.2764 301.2764 301.2764 301.7915 310.2697 310.2697 310.2697
   313.4661 313.4661 313.4661 313.8566 313.8566 313.8566 314.1120 314.1120
   314.1120 314.5889 314.5889 314.5889 316.9719 316.9719 316.9719 317.0713
   317.3192 317.3192 317.3192 317.3363 317.3363 317.5149 317.5149 317.5149
   317.6070 317.6070 317.7425 317.7425 317.7425 317.7598 317.7598 317.7598
   319.6975 319.6975 319.8700 319.8700 319.8700 320.0003 320.1584 320.1584
   320.1584 320.2370 320.2370 320.2370 322.3304 322.3304 322.3687 322.3687
   322.3687 322.4234 328.8677 336.8200 337.6245 337.6245 337.6245 337.9792
   337.9792 337.9792 340.4046 340.8899 340.8899 341.1534 341.1534 341.1534
   341.4865 341.4865 341.4865 341.9462 341.9462 341.9462 342.0836 342.0836
   342.0836 342.6843 342.6843 345.8380 345.8380 345.8380 347.4237 347.4237
   347.4237 347.5175 347.5175 347.5175 347.5752 347.5752 347.5850 347.5850
   347.6373 347.6373 347.6373 347.6804 347.6804 347.6804 349.7533 349.8348
   349.8348 349.8348 349.9554 349.9554 349.9554 350.1114 354.4650 354.4650
   354.4650 354.6658 354.6658 355.6020 355.6020 355.6020 356.0680 356.0680
   356.0680 356.0706 356.8640 356.8640 356.8640 358.3202 358.3202 358.3202
   358.3694 358.8998 358.8998 358.8998 360.6457 360.6457 360.9054 360.9054
   360.9054 361.3770 365.7813 365.7813 366.1451 366.1451 366.1451 366.8383
   366.8383 366.8383 366.8888 366.8888 366.8888 367.1872 367.2388 367.2388
   367.2388 367.2459 367.2459 367.9089 367.9089 367.9089 368.0157 368.0157
   368.0939 370.2837 370.2837 370.2837 370.3068 370.3068 370.3068 370.4369
   370.4369 370.4369 370.4687 370.4687 370.4687 371.9570 372.0107 372.0107
   372.0107 372.0254 372.0254 379.7327 379.7327 379.7327 384.7580 384.7580
   391.3026 406.3209 406.3209 406.3209 409.3333 410.3568 410.3568 410.3568
   410.3617 411.1763 411.1763 411.1763 411.5685 411.5685 411.5685 411.5743
   411.5743 411.5743 411.6272 411.6272 411.6272 411.8909 411.8909 412.4127
   412.4127 412.4127 413.0342 413.0342 415.1968 415.1968 415.1968 415.3513
   415.3618 415.3618 415.3618 415.4406 415.6879 415.6879 416.7004 416.7004
   416.7004 416.7375 416.7375 416.7375 416.8326 416.8326 416.8326 416.9417
   416.9417 416.9417 423.6059 423.6059 423.6089 423.6089 423.6089 423.6411
   423.6411 423.6411 423.7842 423.7842 423.7842 423.8304 423.8304 423.8304
   423.8774 423.8774 424.4561 424.4561 424.4572 424.4572 424.4572 424.4917
   425.2519 434.5374 434.5374 434.5374 434.7384 434.7384 434.7384 436.1665
   436.1974 436.1974 437.9690 437.9690 437.9690 442.8605 442.8605 442.8605
   445.5760 445.6472 445.6472 445.6472 445.6941 445.6941 446.3477 446.3477
   446.3477 446.3546 446.3546 446.3546 446.4374 446.4374 446.4374 446.4689
   446.4689 446.4689 447.5654 447.5654 448.3934 449.9409 449.9409 449.9409
   454.3229 454.3229 454.3229 455.0559 455.0559 455.5946 455.5946 455.5946
   459.8360 459.8360 459.8360 459.8649 459.8649 459.8649 459.8923 459.8923
   459.8923 459.9053 460.4002 460.8693 460.9357 460.9357 461.4646 461.4646
   461.4646 462.3570 462.3570 462.3570 462.5658 462.5658 462.5658 462.5664
   462.5664 463.6896 463.9181 463.9181 463.9181 464.4929 464.4929 464.4929
   464.7992 468.7363 468.7363 468.7363 470.7782 470.7782 470.7917 470.7917
   470.7917 470.8523 470.8523 470.8523 470.8864 470.8864 470.8864 470.8949
   471.1749 471.1749 471.1749 471.3158 471.3158 471.9746 471.9746 471.9746
   473.4921 473.7472 473.7472 473.7472 473.8187 473.8187 473.8187 474.0291
   474.0291 474.0291 474.0476 474.0476 475.0495 486.2481 486.2481 486.2481
   491.7607 491.7607 492.0899 492.0899 492.0899 492.4394 492.4394 492.4394
   492.4754 492.4782 492.4782 492.4782 492.5563 492.5563 492.5563 492.9357
   492.9357 493.0073 493.0073 493.0073 493.0596 493.6718 493.6718 493.6718
   498.9044 498.9552 498.9552 505.0858 505.0858 505.0858 505.5030 508.1075
   508.1075 508.1075 508.6184 508.6184 508.6348 508.8517 508.8517 508.8517
   508.8860 508.8860 508.8860 509.1396 509.1396 509.1396 511.6912 511.6912
   511.6912 512.1251 512.1251 514.3484 514.3484 514.3484 514.4426 514.4426
   514.4426 514.5843 514.5843 514.5843 514.7283 514.7283 514.7283 514.8248
   514.8248 515.1065 515.1065 515.1065 515.2781 515.2781 515.2781 515.6075
   515.6075 515.6075 515.6592 515.6592 515.6592 515.8222 515.8222 516.5373
   516.5373 516.5373 517.5269 517.7499 517.9613 517.9613 517.9613 518.1735
   518.1735 518.1735 518.3847 518.9068 518.9068 518.9068 519.7339 519.7339
   519.9593 519.9593 519.9593 519.9720 519.9720 519.9720 520.2701 520.2701
   520.2701 520.7455 520.7455 520.7455 521.8884 521.8884 522.9486 523.1002
   523.1291 523.1291 523.1291 523.1416 523.1416 524.8499 524.8499 524.8824
   524.8824 524.8824 524.8882 524.8882 524.8882 524.8962 524.8962 524.8962
   524.9442 524.9442 525.0161 525.0161 525.0161 525.4714 525.4714 525.4714
   525.4732 525.4739 525.4739 525.4739 525.4811 536.1475 536.1475 536.1475
   537.9640 539.9248 539.9248 539.9248 540.1431 548.2341 548.2341 548.2341
   548.3303 548.3303 548.3514 548.3514 548.3514 548.4469 548.4469 548.4469
   548.4999 548.4999 548.4999 548.5219 548.5219 552.0774 552.0774 552.0774
   555.9765 555.9765 555.9765 556.1326 556.1326 556.1326 556.1492 556.1492
   556.1492 556.6862 558.4200 558.4200 558.4200 558.8969 558.8969 560.8688
   560.8688 560.8688 560.9448 561.1276 561.1276 566.9851 566.9980 566.9980
   567.0521 567.0521 567.0521 570.6725 570.6725 570.6725 570.6730 570.6730
   570.6730 570.6736 570.6736 570.6736 570.7008 570.7008 570.7008 572.5089
   572.5106 572.5106 572.5106 572.5119 572.5119 592.0500 592.0500 592.0500
   593.6361 593.6361 593.6361 593.6649 593.7099 593.7473 593.7473 593.7473
   593.8264 593.8264 593.8264 593.8462 593.8462 593.8462 593.9243 593.9243
   595.2118 595.2118 595.6316 595.6316 595.6316 597.6853 597.6853 597.6853
   597.8131 597.8131 597.8131 598.7181 600.4528 600.4528 600.4528 600.6437
   600.6437 603.9822 603.9822 603.9822 606.0083 607.7154 608.8617 608.8617
   608.8617 610.0070 612.0030 612.0030 612.0936 612.0936 612.0936 613.4159
   613.4159 613.4159 613.8683 613.8683 613.8683 613.9862 613.9862 613.9862
   613.9996 613.9996 613.9996 614.0319 614.0319 614.3520 614.3520 614.3520
   614.7854 615.1359 615.1359 615.1359 615.5731 616.5447 616.5447 617.1901
   617.1901 617.1901 617.3839 617.3839 617.3839 617.4345 617.4345 617.4392
   617.4392 617.4392 617.8230 617.8230 617.8230 617.8694 617.8694 617.8694
   618.2317 618.2317 618.4035 618.4035 618.4035 618.6941 618.6941 618.6941
   618.7767 618.8337 618.8337 618.8471 618.8471 618.8471 618.8672 618.8672
   618.8672 619.5221 619.5221 619.6657 620.2476 620.3265 620.3265 620.3265
   620.4078 620.4078 620.4078 620.4628 620.4628 620.4628 621.9802 621.9802
   621.9802 624.6844 624.6844 639.4621 639.4621 639.4621 640.7833 641.4766
   641.4766 641.4766 641.6505 641.6505 641.6505 641.7224 641.7585 641.7585
   641.8972 641.8972 641.8972 641.9037 641.9037 641.9037 642.0570 642.0570
   642.0570 642.0831 642.0831 642.0831 642.4333 642.4333 642.8822 642.8822
   642.8822 643.6430 643.6430 643.6430 643.8213 643.8213 643.8213 643.9345
   646.0245 646.0245 647.7421 647.9327 647.9327 647.9327 648.0205 648.0205
   648.0205 648.0748 648.0748 648.0748 648.0772 648.0772 648.0772 648.1143
   648.1143 648.1542 648.1981 648.1981 648.1981 648.2037 648.2037 648.2037
   649.0038 649.0038 649.0038 649.8155 649.8155 650.3298 650.3298 650.3298
   650.4315 650.6534 650.6534 654.7274 654.7274 654.7274 656.7945 656.7945
   656.7945 657.7667 657.7667 658.0465 658.2734 658.2734 658.2734 658.3092
   658.3092 658.3092 658.4568 658.4568 658.4568 658.5887 660.5925 660.5925
   660.5925 664.2199 664.2199 664.3608 664.4533 664.4533 664.4533 664.7207
   664.7207 664.7497 664.7497 664.7497 664.9912 664.9912 664.9912 665.1635
   665.1635 665.1635 665.4553 665.4632 665.4632 665.4632 665.6923 665.6923
   666.4774 666.4774 666.4774 668.9638 669.1362 669.1362 669.1362 669.5156
   670.0054 670.0054 670.0054 670.1002 670.1002 670.2028 670.2028 670.2028
   670.4156 670.4338 670.4338 670.4338 670.5002 670.5002 670.5002 670.6436
   670.7874 670.7874 670.7874 670.8100 670.8100 670.8125 670.8125 670.8125
   671.5948 671.5948 671.5948 671.6075 671.6075 671.8198 671.8506 671.8506
   671.8506 672.1417 672.1417 672.1417 672.1477 672.1477 672.1477 672.1917
   672.1917 672.1917 672.5345 672.5345 672.5345 672.8058 676.4555 676.4555
   676.4555 677.4413 677.4413 708.3191 708.3821 708.8143 708.8143 708.8143
   708.8771 708.8771 708.8771 708.9190 708.9190 708.9308 708.9308 708.9308
   708.9391 708.9391 708.9391 709.6572 709.6572 709.6572 711.5348 711.5348
   711.5348 712.9044 712.9044 714.1174 714.1174 714.1174 715.5347 715.5347
   715.5347 715.7449 715.7449 715.7459 715.7820 715.7820 715.7820 715.8202
   715.8202 715.8202 715.8384 715.8384 715.8384 715.8697 715.8697 716.1426
   716.2340 716.2340 716.2340 716.3523 716.3917 716.3917 716.3917 716.6170
   717.2194 717.2194 717.2194 717.8167 717.8167 717.8167 717.9070 717.9627
   717.9627 717.9627 718.1001 718.1001 718.1001 718.1801 718.1801 718.1801
   718.6342 718.6342 718.7510 718.7510 718.7510 718.8842 719.5433 719.5433
   719.5433 719.5467 719.5467 719.5643 719.5643 719.6684 719.6684 719.6684
   719.7780 719.7780 719.7780 719.7863 719.7863 719.7863 723.8116 723.8116
   725.2259 725.2259 725.2259 725.2375 725.2375 725.2375 725.2454 725.2454
   725.2454 725.2770 725.2770 725.2770 725.2922 725.2922 725.3756 725.3756
   727.4140 727.4563 727.4563 727.4563 727.4983 727.4983 727.4983 727.5400
   728.7367 728.7367 728.7367 740.0976 740.0976 740.0976 742.0445 743.0948
   743.1698 743.1698 743.1698 743.2010 743.2010 743.8937 743.8937 743.9045
   743.9045 743.9045 743.9726 743.9726 743.9726 743.9838 743.9838 743.9838
   744.8710 745.0600 745.0600 745.0600 745.3107 745.3107 745.3107 749.7829
   749.7889 749.7889 749.7889 749.7955 749.7955 749.9917 749.9917 749.9917
   750.0037 750.0037 750.0037 750.0168 750.0168 750.0168 750.1242 750.1242
   750.1761 750.1761 750.1761 750.1975 750.2070 750.2070 750.2070 756.6472
   756.6472 756.6472 756.8754 757.0392 760.5132 760.5132 761.5111 761.5111
   761.5111 765.2982 765.2982 765.2982 765.3306 765.3306 765.3306 765.3371
   765.3371 765.3371 766.0663 766.0663 766.0663 767.6634 767.6634 767.6783
   767.6783 767.6783 767.6848 767.6848 767.6848 767.7196 767.7196 767.7196
   767.9803 767.9803 767.9803 768.5072 768.5072 773.9148 773.9149 773.9149
   773.9161 773.9161 773.9161 784.9697 785.0069 785.0069 785.0069 786.5429
   786.5429 786.5429 790.1549 790.1549 794.1743 794.1743 794.1743 799.6277
   799.6277 799.6277 803.1973 804.3982 804.3982 804.3982 804.9765 804.9765
   804.9765 805.2798 805.2798 806.1115 806.1115 806.1115 806.3390 806.9055
   806.9055 806.9055 807.0027 807.0027 807.0027 807.2116 807.2116 807.2116
   808.0136 808.0136 808.0136 809.6357 809.6357 809.7627 810.3650 810.3650
   810.3650 810.8283 810.8283 810.8283 810.9624 810.9624 810.9624 811.0718
   811.5773 811.5773 811.6564 811.6564 811.9146 811.9146 811.9146 812.1108
   812.1108 812.1108 812.1824 812.1824 812.1824 812.2150 812.2150 812.2150
   812.5105 812.5105 812.5917 812.5917 812.5917 812.6047 812.6312 813.1866
   813.1866 813.1866 813.8178 813.8178 813.9129 813.9129 813.9129 814.2041
   814.2041 814.2041 814.3314 814.3314 814.3314 814.5397 817.8988 817.8988
   817.9004 817.9020 817.9020 817.9020 818.3154 818.3154 818.3757 818.3757
   818.3757 819.4815 819.4815 819.4815 820.7058 821.2259 821.2259 821.2259
   821.3513 821.3513 821.3513 821.4136 821.4136 821.4136 821.4470 821.4470
   821.4470 821.5985 821.5994 821.5994 821.5994 821.9211 821.9211 821.9211
   821.9479 821.9721 821.9721 821.9721 821.9865 821.9865 821.9865 822.0028
   822.0028 822.2009 822.2009 822.2009 822.2056 822.2056 822.2056 822.2125
   822.2125 822.2125 822.2387 822.2387 822.6397 822.6397 822.7870 822.7870
   822.7870 822.9401 822.9401 822.9401 823.1150 823.1150 823.1150 823.2930
   823.3660 823.3660 823.3847 823.3847 823.3847 823.4199 825.1082 825.1082
   825.1082 825.1261 825.1261 825.1320 825.1320 825.1320 825.1405 825.1405
   825.1405 825.2547 830.1720 830.1720 830.1720 831.1994 831.1994 838.0890
   838.0890 838.0890 838.4964 838.4998 841.3117 841.3117 841.3117 843.1025
   843.1025 843.1025 843.3768 843.3768 843.3770 843.3770 843.3770 843.4028
   843.5143 843.5143 843.5143 843.5378 843.5378 843.5378 843.5379 843.5379
   843.5379 843.6038 848.4322 848.4322 848.9623 848.9623 848.9623 849.2499
   849.2499 849.2499 849.2590 849.2590 849.2590 849.2790 849.2790 849.2790
   849.2808 849.2808 850.0508 850.0508 850.0508 850.0521 850.0521 860.5819
   860.5904 860.5904 860.5945 860.5945 860.5945 860.6004 860.6004 860.6004
   860.6606 860.6606 860.6606 860.7659 860.7659 860.7659 860.8591 860.8591
   860.8591 860.8880 862.3564 862.3564 864.3854 864.3854 864.3854 864.4431
   864.4431 864.5408 864.5408 864.5408 864.6012 864.6012 864.6012 864.6639
   864.6639 864.6639 865.3143 865.3143 865.3143 865.3184 865.3184 865.3184
   865.3861 865.4266 865.4855 865.6625 865.6625 865.6625 865.9357 865.9357
   865.9357 866.4018 866.4393 866.4393 866.4472 866.4472 866.4472 866.7917
   866.7917 866.7917 866.9071 866.9071 866.9071 866.9912 866.9912 866.9912
   866.9956 866.9956 869.5130 869.5130 871.2765 871.2765 871.2765 872.2122
   872.2122 872.2122 872.4071 872.5684 872.5684 872.5684 872.5888 872.5888
   872.6328 872.6328 872.6328 872.7293 872.7293 872.7293 873.1562 873.2579
   873.2579 873.2579 873.8532 873.8532 874.0230 874.0230 874.0230 874.0302
   874.0302 874.0670 874.0670 874.0670 874.1376 874.1376 874.1376 874.2515
   874.3135 874.3135 874.3135 874.4409 874.4409 874.4409 874.4882 874.4882
   874.4882 874.5239 876.0559 876.0559 883.6965 883.6965 883.6965 884.1787
   884.1787 884.1787 884.1984 894.8242 894.8242 895.9757 895.9757 895.9757
   896.4453 896.5321 896.5321 896.5321 896.5424 896.5952 896.5952 896.5952
   896.6057 896.6057 896.6057 896.6398 896.6398 896.6398 896.6588 896.6588
   897.5683 897.5683 899.6499 899.6499 899.6499 907.4757 907.4757 907.4757
   907.8113 907.8113 907.8113 907.8254 907.8254 907.8254 907.8411 907.8411
   907.8411 907.8429 907.8546 907.8546 907.8546 907.8566 907.8566 907.9934
   910.9992 910.9992 910.9992 913.2106 913.2106 913.3450 913.3450 913.3450
   913.5453 913.6091 916.0364 916.0364 916.0364 916.2268 916.6742 916.6742
   916.6742 917.8863 917.8863 917.8863 917.9183 917.9183 917.9183 917.9231
   917.9231 917.9231 920.2033 920.2033 920.2033 920.9236 920.9236 920.9411
   920.9569 920.9569 920.9569 921.1024 921.1024 921.1024 921.1050 921.1050
   921.1050 921.1079 921.1079 921.1079 921.2075 921.2075 921.2135 921.2135
   921.2135 921.2203 923.0682 923.0682 923.0682 926.2609 926.2609 926.2725
   926.2725 926.2725 926.2746 928.3138 928.3138 941.3593 941.3593 941.3593
   941.3774 941.3774 941.3774 941.3805 941.3805 941.3805 941.3832 941.3832
   941.3832 941.3838 941.3838 941.4225 941.4663 941.5384 941.5384 941.5384
   946.0951 946.0951 947.2033 947.2033 947.2033 947.2094 947.2120 947.2120
   947.7064 947.7064 947.7064 947.9679 947.9679 947.9679 948.0039 948.0039
   948.0039 948.0073 948.0073 948.0073 948.3646 948.3646 948.3646 948.4558
   948.4558 948.4558 948.5495 948.6989 948.6989 948.7407 948.7407 948.7407
   948.8011 948.8011 948.8011 948.8419 948.8419 948.8419 948.8557 948.8676
   948.8676 948.8886 948.8886 948.8886 948.9192 948.9192 948.9192 948.9395
   951.2055 951.2055 951.2056 954.2809 954.2809 956.7442 956.7442 956.7442
   957.9127 958.0386 960.7121 960.7121 960.7121 960.9386 960.9386 960.9386
   960.9911 960.9911 961.0436 961.0436 961.0436 961.0557 961.0557 961.0557
   963.2574 963.2574 963.2574 963.3631 963.3631 963.3631 963.4225 963.5482
   963.5982 963.5982 964.1063 964.1063 964.1189 964.1189 964.1189 964.1273
   964.1273 964.1273 964.1470 964.1470 964.1470 964.1490 964.1490 964.1490
   967.9184 967.9184 967.9184 968.0863 968.0863 968.5654 968.5659 968.5816

          k =-0.1667 0.1667-0.1667 (  5498 PWs)   bands (ev):

   -28.7733  -8.7743  -8.4876  -8.4876  -0.3907  10.6251  11.2445  11.2445
    15.3657  15.8051  15.8051  17.5211  18.3944  18.3944  24.5668  31.6040
    32.5206  32.5206  37.0633  37.4961  37.4961  37.7073  37.7073  40.4963
    42.1262  42.1262  46.3610  48.3220  48.3220  48.6242  53.6471  54.0820
    54.0820  56.5252  56.5252  59.3717  59.3717  59.9952  61.2884  61.9087
    62.9848  64.2745  64.2745  65.6661  67.5931  67.5931  69.8981  69.8981
    69.9235  72.1125  72.1125  73.2649  73.3099  74.1145  74.1145  78.1974
    78.9460  78.9460  80.6618  80.6618  80.8460  86.2678  88.6048  88.6048
    90.6846  92.2611  92.2611  96.1565  99.6625  99.6625 101.4010 102.4249
   102.4249 103.0150 103.7626 105.3800 105.3800 107.3144 107.3144 108.0466
   108.0466 110.0449 110.1480 110.1480 110.7494 114.0496 114.0496 114.3993
   116.6808 117.3357 117.3357 117.9961 117.9961 119.5432 120.0656 120.2246
   120.2246 120.7257 120.8618 120.8618 121.8273 124.4508 124.4508 124.7224
   125.8616 127.8797 129.5923 129.5923 129.7088 130.8452 130.8452 132.3218
   132.3218 133.4669 133.4669 134.4768 134.4768 135.7038 135.7038 136.4467
   137.7952 139.3246 139.6824 139.6824 142.4518 142.7783 142.7783 144.3610
   145.7752 146.6091 146.6091 148.6165 151.2079 151.2079 152.4044 153.0702
   153.0702 153.8144 153.8144 154.3762 154.5346 154.5346 154.6694 155.3396
   155.8935 156.2883 156.2883 158.4938 158.4938 160.3433 162.9252 162.9252
   163.0783 164.0154 164.0154 166.3135 168.1016 168.1016 170.7500 170.7500
   171.8704 172.2580 174.7537 174.7537 175.1199 175.4870 175.4870 176.8222
   180.3974 183.9701 183.9701 184.4710 184.4710 184.6147 185.3953 185.3953
   185.5283 186.5207 190.1307 190.4293 190.4293 192.2596 192.2596 192.2943
   193.6697 193.6697 194.7866 197.4495 197.4495 199.6737 199.6737 199.8552
   201.3451 202.1321 202.1321 202.8239 203.4217 203.4217 204.2866 204.6614
   204.6614 205.2873 205.2873 206.3777 206.7057 207.6694 207.6694 208.4757
   209.2964 209.2964 209.3287 211.7610 211.7610 212.2558 212.7469 212.7469
   212.7661 213.5858 213.5858 215.1005 217.0143 217.3614 217.3614 218.5465
   218.8894 218.8894 219.7183 219.7183 220.2211 220.5713 220.5713 221.2364
   221.5732 221.5732 223.3416 223.7416 223.7416 224.0219 225.0826 225.0826
   225.8177 225.9910 225.9910 226.8389 226.8389 227.8298 227.9882 227.9882
   227.9989 228.2595 229.1567 229.1567 229.3110 230.8223 231.1926 231.1926
   232.9148 232.9148 233.3608 235.2569 236.3493 236.3493 237.8116 238.1469
   238.1469 238.2349 238.9047 238.9047 238.9335 239.5903 242.3372 242.3372
   245.1183 245.1183 246.4178 246.4178 248.1576 250.3610 250.4760 250.4760
   251.8116 251.8116 251.8416 252.5409 252.5409 252.8120 253.8132 253.8793
   253.8793 256.3564 256.7183 256.7183 257.9102 257.9102 259.8867 260.7046
   260.7046 260.9897 261.6722 261.8914 261.8914 262.5466 263.3108 263.3108
   263.9042 263.9042 263.9394 265.8767 265.8767 267.0300 270.1166 272.6257
   272.6257 273.0280 273.8026 273.8026 275.3005 275.3005 275.4711 275.9888
   277.0208 277.1320 277.1320 278.0048 278.0048 279.4754 281.8345 283.6000
   283.6000 284.8372 284.8372 285.0575 285.5376 285.5376 285.5678 286.9926
   286.9926 287.1649 291.0763 293.8113 293.8113 294.3329 295.0999 295.0999
   296.8670 296.8670 296.8830 297.3531 297.3531 297.3708 297.8221 298.4899
   298.4899 298.8760 299.7111 299.7111 300.1336 300.5653 300.5653 300.8042
   300.8042 301.2505 301.3167 301.3167 304.1155 304.9374 304.9374 309.1774
   309.1781 309.1781 309.5513 312.8099 312.8099 314.2860 315.0857 315.0857
   315.1582 317.0911 317.5125 317.5125 318.1941 318.1941 318.3965 318.4829
   318.4899 318.4899 318.9640 319.0640 319.0640 320.8117 321.3742 321.3742
   322.8677 322.8677 322.9452 322.9819 323.2636 323.2636 324.9019 324.9019
   325.4725 325.6103 327.9409 328.6257 328.6257 329.1419 329.3003 329.3003
   329.3340 329.3480 329.3480 330.0185 333.1191 333.1191 334.0410 336.4278
   336.5425 336.5425 336.6870 336.6870 337.6018 337.6018 337.6849 337.9614
   337.9614 337.9701 338.3134 338.3134 338.9057 339.2759 339.6446 339.6446
   340.1353 340.7221 340.7221 340.9225 340.9719 340.9719 341.0952 341.0952
   341.1855 342.9981 342.9981 343.1995 343.3614 343.3614 346.5946 346.5946
   346.5970 347.1060 347.1060 347.9999 348.3076 348.7024 348.9106 348.9106
   349.1291 349.3906 349.3906 349.7296 349.7296 352.0357 352.0357 352.1522
   352.2967 352.6831 352.7587 352.7587 353.8172 353.8923 353.8923 356.6735
   356.6735 357.7309 359.6827 359.6827 360.4755 360.6775 360.6775 360.8983
   361.1360 361.1360 361.4275 361.8826 362.4538 362.4538 363.8777 364.0729
   364.0729 364.1159 364.6369 364.6369 365.2775 365.2959 365.2959 365.5246
   366.7125 366.7125 367.2058 367.2058 367.2522 368.0422 368.0422 370.4742
   372.6243 372.6243 373.5099 373.5099 373.8152 375.0987 375.5301 375.5301
   377.3714 377.4021 377.4021 378.1733 378.7937 379.4623 379.4623 380.6060
   380.6060 380.7618 381.8367 381.9276 381.9276 382.3678 383.8563 385.2151
   385.2151 388.9006 389.7420 389.7420 390.3466 393.0386 393.0386 393.3372
   393.7252 393.7252 394.6834 395.0114 395.0114 395.7202 395.7202 396.8596
   396.8596 397.0963 397.2659 397.9730 397.9730 398.3565 398.3565 399.5856
   399.5856 399.6289 400.3557 402.4271 402.4271 403.2565 403.6254 403.6254
   408.3939 409.6822 409.6822 409.8015 410.6294 410.6294 410.8556 411.0267
   411.0267 411.5591 411.5929 411.5929 411.6300 413.3813 413.3813 413.6421
   418.6198 418.6198 420.0195 420.3423 420.5740 420.5740 422.1956 422.1956
   422.7824 425.4972 426.2955 426.2955 426.3895 426.9427 426.9427 427.4379
   428.0124 428.0124 429.3609 429.3609 430.1840 430.1910 430.3394 430.3394
   430.8066 430.8066 431.0356 431.9771 431.9964 431.9964 432.5087 433.1871
   433.1871 434.5123 434.7330 434.9018 434.9018 435.0936 435.1082 435.1082
   435.9956 436.2831 436.2831 436.5974 436.5974 436.8562 437.1830 437.5417
   437.5417 438.0708 438.0708 438.3822 438.4093 438.4093 439.3010 440.0847
   440.0847 440.4361 442.5920 443.2963 443.2963 443.3562 445.1582 445.1582
   445.3034 446.6783 446.6783 446.7283 447.1620 447.1620 451.6107 451.8857
   451.8857 452.9044 453.1457 453.1555 453.1555 453.3305 453.3305 454.0026
   454.0026 455.6967 455.7735 455.7735 456.1959 460.3971 460.3971 461.1086
   461.4796 461.4798 461.4798 461.7297 461.9327 461.9327 462.0369 462.0369
   462.0590 462.6173 462.8133 462.8133 463.2706 463.4043 463.4043 463.6765
   463.8053 463.8053 466.9734 466.9756 466.9756 468.2387 468.2387 468.3279
   468.6011 468.6011 468.8140 468.9368 468.9368 469.1272 470.3439 471.6470
   471.6470 471.8865 471.8865 472.5112 473.1506 473.1512 473.1512 473.3091
   473.5324 473.5324 474.8938 474.8938 475.3793 476.8785 477.4074 477.4074
   477.6000 477.6922 477.6922 477.7560 478.7853 478.7853 480.2397 480.2397
   481.7045 484.7273 484.7273 484.9187 484.9187 484.9483 485.0405 485.1793
   485.1793 485.7872 485.8239 485.8239 487.6578 487.8763 487.8763 488.3488
   489.7189 490.5596 490.5596 490.6580 491.8528 491.8528 493.6285 494.2921
   494.2921 494.4179 494.7447 494.7447 495.8048 495.8048 495.8048 495.9249
   496.1633 496.1633 496.4680 496.4754 496.4754 496.7613 496.8310 496.8310
   496.8707 498.9204 498.9204 499.4771 500.9578 500.9578 501.3171 501.4973
   501.6228 501.6228 501.8816 501.8816 502.0904 502.1464 502.1464 502.5946
   503.0089 503.0089 503.1106 503.5400 503.7608 503.7608 505.1636 505.6881
   505.6881 505.8528 508.1202 508.1202 508.8243 509.9285 510.2329 510.2329
   511.1168 511.1510 511.1510 511.6470 511.6470 511.8558 512.4703 512.4703
   512.7462 515.4395 515.4395 515.6006 515.6111 515.6111 515.6701 515.6701
   516.2365 516.6014 516.6014 517.0785 518.1166 518.3260 518.3260 518.5508
   519.2032 519.2032 521.0510 521.0510 521.0800 522.6286 523.2484 523.2484
   523.8814 523.8814 524.1381 524.5429 525.1775 525.1775 526.0177 526.0177
   526.3913 529.4062 529.4184 529.4298 529.4298 530.5549 530.5549 531.3256
   531.6406 531.6406 533.3379 533.3379 533.5062 533.5720 533.7555 533.7555
   533.7763 533.7763 533.9980 534.2708 534.3199 534.3199 534.6872 535.0431
   535.0431 535.7684 535.7684 535.8398 536.9244 536.9244 537.0551 540.0230
   540.3157 540.3157 540.6219 540.7272 540.7272 542.3337 542.3337 542.4821
   543.3100 543.4366 543.4366 544.0825 544.0825 544.1312 544.3886 544.7087
   544.7087 544.8037 544.8443 544.8443 545.9228 545.9228 546.2072 546.4784
   546.4784 547.9958 548.4483 548.4676 548.4676 549.3090 549.4415 549.7332
   549.7332 550.4853 550.4853 554.8695 554.8695 555.7221 556.7955 556.8372
   556.8372 557.3286 557.3286 557.3288 560.3413 560.3413 560.3448 561.3131
   561.3131 561.6754 563.9576 563.9751 563.9751 567.7755 567.8850 567.8850
   569.8718 571.0534 571.0534 571.5200 571.6786 572.3762 572.4893 572.4893
   577.4410 577.6110 578.0597 578.0597 578.8787 578.8787 580.0215 580.0215
   580.0949 581.4239 581.4239 581.9541 581.9978 581.9978 582.6715 582.6715
   583.2198 583.9414 583.9414 584.4925 584.5717 584.5717 586.0312 586.0312
   586.0614 586.1050 586.1050 587.6333 588.7577 588.7577 589.0427 590.1570
   590.6067 590.6067 591.5696 591.7727 591.7727 593.7117 594.2215 594.2215
   594.3402 594.3685 594.3685 594.8789 594.9377 594.9377 595.4724 595.4724
   595.5282 596.0054 596.8087 596.8087 597.1371 597.4946 597.4946 597.7417
   597.9472 597.9483 597.9483 599.0622 599.0622 602.6473 603.4787 603.4787
   603.4922 604.1848 604.1848 607.7872 607.7872 609.0004 609.7160 609.7160
   610.0003 610.1399 610.1399 610.9151 610.9656 611.6030 611.6030 611.8555
   612.3646 612.3646 613.8002 613.8002 615.4186 615.4695 615.4875 615.4875
   615.6429 615.6429 615.6750 616.4438 617.5073 617.5073 617.9612 618.2017
   618.2017 618.3885 619.1015 619.1015 619.1480 619.7337 619.7337 619.8815
   619.9468 619.9468 620.0462 620.4843 620.4843 621.6074 621.6074 621.8260
   623.0850 623.0850 623.1340 623.1391 623.3007 623.3247 623.3247 623.6766
   623.6766 624.7416 625.1645 625.4476 625.4476 627.2871 627.2871 627.9673
   627.9673 628.2509 628.6200 628.6200 628.8673 629.3964 629.5159 629.5159
   630.0293 630.0293 630.5008 630.7573 630.9618 630.9618 631.5264 631.5647
   631.5647 631.6920 631.9048 632.5507 632.5507 633.6385 633.6385 634.1154
   634.4421 634.6447 634.6735 634.6735 636.7902 636.7902 637.1306 637.4768
   638.3754 638.3754 639.1356 639.1356 640.9855 641.6267 641.6267 641.7615
   642.1432 642.1432 642.2353 643.4846 643.7001 643.7001 643.9175 644.1392
   644.1392 644.5564 644.6742 644.6742 645.3582 645.4514 645.4514 646.0392
   646.0392 646.5816 646.7872 646.7872 646.8464 647.1490 647.5480 647.5480
   647.9648 647.9648 648.9204 648.9537 648.9537 649.2063 649.2063 649.3549
   649.6640 650.0040 650.1763 650.1763 650.7980 650.7980 651.6287 651.7228
   651.7917 652.2273 652.2273 652.8839 652.8839 653.8133 653.8133 654.9866
   655.5374 655.6061 655.6061 656.1073 656.1073 657.4995 657.4995 657.6826
   658.9554 659.0742 659.0742 659.4199 659.4199 659.4246 659.4811 659.9513
   659.9513 660.3619 661.5700 661.5700 661.8775 662.4447 662.4447 663.0531
   663.0531 663.1761 663.1782 663.5465 663.5465 665.5790 665.5790 666.2343
   666.6126 666.6576 666.6576 666.6911 668.5169 669.4320 669.4320 669.9039
   669.9039 671.8635 671.8854 671.8854 671.9238 672.7451 672.7451 672.9985
   673.6077 673.6077 674.1112 674.1112 674.2433 675.0145 675.0145 675.8019
   677.2887 677.2887 677.3203 679.6450 679.6685 679.6685 679.7696 679.7696
   679.8086 680.2737 680.2737 681.1188 681.4294 681.5484 681.8693 681.8693
   682.4039 682.4039 683.2230 683.2230 683.3203 685.3625 685.5875 685.5875
   686.6667 686.6667 686.7215 687.9282 687.9777 687.9777 688.4151 688.4151
   688.6639 688.8600 689.2578 689.2578 689.4953 689.4953 689.5085 689.7684
   689.7684 690.0144 690.1988 690.6297 690.6420 690.6420 692.8682 692.8682
   693.3414 693.4988 693.9587 693.9587 695.6518 695.6518 697.2427 697.9149
   697.9149 699.3921 699.6059 699.6059 700.0529 700.4427 700.4427 700.5912
   700.7584 700.7584 700.7926 701.2245 701.3629 701.3629 701.9186 701.9186
   702.8567 702.8567 702.9447 702.9931 702.9931 703.0652 705.4773 705.4773
   705.9053 706.0976 706.2426 706.2426 707.4689 707.9880 708.5015 708.5015
   709.9959 709.9959 710.2241 710.4285 710.5719 710.5719 711.1593 711.5626
   711.5626 713.2962 713.5900 713.5900 715.3513 715.5075 715.5075 717.1876
   717.1876 717.2005 717.5771 717.6733 717.6733 717.8301 717.8301 718.1113
   718.6482 719.8188 720.1234 720.1234 721.4483 721.4483 721.4934 721.5573
   722.8119 722.8119 723.5373 723.6204 723.6204 723.6219 724.2087 724.2087
   725.2585 726.9253 727.9438 727.9438 728.4528 728.4528 728.5902 728.8610
   728.8610 729.5984 729.5984 731.1522 731.2447 731.2491 731.2491 731.7096
   731.7096 731.9532 731.9656 732.0222 732.0222 733.3606 733.3606 734.0846
   734.8021 734.8021 735.8680 735.8680 735.8915 736.3630 737.1570 737.3140
   737.3140 737.6215 738.0631 738.0631 738.8935 738.8935 742.0775 742.0775
   742.0793 742.1639 742.3302 742.3302 742.4663 742.8003 742.8003 742.8157
   742.8434 742.8525 742.8525 744.8934 744.8934 746.1541 746.1541 746.4288
   747.0611 747.1677 747.1677 747.7860 747.9977 747.9977 748.4530 748.4530
   749.6294 752.3883 752.4039 752.4039 752.4983 752.4983 752.5998 752.7566
   752.7566 752.8309 752.9492 754.0582 754.7070 754.7070 757.0437 757.0437
   757.7308 757.7490 757.7490 758.4576 758.4576 758.6558 759.0035 759.0954
   759.0954 762.4932 762.4932 762.7956 763.1443 763.1443 763.1864 763.5116
   763.5116 764.6674 765.4554 768.6104 768.6104 769.7973 770.6937 770.6937
   770.9362 773.0867 773.0867 773.5693 773.5693 773.6485 773.7277 773.7946
   773.7946 774.8554 774.8554 775.6273 776.4242 776.9033 777.2599 777.2599
   777.9048 778.1105 778.1105 778.6725 778.6954 778.6954 780.0777 780.0777
   780.6206 780.7841 780.7841 780.9376 781.6857 781.6857 783.8417 783.8499
   783.8499 784.0777 784.8930 784.8930 785.0989 785.3348 785.6069 785.6069
   786.5230 786.5230 787.3897 787.3897 787.5678 787.9793 788.2450 788.2450
   788.3150 788.6609 788.6609 788.8119 789.3313 789.3857 789.3857 789.7822
   789.7822 790.6854 790.8922 790.8922 791.9407 792.3614 792.3614 792.9326
   793.2537 793.2537 793.8531 793.8923 794.1199 794.1199 794.4755 794.9150
   794.9150 794.9759 797.4024 797.4024 797.5632 798.3757 798.3757 798.3767
   799.1669 799.1669 801.1858 801.6034 801.6034 801.8395 801.9685 802.0596
   802.0596 803.3810 803.3939 803.3939 803.8073 803.8073 804.1022 805.5829
   805.6413 805.6413 807.0043 807.0066 807.0066 807.9399 807.9399 808.1045
   808.1045 810.3125 810.5681 810.5849 810.5849 811.2692 811.5475 811.5475
   811.9172 811.9172 812.3033 812.3033 812.3610 812.8809 812.9005 812.9005
   812.9733 813.2915 813.3328 813.3328 813.6463 813.6463 814.7164 816.6491
   816.6491 818.8181 818.8181 819.3954 819.7487 819.9129 819.9129 820.3196
   820.3221 820.3221 821.2552 821.4060 821.4060 822.2962 822.3122 822.3122
   823.4935 823.7006 823.7006 824.1847 824.2144 824.2144 824.4530 825.5879
   825.5879 825.9708 825.9708 826.0987 826.4530 826.6311 826.6311 827.3143
   827.7059 827.7059 827.7812 827.7812 827.8668 828.3828 828.3828 828.5514
   829.5529 829.5529 829.7360 830.7031 830.7031 830.7687 831.5857 831.8957
   832.7098 832.7098 833.0402 833.0671 833.0671 833.2619 833.2619 833.6898
   834.8956 834.9440 834.9440 835.6529 835.6529 835.8881 835.8999 835.8999
   835.9025 836.5033 836.5033 836.7020 836.7020 836.8237 836.8670 837.2075
   837.5878 837.5878 838.2262 838.2262 838.6528 839.0785 839.0785 839.5057
   839.5057 839.5774 839.6111 840.0577 840.0577 840.7591 840.7591 840.8123
   841.1856 841.2324 841.2324 842.6716 842.8144 842.9165 842.9165 843.0365
   843.0783 843.0783 843.1631 843.8499 843.8499 844.1399 844.3526 844.3526
   844.6737 845.2452 845.2452 846.0665 846.1530 846.1530 847.2081 847.2081
   847.5167 847.5167 847.7929 849.3346 849.4428 849.4428 851.1422 851.7993
   851.7993 851.9502 851.9502 852.0492 852.2007 852.2007 852.2536 852.7544
   852.8452 852.9738 852.9738 852.9998 853.0615 853.0615 853.6640 853.6640
   854.4772 854.6415 854.6545 854.6545 854.9175 854.9175 855.2084 855.5196
   855.5196 856.3952 856.5144 856.5144 857.5779 859.3655 859.5128 859.5128
   860.4181 860.4181 860.7453 860.8502 860.8502 860.8979 860.9701 860.9701
   861.6030 861.6030 861.6721 862.2580 862.4103 862.4103 862.7291 863.8711
   863.8814 863.8814 864.1201 864.1201 864.1865 864.1905 864.5936 864.5936
   866.2677 866.2677 866.5208 866.6876 866.6876 867.8785 869.8689 869.8689
   870.1962 870.3222 870.3222 870.4707 871.1216 871.1216 871.5792 872.3291
   872.6322 872.6322 874.6484 875.0608 875.0608 875.4617 875.8129 875.8129
   875.9490 876.0233 876.0410 876.0410 876.4856 876.4856 876.8876 876.9645
   876.9645 877.3401 877.5122 877.5122 877.6160 877.8920 877.8920 877.9555
   879.1364 881.5395 881.5395 881.8735 881.8735 883.8819 886.0056 886.0056
   886.1690 886.4814 886.5356 886.5356 887.8971 888.4258 888.4258 888.4904
   888.5472 888.5472 888.5793 888.5927 888.5927 888.6224 888.7726 888.7800
   888.7800 888.8042 888.8042 888.8287 889.3699 889.3699 889.4467 889.8525
   890.7462 890.7462 891.3198 891.3198 891.6974 891.6974 891.7470 893.1948
   893.1948 894.3690 894.3904 894.3904 895.4257 895.9328 895.9328 896.0738
   896.3336 896.4942 896.4942 898.6379 898.6379 899.4776 900.2626 900.2626
   900.4439 901.1807 901.1807 901.8481 901.8481 902.0406 902.0537 902.0537
   902.5863 903.2574 903.2607 903.2607 903.6061 903.7854 903.7854 904.3040
   904.3040 905.0352 905.4425 905.4844 905.4844 905.4990 906.0452 906.0452
   907.1937 907.1937 907.6460 908.1208 908.1410 908.1410 909.2906 909.4982
   909.4982 909.5099 909.9119 909.9119 910.0488 911.3170 911.3170 912.0958
   912.8874 912.8874 913.0999 914.1557 914.1557 915.1420 915.9169 915.9169
   918.4350 918.7344 918.7344 919.0801 919.4008 919.5527 919.5527 920.4604
   920.4604 920.5810 921.7066 921.7066 922.1185 922.9772 922.9772 923.1032
   923.3017 923.4402 923.4402 923.5390 923.5858 923.5858 924.8456 924.8456
   925.4501 925.9008 925.9008 927.9963 928.0620 928.0620 929.0678 929.6010
   929.6010 930.0663 930.0663 930.1275 930.4040 930.6909 930.6909 930.8829
   931.3478 931.3478 931.9285 932.8279 932.8279 934.4210 934.4571 934.4571
   934.5519 934.6374 934.6374 936.5834 937.9250 938.1562 938.1562 938.2588
   938.2588 938.5926 938.7441 938.7441 939.2559 939.5358 939.5358 940.2546
   940.3298 940.3298 941.3563 941.4672 941.4672 941.5816 941.8719 941.8719
   941.8953 941.9045 942.0113 942.0113 944.8138 944.8138 945.0345 945.0345
   945.0691 945.6839 946.9743 946.9743 947.1040 948.3582 948.3582 948.6875
   948.8212 948.8212 949.1980 949.2247 949.2247 949.2278 949.2607 949.2752
   949.2752 950.4788 950.4788 951.3786 952.2636 952.2636 952.4428 952.7119
   952.7119 953.3953 953.4599 953.4599 955.3240 955.3240 955.4677 955.4854
   955.4854 955.5202 957.1461 957.3305 957.3305 958.3713 958.6918 958.6918
   958.7370 960.3977 960.6108 960.6108 960.8838 960.8942 960.8942 960.9502
   960.9751 961.4166 961.4166 963.3553 963.3553 963.4834 963.8408 963.8408
   963.9429 964.1825 964.1825 964.7576 965.7936 966.3321 966.3321 967.6893
   967.6893 968.1812 969.5189 970.0021 970.0021 970.6183 970.6183 971.9200
   972.1468 972.3114 972.3114 972.4406 973.4995 973.5116 973.5116 973.6355

          k =-0.3333 0.3333-0.3333 (  5480 PWs)   bands (ev):

   -28.7148  -9.3213  -8.5288  -8.5288   0.4608   8.7565  10.1940  10.1940
    16.2889  17.3163  17.3163  19.1974  20.7156  20.7156  26.0087  28.2024
    28.2024  30.7256  34.7639  35.8857  35.8857  38.7415  38.7415  41.2370
    42.5433  42.5433  47.2617  48.4900  49.1725  49.1725  52.3823  53.8004
    53.8004  54.9255  54.9255  56.6695  57.3937  60.1340  61.9275  61.9275
    63.1665  63.1665  64.4225  65.7454  65.7454  67.9582  70.0563  71.3544
    71.3544  76.2839  76.2839  77.5998  78.5662  78.5662  78.8454  79.0951
    79.0951  80.7784  82.3540  82.3540  82.6954  87.1483  90.7338  90.7449
    90.7449  92.9143  92.9143  94.0917  94.0917  95.1274  96.5728  96.5728
    97.7377  97.9489 100.5156 100.5156 102.9896 102.9896 104.1231 105.2441
   105.2827 105.2827 109.0843 109.6571 109.6571 110.5703 115.4734 115.4734
   116.7118 116.7118 117.2700 117.2700 117.3429 117.5835 118.9157 119.9079
   119.9079 122.9647 122.9647 123.1295 123.7608 126.1415 126.1415 127.9402
   128.9138 128.9661 128.9661 130.0400 130.0400 131.1635 131.1649 131.1649
   131.4578 132.8719 133.2814 133.2814 139.1427 140.8986 141.5106 141.5106
   142.0042 143.3562 143.3562 143.7694 143.7694 144.3933 145.2635 145.2635
   145.9729 147.2129 147.2129 147.3582 148.7612 148.7612 149.1113 149.5598
   149.5598 149.8083 153.0208 153.0208 154.8043 154.9564 154.9564 156.9886
   156.9886 157.0656 160.9841 161.7735 161.7735 163.3298 163.7337 163.7337
   165.6372 165.8963 166.0302 166.0302 171.2736 171.2736 172.6551 174.9226
   174.9226 175.1961 176.6612 176.6612 177.4327 179.2478 181.0930 181.0930
   181.4820 181.4820 181.7827 183.5126 184.6659 184.6659 184.6736 185.5378
   185.5378 186.0262 186.0262 186.7387 187.5964 187.5964 187.8394 187.8837
   187.8837 190.1173 190.1173 190.6625 190.8723 192.9113 192.9113 194.0903
   194.3668 194.3668 196.2173 198.6311 198.6311 198.7964 199.4728 199.4728
   201.5366 201.5366 202.0364 202.5111 205.6777 207.4512 208.1402 208.1402
   209.2622 210.0827 210.0827 211.4012 211.4012 212.0886 212.0886 212.8374
   213.0786 213.9763 214.2524 214.2784 214.2784 215.7207 215.7207 216.5150
   216.5150 216.6552 218.3161 218.6915 218.6915 219.8134 220.8097 220.8097
   221.4750 221.4750 224.2218 224.2218 224.6901 225.0739 226.4400 226.8716
   226.8716 228.0908 228.0908 228.2899 228.8791 229.8093 229.8093 231.1776
   231.2977 231.2977 232.3489 232.8635 232.8635 233.2272 233.2272 235.0821
   235.2576 235.2576 236.3178 239.2210 239.2210 239.4948 241.2900 241.2900
   241.4720 243.3172 243.3172 244.3939 244.4067 244.4067 244.5168 244.5226
   246.7851 246.9595 246.9595 247.6255 247.6255 250.7925 250.7925 250.9660
   251.0560 251.7167 253.3407 253.3407 256.4064 257.0277 257.0277 257.6324
   257.6324 258.6159 258.6159 259.2337 259.3665 261.0925 261.0925 261.2331
   261.7541 262.0630 262.1779 262.1779 262.7936 262.7936 263.4478 264.3369
   264.3369 267.1689 267.1689 267.4110 268.4018 268.4018 271.0138 273.8556
   274.9909 274.9909 275.2571 275.2571 277.8732 278.3319 278.3319 278.6172
   279.2761 279.2761 280.0444 280.3431 280.3431 280.8734 280.8734 280.9801
   281.6195 282.7323 282.7323 283.3265 283.6825 283.6825 284.5781 285.3241
   285.3241 286.7522 286.8318 286.9154 286.9154 287.6547 287.6547 287.8051
   291.7571 294.6963 294.6963 296.5629 296.5629 297.4712 297.5653 297.8439
   297.8439 298.1812 298.6365 298.6365 299.0959 299.0959 299.1845 299.2046
   300.1463 300.1463 300.7443 300.7443 302.2169 302.3595 304.2661 304.5344
   304.5344 309.6856 310.0577 310.0577 310.2831 310.2831 311.9105 312.6236
   312.6236 313.0151 313.0151 313.0291 313.0446 313.5337 313.5337 314.5270
   314.5560 314.8470 314.8470 316.3336 316.3336 317.1237 317.2532 317.2532
   318.8108 318.8108 319.6180 319.6180 319.6572 320.8234 320.8234 320.9808
   321.0113 321.4954 321.4954 322.8084 325.3277 325.3277 327.7218 327.7218
   327.8870 328.3312 329.6533 329.6533 330.4102 330.4102 330.6619 331.1086
   331.4736 331.4736 331.7309 331.7309 331.8835 332.7655 335.0374 335.0374
   336.7094 339.9132 339.9132 339.9791 340.2973 340.2973 340.6234 342.1026
   342.1026 342.4818 342.5113 342.5276 342.5276 343.2834 343.2834 344.1326
   344.7766 344.7766 345.1525 345.4660 345.6466 345.6466 345.9147 348.8873
   348.8873 348.9679 349.6081 349.6081 350.0744 350.2281 350.2281 350.6583
   352.2870 352.2870 352.4075 354.0857 354.0857 354.7117 355.0603 356.8826
   356.8826 356.9590 357.2429 357.3305 357.3305 358.3675 358.3675 358.7582
   358.7582 358.7749 359.3810 359.3810 359.9892 361.5894 361.6901 361.6901
   362.0729 362.1387 362.1387 363.2593 364.2329 364.2329 364.3240 364.4410
   364.4410 366.2098 367.9540 367.9540 370.0488 370.0488 373.2551 373.4153
   373.4153 374.0841 376.8248 377.0102 377.0102 377.2069 377.2069 378.4550
   378.8440 378.8440 379.7397 379.7775 379.7775 379.9077 381.4594 381.4594
   381.6312 383.5858 383.5954 383.5954 384.2090 384.8629 384.8629 385.4805
   385.5011 385.5011 386.6677 387.0549 387.0549 388.0552 388.0668 388.0668
   389.2751 389.2751 389.6508 389.8073 389.8073 390.0300 392.1879 392.5154
   392.5154 392.9354 393.2890 393.2890 395.6836 395.6836 396.1815 397.6576
   397.7289 397.8707 397.8707 398.2712 398.2712 399.2341 399.2341 400.0518
   400.0978 400.0978 400.1699 400.4854 400.4854 400.5572 401.6639 401.6639
   402.8867 403.0552 405.2329 405.2329 406.0568 410.2034 410.2034 410.4762
   410.5435 410.5435 410.5567 410.9484 411.9842 411.9842 412.4671 412.6375
   412.6375 412.7853 412.9722 412.9722 414.3654 414.3654 414.7513 415.4190
   415.4529 415.4529 415.4785 416.8873 416.8873 417.0669 417.0669 417.1396
   419.8198 420.4942 420.6959 420.6959 421.2854 421.2854 422.7074 423.4802
   423.4802 424.2647 424.2647 424.2915 426.3517 426.3517 429.0003 431.5711
   431.5711 431.7705 431.8055 431.8055 432.8140 434.4506 434.9871 434.9871
   437.4125 437.4834 437.4834 439.5112 439.5112 441.3104 441.9329 441.9329
   442.0466 442.4309 442.6391 442.6391 443.9902 444.2478 444.2478 444.5768
   444.5768 444.7342 444.8548 445.5001 445.5001 446.0033 446.0033 446.3267
   447.0102 447.2425 447.2425 448.5958 449.3607 449.3607 449.8918 449.8918
   450.6649 451.1010 451.1010 452.0765 452.1477 452.1477 453.0339 454.1969
   454.9541 454.9541 455.7216 455.7216 458.2244 458.2852 458.2852 459.3043
   460.7059 460.7283 460.7283 460.8357 460.8357 461.1176 462.6677 463.5360
   463.5360 464.0882 464.0882 464.4177 465.0018 465.0020 465.0020 465.2621
   465.4412 465.4412 465.9129 465.9129 466.6781 467.1816 467.1816 467.5778
   467.6653 467.6653 468.4837 468.4837 468.6330 468.7453 468.7453 468.8040
   469.4458 471.9927 473.2734 474.0403 474.0403 475.4747 475.7072 475.9037
   475.9037 476.7233 476.7233 477.3690 477.3690 477.5821 477.8932 478.4621
   478.4621 478.6757 478.6757 478.7938 478.8760 479.1631 479.1631 479.4112
   479.4112 479.4536 479.4631 481.0618 481.5283 481.5283 482.0407 482.0407
   482.3072 482.3072 482.3075 482.9058 483.6730 483.6730 483.8062 483.8062
   483.8695 483.8695 483.9634 484.0779 484.0779 484.4521 484.4521 484.4909
   484.7611 486.0160 486.0160 486.1975 488.3959 488.4165 488.4165 490.7700
   490.7735 490.7735 493.5585 493.5585 493.6696 494.0589 494.2042 494.2042
   497.3351 498.0552 498.0552 499.5826 499.5826 500.6002 500.6002 500.6405
   500.6513 502.3325 504.2761 504.2761 506.5706 506.5706 507.3007 508.1045
   508.2517 508.2517 509.1140 509.1140 509.8451 509.9128 509.9128 510.4172
   510.4172 510.4579 510.4987 510.9230 510.9230 511.2192 511.5555 512.0845
   512.1957 512.1957 512.6977 512.6977 513.5930 513.5930 514.7705 514.9795
   514.9795 514.9835 516.1086 516.2832 516.2832 517.5315 517.5315 518.9750
   520.8052 520.8052 521.0431 521.8723 521.8723 522.1131 523.0613 523.2498
   523.2498 523.7898 523.8498 523.8498 524.5284 524.5284 524.5425 526.3817
   526.3817 526.5563 528.0291 528.3783 529.3241 529.3241 530.3528 530.3528
   530.4262 530.7917 530.8200 530.8200 532.0735 532.1501 532.1501 533.2629
   533.2629 533.4256 533.9186 533.9186 533.9762 534.3489 534.4533 534.4533
   535.1223 535.4560 535.4560 535.7943 535.8969 535.9859 535.9859 536.9224
   536.9224 538.0971 542.4081 542.4081 543.2762 543.9785 544.1059 544.4368
   544.4368 545.5957 545.5957 546.1800 546.2582 546.2582 547.9672 547.9672
   548.3466 548.3466 548.5888 548.7215 548.7215 548.8496 550.4318 550.6188
   550.6188 550.6217 551.6371 551.6371 552.5601 552.8518 552.8518 554.0328
   554.0328 554.0810 554.2616 554.4680 554.4680 556.0427 556.0427 556.1227
   558.2492 558.2492 558.5666 560.2824 560.7359 560.7359 562.0502 562.8459
   562.8459 563.1563 563.1960 563.1960 563.5068 564.0638 564.0638 564.1578
   564.5894 564.5894 565.7075 565.7615 565.7615 566.4161 566.4161 566.5639
   566.7752 566.7752 566.7813 567.4403 567.4659 567.4659 568.2453 569.6429
   569.6429 573.0005 573.6089 573.6089 577.3242 578.0499 578.0499 578.5321
   578.5321 579.0240 579.1126 579.1126 579.2528 579.3132 579.3132 579.7524
   581.2351 581.2400 581.2400 581.6693 581.7643 581.9513 581.9513 582.4425
   582.4425 583.0093 583.0093 583.3960 583.9746 584.2382 584.2382 585.5030
   585.9958 585.9958 586.1841 586.1841 587.3791 590.2683 590.3080 590.3080
   592.8883 594.4074 594.4074 594.5853 594.5853 594.6585 594.8506 594.8506
   595.0333 595.2662 595.9071 596.0262 596.0262 596.5580 596.5580 596.9266
   597.0029 597.3546 597.3546 597.6205 597.6387 597.8486 597.8486 598.2626
   598.2626 598.2878 598.7889 598.7889 598.9461 599.3312 599.3312 600.2262
   601.1121 601.1121 601.7472 601.7472 601.7922 603.3980 603.3980 603.7320
   604.6272 604.6272 604.8292 605.2543 606.0846 606.2478 606.2478 608.1624
   608.1624 608.6509 609.3442 609.6850 609.6850 610.4076 610.4076 611.9269
   612.9818 612.9818 613.2409 613.7820 613.7820 614.8009 614.9558 615.1392
   615.1392 615.4945 615.4945 615.5799 615.7347 615.8070 615.8070 616.8990
   617.0863 617.0863 617.4875 617.4875 621.0091 621.0091 621.2353 621.2399
   621.2399 621.2421 621.3703 621.4268 621.4268 621.6416 622.1438 622.1438
   625.6888 625.6888 625.7965 625.8298 625.8298 626.6848 627.3286 627.7690
   627.7690 628.4605 628.7874 628.7874 629.5060 629.6896 629.6896 629.7019
   629.9662 630.0178 630.0178 630.8440 630.8440 631.4603 631.6145 632.0548
   632.0548 632.6977 632.7811 632.7811 632.8220 632.9369 632.9369 633.8404
   633.8404 639.8838 639.8838 640.7905 641.0374 641.0374 641.3572 641.5701
   642.9656 642.9656 643.2142 643.2142 643.6358 644.2212 645.2703 645.2703
   645.9783 645.9783 646.1664 646.7665 646.7881 646.7881 647.2244 647.3410
   647.4807 647.4807 647.8525 648.3248 648.3248 648.4284 648.4284 648.5232
   648.5232 648.5784 648.9036 648.9909 648.9909 649.4697 649.6963 649.6963
   651.1479 652.6219 652.6219 652.9736 652.9736 654.3287 654.4449 654.5982
   654.5982 654.9157 655.1571 655.1571 655.3148 655.4426 655.4426 655.4883
   657.0958 657.0958 657.5085 657.5734 657.5734 657.6722 657.7849 657.7849
   659.9830 659.9830 660.4555 660.5746 661.7085 661.9793 661.9793 662.3590
   662.3590 663.7058 663.7058 664.1279 664.3864 665.6199 665.6199 666.0086
   666.0086 666.8737 668.6387 668.8588 669.4666 669.4666 672.0339 672.0339
   672.8374 674.1029 674.1029 674.9323 675.5510 675.7535 675.7535 676.8020
   676.8020 677.8645 678.3370 678.3529 678.3529 678.6009 678.9865 678.9865
   679.4008 679.4008 679.4903 679.5604 679.6459 679.6459 679.8597 679.8597
   679.9723 680.1923 680.1923 680.4452 680.7513 681.2286 681.2286 681.3833
   681.6460 681.6460 682.1577 682.4096 682.4096 684.0155 684.1922 684.1922
   684.5321 685.5842 685.5842 685.5843 687.0096 687.4824 687.4824 688.2802
   688.3056 688.3056 690.3945 690.3945 690.4852 690.5213 690.5213 690.6079
   690.6079 690.6465 690.6547 690.6547 692.5534 692.5534 692.6646 693.0630
   693.0630 694.2227 694.2585 694.6359 694.6359 695.3126 696.4884 696.8901
   696.8901 697.0143 697.0143 697.2979 698.3112 698.3112 698.3393 698.4476
   698.5920 698.5920 698.6025 698.6855 698.6855 698.9526 698.9526 698.9715
   699.3750 700.0027 700.0027 700.3412 700.6698 700.6698 700.9697 700.9697
   701.0977 704.6231 704.6231 708.2529 709.0228 709.0228 710.0054 711.3544
   711.3544 711.5117 712.4272 712.4272 713.0012 713.0012 714.3869 714.8678
   714.9221 714.9221 715.1658 715.5255 715.5255 715.9332 716.2046 716.3251
   716.3251 716.4732 716.4732 716.5537 716.5581 716.5581 716.5931 716.7825
   716.7825 716.8460 717.3606 717.3606 717.9757 717.9757 718.1047 718.7283
   718.7283 718.7588 719.4480 719.4480 719.4485 719.9410 720.8463 720.8463
   721.3322 721.8639 721.8639 723.8598 724.7711 724.7711 725.3438 725.3487
   725.3487 726.7542 727.6446 727.6446 728.0342 730.0347 730.0347 730.2612
   731.0208 731.0208 731.4860 732.0981 732.0981 732.4371 732.5350 732.5350
   732.6793 732.7078 732.7078 733.4078 733.4389 733.4389 733.6682 734.0993
   734.0993 735.5154 735.5154 735.5185 736.3831 736.3831 736.9694 738.3596
   738.3596 738.4571 739.6506 739.6506 740.0322 742.1537 742.7072 742.8080
   742.8080 743.0282 743.0282 743.5482 744.3263 744.4848 744.4848 745.1614
   745.2371 745.2371 745.3790 745.5340 746.0958 746.0958 746.4296 746.4296
   747.5893 747.8611 747.8611 748.7056 748.7056 748.8612 748.9639 749.0875
   749.0875 749.7881 749.8887 749.8887 750.2288 750.2288 750.2491 751.4905
   751.7506 751.7506 752.8977 753.1957 753.1957 755.1120 755.9246 755.9246
   758.5846 758.6450 758.6450 759.2063 759.5819 761.2735 761.3152 761.3152
   762.0880 762.0880 763.8233 763.8233 763.8648 764.3388 764.5039 764.5039
   765.3037 765.4501 765.5389 765.5389 765.6199 765.6199 765.9215 767.2316
   767.2316 767.9669 767.9669 769.1521 769.1749 769.1749 769.8655 769.8655
   769.8890 774.4052 774.4052 774.4834 775.4559 776.0311 776.3307 776.3307
   776.4930 776.4930 776.5706 776.8681 777.1495 777.1495 777.3506 777.3506
   777.7500 778.0508 778.0508 778.3187 778.5735 778.5735 778.8166 780.3218
   780.3218 781.5104 781.7418 781.7418 782.0265 782.0265 782.0851 782.8070
   782.8070 782.8295 783.2531 783.2531 783.2841 783.6606 783.6832 783.6832
   783.7411 783.7411 783.7750 784.5469 785.0723 785.0723 785.4188 786.7428
   786.7428 787.5720 788.4077 788.4136 788.4136 789.5572 789.5572 789.7031
   789.7053 789.7053 790.0421 790.6986 790.6986 790.7164 791.2349 793.0511
   793.0511 793.0542 794.2837 794.2837 796.0441 796.0441 796.1192 796.6832
   796.6832 798.4370 799.2406 799.2406 799.9543 799.9543 800.1309 800.2738
   800.4651 800.4651 800.6499 800.6499 800.8791 800.9779 800.9779 801.4737
   801.7949 801.7949 802.1470 802.1476 802.1476 803.3069 803.3069 803.5383
   804.5232 805.0893 805.5004 805.5004 808.1114 808.6105 808.6105 809.4219
   810.6181 810.6181 810.7803 811.3029 811.3029 811.6354 811.7598 811.8115
   811.8115 811.9376 811.9547 811.9547 812.1504 812.2446 812.2446 812.4110
   812.4110 812.5646 812.9993 812.9993 813.2372 813.9303 814.3106 814.3106
   814.7221 814.7221 815.3978 815.3978 815.4732 815.6462 816.4633 816.4633
   816.5645 817.2627 817.2627 817.4552 817.5177 817.5177 818.2928 818.2928
   818.5469 818.7578 818.7578 818.7684 818.8885 818.9881 818.9881 819.2757
   819.2757 819.2811 819.8071 819.8071 820.5595 821.4003 821.5425 821.8831
   821.8831 822.2667 822.7633 822.7633 823.6799 823.6799 825.3056 825.3056
   825.3098 828.1202 828.3923 828.4168 828.4168 829.7431 829.7991 829.7991
   829.8814 830.1967 830.2184 830.2184 830.3722 830.3722 832.3927 833.1856
   833.1856 833.3643 833.5443 833.5443 834.5046 835.0131 835.0131 835.0478
   835.0646 835.0646 835.1785 837.9608 837.9608 839.1321 840.2520 840.8020
   840.8020 841.9152 842.0458 842.0458 842.8943 843.6812 843.6812 844.0844
   844.5513 844.5513 844.7410 845.2486 845.3260 845.3260 845.6121 845.6121
   847.0283 848.5657 848.9153 848.9153 849.2085 849.2085 849.6659 849.6659
   851.1882 851.1882 851.3420 851.3554 851.3727 851.3727 852.3199 852.3334
   852.9496 852.9496 854.2969 854.2969 855.7198 856.5826 856.5826 856.7039
   857.3622 857.3622 857.5205 857.5205 857.5320 857.6232 857.6232 857.6640
   857.7090 858.5510 858.5510 860.4018 860.4018 860.7522 860.8825 861.2498
   861.2498 861.6646 861.6646 861.7384 861.8542 862.8721 863.0418 863.0418
   863.0757 863.0757 863.1689 863.4967 863.4967 863.7719 863.8465 863.8465
   864.1019 864.4561 864.4561 864.9416 865.0505 865.0505 865.3546 865.6514
   865.6514 865.7653 865.7653 865.7688 865.9513 867.1798 867.1798 867.4331
   867.7148 867.7148 868.2523 869.2002 870.3541 870.3541 871.6402 871.6402
   872.0500 872.3128 872.3941 872.3941 872.8371 873.2442 873.2442 875.1370
   875.1370 875.5589 876.9707 876.9707 877.5294 877.9325 877.9325 878.4324
   878.9449 878.9449 879.2237 879.9083 879.9083 880.6556 880.7977 880.7977
   881.2614 881.2932 881.2932 881.3420 881.3420 881.4382 881.6051 881.6051
   882.1057 882.2923 883.0996 883.0996 883.2500 883.2500 883.8006 883.8006
   883.8649 883.9096 883.9812 883.9812 884.1201 884.1963 884.1963 884.3308
   884.6452 884.6452 884.7060 884.7632 884.9000 884.9000 885.0508 885.0508
   885.0567 885.8477 885.8477 885.8526 885.9667 886.6224 886.8608 886.8608
   887.0232 887.0232 887.6056 887.8791 888.0096 888.0096 888.3424 888.3424
   888.5029 890.1348 890.1348 891.0294 891.7910 891.7910 891.8647 892.1409
   892.1409 892.4007 893.0913 893.0913 894.0648 894.0648 896.0193 896.1174
   897.3373 897.8460 897.8460 898.9329 898.9329 899.0336 899.2427 899.2427
   899.3905 899.3905 899.3914 899.7144 899.7144 899.7514 899.9727 899.9767
   899.9767 900.0502 900.3156 900.3156 900.3714 900.7612 900.7612 901.0792
   902.6780 902.6780 903.9042 903.9449 903.9449 911.9202 912.0629 912.1846
   912.1846 912.3915 912.3915 912.5802 912.5802 912.9333 912.9519 913.0298
   913.0298 913.1298 913.1915 913.7896 913.7896 914.6135 914.6135 914.8036
   914.9597 914.9597 914.9705 915.2382 915.2382 915.4786 915.5774 915.5774
   915.8117 916.2417 916.2417 916.3869 917.7833 918.0852 918.0852 918.2767
   918.2767 918.3913 921.2674 921.2674 923.5195 923.5395 923.5891 923.5891
   924.3154 924.3262 924.3262 924.4914 927.6170 927.9267 927.9267 929.0777
   929.1151 929.1151 930.3150 930.3150 930.5557 931.1452 931.4014 931.4014
   931.4462 932.4128 932.4128 933.2422 933.2422 933.4509 933.7694 933.7967
   933.7967 934.5100 934.5301 934.5500 934.5500 934.7747 934.7747 934.8368
   934.8368 935.5680 935.5680 935.6891 937.5582 937.5582 938.0475 938.5863
   938.5863 938.6415 939.1919 939.1919 939.3653 941.2785 941.2785 942.5273
   942.8686 942.9514 942.9514 943.0967 943.0967 943.7025 944.4969 944.4969
   944.7682 945.5335 945.6229 945.6229 946.7332 946.7332 946.8500 948.0198
   948.0198 948.2132 948.2132 948.2433 948.2514 948.4191 948.4191 948.8694
   949.1479 949.1479 949.3265 949.3265 949.3858 949.4057 949.7686 949.9805
   949.9805 950.2581 950.2581 950.3395 950.5005 950.5005 950.6276 951.8337
   951.8337 952.5494 952.9090 952.9090 953.0337 953.0337 953.1303 953.1303
   953.1311 953.1946 953.4754 953.9286 953.9286 955.2748 955.2748 955.4380
   959.2807 959.3467 959.3467 959.4848 959.4933 959.4933 961.6125 961.6922
   961.7179 961.7179 962.2793 962.2793 962.3910 963.6144 963.6144 965.0895
   965.0895 965.2534 965.4844 965.6004 965.6004 966.0045 966.3692 966.4447
   966.4447 966.7254 966.7254 968.5667 968.6988 968.6988 975.0916 975.3263
   975.4759 975.4759 975.7789 975.7789 976.3873 976.3873 976.4147 976.4268

          k = 0.5000-0.5000 0.5000 (  5480 PWs)   bands (ev):

   -28.6852  -9.5693  -8.5491  -8.5491   0.8950   7.9743   9.7893   9.7893
    17.6913  18.3704  18.3704  18.7533  22.1438  22.1438  25.8019  25.8019
    25.8793  31.9410  34.6826  34.9835  34.9835  39.2970  39.2970  40.0849
    43.5766  43.5766  46.6253  47.1719  47.1719  47.8695  51.1059  52.7275
    52.7275  55.6622  55.6622  55.7812  58.7832  59.2304  63.3024  63.3024
    65.0834  65.0834  66.8763  67.4795  68.8176  68.8176  69.5595  69.5595
    70.5256  70.5256  71.7783  74.2824  79.5564  83.4099  83.7663  83.7663
    85.0489  85.0489  86.1229  86.1229  86.4546  86.4546  87.2660  87.2660
    88.6271  88.7059  89.7119  89.7333  90.1652  90.1652  96.9235  97.6297
   100.5156 100.5156 101.7847 101.7847 102.2547 102.2547 103.1965 103.6501
   104.2444 104.2444 105.9158 105.9158 110.7058 113.1269 113.1269 113.2312
   113.7512 114.5857 114.5857 115.8776 115.8776 116.6298 118.4585 118.8341
   118.8341 120.4387 123.9809 123.9809 125.1975 126.0867 127.8006 127.8006
   128.2856 128.2856 128.5334 129.4966 132.2847 132.2847 134.4076 134.4076
   134.5014 135.2112 137.2398 137.2398 137.3248 138.4378 138.4378 139.1290
   140.9899 140.9899 142.5496 142.5496 143.8285 145.1369 145.1369 146.8180
   146.8446 148.4584 149.3748 149.3748 151.9338 151.9338 152.7099 152.7099
   153.0104 153.7339 155.3529 156.3056 156.3056 157.0961 157.5625 157.5625
   157.6818 161.2045 161.2045 161.7028 161.7028 163.9345 164.2164 164.2288
   164.6742 164.6742 165.3797 165.3797 168.8840 168.8840 172.7309 173.1233
   173.1233 173.7868 173.7868 173.8010 176.5045 176.5045 176.7147 177.2762
   177.3665 177.3665 178.2271 178.2271 179.4177 183.1167 183.5187 183.5187
   186.1154 186.5011 187.1598 187.1598 187.5216 187.5216 189.8579 190.5449
   192.8009 192.8009 193.6662 194.8674 196.0643 196.0643 197.1279 197.1279
   198.0171 198.0171 198.6047 199.6951 199.8808 199.8808 200.0185 200.0185
   200.3974 200.4211 200.5348 200.5348 200.9717 201.7074 201.7074 201.8162
   201.8162 205.2747 207.1201 207.6620 207.6620 211.1753 211.1753 212.4513
   212.4912 213.5406 213.5517 213.6816 213.6816 214.6925 214.6925 215.3376
   215.3376 215.5432 215.5432 216.3974 216.3974 216.6742 220.5231 220.5231
   221.1903 221.7741 222.5597 222.9895 225.2148 225.2148 225.7378 225.7378
   226.2331 226.8766 228.4693 228.4693 230.4206 232.7445 233.0294 233.0294
   235.0424 235.6760 235.6760 235.8094 236.2142 236.2256 236.2256 237.0441
   237.0441 238.4994 238.9148 238.9148 238.9406 238.9406 240.3650 240.3650
   241.8611 241.9342 241.9342 242.2275 242.2275 242.2725 242.3813 243.4363
   245.3625 245.3625 245.4078 250.8092 250.8092 254.0377 256.2572 256.2572
   257.3602 257.7078 257.7078 260.3036 260.6079 260.6079 260.8344 260.9359
   260.9359 261.0011 261.0011 261.3975 261.4568 261.8268 261.8286 262.3453
   262.3453 262.9343 262.9343 263.5129 263.5129 266.3111 269.2617 269.2617
   269.9438 271.3023 272.1035 272.1035 272.2209 272.6141 272.6141 273.3117
   273.3117 273.4181 273.8576 273.8576 273.9342 273.9484 273.9484 274.6501
   274.7452 274.9694 274.9694 275.5396 275.5396 276.9667 277.7565 278.1535
   278.1535 278.1566 278.1566 280.2141 280.2148 284.9499 289.2892 289.2892
   289.3177 289.3177 289.3768 289.5676 289.5678 289.5678 290.3801 290.3801
   292.4510 293.3823 293.3823 294.7155 294.7155 294.7310 295.1733 295.1733
   296.3902 296.4293 296.4876 296.4876 296.8094 296.8094 298.4784 298.8133
   298.8133 298.9643 298.9658 298.9658 299.0919 299.2227 300.7268 300.7268
   301.5906 301.5906 301.9204 301.9987 301.9987 302.6570 305.6505 305.6505
   312.2982 312.3736 312.3736 312.7120 313.6790 313.7790 313.7790 313.8784
   313.8784 314.3097 314.3097 314.3315 314.3315 314.5082 314.5361 317.1726
   321.7352 321.7352 321.7737 321.9716 322.3866 322.3866 322.6282 322.6282
   323.0441 323.8445 323.8445 325.6836 326.3603 327.2484 327.3218 327.3218
   327.3613 327.3613 327.4271 329.2483 329.4401 329.4401 331.8045 332.3861
   332.4369 332.4369 332.8642 334.2744 334.2744 334.2745 334.2745 334.6145
   334.6145 335.9703 336.2529 336.2529 336.5138 336.5138 336.8687 336.8687
   336.9137 337.2445 337.7017 342.0700 342.0700 342.0963 342.0963 343.7362
   344.0816 344.0816 344.5165 344.5165 344.8107 347.9050 350.0640 350.3458
   350.3458 350.3624 350.3624 350.5163 350.8349 350.8349 350.8842 350.8842
   350.9865 354.5411 355.7443 355.7876 355.7876 355.9570 355.9570 356.0140
   357.3818 359.6138 359.6138 359.6985 359.6985 361.1223 361.1223 361.1852
   361.5463 361.5463 362.1374 362.1745 363.9345 364.0632 364.0632 364.4335
   364.6284 364.6284 368.8972 372.4995 372.4995 372.8865 373.0630 373.0630
   373.3805 373.3805 373.4692 373.4760 373.5122 373.6447 373.7303 373.7303
   374.6429 374.6429 377.1216 377.1216 377.2403 377.3599 377.3853 377.3853
   377.7752 380.5319 380.5319 381.5590 381.5590 381.6983 382.1494 382.2092
   382.2092 383.7200 383.7200 383.8957 383.9892 384.3627 384.3627 386.3449
   386.4659 386.5666 386.5725 386.5725 386.7482 386.7482 386.9061 387.0026
   387.0026 387.0108 387.1298 387.1298 387.1360 388.0039 388.0039 388.0800
   388.0800 390.4175 390.4175 390.5188 390.5188 390.5225 390.6244 394.2612
   398.4726 398.5308 398.6370 398.6370 398.9611 398.9611 400.6964 400.8331
   400.8331 401.1327 401.1327 401.5929 401.5987 401.6759 401.6759 401.7286
   401.7286 402.8019 403.4565 403.4565 403.4668 403.4668 403.5154 403.5219
   410.8344 410.8344 410.8936 410.9358 411.0929 411.0929 411.5866 412.3388
   412.3388 413.2416 413.2416 414.2962 416.4936 417.2029 419.5882 419.5882
   419.6106 419.6106 420.5417 420.8138 420.8138 422.0619 422.0619 422.2309
   422.2309 422.2409 422.2475 422.2729 422.2729 422.6823 424.2695 424.2695
   425.3347 425.3347 425.6274 426.6564 427.4032 427.4032 427.4058 427.4058
   429.8344 429.8351 431.7504 432.4709 432.4709 434.2883 434.2883 434.7025
   435.3081 435.3081 435.6193 435.6976 436.2742 436.2886 436.2886 436.3739
   436.6711 436.6711 437.3169 437.3169 437.4076 437.4076 438.2000 439.3996
   439.3996 442.1023 442.1023 442.1092 442.1092 442.3392 442.3400 442.5179
   443.5734 444.5253 448.0933 448.0933 449.9987 450.1020 450.1020 453.0678
   453.0785 453.0785 453.0965 453.0965 456.5828 456.5828 456.6021 456.9355
   457.9923 457.9923 458.3648 458.5769 458.5769 458.8972 459.1202 459.1202
   459.8902 459.8902 460.1151 460.2287 460.2287 460.2473 460.5792 460.9375
   460.9375 461.1683 461.1683 461.3499 462.3074 462.4677 462.4677 462.7848
   462.8521 462.8521 462.8776 462.8776 463.1284 463.5481 463.5481 465.0488
   465.2378 465.2378 465.6942 465.7269 465.7269 466.4193 466.8444 466.9427
   466.9427 466.9831 466.9831 467.2487 469.1911 469.1911 470.0747 470.0747
   470.1451 472.6668 474.1908 474.1908 474.4576 474.5924 474.9906 474.9906
   477.3296 477.3807 477.3807 477.4084 477.4395 477.4395 479.6771 481.7139
   481.7139 482.5491 482.5491 483.5626 484.8093 484.8093 484.9361 484.9361
   485.0057 485.4503 485.8682 485.9304 485.9304 486.4480 486.7480 486.7480
   487.1174 487.1174 487.2001 487.2080 487.2596 487.2596 490.7384 490.8551
   490.8551 491.0475 491.0475 491.3710 491.4027 491.4027 491.8675 491.8675
   491.8682 492.7125 496.7016 497.8181 497.8181 497.8620 498.1143 498.1143
   498.2682 498.2682 498.4986 498.4986 499.2945 499.6390 501.5899 501.5995
   501.5995 501.9208 501.9795 501.9923 501.9966 501.9966 502.0713 502.0713
   502.6075 502.6075 503.4307 506.6141 508.3469 508.3469 508.4255 509.4106
   509.6356 509.6356 512.9806 512.9806 513.9631 514.9522 514.9628 514.9628
   514.9980 515.0583 515.0583 515.1279 515.1279 515.7653 515.7653 516.3468
   516.7711 516.7711 518.0927 518.0927 520.9057 520.9057 521.6300 522.2093
   522.2366 522.2564 522.2564 522.4419 522.9419 522.9419 522.9943 523.0169
   523.0169 523.4070 523.5802 524.3983 524.3983 525.6610 525.6610 525.7249
   525.7249 526.2889 528.2020 528.2277 528.2277 528.2398 528.4114 528.4114
   530.1387 532.0558 532.0558 532.7678 532.7678 533.7587 536.6557 536.6573
   536.7013 536.7013 536.7398 536.7398 536.9660 537.2473 537.2473 537.2967
   537.3903 537.3903 537.5262 537.9761 537.9761 538.0833 538.0833 539.2801
   542.2934 542.2934 542.2953 542.2953 542.2955 542.2991 546.2213 547.8508
   547.8508 548.1660 548.2159 548.2159 548.3511 548.3511 548.4806 548.4900
   548.6901 548.6901 549.0433 549.0433 549.0493 549.2213 549.2213 549.3018
   550.7683 551.0146 551.0146 551.5260 552.2029 552.2029 553.6289 553.6289
   553.6381 553.6391 553.8438 553.8438 559.3666 561.5470 562.2937 562.6994
   562.6994 562.8417 562.8444 562.9763 562.9763 563.1232 563.1232 563.1303
   563.4655 563.4655 563.4867 563.4867 564.2217 564.2225 564.2225 564.5385
   569.5725 569.5725 569.9487 570.2315 570.2315 570.5675 571.3526 571.4714
   571.4714 571.6632 571.6632 571.8031 571.8054 571.9100 572.1334 572.1334
   572.5480 572.5480 572.6118 572.6118 572.6817 572.9601 573.0672 573.0672
   573.1103 573.1103 573.7017 574.2590 575.3754 575.3777 575.5221 575.5221
   575.5523 575.5523 577.6620 577.6620 577.6892 577.7119 577.7119 577.7190
   578.1474 578.1474 578.3756 578.3756 578.4333 578.4573 578.5110 578.5110
   589.3636 589.6148 589.6148 589.7429 589.8590 589.8590 590.0820 590.0820
   590.1076 590.1076 590.5169 590.5630 590.5630 590.5726 590.5742 590.6704
   590.6704 590.6848 594.3562 594.4578 594.5964 594.5964 594.9431 594.9431
   596.5229 596.5229 596.6964 596.6964 596.7462 596.9849 597.1649 598.8638
   598.8638 599.7642 599.8023 599.9750 599.9750 600.0010 600.0010 600.3591
   600.8273 601.0196 601.0827 601.0827 601.1573 601.1573 602.0430 602.0430
   603.2389 603.2389 603.2700 603.6170 604.5662 605.6322 605.6322 606.7277
   606.7277 607.9575 607.9575 608.0472 611.2601 611.2601 611.2937 611.2937
   611.7098 611.9790 611.9790 613.2620 613.2936 613.2936 613.8546 613.8550
   614.0682 614.1424 614.3477 614.3477 614.5623 614.5910 614.5910 614.6625
   614.7624 614.7933 614.7933 614.8779 614.8881 614.8881 615.4897 615.4897
   615.8148 615.8148 618.8317 618.8317 618.8359 618.8359 620.4690 620.4691
   623.2229 623.2463 623.2463 623.3640 623.6266 623.6266 628.0346 628.1677
   628.1677 628.6987 629.0043 629.0043 629.5058 629.5058 631.6980 632.0434
   632.0597 632.0597 632.7826 633.9081 633.9081 634.7037 634.9638 634.9638
   634.9931 634.9931 635.0010 635.0291 635.6551 635.6551 635.9036 635.9519
   635.9519 636.4302 636.9951 637.5021 637.5216 637.5216 637.5728 637.5728
   637.9181 637.9181 638.4248 638.6430 638.6430 639.1375 641.6253 641.6253
   643.0221 644.5499 647.1250 647.2145 647.2145 647.5154 647.5154 647.7950
   648.1922 648.2775 648.5297 648.5297 648.6726 648.6726 648.7220 648.7810
   648.8271 648.8271 648.9080 649.2412 649.2412 649.3306 649.3306 649.5948
   650.1309 650.1309 650.5249 651.4194 651.4194 652.9333 652.9333 653.3750
   653.3750 653.7171 653.7171 653.7528 653.9264 654.0075 654.0075 654.2507
   654.2507 654.3393 654.6015 654.6015 654.8031 654.8876 654.8876 654.9361
   655.1247 655.1248 655.1438 655.1438 655.3315 655.3315 659.4772 660.3170
   660.3170 660.5335 661.8121 661.8121 665.8730 665.8818 665.8818 665.8935
   665.8943 665.8943 670.7205 672.6267 672.6267 674.0097 674.0097 674.6735
   674.6739 674.6739 674.6981 674.7063 674.9401 675.0541 675.2863 675.2863
   675.3765 675.3765 675.8827 675.8827 675.9000 675.9040 675.9040 675.9639
   676.1213 676.1272 676.1272 676.2305 677.1062 677.1062 680.1601 680.1601
   684.0913 684.0913 684.4423 684.4423 684.4565 684.5722 684.7215 684.9457
   684.9457 684.9517 686.8253 686.8253 688.1773 688.1773 688.2790 688.5659
   688.5791 688.5791 688.5987 688.7212 688.7212 688.7509 689.2686 689.2686
   690.4364 692.5493 692.5493 692.6943 695.8090 695.8090 698.0289 698.1942
   698.1942 698.2169 698.3088 698.3088 698.7368 698.7368 699.3634 700.7290
   700.7352 700.7514 700.7514 700.9128 701.2479 701.2479 701.8554 701.8554
   702.8516 702.8516 702.9071 702.9212 702.9212 702.9495 702.9763 703.0033
   703.0033 703.0213 703.3470 703.3470 704.0456 707.4505 707.4505 707.9568
   708.2878 708.4060 708.4060 708.8707 708.8707 709.0524 709.7420 709.7420
   711.1556 711.1762 711.2391 711.2391 712.1236 712.1241 712.1328 712.1742
   712.1742 712.3634 712.3634 712.8717 712.8717 713.5121 713.5121 714.0788
   714.0788 714.1913 714.5895 714.6997 714.6997 715.3320 715.3985 715.4151
   715.4151 715.4341 715.5374 715.5374 715.6886 715.6886 715.7079 715.7079
   715.7444 716.6458 717.4922 717.4922 718.6792 719.0364 720.2800 720.2800
   720.8111 721.3500 721.3500 722.2934 723.4419 723.4419 723.4430 724.4816
   724.5638 724.5638 724.6319 725.2342 725.2342 725.3627 725.3696 725.4575
   725.4575 726.8375 726.8375 727.8165 727.8636 727.8636 728.7418 728.7418
   728.9885 728.9885 729.1701 729.1701 729.2002 729.2003 729.5655 729.5663
   729.5676 729.5676 729.6881 729.6881 730.1717 730.1717 735.2689 735.2689
   735.4187 735.4877 735.4877 736.2593 737.8251 738.7307 738.7307 738.8236
   739.2529 739.2529 739.6778 739.7755 739.7755 739.8451 740.1553 740.1640
   740.2579 740.2579 740.6780 740.6780 740.9733 740.9871 740.9871 741.0138
   741.3830 741.3830 742.0800 742.0800 745.9593 746.5914 746.5914 746.8463
   746.8466 747.0875 747.0875 747.0910 747.0910 747.7783 747.7783 747.7802
   747.7862 747.7862 748.0083 750.9858 750.9858 752.6937 753.1178 753.1178
   753.1757 753.1757 753.2469 753.2469 758.4383 758.4383 758.4586 758.4976
   758.7318 758.7318 758.7692 759.2996 759.2996 759.3223 759.4847 759.6505
   759.6505 760.3678 760.3678 760.5212 760.5212 760.5226 760.5226 760.9889
   762.3378 762.3378 763.7268 763.7589 763.7589 763.8943 764.3050 764.3050
   765.0530 765.0530 765.2948 765.3346 765.3346 765.7153 765.8674 765.8674
   765.8781 765.8781 765.9598 765.9708 766.0308 766.0308 766.1281 766.1281
   766.2370 766.3544 766.3544 766.3620 766.3680 766.5850 766.5850 766.9202
   769.9832 769.9832 775.2569 775.3286 775.3286 775.3807 775.6346 775.6346
   776.2447 776.2447 776.3135 776.4772 776.4772 777.0168 780.4709 780.4832
   780.4832 780.4848 780.5207 780.5207 783.2239 783.3472 783.3472 783.5902
   785.4577 785.4577 785.4907 786.0881 786.1027 786.1027 786.1651 786.1906
   786.8852 786.9867 786.9867 787.3072 787.3072 789.7727 790.3913 790.3913
   790.4303 790.4303 790.4644 792.3060 792.3060 793.0247 793.8541 793.8541
   793.8924 793.8924 793.8925 793.8963 795.1767 795.4298 795.4298 797.0129
   797.0129 798.4691 800.2318 800.2896 800.2896 800.3955 800.3955 800.4637
   800.7198 800.7271 801.0749 801.0749 801.8232 801.8342 801.8342 801.8746
   802.0438 802.0438 803.8169 803.8169 803.8284 803.8342 803.8388 803.8388
   805.0954 805.0954 808.6691 809.1858 809.1858 809.6748 809.6748 809.8679
   809.8679 809.8862 809.8915 809.9362 810.0077 810.0077 810.5068 810.6997
   811.1142 811.1142 811.3901 811.7554 811.7554 811.8028 811.8028 811.9098
   812.2188 812.2188 812.3997 813.3073 814.4415 814.4415 816.1806 816.3958
   816.3958 816.6758 818.0892 818.0892 819.6121 819.6121 820.1200 820.1665
   820.1665 820.3307 820.7470 820.7470 820.8654 820.8654 821.4603 824.2281
   824.9299 824.9299 824.9657 824.9657 825.1059 825.7666 825.7666 825.8933
   826.0191 826.0504 826.0504 826.0662 826.7112 826.7112 826.7513 827.0585
   827.0585 827.6772 827.6772 827.7315 827.7315 827.8023 827.8059 828.2262
   828.2262 828.2973 828.3010 828.3010 828.4153 828.6618 828.6618 828.6831
   828.6856 828.8828 831.4444 831.4444 832.2034 832.3079 832.3079 834.4640
   835.5438 835.5438 835.6760 835.6760 835.6864 835.6989 835.6989 835.7109
   835.9281 835.9281 836.3512 836.4015 836.4089 836.4089 836.7235 836.8988
   836.8988 837.5951 837.5951 838.0471 838.3553 838.3553 838.5779 838.6564
   838.6564 838.6630 838.6690 838.7410 838.7410 841.9097 841.9097 841.9926
   842.1173 842.1262 842.1262 842.1320 842.1320 842.2182 842.2182 842.2917
   842.2917 842.5904 842.5904 842.8920 842.8923 842.8923 842.8962 844.6631
   844.6631 844.9660 845.6564 845.6564 848.6818 848.6818 848.7041 850.4235
   850.4235 850.7624 853.6385 853.6469 853.6469 853.7379 853.7379 854.5168
   854.7569 854.7569 854.7746 854.7747 854.8392 854.8392 857.9438 858.0671
   858.0671 858.2835 861.2099 861.2099 862.4970 862.5731 862.5731 862.5744
   862.6454 862.6454 862.9641 863.2083 863.2083 863.4931 863.5057 863.5057
[...]
   136.6717 138.1014 138.4553 140.2295 140.3770 140.6285 141.5679 142.9360
   143.7597 144.0689 144.0809 144.7672 146.1630 147.1280 147.9978 148.0858
   148.4223 148.8844 149.9950 150.7943 152.6977 153.6526 153.8223 154.7380
   155.1743 156.2646 156.5638 157.9449 158.3164 159.6728 160.0784 161.7626
   161.8154 162.2522 162.8294 163.3392 163.4871 164.3068 165.9145 166.7572
   166.9772 167.4503 168.2284 168.8239 169.3326 169.6802 169.6918 170.2712
   171.2316 171.5402 171.6174 172.5045 173.4904 174.8352 174.9120 175.3977
   176.5148 177.1252 177.3892 177.5767 180.3438 181.7080 181.8989 182.2215
   183.0075 183.7620 184.6093 185.1427 185.7099 187.0087 188.1165 188.8812
   188.8906 189.0816 189.9279 190.0739 191.1877 191.5261 191.6671 192.3531
   193.3798 193.4168 193.8293 194.1247 194.3123 194.8059 195.1169 195.9666
   197.0098 197.2044 197.9600 198.0339 201.4471 203.9738 204.4836 205.8611
   206.2266 208.0286 208.9597 209.2146 209.6161 210.0506 210.3868 210.6001
   210.6624 211.5133 212.4078 212.5282 212.5501 214.1370 218.1511 218.6202
   218.7504 219.1473 219.4052 219.6361 219.9796 220.7819 221.2849 221.3518
   222.5299 222.7192 222.9440 223.5893 223.6518 225.7251 227.4719 227.5844
   229.7136 230.0325 230.5797 230.9000 231.2499 231.6325 232.7586 233.1227
   233.1685 234.4653 234.5718 234.9450 236.3501 236.4386 238.6094 238.6843
   239.0461 239.2006 240.2059 241.0128 241.2081 242.4297 242.4974 243.3272
   243.3294 243.4232 243.7614 245.4942 245.6108 248.1440 248.5667 249.0477
   249.0841 249.1463 250.8529 252.5511 252.8618 253.0903 253.2026 253.5605
   255.2002 255.4843 255.7314 256.3743 257.7169 257.9398 258.1118 258.1338
   258.6333 260.0645 261.9033 262.0634 262.7300 263.0216 263.1294 263.1705
   264.3833 264.6885 264.8552 264.9296 267.3155 267.6861 269.3254 269.4409
   269.5049 269.9739 269.9767 270.1948 270.4203 271.7001 271.8932 272.3866
   273.6486 273.7952 274.4705 275.3382 275.4891 275.7855 275.8392 276.4350
   276.9640 277.7491 277.7508 277.7547 278.3670 279.0479 279.1906 281.3088
   281.3230 281.3699 282.1070 282.3784 282.5137 283.1449 283.3985 284.0628
   284.4920 284.7622 285.0098 285.3224 286.4998 287.8425 288.4414 289.7047
   290.4584 290.4786 290.5604 291.0036 291.8478 291.8669 292.1379 292.1555
   292.2033 293.8184 293.8369 293.9192 294.5401 294.9978 295.6438 296.5247
   297.8498 297.8974 298.0573 298.1201 299.0830 300.1008 300.7785 302.3592
   302.4087 303.5647 303.9379 304.0142 304.3459 304.9241 308.4930 308.7174
   308.8437 308.9465 309.1974 309.5794 311.5797 311.9962 312.4273 312.4703
   313.1550 313.5169 314.9825 315.5477 316.1884 317.3495 317.6905 317.7566
   318.1079 318.6379 319.2632 319.2819 319.2876 319.5362 319.7310 319.9541
   321.8649 323.1186 323.4002 323.6713 323.9241 324.1641 324.5987 324.7450
   325.3266 325.3795 325.4720 326.0826 327.1371 327.1410 328.9304 330.3484
   330.6590 330.7417 331.3766 332.2690 333.1448 333.4857 334.4684 334.6173
   335.4009 336.0866 338.4771 339.1710 339.1918 339.9406 339.9512 340.9902
   341.0027 341.1379 343.7575 343.8797 344.3113 344.3489 344.5546 344.9284
   345.2719 345.3365 345.3482 345.4410 345.7134 345.8232 345.9551 346.1407
   348.4582 348.7419 349.2705 349.4001 350.6537 352.2974 353.5863 353.9894
   354.0767 354.4684 354.9342 355.4872 355.4891 356.6215 356.6383 357.4539
   358.9565 358.9954 359.3438 359.4204 359.4322 359.6069 360.0583 360.2375
   360.4552 360.7844 362.7124 363.6223 363.6880 364.1600 364.8525 364.8875
   365.5041 365.5910 366.0594 367.2267 367.2684 367.8447 368.1204 368.6665
   368.8203 370.3092 370.6102 371.2803 371.4383 371.9424 372.6498 373.0156
   374.1248 374.9103 376.6209 376.6878 377.2549 377.9203 378.2316 380.6901
   382.1391 382.7453 383.6520 383.7675 384.2012 384.9501 385.2364 385.2507
   385.3506 385.7238 385.7688 385.8863 386.3120 386.9360 386.9804 387.2528
   387.6529 387.7228 387.9224 388.3765 389.0798 389.9155 390.0305 390.0844
   391.0810 391.9953 394.0125 394.1707 394.3820 394.3862 394.5995 394.6334
   396.0489 397.9550 398.0971 398.2117 398.2846 398.4416 399.2130 399.2831
   400.5424 401.1867 401.6119 402.0064 402.2580 402.2716 402.5664 402.6285
   402.8334 404.2458 405.6135 405.6851 405.8994 406.2827 407.4651 407.4940
   407.6079 407.8631 407.9158 408.0099 409.4047 409.4063 409.5527 409.8772
   409.9192 410.0384 410.1982 411.0298 411.7784 411.8404 413.1030 413.1426
   413.1911 413.8383 413.8678 413.9310 414.0112 415.2656 415.5555 415.8926
   416.2833 416.5360 416.5865 416.5927 416.7760 417.3273 418.1946 418.2028
   418.2998 418.3500 418.8100 418.9430 419.8868 423.1764 423.4150 423.8708
   424.1490 424.3075 424.3840 424.8210 425.2880 426.1010 426.1139 426.6315
   426.7004 427.0815 427.1611 427.4780 427.8686 428.5997 428.7358 428.9584
   429.4570 429.5697 430.4057 430.9968 431.1095 431.7461 432.5095 433.4660
   433.9112 434.0622 434.2709 434.4979 436.4312 436.6904 439.2289 439.8833
   439.9718 440.1820 443.2103 443.3797 443.4712 443.6127 443.8656 443.9804
   444.1946 444.2155 444.4141 444.5632 444.6252 444.7356 444.7744 444.8628
   445.0147 445.3585 446.0239 447.0455 447.4218 447.9222 448.6061 448.9968
   449.7821 450.1482 450.2282 450.2711 450.6973 450.7712 450.8256 452.5013
   452.5725 452.9939 452.9987 453.2903 453.4759 453.6115 454.2178 454.6200
   455.3312 455.8285 455.8357 456.3487 457.2248 460.3176 460.8198 461.1660
   461.2338 461.3830 461.6501 461.7362 461.7992 462.9381 463.0776 463.0919
   463.5284 464.8468 464.9095 465.0338 465.3018 465.3883 466.0936 467.8330
   467.8888 468.1698 469.2330 469.5382 469.8188 469.8904 470.3141 470.3307
   470.6937 474.4337 474.5332 474.6121 475.4535 476.4777 477.1707 477.1753
   477.9858 478.3684 478.4773 479.1472 480.3219 480.4880 480.6509 480.9578
   481.8131 482.8639 483.0728 483.3973 483.9617 484.0595 484.3959 484.5711
   485.2199 485.9161 486.1852 486.3204 486.3332 486.4360 487.0845 487.3040
   487.5316 488.2661 488.2771 488.2936 489.7626 490.7000 491.0858 491.6109
   491.6260 491.9637 492.2592 492.3543 493.5723 495.8490 496.4180 496.7501
   496.7545 497.6000 500.7744 501.2019 501.5777 501.8783 502.6795 502.7165
   502.7304 502.9486 503.1895 503.5694 504.5632 504.8161 507.8146 508.0130
   509.7614 510.0996 510.2619 510.7636 510.9235 511.1339 511.5524 511.6624
   511.7969 512.2515 513.0609 513.0882 513.1397 513.1692 513.2927 513.3918
   514.6428 514.7584 514.8206 515.0768 515.9866 516.0828 516.2964 516.5418
   516.6378 516.8841 517.5229 517.7256 518.3180 518.4669 518.8298 518.9077
   519.5244 520.2163 520.8052 521.7480 522.9857 523.3019 523.3366 523.6136
   523.7954 524.5450 524.6348 525.1675 525.2619 525.3229 525.6581 526.0064
   526.4043 526.5295 527.1788 527.3121 527.5428 528.4112 528.5028 528.6572
   528.8878 529.1346 529.3975 529.5331 529.5845 529.5895 529.6515 529.7142
   530.1419 530.8823 531.6575 531.9876 532.6672 532.8012 533.3239 533.8444
   534.0886 535.0605 535.2691 537.8885 538.0572 538.0833 538.0946 539.2530
   539.7947 540.0226 540.0865 540.2486 540.5458 540.5923 540.6454 541.6151
   541.6995 542.1300 543.1575 543.2015 543.2103 543.9947 544.0876 544.2363
   544.2401 544.7400 544.7929 545.1780 545.4248 545.5357 545.6959 545.8238
   546.0257 546.0931 546.4895 546.6075 546.6387 546.7857 546.8697 547.1664
   547.5361 547.6983 549.8485 549.9453 552.2652 552.5273 552.5601 552.5810
   552.8725 553.2202 553.3878 554.7256 555.0221 555.5206 555.7254 555.7873
   556.7714 557.6743 559.1999 559.8392 559.9154 560.1315 561.5114 561.5612
   562.3777 562.6836 563.6520 564.0724 564.9437 565.7871 565.8396 566.3056
   566.3461 566.4777 566.7346 567.0593 567.2315 567.3138 567.4173 567.4882
   567.7990 567.8308 567.9551 568.2307 568.9529 569.8365 570.2246 570.8915
   571.0226 571.2406 571.4967 571.9937 572.4678 572.8171 573.4434 573.4574
   573.5304 573.8155 574.1929 575.5860 575.7625 575.8298 576.2960 576.5315
   576.6402 577.0278 577.1178 577.3543 577.4771 577.6448 578.4999 578.8867
   579.3953 579.7474 579.7623 582.5077 582.9001 583.6536 583.7389 583.7526
   583.8108 584.5638 584.6028 585.4277 585.5046 585.7004 585.7281 586.2267
   586.2285 586.2596 586.6641 587.4063 587.4892 587.5832 588.3332 589.7757
   590.2193 590.2544 590.3854 590.6649 594.0195 594.1675 594.3289 594.7837
   595.6190 595.8095 595.9586 596.0655 596.2177 596.5616 596.6920 596.7330
   596.8107 597.0427 597.2609 597.4446 597.7372 597.9111 598.3153 599.2325
   600.3760 600.7292 600.7339 601.0559 601.3257 601.4065 601.9417 601.9964
   602.1983 602.9677 603.2577 604.7418 604.9964 605.0047 605.9553 607.3230
   608.0590 608.7323 608.7963 608.9150 609.5749 610.0217 610.0297 610.4455
   610.7370 610.8455 611.0956 611.7459 611.9448 612.1082 612.1814 612.1983
   613.2597 614.5262 614.5930 615.0679 615.1416 615.1456 615.5225 615.6702
   616.0745 616.1194 616.1513 616.1893 616.7717 616.8971 617.2773 617.7672
   618.2503 618.5915 618.6714 619.1804 619.2880 620.4335 620.4616 620.9901
   621.2750 621.4475 621.8103 621.8716 622.0378 622.1386 622.2285 623.0197
   623.3153 623.4067 623.7301 624.4712 625.6857 625.7219 626.4972 626.6882
   629.6141 629.8722 630.0052 630.7682 630.9212 631.1391 631.4116 631.6213
   632.5989 632.7514 633.6491 633.8242 633.9570 634.1786 634.6418 634.9036
   635.1311 635.3375 635.5402 635.6745 636.1236 636.9126 636.9323 637.9896
   639.1314 639.3407 640.0357 640.1926 641.5225 641.5914 642.5981 642.6648
   643.8102 644.0084 644.0963 644.2756 644.6686 644.8313 645.5479 646.1962
   646.2011 646.4053 646.6890 646.7975 646.8191 647.2018 647.6087 647.6829
   648.3378 648.3811 648.6275 648.9496 650.0573 650.1055 651.4115 652.1484
   652.2505 652.2813 652.5138 652.7322 653.0881 653.1254 653.4891 653.6398
   653.6609 653.7248 653.7347 653.9039 654.0612 654.3445 654.5253 654.8467
   655.2107 655.8847 655.9181 660.1010 661.2235 661.3050 661.7634 661.9891
   662.5014 662.9938 663.0348 663.1164 663.5352 663.5440 663.5832 664.1858
   664.7697 664.8181 664.8629 664.8686 665.3190 665.6282 665.9373 665.9599
   666.1679 667.4532 667.6948 668.4492 668.5016 668.5594 668.9565 672.1647
   672.9519 673.1046 673.2288 673.2840 673.5140 673.7907 674.1035 674.1932
   675.0716 675.4123 675.9698 676.0796 676.4392 677.5458 678.1716 678.7504
   679.0087 679.0966 679.0998 679.8787 680.3557 680.3718 680.8855 681.0755
   682.5844 682.6759 683.4341 683.5525 683.6790 683.7327 684.2248 685.0503
   685.5422 686.1152 686.9554 687.2828 688.2081 688.9797 689.0083 689.4682
   689.7199 689.9522 689.9953 690.1693 690.2582 690.4453 690.4467 690.4705
   691.4981 692.0163 692.1173 693.1445 693.3672 693.4331 693.4677 693.8828
   694.1470 695.2142 695.2903 695.3399 695.4844 695.9368 696.0620 696.5319
   697.2766 697.3458 697.4772 697.7215 699.2527 700.0469 700.2544 700.4699
   700.7922 700.8701 701.5034 701.7225 701.9868 702.0725 702.7658 702.7790
   703.1233 703.2663 703.4948 703.7546 704.4078 704.4647 704.4850 704.6826
   705.9467 705.9541 706.1756 706.9138 706.9499 707.1772 707.4712 711.2318
   711.2835 711.2962 711.7014 712.0735 712.1245 712.4049 712.6207 713.2669
   713.3278 713.3353 713.4725 713.8124 713.8309 713.9817 714.5958 717.1296
   717.1340 717.1701 717.2398 717.5276 717.6290 717.8203 718.0980 718.3950
   719.5785 719.6905 719.8651 720.0120 720.1795 720.6376 721.0363 721.2269
   721.5011 721.5281 721.9236 722.3543 722.6202 722.6816 722.9364 723.0573
   723.0720 723.2632 723.9816 724.4240 724.6030 724.8058 725.5984 725.6070
   725.6756 726.4567 726.6442 726.9884 727.3574 728.1591 728.2793 729.0379
   729.3162 730.1650 730.2988 730.5554 730.8318 731.5636 731.6469 731.6960
   732.1241 732.2124 733.0293 733.4418 734.4051 734.7542 734.7659 735.3282
   735.3708 735.9677 736.0953 736.1468 736.4424 736.4460 736.8580 736.9225
   736.9390 737.3755 737.7549 737.9835 738.1028 738.2753 739.0095 739.6024
   739.7796 740.0161 740.4013 740.9618 742.2972 742.3232 742.3283 742.3531
   742.3793 742.4695 742.5596 742.9528 743.2290 743.2646 743.5820 743.8509
   744.0883 744.1627 744.4400 744.6949 744.8377 745.7299 745.9268 746.0116
   746.0213 746.3894 746.4538 746.5736 746.7938 746.8461 748.3589 748.6603
   748.7440 749.1372 749.3126 749.3159 749.7702 750.4534 750.5298 750.8075
   751.3476 751.7512 753.7338 753.9045 754.3184 754.4644 755.2703 757.0771
   758.7171 758.7874 760.1831 760.3754 760.4667 760.7320 760.7565 760.9416
   760.9774 761.2418 761.3953 761.9120 761.9313 762.3514 762.4861 762.5521
   762.6849 763.2860 763.3744 763.6131 764.6963 764.8137 764.8613 766.0227
   766.3572 767.2730 767.8809 769.1500 769.1842 769.2554 770.0637 770.1139
   770.2354 770.5123 770.6941 770.7082 771.3405 771.4748 771.6128 771.6468
   771.8073 772.1134 772.4423 772.6506 773.7487 773.8121 774.0598 774.1894
   774.6941 774.8551 775.2167 775.2451 775.4190 775.5747 775.6390 775.8043
   775.8655 775.8838 775.9481 776.1217 776.3502 776.3770 776.6176 777.3964
   777.4815 777.5520 777.6895 777.8548 777.8599 778.1065 778.1107 778.1483
   778.4424 778.5907 778.6100 779.4897 781.7548 781.7671 783.6153 785.2701
   785.9473 786.1197 786.6991 786.7592 786.8540 788.1940 788.3113 788.4983
   788.6921 789.2440 789.2784 789.8620 789.8856 790.1923 790.6013 790.7526
   791.2523 791.3355 791.4603 791.5489 791.5700 791.6606 792.5596 794.2414
   794.4823 794.6620 794.9015 794.9749 794.9897 795.3384 795.5114 795.5285
   795.6990 795.8241 796.1393 796.1990 796.2410 796.2586 796.4101 796.4162
   796.5109 796.6185 796.9077 797.1227 797.2143 797.8168 798.2749 798.7548
   799.0894 799.3860 800.8084 800.9123 801.3730 801.5807 801.6779 802.6147
   802.6337 802.7065 802.8334 803.0935 803.7508 804.7611 805.2045 805.3915
   805.4346 805.4984 807.5525 807.9734 808.5289 808.7110 808.8074 809.4735
   810.9217 810.9750 811.4889 811.5301 811.5857 811.9774 812.1165 812.1411
   812.1972 812.3162 812.4558 812.5412 812.7576 812.8502 813.0714 813.2574
   813.2586 813.2628 813.2984 813.7558 815.0039 815.7693 816.8294 817.3209
   817.6464 818.1579 818.7044 819.1124 819.3743 819.4496 819.4898 819.8414
   819.8473 819.9766 820.1731 820.2403 820.3663 820.6314 820.6413 820.7403
   820.7609 821.0902 821.2604 821.6136 821.6467 822.1662 822.2288 822.5919
   822.6423 823.0162 823.0789 823.0813 823.5147 823.7881 823.9531 824.2206
   824.9574 827.4599 828.0711 828.2442 829.0161 829.7101 830.1606 831.7023
   833.7913 834.1826 834.1934 834.5795 834.7777 835.0685 835.0687 835.2817
   835.8412 836.0903 836.7582 836.8944 837.0791 837.3263 838.1654 838.5953
   838.9188 839.4277 839.5063 839.8657 840.0196 840.5921 840.5935 842.1753
   843.2313 843.3012 843.4050 844.9952 845.2416 845.9831 846.1082 846.1521
   846.9278 846.9609 846.9782 847.1583 847.3006 847.6076 847.8732 848.2920
   848.3501 848.4252 848.4520 848.8217 849.0328 849.6861 849.7629 850.5383
   851.3709 851.6248 851.6615 851.8739 852.0306 852.1756 852.3219 852.9310
   853.5003 853.5075 854.9072 856.2976 856.8843 857.3128 858.2154 858.5086
   858.6348 858.6758 858.6980 859.0991 859.2944 859.8500 860.0001 860.5349
   860.5419 860.9111 861.1941 861.2682 861.4757 861.5215 862.0041 862.6087
   862.6808 862.7464 862.9475 863.4102 863.4858 863.6854 864.3465 864.5170
   864.6527 864.7985 865.1487 865.3309 865.4627 865.6814 866.0711 866.7625
   866.9028 867.1631 867.3122 868.0450 868.4149 870.1916 870.2352 870.4120
   870.8279 870.9372 871.4999 872.0429 872.0779 872.1171 872.1944 872.2842
   872.3667 872.5112 872.6489 872.7286 873.8503 874.0855 875.4076 875.7128
   876.0562 876.0895 876.7385 876.7925 877.2184 878.8206 879.5348 879.9318
   880.0672 880.5753 880.9166 880.9188 881.6471 881.8570 883.1967 883.3582
   883.4560 883.6262 883.7762 883.8070 883.8270 883.9924 884.1873 884.2272
   884.7083 885.1652 885.3529 885.7822 885.9795 886.2207 886.2435 886.4155
   887.0355 887.3738 887.6226 887.7324 888.1578 889.0342 889.1190 889.2790
   889.3402 889.5013 889.5217 889.7140 889.7370 889.7638 890.0366 890.3866
   890.4889 891.2172 891.6728 892.3569 892.5053 892.5954 892.7106 893.4593
   893.8753 894.2697 894.2749 896.1445 896.4470 896.5605 896.5906 896.7807
   896.7811 896.9647 897.0084 897.5895 897.7801 899.1336 899.4765 900.3116
   900.4277 900.6208 901.0715 901.1085 902.5441 902.5658 903.4131 903.8584
   904.1781 904.2813 904.4633 904.5606 904.6108 905.7480 905.9451 906.4183
   906.5604 906.6210 907.1461 907.1699 907.4291 907.8267 908.4798 909.3489
   910.6308 910.7756 911.0163 911.0965 911.3306 911.3584 912.0129 912.1155
   912.2297 912.6728 912.9206 913.6236 913.7771 913.9154 914.1919 914.2007
   914.2763 914.6972 914.8984 915.1925 915.2239 915.4754 915.8329 916.5600
   917.3261 918.2528 918.4138 918.5362 920.4726 920.5298 920.5508 920.5701
   920.5709 920.7463 920.9832 921.2590 921.8732 921.9922 922.0574 922.3559
   922.4097 922.6822 922.8091 922.9034 923.1593 923.1721 923.4465 923.5730
   923.7417 924.0185 924.0497 924.1362 924.2444 924.6566 926.0247 926.0973
   926.1500 927.2973 927.5680 927.8526 927.9289 928.2073 928.2908 928.4182
   928.5093 928.5755 928.6353 928.9841 929.1494 929.1688 929.4626 929.4672
   930.0224 930.4043 931.2099 931.5381 931.9850 933.4536 934.2890 934.4756
   935.6964 935.8411 936.0228 936.6087 937.0036 937.6753 937.7889 937.8932
   938.5995 938.9520 939.3895 939.7240 940.0613 940.3472 941.6374 941.8492
   941.8847 942.1798 942.5778 942.8583 942.8733 942.9180 943.0429 943.2813
   943.5641 943.6904 944.2307 944.5619 944.5779 944.8808 944.8876 945.1990
   945.8470 947.2820 948.3072 949.0493 949.3720 949.4617 949.5768 949.7016
   949.8415 950.0326 950.0328 950.0877 950.2793 950.3399 950.3852 950.4973
   950.5569 950.6659 951.0842 951.2829 951.2958 951.4479 951.7035 951.7567
   952.2616 952.7531 952.7689 953.2688 953.8804 954.4023 954.4857 954.5401
   954.7114 955.0548 955.2127 955.2727 955.4889 955.5226 955.9809 956.0929
   956.2694 956.3085 956.5625 956.5819 956.8266 956.9693 956.9889 957.4533
   957.5354 958.6143 958.9157 959.1295 959.5882 959.7927 959.9322 960.1583
   960.9743 960.9784 961.2408 961.4561 961.4947 962.5380 962.6516 962.6623
   962.7785 963.0481 963.2240 964.2072 964.3443 965.6519 965.7913 965.7949
   965.8471 966.3169 966.4408 966.6202 966.8998 968.0480 968.8625 969.0005
   969.3436 969.3916 969.8275 969.9079 970.1503 970.2138 970.2798 970.3556

     the Fermi energy is    12.1266 ev
     (compare with:    12.1266 eV, computed in scf)

     Writing all to output data dir out/mp-2114.save/
 
     init_run     :      0.03s CPU      0.07s WALL (       1 calls)
     electrons    :   3963.37s CPU   4251.25s WALL (       1 calls)

     Called by init_run:
     wfcinit      :      0.00s CPU      0.00s WALL (       1 calls)
     potinit      :      0.01s CPU      0.04s WALL (       1 calls)
     hinit0       :      0.01s CPU      0.01s WALL (       1 calls)

     Called by electrons:
     c_bands      :   3963.35s CPU   4251.21s WALL (       1 calls)
     v_of_rho     :      0.00s CPU      0.00s WALL (       1 calls)

     Called by c_bands:
     init_us_2    :      0.00s CPU      0.00s WALL (      16 calls)
     init_us_2:cp :      0.00s CPU      0.00s WALL (      16 calls)
     cegterg      :   3881.33s CPU   4162.99s WALL (      16 calls)

     Called by *egterg:
     cdiaghg      :   3759.47s CPU   4037.20s WALL (     130 calls)
     h_psi        :     35.47s CPU     37.09s WALL (     146 calls)
     g_psi        :      0.20s CPU      0.20s WALL (     114 calls)

     Called by h_psi:
     h_psi:calbec :      0.53s CPU      0.57s WALL (     146 calls)
     vloc_psi     :     34.15s CPU     35.70s WALL (     146 calls)
     add_vuspsi   :      0.39s CPU      0.39s WALL (     146 calls)

     General routines
     calbec       :      0.53s CPU      0.57s WALL (     146 calls)
     fft          :      0.00s CPU      0.00s WALL (      10 calls)
     fftw         :     31.22s CPU     32.67s WALL (  376732 calls)
 
     Parallel routines
 
     PWSCF        :      1h 6m CPU      1h10m WALL

 
   This run was terminated on:  20: 2:18  18Dec2023            

=------------------------------------------------------------------------------=
   JOB DONE.
=------------------------------------------------------------------------------=
