
     Program PWSCF v.7.1 starts on 18Dec2023 at 10: 7:36 

     This program is part of the open-source Quantum ESPRESSO suite
     for quantum simulation of materials; please cite
         "P. Giannozzi et al., J. Phys.:Condens. Matter 21 395502 (2009);
         "P. Giannozzi et al., J. Phys.:Condens. Matter 29 465901 (2017);
         "P. Giannozzi et al., J. Chem. Phys. 152 154105 (2020);
          URL http://www.quantum-espresso.org", 
     in publications or presentations arising from this work. More details at
     http://www.quantum-espresso.org/quote

     Parallel version (MPI), running on     8 processors

     MPI processes distributed on     1 nodes
     122980 MiB available memory on the printing compute node when the environment starts
 
     Reading input from pw_mp-2114_nscf_k10_E121.in
Warning: card &IONS ignored
Warning: card / ignored
Warning: card &CELL ignored
Warning: card / ignored

     Current dimensions of program PWSCF are:
     Max number of different atomic species (ntypx) = 10
     Max number of k-points (npk) =  40000
     Max angular momentum in pseudopotentials (lmaxx) =  4

     Atomic positions and unit cell read from directory:
     out/mp-2114.save/
     Atomic positions from file used, from input discarded
 
 
     R & G space division:  proc/nbgrp/npool/nimage =       8
     Subspace diagonalization in iterative solution of the eigenvalue problem:
     one sub-group per band group will be used
     scalapack distributed-memory algorithm (size of sub-group:  2*  2 procs)

 
     Parallelization info
     --------------------
     sticks:   dense  smooth     PW     G-vecs:    dense   smooth      PW
     Min         177     177     49                 4453     4453     650
     Max         178     178     50                 4457     4457     652
     Sum        1417    1417    397                35629    35629    5209
 
     Using Slab Decomposition
 


     bravais-lattice index     =            2
     lattice parameter (alat)  =       9.2535  a.u.
     unit-cell volume          =     198.0857 (a.u.)^3
     number of atoms/cell      =            2
     number of atomic types    =            2
     number of electrons       =        16.00
     number of Kohn-Sham states=         2200
     kinetic-energy cutoff     =     121.0000  Ry
     charge density cutoff     =     484.0000  Ry
     Exchange-correlation= PBE
                           (   1   4   3   4   0   0   0)

     celldm(1)=   9.253465  celldm(2)=   0.000000  celldm(3)=   0.000000
     celldm(4)=   0.000000  celldm(5)=   0.000000  celldm(6)=   0.000000

     crystal axes: (cart. coord. in units of alat)
               a(1) = (  -0.500000   0.000000   0.500000 )  
               a(2) = (   0.000000   0.500000   0.500000 )  
               a(3) = (  -0.500000   0.500000   0.000000 )  

     reciprocal axes: (cart. coord. in units 2 pi/alat)
               b(1) = ( -1.000000 -1.000000  1.000000 )  
               b(2) = (  1.000000  1.000000  1.000000 )  
               b(3) = ( -1.000000  1.000000 -1.000000 )  


     PseudoPot. # 1 for N  read from file:
     /usr/scratch4/magr4985/MG/HTDF/pseudo/SG15/N.upf
     MD5 check sum: c233fa8df51455e992258b7c3dee8a9f
     Pseudo is Norm-conserving, Zval =  5.0
     Generated using ONCVPSP code by D. R. Hamann
     Using radial grid of  602 points,  4 beta functions with: 
                l(1) =   0
                l(2) =   0
                l(3) =   1
                l(4) =   1

     PseudoPot. # 2 for Y  read from file:
     /usr/scratch4/magr4985/MG/HTDF/pseudo/SG15/Y.upf
     MD5 check sum: 1a657b90673a6e990374512484d9703d
     Pseudo is Norm-conserving, Zval = 11.0
     Generated using ONCVPSP code by D. R. Hamann
     Using radial grid of  602 points,  6 beta functions with: 
                l(1) =   0
                l(2) =   0
                l(3) =   1
                l(4) =   1
                l(5) =   2
                l(6) =   2

     atomic species   valence    mass     pseudopotential
        N              5.00    14.00670     N ( 1.00)
        Y             11.00    88.90590     Y ( 1.00)

     48 Sym. Ops., with inversion, found



   Cartesian axes

     site n.     atom                  positions (alat units)
         1           Y   tau(   1) = (   0.0000000   0.0000000   0.0000000  )
         2           N   tau(   2) = (  -0.5000000   0.5000000   0.5000000  )

     number of k points=     3  Gaussian smearing, width (Ry)=  0.0005
                       cart. coord. in units 2pi/alat
        k(    1) = (   0.0000000   0.0000000   0.0000000), wk =   0.2500000
        k(    2) = (   0.5000000  -0.5000000   0.5000000), wk =   1.0000000
        k(    3) = (   0.0000000  -1.0000000   0.0000000), wk =   0.7500000

     Dense  grid:    35629 G-vectors     FFT dimensions: (  45,  45,  45)

     Estimated max dynamical RAM per process >     228.11 MB

     Estimated total dynamical RAM >       1.78 GB

     The potential is recalculated from file :
     out/mp-2114.save/charge-density

     Starting wfcs are random

     Band Structure Calculation
     ParO style diagonalization

     ethr =  5.00E-06,  avg # of iterations =  5.7

     total cpu time spent up to now is     1737.2 secs

     End of band structure calculation

          k = 0.0000 0.0000 0.0000 (  4477 PWs)   bands (ev):

   -28.8022  -8.4668  -8.4668  -8.4668  -0.8287  12.0321  12.0321  12.0321
    15.1654  15.1654  15.1654  16.1635  17.1402  17.1402  22.9533  35.3070
    35.3070  35.3070  36.5595  36.5595  36.5595  39.7108  39.7108  39.7108
    41.1925  41.1925  45.9997  45.9997  45.9997  46.0684  52.9822  52.9822
    58.4599  58.4599  58.4599  60.9005  61.3640  61.3640  61.3640  61.4463
    65.8856  65.8856  65.8856  67.5140  67.5140  67.5140  69.4202  69.4202
    69.4202  69.4894  69.4894  69.4894  72.6165  72.6165  73.4210  73.4210
    73.4210  74.4619  75.0862  84.0262  84.0262  84.0262  85.1671  85.1671
    97.1988  97.1988  97.1988  97.1991 101.8078 101.8078 101.8078 102.3345
   102.3345 102.3345 103.8434 103.8434 109.1205 109.1205 109.1205 109.8005
   114.0877 114.0877 114.0877 116.5293 116.5293 116.5293 117.1031 117.1031
   117.3192 117.3192 117.3192 118.2421 118.2421 118.2421 118.5524 119.6737
   119.6737 119.6737 120.0467 120.0467 120.0467 120.2654 120.2654 121.4646
   121.4646 121.4646 123.8868 123.8868 124.8333 124.8333 124.8333 125.7209
   128.3571 136.2653 136.2653 136.2653 137.3314 138.5660 138.5660 138.5660
   141.7826 141.7826 146.9886 146.9886 147.0076 147.0076 147.0076 147.0196
   147.0196 147.0196 147.0335 147.0335 147.0335 147.1321 147.1321 147.1321
   148.3712 148.3712 148.3712 148.8670 148.8670 151.9432 159.5451 160.2416
   160.2416 160.2416 160.4625 160.4625 160.4625 162.7902 164.1800 164.1800
   164.1800 164.6561 164.6561 164.6561 165.6731 165.6731 165.6731 165.8491
   165.8491 165.8491 171.2774 172.0185 172.0185 172.0965 172.0965 172.0965
   172.2138 185.2782 185.2782 185.3108 185.3108 185.3108 185.3859 185.3859
   185.3859 188.4536 188.4536 188.4536 194.7578 194.7578 194.7578 195.4735
   203.0642 203.0642 203.0642 203.9805 203.9805 205.0858 205.0858 205.0858
   205.3700 206.1351 206.1351 206.1351 206.7693 206.7693 207.8620 207.8620
   207.8620 208.0289 208.0289 208.0289 210.2346 211.6781 211.6781 211.6781
   212.0605 212.0605 212.7272 212.7272 212.7272 213.2227 213.6069 213.6069
   214.3149 215.4514 215.4514 215.4514 215.8873 215.8873 215.8873 217.0592
   217.0592 217.0592 217.5228 217.5228 217.5228 218.4586 219.9499 219.9499
   219.9499 220.0453 220.0453 220.6997 220.6997 220.6997 221.6602 221.6602
   221.6602 222.2390 223.2843 223.2843 223.2843 223.4170 223.4170 224.1257
   224.1257 224.1257 224.7273 224.7273 224.7273 225.2072 225.2072 225.2072
   225.2640 225.2640 228.0556 238.4068 238.4068 238.4068 239.4694 239.4694
   241.2997 241.2997 241.2997 241.4677 241.4677 241.4677 241.5920 241.5920
   241.5920 241.7800 241.7800 241.7800 244.9013 249.1239 249.1239 249.2060
   249.2060 249.2060 249.2884 255.2816 255.2816 255.2816 255.3038 256.9720
   256.9720 256.9720 259.6560 263.4843 263.4843 263.6378 263.6378 263.6378
   264.1051 264.1051 264.1051 264.2181 264.2181 264.2181 264.3022 264.3022
   264.3022 264.4203 264.4203 268.9224 268.9224 268.9224 270.1464 270.4455
   270.4455 270.4455 272.2402 272.2402 272.2402 272.2761 272.2761 272.2761
   272.2887 272.2887 272.2887 272.2952 272.2952 272.4415 272.4415 272.4415
   272.4677 272.4677 274.6113 284.3292 284.3292 284.3292 291.2920 291.2920
   293.2679 293.4585 293.4585 293.4585 293.6428 295.3810 295.3810 295.3810
   297.4213 297.4213 297.4213 297.8779 297.8779 298.0569 298.0569 298.0569
   299.9959 301.2764 301.2764 301.2764 301.7919 310.2698 310.2698 310.2698
   313.4662 313.4662 313.4662 313.8566 313.8566 313.8566 314.1120 314.1120
   314.1120 314.5890 314.5890 314.5890 316.9720 316.9720 316.9720 317.0713
   317.3192 317.3192 317.3192 317.3364 317.3364 317.5149 317.5149 317.5149
   317.6070 317.6070 317.7426 317.7426 317.7426 317.7598 317.7598 317.7598
   319.6975 319.6975 319.8700 319.8700 319.8700 320.0003 320.1585 320.1585
   320.1585 320.2370 320.2370 320.2370 322.3304 322.3304 322.3687 322.3687
   322.3687 322.4234 328.8685 336.8200 337.6246 337.6246 337.6246 337.9793
   337.9793 337.9793 340.4048 340.8899 340.8899 341.1534 341.1534 341.1534
   341.4865 341.4865 341.4865 341.9463 341.9463 341.9463 342.0836 342.0836
   342.0836 342.6844 342.6844 345.8383 345.8383 345.8383 347.4237 347.4237
   347.4237 347.5175 347.5175 347.5175 347.5751 347.5751 347.5850 347.5850
   347.6373 347.6373 347.6373 347.6803 347.6803 347.6803 349.7533 349.8348
   349.8348 349.8348 349.9554 349.9554 349.9554 350.1114 354.4651 354.4651
   354.4651 354.6658 354.6658 355.6021 355.6021 355.6021 356.0681 356.0681
   356.0681 356.0707 356.8640 356.8640 356.8640 358.3202 358.3202 358.3202
   358.3694 358.8999 358.8999 358.8999 360.6457 360.6457 360.9054 360.9054
   360.9054 361.3769 365.7814 365.7814 366.1450 366.1450 366.1450 366.8383
   366.8383 366.8383 366.8887 366.8887 366.8887 367.1872 367.2388 367.2388
   367.2388 367.2459 367.2459 367.9089 367.9089 367.9089 368.0157 368.0157
   368.0955 370.2837 370.2837 370.2837 370.3068 370.3068 370.3068 370.4369
   370.4369 370.4369 370.4686 370.4686 370.4686 371.9570 372.0107 372.0107
   372.0107 372.0254 372.0254 379.7330 379.7330 379.7330 384.7583 384.7583
   391.3040 406.3216 406.3216 406.3216 409.3333 410.3570 410.3570 410.3570
   410.3618 411.1764 411.1764 411.1764 411.5686 411.5686 411.5686 411.5743
   411.5743 411.5743 411.6271 411.6271 411.6271 411.8909 411.8909 412.4128
   412.4128 412.4128 413.0343 413.0343 415.1968 415.1968 415.1968 415.3513
   415.3618 415.3618 415.3618 415.4407 415.6880 415.6880 416.7006 416.7006
   416.7006 416.7376 416.7376 416.7376 416.8325 416.8325 416.8325 416.9417
   416.9417 416.9417 423.6060 423.6060 423.6089 423.6089 423.6089 423.6410
   423.6410 423.6410 423.7843 423.7843 423.7843 423.8304 423.8304 423.8304
   423.8774 423.8774 424.4562 424.4562 424.4571 424.4571 424.4571 424.4917
   425.2540 434.5375 434.5375 434.5375 434.7384 434.7384 434.7384 436.1666
   436.1974 436.1974 437.9693 437.9693 437.9693 442.8612 442.8612 442.8612
   445.5760 445.6474 445.6474 445.6474 445.6940 445.6940 446.3477 446.3477
   446.3477 446.3547 446.3547 446.3547 446.4374 446.4374 446.4374 446.4689
   446.4689 446.4689 447.5655 447.5655 448.3936 449.9411 449.9411 449.9411
   454.3229 454.3229 454.3229 455.0561 455.0561 455.5949 455.5949 455.5949
   459.8361 459.8361 459.8361 459.8650 459.8650 459.8650 459.8923 459.8923
   459.8923 459.9053 460.4003 460.8708 460.9358 460.9358 461.4647 461.4647
   461.4647 462.3571 462.3571 462.3571 462.5658 462.5658 462.5658 462.5664
   462.5664 463.6900 463.9181 463.9181 463.9181 464.4929 464.4929 464.4929
   464.7992 468.7366 468.7366 468.7366 470.7782 470.7782 470.7917 470.7917
   470.7917 470.8523 470.8523 470.8523 470.8864 470.8864 470.8864 470.8950
   471.1749 471.1749 471.1749 471.3159 471.3159 471.9747 471.9747 471.9747
   473.4922 473.7473 473.7473 473.7473 473.8187 473.8187 473.8187 474.0292
   474.0292 474.0292 474.0476 474.0476 475.0512 486.2490 486.2490 486.2490
   491.7610 491.7610 492.0901 492.0901 492.0901 492.4395 492.4395 492.4395
   492.4754 492.4783 492.4783 492.4783 492.5564 492.5564 492.5564 492.9359
   492.9359 493.0072 493.0072 493.0072 493.0597 493.6720 493.6720 493.6720
   498.9075 498.9555 498.9555 505.0861 505.0861 505.0861 505.5031 508.1076
   508.1076 508.1076 508.6184 508.6184 508.6362 508.8518 508.8518 508.8518
   508.8860 508.8860 508.8860 509.1396 509.1396 509.1396 511.6916 511.6916
   511.6916 512.1252 512.1252 514.3484 514.3484 514.3484 514.4427 514.4427
   514.4427 514.5843 514.5843 514.5843 514.7284 514.7284 514.7284 514.8248
   514.8248 515.1067 515.1067 515.1067 515.2781 515.2781 515.2781 515.6075
   515.6075 515.6075 515.6592 515.6592 515.6592 515.8222 515.8222 516.5378
   516.5378 516.5378 517.5270 517.7499 517.9613 517.9613 517.9613 518.1735
   518.1735 518.1735 518.3847 518.9071 518.9071 518.9071 519.7340 519.7340
   519.9594 519.9594 519.9594 519.9722 519.9722 519.9722 520.2702 520.2702
   520.2702 520.7456 520.7456 520.7456 521.8886 521.8886 522.9519 523.1002
   523.1291 523.1291 523.1291 523.1416 523.1416 524.8500 524.8500 524.8823
   524.8823 524.8823 524.8883 524.8883 524.8883 524.8962 524.8962 524.8962
   524.9443 524.9443 525.0162 525.0162 525.0162 525.4715 525.4715 525.4715
   525.4731 525.4740 525.4740 525.4740 525.4811 536.1481 536.1481 536.1481
   537.9642 539.9253 539.9253 539.9253 540.1454 548.2343 548.2343 548.2343
   548.3303 548.3303 548.3513 548.3513 548.3513 548.4470 548.4470 548.4470
   548.4999 548.4999 548.4999 548.5220 548.5220 552.0782 552.0782 552.0782
   555.9765 555.9765 555.9765 556.1329 556.1329 556.1329 556.1492 556.1492
   556.1492 556.6893 558.4204 558.4204 558.4204 558.8973 558.8973 560.8690
   560.8690 560.8690 560.9447 561.1276 561.1276 566.9852 566.9981 566.9981
   567.0521 567.0521 567.0521 570.6725 570.6725 570.6725 570.6730 570.6730
   570.6730 570.6736 570.6736 570.6736 570.7009 570.7009 570.7009 572.5089
   572.5106 572.5106 572.5106 572.5120 572.5120 592.0523 592.0523 592.0523
   593.6362 593.6362 593.6362 593.6649 593.7104 593.7474 593.7474 593.7474
   593.8265 593.8265 593.8265 593.8463 593.8463 593.8463 593.9243 593.9243
   595.2118 595.2118 595.6318 595.6318 595.6318 597.6867 597.6867 597.6867
   597.8130 597.8130 597.8130 598.7184 600.4538 600.4538 600.4538 600.6441
   600.6441 603.9827 603.9827 603.9827 606.0090 607.7172 608.8627 608.8627
   608.8627 610.0110 612.0039 612.0039 612.0943 612.0943 612.0943 613.4164
   613.4164 613.4164 613.8687 613.8687 613.8687 613.9865 613.9865 613.9865
   614.0000 614.0000 614.0000 614.0322 614.0322 614.3522 614.3522 614.3522
   614.7856 615.1364 615.1364 615.1364 615.5748 616.5454 616.5454 617.1905
   617.1905 617.1905 617.3842 617.3842 617.3842 617.4346 617.4346 617.4392
   617.4392 617.4392 617.8230 617.8230 617.8230 617.8696 617.8696 617.8696
   618.2319 618.2319 618.4037 618.4037 618.4037 618.6942 618.6942 618.6942
   618.7767 618.8337 618.8337 618.8471 618.8471 618.8471 618.8672 618.8672
   618.8672 619.5223 619.5223 619.6698 620.2477 620.3266 620.3266 620.3266
   620.4078 620.4078 620.4078 620.4629 620.4629 620.4629 621.9808 621.9808
   621.9808 624.6850 624.6850 639.4633 639.4633 639.4633 640.7850 641.4771
   641.4771 641.4771 641.6508 641.6508 641.6508 641.7227 641.7587 641.7587
   641.8977 641.8977 641.8977 641.9039 641.9039 641.9039 642.0574 642.0574
   642.0574 642.0833 642.0833 642.0833 642.4338 642.4338 642.8824 642.8824
   642.8824 643.6431 643.6431 643.6431 643.8217 643.8217 643.8217 643.9354
   646.0249 646.0249 647.7421 647.9327 647.9327 647.9327 648.0206 648.0206
   648.0206 648.0749 648.0749 648.0749 648.0773 648.0773 648.0773 648.1143
   648.1143 648.1540 648.1981 648.1981 648.1981 648.2037 648.2037 648.2037
   649.0048 649.0048 649.0048 649.8158 649.8158 650.3298 650.3298 650.3298
   650.4314 650.6538 650.6538 654.7291 654.7291 654.7291 656.7953 656.7953
   656.7953 657.7671 657.7671 658.0511 658.2739 658.2739 658.2739 658.3097
   658.3097 658.3097 658.4573 658.4573 658.4573 658.5889 660.5932 660.5932
   660.5932 664.2205 664.2205 664.3615 664.4540 664.4540 664.4540 664.7211
   664.7211 664.7501 664.7501 664.7501 664.9917 664.9917 664.9917 665.1637
   665.1637 665.1637 665.4561 665.4634 665.4634 665.4634 665.6927 665.6927
   666.4785 666.4785 666.4785 668.9646 669.1370 669.1370 669.1370 669.5172
   670.0054 670.0054 670.0054 670.1002 670.1002 670.2029 670.2029 670.2029
   670.4158 670.4338 670.4338 670.4338 670.5002 670.5002 670.5002 670.6437
   670.7874 670.7874 670.7874 670.8100 670.8100 670.8126 670.8126 670.8126
   671.5950 671.5950 671.5950 671.6078 671.6078 671.8198 671.8508 671.8508
   671.8508 672.1420 672.1420 672.1420 672.1480 672.1480 672.1480 672.1920
   672.1920 672.1920 672.5350 672.5350 672.5350 672.8071 676.4562 676.4562
   676.4562 677.4423 677.4423 708.3195 708.3825 708.8148 708.8148 708.8148
   708.8773 708.8773 708.8773 708.9194 708.9194 708.9311 708.9311 708.9311
   708.9394 708.9394 708.9394 709.6607 709.6607 709.6607 711.5381 711.5381
   711.5381 712.9053 712.9053 714.1190 714.1190 714.1190 715.5350 715.5350
   715.5350 715.7451 715.7451 715.7486 715.7822 715.7822 715.7822 715.8217
   715.8217 715.8217 715.8385 715.8385 715.8385 715.8699 715.8699 716.1427
   716.2342 716.2342 716.2342 716.3597 716.3919 716.3919 716.3919 716.6170
   717.2215 717.2215 717.2215 717.8175 717.8175 717.8175 717.9095 717.9641
   717.9641 717.9641 718.1016 718.1016 718.1016 718.1811 718.1811 718.1811
   718.6350 718.6350 718.7516 718.7516 718.7516 718.8849 719.5444 719.5444
   719.5444 719.5478 719.5478 719.5655 719.5655 719.6693 719.6693 719.6693
   719.7788 719.7788 719.7788 719.7869 719.7869 719.7869 723.8141 723.8141
   725.2261 725.2261 725.2261 725.2377 725.2377 725.2377 725.2456 725.2456
   725.2456 725.2771 725.2771 725.2771 725.2924 725.2924 725.3760 725.3760
   727.4141 727.4564 727.4564 727.4564 727.4984 727.4984 727.4984 727.5400
   728.7385 728.7385 728.7385 740.1018 740.1018 740.1018 742.0494 743.0958
   743.1710 743.1710 743.1710 743.2020 743.2020 743.8962 743.8962 743.9058
   743.9058 743.9058 743.9736 743.9736 743.9736 743.9848 743.9848 743.9848
   744.8736 745.0608 745.0608 745.0608 745.3126 745.3126 745.3126 749.7831
   749.7891 749.7891 749.7891 749.7956 749.7956 749.9920 749.9920 749.9920
   750.0039 750.0039 750.0039 750.0170 750.0170 750.0170 750.1245 750.1245
   750.1764 750.1764 750.1764 750.1978 750.2074 750.2074 750.2074 756.6500
   756.6500 756.6500 756.8780 757.0431 760.5151 760.5151 761.5134 761.5134
   761.5134 765.2987 765.2987 765.2987 765.3311 765.3311 765.3311 765.3377
   765.3377 765.3377 766.0669 766.0669 766.0669 767.6638 767.6638 767.6787
   767.6787 767.6787 767.6853 767.6853 767.6853 767.7201 767.7201 767.7201
   767.9809 767.9809 767.9809 768.5077 768.5077 773.9148 773.9149 773.9149
   773.9161 773.9161 773.9161 784.9708 785.0077 785.0077 785.0077 786.5438
   786.5438 786.5438 790.1563 790.1563 794.1759 794.1759 794.1759 799.6385
   799.6385 799.6385 803.2074 804.4033 804.4033 804.4033 804.9797 804.9797
   804.9797 805.2836 805.2836 806.1139 806.1139 806.1139 806.3415 806.9074
   806.9074 806.9074 807.0067 807.0067 807.0067 807.2131 807.2131 807.2131
   808.0156 808.0156 808.0156 809.6374 809.6374 809.7638 810.3657 810.3657
   810.3657 810.8289 810.8289 810.8289 810.9630 810.9630 810.9630 811.0736
   811.5783 811.5783 811.6578 811.6578 811.9160 811.9160 811.9160 812.1119
   812.1119 812.1119 812.1836 812.1836 812.1836 812.2157 812.2157 812.2157
   812.5109 812.5109 812.5924 812.5924 812.5924 812.6049 812.6326 813.1879
   813.1879 813.1879 813.8181 813.8181 813.9134 813.9134 813.9134 814.2046
   814.2046 814.2046 814.3318 814.3318 814.3318 814.5402 817.8992 817.8992
   817.9007 817.9024 817.9024 817.9024 818.3214 818.3214 818.3822 818.3822
   818.3822 819.4874 819.4874 819.4874 820.7150 821.2275 821.2275 821.2275
   821.3517 821.3517 821.3517 821.4141 821.4141 821.4141 821.4472 821.4472
   821.4472 821.6015 821.6015 821.6015 821.6039 821.9243 821.9243 821.9243
   821.9480 821.9734 821.9734 821.9734 821.9898 821.9898 821.9898 822.0044
   822.0044 822.2027 822.2027 822.2027 822.2057 822.2057 822.2057 822.2131
   822.2131 822.2131 822.2403 822.2403 822.6412 822.6412 822.7884 822.7884
   822.7884 822.9415 822.9415 822.9415 823.1161 823.1161 823.1161 823.2938
   823.3661 823.3661 823.3848 823.3848 823.3848 823.4198 825.1088 825.1088
   825.1088 825.1267 825.1267 825.1326 825.1326 825.1326 825.1411 825.1411
   825.1411 825.2552 830.1740 830.1740 830.1740 831.2024 831.2024 838.0990
   838.0990 838.0990 838.5059 838.5105 841.3181 841.3181 841.3181 843.1074
   843.1074 843.1074 843.3810 843.3810 843.3812 843.3812 843.3812 843.4068
   843.5185 843.5185 843.5185 843.5417 843.5417 843.5417 843.5420 843.5420
   843.5420 843.6096 848.4343 848.4343 848.9649 848.9649 848.9649 849.2511
   849.2511 849.2511 849.2601 849.2601 849.2601 849.2802 849.2802 849.2802
   849.2820 849.2820 850.0555 850.0555 850.0563 850.0563 850.0563 860.5860
   860.5934 860.5934 860.5975 860.5975 860.5975 860.6039 860.6039 860.6039
   860.6639 860.6639 860.6639 860.7712 860.7712 860.7712 860.8627 860.8627
   860.8627 860.8942 862.3591 862.3591 864.3872 864.3872 864.3872 864.4448
   864.4448 864.5429 864.5429 864.5429 864.6034 864.6034 864.6034 864.6671
   864.6671 864.6671 865.3162 865.3162 865.3162 865.3197 865.3197 865.3197
   865.3871 865.4280 865.4879 865.6636 865.6636 865.6636 865.9366 865.9366
   865.9366 866.4024 866.4403 866.4403 866.4482 866.4482 866.4482 866.7925
   866.7925 866.7925 866.9078 866.9078 866.9078 866.9919 866.9919 866.9919
   866.9966 866.9966 869.5227 869.5227 871.2821 871.2821 871.2821 872.2172
   872.2172 872.2172 872.4117 872.5717 872.5717 872.5717 872.5919 872.5919
   872.6364 872.6364 872.6364 872.7333 872.7333 872.7333 873.1631 873.2618
   873.2618 873.2618 873.8567 873.8567 874.0251 874.0251 874.0251 874.0324
   874.0324 874.0689 874.0689 874.0689 874.1395 874.1395 874.1395 874.2527
   874.3167 874.3167 874.3167 874.4431 874.4431 874.4431 874.4902 874.4902
   874.4902 874.5258 876.0622 876.0622 883.7241 883.7241 883.7241 884.1822
   884.1822 884.1822 884.2267 894.8327 894.8327 895.9817 895.9817 895.9817
   896.4518 896.5350 896.5350 896.5350 896.5478 896.5980 896.5980 896.5980
   896.6087 896.6087 896.6087 896.6425 896.6425 896.6425 896.6613 896.6613
   897.5748 897.5748 899.6577 899.6577 899.6577 907.4841 907.4841 907.4841
   907.8185 907.8185 907.8185 907.8322 907.8322 907.8322 907.8485 907.8485
   907.8485 907.8492 907.8615 907.8615 907.8615 907.8630 907.8630 908.0028
   911.0064 911.0064 911.0064 913.2217 913.2217 913.3519 913.3519 913.3519
   913.5522 913.6163 916.0509 916.0509 916.0509 916.2424 916.6859 916.6859
   916.6859 917.8996 917.8996 917.8996 917.9316 917.9316 917.9316 917.9363
   917.9363 917.9363 920.2073 920.2073 920.2073 920.9253 920.9253 920.9429
   920.9585 920.9585 920.9585 921.1036 921.1036 921.1036 921.1061 921.1061
   921.1061 921.1091 921.1091 921.1091 921.2082 921.2082 921.2143 921.2143
   921.2143 921.2209 923.0725 923.0725 923.0725 926.2626 926.2626 926.2741
   926.2741 926.2741 926.2762 928.3244 928.3244 941.3712 941.3712 941.3712
   941.3891 941.3891 941.3891 941.3920 941.3920 941.3920 941.3949 941.3949
   941.3949 941.3953 941.3953 941.4368 941.4795 941.5529 941.5529 941.5529
   946.1012 946.1012 947.2083 947.2083 947.2083 947.2144 947.2169 947.2169
   947.7126 947.7126 947.7126 947.9751 947.9751 947.9751 948.0108 948.0108
   948.0108 948.0142 948.0142 948.0142 948.3744 948.3744 948.3744 948.4610
   948.4610 948.4610 948.5593 948.7026 948.7026 948.7435 948.7435 948.7435
   948.8038 948.8038 948.8038 948.8444 948.8444 948.8444 948.8581 948.8700
   948.8700 948.8908 948.8908 948.8908 948.9213 948.9213 948.9213 948.9415
   951.2231 951.2231 951.2231 954.3005 954.3005 956.7732 956.7732 956.7732
   957.9406 958.0694 960.7311 960.7311 960.7311 960.9574 960.9574 960.9574
   961.0089 961.0089 961.0618 961.0618 961.0618 961.0744 961.0744 961.0744
   963.2638 963.2638 963.2638 963.3698 963.3698 963.3698 963.4289 963.5561
   963.6066 963.6066 964.1116 964.1116 964.1247 964.1247 964.1247 964.1325
   964.1325 964.1325 964.1525 964.1525 964.1525 964.1548 964.1548 964.1548
   967.9274 967.9274 967.9274 968.0939 968.0939 968.5677 968.5677 968.5827
   968.5827 968.5827 968.5912 968.5912 968.5912 968.5964 968.5964 968.5964
   968.9379 968.9652 968.9652 968.9652 968.9898 968.9898 968.9898 969.0118
   969.6366 969.6366 969.6366 969.6886 969.6886 969.7062 969.7062 969.7062
   969.7389 969.7389 969.7389 969.7718 969.7718 969.7718 969.7896 969.7896
   970.6878 970.6878 971.3245 971.3245 971.3245 971.6208 971.6580 971.6580
   971.6580 971.6949 971.6949 971.6949 971.7316 992.6196 992.6196 992.6196
   993.1393 993.5594 993.5594 993.5594 993.5917 993.5917 993.5917 993.6065
   993.6065 993.6065 993.9890 993.9890 994.0263 994.0263 994.0263 994.0319
   994.4772 994.4772 994.4772 995.9661 995.9661 998.7099 998.7099 998.7099
   998.7189 998.9849 998.9849 998.98491007.44291007.44291007.44291007.7653
  1007.76531012.98591012.98591012.98591013.63661013.70981017.17741017.1774
  1017.17741017.72561017.72561017.72561018.60311018.60311018.60311018.7426
  1018.82441018.82441018.82441018.84381018.84381018.85851018.97861018.9786
  1019.34981019.34981019.34981019.62071019.62071019.62071019.66731019.6768
  1019.67681019.67681019.68391019.68391019.69081019.69081019.69081019.7178
  1019.71781019.71781019.75341019.75341019.75341019.77991019.77991019.7799
  1020.60611020.60611020.60611020.87481021.55621021.63621021.63621021.6362
  1021.70981021.70981021.70981021.81291021.81291021.81291021.82781021.8278
  1024.01081024.01081024.46721024.46721024.46721024.71091024.71091024.7109
  1024.71811024.71811024.71841024.71841024.71841024.73931024.73931024.7393

          k = 0.5000-0.5000 0.5000 (  4446 PWs)   bands (ev):

   -28.6852  -9.5693  -8.5491  -8.5491   0.8953   7.9743   9.7892   9.7892
    17.6912  18.3704  18.3704  18.7533  22.1438  22.1438  25.8019  25.8019
    25.8792  31.9411  34.6826  34.9835  34.9835  39.2970  39.2970  40.0849
    43.5766  43.5766  46.6253  47.1719  47.1719  47.8695  51.1060  52.7275
    52.7275  55.6622  55.6622  55.7812  58.7831  59.2304  63.3024  63.3024
    65.0834  65.0834  66.8763  67.4795  68.8176  68.8176  69.5595  69.5595
    70.5256  70.5256  71.7784  74.2824  79.5564  83.4099  83.7663  83.7663
    85.0490  85.0490  86.1229  86.1229  86.4546  86.4546  87.2660  87.2660
    88.6271  88.7059  89.7120  89.7333  90.1652  90.1652  96.9235  97.6297
   100.5156 100.5156 101.7846 101.7846 102.2547 102.2547 103.1965 103.6501
   104.2444 104.2444 105.9158 105.9158 110.7058 113.1269 113.1269 113.2312
   113.7512 114.5857 114.5857 115.8776 115.8776 116.6298 118.4585 118.8342
   118.8342 120.4387 123.9809 123.9809 125.1977 126.0867 127.8006 127.8006
   128.2856 128.2856 128.5334 129.4966 132.2846 132.2846 134.4076 134.4076
   134.5015 135.2112 137.2399 137.2399 137.3248 138.4378 138.4378 139.1290
   140.9899 140.9899 142.5495 142.5495 143.8284 145.1368 145.1368 146.8180
   146.8446 148.4584 149.3748 149.3748 151.9338 151.9338 152.7099 152.7099
   153.0104 153.7339 155.3530 156.3056 156.3056 157.0961 157.5625 157.5625
   157.6818 161.2045 161.2045 161.7028 161.7028 163.9346 164.2164 164.2288
   164.6742 164.6742 165.3797 165.3797 168.8839 168.8839 172.7309 173.1233
   173.1233 173.7868 173.7868 173.8010 176.5045 176.5045 176.7147 177.2762
   177.3665 177.3665 178.2271 178.2271 179.4177 183.1167 183.5187 183.5187
   186.1154 186.5011 187.1598 187.1598 187.5216 187.5216 189.8579 190.5450
   192.8009 192.8009 193.6663 194.8675 196.0643 196.0643 197.1279 197.1279
   198.0171 198.0171 198.6049 199.6951 199.8808 199.8808 200.0185 200.0185
   200.3974 200.4211 200.5348 200.5348 200.9718 201.7074 201.7074 201.8162
   201.8162 205.2748 207.1202 207.6620 207.6620 211.1753 211.1753 212.4513
   212.4912 213.5406 213.5517 213.6816 213.6816 214.6925 214.6925 215.3376
   215.3376 215.5432 215.5432 216.3974 216.3974 216.6742 220.5231 220.5231
   221.1904 221.7741 222.5597 222.9895 225.2148 225.2148 225.7377 225.7377
   226.2331 226.8767 228.4693 228.4693 230.4208 232.7445 233.0294 233.0294
   235.0425 235.6760 235.6760 235.8094 236.2142 236.2256 236.2256 237.0441
   237.0441 238.4995 238.9148 238.9148 238.9406 238.9406 240.3650 240.3650
   241.8611 241.9342 241.9342 242.2275 242.2275 242.2725 242.3813 243.4363
   245.3626 245.3626 245.4078 250.8092 250.8092 254.0378 256.2572 256.2572
   257.3603 257.7078 257.7078 260.3036 260.6079 260.6079 260.8344 260.9359
   260.9359 261.0011 261.0011 261.3975 261.4568 261.8268 261.8286 262.3454
   262.3454 262.9343 262.9343 263.5129 263.5129 266.3113 269.2618 269.2618
   269.9438 271.3023 272.1035 272.1035 272.2209 272.6141 272.6141 273.3117
   273.3117 273.4181 273.8577 273.8577 273.9343 273.9484 273.9484 274.6501
   274.7453 274.9694 274.9694 275.5397 275.5397 276.9669 277.7566 278.1535
   278.1535 278.1566 278.1566 280.2141 280.2148 284.9502 289.2892 289.2892
   289.3177 289.3177 289.3768 289.5676 289.5678 289.5678 290.3801 290.3801
   292.4511 293.3824 293.3824 294.7155 294.7155 294.7311 295.1733 295.1733
   296.3902 296.4293 296.4876 296.4876 296.8094 296.8094 298.4785 298.8133
   298.8133 298.9643 298.9658 298.9658 299.0919 299.2229 300.7268 300.7268
   301.5906 301.5906 301.9204 301.9987 301.9987 302.6570 305.6507 305.6507
   312.2983 312.3737 312.3737 312.7119 313.6790 313.7791 313.7791 313.8784
   313.8784 314.3097 314.3097 314.3315 314.3315 314.5082 314.5361 317.1728
   321.7353 321.7353 321.7739 321.9716 322.3867 322.3867 322.6282 322.6282
   323.0441 323.8445 323.8445 325.6838 326.3604 327.2484 327.3218 327.3218
   327.3613 327.3613 327.4271 329.2483 329.4402 329.4402 331.8048 332.3861
   332.4369 332.4369 332.8642 334.2745 334.2745 334.2746 334.2746 334.6147
   334.6147 335.9704 336.2528 336.2528 336.5138 336.5138 336.8687 336.8687
   336.9137 337.2446 337.7017 342.0701 342.0701 342.0963 342.0963 343.7362
   344.0817 344.0817 344.5165 344.5165 344.8107 347.9056 350.0640 350.3459
   350.3459 350.3625 350.3625 350.5163 350.8349 350.8349 350.8842 350.8842
   350.9865 354.5416 355.7443 355.7876 355.7876 355.9570 355.9570 356.0140
   357.3821 359.6137 359.6137 359.6986 359.6986 361.1222 361.1222 361.1855
   361.5464 361.5464 362.1374 362.1745 363.9345 364.0632 364.0632 364.4336
   364.6284 364.6284 368.8978 372.4999 372.4999 372.8865 373.0629 373.0629
   373.3805 373.3805 373.4692 373.4761 373.5123 373.6447 373.7303 373.7303
   374.6432 374.6432 377.1216 377.1216 377.2404 377.3599 377.3854 377.3854
   377.7755 380.5318 380.5318 381.5589 381.5589 381.6984 382.1494 382.2094
   382.2094 383.7199 383.7199 383.8958 383.9891 384.3628 384.3628 386.3450
   386.4658 386.5666 386.5725 386.5725 386.7482 386.7482 386.9060 387.0027
   387.0027 387.0109 387.1299 387.1299 387.1361 388.0040 388.0040 388.0800
   388.0800 390.4175 390.4175 390.5188 390.5188 390.5225 390.6243 394.2627
   398.4726 398.5308 398.6370 398.6370 398.9611 398.9611 400.6964 400.8331
   400.8331 401.1327 401.1327 401.5929 401.5986 401.6759 401.6759 401.7286
   401.7286 402.8024 403.4566 403.4566 403.4668 403.4668 403.5154 403.5219
   410.8344 410.8344 410.8939 410.9359 411.0930 411.0930 411.5868 412.3390
   412.3390 413.2417 413.2417 414.2964 416.4939 417.2030 419.5883 419.5883
   419.6109 419.6109 420.5419 420.8139 420.8139 422.0620 422.0620 422.2309
   422.2309 422.2408 422.2476 422.2729 422.2729 422.6825 424.2697 424.2697
   425.3348 425.3348 425.6275 426.6567 427.4032 427.4032 427.4058 427.4058
   429.8344 429.8351 431.7507 432.4715 432.4715 434.2883 434.2883 434.7026
   435.3083 435.3083 435.6193 435.6976 436.2743 436.2886 436.2886 436.3739
   436.6712 436.6712 437.3170 437.3170 437.4076 437.4076 438.2002 439.4000
   439.4000 442.1023 442.1023 442.1092 442.1092 442.3391 442.3401 442.5188
   443.5735 444.5263 448.0934 448.0934 449.9987 450.1021 450.1021 453.0689
   453.0785 453.0785 453.0965 453.0965 456.5829 456.5829 456.6021 456.9355
   457.9925 457.9925 458.3647 458.5770 458.5770 458.8972 459.1203 459.1203
   459.8902 459.8902 460.1153 460.2289 460.2289 460.2474 460.5792 460.9375
   460.9375 461.1683 461.1683 461.3500 462.3077 462.4678 462.4678 462.7848
   462.8521 462.8521 462.8776 462.8776 463.1284 463.5483 463.5483 465.0489
   465.2379 465.2379 465.6943 465.7269 465.7269 466.4202 466.8444 466.9427
   466.9427 466.9832 466.9832 467.2487 469.1912 469.1912 470.0748 470.0748
   470.1451 472.6684 474.1909 474.1909 474.4576 474.5924 474.9907 474.9907
   477.3298 477.3807 477.3807 477.4084 477.4396 477.4396 479.6777 481.7140
   481.7140 482.5494 482.5494 483.5633 484.8094 484.8094 484.9361 484.9361
   485.0057 485.4510 485.8683 485.9304 485.9304 486.4480 486.7481 486.7481
   487.1174 487.1174 487.2001 487.2080 487.2597 487.2597 490.7385 490.8552
   490.8552 491.0476 491.0476 491.3710 491.4027 491.4027 491.8675 491.8675
   491.8682 492.7130 496.7022 497.8184 497.8184 497.8621 498.1143 498.1143
   498.2682 498.2682 498.4986 498.4986 499.2953 499.6392 501.5900 501.5995
   501.5995 501.9210 501.9795 501.9923 501.9967 501.9967 502.0713 502.0713
   502.6076 502.6076 503.4313 506.6151 508.3469 508.3469 508.4257 509.4108
   509.6358 509.6358 512.9807 512.9807 513.9631 514.9523 514.9628 514.9628
   514.9980 515.0584 515.0584 515.1282 515.1282 515.7654 515.7654 516.3473
   516.7716 516.7716 518.0932 518.0932 520.9060 520.9060 521.6306 522.2105
   522.2367 522.2564 522.2564 522.4419 522.9420 522.9420 522.9945 523.0171
   523.0171 523.4072 523.5810 524.3985 524.3985 525.6611 525.6611 525.7250
   525.7250 526.2895 528.2019 528.2277 528.2277 528.2398 528.4115 528.4115
   530.1395 532.0562 532.0562 532.7684 532.7684 533.7599 536.6556 536.6574
   536.7013 536.7013 536.7400 536.7400 536.9662 537.2473 537.2473 537.2968
   537.3904 537.3904 537.5264 537.9762 537.9762 538.0834 538.0834 539.2814
   542.2934 542.2934 542.2954 542.2954 542.2955 542.2991 546.2221 547.8513
   547.8513 548.1661 548.2159 548.2159 548.3512 548.3512 548.4807 548.4900
   548.6903 548.6903 549.0435 549.0435 549.0494 549.2213 549.2213 549.3019
   550.7685 551.0150 551.0150 551.5287 552.2035 552.2035 553.6289 553.6289
   553.6381 553.6391 553.8440 553.8440 559.3675 561.5473 562.2939 562.6996
   562.6996 562.8419 562.8445 562.9764 562.9764 563.1236 563.1236 563.1305
   563.4657 563.4657 563.4869 563.4869 564.2220 564.2228 564.2228 564.5405
   569.5731 569.5731 569.9490 570.2318 570.2318 570.5682 571.3530 571.4714
   571.4714 571.6632 571.6632 571.8032 571.8055 571.9101 572.1336 572.1336
   572.5483 572.5483 572.6121 572.6121 572.6819 572.9604 573.0674 573.0674
   573.1106 573.1106 573.7019 574.2615 575.3756 575.3780 575.5222 575.5222
   575.5524 575.5524 577.6621 577.6621 577.6892 577.7119 577.7119 577.7190
   578.1479 578.1479 578.3757 578.3757 578.4333 578.4574 578.5111 578.5111
   589.3638 589.6153 589.6153 589.7431 589.8591 589.8591 590.0823 590.0823
   590.1078 590.1078 590.5171 590.5631 590.5631 590.5727 590.5743 590.6705
   590.6705 590.6849 594.3567 594.4585 594.5967 594.5967 594.9441 594.9441
   596.5230 596.5230 596.6964 596.6964 596.7468 596.9849 597.1648 598.8639
   598.8639 599.7644 599.8025 599.9753 599.9753 600.0012 600.0012 600.3592
   600.8275 601.0199 601.0828 601.0828 601.1575 601.1575 602.0437 602.0437
   603.2392 603.2392 603.2703 603.6181 604.5664 605.6323 605.6323 606.7281
   606.7281 607.9578 607.9578 608.0490 611.2606 611.2606 611.2939 611.2939
   611.7111 611.9798 611.9798 613.2624 613.2940 613.2940 613.8546 613.8551
   614.0685 614.1442 614.3478 614.3478 614.5625 614.5913 614.5913 614.6631
   614.7625 614.7935 614.7935 614.8780 614.8882 614.8882 615.4899 615.4899
   615.8150 615.8150 618.8318 618.8318 618.8360 618.8360 620.4691 620.4691
   623.2229 623.2464 623.2464 623.3643 623.6268 623.6268 628.0347 628.1677
   628.1677 628.6991 629.0050 629.0050 629.5070 629.5070 631.6998 632.0440
   632.0604 632.0604 632.7846 633.9086 633.9086 634.7054 634.9642 634.9642
   634.9934 634.9934 635.0013 635.0294 635.6554 635.6554 635.9040 635.9523
   635.9523 636.4311 636.9953 637.5027 637.5219 637.5219 637.5732 637.5732
   637.9187 637.9187 638.4254 638.6432 638.6432 639.1378 641.6257 641.6257
   643.0233 644.5508 647.1251 647.2147 647.2147 647.5157 647.5157 647.7956
   648.1924 648.2777 648.5299 648.5299 648.6727 648.6727 648.7220 648.7812
   648.8272 648.8272 648.9081 649.2413 649.2413 649.3308 649.3308 649.5950
   650.1312 650.1312 650.5252 651.4200 651.4200 652.9341 652.9341 653.3751
   653.3751 653.7175 653.7175 653.7535 653.9269 654.0079 654.0079 654.2510
   654.2510 654.3395 654.6018 654.6018 654.8040 654.8878 654.8878 654.9364
   655.1247 655.1248 655.1438 655.1438 655.3317 655.3317 659.4785 660.3177
   660.3177 660.5352 661.8132 661.8132 665.8732 665.8821 665.8821 665.8937
   665.8947 665.8947 670.7243 672.6291 672.6291 674.0117 674.0117 674.6737
   674.6741 674.6741 674.7002 674.7065 674.9427 675.0544 675.2866 675.2866
   675.3767 675.3767 675.8832 675.8832 675.9004 675.9045 675.9045 675.9642
   676.1216 676.1274 676.1274 676.2313 677.1066 677.1066 680.1613 680.1613
   684.0922 684.0922 684.4431 684.4431 684.4571 684.5741 684.7220 684.9463
   684.9463 684.9524 686.8259 686.8259 688.1779 688.1779 688.2797 688.5663
   688.5795 688.5795 688.5995 688.7215 688.7215 688.7511 689.2692 689.2692
   690.4370 692.5501 692.5501 692.6952 695.8103 695.8103 698.0303 698.1947
   698.1947 698.2175 698.3094 698.3094 698.7371 698.7371 699.3642 700.7294
   700.7355 700.7518 700.7518 700.9180 701.2484 701.2484 701.8559 701.8559
   702.8518 702.8518 702.9075 702.9218 702.9218 702.9500 702.9766 703.0035
   703.0035 703.0215 703.3477 703.3477 704.0485 707.4535 707.4535 707.9608
   708.2896 708.4086 708.4086 708.8712 708.8712 709.0532 709.7432 709.7432
   711.1578 711.1776 711.2402 711.2402 712.1239 712.1244 712.1353 712.1745
   712.1745 712.3646 712.3646 712.8730 712.8730 713.5129 713.5129 714.0796
   714.0796 714.1917 714.5900 714.7000 714.7000 715.3323 715.3985 715.4151
   715.4151 715.4341 715.5383 715.5383 715.6887 715.6887 715.7081 715.7081
   715.7446 716.6464 717.4932 717.4932 718.6807 719.0375 720.2810 720.2810
   720.8125 721.3520 721.3520 722.2950 723.4433 723.4433 723.4453 724.4818
   724.5642 724.5642 724.6321 725.2347 725.2347 725.3631 725.3700 725.4579
   725.4579 726.8386 726.8386 727.8181 727.8646 727.8646 728.7420 728.7420
   728.9887 728.9887 729.1701 729.1701 729.2002 729.2003 729.5657 729.5665
   729.5678 729.5678 729.6885 729.6885 730.1724 730.1724 735.2712 735.2712
   735.4205 735.4890 735.4890 736.2608 737.8277 738.7324 738.7324 738.8259
   739.2539 739.2539 739.6783 739.7760 739.7760 739.8456 740.1558 740.1643
   740.2583 740.2583 740.6785 740.6785 740.9737 740.9875 740.9875 741.0142
   741.3838 741.3838 742.0807 742.0807 745.9624 746.5921 746.5921 746.8474
   746.8477 747.0885 747.0885 747.0924 747.0924 747.7801 747.7801 747.7827
   747.7884 747.7884 748.0103 750.9869 750.9869 752.6949 753.1181 753.1181
   753.1759 753.1760 753.2473 753.2473 758.4388 758.4388 758.4589 758.4980
   758.7335 758.7335 758.7703 759.3001 759.3001 759.3234 759.4868 759.6522
   759.6522 760.3690 760.3690 760.5223 760.5223 760.5237 760.5237 760.9901
   762.3388 762.3388 763.7286 763.7595 763.7595 763.8950 764.3072 764.3072
   765.0542 765.0542 765.2964 765.3358 765.3358 765.7172 765.8683 765.8683
   765.8790 765.8790 765.9604 765.9714 766.0323 766.0323 766.1296 766.1296
   766.2398 766.3555 766.3555 766.3630 766.3689 766.5859 766.5859 766.9212
   769.9848 769.9848 775.2578 775.3294 775.3294 775.3815 775.6358 775.6358
   776.2455 776.2455 776.3149 776.4782 776.4782 777.0188 780.4710 780.4834
   780.4834 780.4850 780.5209 780.5209 783.2246 783.3479 783.3479 783.5909
   785.4587 785.4587 785.4916 786.0906 786.1030 786.1030 786.1654 786.1909
   786.8878 786.9876 786.9876 787.3095 787.3095 789.7757 790.3938 790.3938
   790.4325 790.4325 790.4673 792.3079 792.3079 793.0268 793.8548 793.8548
   793.8931 793.8931 793.8932 793.8969 795.1811 795.4330 795.4330 797.0183
   797.0183 798.4712 800.2347 800.2924 800.2924 800.3985 800.3985 800.4659
   800.7212 800.7307 801.0763 801.0763 801.8252 801.8361 801.8361 801.8767
   802.0455 802.0455 803.8175 803.8175 803.8289 803.8346 803.8392 803.8392
   805.0968 805.0968 808.6755 809.1895 809.1895 809.6777 809.6777 809.8697
   809.8697 809.8877 809.8930 809.9417 810.0094 810.0094 810.5082 810.7034
   811.1155 811.1155 811.3909 811.7568 811.7568 811.8044 811.8044 811.9131
   812.2236 812.2236 812.4034 813.3089 814.4427 814.4427 816.1811 816.3964
   816.3964 816.6766 818.0908 818.0908 819.6154 819.6154 820.1238 820.1702
   820.1702 820.3351 820.7493 820.7493 820.8669 820.8669 821.4632 824.2303
   824.9315 824.9315 824.9680 824.9680 825.1072 825.7691 825.7691 825.8956
   826.0215 826.0526 826.0526 826.0694 826.7132 826.7132 826.7538 827.0602
   827.0602 827.6781 827.6781 827.7323 827.7323 827.8030 827.8066 828.2271
   828.2271 828.2982 828.3019 828.3019 828.4162 828.6625 828.6625 828.6836
   828.6861 828.8894 831.4463 831.4463 832.2135 832.3095 832.3095 834.4674
   835.5482 835.5482 835.6787 835.6787 835.6884 835.7029 835.7029 835.7134
   835.9306 835.9306 836.3531 836.4038 836.4109 836.4109 836.7247 836.9002
   836.9002 837.5969 837.5969 838.0494 838.3575 838.3575 838.5801 838.6586
   838.6586 838.6651 838.6712 838.7431 838.7431 841.9119 841.9119 841.9952
   842.1196 842.1280 842.1280 842.1346 842.1346 842.2192 842.2192 842.2932
   842.2932 842.5922 842.5922 842.8940 842.8943 842.8943 842.8986 844.6633
   844.6633 844.9681 845.6585 845.6585 848.6842 848.6842 848.7073 850.4267
   850.4267 850.7676 853.6407 853.6491 853.6491 853.7397 853.7397 854.5184
   854.7574 854.7574 854.7750 854.7751 854.8398 854.8398 857.9502 858.0731
   858.0731 858.2902 861.2150 861.2150 862.4993 862.5750 862.5750 862.5763
   862.6475 862.6475 862.9662 863.2105 863.2105 863.4957 863.5083 863.5083
   863.5452 863.5857 863.5857 865.4233 866.1091 866.1091 871.0695 871.0695
   872.0853 872.0853 872.0983 872.1065 872.3366 872.5235 872.5235 872.8887
   872.9331 872.9331 873.5755 873.5755 873.5961 873.6093 873.6257 873.6473
   873.9773 873.9773 874.0078 874.0078 874.3675 874.3675 874.4074 874.7064
   876.2924 876.2924 876.4604 876.4604 876.5824 876.6588 876.6588 876.6924
   876.7956 876.7956 876.8120 876.8120 876.8327 876.8403 877.6199 877.7229
   877.7229 877.7282 878.1212 878.1212 878.2383 878.2422 878.2445 878.2445
   879.2285 879.2285 880.7384 883.0408 885.5125 885.5125 888.0869 888.4673
   888.4673 888.5144 888.5144 888.6232 888.7514 888.7572 888.7626 888.7626
   889.0325 889.0325 889.5751 889.5751 889.6256 890.7730 890.9644 890.9707
   890.9707 891.0241 891.0241 891.0494 891.0776 891.0776 891.0861 891.4318
   891.4318 891.4861 891.4861 892.3790 892.3790 894.4761 895.3326 895.3326
   896.9203 896.9203 897.0155 897.6608 897.6608 897.8714 897.8714 898.0630
   898.1511 898.1556 898.2986 898.5236 898.5236 898.8695 898.8695 899.1066
   900.0672 900.0672 900.4157 900.4173 900.4243 900.4243 900.5273 900.6424
   900.6424 901.1547 901.1547 901.4048 901.6648 901.7098 901.7098 904.1106
   904.1106 904.1681 904.1681 904.1721 904.1767 905.8397 906.5630 906.5630
   908.3229 908.3229 908.3953 908.4957 908.5638 908.5638 912.7417 912.7417
   912.8141 912.8141 912.9374 912.9376 913.1605 913.2428 913.2428 913.2778
   913.2778 913.8448 913.8448 913.8750 914.3009 914.3009 914.3563 914.3579
   914.3579 914.4169 914.9528 914.9620 914.9733 914.9733 915.0068 915.0170
   915.0170 915.7129 917.6040 917.6040 918.4057 918.4057 918.4768 918.4768
   918.4796 918.4803 919.6021 919.6021 925.0287 925.0287 925.0875 925.8477
   925.8477 925.8771 926.2358 926.3296 926.3296 926.4654 926.4687 926.4701
   926.4701 926.5397 926.5397 927.9945 928.9073 928.9073 929.7469 929.7469
   929.8532 929.8533 930.0242 930.0242 934.2677 934.2677 934.4932 935.0815
   935.0815 936.9510 938.6511 938.6544 938.6544 938.6564 938.6625 938.7171
   938.7171 938.7331 938.7559 938.7559 938.9862 939.2716 939.2716 939.4036
   939.4036 939.7776 941.1012 941.1012 941.6973 941.6973 941.9230 941.9230
   941.9387 941.9956 943.3536 943.5810 943.5810 945.8814 945.8814 946.1298
   946.9298 946.9298 947.1904 947.1904 947.3468 947.4769 947.4906 947.5002
   947.5002 947.5043 947.6032 947.6032 947.6369 947.6684 947.6836 947.6836
   947.7786 947.8343 947.8343 947.9220 948.0585 948.0585 948.3695 948.3695
   948.4649 950.5096 950.5096 951.2673 951.2673 951.2956 951.3254 951.3254
   951.3323 951.6398 951.6853 951.6853 951.6978 952.8005 952.8005 953.8602
   953.8603 953.8613 953.8613 953.8641 953.8641 956.0941 956.3223 956.3223
   957.5141 957.5141 957.5165 957.5177 957.5177 957.5207 961.0906 961.8010
   961.8010 961.8135 962.0768 962.1207 962.1207 962.4368 964.0745 964.0745
   965.7777 965.7777 965.8823 965.9527 965.9629 965.9629 965.9984 965.9984
   966.1226 966.1226 966.1627 966.1648 966.2289 966.2532 966.2790 966.2790
   966.6158 966.6158 966.6914 966.6914 966.6958 966.6958 968.3786 969.6494
   969.6494 970.5695 972.9761 972.9761 976.1723 976.1723 976.3130 976.6725
   976.7764 976.7764 976.7814 977.0058 977.0058 977.9720 978.5130 978.5130
   979.2387 979.2387 980.5350 980.5350 983.6111 983.6111 984.1498 984.3870
   984.3870 985.2208 985.2819 985.2819 985.2937 985.7223 985.7223 985.8661
   986.4641 986.4641 986.7288 986.7421 986.7421 986.7452 986.7452 986.7566
   986.8057 986.8615 986.8615 986.9217 986.9217 988.0521 988.0521 989.1691
   989.1691 989.1691 989.1708 989.6438 989.6438 990.0311 990.0311 990.0926
   990.8538 991.0321 991.0321 991.3734 991.3734 991.5466 991.5706 991.5706
   991.5743 991.7545 991.9750 991.9750 992.6365 992.6519 992.6519 992.6542
   992.8185 992.8185 994.4298 994.4298 994.4403 994.4403 994.6629 994.6629
   998.4705 998.7506 998.7506 999.2111 999.2150 999.2150 999.2884 999.3373
   999.3572 999.3572 999.3626 999.4053 999.40531001.67611001.67611003.7456
  1004.11431004.11431004.11471004.11471004.11531006.73271007.18081007.1808
  1008.37911008.37911008.41411008.46691009.41021009.41021009.87011009.8701
  1009.87531009.87801010.16211010.16211010.21171012.19941012.19941012.9388
  1013.31221013.31221013.73291013.73291013.74471013.85441013.85901013.8731
  1013.87311014.08241014.08241014.12901014.25201014.25201014.45531014.7213
  1014.72131014.90441014.98411014.98411015.00681015.77561017.75421017.7542
  1018.02261018.02261024.41931024.41931024.47431024.48601024.48601024.4898
  1025.14421025.25111025.26731025.26731025.38291025.38291025.39711025.4035

          k = 0.0000-1.0000 0.0000 (  4456 PWs)   bands (ev):

   -28.6482  -9.2991  -8.7865  -8.7865  -0.4124  10.5116  11.6340  11.6340
    12.2285  18.8603  19.2130  19.8992  19.8992  22.2720  23.4390  28.4651
    28.4651  31.6675  32.2507  35.8458  35.8458  38.9896  41.6342  42.1700
    42.7434  42.7434  42.9488  43.9363  43.9363  46.3014  52.9586  52.9586
    53.0842  54.6445  54.9032  55.8105  60.0169  60.3699  60.3699  63.4250
    65.3042  65.3042  66.8952  69.5095  69.5095  70.4280  70.4941  72.5799
    74.5230  74.5649  74.5649  78.3662  78.3662  80.4011  81.4703  83.4724
    83.4988  84.4273  84.4273  84.5074  85.7672  86.6494  86.6494  88.3784
    88.3784  88.7148  88.9913  89.2510  91.5925  98.1002  98.2233  99.5834
    99.5834  99.8907  99.8907 100.0951 101.2036 101.6016 102.9036 102.9036
   104.4950 104.4950 105.0001 106.0936 106.2470 107.9768 107.9768 109.0496
   109.0496 111.3184 115.1950 115.8089 115.8155 115.8155 117.2250 121.9281
   123.3979 123.3979 123.5330 124.2821 124.2821 124.5535 124.5770 124.7612
   128.5726 130.8238 131.0082 131.0082 131.6252 131.6252 131.8318 132.3893
   134.3072 134.3072 134.9639 136.6110 139.2445 139.7889 139.7889 139.8580
   140.3820 140.3820 141.3514 143.9724 144.4821 145.2602 145.2602 145.7197
   147.6343 151.1152 152.0054 152.0054 152.9931 152.9931 156.5334 156.5595
   156.6353 157.2047 157.2563 160.5711 160.6896 160.6896 160.7515 161.4475
   161.4475 161.9805 161.9805 163.1773 163.8217 163.9983 167.3662 169.2707
   169.2707 170.2951 170.2951 170.5291 171.1265 172.0069 172.0069 172.5553
   173.2077 173.4287 174.7754 174.7754 175.7145 175.7145 176.0862 177.5920
   177.7418 177.9238 177.9481 177.9481 179.3550 179.3557 179.3557 179.5493
   179.9694 179.9694 180.4081 181.7977 181.9310 183.5930 184.6293 186.8918
   186.8918 187.6502 187.9592 188.2013 188.2013 188.5858 189.1453 190.9638
   191.2290 191.2290 196.2854 196.2854 199.3579 199.3766 200.1268 200.1268
   200.4944 201.2494 201.2494 202.1581 204.0440 204.6647 204.7291 204.7291
   204.8509 205.7069 206.5076 206.5852 207.3388 207.3388 207.4658 207.6793
   207.6793 207.7025 207.9292 207.9292 208.3628 209.9454 210.5478 211.4981
   212.7177 213.7625 213.7625 221.9405 227.6560 227.6560 228.3703 228.6052
   228.6440 229.5744 229.5744 229.6747 229.6957 230.9200 230.9200 231.6124
   232.0860 232.0860 232.1867 232.1867 233.4058 233.6684 233.6810 233.6810
   233.6967 233.9073 233.9434 233.9434 239.3030 239.4593 239.5216 239.5216
   239.7723 240.8353 240.8488 240.9149 240.9149 242.3576 242.9620 243.4525
   243.4525 244.7290 245.1960 245.1960 246.8188 247.1690 248.3982 249.0736
   249.0736 249.1827 250.1007 250.1007 250.3325 252.3529 252.5527 253.9762
   253.9762 254.1432 254.2053 254.3071 254.3071 255.9087 256.0486 256.0486
   256.1902 256.6512 256.8835 256.8835 257.0010 260.2322 260.6412 260.7094
   261.0451 261.0451 261.0519 261.0519 261.2417 261.3543 267.1634 269.8769
   269.8769 270.5865 271.5142 271.5142 271.9243 271.9243 272.0715 272.0851
   272.8758 272.8758 273.4960 273.5147 274.6526 276.2014 276.5949 276.5949
   276.7111 276.7322 276.7322 277.1079 277.1600 278.4879 278.5385 279.4160
   279.6369 279.6369 279.7633 279.7633 282.1039 282.1204 285.6829 285.6875
   287.1218 287.1218 287.6618 289.0617 289.0617 289.0898 289.0898 289.5401
   290.4802 290.6870 290.7043 294.8984 295.5291 297.2941 297.2941 297.6722
   298.0053 298.3244 298.3244 299.2767 299.5519 300.0356 300.0356 300.0475
   300.1685 300.1685 300.4628 300.5097 300.7244 300.8638 300.8638 301.1823
   301.5565 301.5565 302.9033 304.0322 304.5368 304.5368 304.5437 310.7087
   310.8277 310.8277 310.9428 310.9586 311.1197 311.1197 311.1295 311.1295
   311.2372 311.2948 311.4235 311.7369 315.8802 315.8802 317.3618 319.0842
   319.3712 322.2668 322.2668 322.4985 322.5104 322.5104 322.5360 322.5360
   322.6730 323.3714 324.3592 324.7045 324.7045 324.8252 325.2101 325.2907
   325.4301 325.4301 327.0594 327.0594 328.3847 330.4595 330.5133 330.5367
   331.1555 331.1992 331.2280 331.5495 331.5495 331.7732 331.7732 332.3749
   332.7158 332.7158 332.9639 332.9727 332.9727 332.9796 333.3429 335.9051
   335.9881 336.0647 336.0647 336.6855 337.2687 337.3735 337.3735 337.5128
   338.0934 338.1194 338.1194 338.1212 344.8402 346.7597 346.7597 349.0039
   349.2050 349.2943 349.2943 352.5043 352.5056 352.5184 352.9671 352.9671
   352.9794 352.9794 353.1484 353.6221 354.4667 354.4667 355.4827 355.4827
   355.4899 355.7022 355.7045 358.0622 362.6486 363.3370 363.3370 363.7096
   363.8010 364.2029 364.8047 364.8047 367.9408 368.1691 368.1691 371.6261
   371.9842 371.9842 372.5395 372.8254 373.0883 374.0972 374.0972 375.7278
   375.8277 375.8277 375.9252 376.5476 376.7650 376.9971 376.9971 378.5885
   378.5885 378.7034 378.8176 381.4534 381.7097 381.7097 382.6780 382.9098
   383.0056 383.0056 383.7829 383.9216 383.9216 384.3637 384.4453 384.5542
   384.5542 384.5824 384.5959 384.6598 384.8778 384.8778 384.9289 385.6787
   386.0004 386.1161 386.1405 386.1405 386.2138 386.2352 386.2352 386.2443
   386.5217 393.0813 393.7772 396.0051 396.0051 397.4107 397.4107 397.8849
   397.9764 399.1135 399.3872 399.3872 399.4462 399.6475 400.2565 400.2565
   400.3460 400.5003 400.6736 400.6736 400.7981 400.8119 400.8119 400.8196
   400.8339 402.2521 403.4740 403.4740 404.2308 404.7750 404.7750 404.8032
   404.8301 404.9006 405.0569 405.0569 405.2348 405.4805 405.4906 405.4906
   405.8761 406.1552 406.3825 406.6806 406.6806 408.1652 408.1652 408.2982
   408.2982 412.3421 413.8232 413.8258 413.8258 413.8581 413.8592 413.8963
   413.8963 413.9007 416.2029 416.2063 418.0295 418.0295 418.5128 419.0766
   420.7433 420.7433 421.3445 421.6306 422.0014 422.0014 422.5878 422.9363
   422.9398 422.9398 423.8727 424.2659 427.1495 428.4363 428.4590 428.7691
   428.7691 428.8852 428.8852 429.0358 429.1382 429.7814 429.7814 430.8422
   430.8422 431.0275 431.0743 431.0946 431.1964 431.6428 431.6428 431.9931
   432.0010 432.0467 432.0467 434.2692 435.1578 435.1578 436.2310 436.2833
   436.2833 436.2941 436.4133 436.4133 436.5215 436.5384 436.7428 439.3117
   444.5824 445.7077 445.7077 448.9480 448.9838 449.0469 449.3482 449.3482
   449.7035 449.7035 450.0572 450.3559 450.3559 450.8895 450.8895 451.8500
   454.4032 454.4615 454.5160 454.5356 454.6637 455.2699 455.2699 455.3093
   455.3142 455.3142 456.2483 456.4227 456.4227 456.5917 456.5930 456.7529
   457.0548 457.0548 457.1420 457.4100 457.6894 457.6894 457.8436 458.3306
   458.4362 458.4362 458.5453 458.9915 460.5608 460.5652 464.1239 464.1239
   464.1469 464.1469 465.9323 465.9335 468.2085 468.2085 468.4280 470.9629
   472.5071 472.5071 472.7983 474.3937 476.0303 476.0303 476.0530 476.3927
   476.6420 476.6420 476.7949 476.7949 476.9617 477.1787 477.1994 477.6492
   477.8014 477.8014 477.8197 479.0527 479.1965 479.4623 479.4623 479.6249
   480.0773 480.0773 480.0996 480.1023 480.1030 480.1060 480.1060 480.1687
   480.4020 480.4020 481.7470 482.9113 485.1232 485.1232 485.2546 485.2741
   485.3065 485.3065 485.3543 485.6486 485.7455 487.5418 487.5418 490.5546
   493.7650 493.7650 493.8643 495.8398 495.8398 495.8902 495.9715 496.1844
   497.4569 497.5236 499.3357 499.3357 499.3971 499.4123 499.9766 500.4224
   500.4224 501.7176 501.8404 502.0517 502.3232 502.3232 502.5372 502.5372
   503.0380 503.0840 506.1595 507.5781 507.6050 507.6050 507.6317 507.8537
   507.8578 507.8578 507.8837 508.3426 508.3426 508.9165 508.9335 508.9851
   508.9851 510.8446 511.5680 511.5680 511.5763 511.9281 512.9266 513.5717
   513.5717 514.0982 515.0569 516.8157 517.8177 519.2768 519.2768 521.4803
   521.4803 522.7001 522.7001 523.3429 523.8524 524.4131 525.1286 525.1286
   525.3459 525.3459 527.2459 528.9356 529.1771 529.5782 529.5782 529.7279
   529.7279 530.0600 530.4629 531.0376 531.2502 531.2502 531.3774 531.3875
   531.4023 531.9275 531.9823 532.6266 532.9375 532.9375 536.1325 536.1892
   536.4402 536.4402 536.6093 536.6093 536.7617 537.0320 537.6493 537.6493
   537.6951 538.1552 538.5561 538.5570 538.5668 538.5668 543.8363 544.2363
   544.2363 546.6650 547.1729 547.1729 547.8725 548.7353 549.0358 549.0358
   549.0386 549.0386 549.1015 549.2261 549.2676 549.2923 549.3852 549.5156
   549.5156 549.8755 549.8755 550.1417 550.1649 550.1649 550.2353 550.3476
   550.3766 550.3830 550.6569 550.8697 550.8697 550.9124 550.9124 551.1185
   551.1298 552.0364 552.4344 552.4708 552.6858 552.6905 553.0380 553.0868
   553.0868 553.1255 553.1255 553.8249 553.8249 554.1316 554.3601 554.3601
   554.6892 555.0532 555.0532 555.1733 555.1733 555.1896 555.1949 555.7466
   555.7474 555.7656 555.7656 556.2821 556.3037 556.4582 556.4582 556.5273
   557.5184 557.8879 557.8879 558.0289 558.1270 559.1515 561.4886 561.4916
   561.4916 561.5025 561.6112 561.6189 561.6189 561.6658 564.0567 564.0600
   564.2168 564.2168 564.3077 564.3077 564.3927 564.4044 575.5564 575.6164
   575.6164 575.6190 575.6362 575.6648 575.6648 576.3424 576.6192 576.7539
   576.8539 576.9130 576.9130 578.4709 578.8479 578.8479 580.6822 580.6822
   581.1478 582.7835 583.0843 583.1039 583.1039 583.1722 583.3524 583.3524
   583.7074 583.8884 583.8884 583.9528 584.2496 584.3411 584.3926 584.4216
   584.4241 584.4241 584.5271 584.5271 584.6038 584.6728 584.6728 584.6923
   584.7054 584.8321 585.0962 585.0962 585.1740 586.0004 595.3215 597.1726
   597.1726 597.7668 597.9859 597.9859 599.0494 599.0494 599.1494 599.2092
   599.3227 599.3227 599.4535 599.5355 599.7659 600.0767 600.5490 600.5490
   600.9395 601.4980 601.5206 601.5206 601.7472 602.5090 602.5482 602.5482
   603.1690 603.3992 603.5338 603.5680 603.5680 603.8416 605.4882 608.0966
   608.0966 608.2324 608.5318 608.5318 609.1087 610.0513 610.4771 610.4944
   610.6464 610.6464 610.8035 610.8157 611.0023 611.0023 613.9823 613.9823
   613.9885 614.0329 614.0401 614.0719 614.0719 614.1255 616.2546 616.2546
   616.4166 618.1096 619.9501 622.0172 622.1967 622.2012 622.2012 622.3950
   622.6553 622.6612 622.6612 623.8212 624.1820 624.1820 624.6719 625.0820
   625.4232 625.5663 625.9189 626.1735 626.1735 626.2458 626.2458 626.4103
   626.6990 627.2123 627.2123 629.4473 629.4650 629.4650 629.5431 629.5487
   629.8038 629.8038 630.0725 630.1088 630.6075 630.6553 630.9632 630.9632
   631.1302 631.1435 631.2861 631.2861 631.3629 631.3629 631.4036 631.4166
   633.3138 633.3138 633.7415 633.7415 633.8290 633.8466 633.8466 633.8677
   634.1444 634.1444 635.3792 635.5589 636.7404 636.7892 636.8789 636.8789
   642.2209 642.2214 643.8757 643.8757 643.8944 645.3313 646.9218 646.9218
   649.0604 649.2038 649.3719 649.3731 649.4372 649.4372 649.4781 649.5911
   649.6163 649.6163 649.6417 650.1598 650.1598 650.6676 652.5646 652.7993
   653.0653 653.0653 653.6870 653.6870 654.8822 654.9109 654.9109 656.7911
   656.8498 657.0093 657.0446 657.0446 657.6162 657.6220 657.6220 657.6282
   657.8805 658.1444 659.1535 659.1535 659.1878 659.2470 659.2913 659.2913
   659.3345 659.5371 659.6381 659.6381 659.7706 659.7706 659.7748 660.0134
   660.1519 661.5821 670.3014 672.6366 672.6366 672.9094 673.0208 673.0713
   673.2277 673.2277 673.7633 673.7633 674.5351 674.6136 674.6825 674.7285
   674.7285 675.2267 675.2267 675.9075 675.9075 676.0886 676.7462 677.2959
   677.6321 677.6329 677.6329 677.6608 677.6608 677.6882 677.7313 678.0527
   678.5071 678.5120 678.5120 679.2512 679.8258 680.1262 680.1262 680.1818
   680.4754 683.3974 684.6533 684.6766 684.6809 684.6809 684.9082 684.9082
   685.8970 685.9446 685.9523 685.9614 685.9666 685.9666 686.0187 686.0274
   686.0274 686.0277 686.3600 686.4255 686.4756 686.4756 686.4842 686.5303
   686.5499 686.5499 686.5692 688.5881 689.3063 689.4812 689.4812 689.7438
   689.7438 689.8998 689.8998 690.5441 691.4729 691.6576 691.6582 695.0213
   696.8382 696.8382 699.2660 699.5958 699.5958 699.6163 700.2111 701.0464
   701.0464 701.3791 701.4682 701.9258 701.9970 701.9970 702.1648 702.1648
   702.2331 702.2409 702.6233 702.6233 702.9695 703.7357 703.8373 704.1660
   704.1660 704.5029 704.5259 704.5829 704.5829 704.8509 706.3772 707.1686
   707.1686 707.3703 708.6037 708.6037 708.6972 708.8401 708.8769 709.0080
   709.0413 709.0413 709.3236 709.4156 709.4156 709.4300 709.9391 710.9045
   711.4870 711.4870 711.8966 711.8971 712.1279 712.1279 712.2921 712.9889
   713.0897 713.0897 719.3990 719.3990 720.3852 720.3852 720.3968 721.0375
   721.1631 721.2293 722.3638 722.3638 722.8277 722.9836 722.9836 723.0462
   723.3134 724.8600 725.0790 725.5992 725.6379 725.6379 725.8804 726.2441
   726.2441 726.3008 726.3368 726.3368 726.3775 726.3879 728.5282 728.7143
   729.9397 729.9397 730.1411 730.3144 730.3144 730.5184 730.5293 731.0082
   731.0082 731.0313 732.9969 733.0736 733.1002 733.1002 733.1061 733.1129
   733.1725 733.1725 733.2544 733.5432 733.5432 733.5595 733.6327 734.7342
   736.0612 736.0612 739.5759 739.5759 739.6518 739.7359 739.7428 739.7531
   739.7531 739.7566 739.7829 740.1405 740.1405 740.6967 748.2344 749.5188
   749.5865 749.6928 749.6928 749.7103 750.3580 750.8020 750.8185 750.8991
   750.8991 751.0848 751.1675 751.1675 751.7553 751.7553 751.8027 751.8823
   751.9265 752.3781 752.3781 752.9345 752.9530 754.2323 754.2323 754.6355
   756.3767 756.3924 756.3924 756.4753 756.4784 756.4868 756.4868 756.4962
   756.5052 756.5661 756.5661 758.5027 759.0067 759.1407 759.1407 759.2180
   759.2180 759.6847 759.7046 759.7150 759.7292 759.9261 759.9261 759.9386
   759.9386 760.0205 760.0360 761.1399 761.5201 761.7350 762.3381 762.3381
   762.3534 763.3186 763.7659 763.7659 771.3794 771.6127 771.6127 772.3713
   772.6810 773.0976 773.4934 773.4934 773.6727 773.6727 773.6961 774.0267
   774.0267 774.0878 774.0878 774.2444 774.3377 774.4934 775.4498 775.4498
   775.6801 775.8762 776.0637 776.0637 776.1809 776.1842 776.3233 776.4743
   776.4743 776.5544 776.7805 776.8327 777.0488 777.1733 777.1733 777.1823
   777.1823 777.7463 777.8526 778.0055 778.0668 778.1216 778.1216 778.2589
   778.2589 778.4164 778.5735 779.1249 779.3789 779.3789 780.4223 780.4223
   780.7103 780.7187 780.7246 780.7443 780.7536 780.7536 781.0952 781.0952
   782.1369 782.1373 782.2165 782.9304 783.0322 783.0322 783.0452 783.0669
   783.1019 783.1208 783.1762 783.1762 783.4268 783.4268 783.4867 783.5152
   783.5167 786.6700 786.6700 788.4602 788.5306 788.5306 788.5468 789.0083
   789.0083 789.2853 789.3005 789.4703 789.4756 789.4765 789.4765 789.4783
   789.4783 789.5937 789.5986 791.4627 791.4627 793.3841 795.4997 798.4855
   800.7899 800.7899 801.4093 801.7890 801.9517 801.9598 801.9598 801.9654
   801.9751 801.9751 802.0980 802.1346 802.8062 802.8063 802.8817 802.9180
   803.4391 803.4391 803.6330 803.6330 803.9674 803.9674 804.0862 804.1754
   804.1754 804.1838 804.2476 804.2476 804.2583 804.2718 804.2758 804.4775
   804.7642 804.7680 804.7739 804.7739 804.8337 804.8753 804.9376 804.9376
   805.9100 805.9100 805.9243 805.9516 805.9516 806.5014 806.5014 807.0664
   807.2681 807.3956 807.3956 808.5568 808.5568 808.9135 808.9474 808.9474
   808.9734 811.5635 812.6235 815.9644 821.8768 822.0425 822.0425 822.4769
   822.9855 825.6632 825.6632 825.7808 828.7773 829.0690 829.1909 829.2334
   829.2334 829.2376 829.2376 829.2988 829.3030 829.3552 829.9071 829.9071
   830.5152 830.8413 830.8413 830.8597 831.6645 831.8298 831.8967 831.8967
   832.5362 832.5362 832.5933 832.6014 832.7751 832.8458 832.8551 832.8551
   833.0998 833.0998 833.3914 833.6387 833.6696 833.8227 833.8227 833.9741
   834.0237 834.2816 834.2816 834.6454 834.6674 834.7905 834.7905 836.2513
   836.3213 836.3213 836.3302 836.3371 836.3438 836.3438 836.3576 837.7680
   837.7680 837.8704 838.0808 838.1070 838.1115 838.1170 838.1170 838.1504
   839.2147 839.3157 839.3157 839.4879 843.9506 843.9506 845.9180 846.2534
   846.2534 846.3119 847.2732 848.0426 849.3406 849.3406 849.8863 849.9274
   850.0080 850.0080 851.4831 851.7221 851.7221 851.7516 851.8544 851.9353
   852.3560 852.3560 852.5555 852.5888 853.3275 853.3275 853.3662 853.4445
   853.4445 854.2416 855.4205 855.7261 855.7261 855.7582 855.7599 856.8262
   858.5758 858.5758 858.6233 858.6314 858.8677 858.8677 858.9179 858.9571
   859.2855 859.9055 859.9055 861.3617 861.5319 861.5348 861.5559 861.5559
   861.6014 861.9737 861.9737 862.1286 864.7036 864.7036 864.7064 864.7433
   864.7502 864.7934 864.7934 865.5272 874.7041 874.7309 874.8269 874.9064
   874.9064 874.9217 874.9217 874.9383 874.9409 874.9708 874.9807 875.1710
   875.2236 875.2236 875.4222 875.4222 875.4923 875.4923 875.8507 877.3956
   878.0165 878.6530 878.6530 881.4068 881.4071 881.5814 881.6167 881.6167
   881.7778 881.7778 881.8036 881.8295 882.6025 882.6025 884.1277 884.5590
   884.7375 884.8081 884.8996 884.8996 884.9339 884.9339 884.9436 884.9535
   884.9556 885.1049 885.1049 885.4550 885.5236 885.6743 885.6743 887.3668
   887.5182 888.3376 888.9353 889.3804 889.3804 889.9181 896.9772 897.7606
   898.7548 898.7548 900.6971 900.7262 900.8650 900.8650 901.3073 901.3527
   901.3527 901.4637 901.4637 901.4779 901.5015 903.3361 903.5672 903.5672
   903.8724 903.9348 904.3800 904.3800 904.5166 905.1347 905.2731 905.2731
   905.3235 905.3286 905.3402 905.5074 905.5074 905.8318 905.8318 906.5608
   906.5756 906.9758 906.9758 907.5536 907.5536 907.6060 907.6765 907.7342
   907.8249 908.2201 908.2201 908.8212 908.8884 908.8884 908.9699 909.0379
   909.0454 909.1610 909.3394 909.3394 909.4910 909.5250 909.5380 909.5380
   909.5784 909.5884 909.5884 909.7164 909.7164 910.8915 910.8915 911.5052
   912.5990 912.6138 912.6152 912.6152 912.6179 913.2093 913.2093 913.3517
   913.3757 913.3757 913.3823 913.4252 913.4328 913.4551 913.4551 913.4663
   915.0650 916.2176 918.1713 918.1721 919.8349 919.8349 919.8754 920.2700
   920.5704 921.2207 921.2207 921.8212 921.8839 923.0172 923.0172 923.3081
   923.3518 923.3518 923.4006 923.6242 923.7704 923.8178 923.8178 923.8875
   923.8875 924.6791 925.0513 925.6394 925.7478 925.7478 926.0644 926.8258
   926.8342 926.9259 926.9259 926.9284 927.0095 927.0095 927.1502 929.6793
   930.3371 930.3428 930.3428 930.4047 930.4208 930.5651 930.5667 930.5667
   930.6728 930.6728 930.9101 930.9260 931.3015 931.3015 931.3515 931.4858
   931.5454 931.7316 931.7316 932.0109 932.3132 932.3132 932.5849 932.6863
   932.6863 932.7357 932.7518 933.5130 933.5509 933.5509 933.5542 933.5583
   933.9912 934.7289 934.9708 934.9708 935.0365 935.0694 935.0762 935.0961
   935.0961 935.1028 935.7712 935.7712 935.9011 935.9094 935.9094 938.5234
   940.4984 940.5016 940.5480 940.5480 940.5507 940.5507 940.5776 940.5811
   940.5972 941.4541 941.5615 941.5615 948.0090 950.0893 950.3355 950.3355
   950.5657 950.5678 950.7618 950.7618 951.0365 951.0365 951.0843 951.2672
   951.3047 951.3047 951.4448 951.4664 951.4664 951.4723 951.4723 951.5213
   951.5441 951.6316 951.6813 951.6813 951.8180 952.1008 952.1008 952.1245
   952.1557 952.7147 952.7758 952.7775 952.7775 952.7864 952.9877 952.9877
   953.0988 953.0988 953.1208 953.1254 953.1472 954.3191 954.3702 954.4470
   954.4500 954.4749 954.4749 954.5171 954.5171 955.8176 955.8383 957.3941
   958.6647 958.6647 959.1643 959.8014 959.8274 959.8274 959.9006 960.1059
   960.3095 960.3095 960.3383 960.3447 960.3478 960.3478 960.3851 961.5587
   962.1373 962.1902 962.7754 962.9960 965.7594 965.7594 965.7742 965.7742
   966.0682 966.0682 967.6266 967.6270 974.5842 974.6328 974.7437 974.7514
   974.7514 975.8167 975.8167 976.4746 976.5917 976.5917 976.8617 976.9606
   977.6203 977.7432 977.7432 977.7560 977.7879 978.0281 978.0281 978.0729
   978.0760 978.5004 978.5004 978.6240 978.6613 978.6613 979.0840 979.1099
   980.4087 980.4087 980.9784 983.3346 983.3462 983.3565 983.4508 983.4508
   983.4994 983.4994 983.5304 983.7651 983.8113 983.8113 983.8113 983.8445
   986.2488 986.7312 988.6629 988.6629 990.1082 990.1082 990.1132 990.1413
   990.1430 990.1568 990.2293 990.2293 995.6493 995.6493 996.0097 996.0097
   996.0358 996.5928 996.7758 997.9722 998.2113 998.2113 999.7277 999.9529
   999.9562 999.9736 999.9736 999.97901000.01771000.05301000.11451000.1145
  1000.11901000.25571000.25571001.29191001.82601001.82601001.88811002.1651
  1002.16511002.24751002.24881002.53291002.53291002.54311002.54671002.5977
  1002.59771002.61451002.70721004.12091004.61531004.63821004.63821004.6548
  1004.69331004.69331004.79091004.80441005.07231005.07231005.19951005.3489
  1005.36061005.36061005.39471005.43211005.43211005.71251006.23361006.7415
  1006.87701006.87701007.09561007.24291007.44211008.89651008.89651008.9464
  1008.95721008.98141008.98671008.98671008.99381009.20271009.20271009.3541
  1009.48851009.48851009.49941009.51211009.68201009.68201009.86331010.0404
  1010.13241010.13461010.13461010.21651010.21651010.22881010.26911010.2937
  1010.29371010.29761010.32311012.60171014.64251015.20801015.74901015.7490

     the Fermi energy is    12.0626 ev
     (compare with:    12.1599 eV, computed in scf)

     Writing all to output data dir out/mp-2114.save/
 
     init_run     :      0.05s CPU      0.06s WALL (       1 calls)
     electrons    :   1617.71s CPU   1736.97s WALL (       1 calls)

     Called by init_run:
     wfcinit      :      0.00s CPU      0.00s WALL (       1 calls)
     potinit      :      0.01s CPU      0.02s WALL (       1 calls)
     hinit0       :      0.01s CPU      0.02s WALL (       1 calls)

     Called by electrons:
     c_bands      :   1617.70s CPU   1736.97s WALL (       1 calls)
     v_of_rho     :      0.01s CPU      0.01s WALL (       1 calls)

     Called by c_bands:
     init_us_2    :      0.00s CPU      0.00s WALL (       3 calls)
     init_us_2:cp :      0.00s CPU      0.00s WALL (       3 calls)
     paro_k       :   1565.36s CPU   1680.68s WALL (       3 calls)

     Called by paro_*:
     h_psi        :     13.03s CPU     13.38s WALL (     510 calls)
     g_psi        :      0.22s CPU      0.25s WALL (   53559 calls)

     Called by h_psi:
     h_psi:calbec :      0.23s CPU      0.24s WALL (     510 calls)
     vloc_psi     :     12.56s CPU     12.89s WALL (     510 calls)
     add_vuspsi   :      0.17s CPU      0.17s WALL (     510 calls)

     General routines
     calbec       :      0.23s CPU      0.24s WALL (     510 calls)
     fft          :      0.01s CPU      0.01s WALL (      10 calls)
     fftw         :     11.40s CPU     11.69s WALL (   87428 calls)
 
     Parallel routines
 
     PWSCF        :  26m58.41s CPU  28m58.00s WALL

 
   This run was terminated on:  10:36:34  18Dec2023            

=------------------------------------------------------------------------------=
   JOB DONE.
=------------------------------------------------------------------------------=
