
     Program PWSCF v.7.1 starts on  5Dec2023 at  1:10: 8 

     This program is part of the open-source Quantum ESPRESSO suite
     for quantum simulation of materials; please cite
         "P. Giannozzi et al., J. Phys.:Condens. Matter 21 395502 (2009);
         "P. Giannozzi et al., J. Phys.:Condens. Matter 29 465901 (2017);
         "P. Giannozzi et al., J. Chem. Phys. 152 154105 (2020);
          URL http://www.quantum-espresso.org", 
     in publications or presentations arising from this work. More details at
     http://www.quantum-espresso.org/quote

     Parallel version (MPI), running on    24 processors

     MPI processes distributed on     1 nodes
     122418 MiB available memory on the printing compute node when the environment starts
 
     Reading input from pw_mp-1960_nscf_k380_E153.in
Warning: card &IONS ignored
Warning: card / ignored
Warning: card &CELL ignored
Warning: card / ignored

     Current dimensions of program PWSCF are:
     Max number of different atomic species (ntypx) = 10
     Max number of k-points (npk) =  40000
     Max angular momentum in pseudopotentials (lmaxx) =  4

     Atomic positions and unit cell read from directory:
     out/mp-1960.save/
     Atomic positions from file used, from input discarded
 
 
     R & G space division:  proc/nbgrp/npool/nimage =      24
     Subspace diagonalization in iterative solution of the eigenvalue problem:
     one sub-group per band group will be used
     scalapack distributed-memory algorithm (size of sub-group:  4*  4 procs)

 
     Parallelization info
     --------------------
     sticks:   dense  smooth     PW     G-vecs:    dense   smooth      PW
     Min          68      68     19                 1816     1816     280
     Max          69      69     20                 1818     1818     282
     Sum        1639    1639    475                43599    43599    6735
 
     Using Slab Decomposition
 


     bravais-lattice index     =            2
     lattice parameter (alat)  =       8.7942  a.u.
     unit-cell volume          =     170.0334 (a.u.)^3
     number of atoms/cell      =            3
     number of atomic types    =            2
     number of electrons       =        12.00
     number of Kohn-Sham states=         1800
     kinetic-energy cutoff     =     153.0000  Ry
     charge density cutoff     =     612.0000  Ry
     Exchange-correlation= PBE
                           (   1   4   3   4   0   0   0)

     celldm(1)=   8.794234  celldm(2)=   0.000000  celldm(3)=   0.000000
     celldm(4)=   0.000000  celldm(5)=   0.000000  celldm(6)=   0.000000

     crystal axes: (cart. coord. in units of alat)
               a(1) = (  -0.500000   0.000000   0.500000 )  
               a(2) = (   0.000000   0.500000   0.500000 )  
               a(3) = (  -0.500000   0.500000   0.000000 )  

     reciprocal axes: (cart. coord. in units 2 pi/alat)
               b(1) = ( -1.000000 -1.000000  1.000000 )  
               b(2) = (  1.000000  1.000000  1.000000 )  
               b(3) = ( -1.000000  1.000000 -1.000000 )  


     PseudoPot. # 1 for Li read from file:
     /usr/scratch4/magr4985/MG/HTDF/pseudo/SG15/Li.upf
     MD5 check sum: c91dd4cee9943b136ac3b62641658f95
     Pseudo is Norm-conserving, Zval =  3.0
     Generated using ONCVPSP code by D. R. Hamann
     Using radial grid of  602 points,  4 beta functions with: 
                l(1) =   0
                l(2) =   0
                l(3) =   1
                l(4) =   1

     PseudoPot. # 2 for O  read from file:
     /usr/scratch4/magr4985/MG/HTDF/pseudo/SG15/O.upf
     MD5 check sum: e36c48deb68f4e355fffe4602be2c42c
     Pseudo is Norm-conserving, Zval =  6.0
     Generated using ONCVPSP code by D. R. Hamann
     Using radial grid of  602 points,  4 beta functions with: 
                l(1) =   0
                l(2) =   0
                l(3) =   1
                l(4) =   1

     atomic species   valence    mass     pseudopotential
        Li             3.00     6.94100     Li( 1.00)
        O              6.00    15.99940     O ( 1.00)

     48 Sym. Ops., with inversion, found



   Cartesian axes

     site n.     atom                  positions (alat units)
         1           Li  tau(   1) = (  -0.2500000   0.2500000   0.2500001  )
         2           Li  tau(   2) = (  -0.7500000   0.7500001   0.7500001  )
         3           O   tau(   3) = (   0.0000000   0.0000000   0.0000000  )

     number of k points=    16  Gaussian smearing, width (Ry)=  0.0005
                       cart. coord. in units 2pi/alat
        k(    1) = (   0.0000000   0.0000000   0.0000000), wk =   0.0092593
        k(    2) = (  -0.1666667   0.1666667  -0.1666667), wk =   0.0740741
        k(    3) = (  -0.3333333   0.3333333  -0.3333333), wk =   0.0740741
        k(    4) = (   0.5000000  -0.5000000   0.5000000), wk =   0.0370370
        k(    5) = (   0.0000000   0.3333333   0.0000000), wk =   0.0555556
        k(    6) = (  -0.1666667   0.5000000  -0.1666667), wk =   0.2222222
        k(    7) = (   0.6666667  -0.3333333   0.6666667), wk =   0.2222222
        k(    8) = (   0.5000000  -0.1666667   0.5000000), wk =   0.2222222
        k(    9) = (   0.3333333   0.0000000   0.3333333), wk =   0.1111111
        k(   10) = (   0.0000000   0.6666667   0.0000000), wk =   0.0555556
        k(   11) = (   0.8333333  -0.1666667   0.8333333), wk =   0.2222222
        k(   12) = (   0.6666667  -0.0000000   0.6666667), wk =   0.1111111
        k(   13) = (   0.0000000  -1.0000000   0.0000000), wk =   0.0277778
        k(   14) = (   0.6666667  -0.3333333   1.0000000), wk =   0.2222222
        k(   15) = (   0.5000000  -0.1666667   0.8333333), wk =   0.2222222
        k(   16) = (  -0.3333333  -1.0000000   0.0000000), wk =   0.1111111

     Dense  grid:    43599 G-vectors     FFT dimensions: (  50,  50,  50)

     Estimated max dynamical RAM per process >     194.12 MB

     Estimated total dynamical RAM >       4.55 GB

     The potential is recalculated from file :
     out/mp-1960.save/charge-density

     Starting wfcs are random

     Band Structure Calculation
     Davidson diagonalization with overlap

     ethr =  5.00E-06,  avg # of iterations =  7.3

     total cpu time spent up to now is     2685.2 secs

     End of band structure calculation

          k = 0.0000 0.0000 0.0000 (  5521 PWs)   bands (ev):

   -40.3156 -40.0091 -12.6778   2.6922   2.6922   2.6922   7.8051  14.5361
    14.5361  14.5361  21.4828  21.4828  21.4828  23.8469  23.8469  29.9713
    30.0661  30.0661  30.0661  34.2589  48.6306  48.6306  48.6306  50.7521
    50.7521  52.0875  52.0875  52.0875  53.9408  53.9408  53.9408  59.7590
    59.8468  59.8468  59.8468  68.8004  68.8004  69.1561  69.1561  70.3242
    70.3242  70.3242  71.1046  71.1046  71.1046  72.2025  73.0611  73.0611
    73.0611  73.0858  73.0858  73.0858  75.9199  75.9199  75.9199  77.2757
    77.2757  77.2757  77.9502  93.2262  93.9759  93.9759  93.9759 100.4921
   103.2431 103.2431 105.5780 105.5780 105.5780 113.3430 113.5318 113.5318
   113.5318 121.0381 121.0381 122.9626 122.9626 122.9626 123.4087 123.4087
   123.4088 124.8636 124.8636 124.8636 125.1359 126.5367 126.5367 126.8834
   126.8834 126.8834 127.5755 127.5755 127.5755 129.8589 129.8589 132.2573
   132.2573 132.2573 133.3555 133.3555 133.3555 133.6113 133.6113 133.6113
   134.7271 134.7271 134.7271 135.5834 135.5834 136.1043 136.1043 136.1043
   136.5263 141.3133 141.3133 141.3133 149.8670 151.6227 152.2513 152.2513
   152.2513 157.7422 157.7422 158.3898 160.2710 160.2710 160.2710 161.0698
   161.0698 161.0698 162.0157 162.0157 162.0157 162.2854 162.2854 162.2854
   162.8665 162.8665 171.5354 171.5354 171.5354 171.5952 171.5952 171.5952
   175.9698 175.9698 177.2796 177.2796 179.5720 179.5720 179.5720 179.7660
   179.7660 179.7660 180.2393 180.7740 182.1232 182.1232 182.1232 182.1726
   182.1726 182.1726 182.7702 182.7702 182.7702 182.8001 182.8001 182.8001
   184.4269 198.4290 201.5501 201.5501 201.5501 210.5214 211.9323 211.9323
   211.9323 213.1823 213.1823 213.4822 213.4822 213.4822 215.4297 215.4297
   215.4297 223.0446 223.0446 223.0446 228.3826 229.4776 229.4776 229.4776
   229.6674 229.6674 230.9403 230.9403 230.9403 232.3398 232.3398 232.4387
   232.4387 232.4387 232.8749 232.8749 232.8749 236.4368 236.4368 236.4368
   236.5290 237.3465 237.3465 237.3465 237.8218 237.8218 238.1897 238.1897
   238.2413 238.2413 238.2413 238.2650 238.2650 238.2650 238.6927 238.6927
   238.6927 239.2482 239.2482 239.2482 239.6492 239.7035 239.7035 239.7035
   239.7116 239.7116 239.7116 239.8560 239.9631 242.2447 242.2447 242.2523
   242.2523 242.2523 242.6370 245.2443 245.2443 245.2443 245.3967 245.3967
   245.4677 245.4677 245.4677 245.8014 245.8014 245.8014 246.0820 246.0820
   246.0820 246.0909 246.0909 256.4993 256.4993 256.4993 262.4813 262.4813
   262.8607 270.3348 270.3348 270.3348 270.4510 270.4510 270.4510 271.2612
   271.2612 271.2612 271.5826 271.5826 271.5826 271.9826 274.2117 274.2117
   274.3452 274.3452 274.3452 274.5549 277.0919 277.0919 277.0919 280.5145
   280.5145 280.5145 288.1090 289.5924 289.5924 289.5924 290.3648 290.3648
   292.2491 292.2491 292.2491 292.3548 292.3548 292.3548 292.4590 292.4590
   292.4590 292.8258 292.8258 294.5447 294.5447 294.5447 294.5908 296.7287
   296.7287 298.0900 298.0900 298.0900 298.4910 298.4910 298.4910 298.9391
   298.9391 298.9391 299.1138 299.1138 299.1138 299.8371 300.4983 300.4983
   300.4983 300.6881 300.6881 316.7540 316.7540 316.7540 319.7911 322.6437
   323.9706 323.9706 323.9706 325.2488 329.7290 329.7290 329.7290 336.7612
   336.7612 336.7612 339.1032 339.1032 340.2657 340.2657 340.2657 341.3800
   341.3800 341.3800 341.5337 341.5337 341.7719 344.2397 344.2397 344.2397
   344.3041 344.3041 345.3666 345.3666 345.3666 345.7043 345.7043 345.7043
   345.9295 345.9295 345.9295 346.0347 346.2405 346.3594 346.3594 349.0593
   349.0593 349.0593 349.0797 349.0797 349.0797 349.2618 349.2618 349.2618
   349.2889 349.2889 349.2889 351.3135 351.3135 351.3135 353.4172 353.6803
   353.6803 353.6803 353.9387 353.9387 354.0457 354.0457 354.0457 355.8439
   355.8439 355.8439 355.9361 355.9361 356.0318 356.0318 356.0318 356.2962
   356.2962 356.2962 356.5420 362.3248 362.3248 362.3248 370.9614 370.9614
   370.9614 372.7982 375.4292 375.4292 375.4702 376.3378 376.3378 376.3378
   378.2307 378.2307 378.2307 378.7952 378.7952 378.7952 379.4574 379.4574
   379.4574 380.4849 380.4849 381.2523 382.8804 382.8804 383.6496 383.6496
   383.6496 383.7244 383.7244 383.7244 384.2000 384.2000 384.2000 384.5059
   384.5059 384.5059 384.8634 384.8634 385.1605 385.5780 385.5780 385.5780
   385.8305 385.8305 385.8305 386.0219 390.6819 390.6819 390.6819 391.6660
   391.6660 391.6660 396.8966 396.8966 396.8966 397.0235 398.2687 398.2687
   398.2687 398.3649 398.3649 398.6352 398.7437 398.7437 399.5813 399.5813
   399.5813 399.7231 399.7231 399.7231 399.8686 399.8686 399.8686 400.0227
   400.0227 400.0227 403.9345 403.9345 403.9345 404.0655 404.0655 404.2625
   404.2625 404.2625 404.3312 404.3312 404.3312 404.5445 404.5445 404.5445
   404.6413 404.6413 404.9748 404.9748 404.9748 404.9844 404.9844 404.9844
   405.1216 405.1710 405.1710 405.1710 405.2104 405.2104 405.2104 405.3788
   405.3788 405.4318 405.4318 405.4318 405.4588 405.4588 405.4683 405.5534
   405.5534 405.5534 411.6539 430.9907 433.7309 433.7309 433.7309 435.7323
   435.7323 438.3607 438.3607 438.3607 449.9988 451.0525 451.2307 451.2307
   451.2307 452.5144 452.5144 454.3615 454.3615 454.3615 456.1630 456.1630
   456.1630 456.1724 456.1724 456.1724 456.4329 456.4329 456.4329 456.7784
   456.7784 457.8148 458.2979 458.2979 458.2979 458.9029 459.4051 459.4051
   459.5740 459.5740 459.5740 459.7515 459.7515 459.7515 461.2292 465.5282
   465.5282 465.5282 465.6713 465.6713 465.6713 465.6903 465.6903 465.6903
   465.7824 465.7824 465.7824 467.5157 467.5157 467.5245 467.5245 467.5722
   467.5722 467.5722 467.6246 467.6246 467.6246 467.7357 467.7357 467.7357
   467.7702 467.7702 467.7702 468.6866 468.6866 468.7158 468.7158 468.7158
   468.7754 476.6266 476.6266 476.6266 486.6213 486.6213 487.7969 487.7969
   487.7969 488.7283 488.7283 488.7283 489.3230 490.2478 490.2478 490.2478
   490.8283 490.8283 492.2129 492.2129 492.2129 492.8664 492.9844 492.9844
   492.9844 493.1491 493.1491 493.1491 493.4615 493.4615 493.4615 494.3218
   494.4917 494.4917 494.4917 494.5532 494.5532 498.0196 500.9280 500.9280
   500.9280 504.8891 504.8891 504.8891 506.9831 506.9831 506.9831 507.7418
   507.7418 507.7418 507.8014 507.8014 508.9195 508.9195 508.9195 509.3508
   509.3508 509.4149 509.4149 509.4149 510.8338 511.4041 511.4041 511.4041
   511.7332 511.7725 511.7725 511.7725 515.2952 515.2952 515.2952 515.3888
   515.3888 515.4077 515.4077 515.4392 515.4392 515.4392 515.4471 515.4471
   515.4471 515.5527 515.5527 515.5527 515.9003 515.9003 515.9003 515.9054
   515.9054 515.9054 515.9196 515.9393 518.7465 519.1348 519.8528 519.8528
   519.8528 520.8419 520.8419 520.8419 520.9243 521.1893 521.1893 521.2042
   521.2042 521.2042 521.3973 521.3973 521.3973 521.5830 521.5830 521.5830
   521.7027 521.7027 521.7027 521.7270 521.7270 540.2071 540.2071 540.2071
   546.3077 546.3526 546.3526 547.0780 547.0780 547.0780 547.5195 547.5195
   547.5195 547.6903 547.6903 547.6903 548.1198 548.1198 548.1198 548.4437
   548.4437 548.6842 548.6842 548.6842 548.8637 551.3420 552.4280 552.4280
   552.4280 555.3241 555.3241 555.3241 560.9680 560.9680 561.1292 561.1292
   561.1292 562.3034 562.3034 562.3034 562.9497 562.9497 563.5003 563.8856
   564.0612 564.0612 564.0612 564.4061 564.4061 564.4061 565.5241 565.5241
   565.5241 566.1148 566.1148 566.5107 566.5107 566.5107 566.7503 566.7503
   569.6789 569.9675 569.9675 569.9675 570.1992 570.1992 570.1992 570.4944
   570.4944 570.4944 570.8572 570.8572 570.8764 570.8764 570.8764 570.8870
   570.8870 570.8870 571.1534 571.1534 571.3770 571.3770 571.3770 571.8674
   571.8674 571.8674 571.8768 571.8768 571.8768 571.9077 571.9077 571.9077
   572.1527 572.7374 572.7382 572.7382 572.7382 572.8244 572.8244 572.8244
   572.9149 573.3761 573.3761 573.3761 573.7276 573.7276 574.2006 574.2006
   574.2006 574.2325 574.2325 574.2325 574.5757 574.5757 574.5757 574.6158
   575.3667 575.3667 575.3667 575.6440 575.6440 577.6978 577.6978 577.8354
   577.8354 577.8354 578.1421 578.8688 578.8688 578.8688 578.8824 578.8824
   578.8824 579.0435 579.0435 579.0435 579.1002 579.1002 579.1002 579.5478
   579.5478 579.6536 579.6536 579.6536 579.7817 592.4979 592.4979 592.4979
   595.7238 595.8384 595.8384 595.8384 598.3851 605.9201 605.9201 605.9201
   605.9587 605.9587 605.9587 605.9724 605.9724 606.0054 606.0054 606.0054
   606.0502 606.0502 606.0502 606.0694 606.0694 616.2884 616.2884 616.2884
   616.8454 618.0801 618.0801 618.0801 619.9984 619.9984 620.2701 620.2701
   621.2452 621.2452 621.2452 621.3177 621.3177 621.3177 621.4591 621.4591
   621.4591 621.5088 621.5088 621.5088 624.6894 626.5846 626.5846 626.5846
   626.6014 626.6014 626.6014 626.6975 626.6975 626.6975 626.7273 626.7273
   626.7273 626.9591 626.9818 626.9818 626.9818 626.9864 626.9864 627.2160
   627.2160 627.2733 627.2733 627.2733 627.3670 649.1779 649.1779 649.1780
   655.8014 655.8014 655.8014 656.2361 657.0492 657.6880 657.6880 657.8420
   657.8420 657.8420 657.8973 657.8973 657.8973 658.1619 658.1619 658.1619
   658.1877 658.1877 658.1877 658.3693 658.3693 665.4202 665.4202 665.4202
   669.5498 670.1126 670.1126 670.1126 672.7619 672.7619 672.7619 673.1424
   673.1424 673.1729 673.1729 673.1729 673.3101 673.4007 673.4007 673.4007
   676.1397 676.6460 676.6460 676.6460 677.4759 677.8363 677.8363 677.8363
   678.0607 678.0607 678.0607 678.1545 678.1545 678.8800 678.8800 679.0016
   679.0016 679.0016 679.6900 679.6900 679.6900 679.7939 679.7939 679.7939
   680.0521 680.0521 680.0521 680.1993 680.1993 680.5614 680.5614 680.5614
   680.8384 680.8384 680.8384 680.9444 680.9494 682.4289 682.4289 682.4289
   682.4540 682.4540 682.4540 682.4890 682.4890 682.5074 682.5074 682.5181
   682.5181 682.5181 682.5313 682.5313 682.5313 684.4191 684.5112 684.5112
   684.5112 685.8050 685.8050 686.6820 686.6820 686.6820 686.8831 686.8831
   686.8831 686.9184 686.9184 686.9184 686.9263 687.0116 687.0116 689.2367
   689.2367 689.2367 689.2526 689.2569 689.2569 689.2569 689.2621 689.2621
   689.2621 689.3034 689.3034 699.8580 699.8580 699.8580 705.1436 705.1436
   705.6760 707.7051 707.7051 707.7051 707.9828 707.9828 707.9828 708.1026
   708.1026 708.1026 708.7162 708.7162 709.5508 712.5003 712.7662 712.7662
   712.7662 712.9751 712.9751 712.9751 713.1713 713.1713 713.1713 713.2419
   713.2419 714.5112 714.5112 714.5112 714.9893 714.9893 714.9893 714.9958
   714.9958 714.9958 715.8138 715.8138 715.8138 716.0353 716.0353 716.1360
   716.6946 716.6946 716.6946 716.7358 716.7358 716.7358 717.0407 717.0407
   717.0407 717.6185 717.6185 717.6185 717.6198 717.6198 717.7807 717.7807
   717.7807 717.9278 717.9278 717.9278 718.0536 718.8259 718.8259 718.8825
   718.8825 718.8825 718.9705 727.5075 727.5075 727.5075 730.6899 730.6899
   730.6899 731.0583 733.3341 733.3341 733.3341 733.4851 733.4851 733.7434
   733.7434 733.7434 733.7484 733.7484 733.8350 733.8350 733.8350 734.4117
   734.4117 734.4117 734.6900 734.7338 734.7715 734.7715 734.7715 735.0210
   735.0210 735.0210 735.2847 735.2847 735.2847 735.2852 735.2852 735.3758
   735.4945 735.4945 735.4945 735.6339 735.6339 735.7246 735.7246 735.7246
   735.7651 735.8746 735.8746 735.8746 735.9503 735.9503 735.9503 736.1411
   736.1411 736.1411 736.1435 736.1435 736.1435 736.3883 736.3883 736.4189
   736.4189 736.4189 736.5014 736.5256 736.5256 736.5256 736.7035 736.7035
   736.7657 736.7657 736.7657 739.3462 739.3462 739.3462 739.5360 739.8032
   739.8032 741.3125 741.3125 741.3125 741.5553 741.5688 741.5688 741.5688
   741.5796 742.5700 742.5700 742.5700 742.5813 742.5813 742.5813 742.5859
   742.5859 742.5859 742.5941 742.5941 742.5941 744.5054 744.5054 744.5081
   744.5081 744.5081 744.5253 777.3690 777.3690 777.3690 782.4478 782.4478
   782.4478 782.8974 784.6049 785.2248 785.2248 785.2651 785.2651 785.2651
   785.5659 785.5659 785.5659 785.6602 785.6602 785.6602 785.6884 785.6884
   785.6884 786.1326 786.1326 791.4431 791.4431 791.4431 791.8095 791.8095
   791.8095 792.0427 792.1740 792.3996 792.3996 792.4811 792.4811 792.4811
   792.6683 792.6683 792.6683 792.6763 792.6763 792.6763 792.8688 792.8688
   792.8688 792.9538 792.9538 793.4091 793.4524 793.4524 793.4524 793.5502
   793.5502 793.5502 793.6498 796.1506 796.1506 796.1506 796.4475 796.4475
   796.6512 796.6512 796.6512 796.7426 796.7426 796.7426 796.8590 796.8590
   796.8590 796.9558 796.9558 797.2791 797.4379 797.4379 797.4379 797.6089
   797.6089 798.0319 798.0319 798.0319 798.1370 798.1370 798.1370 798.2433
   798.2433 798.2433 798.2890 798.2890 798.2890 798.6829 798.6829 798.6864
   798.6864 798.6864 798.6916 801.2302 801.2302 801.2706 801.2706 801.2706
   801.2787 801.2787 801.2787 801.3187 801.3187 801.3187 801.3200 801.3200
   801.3200 801.3668 801.3668 802.6182 802.6182 802.6182 802.6211 802.6323
   802.6323 802.6323 802.6583 815.4946 815.4946 815.4946 819.2777 819.2777
   819.7461 821.5595 821.5595 821.5595 821.6865 821.6865 821.6865 821.8682
   821.8682 821.8682 821.9199 821.9199 821.9199 824.2330 824.3713 824.3713
   824.3713 824.4559 824.4559 827.2194 827.2194 827.2858 827.2858 827.2858
   827.4139 828.6506 828.6506 828.6506 828.6555 828.6555 828.6555 828.7018
   828.7018 828.7018 828.7078 828.7078 828.7078 829.4194 829.4194 829.4265
   829.4265 829.4265 829.4412 837.7643 837.7643 837.7643 837.7950 837.7950
   837.7950 838.7100 839.0816 841.1891 841.1891 841.1891 841.6265 841.7310
   841.7310 842.4488 842.4488 842.4488 843.0649 843.0649 843.2992 848.9832
   848.9832 848.9832 849.0101 849.0101 849.0101 849.0134 849.0134 849.0179
   849.0179 849.0179 849.0416 849.0416 849.0444 849.0444 849.0444 849.1147
   849.1147 849.1147 849.1236 849.1236 849.1236 849.1386 849.1386 849.1386
   849.1480 849.1480 849.1480 875.2781 875.2781 875.2781 877.9823 877.9823
   877.9823 877.9891 877.9891 878.0001 878.0001 878.0001 878.3247 888.4145
   888.4145 888.4145 893.5800 893.5800 893.5800 893.8103 894.3318 894.3318
   894.4228 894.4228 894.4228 894.7468 894.7468 894.7468 895.8727 896.4459
   896.4459 896.4459 896.6861 896.6861 897.0605 897.0605 897.0605 897.0979
   897.0979 897.3480 897.3480 897.3480 897.6726 897.7747 897.7747 897.7747
   897.8419 897.8419 897.8419 897.9143 897.9143 898.2429 898.2429 898.2429
   898.4228 898.5284 898.5284 898.5284 898.5296 898.5296 898.5296 900.2837
   900.5892 900.6405 900.6405 900.6405 900.8102 900.8102 900.8102 901.2704
   901.2704 901.5525 901.5525 901.5525 901.7022 901.7022 901.7134 901.7134
   901.7134 901.7382 901.7382 901.7382 901.7685 901.7685 901.7685 903.5515
   903.5515 903.5515 903.5805 903.5805 903.5805 903.8473 904.0054 904.0249
   904.0249 904.0249 904.1181 904.1181 904.1181 904.2588 904.2588 904.2588
   904.2697 904.2697 904.2798 904.2798 904.3549 904.3549 904.3549 904.9199
   904.9199 904.9199 904.9361 904.9361 904.9361 905.0610 905.0610 905.0612
   905.0612 905.0612 905.0787 905.0787 905.0787 905.2626 905.2626 905.3473
   905.3473 905.3473 905.4359 905.4359 905.4359 905.4793 905.5434 907.8852
   907.8852 907.8852 908.6784 908.7068 908.7131 908.7131 908.7131 909.2895
   909.2895 909.2950 909.2950 909.2950 909.3054 909.3054 909.3054 909.3082
   909.3082 909.3082 909.3513 909.3513 909.3537 909.3537 909.3537 910.1184
   910.1184 910.1702 910.1702 910.1702 910.2481 910.2481 910.2481 910.2959
   910.2959 910.2959 910.5633 910.5787 910.5787 910.5807 910.5807 910.5807
   910.8657 910.8657 910.8657 910.9538 910.9538 910.9538 911.0879 926.9628
   926.9628 926.9628 928.6957 928.7096 928.7096 928.7096 928.9002 935.5586
   935.5586 935.5586 936.0728 936.0728 936.0847 936.0847 936.0847 936.1418
   936.1418 936.1418 936.2808 936.8048 936.8048 936.8048 936.8532 936.8532
   936.8532 936.8582 936.8582 937.0004 937.0004 937.0004 937.1391 939.2595
   939.2595 939.3209 939.3209 939.3209 939.3218 939.3218 939.3218 939.3469
   939.3469 939.3469 939.3784 939.3784 939.3784 939.3921 939.3921 951.0547
   951.0547 951.0547 952.4875 952.4875 952.4875 952.7908 953.1228 953.2641
   953.2641 953.2797 953.2797 953.2797 953.3273 953.3273 953.3273 953.6171
   953.6171 953.6171 953.7359 953.7359 953.7669 953.7669 953.7669 955.8022
   955.8022 955.8022 956.0337 956.0337 956.4080 956.4380 956.4380 956.4380
   956.4657 956.4657 956.4657 956.6028 956.6028 956.6028 956.6236 956.6236
   956.6236 956.8031 956.8031 956.8031 956.8118 956.8811 956.8811 958.9760
   958.9760 959.0169 959.0169 959.0169 959.0233 959.0233 959.0233 959.0438
   959.0438 959.0438 959.2731 959.4609 959.4609 959.4609 959.4819 959.4819
   959.7332 959.7332 959.7332 959.8901 959.8901 959.8901 960.0246 963.1075
   963.1075 963.1075 963.6891 963.7855 963.7855 963.7855 963.8624 963.8624
   963.8624 963.8665 963.8665 964.7316 964.7316 964.7316 964.7702 964.7702
   964.7907 964.7907 964.7907 964.8701 964.8701 964.8701 964.9662 966.0413
   966.1518 966.1518 966.1518 966.2899 966.2899 966.2899 966.3495 966.3495
   966.3860 966.3860 966.3860 966.7018 966.7018 966.7018 966.7216 966.7216

          k =-0.1667 0.1667-0.1667 (  5444 PWs)   bands (ev):

   -40.2920 -40.0268 -12.6272   1.8702   2.5749   2.5749   8.5114  14.4964
    14.8613  14.8613  19.7360  19.7360  22.3325  26.8439  26.8439  28.2733
    30.2683  30.2683  32.2058  33.8394  43.5651  43.5651  47.7978  50.2081
    50.2081  52.6509  53.1953  53.1953  53.6460  57.0185  57.0185  59.3584
    59.8110  59.8110  61.6387  63.4844  63.4844  64.4424  64.5018  64.5018
    66.7395  69.6809  69.6809  70.2140  71.6471  72.8077  72.8077  74.4228
    74.4228  75.3522  78.2903  78.2903  80.5773  80.6444  81.2795  81.2795
    83.7928  83.7928  88.3179  90.9526  90.9526  91.2431  92.2216  97.2065
    99.0047  99.0047 105.2042 109.7101 109.7101 110.8689 110.8689 112.7358
   112.8638 112.8638 114.9805 117.3783 117.3783 119.5940 119.7484 119.7484
   120.3735 120.3735 120.7890 121.7912 123.3992 123.3992 124.2834 126.5149
   126.5278 126.5278 127.5887 127.5887 128.3283 131.4035 131.4035 131.8437
   131.8644 132.5344 132.5344 134.1107 136.0485 136.1719 136.1719 138.2030
   138.2030 139.3832 139.3832 139.7466 141.6735 141.6735 142.5035 144.2868
   144.2868 145.8617 146.6863 146.6863 149.0112 149.0112 149.9557 150.1574
   150.3657 150.3657 151.6263 152.8747 154.8929 154.8929 159.3534 159.3534
   159.5982 160.6662 161.9470 161.9471 162.1188 164.6506 164.6506 166.3567
   166.3567 167.1423 170.3630 170.3630 171.0366 171.0366 171.0859 171.3249
   171.4362 171.4362 171.8764 172.0210 174.2441 174.2441 174.7732 178.7700
   179.8343 179.8343 182.5822 182.5822 184.0208 186.7768 186.7768 187.3098
   187.3098 188.1090 191.4396 193.8674 193.8674 194.4672 194.4672 194.6350
   194.8877 197.2686 197.2686 198.3150 200.6955 202.8093 202.8093 203.7050
   209.2987 211.4302 211.4302 212.2526 212.2526 213.7549 213.7549 213.9139
   217.3309 217.7007 217.7007 219.2719 219.2719 219.5032 220.1051 220.9642
   220.9642 221.7807 222.6113 223.3061 223.3061 225.6914 225.6914 227.6281
   227.6281 228.0979 228.9327 228.9327 229.2269 229.3199 229.7988 229.7988
   229.8052 231.6226 231.6226 233.4499 233.6197 233.6197 234.9430 235.2344
   235.2344 235.5838 237.4846 237.9095 237.9095 239.0785 239.0785 239.8657
   240.1844 240.1844 240.4930 241.9789 241.9789 242.3292 242.6122 242.6122
   243.3764 244.6662 244.6662 244.7272 245.9662 245.9662 247.6843 249.6009
   249.6009 250.6841 250.6841 250.8614 251.3208 252.1712 252.1712 254.0638
   254.2450 254.2450 254.5850 254.5850 254.9126 255.2536 256.0188 256.8812
   256.8812 258.4998 258.4998 258.7320 259.0483 259.0483 259.9957 260.0402
   260.0402 261.0112 261.1535 263.9712 263.9712 264.3968 266.2745 266.9576
   266.9576 268.5772 268.5772 269.1500 269.1500 272.2725 273.7429 273.7429
   275.2817 275.2817 276.7203 280.1096 280.1096 280.9182 281.7673 281.7673
   282.3964 283.0961 283.0961 283.5146 285.5182 285.5182 286.1088 286.2218
   286.8700 286.8700 287.4963 287.9359 287.9359 289.0770 289.0770 289.9929
   291.9622 291.9622 292.3809 293.5018 294.1756 294.7360 294.7360 299.2984
   299.2984 300.1630 301.0493 301.7425 301.7425 303.0433 304.7294 304.9489
   304.9489 310.0996 310.1443 310.1443 311.2764 311.9378 311.9378 312.8070
   312.8070 313.1762 313.9859 317.5732 317.5732 317.9979 317.9979 318.7625
   321.0930 321.1434 321.1434 323.0442 323.0442 324.1021 324.1021 324.8259
   325.0835 325.0835 326.9368 328.1973 329.9339 329.9339 331.2540 331.2540
   332.7595 333.0221 333.0221 333.7387 333.7797 333.7797 334.1880 335.0487
   335.0487 335.1076 337.6460 337.6460 338.1335 339.7065 340.9221 340.9221
   341.0359 343.9020 344.1507 344.1507 346.6411 346.6411 346.9843 348.6474
   348.6474 348.8332 351.0949 351.0949 351.9694 351.9694 352.2301 352.2311
   353.3038 354.1963 354.5455 354.5456 356.0775 356.0775 356.8061 356.8061
   357.3572 357.3572 358.2892 358.9588 359.6952 359.6952 359.9023 360.2645
   360.2645 360.7449 361.7444 362.9399 362.9399 364.1345 364.1345 364.5157
   364.9789 365.6753 365.6753 365.8470 367.3333 368.0635 368.0635 368.1535
   368.3469 368.3469 369.2675 370.2231 370.2231 371.4289 371.4289 372.2718
   373.5283 373.8949 373.8949 374.4491 375.1349 375.1349 375.6606 375.6606
   377.1254 377.5778 377.5778 378.0845 378.3402 378.3402 379.5061 379.5061
   379.5669 379.5669 379.9547 379.9547 379.9666 380.1688 381.0161 381.5232
   381.5232 381.9274 383.0533 383.1356 383.1356 383.5371 383.5371 383.6565
   384.5613 384.5613 384.9174 387.8846 387.8846 389.1014 389.8013 390.7162
   390.7162 390.8293 390.8293 390.9230 391.8869 391.8869 392.0933 392.0933
   392.1957 393.7552 394.4417 394.4417 394.6296 396.1587 397.3673 397.3673
   397.9050 398.2449 398.2449 398.8241 398.8241 399.1109 400.1146 402.4112
   402.4112 402.7139 402.7139 402.9798 403.8473 406.0998 406.0998 406.8234
   406.8596 406.8596 410.4160 411.3500 411.3500 411.6733 412.0331 412.0331
   412.2833 412.2833 412.6723 412.6723 412.9408 413.8037 413.8190 413.8190
   414.1147 415.0765 417.2441 417.2441 417.6140 419.5935 419.5935 419.6699
   422.1264 423.4726 423.4726 424.4393 424.4393 424.7530 424.8355 424.8355
   425.5553 425.9889 425.9889 426.5248 428.2255 430.6751 430.6751 431.0685
   431.0685 431.1274 435.4707 435.4707 435.5798 435.8842 435.8842 437.8190
   437.8190 440.1263 440.6235 441.3768 441.3768 443.8581 444.5167 444.5167
   444.7371 445.1574 445.1574 448.2877 448.2877 448.7091 451.8111 452.4428
   452.4428 453.3714 453.6742 453.9109 453.9109 454.3654 454.3654 454.5191
   454.5191 454.6442 454.7841 456.6768 456.6768 458.6415 460.0187 460.0187
   462.7321 462.7608 462.7608 463.1934 463.1934 464.6117 464.6117 465.7590
   466.8529 469.5234 469.5958 469.5958 471.6679 471.6679 472.2073 472.5207
   472.5207 472.8086 473.3214 474.0247 474.0247 474.1542 474.8816 474.9183
   474.9183 476.2352 478.0715 478.3997 478.3997 478.5190 478.5190 480.8340
   481.2423 481.4138 481.4138 481.7783 481.7783 481.8539 482.1879 482.1879
   482.4160 483.0117 483.0117 484.9818 485.0932 485.0932 485.9402 485.9402
   486.4194 487.1011 487.1011 487.3161 488.6596 488.6596 489.4202 490.0785
   490.0785 490.0826 490.2841 490.2841 490.6940 490.6940 490.7880 490.8284
   491.1270 491.1270 491.2190 493.3815 496.5544 496.5544 496.6780 499.4665
   499.4665 499.8158 500.3065 500.3983 500.3983 501.0783 501.0783 502.2318
   502.2318 503.6798 504.5950 504.5950 504.7147 506.5227 506.5890 506.5890
   509.2156 509.2156 509.3529 509.3807 509.3807 510.2693 510.9182 510.9182
   511.2747 513.3393 513.8746 513.8746 514.7387 514.9875 514.9875 515.0792
   517.2451 517.3419 517.3419 517.7754 517.7754 518.5592 518.5592 518.6297
   519.1735 519.2799 519.2799 520.2050 520.2050 520.7410 520.7410 520.8251
   520.8908 520.9025 520.9025 520.9295 520.9295 521.3296 521.5534 522.1608
   522.1608 522.4238 524.5108 526.4158 526.4807 526.4807 526.6265 526.6924
   526.6924 530.1491 530.1491 530.6234 532.9487 532.9487 534.4097 535.3429
   535.3429 536.8841 536.8841 537.1933 538.6358 538.6358 538.7804 538.9512
   538.9512 539.1273 539.4479 539.6529 539.6529 540.8173 540.8173 541.5437
   541.5872 541.5872 541.6662 542.4593 542.4593 544.1110 544.5861 544.5861
   545.2132 545.5168 545.5168 545.5302 546.0631 546.0631 546.1748 546.4781
   546.5170 546.5170 546.5546 548.0362 548.6219 548.6219 550.9604 550.9604
   551.2761 551.5683 551.7778 551.7778 552.9641 552.9641 552.9932 553.5228
   553.5228 553.5244 554.0299 554.0299 554.2572 554.3755 554.3755 555.9631
   556.8439 556.8439 557.0765 557.0765 557.1330 557.1664 558.0127 558.0127
   558.1300 558.4475 561.0910 561.0910 562.3353 563.0111 563.0111 563.6871
   563.9747 563.9747 564.4018 564.5289 564.5289 566.0414 569.5441 569.5441
   569.7785 569.7785 569.7937 570.3319 570.3319 570.4478 571.7876 571.7876
   572.0333 573.7060 573.7060 573.8321 575.3912 575.5129 575.5129 575.5319
   576.0210 576.0210 576.2179 576.2179 576.7857 578.0135 578.2297 578.2297
   579.8731 579.9185 579.9185 581.0416 581.0416 581.1929 583.1404 583.1404
   583.5542 583.5542 583.6082 583.6474 585.2483 585.4919 585.4919 587.7103
   587.7103 587.9992 588.3857 589.4363 589.6219 589.6219 590.0030 590.0791
   590.0791 590.9054 590.9054 591.5314 592.6595 592.7785 592.7785 592.9282
   592.9282 593.1654 593.1654 593.3893 593.6946 594.1830 594.1830 595.9399
   596.4765 596.4765 597.2118 597.3313 597.3313 597.4413 597.4432 597.4432
   598.1267 598.5844 598.5844 598.8231 599.1856 599.1856 599.3516 600.3023
   600.3023 600.6117 600.9889 600.9889 605.0987 605.0987 605.6598 605.8070
   605.8070 607.7205 607.9772 608.2085 608.2085 608.5372 608.5372 608.7675
   609.4467 609.4467 609.4740 609.7932 609.7932 610.5450 611.8230 611.8230
   612.1927 615.6638 615.6638 615.6930 616.0680 616.0680 616.0747 617.9745
   621.5128 621.5128 623.2206 623.2206 623.2498 630.3465 630.9449 630.9449
   632.5168 633.1739 635.4304 635.4304 636.1718 638.3697 638.3697 638.9916
   639.0134 639.0134 639.0255 639.9512 639.9512 640.1065 640.2034 640.2034
   640.2741 640.9739 641.0076 641.0076 643.5631 643.5631 643.5915 643.5915
   645.2932 645.4025 645.4025 646.9216 647.0780 647.0780 649.7273 650.2549
   650.2549 650.7072 650.8686 650.8686 651.0648 651.0648 651.1710 653.7534
   653.7534 654.0008 655.0844 655.0844 656.5213 656.6933 656.6933 657.1758
   657.2182 657.2182 657.5200 657.5200 657.6208 658.0239 658.4517 658.4517
   658.9807 659.1132 659.1132 659.2921 659.5492 659.5492 660.0092 662.8953
   662.8953 662.9183 666.6837 666.6837 666.7566 668.6296 668.6296 669.5880
   672.3862 672.3862 672.4322 672.9390 673.0678 673.0678 673.2993 673.2993
   674.3042 674.3717 674.3717 674.4286 675.3737 675.3737 676.3857 677.0933
   677.0933 677.2109 678.9893 678.9893 679.2785 679.3318 679.3318 679.6785
   679.7373 679.7373 680.6340 680.8608 681.4478 681.4478 683.2761 683.2761
   683.6716 683.9303 683.9303 684.3133 685.0237 685.0237 685.1953 685.2088
   685.2613 685.2613 686.6023 686.6023 686.9090 688.9095 689.3919 689.3919
   690.1760 690.1760 690.5264 690.7529 692.3604 692.3604 692.4267 692.8236
   692.8236 692.8293 693.8433 694.3012 694.3012 694.7434 694.9838 694.9838
   695.1490 695.4572 695.4572 696.7581 696.7581 697.2374 698.7865 698.7865
   699.1362 699.1362 699.1503 699.2857 699.3278 699.3278 700.0976 700.5104
   700.5104 700.6334 700.6334 700.8477 701.4805 701.5635 701.5635 701.9343
   702.6319 702.6319 703.4499 703.8644 703.8644 703.8742 703.9507 704.9808
   704.9808 705.9683 705.9683 706.1017 706.1017 706.2659 706.4155 708.6678
   708.8806 708.8806 709.7607 709.7756 709.7756 710.1032 710.2428 710.2428
   710.3424 711.8110 711.8110 712.2166 712.3405 712.3405 713.5636 713.6440
   713.6440 713.8107 714.7348 714.8388 714.8388 715.0039 715.0039 715.5796
   715.5796 715.6604 715.7143 717.5980 717.5980 718.3975 719.2902 719.2902
   719.3710 719.4330 719.9596 719.9596 722.0503 722.0503 722.2025 722.5226
   722.5226 723.6937 723.6937 723.9829 724.2530 724.2530 724.2791 724.5327
   724.5335 724.5335 724.7314 724.7314 724.7720 724.9463 724.9463 726.0830
   727.1174 727.1174 727.3291 727.6461 727.6461 727.9281 728.8780 729.1553
   729.1553 729.4586 729.4586 729.8501 730.1868 730.2795 730.2795 730.6153
   730.6170 730.6170 735.8351 735.8351 735.9395 736.5568 737.6629 737.6629
   740.3798 740.3798 740.7359 741.0036 741.0036 741.4351 742.1131 742.1131
   742.3386 742.5328 742.9329 743.3786 743.3786 743.7961 743.7961 743.9501
   744.6022 745.0952 745.0952 745.9749 745.9749 746.3180 746.3863 746.3863
   746.7564 746.7564 747.2461 747.5644 747.5644 747.6147 747.9658 748.9890
   748.9890 751.6122 753.5951 753.5951 754.2120 754.2120 754.4365 754.4365
   754.7283 754.7610 754.8750 755.6586 755.6586 755.7200 756.3387 756.3387
   760.2179 760.2179 760.2640 760.3097 760.3097 761.1458 761.2710 761.2710
   761.5747 763.1651 763.1651 763.4259 763.7267 763.7795 763.7795 764.7753
   764.7753 764.9981 765.8364 766.1723 766.1723 766.1810 766.6791 766.6791
   766.8295 766.8295 766.9529 767.0903 767.0903 767.2149 769.5100 770.2349
   770.2349 771.1633 771.1633 771.2627 771.2627 771.4993 771.5391 773.0443
   774.5956 774.5956 774.8492 775.0315 775.0315 775.2278 775.2845 775.2845
   775.7871 775.9952 775.9952 777.9644 777.9644 777.9824 780.6659 780.6659
   782.3970 782.6865 782.6865 782.7938 783.3356 783.8805 784.4754 784.6836
   784.6836 784.8430 784.8430 785.3644 785.3644 785.6244 785.8244 785.8244
   785.8368 787.8597 787.8597 788.2472 791.4598 791.4598 791.6258 791.6723
   791.6723 791.6910 794.3421 794.3421 794.4866 794.9068 794.9426 794.9426
   794.9786 796.4739 796.4739 796.4849 797.4378 797.4378 797.5740 797.6143
   797.6143 798.2896 798.2896 798.3017 798.6067 803.1069 803.1069 803.3821
   803.9152 803.9152 804.0715 805.6293 805.6293 806.2406 806.2406 806.3103
   807.0023 807.0023 807.4866 808.1290 808.1290 808.1646 811.5927 811.5927
   811.7263 812.1632 812.1632 812.2253 812.7231 812.8235 812.8235 813.3800
   813.3800 813.7008 813.7008 813.7089 813.7431 814.6362 814.7869 814.7869
   815.6496 815.8163 815.8163 817.1638 817.1638 817.2213 817.4461 817.6454
   817.6454 819.7920 819.7920 819.8091 820.9137 821.1251 821.1251 821.5250
   821.7536 821.7536 822.7355 824.2576 824.2576 824.2593 825.0267 825.0267
   825.1188 825.2791 825.2791 826.6156 826.6156 826.6690 830.4649 830.4649
   830.4998 830.6972 830.6972 830.8479 830.8479 830.9778 831.2306 833.3252
   833.3252 833.4544 833.8326 834.0405 834.0405 834.1137 837.6533 837.6533
   837.7142 838.1280 838.1280 838.1331 838.8163 838.8163 840.0397 841.1886
   841.1886 842.8537 842.8537 843.1940 843.4268 843.4268 843.6605 843.6605
   843.7428 844.8166 851.5998 851.5998 851.6024 853.0540 853.7191 853.7728
   853.7728 854.4446 854.4446 854.5170 855.8002 855.8002 857.0278 857.8556
   857.8556 859.6775 860.1338 860.1338 861.1637 861.1637 861.1933 861.5606
   861.9873 861.9873 864.1435 864.1435 864.9511 865.2906 865.2906 865.5416
   865.6472 865.6472 865.6891 866.0557 866.0557 866.1331 867.7257 867.8859
   867.8859 868.1908 868.4606 868.4606 868.6081 868.6245 868.6245 869.3389
   869.3389 869.4046 869.5406 870.0137 870.0137 870.1998 870.1998 870.6077
   870.8644 870.8644 871.1278 871.2524 871.2524 871.4378 875.1423 875.1423
   875.1589 875.7393 875.7393 876.7890 877.2241 877.2241 877.4559 877.5386
   877.5386 878.0910 878.0910 878.0985 878.2815 879.8608 879.8849 879.8849
   880.0742 880.0742 880.0886 882.0042 882.0042 882.1523 882.2342 882.2624
   882.2624 882.4511 882.8115 882.8115 882.8779 883.1526 886.6696 886.6696
   886.9509 886.9971 887.1144 887.1144 889.0125 889.0125 889.0418 892.0878
   892.0878 893.1992 893.3119 893.3119 893.3877 893.5295 893.5295 893.5656
   893.5656 895.7821 895.7821 896.9544 897.3703 897.3703 897.6733 898.4861
   898.6545 898.6545 899.0973 899.5358 899.5358 900.4507 900.4507 900.5783
   901.3245 901.3245 901.5349 903.0636 903.0636 903.2869 903.3904 903.3904
   903.4096 906.8557 906.8557 907.1453 907.1516 907.1516 907.1797 907.2440
   907.2440 907.2600 908.8820 908.9952 908.9952 909.3155 909.3155 909.3318
   909.3368 910.3699 910.3699 911.9211 911.9211 912.1872 913.0144 913.0144
   913.3044 914.3329 914.6447 914.6447 915.0043 915.0043 915.0044 915.0920
   915.2007 915.2007 915.8906 915.8906 916.4246 916.4246 916.4671 916.5273
   917.2906 917.7509 917.7509 919.2288 919.2288 919.2821 920.3509 920.3509
   920.6693 921.3000 921.3000 921.3199 921.4878 921.4878 921.4993 922.4894
   922.7365 922.7365 922.8404 923.2152 923.2152 923.7128 923.7128 923.9000
   924.1039 924.1039 924.2420 924.3727 924.5819 924.5819 927.3320 927.3320
   927.7294 927.9153 927.9153 927.9380 928.8076 928.8209 928.8209 928.9489
   929.3587 929.3587 929.3864 930.0421 930.0421 931.1541 931.2667 931.2667
   931.7959 931.7959 931.8920 932.0858 932.0858 932.2233 932.4191 932.6832
   932.6832 933.4123 933.4699 933.4699 933.6507 933.6507 933.9636 933.9864
   934.0284 934.0284 934.0538 934.0538 934.2309 934.7424 934.7424 934.7649
   936.2758 936.8736 936.8736 939.1184 939.5748 939.5748 940.3434 940.3434
   940.6855 941.7727 941.7727 942.4541 942.9607 943.5285 943.5285 943.7326
   943.7326 943.9171 944.0621 944.0780 944.0780 944.1174 944.1908 944.1908
   944.4563 944.7862 945.1303 945.1303 945.7415 945.7415 945.7908 946.2902
   946.2902 946.5052 946.5203 946.5900 946.5900 946.7060 946.7060 950.7635
   951.5042 951.5042 951.6601 951.6601 951.7705 951.8251 951.8251 951.8467
   952.4388 952.4388 952.9160 954.1785 954.1785 954.2058 955.5166 955.5166
   955.6893 956.3272 956.3272 956.3626 956.6041 956.6041 956.9117 957.3271
   957.3271 957.3486 958.6435 958.6435 958.6606 962.3226 962.3226 962.4362
   962.8165 962.8165 962.8468 963.3485 963.6417 963.6417 963.6612 964.6173
   964.6173 964.6282 966.9896 966.9896 967.3546 969.1418 969.1418 969.2161
   969.7288 969.7338 969.7338 970.5710 970.5710 970.5981 970.9612 970.9612
   971.0359 972.2600 973.1355 973.1848 973.1848 973.5867 973.5867 974.4373
   974.4373 974.4547 974.4547 974.5470 974.5825 975.7798 977.6774 977.9117
   977.9117 978.6642 978.6642 978.7735 979.0736 979.0736 979.1640 979.2893
   979.2893 979.2929 982.2691 982.2691 982.5733 982.7381 982.7827 982.7827

          k =-0.3333 0.3333-0.3333 (  5429 PWs)   bands (ev):

   -40.2300 -40.0772 -12.5182   0.5527   2.3599   2.3599  10.0713  13.7599
    14.9114  14.9114  19.5413  19.5413  24.1468  27.4017  28.3507  28.3507
    32.0023  33.1961  33.1961  36.4350  39.2621  39.2621  44.6069  49.2322
    49.2322  51.6175  51.6175  52.4470  52.4470  53.2443  54.3074  56.4838
    59.4758  59.4758  60.1868  60.6024  60.6024  61.6187  64.1000  68.1610
    68.1610  70.3660  70.3660  71.3950  72.3141  75.4965  75.4965  79.0441
    79.0441  80.1692  83.1350  85.0945  85.0945  85.8847  86.1847  86.1847
    88.7037  88.7037  89.2402  89.3979  92.9920  92.9920  94.0798  96.3281
    96.3281  97.5655  97.5655  99.6054 104.1734 104.6437 104.6437 108.3118
   108.3118 109.9582 109.9582 110.0037 112.0950 114.2183 115.1447 118.2493
   118.2493 121.6040 121.6040 123.1061 123.3191 123.3191 123.8904 125.7246
   125.7246 126.2193 126.7175 126.7175 127.6950 127.7514 127.7514 129.1632
   132.5395 132.5395 134.0169 135.8544 135.8544 137.0735 138.8747 138.8747
   139.6321 142.6044 143.7390 143.7390 145.2647 145.2647 145.3535 145.5608
   146.0238 148.2797 148.3725 148.3725 148.8946 148.8946 152.4457 152.8260
   152.8260 155.6236 157.2219 157.2219 157.8579 157.8579 160.4777 160.4777
   160.5321 161.5152 161.5152 161.9566 162.0406 162.9461 162.9461 164.7503
   164.7503 165.4647 165.7272 166.2112 166.2112 169.1613 169.1613 169.7616
   170.4732 174.6294 174.6294 174.9792 178.1017 178.1017 181.3446 181.3446
   181.4551 182.3236 183.6512 188.1770 188.1770 188.5025 193.0488 193.0488
   193.5689 195.3932 195.3932 195.7797 195.7797 196.8027 198.5474 198.5474
   198.5912 199.6428 199.6428 200.4115 201.5751 201.5751 202.9146 202.9146
   203.8003 204.2209 205.7716 205.7716 207.4175 207.6656 207.6656 208.1957
   209.9065 209.9065 212.2016 213.0804 213.0804 214.5138 214.5138 215.0091
   215.0091 215.5494 216.5873 216.5873 217.2296 217.5794 219.4493 221.0581
   222.2689 222.2689 223.5787 223.9628 223.9628 224.3082 224.9698 224.9698
   229.6774 230.1314 230.1314 231.6675 231.6675 232.9063 234.1756 234.7436
   235.2621 235.2621 237.5535 237.5535 237.9203 237.9809 237.9809 238.4679
   239.1835 240.0149 240.0149 242.9576 243.3966 243.3966 244.2601 244.2601
   245.4689 245.5632 245.5944 245.5944 249.1774 249.1774 249.7760 250.6165
   250.6165 251.0201 251.1200 251.8495 251.8495 253.4082 253.4082 253.8135
   253.8135 255.5420 256.3886 256.3886 256.7540 257.3613 257.3613 257.4731
   258.0621 261.1860 261.1860 262.6383 265.4632 265.4632 266.8128 268.7645
   269.1465 269.1465 270.1996 270.1996 270.2843 270.7464 272.1079 272.1079
   272.8522 272.8522 273.0179 273.2914 273.6754 273.6754 274.6352 274.6352
   274.9698 274.9997 276.6467 276.6467 281.8358 281.8358 281.8441 282.4827
   282.4827 283.7083 284.4781 287.2062 287.5394 287.5394 288.8117 288.8117
   288.8720 291.8191 292.8998 292.8998 293.4728 293.8455 293.8455 294.0869
   294.0869 294.3896 296.1506 296.1506 300.1156 301.0755 301.1204 301.1204
   304.4213 305.5171 305.5171 305.9656 305.9656 306.2851 306.9045 306.9045
   307.5305 307.5305 308.6903 309.7749 309.7749 310.7994 311.1531 311.1531
   311.3293 311.3293 311.6679 312.2117 312.4813 312.7970 312.7970 313.3922
   313.3922 313.8694 316.6470 317.9487 317.9487 318.1286 318.8914 318.8914
   318.9924 322.5606 322.5606 324.0469 324.8827 324.8827 326.3738 326.3738
   327.3552 328.1445 328.1445 328.5150 330.6079 330.6079 331.3517 332.3020
   333.4208 333.4208 334.3597 338.8175 339.5761 339.5761 339.9256 340.2094
   341.3459 341.3459 342.1046 343.7437 343.7437 344.1116 344.1116 344.7242
   344.7242 345.4798 346.7843 346.7843 346.9114 346.9114 347.0520 347.8886
   347.9306 347.9306 348.3209 348.8082 348.8082 350.0591 350.7718 350.7718
   351.8749 351.8749 352.7410 353.3589 353.3589 353.5993 356.0754 356.0754
   356.5033 359.1755 359.5710 359.5710 360.8852 362.0016 362.0016 362.4556
   362.4556 362.6601 363.4979 363.4979 364.7379 364.7379 365.0527 365.3515
   366.0461 366.0461 366.1796 366.7942 368.8846 369.4072 369.4072 370.7521
   370.7521 372.9653 372.9653 375.2136 376.9448 376.9448 377.2791 377.7129
   379.7515 379.8064 379.8064 381.1897 381.1897 381.2606 381.8688 381.8688
   381.9565 383.2387 383.2387 383.5583 383.6876 385.1619 385.4240 385.4240
   385.4949 385.4949 386.2262 386.2262 386.5317 387.0498 387.0498 387.2250
   388.9423 388.9423 389.3322 390.4913 390.4913 390.6115 391.6863 392.8783
   393.2002 393.2002 393.7624 393.7624 394.0360 394.2760 395.3849 395.3849
   397.5019 397.5019 397.8870 398.9092 398.9092 399.8910 400.7979 400.9650
   400.9650 401.4444 401.4444 401.5428 403.1582 403.2069 403.2069 404.3943
   404.3943 404.8251 405.3901 405.3901 409.5330 409.5330 410.3295 412.2614
   414.0780 414.0780 414.9741 414.9741 415.1859 417.2524 417.2524 417.7064
   420.3755 420.7160 420.7160 420.9498 420.9498 421.3094 421.3094 421.6023
   422.6329 422.6329 422.7181 422.8105 422.9700 423.8976 423.8976 426.2383
   426.2383 426.3262 426.7997 426.7997 427.0059 427.4720 427.4720 427.5285
   427.6439 429.4383 432.8547 432.8547 434.5988 434.5988 435.7117 435.7523
   435.7523 436.1285 436.1285 436.4605 437.1507 437.1507 438.8750 438.8750
   439.6967 440.0581 441.3601 441.6487 441.6487 441.6576 441.6576 442.1814
   442.1814 442.4608 442.6331 443.3584 444.0309 445.5634 445.5634 446.7100
   446.7100 447.0273 447.1609 449.5469 449.5469 450.7983 451.4711 451.4711
   452.8803 452.8803 453.2073 454.4123 455.3041 455.3041 455.5717 455.9674
   455.9674 456.6823 456.9461 456.9461 457.0713 457.7690 457.7690 457.9370
   457.9370 457.9758 457.9758 458.3185 458.3945 460.5203 462.0348 462.0348
   462.2470 464.1059 464.1059 464.7812 466.9884 466.9884 467.1144 467.2189
   467.2189 470.5354 470.8411 470.8411 473.6243 473.6243 474.6108 475.3648
   475.3648 475.4560 476.2159 476.2159 477.4712 482.0459 482.0664 482.0664
   487.1095 488.0270 488.0270 488.2685 488.2685 489.4111 490.1475 490.4346
   490.8088 490.8088 491.3793 491.3793 492.0512 492.2470 492.2470 493.0422
   493.4401 493.4401 493.8726 494.0195 494.0195 494.9475 494.9475 495.3385
   496.3350 497.0936 497.1499 497.1499 497.8462 497.8462 498.1461 498.2005
   498.2005 499.6744 499.6745 500.1731 500.8174 500.8174 500.9155 503.9439
   504.0728 504.0728 505.4721 505.4721 505.8712 508.2284 508.9153 508.9153
   508.9991 509.1482 509.8137 509.8137 510.3730 510.3730 511.2615 511.2615
   512.1723 512.4654 512.4654 513.2773 513.2773 513.3955 513.5676 515.2712
   515.7247 515.7247 515.8589 515.8589 515.9614 516.1673 517.0525 518.0996
   518.0996 519.3675 519.3675 519.8877 520.1678 520.1678 520.6392 520.6392
   521.0849 521.0849 521.1296 522.4142 523.4476 524.1458 524.4775 524.4775
   526.0812 526.5140 526.5141 527.7332 527.7332 527.8745 527.9133 528.0866
   529.0203 529.0203 529.3185 529.4409 529.4409 530.4799 530.8134 530.8134
   531.0356 531.0356 531.4231 531.4231 531.5009 531.5062 531.5062 531.7942
   532.0453 532.1161 532.1161 532.8044 533.0218 533.0218 533.6067 533.6067
   533.6681 533.9320 533.9320 534.0315 534.2963 534.2963 534.4557 534.4557
   534.9425 537.2707 537.2707 537.6964 538.4078 538.4078 538.4837 543.7604
   544.3067 544.3067 546.4157 546.4157 546.5255 546.6205 546.6205 547.8044
   550.2263 550.2263 550.7065 550.9700 550.9700 551.0043 551.7341 551.7341
   551.8634 557.4963 558.7320 558.7320 560.9796 560.9796 561.1348 561.7325
   562.6139 562.6139 562.9095 562.9095 564.0870 565.0397 565.6610 565.6610
   567.4858 567.8673 567.8673 568.1866 568.2326 568.2326 568.3097 568.3097
   568.7922 568.7922 568.8576 569.0255 569.0272 569.0272 569.1220 569.7001
   569.7001 569.7814 570.9578 570.9578 570.9905 571.6929 572.3111 572.3111
   572.8967 573.0809 573.0809 573.9041 573.9041 574.9505 575.2264 575.2264
   575.3705 577.7976 577.7976 578.2538 578.3082 578.3082 578.4089 580.4568
   582.2079 582.3884 582.3884 583.7260 583.9303 583.9303 586.2052 586.3922
   586.3922 587.4191 587.9281 587.9281 589.5459 589.5459 589.6535 589.7111
   589.7111 589.8919 590.9370 590.9370 591.3160 593.0377 593.0377 593.2570
   593.4747 593.6871 593.6871 594.6596 594.6596 594.7019 595.4836 598.1704
   598.1704 599.4724 600.7124 601.0835 601.0835 602.1749 603.6471 603.6471
   603.6950 604.6948 604.6948 605.1873 605.1873 605.4210 605.7613 605.7613
   605.9771 605.9771 606.0642 606.0884 606.0884 606.2904 607.8413 607.8413
   608.0238 609.1086 609.1086 609.2558 609.7964 609.7964 610.0897 612.5368
   612.5368 613.2122 614.6485 614.9738 614.9738 615.6393 615.6393 615.8242
   615.9385 616.2743 616.2743 618.0341 618.0341 618.5942 619.7561 620.8426
   620.8426 621.4462 621.4462 622.2469 623.2483 623.2483 623.3476 624.3321
   624.3680 624.3680 625.1027 625.1492 625.1492 625.3174 625.3174 625.3711
   626.5977 626.5977 626.6963 626.8807 626.8807 626.8868 628.6431 635.1498
   635.1498 636.6834 637.5401 637.5401 638.7433 638.9635 638.9635 639.9710
   639.9710 639.9718 640.1175 640.9009 640.9009 641.2753 641.2753 641.5092
   642.0978 642.0978 642.7802 642.9470 642.9470 643.5749 643.5749 643.8848
   644.7507 644.8705 644.8705 645.4440 646.1956 646.1956 646.2739 646.2780
   646.2780 646.8212 652.0746 652.0746 652.1984 652.4561 652.4603 652.4603
   653.5040 653.5040 654.1213 654.9386 656.1336 656.1336 657.8246 657.8246
   657.8282 658.2692 658.2692 658.3564 658.4438 658.8835 658.8835 659.3543
   659.3543 659.7824 659.8135 659.8135 659.9411 660.7984 662.8083 663.3414
   663.3414 664.1694 664.1694 664.5357 666.4616 666.6449 666.6449 667.9207
   667.9207 668.0728 668.7241 668.7241 668.8546 668.8546 668.9850 669.0564
   670.1104 670.1104 670.5655 672.3641 672.4389 672.4389 674.1014 675.2768
   676.5148 676.5148 676.8328 676.8934 676.8934 677.1448 677.1448 677.3685
   677.6372 677.6372 677.8320 677.8320 677.9737 678.0133 678.9844 678.9844
   679.3438 679.7701 679.7951 679.7951 679.8316 679.8795 679.8795 681.9551
   681.9551 682.4390 682.4390 682.4579 682.4963 683.1480 683.1480 685.3090
   685.3090 686.1032 686.1560 686.1894 686.1894 686.5372 686.5372 686.6832
   689.2921 689.2921 689.4218 691.0996 691.0996 692.5417 694.8389 694.8389
   695.1878 695.7985 695.7985 696.1009 696.4714 696.4714 696.7894 696.8030
   696.8767 696.8767 697.2410 697.2410 697.3836 697.5032 697.5032 697.5379
   698.0710 698.0710 698.1514 698.8787 698.8787 699.0191 699.0532 699.0532
   699.3729 702.8712 708.5002 708.5002 710.9973 710.9973 711.6356 712.5934
   712.5934 712.8710 713.8736 713.8736 713.8849 714.2116 714.3553 714.3553
   714.4276 714.4276 714.4722 715.0603 715.3154 715.3154 715.4328 715.4328
   715.5607 716.1869 716.1869 716.3160 716.5321 716.6431 716.6431 716.9106
   716.9106 716.9690 716.9947 717.4255 717.4255 717.4599 717.4769 717.4769
   720.6261 720.6261 721.8112 721.9263 721.9263 721.9583 723.1283 723.1283
   723.2939 723.3362 723.3362 723.5617 723.8731 723.8731 723.9252 724.9233
   725.0330 725.0330 725.2087 725.2087 725.2663 729.5714 733.0349 733.2273
   733.2273 734.0511 734.0511 734.3340 734.3500 734.3500 734.7589 734.7589
   735.1363 735.1363 735.1477 735.2003 735.2003 735.2377 735.4494 737.8714
   738.3079 738.3079 739.5809 739.5809 740.0776 741.2154 741.2154 741.3255
   744.7295 746.1543 746.1543 746.9695 747.3330 747.3330 748.7284 749.2654
   749.2654 749.9528 749.9528 750.3394 750.6041 750.6201 750.6201 751.0784
   751.0784 751.1526 751.2408 751.4350 751.4350 752.0386 752.0923 752.0923
   752.4635 752.4635 752.4963 752.9104 753.6001 754.7141 754.7141 754.7592
   756.3014 756.3014 756.3126 756.3480 756.3553 756.3553 756.3778 756.3778
   756.4046 756.4132 756.4132 756.5259 759.1689 759.1689 760.2408 760.3354
   760.3354 760.3579 760.6302 760.6302 760.6411 760.9838 760.9838 761.0180
   763.4033 763.4033 763.4220 763.4220 766.3886 767.1884 767.1884 768.7930
   768.7930 769.7515 769.7515 770.1851 770.3746 770.8098 770.8116 770.8116
   770.9949 770.9949 771.2675 771.5100 771.5100 771.6625 771.6625 771.7095
   771.8139 772.0330 772.0330 772.3211 772.4096 772.8388 772.8388 773.2962
   773.2962 773.4218 774.0984 774.6092 774.6092 775.4560 775.4560 775.7753
   783.0025 783.0025 784.0350 785.6029 785.7285 785.7285 786.3944 786.8269
   786.9979 786.9979 787.2171 787.2171 788.0752 788.2972 788.2972 789.2168
   789.2652 789.2652 789.8911 789.8911 790.4148 790.4439 790.4920 790.4920
   790.6417 790.6417 790.6706 791.4146 791.4146 791.4440 793.0398 793.0398
   793.3285 793.3285 793.3425 793.5206 793.6963 793.7586 793.7586 795.6374
   795.6374 795.8814 797.2587 797.6972 797.6972 798.3438 798.3438 798.4348
   800.5462 800.5462 800.5485 800.8989 800.8989 800.9166 802.9982 803.4715
   803.4715 804.6690 804.6690 804.9090 805.3331 805.4687 805.4687 805.8188
   806.1109 806.1109 806.3607 806.4340 806.4340 807.5204 807.5204 807.8951
   808.1364 808.1364 808.2160 809.4677 809.9108 809.9108 811.7062 811.7062
   811.7329 812.0539 812.2778 812.2778 812.2951 814.7560 814.7880 814.7880
   816.6554 816.6554 818.3703 819.4697 819.4697 820.8715 820.8715 821.8107
   822.2384 822.2384 822.3622 822.6345 822.6345 822.8129 825.7820 826.5207
   826.5207 826.7017 827.4885 827.4885 827.7423 827.7423 827.7876 828.0093
   828.1337 828.1337 828.1770 828.5466 828.5466 828.5531 828.6154 828.6505
   828.6505 828.7112 828.7112 828.7548 829.5916 829.5916 829.6211 830.9574
   831.4095 831.4095 832.4174 832.4174 832.9310 836.5829 837.0969 837.0969
   837.9207 837.9207 838.0929 838.2493 840.4456 840.4632 840.4632 841.7402
   841.7402 842.1105 842.3522 842.3522 842.7449 843.4083 843.4083 843.5205
   843.6734 843.6734 843.6860 846.3822 846.4296 846.4296 846.6074 846.6562
   846.6562 848.9866 848.9866 849.0150 849.0261 849.0261 850.0938 850.0938
   850.1018 857.8669 857.8669 858.5127 859.5063 859.5063 859.6129 861.1551
   862.2415 862.2415 862.7126 862.8256 862.8256 863.0565 863.4010 863.4010
   863.4671 863.4671 863.5482 864.0149 864.0311 864.0311 864.1198 864.1198
   864.1572 865.0473 865.0473 865.1204 865.1204 865.2267 865.2683 865.3551
   865.3551 865.8064 866.1885 866.1885 866.4223 866.4669 866.4669 866.4884
   866.6228 867.8824 868.0167 868.0167 868.3055 868.3055 868.3430 868.6446
   868.6446 873.9559 873.9559 874.1750 874.1750 874.2218 874.2218 874.2865
   874.4702 874.6409 874.6409 874.6427 874.7706 876.1753 878.3203 878.3203
   879.2627 879.7227 879.7227 879.7469 879.8264 879.8264 879.8329 881.9504
   881.9504 882.6000 882.9550 882.9550 883.4950 883.4950 883.6395 883.6426
   883.7375 883.7375 884.3547 884.3890 884.3890 886.7715 886.7715 888.1897
   888.2780 888.2780 888.8210 889.2495 889.2495 889.4281 889.4705 889.4705
   889.4965 890.5872 890.6009 890.6009 892.6039 892.6039 893.2923 894.5402
   894.5402 894.7380 895.9300 895.9300 896.2478 896.5450 896.5450 897.0616
   897.2991 897.2991 897.3857 898.4206 898.8469 898.8469 898.9362 899.1379
   899.1379 899.9913 899.9913 900.0131 900.2817 900.4020 900.4020 900.5929
   901.6854 901.6854 901.8108 901.8616 901.8616 901.9788 902.1789 902.1789
   902.3303 902.3323 902.3323 902.6725 902.7851 902.7851 904.1473 904.1473
   904.1614 904.7751 904.7751 904.8034 904.8034 904.8226 904.8774 908.1614
   908.1614 908.2299 908.6219 908.6219 908.6409 908.8609 908.8609 908.8907
   909.1758 909.1758 909.3563 909.5608 909.5608 909.6709 909.7266 909.7627
   909.7627 916.0822 916.0822 916.4287 916.5231 916.5231 916.5328 916.7169
   919.7761 919.7761 919.9343 919.9343 919.9448 920.3463 920.4930 920.4930
   920.5614 920.9265 920.9265 920.9348 921.8694 921.8694 921.9966 922.0028
   922.0028 922.0204 928.2973 932.8899 932.8899 933.4879 933.9932 933.9932
   934.1012 934.3484 934.3484 934.3515 934.9132 935.2139 935.2139 935.9860
   936.0341 936.0341 936.8451 936.8451 936.9616 937.9928 938.0379 938.0379
   938.6639 938.6639 938.6755 939.2631 939.2631 939.3767 939.3767 939.3844
   940.1688 940.1688 940.3394 940.4184 940.4184 940.4295 941.3552 941.3552
   941.4013 943.0633 943.0633 943.4216 945.0023 945.2624 945.2624 945.4212
   945.7859 945.7859 945.8262 945.8262 945.8706 946.3512 946.3512 946.5415
   950.9160 952.5644 952.5712 952.5712 953.0464 953.0464 953.5752 953.5752
   953.6760 954.1785 954.1785 954.2161 954.4927 954.4927 954.6778 954.9339
   954.9593 954.9593 956.0111 956.0111 956.2774 956.8437 956.8437 956.8789
   957.0450 957.1135 957.1135 957.3310 957.3310 957.3718 957.8132 957.8132
   957.8766 957.9946 957.9946 957.9995 959.8645 959.8645 960.1841 960.1916
   960.1916 960.4185 964.0399 964.2196 964.2196 964.6350 964.6350 964.7755
   965.0199 965.0199 965.0390 965.0390 965.0530 965.0942 965.6067 966.9987
   967.6127 967.6127 969.8722 969.8722 970.4522 971.9558 971.9558 972.9561
   972.9561 973.0901 973.1542 973.1542 973.3047 974.1181 974.1181 974.4313
   974.7810 974.8928 974.8928 974.9254 974.9254 975.1868 975.4988 975.4994
   975.7838 975.7838 975.9141 975.9141 975.9431 976.0927 976.0927 976.5448
   976.5448 976.5627 976.8246 976.8246 976.9771 976.9771 977.1402 978.4341
   978.5318 978.5318 978.5496 978.6826 978.6826 978.6949 979.6494 980.1405
   980.1836 980.1836 980.4159 980.4159 981.5634 981.5634 981.7323 982.5195

          k = 0.5000-0.5000 0.5000 (  5444 PWs)   bands (ev):

   -40.1512 -40.1502 -12.4594  -0.0146   2.2608   2.2608  11.7573  12.3008
    14.6638  14.6638  20.2907  20.2907  25.1898  27.3374  27.8043  27.8043
    31.2000  35.2538  35.2538  39.3224  41.1328  41.1328  42.6976  42.6976
    44.9070  46.3416  51.3148  51.3148  53.4214  53.4214  56.2535  57.0515
    57.0515  57.9754  58.5177  59.8939  60.1096  60.1096  65.6224  67.4564
    67.4564  73.5516  74.2622  76.3679  76.9533  76.9533  80.3739  80.3739
    82.2571  82.2571  82.2711  82.2711  82.7743  85.1698  85.1698  87.2246
    88.6034  90.6796  90.6796  93.4490  93.4490  95.4359  96.4097  96.4097
    98.1897  98.1897  98.2654  98.2654  98.9675  99.1437  99.8716 103.2792
   106.8215 106.8215 110.7228 110.7228 112.0626 112.0626 112.4994 114.4638
   117.9524 117.9524 119.8369 120.4727 122.8315 123.5251 123.5251 124.2952
   124.2952 126.1747 126.1747 126.9892 127.6851 128.9739 131.5825 132.5888
   132.5888 135.3546 135.3546 135.5683 136.7752 136.7752 137.7481 137.7481
   138.3755 138.7282 138.7282 139.7189 142.3232 144.6705 144.6705 146.8852
   146.8852 147.0486 150.2314 152.8354 152.8354 152.9283 152.9283 153.3118
   153.5297 155.7690 155.7690 157.6401 158.7099 160.8159 160.8159 161.4938
   162.8561 163.1717 163.1717 163.4478 163.4478 164.4517 164.8700 164.8700
   166.7413 166.7413 167.2474 170.1814 173.0980 173.0980 173.1390 174.5260
   174.6036 174.6036 180.3031 180.3031 180.3994 180.3994 181.6802 181.6802
   181.9311 181.9311 182.4698 182.5031 183.2758 183.9928 183.9928 187.4368
   187.4368 188.2010 193.2266 193.2266 193.3377 193.3377 194.2877 194.5230
   195.5088 197.8577 197.8577 197.9135 203.2976 203.9986 203.9986 204.8846
   204.8846 206.2221 206.2828 206.2828 207.0289 207.8082 207.8082 211.3509
   211.4090 213.4603 213.4603 215.8148 216.1867 216.6723 216.6723 217.8361
   217.8836 217.8836 219.6192 220.2517 220.2517 221.7248 221.7248 221.8893
   221.8893 222.0131 222.0131 222.0683 222.3379 222.3379 222.4798 222.4798
   222.6709 222.9391 224.8117 224.8117 229.7443 230.1713 230.1713 230.5882
   231.1139 233.4424 233.7045 233.7045 233.7149 233.7149 234.8072 235.5678
   235.5678 236.6682 236.6682 237.0766 239.3324 243.6290 243.6290 243.7533
   244.9889 244.9889 245.5895 246.2746 248.6553 248.6553 249.9850 249.9850
   250.3057 250.6688 251.0000 251.0000 251.7777 253.9701 254.3712 254.3712
   256.9706 259.0471 259.0471 259.5899 259.9438 259.9438 260.8904 261.0812
   261.0812 262.3863 262.7403 262.7403 265.1273 265.1273 265.1500 265.4178
   265.4178 265.6724 265.7262 271.5985 271.5985 272.2766 273.0471 273.0471
   273.9171 278.5441 280.4381 280.4381 281.9305 283.5896 283.5896 285.7156
   285.7156 286.3205 286.9778 286.9778 287.5050 287.5874 287.5874 288.1061
   288.3124 288.3124 290.1174 290.6953 291.0128 291.0128 291.1214 291.1214
   291.5032 291.5032 291.8434 291.8591 291.8591 292.0306 292.0357 293.5472
   293.5472 295.6593 297.5445 298.1207 298.1207 300.3735 300.3735 300.9563
   300.9563 301.6192 301.8209 301.9528 301.9528 302.2033 302.2033 302.7280
   305.4165 305.4165 305.5457 305.5505 305.5505 305.6434 306.0621 306.0621
   306.0731 306.0731 307.4685 307.4816 309.3233 310.6808 313.4088 313.4088
   314.8796 315.9183 315.9183 317.1733 319.8023 319.8023 319.8319 319.8319
   321.5893 322.2103 322.2103 324.6394 325.8098 325.8098 327.3473 327.4383
   328.2105 328.2105 328.5192 328.5192 332.0721 332.1112 332.1112 332.1672
   332.1672 332.4429 333.7099 333.7099 333.7112 333.7112 334.1222 334.1584
   334.5712 334.5712 339.2548 339.2548 339.5251 339.6712 341.9027 342.5136
   343.1530 343.1530 343.1568 344.3472 344.3472 344.7766 344.7766 345.1788
   345.4321 345.4321 345.4575 345.4575 345.7788 346.5958 346.5958 346.8629
   349.4011 349.4011 352.5143 353.9106 354.8518 354.8518 356.9305 357.7715
   357.7715 357.7942 358.4565 358.6426 358.6426 358.9902 359.1822 359.1822
   359.8405 359.8405 359.8556 365.8140 368.4967 368.4967 369.0606 370.4790
   370.4790 371.3215 371.4312 371.4312 372.0199 372.0199 372.2120 372.8830
   373.1853 373.1853 373.2126 373.3627 373.3627 373.5947 375.4015 375.4015
   376.2942 376.2942 376.3722 376.3722 379.2780 379.2780 379.3710 379.8738
   382.4969 384.0318 384.3276 384.3276 384.5575 385.6783 385.6783 385.7637
   385.7637 386.5056 386.8225 386.8225 387.0412 387.0412 387.2745 387.8210
   387.8210 388.2385 390.1749 390.4413 390.4413 390.9013 390.9013 391.0981
   391.1314 393.0942 393.0942 395.4869 395.4869 396.3025 399.3199 401.9241
   401.9241 402.4007 402.4007 402.7257 402.7705 405.8563 405.8563 408.9337
   409.1711 409.3803 409.3803 411.5400 412.0952 412.0952 412.5441 412.6079
   412.6079 412.8557 413.0040 413.0040 413.1267 413.1267 413.5060 413.7075
   414.5179 414.5179 414.5223 414.5223 415.0117 415.1050 417.6476 417.7942
   417.7942 421.8792 421.8792 422.7785 423.3628 423.3628 423.4435 424.0292
   424.0292 424.5266 424.9607 424.9607 425.5406 425.8614 425.8614 426.6374
   427.8696 428.7161 430.0417 430.0417 430.0507 430.1984 430.1984 430.3034
   430.3034 430.3439 430.3439 430.4452 430.5487 430.5487 430.8035 430.8035
   430.8639 430.8746 431.0324 431.0324 431.3181 431.3181 431.3339 431.5791
   435.3165 436.2654 436.2654 438.2939 438.2939 439.3709 439.5524 439.9774
   439.9774 440.2987 440.2987 441.5664 441.6488 441.8213 441.8213 441.9745
   441.9745 444.2244 444.6495 444.6495 444.6927 444.6927 444.8083 444.8142
   452.3503 452.3503 453.7548 453.9270 454.3921 454.4518 454.4518 455.7967
   455.9406 456.2474 456.2474 456.3603 456.3603 462.1071 464.1110 464.1110
   465.7112 465.7670 465.7670 467.8746 467.8746 468.8331 468.9199 468.9199
   469.1836 469.7149 469.8513 469.8513 469.9047 469.9047 470.0212 470.0212
   470.0699 470.0699 470.4855 470.4958 472.5267 472.5267 472.5552 472.5552
   474.1204 474.1259 476.5483 476.5483 476.5567 479.3913 479.7819 480.6559
   480.6559 481.0663 481.0663 481.1804 481.1804 483.4329 486.2663 486.2663
   486.2933 486.2933 486.6620 486.6696 487.7155 487.7155 487.8977 489.6510
   491.6576 491.6576 491.7009 493.3603 493.3703 495.4920 495.4920 495.7528
   496.2470 496.2470 497.9141 498.0899 498.0899 498.2512 498.2512 499.0085
   499.0155 499.0155 499.6863 500.1736 500.1736 500.2109 500.2109 503.9368
   503.9368 504.9947 504.9947 506.1560 506.1560 506.9615 507.3966 508.0145
   508.9695 509.1039 509.1039 509.3637 509.5664 509.5664 510.1538 510.1538
   510.3097 510.3739 510.3739 510.5237 511.0449 511.7237 511.7237 512.0509
   512.3735 512.3735 512.4302 512.5212 512.5672 512.5672 512.5815 512.5815
   514.2972 514.2972 514.3537 514.3637 514.3637 514.4286 515.1652 515.1652
   515.1901 515.1901 515.2509 515.2613 520.8028 520.8028 522.9062 523.3780
   523.3780 524.8749 525.5974 525.8280 525.8280 525.8410 525.9588 525.9588
   526.0442 526.0442 526.1230 526.3533 526.4869 526.4869 531.1538 532.7685
   532.7685 535.2091 535.6791 535.6791 535.7963 535.7963 536.0035 536.0035
   536.0092 537.0717 537.1932 537.3238 537.3238 537.5519 537.5519 537.6595
   538.7312 539.6344 539.6344 540.9110 540.9110 541.2588 541.5116 541.8413
   541.8413 541.8752 541.8752 541.9011 541.9011 541.9498 541.9758 542.1304
   542.1304 542.2192 543.7309 547.0441 547.0441 549.8663 550.4810 550.5993
   550.5993 551.4429 551.4429 551.5858 551.6305 551.6305 552.1241 552.8348
   552.8348 552.9535 552.9535 552.9824 552.9871 553.0881 553.0881 553.2458
   553.2458 553.6198 558.5325 560.3243 561.0287 561.0287 562.2245 562.3602
   562.3602 564.2596 569.4098 569.4178 569.4178 569.4190 569.4190 569.4785
   569.6517 569.6517 569.6901 569.6901 570.7467 573.7129 573.7129 576.1028
   577.0521 577.0521 577.1989 577.1989 577.5706 577.6152 577.6152 578.7877
   580.2601 580.3749 580.3749 580.4222 580.4222 580.8255 580.9297 580.9297
   580.9624 581.0290 581.0290 581.0347 581.0347 581.2895 581.2895 581.3110
   581.6065 581.7474 583.5205 583.5455 583.5455 583.6445 583.6445 583.7139
   585.5879 586.7594 586.7594 588.6168 588.6168 589.3876 590.0598 590.2923
   590.2923 590.6551 590.6551 592.7890 594.4783 595.6815 596.0178 596.0178
   596.3155 596.3155 597.0948 597.0948 597.1151 597.1151 597.1348 597.1818
   597.3554 597.3628 597.3628 597.3927 597.3927 597.4600 601.0580 603.2087
   603.2087 604.6672 604.6672 604.8165 606.0385 606.0385 606.4931 606.7184
   606.7184 607.5188 607.5188 607.5235 607.5235 607.6340 607.7230 607.8762
   610.8467 610.8467 610.8595 610.8595 611.3522 611.3575 615.7554 618.2998
   618.2998 618.9998 620.1384 620.4527 620.4527 620.8248 621.4449 621.8016
   621.8016 621.9101 621.9968 621.9968 622.1993 622.2649 622.2973 622.2973
   622.6314 622.6314 623.0592 623.0592 623.1043 623.1043 623.4080 623.5743
   626.1051 626.1051 626.7737 629.3657 629.3657 630.2978 631.0455 631.0455
   631.3227 631.3893 631.3893 632.7246 633.6222 633.6222 633.6935 633.6935
   634.2932 634.3351 635.3105 635.7513 636.1522 636.1522 636.3614 636.3614
   636.3774 636.3945 636.7370 636.7370 636.7851 636.7851 638.5790 638.6185
   638.6185 638.6387 638.6413 638.6413 639.0924 639.0979 639.1200 639.1200
   639.1514 639.1514 639.5196 639.5196 639.5625 639.5625 639.7694 639.7890
   646.1917 647.6930 647.6930 648.9210 648.9210 649.1495 650.3597 650.3597
   650.4386 650.4386 650.8545 650.9163 650.9324 650.9600 651.3785 651.3785
   651.4561 651.4561 654.6614 654.6614 658.3615 658.3980 658.3980 659.2981
   662.1326 662.7208 662.7480 662.7480 662.8893 662.8893 662.9462 663.8025
   663.8025 663.9583 663.9583 664.2493 664.2645 665.9921 665.9921 666.0959
   666.4173 666.4173 666.5005 666.7259 666.7793 666.7793 666.7861 666.7861
   666.8510 667.4228 668.2444 668.2444 671.5976 671.5976 671.6096 671.6096
   671.7471 671.7755 671.7755 673.8092 675.6083 675.6644 676.0045 676.1215
   676.1215 676.8451 676.8451 677.4830 677.5134 677.5947 677.5947 677.6036
   677.6036 677.8528 677.8528 678.1019 678.1019 678.1272 679.4639 679.4639
   679.5041 679.7832 679.7855 679.7855 680.0837 680.0837 680.1137 680.1137
   680.2002 680.2112 682.4899 682.4899 682.4906 682.4906 683.4137 683.4171
   687.3375 687.3375 689.0503 689.1106 689.1106 689.6285 692.2932 692.3380
   692.3380 692.5958 692.6026 692.6026 699.6250 699.6250 701.5465 702.6876
   702.6876 703.5496 703.7643 704.5774 704.5774 704.9583 704.9583 705.1162
   705.3720 705.3765 705.3765 705.4138 705.5229 705.5229 705.8841 706.0239
   706.0239 706.1023 706.1023 706.1309 706.1309 706.1324 706.2430 706.2430
   706.2591 706.3333 706.3333 706.3759 706.3816 706.5190 706.5943 706.5943
   707.7690 712.0617 712.3182 712.3182 715.1601 715.5987 715.5987 715.6006
   715.8684 715.8684 715.8915 715.9789 715.9789 716.7889 716.8197 716.9455
   716.9455 717.5283 717.5283 717.6792 717.8169 717.8169 717.8291 718.1192
   718.1192 718.2707 718.8225 719.0374 719.0374 719.1737 719.1737 719.2537
   721.4004 721.4004 721.4920 721.8728 721.8728 722.0213 722.1602 722.1602
   722.1612 722.1612 722.4524 722.4900 722.5123 722.5552 722.5552 722.5829
   722.5829 722.6428 722.6428 722.8010 722.8010 722.8524 729.7997 729.7997
   730.1118 730.6446 730.6446 730.6937 736.2549 736.2549 736.2613 736.2670
   736.2670 736.2727 743.6351 743.6351 743.9754 745.6215 745.6215 745.8075
   745.8075 745.8409 745.8409 745.8651 745.9373 746.3086 747.5106 747.5106
   747.6762 747.7069 747.9725 747.9725 748.0832 748.0832 748.1011 748.1011
   748.1326 748.1628 756.0908 756.0908 758.1922 759.3636 759.4042 759.4042
   760.1953 760.3335 760.3335 760.3413 760.3413 760.5832 760.6412 760.6576
   760.6576 760.8906 761.3054 761.3054 761.3529 761.3529 761.5366 761.8720
   761.8720 761.9182 762.0759 762.2697 762.2697 762.6023 762.6023 762.7089
   764.5279 768.6078 768.6078 770.3304 770.3304 770.4224 770.6628 771.3880
   771.3880 771.4060 771.5920 771.5920 772.9513 773.2258 774.1115 774.1115
   774.2853 774.2853 774.8576 774.8576 774.9667 774.9667 775.0358 775.1123
   775.1816 775.1816 775.2404 775.2752 775.2752 775.4743 778.1412 778.1543
   778.1543 778.1549 778.1549 778.1731 779.7586 781.4499 781.4499 782.5058
   782.8796 782.8796 783.2895 783.2895 783.7457 783.7457 783.7716 784.3796
   787.0403 787.0403 787.2730 787.3738 787.5560 787.5560 788.2769 788.5811
   788.5811 788.6623 788.6623 788.7289 789.2016 789.2016 789.2578 789.2876
   789.3161 789.3161 790.8823 790.9259 790.9259 790.9964 790.9964 791.0954
   791.5965 791.6157 791.6681 791.6697 791.6697 791.7115 791.7115 791.7581
   791.7598 791.7598 791.7657 791.7657 793.9922 795.4353 797.6426 797.8392
   797.8392 798.4366 798.5609 798.5609 799.9834 799.9834 800.2599 800.2599
   800.3275 800.3275 800.4847 800.4847 800.5162 800.5871 800.8768 800.9187
   804.7593 804.7637 805.2655 805.2655 805.2732 805.2732 805.6490 805.6490
   805.6561 805.6561 805.9220 805.9220 805.9280 805.9285 805.9285 805.9577
   806.1057 806.1057 806.1126 806.1126 806.4255 806.4334 812.1807 812.1807
   813.0915 813.1643 813.1643 813.7966 814.5116 815.0720 815.0720 815.4311
   815.4311 815.5486 816.2380 816.2380 816.3072 816.3072 816.4654 816.4709
   817.0680 817.0941 817.2380 817.2380 817.2801 817.2801 819.4193 819.4193
   819.4206 819.4305 819.4305 819.4701 824.4826 826.2106 826.4880 826.4880
   826.7161 826.7161 830.4476 830.6486 830.7499 830.7499 830.8305 830.8305
   830.9107 830.9107 830.9259 830.9259 831.0432 831.0628 833.2072 833.2072
   833.2131 833.2131 833.6136 833.6192 837.8279 837.8279 838.5282 840.0873
   840.0873 840.4311 840.4981 840.4981 840.5047 840.5460 840.5460 840.6694
   841.8830 842.7033 842.7776 842.7776 842.8560 842.8560 844.5883 844.5883
   844.6264 844.6701 844.6984 844.6984 845.0947 845.0947 845.1104 845.1104
   845.4283 845.4371 845.4371 845.4604 845.4678 845.4678 845.5051 845.5784
   845.6225 845.8227 846.0400 846.0400 846.1849 846.1849 846.3969 846.3969
   846.6231 846.6458 846.7433 846.7433 847.1592 847.1592 847.1693 847.1929
   847.1929 847.2325 853.6216 853.6216 854.6270 854.6270 854.6554 854.8796
   856.5852 856.9491 858.8103 858.8103 858.8350 858.8350 861.1554 861.1554
   861.1750 861.1750 861.1785 861.2038 866.4661 866.5493 866.5493 867.2543
   867.2543 867.4100 870.9038 871.1919 871.3439 871.3439 871.4130 871.4130
   871.4186 871.4341 873.5303 873.5685 873.5685 873.7489 873.8109 873.8109
   875.8914 875.8914 876.4715 876.4715 876.4839 876.4948 876.4948 876.5037
   879.2675 879.4983 879.4983 879.8872 880.5882 881.4341 881.4341 882.0492
   882.0492 882.3401 885.0987 885.1364 885.1364 885.3792 885.3792 885.4251
   885.8818 885.8818 885.9379 886.0856 886.0856 886.0952 887.9218 887.9218
   888.0683 888.1149 888.1149 888.1350 889.0712 889.0723 889.0723 889.0930
   889.0930 889.1120 894.6989 894.6989 896.3056 896.8837 896.8837 897.3525
   897.5788 898.2570 898.7545 898.7545 898.8503 899.0239 899.0239 899.1411
   899.1411 899.4756 899.4757 899.7921 900.3987 900.3987 900.4017 900.4017
   900.5080 900.5265 900.9400 900.9400 900.9662 901.0479 901.0479 901.2077
   906.3873 908.0506 909.1787 909.1787 909.6210 909.6210 911.4436 911.4436
   911.8311 912.3905 912.3905 912.4000 913.1419 913.1419 913.2579 913.2592
   913.2592 913.3805 913.6119 913.6859 913.6859 913.8809 913.8809 913.9562
   913.9562 914.0774 914.1025 914.1149 914.1149 914.1634 914.3239 914.4178
   914.4178 914.4923 914.4985 914.5256 914.5256 914.5723 914.5723 914.6386
   914.6830 914.6830 915.0077 915.0197 915.0197 915.0287 915.0287 915.0535
   916.4995 916.4995 916.5020 916.5020 917.0484 917.0502 919.8812 920.9013
   921.9112 921.9112 922.9940 923.2781 923.2781 923.2841 924.1614 924.2270
   924.2270 924.2651 924.2651 924.4799 925.9413 925.9577 925.9577 925.9755
   925.9869 925.9869 926.3814 926.3814 926.3897 926.3897 927.5104 927.5104
   927.5259 927.5597 927.5597 927.6816 929.5198 929.5198 929.7357 929.7612
   929.7612 929.8568 930.6425 930.6598 930.6598 930.6985 930.6985 930.7413
   930.8798 930.9513 930.9513 930.9953 930.9953 930.9981 931.2873 931.2873
   931.2901 931.2901 932.7303 932.7305 937.0741 937.9284 937.9284 937.9296
   938.1436 938.1436 941.9906 942.1704 942.1704 942.1798 942.1798 942.1990
   944.6866 944.6866 944.6986 944.6986 944.7757 944.7782 951.4704 951.4704
   952.0526 952.0526 952.0843 952.2662 955.1166 955.1166 955.3171 955.3171
   955.3303 955.3378 955.3440 955.3540 955.3540 955.4289 955.4289 955.4725
   958.6368 958.6389 958.6389 958.6675 958.6675 958.6835 961.9219 961.9219
   963.4149 964.2131 964.3662 964.3662 966.0453 966.0453 966.1709 966.1709
   966.3482 966.6554 967.0271 967.5142 967.5627 967.5627 967.9122 967.9122
   968.9269 969.0522 969.0522 969.1164 969.1164 969.1181 969.1181 969.2359
   969.4813 969.4834 969.4834 969.6141 969.7409 969.7409 969.8441 970.0699
   970.0699 970.2013 970.3053 970.4272 970.4272 970.6467 970.7420 970.7420
   970.8169 970.8169 970.8502 970.8658 970.8658 970.8881 971.1419 971.2516
   971.2516 971.3707 971.3707 971.4455 974.8857 975.5266 981.9166 981.9166
   982.3043 982.5364 982.5364 982.6194 982.9722 982.9722 982.9770 982.9770
   983.1015 983.1082 983.2921 983.4078 983.5314 983.5314 983.5378 983.5378
   984.0683 984.0683 984.0761 984.0761 984.1064 984.1303 986.1077 986.1077

          k = 0.0000 0.3333 0.0000 (  5409 PWs)   bands (ev):

   -40.2859 -40.0309 -12.6119   2.0701   2.3217   2.3217   8.5195  14.7829
    14.7829  15.2784  17.5004  23.2084  23.2084  24.6148  25.6990  29.6227
    29.6227  31.7133  32.6539  33.4764  43.0032  44.5986  44.5986  49.4307
    49.6453  52.0647  52.0647  54.5105  55.9136  56.7914  56.7914  59.2292
    60.4875  60.4875  61.1706  62.4486  62.4486  64.6621  65.6601  66.7848
    66.8467  68.0750  69.2610  69.2610  70.4773  70.6739  70.6739  76.1398
    76.1398  76.8122  76.9067  77.2698  80.7484  83.3470  83.9567  83.9567
    85.1056  87.1834  87.5568  87.5568  91.9336  92.8484  92.8484  96.0326
   100.0250 103.9118 103.9383 103.9383 109.1958 110.0583 110.0583 111.0529
   113.6338 113.6654 113.8605 113.8605 116.3069 116.3069 116.8189 118.5025
   119.1643 119.2757 121.2295 121.2295 121.4861 122.4963 123.4328 123.4328
   124.2329 129.7332 130.8890 131.1938 131.1938 131.6114 132.2272 133.2210
   133.2210 135.4673 135.6452 135.6452 135.8543 135.9931 135.9931 137.8571
   138.9293 139.5889 139.5889 140.8748 141.1366 141.3518 143.9579 143.9579
   144.8241 145.3374 146.3387 146.3387 146.4806 147.6044 149.8130 150.9565
   151.9220 152.4122 152.4122 152.9403 152.9403 153.9625 155.0115 158.6207
   158.6207 159.3834 159.9777 160.1559 160.1559 164.1447 164.1447 165.4487
   168.0763 168.9711 170.1850 171.0039 171.0039 172.1841 172.1841 172.4477
   173.5503 174.1899 174.1899 174.3572 175.7401 178.5235 178.8159 178.8159
   180.5178 182.6157 184.2562 184.2562 184.2651 185.5532 185.5532 185.9262
   186.2686 187.9496 190.4041 191.7023 191.7023 192.1967 193.6413 193.6413
   195.8628 197.5020 198.7120 201.1954 202.0528 202.0528 203.7185 206.3128
   206.3128 210.0876 210.3257 210.3257 212.6440 212.7339 212.7339 214.4156
   214.6811 215.5150 216.6834 216.6834 216.7429 218.1813 219.6298 220.8676
   221.1032 221.1032 222.2279 222.7428 223.5205 223.5205 225.3375 225.3375
   226.3407 227.7912 227.9564 228.1371 228.1371 228.4184 228.7914 228.9878
   228.9878 229.9664 230.3090 231.9659 232.4185 232.4185 234.1835 234.2828
   234.2828 234.3666 235.8312 236.8057 236.8057 237.0819 239.3817 240.1700
   240.1700 240.1901 241.7776 242.2920 243.1443 243.1443 243.4061 244.0014
   244.0388 244.0388 245.1780 246.2423 246.2423 247.3362 249.1285 249.1285
   250.0042 250.0186 250.1239 251.0177 251.1581 251.1581 254.0525 254.8441
   254.8441 256.0638 256.7268 256.7268 256.7356 259.0068 259.2581 260.6091
   260.6091 261.1257 261.1694 261.5109 262.1345 262.7300 262.7300 262.7818
   262.7818 265.1167 265.1167 265.1681 265.1969 265.4437 268.7198 268.7198
   268.8572 269.8568 270.2313 271.3340 271.3340 271.3763 271.5958 272.1708
   272.1708 272.3338 273.0203 274.9572 274.9572 275.5419 276.4099 279.0916
   279.0916 279.2576 279.8437 280.8781 280.8781 280.9745 281.3545 284.5357
   285.0027 285.0027 288.0725 288.8184 289.5450 290.6508 290.6508 291.0694
   292.3418 293.9343 293.9343 294.4886 299.8955 299.8955 302.8448 304.0412
   304.0492 304.0492 304.3163 304.4993 304.5701 304.5701 306.4714 307.0778
   307.6802 308.0085 308.0085 309.0736 309.8999 309.9940 310.4734 310.4734
   310.8037 314.5146 314.5146 314.5254 314.6207 315.3513 315.3513 317.9551
   317.9551 318.9292 319.2885 319.3613 321.0125 322.6293 322.6293 323.6228
   326.4521 326.5526 326.5526 327.7820 327.7820 328.7926 329.0761 329.8758
   329.8758 331.9359 334.3501 336.2635 336.3628 336.3628 337.4281 337.4281
   337.8924 338.6728 339.9129 340.4208 340.9470 341.3370 341.3370 342.3343
   342.7816 342.7816 343.6148 345.4619 346.6673 346.6673 347.4494 347.4494
   347.5290 349.7614 350.6133 350.8123 351.2968 351.2968 351.5534 351.5534
   351.6674 351.9096 353.5164 354.0995 354.2914 354.6040 354.6040 355.2639
   356.2258 356.2258 356.8309 356.8705 356.8705 356.9616 357.3452 358.4549
   359.2841 359.2841 360.0325 362.1092 362.3510 362.8991 362.8991 363.0865
   363.6987 363.6987 364.4448 364.4735 364.9306 367.9867 367.9867 368.0692
   369.0349 369.0349 369.5680 369.5680 369.9308 370.3231 371.0238 372.4077
   372.4077 372.5306 373.1484 373.4309 373.7078 374.3455 374.3455 374.8100
   374.8100 374.8379 374.8507 375.1024 375.3478 375.3478 375.3803 375.3948
   377.2606 381.0790 381.0790 381.5404 381.8113 381.8113 382.2853 382.4594
   382.4594 382.5194 383.5079 383.6299 383.6299 384.9778 385.2734 386.3479
   387.0011 387.0011 387.6639 387.6639 388.0721 388.1827 389.6482 389.8236
   389.8236 389.9544 391.5946 392.0009 392.0009 392.2830 392.7085 395.2261
   396.7474 396.7474 397.2348 397.9723 397.9723 398.3702 398.8228 399.1082
   399.1082 399.2028 399.2422 400.0832 400.2727 401.3342 401.3342 401.9504
   403.4210 404.4902 404.5296 404.5296 406.5632 406.5632 406.8873 406.8873
   407.0039 407.0815 407.3691 408.5865 411.7359 411.7605 411.8997 412.3307
   412.3307 412.9631 412.9631 413.4693 416.9305 416.9305 416.9560 417.0870
   417.2171 417.5145 417.5145 417.7791 420.3685 422.1182 422.1182 423.2146
   423.5693 423.7555 424.5939 424.5939 426.4184 428.5248 428.5248 428.6626
   428.7372 429.5228 429.5228 429.5448 430.3750 430.6168 430.6168 431.0095
   432.4394 432.8550 432.8550 433.9168 434.9479 434.9479 436.4145 437.7984
   437.7984 437.9694 438.0039 438.3922 440.0212 440.0212 440.6565 442.0679
   442.4431 442.4431 443.1839 443.3382 445.4497 446.3781 446.6901 446.6901
   447.6713 449.9320 449.9320 450.0766 450.1587 451.0691 451.0691 453.3717
   454.4077 454.8641 454.8641 458.2571 459.5822 460.3007 460.3007 462.3072
   462.3072 462.4876 463.7093 464.8425 465.2074 465.6696 465.6696 466.2198
   468.0997 468.0997 468.5019 469.8619 471.2683 471.2689 471.2689 471.7490
   471.7833 473.6997 474.5318 475.6031 475.6031 475.9525 476.0694 476.1567
   476.1567 476.8651 477.6844 477.6844 478.6597 479.2144 479.2144 479.3783
   479.5619 479.5619 480.1798 481.3971 483.6550 483.7420 484.1575 484.1575
   484.8302 485.9275 486.6056 486.6056 486.6500 486.6765 486.9125 487.1078
[...]
   943.3964 943.4398 943.7586 943.7872 943.8930 943.9265 944.1020 944.1162
   946.0031 946.1368 946.6540 946.8003 948.0131 948.0151 948.0850 948.1048
   948.7976 949.1958 950.0108 950.0227 950.4915 951.4230 952.1743 952.2231
   952.4554 952.5053 952.8944 952.9442 952.9466 953.0023 953.1692 953.1867
   953.2838 953.3145 955.7702 955.8758 956.0346 956.1692 956.5826 957.5871
   957.6960 961.9487 962.0385 962.1283 962.1357 963.1107 963.1871 963.3699
   964.3733 964.4193 964.7343 964.8203 965.1094 965.1903 966.2644 966.3309
   967.0431 967.0529 967.4915 967.4962 968.1640 968.4568 968.7621 968.9736
   969.1281 969.1391 969.9362 969.9732 970.2485 970.3417 970.7477 970.7742
   970.9397 970.9497 971.7316 971.7434 972.5541 972.7259 972.8172 973.9930
   974.0421 974.8832 975.0847 975.2945 975.4218 975.5863 975.5902 976.0722
   976.1240 976.1560 976.1744 976.2154 976.2482 976.4732 976.7126 976.7163
   976.9773 977.0091 980.3159 980.4359 980.5711 980.6302 980.6993 980.7334
   981.1554 981.1827 982.3535 982.4777 984.7707 984.8981 985.4488 985.4594
   986.4338 987.0471 987.0718 987.2360 988.0781 988.0783 988.2375 988.3864

          k =-0.3333-1.0000 0.0000 (  5424 PWs)   bands (ev):

   -40.1712 -40.1212 -12.4047   1.0271   1.1765   1.2954   9.0715  13.8709
    16.2789  16.8227  19.3121  22.4589  24.3672  26.4368  28.4069  28.7443
    33.7569  35.7610  36.1048  37.0765  39.6803  41.2860  41.3121  42.1870
    42.2549  45.5955  46.5124  50.8687  51.8564  53.8856  54.0643  55.0068
    56.1678  56.7294  58.4431  64.4804  64.9867  65.1594  66.6298  69.2933
    70.1070  72.5892  72.9472  74.2868  75.1011  77.5878  77.9968  78.2809
    82.0278  82.0765  82.4725  83.5219  84.5033  86.9735  87.0572  87.9726
    88.8889  90.9248  92.7159  93.0088  93.3131  94.6109  97.3086  98.1874
    98.8855 100.8892 101.6789 101.8404 103.3686 103.6857 104.5693 104.7364
   106.2219 107.9338 108.9260 108.9569 110.4396 111.0000 111.8498 112.6032
   115.2753 115.6919 116.8817 117.0880 119.4738 119.6065 120.1397 120.5014
   122.6229 122.7299 123.5906 124.4129 125.8211 126.3635 127.6341 129.0052
   129.3735 129.9146 130.0225 130.6505 130.9960 132.2305 132.4537 132.8912
   138.1160 140.6190 141.2644 143.2874 145.7809 145.8995 147.3388 148.3953
   150.6601 151.9433 152.6938 154.8544 154.8748 156.6848 157.8591 158.9579
   159.0630 159.4639 159.6867 160.3646 160.5594 161.0857 163.9134 163.9961
   164.0714 165.2042 165.8828 167.5490 168.9025 168.9882 169.2106 169.3056
   170.8866 170.9502 172.9065 173.3525 173.3821 173.7471 175.6103 175.7905
   176.8369 177.6192 178.0836 178.4381 179.6691 180.0509 181.2683 181.3559
   182.6252 182.9297 183.8995 184.2302 184.5471 185.6611 186.6346 187.4216
   187.9888 189.7181 191.7563 192.1064 192.7052 194.2026 194.3370 195.5166
   195.5511 195.7338 195.9617 196.3149 197.8935 198.4212 198.4602 199.4096
   200.3273 201.6242 203.0977 203.6439 203.6516 204.7338 204.8956 205.1781
   206.5491 206.9723 207.2273 207.7033 208.0817 208.7976 210.6637 210.6999
   211.1377 212.2152 213.4861 213.8923 214.0106 214.7688 215.2636 216.0020
   216.4297 217.1828 219.2814 219.6018 220.0423 223.9506 225.4256 225.9086
   226.3244 226.7558 228.3273 228.6222 231.1128 231.9460 231.9680 233.3165
   233.9321 234.7762 236.6312 236.7870 239.2535 239.5357 239.6128 240.2462
   240.6400 242.2340 242.8568 243.7688 243.8923 245.4950 245.5656 245.6740
   246.9092 247.1281 247.8244 248.3529 248.6035 248.8310 249.7830 250.8530
   251.6287 252.2618 253.0863 254.1476 254.7141 255.5089 255.9802 256.9859
   257.2819 257.6940 258.9655 260.4161 260.7001 261.0492 261.4689 261.7505
   262.2757 263.7204 263.7904 265.5213 266.4765 266.8646 267.4076 268.2540
   269.9045 270.1798 271.7544 272.5163 272.7410 272.9660 273.9614 275.8895
   276.7202 277.6324 278.0126 278.7711 279.1994 280.0502 280.2992 280.5096
   280.7071 280.9042 281.6755 283.4116 283.6351 284.9189 285.2707 286.2063
   286.5777 287.2658 287.9827 288.3223 288.4436 289.1754 290.9896 291.2720
   292.3730 292.8410 293.9100 294.5588 295.0085 295.7653 296.1668 296.1694
   296.3584 297.0071 298.1679 298.6882 300.7969 301.4301 301.7539 302.8390
   303.4533 304.5580 304.9551 305.0980 305.3270 305.7103 305.7986 306.0517
   306.0769 306.1792 306.6866 306.9432 308.1135 308.4158 308.5421 308.5608
   308.6165 309.1735 310.3097 311.0030 311.9156 312.0291 312.5299 313.1067
   313.8390 314.1486 314.6130 317.4237 317.4479 317.6617 317.7986 318.4969
   320.3448 320.6724 321.2755 321.4712 321.6076 324.0505 325.1188 325.1477
   326.1543 326.4421 327.0491 327.3059 327.4700 327.5452 328.3458 328.7639
   329.3918 330.2693 330.3609 331.8655 331.9673 332.1856 332.2484 333.0582
   333.5227 333.8546 334.1389 334.9351 335.3181 336.5375 336.5434 340.1547
   340.4207 340.5610 340.8619 341.4538 342.1041 342.8224 342.9716 343.7143
   344.1063 346.4004 346.5244 346.5586 346.6396 347.2548 348.1511 351.1439
   351.3344 351.8170 351.8678 352.7039 353.3779 354.0414 355.9357 356.1510
   356.9855 358.8289 359.3588 359.5867 359.9054 360.3382 360.3731 362.0587
   362.2301 362.3167 363.3025 363.8389 364.2706 364.3413 364.3578 364.6350
   364.8903 365.0842 365.8700 367.8157 368.3752 368.4128 369.3101 370.3165
   370.5673 370.7760 371.4077 371.4766 371.5796 373.6589 373.7967 376.6104
   376.7569 376.7821 377.4531 378.2265 379.6726 380.1116 380.2506 380.6164
   381.0831 381.2692 381.7077 382.2896 383.3204 383.4337 385.1495 385.1593
   386.2462 386.8377 387.1956 388.5384 389.1064 389.3497 389.8917 391.3582
   391.7761 391.8357 392.4440 392.5978 392.8324 393.1466 394.2080 394.6016
   395.8882 396.4960 397.0264 397.3874 397.4243 398.2919 398.3253 398.5639
   398.7530 399.2493 399.2598 400.9581 401.2061 401.2775 403.0665 403.3105
   404.3318 404.7787 405.4099 406.5087 406.6486 408.4926 408.8303 409.6895
   409.7988 410.0248 410.5595 411.6606 412.5738 413.0031 413.0040 415.7145
   416.3001 416.9467 416.9613 418.3526 418.5918 418.9353 419.2296 419.4968
   420.6229 420.6229 421.6494 422.4921 423.4718 424.7567 424.9867 426.0896
   426.7429 427.1188 427.1996 427.2118 427.4168 429.3092 429.7300 429.9297
   431.1249 431.3042 431.9037 433.1425 434.0033 434.1489 434.2521 434.3554
   434.7062 436.0222 436.2615 436.5353 436.8394 438.7917 439.1441 439.2423
   440.2574 440.7595 441.6677 441.6844 441.9129 441.9182 442.7691 442.9491
   442.9516 443.5727 444.0353 444.4842 444.5639 444.8085 445.0923 445.6889
   445.9968 446.9226 447.0389 447.0974 447.2620 447.8453 448.5177 448.5644
   449.6659 450.1049 450.9029 451.1199 451.9656 452.2605 452.3211 452.6979
   453.4483 453.4573 455.2445 455.2912 455.2978 455.4367 455.7559 456.5975
   456.8770 457.2552 457.2711 457.2939 457.3214 457.4341 457.5051 457.6375
   459.6218 461.1272 461.7812 461.7887 461.9513 462.3382 462.4111 462.4909
   462.8118 462.8767 463.2000 463.6809 464.7805 465.4010 466.5634 466.6585
   466.7640 466.7928 466.9408 468.8658 470.1291 470.8262 470.8500 470.9495
   471.7036 472.1686 472.2256 473.5523 473.5877 473.7662 473.9481 475.5612
   476.6042 476.6393 478.2282 478.9010 478.9385 479.4553 479.8874 480.1834
   480.3022 480.3257 480.3356 482.0374 482.9302 483.7011 484.2859 484.4454
   484.5209 485.2504 487.0145 488.0793 488.0944 488.1618 489.3623 489.8317
   489.8547 490.2961 490.8756 491.0275 491.6867 491.6974 491.8108 491.8221
   491.8549 492.2562 492.5203 492.9262 493.0648 494.8162 495.8929 496.8370
   497.0218 497.1146 499.1205 499.5823 499.9024 500.0347 500.0428 500.6132
   502.2919 502.4234 502.5096 502.8698 502.9580 502.9960 503.0123 503.2820
   503.3031 503.6998 505.8533 506.9179 508.2142 508.5858 509.1659 509.4433
   509.4632 509.6616 509.8850 509.9820 510.0247 510.6126 510.6485 511.3471
   513.1255 513.1493 514.1154 515.3385 516.2346 516.8206 518.0074 518.0151
   518.1067 518.4462 518.6476 519.2203 519.6005 519.8101 520.2758 520.6384
   521.1343 521.2105 521.5046 521.5421 521.6557 523.1565 525.4812 526.2491
   527.3421 527.7986 527.8447 528.4640 531.4586 531.6901 531.8985 533.4366
   534.6735 535.0267 535.6488 535.7019 536.0482 536.2202 536.2579 536.7103
   537.0193 537.1182 537.1698 537.3754 537.7694 538.2254 538.9331 539.1581
   539.7743 540.0221 541.9102 542.6013 543.1435 543.4198 544.2304 544.3954
   546.4264 547.6560 547.9294 548.6697 548.8987 549.3307 550.5320 551.0343
   552.3922 553.8667 553.8948 554.1714 554.8344 555.5009 555.6459 555.7221
   555.9170 556.4482 556.5698 556.7147 558.4750 558.5150 558.9234 559.1906
   560.7393 560.8123 561.3360 562.6221 564.0836 564.6497 565.0118 565.1806
   565.3362 565.6583 566.4275 566.7050 567.0358 568.7385 568.7954 569.7051
   570.4483 570.7176 570.9197 571.2285 571.7465 572.2656 572.6657 572.7689
   573.2047 573.4349 573.6643 574.2713 574.3132 575.1250 576.0647 576.2128
   576.7273 577.0364 577.0435 577.1764 577.4025 577.9203 578.1713 579.6572
   580.1824 580.9337 581.3099 581.7514 581.9615 582.4973 583.0150 583.1182
   583.2058 583.7739 583.8529 584.3080 584.3793 584.4113 584.6351 584.6820
   584.9596 585.1507 585.4615 585.6422 585.7558 585.7904 586.2330 586.2406
   589.9120 590.3963 590.4415 590.4819 591.9810 592.0853 592.1036 592.5294
   592.6201 592.8893 593.1006 593.3455 593.5644 593.5842 593.6417 593.6540
   594.2223 594.3712 594.4730 595.8471 595.8575 595.8830 596.5348 596.5381
   596.5512 596.5739 598.1542 599.0698 599.4666 600.0410 600.5642 600.8084
   600.8853 600.8893 601.0488 601.5520 602.2184 602.6680 602.7290 602.7916
   603.2944 603.8010 604.5648 604.6289 605.2176 605.3342 605.5121 607.8964
   608.8309 610.2917 610.6199 611.1291 611.2316 611.4017 611.4258 611.7106
   612.9911 613.2346 613.3217 613.7451 613.7742 613.8037 613.8237 614.1728
   617.2872 617.7187 618.0371 618.1548 618.3182 618.8437 620.4044 620.4046
   620.7147 620.8139 621.2901 621.2946 623.5893 624.0523 624.0967 624.2099
   624.4119 626.3280 626.7157 626.9917 627.5362 628.1063 628.2179 628.2437
   628.7139 628.9300 629.1170 629.2146 631.4007 631.5270 631.7495 632.0640
   632.2110 632.3738 632.4747 632.4825 632.6681 632.7372 632.7610 633.0207
   633.1018 633.2617 634.5754 635.0509 636.3797 636.5963 637.2314 637.5066
   638.5672 638.7658 638.8602 638.9308 639.2712 639.7401 639.7408 639.8441
   641.6959 641.7562 643.0353 643.3657 644.9230 645.0099 645.5671 645.7512
   645.9394 646.2595 646.5670 647.1840 647.2039 647.6136 647.7216 647.9835
   648.0819 648.1358 648.1445 648.7295 649.8164 650.0325 651.8583 652.0572
   652.0698 652.1301 653.2351 654.2314 654.7604 655.0771 656.2906 656.7934
   658.5550 659.1266 659.4560 659.5976 659.6293 659.7103 659.8314 659.9214
   659.9669 660.4295 660.6338 660.6831 664.1884 664.3044 664.7039 664.8494
   665.2095 665.3181 666.1345 666.3928 666.4739 666.5366 666.7123 666.7554
   668.1867 668.6026 668.8783 668.9077 670.1043 670.1984 670.3898 670.5247
   670.9508 671.0970 672.4363 672.6042 673.1746 673.8627 674.7217 674.8908
   676.0884 676.1264 676.2289 676.2753 676.4666 676.4895 676.5662 676.6412
   677.5108 677.9312 678.1337 678.2986 678.4842 678.8872 679.0353 679.2627
   681.8924 682.0213 682.8078 682.9059 682.9429 684.0320 684.3125 684.6243
   684.7843 684.8208 685.1776 685.6012 686.0589 686.1833 686.4484 686.4674
   686.8565 687.4494 688.3621 688.3909 688.6616 688.7349 688.7385 688.8320
   691.1884 691.2318 691.6191 692.1800 692.5846 692.6637 692.8162 693.5674
   693.7160 694.1753 694.2070 695.6213 697.0124 697.0726 697.1220 697.1583
   699.7970 700.8305 701.0155 701.2026 702.1187 702.3515 702.6738 703.0073
   703.0848 703.1481 703.8088 704.0043 705.5246 705.5935 706.3113 706.4458
   706.8255 706.9281 709.3884 709.5695 710.7765 710.8577 711.1770 711.3551
   711.6909 711.7649 712.0156 712.0457 712.3196 712.3738 712.6068 712.8066
   714.6459 714.6461 714.9738 715.0197 715.0653 715.1825 715.1856 715.3030
   715.3064 715.3492 715.6619 715.6761 717.4157 717.4431 717.8453 718.3811
   719.6156 719.7810 720.5988 720.8924 721.3392 721.5048 722.4897 722.6902
   722.7524 722.7603 722.7889 722.8861 722.9058 722.9396 727.9953 728.3431
   729.2361 729.5138 729.6147 729.9990 730.2048 730.5687 731.2663 731.4536
   732.4575 732.5028 732.7896 732.8699 733.4894 733.6168 733.7000 733.9493
   734.6433 734.8342 735.2617 735.3079 735.6206 735.6732 736.0903 736.8797
   738.0563 738.2189 738.3476 738.6942 738.7074 739.4981 740.6778 740.8099
   741.2888 741.6931 743.9534 744.1188 744.2111 744.2957 749.7068 749.8291
   750.1298 750.1351 750.3138 750.3694 750.5719 750.6985 751.6307 751.7415
   752.0777 752.2379 752.2457 752.3770 752.4533 752.4566 752.4841 752.7041
   755.8467 755.9502 756.4197 756.7020 756.7326 756.9760 757.2272 757.4289
   758.7720 758.9010 759.0623 759.2722 759.2784 759.5267 759.9123 760.0847
   762.8224 762.8762 762.9073 762.9096 764.3512 764.7166 765.3908 765.4561
   766.1632 766.6201 766.7892 767.3637 768.0464 768.6266 768.6814 769.2753
   769.5444 770.3038 770.4531 770.7766 770.8904 771.1296 771.1562 771.2653
   771.2849 771.3870 771.4649 771.5762 771.7966 772.2414 772.6087 772.9433
   773.0382 773.0898 774.0929 774.0954 774.7552 774.7749 776.9596 777.1477
   777.6762 777.7703 777.8866 777.9539 780.1570 780.1847 780.4429 780.4497
   780.6558 780.7754 782.2068 782.2079 785.8322 786.4140 786.4634 786.6826
   786.7460 786.8650 786.9170 786.9414 786.9661 787.0593 787.1334 787.1933
   787.2359 787.2775 787.5531 787.5735 787.5989 788.0302 789.3712 789.3855
   789.4018 789.4756 793.8960 794.1017 794.7817 794.9289 795.1030 795.1223
   795.1566 795.1976 795.5099 795.8082 796.0176 796.3705 796.4950 796.5029
   797.2364 797.4499 797.4763 797.6610 797.8004 797.8463 800.3490 800.3659
   801.9960 802.1907 802.6019 802.7441 802.9017 802.9677 804.9371 805.0120
   805.4941 805.6878 805.7482 805.7950 807.2345 807.2503 807.7263 807.8061
   807.8399 808.1218 808.2871 808.3307 808.7610 808.8231 809.1509 809.1774
   809.5424 809.5624 811.4645 812.2076 812.5931 812.7145 812.8169 813.2685
   813.4268 813.9510 814.3797 814.3960 814.8043 814.9083 815.4697 815.5032
   815.5124 815.8088 815.8890 816.6737 816.7876 816.9775 817.0103 817.3848
   818.0809 818.4574 818.5011 818.5671 818.6034 818.6449 818.6552 819.1940
   821.3836 821.5658 821.8638 821.9752 822.0743 822.0766 822.7957 822.8180
   822.8230 822.8661 823.5253 823.6299 823.7631 823.9235 824.9936 825.0139
   825.1180 825.5166 825.7569 825.8897 826.5336 826.5583 826.5654 826.6028
   827.6023 827.6501 827.7306 827.7469 831.9415 832.0012 833.4527 833.7578
   833.7648 833.8095 833.8338 833.8806 834.0628 834.1077 838.5374 838.5590
   839.8620 840.8907 841.1036 841.3141 841.4829 841.5711 841.8252 841.8449
   841.8562 841.9230 842.9863 843.0881 843.1009 843.3353 843.6964 844.1191
   844.1310 844.2357 844.3448 844.4858 844.4882 844.7187 845.4921 845.6007
   848.8285 849.0026 850.7162 850.7983 851.0251 851.3193 851.4585 851.4901
   851.5810 851.6840 851.7129 851.7331 852.5193 852.7960 853.0814 853.1251
   853.4620 853.4709 853.5697 853.5946 853.7094 853.8536 855.0071 855.0403
   856.1772 856.2070 858.0565 858.4295 858.5344 858.8803 859.0197 859.0619
   859.9431 860.1368 860.2040 860.2908 860.5060 860.5888 861.3091 861.4558
   861.4631 861.6916 862.0919 862.1134 862.1910 862.2739 862.3771 862.4003
   863.2781 863.4012 863.6071 863.7405 864.2084 864.2092 864.7328 864.7538
   869.5468 869.7394 869.8142 869.9754 869.9792 870.1405 870.1945 870.3010
   871.4340 871.4860 872.0459 872.1680 872.3982 872.4070 872.4802 872.6094
   872.6360 872.7370 873.4393 873.4593 873.5643 873.5762 876.7766 876.8579
   877.1119 877.1948 878.4353 878.4665 878.6981 878.8271 879.6431 879.7849
   879.8272 879.8745 879.9193 879.9769 880.3869 880.3947 880.3982 880.4312
   881.9352 881.9448 881.9630 881.9988 882.1307 882.1477 882.2065 882.2376
   885.8122 885.9718 886.2786 886.5020 887.5228 887.5560 887.5571 887.6008
   889.1629 889.2174 889.5026 889.5335 889.5777 889.7247 890.1870 890.1953
   890.4578 890.7046 890.7448 890.8528 892.5175 892.5188 896.4906 896.5234
   897.5456 897.6680 897.8609 897.8836 897.9320 898.0089 898.2359 898.4062
   898.4315 898.5167 898.5663 898.6164 898.6217 898.6461 898.7187 898.7919
   899.2071 899.2073 899.9854 899.9976 900.0273 900.0794 900.1524 900.2781
   900.3030 900.3197 904.5077 905.2031 905.8648 906.3399 906.5093 906.5279
   906.5293 906.7909 907.0505 907.1419 907.1565 907.2166 907.2190 907.2634
   907.6454 907.7184 909.5851 909.6169 909.6352 909.6590 910.3939 910.4195
   910.5176 910.5881 910.6070 910.6258 910.6514 910.6781 916.3471 916.4294
   916.7961 916.8014 917.0399 917.0848 917.2557 917.3383 917.3580 917.4384
   918.5675 918.6818 919.9550 920.4011 923.8935 923.9724 924.4105 924.4171
   924.8073 924.8317 924.8672 925.0427 925.2697 925.3210 925.7460 925.7719
   928.4087 928.4250 928.4686 928.4853 930.0807 930.1389 930.8881 931.2914
   931.3409 931.3900 933.7664 933.7871 934.6296 934.8421 936.7343 936.7431
   937.4993 937.5302 937.6054 937.6213 938.1022 938.1954 938.2263 938.2698
   938.2957 938.3051 938.3278 938.3577 942.4259 942.5041 943.5197 943.6074
   943.9645 943.9691 944.2130 944.2638 944.4845 944.4956 945.3712 945.8209
   945.9830 946.0314 946.5671 946.6796 948.5508 948.5742 948.5787 948.5968
   949.3539 949.6750 950.1444 950.3400 950.6256 950.6306 951.3466 951.4646
   951.6618 951.7374 952.5525 952.7160 953.5927 953.6351 953.6689 953.7217
   953.9364 953.9552 954.6539 954.9698 955.0481 955.7796 955.7998 955.8083
   955.9719 955.9807 956.2078 956.2205 956.5355 956.7398 957.1374 957.1543
   957.1624 957.1871 957.4838 957.4953 962.6964 962.8368 963.1453 963.1507
   963.3195 963.3331 964.0327 964.0694 964.2019 964.2133 964.6266 964.6774
   964.8345 964.8599 966.5638 966.5714 967.0350 967.0498 970.0659 970.1582
   970.5900 970.7594 971.1660 971.2100 971.5030 971.6763 971.7681 971.8000
   972.6404 972.7885 973.0555 973.1625 973.2513 973.2536 973.2581 973.4370
   975.3615 975.3732 976.4871 976.5008 976.5187 976.5274 979.1634 979.4184
   980.5127 980.5157 981.0193 981.0966 981.2693 981.2752 981.7432 981.7522
   982.3753 982.4522 983.6652 983.7072 984.1306 984.1424 984.1433 984.1509
   985.2631 985.2705 986.5511 986.7561 987.2635 987.6893 987.6972 987.7316
   988.7488 988.9777 988.9817 989.0583 989.8122 989.8528 990.4459 990.4797

     the Fermi energy is     4.2797 ev
     (compare with:     4.2797 eV, computed in scf)

     Writing all to output data dir out/mp-1960.save/
 
     init_run     :      0.03s CPU      0.04s WALL (       1 calls)
     electrons    :   2519.65s CPU   2684.09s WALL (       1 calls)

     Called by init_run:
     wfcinit      :      0.00s CPU      0.00s WALL (       1 calls)
     potinit      :      0.01s CPU      0.01s WALL (       1 calls)
     hinit0       :      0.01s CPU      0.01s WALL (       1 calls)

     Called by electrons:
     c_bands      :   2519.64s CPU   2684.06s WALL (       1 calls)
     v_of_rho     :      0.00s CPU      0.00s WALL (       1 calls)

     Called by c_bands:
     init_us_2    :      0.00s CPU      0.00s WALL (      16 calls)
     init_us_2:cp :      0.00s CPU      0.00s WALL (      16 calls)
     cegterg      :   2468.58s CPU   2629.40s WALL (      16 calls)

     Called by *egterg:
     cdiaghg      :   2356.90s CPU   2513.77s WALL (     133 calls)
     h_psi        :     31.49s CPU     32.94s WALL (     149 calls)
     g_psi        :      0.19s CPU      0.19s WALL (     117 calls)

     Called by h_psi:
     h_psi:calbec :      0.42s CPU      0.44s WALL (     149 calls)
     vloc_psi     :     30.37s CPU     31.79s WALL (     149 calls)
     add_vuspsi   :      0.32s CPU      0.32s WALL (     149 calls)

     General routines
     calbec       :      0.42s CPU      0.44s WALL (     149 calls)
     fft          :      0.00s CPU      0.00s WALL (      10 calls)
     fftw         :     27.75s CPU     29.06s WALL (  333986 calls)
 
     Parallel routines
 
     PWSCF        :  42m 3.58s CPU  44m50.71s WALL

 
   This run was terminated on:   1:54:59   5Dec2023            

=------------------------------------------------------------------------------=
   JOB DONE.
=------------------------------------------------------------------------------=
