
     Program PWSCF v.7.1 starts on 22Dec2023 at 14: 0: 7 

     This program is part of the open-source Quantum ESPRESSO suite
     for quantum simulation of materials; please cite
         "P. Giannozzi et al., J. Phys.:Condens. Matter 21 395502 (2009);
         "P. Giannozzi et al., J. Phys.:Condens. Matter 29 465901 (2017);
         "P. Giannozzi et al., J. Chem. Phys. 152 154105 (2020);
          URL http://www.quantum-espresso.org", 
     in publications or presentations arising from this work. More details at
     http://www.quantum-espresso.org/quote

     Parallel version (MPI), running on    24 processors

     MPI processes distributed on     1 nodes
     122879 MiB available memory on the printing compute node when the environment starts
 
     Reading input from pw_mp-2133_scf_k3000_E88.in
Warning: card &CELL ignored
Warning: card / ignored

     Current dimensions of program PWSCF are:
     Max number of different atomic species (ntypx) = 10
     Max number of k-points (npk) =  40000
     Max angular momentum in pseudopotentials (lmaxx) =  4
 
     R & G space division:  proc/nbgrp/npool/nimage =      24
     Subspace diagonalization in iterative solution of the eigenvalue problem:
     a serial algorithm will be used

 
     Parallelization info
     --------------------
     sticks:   dense  smooth     PW     G-vecs:    dense   smooth      PW
     Min          38      38     10                 1486     1486     226
     Max          39      39     11                 1493     1493     235
     Sum         913     913    253                35699    35699    5527
 
     Using Slab Decomposition
 


     bravais-lattice index     =            4
     lattice parameter (alat)  =       6.1177  a.u.
     unit-cell volume          =     319.8517 (a.u.)^3
     number of atoms/cell      =            4
     number of atomic types    =            2
     number of electrons       =        52.00
     number of Kohn-Sham states=           52
     kinetic-energy cutoff     =      88.0000  Ry
     charge density cutoff     =     352.0000  Ry
     scf convergence threshold =      1.0E-10
     mixing beta               =       0.7000
     number of iterations used =            8  plain     mixing
     Exchange-correlation= PBE
                           (   1   4   3   4   0   0   0)

     celldm(1)=   6.117706  celldm(2)=   0.000000  celldm(3)=   1.613066
     celldm(4)=   0.000000  celldm(5)=   0.000000  celldm(6)=   0.000000

     crystal axes: (cart. coord. in units of alat)
               a(1) = (   1.000000   0.000000   0.000000 )  
               a(2) = (  -0.500000   0.866025   0.000000 )  
               a(3) = (   0.000000   0.000000   1.613066 )  

     reciprocal axes: (cart. coord. in units 2 pi/alat)
               b(1) = (  1.000000  0.577350  0.000000 )  
               b(2) = (  0.000000  1.154701  0.000000 )  
               b(3) = (  0.000000  0.000000  0.619937 )  


     PseudoPot. # 1 for O  read from file:
     /usr/scratch4/magr4985/MG/HTDF/pseudo/SG15/O.upf
     MD5 check sum: e36c48deb68f4e355fffe4602be2c42c
     Pseudo is Norm-conserving, Zval =  6.0
     Generated using ONCVPSP code by D. R. Hamann
     Using radial grid of  602 points,  4 beta functions with: 
                l(1) =   0
                l(2) =   0
                l(3) =   1
                l(4) =   1

     PseudoPot. # 2 for Zn read from file:
     /usr/scratch4/magr4985/MG/HTDF/pseudo/SG15/Zn.upf
     MD5 check sum: 732f41c0cd6489a4b50a33b4ec99a2d3
     Pseudo is Norm-conserving, Zval = 20.0
     Generated using ONCVPSP code by D. R. Hamann
     Using radial grid of  602 points,  6 beta functions with: 
                l(1) =   0
                l(2) =   0
                l(3) =   1
                l(4) =   1
                l(5) =   2
                l(6) =   2

     atomic species   valence    mass     pseudopotential
        O              6.00    15.99940     O ( 1.00)
        Zn            20.00    65.40900     Zn( 1.00)

      6 Sym. Ops. (no inversion) found



   Cartesian axes

     site n.     atom                  positions (alat units)
         1           Zn  tau(   1) = (   0.0000000   0.5773502   0.8074876  )
         2           Zn  tau(   2) = (   0.5000000   0.2886752   0.0009545  )
         3           O   tau(   3) = (   0.0000000   0.5773502   1.4190439  )
         4           O   tau(   4) = (   0.5000000   0.2886752   0.6125108  )

     number of k points=    72  Gaussian smearing, width (Ry)=  0.0005
                       cart. coord. in units 2pi/alat
        k(    1) = (   0.0000000   0.0000000   0.0000000), wk =   0.0033333
        k(    2) = (   0.0000000   0.0000000   0.1033229), wk =   0.0066667
        k(    3) = (   0.0000000   0.0000000   0.2066458), wk =   0.0066667
        k(    4) = (   0.0000000   0.0000000  -0.3099687), wk =   0.0033333
        k(    5) = (   0.0000000   0.1154701   0.0000000), wk =   0.0200000
        k(    6) = (   0.0000000   0.1154701   0.1033229), wk =   0.0200000
        k(    7) = (   0.0000000   0.1154701   0.2066458), wk =   0.0200000
        k(    8) = (   0.0000000   0.1154701  -0.3099687), wk =   0.0200000
        k(    9) = (   0.0000000   0.2309401   0.0000000), wk =   0.0200000
        k(   10) = (   0.0000000   0.2309401   0.1033229), wk =   0.0200000
        k(   11) = (   0.0000000   0.2309401   0.2066458), wk =   0.0200000
        k(   12) = (   0.0000000   0.2309401  -0.3099687), wk =   0.0200000
        k(   13) = (   0.0000000   0.3464102   0.0000000), wk =   0.0200000
        k(   14) = (   0.0000000   0.3464102   0.1033229), wk =   0.0200000
        k(   15) = (   0.0000000   0.3464102   0.2066458), wk =   0.0200000
        k(   16) = (   0.0000000   0.3464102  -0.3099687), wk =   0.0200000
        k(   17) = (   0.0000000   0.4618802   0.0000000), wk =   0.0200000
        k(   18) = (   0.0000000   0.4618802   0.1033229), wk =   0.0200000
        k(   19) = (   0.0000000   0.4618802   0.2066458), wk =   0.0200000
        k(   20) = (   0.0000000   0.4618802  -0.3099687), wk =   0.0200000
        k(   21) = (   0.0000000  -0.5773503   0.0000000), wk =   0.0100000
        k(   22) = (   0.0000000  -0.5773503   0.1033229), wk =   0.0200000
        k(   23) = (   0.0000000  -0.5773503   0.2066458), wk =   0.0200000
        k(   24) = (   0.0000000  -0.5773503  -0.3099687), wk =   0.0100000
        k(   25) = (   0.1000000   0.1732051   0.0000000), wk =   0.0200000
        k(   26) = (   0.1000000   0.1732051   0.1033229), wk =   0.0400000
        k(   27) = (   0.1000000   0.1732051   0.2066458), wk =   0.0400000
        k(   28) = (   0.1000000   0.1732051  -0.3099687), wk =   0.0200000
        k(   29) = (   0.1000000   0.2886751   0.0000000), wk =   0.0400000
        k(   30) = (   0.1000000   0.2886751   0.1033229), wk =   0.0400000
        k(   31) = (   0.1000000   0.2886751   0.2066458), wk =   0.0400000
        k(   32) = (   0.1000000   0.2886751  -0.3099687), wk =   0.0400000
        k(   33) = (   0.1000000   0.4041452   0.0000000), wk =   0.0400000
        k(   34) = (   0.1000000   0.4041452   0.1033229), wk =   0.0400000
        k(   35) = (   0.1000000   0.4041452   0.2066458), wk =   0.0400000
        k(   36) = (   0.1000000   0.4041452  -0.3099687), wk =   0.0400000
        k(   37) = (   0.1000000   0.5196152   0.0000000), wk =   0.0400000
        k(   38) = (   0.1000000   0.5196152   0.1033229), wk =   0.0400000
        k(   39) = (   0.1000000   0.5196152   0.2066458), wk =   0.0400000
        k(   40) = (   0.1000000   0.5196152  -0.3099687), wk =   0.0400000
        k(   41) = (   0.2000000   0.3464102   0.0000000), wk =   0.0200000
        k(   42) = (   0.2000000   0.3464102   0.1033229), wk =   0.0400000
        k(   43) = (   0.2000000   0.3464102   0.2066458), wk =   0.0400000
        k(   44) = (   0.2000000   0.3464102  -0.3099687), wk =   0.0200000
        k(   45) = (   0.2000000   0.4618802   0.0000000), wk =   0.0400000
        k(   46) = (   0.2000000   0.4618802   0.1033229), wk =   0.0400000
        k(   47) = (   0.2000000   0.4618802   0.2066458), wk =   0.0400000
        k(   48) = (   0.2000000   0.4618802  -0.3099687), wk =   0.0400000
        k(   49) = (   0.2000000   0.5773503   0.0000000), wk =   0.0200000
        k(   50) = (   0.2000000   0.5773503   0.1033229), wk =   0.0400000
        k(   51) = (   0.2000000   0.5773503   0.2066458), wk =   0.0400000
        k(   52) = (   0.2000000   0.5773503  -0.3099687), wk =   0.0200000
        k(   53) = (   0.3000000   0.5196152   0.0000000), wk =   0.0200000
        k(   54) = (   0.3000000   0.5196152   0.1033229), wk =   0.0400000
        k(   55) = (   0.3000000   0.5196152   0.2066458), wk =   0.0400000
        k(   56) = (   0.3000000   0.5196152  -0.3099687), wk =   0.0200000
        k(   57) = (   0.0000000  -0.1154701   0.1033229), wk =   0.0200000
        k(   58) = (   0.0000000  -0.1154701   0.2066458), wk =   0.0200000
        k(   59) = (   0.0000000  -0.2309401   0.1033229), wk =   0.0200000
        k(   60) = (   0.0000000  -0.2309401   0.2066458), wk =   0.0200000
        k(   61) = (   0.0000000  -0.3464102   0.1033229), wk =   0.0200000
        k(   62) = (   0.0000000  -0.3464102   0.2066458), wk =   0.0200000
        k(   63) = (   0.0000000  -0.4618802   0.1033229), wk =   0.0200000
        k(   64) = (   0.0000000  -0.4618802   0.2066458), wk =   0.0200000
        k(   65) = (  -0.1000000  -0.2886751   0.1033229), wk =   0.0400000
        k(   66) = (  -0.1000000  -0.2886751   0.2066458), wk =   0.0400000
        k(   67) = (  -0.1000000  -0.4041452   0.1033229), wk =   0.0400000
        k(   68) = (  -0.1000000  -0.4041452   0.2066458), wk =   0.0400000
        k(   69) = (  -0.1000000  -0.5196152   0.1033229), wk =   0.0400000
        k(   70) = (  -0.1000000  -0.5196152   0.2066458), wk =   0.0400000
        k(   71) = (  -0.2000000  -0.4618802   0.1033229), wk =   0.0400000
        k(   72) = (  -0.2000000  -0.4618802   0.2066458), wk =   0.0400000

     Dense  grid:    35699 G-vectors     FFT dimensions: (  40,  40,  60)

     Estimated max dynamical RAM per process >       5.42 MB

     Estimated total dynamical RAM >     130.15 MB

     Initial potential from superposition of free atoms

     starting charge      51.9527, renormalised to      52.0000
     Starting wfcs are random

     total cpu time spent up to now is        0.9 secs

     Self-consistent Calculation

     iteration #  1     ecut=    88.00 Ry     beta= 0.70
     Davidson diagonalization with overlap
     ethr =  1.00E-02,  avg # of iterations =  9.4

     total cpu time spent up to now is        8.8 secs

     total energy              =    -864.24630488 Ry
     estimated scf accuracy    <       0.86337817 Ry

     iteration #  2     ecut=    88.00 Ry     beta= 0.70
     Davidson diagonalization with overlap
     ethr =  1.66E-03,  avg # of iterations =  2.1

     total cpu time spent up to now is       11.4 secs

     total energy              =    -864.43909450 Ry
     estimated scf accuracy    <       1.33479590 Ry

     iteration #  3     ecut=    88.00 Ry     beta= 0.70
     Davidson diagonalization with overlap
     ethr =  1.66E-03,  avg # of iterations =  1.8

     total cpu time spent up to now is       13.8 secs

     total energy              =    -864.69050467 Ry
     estimated scf accuracy    <       0.00609868 Ry

     iteration #  4     ecut=    88.00 Ry     beta= 0.70
     Davidson diagonalization with overlap
     ethr =  1.17E-05,  avg # of iterations =  4.0

     total cpu time spent up to now is       17.3 secs

     total energy              =    -864.69228602 Ry
     estimated scf accuracy    <       0.00442087 Ry

     iteration #  5     ecut=    88.00 Ry     beta= 0.70
     Davidson diagonalization with overlap
     ethr =  8.50E-06,  avg # of iterations =  1.2

     total cpu time spent up to now is       19.6 secs

     total energy              =    -864.69254726 Ry
     estimated scf accuracy    <       0.00044288 Ry

     iteration #  6     ecut=    88.00 Ry     beta= 0.70
     Davidson diagonalization with overlap
     ethr =  8.52E-07,  avg # of iterations =  2.7

     total cpu time spent up to now is       22.2 secs

     total energy              =    -864.69257229 Ry
     estimated scf accuracy    <       0.00004158 Ry

     iteration #  7     ecut=    88.00 Ry     beta= 0.70
     Davidson diagonalization with overlap
     ethr =  8.00E-08,  avg # of iterations =  2.0

     total cpu time spent up to now is       25.0 secs

     total energy              =    -864.69258071 Ry
     estimated scf accuracy    <       0.00001269 Ry

     iteration #  8     ecut=    88.00 Ry     beta= 0.70
     Davidson diagonalization with overlap
     ethr =  2.44E-08,  avg # of iterations =  1.0

     total cpu time spent up to now is       27.1 secs

     total energy              =    -864.69258204 Ry
     estimated scf accuracy    <       0.00000022 Ry

     iteration #  9     ecut=    88.00 Ry     beta= 0.70
     Davidson diagonalization with overlap
     ethr =  4.14E-10,  avg # of iterations =  2.0

     total cpu time spent up to now is       29.6 secs

     total energy              =    -864.69258212 Ry
     estimated scf accuracy    <          8.0E-09 Ry

     iteration # 10     ecut=    88.00 Ry     beta= 0.70
     Davidson diagonalization with overlap
     ethr =  1.55E-11,  avg # of iterations =  1.4

     total cpu time spent up to now is       31.9 secs

     total energy              =    -864.69258212 Ry
     estimated scf accuracy    <          6.9E-10 Ry

     iteration # 11     ecut=    88.00 Ry     beta= 0.70
     Davidson diagonalization with overlap
     ethr =  1.33E-12,  avg # of iterations =  1.8

     total cpu time spent up to now is       34.7 secs

     End of self-consistent calculation

          k = 0.0000 0.0000 0.0000 (  4475 PWs)   bands (ev):

  -113.3583-113.3582 -67.5658 -67.5628 -67.5628 -67.5627 -67.5622 -67.5622
    -7.9217  -7.1934   4.3695   4.3695   4.4157   4.4969   4.5613   4.5613
     5.5228   5.5228   5.7323   5.7323   6.0239   9.3235   9.3235  10.0287
    10.1140  10.1140  10.9813  15.4374  18.3668  23.1296  23.1296  24.2006
    24.3936  24.3936  26.7567  28.3990  28.3990  30.0811  30.0811  30.1490
    31.4463  33.4041  35.0753  35.0753  37.6894  38.6491  38.6491  38.9957
    41.3671  41.3671  44.7419  44.7419

          k = 0.0000 0.0000 0.1033 (  4457 PWs)   bands (ev):

  -113.3583-113.3582 -67.5656 -67.5629 -67.5628 -67.5628 -67.5623 -67.5623
    -7.8754  -7.2447   4.3674   4.3716   4.3764   4.3764   4.5418   4.5418
     5.5419   5.5419   5.7241   5.7241   6.3433   9.3775   9.3775   9.4806
    10.0623  10.0623  11.6140  15.1923  18.5876  23.1336  23.1336  23.2770
    24.1971  24.1971  27.1142  28.6943  28.6943  29.9471  30.4107  30.4107
    32.5097  33.3764  34.7266  34.7266  38.1324  38.1324  38.3611  38.3905
    41.5359  41.5359  43.5165  43.5166

          k = 0.0000 0.0000 0.2066 (  4428 PWs)   bands (ev):

  -113.3583-113.3582 -67.5650 -67.5634 -67.5627 -67.5627 -67.5624 -67.5624
    -7.7472  -7.3831   4.2124   4.2601   4.3993   4.3993   4.4940   4.4940
     5.5907   5.5907   5.6967   5.6967   7.0434   8.6792   9.5245   9.5245
     9.9200   9.9200  12.6170  14.5423  19.2246  21.6823  23.1998  23.1998
    23.7846  23.7846  27.7144  29.3003  29.4726  29.4726  30.8679  30.8679
    33.8113  34.3524  34.3524  34.6707  36.7410  36.7410  37.3806  39.5197
    41.8361  41.8361  42.5432  42.5432

          k = 0.0000 0.0000-0.3100 (  4386 PWs)   bands (ev):

  -113.3582-113.3582 -67.5642 -67.5642 -67.5625 -67.5625 -67.5625 -67.5625
    -7.5677  -7.5677   4.1806   4.1806   4.4406   4.4406   4.4406   4.4406
     5.6489   5.6489   5.6489   5.6489   7.8573   7.8573   9.7235   9.7235
     9.7235   9.7235  13.6381  13.6381  20.2646  20.2646  23.4133  23.4133
    23.4133  23.4133  28.4626  28.4626  30.4240  30.4240  30.4240  30.4240
    34.7764  34.7764  35.1574  35.1574  35.1574  35.1574  38.7061  38.7061
    42.1170  42.1170  42.1170  42.1170

          k = 0.0000 0.1155 0.0000 (  4450 PWs)   bands (ev):

  -113.3583-113.3582 -67.5657 -67.5630 -67.5629 -67.5627 -67.5625 -67.5623
    -7.8661  -7.1685   4.3098   4.4013   4.4498   4.5394   4.5940   4.6064
     5.5001   5.5197   5.7371   5.7789   6.0112   8.9594   9.1899   9.5144
     9.9630  10.0427  11.7086  15.8505  18.3631  22.1073  23.2230  23.6456
    24.3714  24.5178  26.2325  27.7696  28.5866  30.2327  31.3131  31.3888
    32.1511  34.0524  34.8785  35.1662  38.0767  38.6813  38.6954  38.9264
    40.6526  40.9182  44.3745  45.6995

          k = 0.0000 0.1155 0.1033 (  4446 PWs)   bands (ev):

  -113.3583-113.3582 -67.5655 -67.5630 -67.5629 -67.5628 -67.5625 -67.5623
    -7.8214  -7.2173   4.2828   4.3888   4.4092   4.4455   4.5726   4.5860
     5.5233   5.5388   5.7276   5.7478   6.3616   9.0077   9.2264   9.2485
     9.8993   9.9870  12.1016  15.5726  18.5935  22.1500  23.2276  23.2585
    23.5800  24.2977  26.9222  28.1887  28.8090  30.1764  31.2860  31.4870
    32.9488  34.0566  34.8112  34.9425  37.3173  38.1508  38.8714  39.0782
    41.0272  41.1099  43.6466  44.2292

          k = 0.0000 0.1155 0.2066 (  4435 PWs)   bands (ev):

  -113.3583-113.3582 -67.5650 -67.5635 -67.5628 -67.5627 -67.5625 -67.5624
    -7.6979  -7.3492   4.1966   4.2136   4.4346   4.4409   4.5247   4.5358
     5.5809   5.5876   5.6973   5.7071   7.0706   8.5802   9.2087   9.4075
     9.7075   9.8339  12.9587  14.8702  19.2303  21.5792  22.4779  23.1654
    23.2923  23.8677  27.7937  29.1122  29.2074  30.0646  31.3191  31.4374
    33.6177  34.3202  34.5900  35.4620  36.8658  36.9313  38.2556  40.0216
    41.4443  41.6150  42.4767  42.9271

          k = 0.0000 0.1155-0.3100 (  4434 PWs)   bands (ev):

  -113.3583-113.3582 -67.5643 -67.5643 -67.5627 -67.5627 -67.5626 -67.5626
    -7.5256  -7.5256   4.1484   4.1484   4.4735   4.4735   4.4792   4.4792
     5.6470   5.6470   5.6492   5.6492   7.8519   7.8519   9.4505   9.4505
     9.6222   9.6222  13.9436  13.9436  20.2410  20.2410  22.7630  22.7630
    23.4998  23.4998  28.5563  28.5563  30.4615  30.4615  30.8396  30.8396
    33.8146  33.8146  35.5120  35.5120  36.5957  36.5957  39.3619  39.3619
    41.6977  41.6977  42.1745  42.1745

          k = 0.0000 0.2309 0.0000 (  4452 PWs)   bands (ev):

  -113.3583-113.3582 -67.5655 -67.5635 -67.5630 -67.5630 -67.5628 -67.5624
    -7.7141  -7.1061   4.1851   4.4758   4.4797   4.5851   4.7336   4.8210
     5.4427   5.5271   5.7474   5.9085   5.9892   8.0908   8.7608   8.8416
     9.7597   9.8476  12.8375  16.7795  18.3419  20.5323  22.3689  23.4659
    23.9536  24.5370  25.5002  27.6653  28.5755  31.3586  32.7928  33.4905
    33.5730  34.0700  35.4702  37.0792  37.5784  38.4113  38.6885  39.5514
    40.1216  41.3942  42.5129  45.9408

          k = 0.0000 0.2309 0.1033 (  4444 PWs)   bands (ev):

  -113.3583-113.3582 -67.5653 -67.5635 -67.5633 -67.5630 -67.5628 -67.5624
    -7.6743  -7.1476   4.1559   4.3841   4.4911   4.5558   4.7099   4.7182
     5.4801   5.5443   5.7352   5.8039   6.4265   8.1564   8.6341   8.9120
     9.6901   9.7824  13.0682  16.3981  18.6028  20.5975  22.2326  23.3681
    23.4673  24.3494  25.7490  28.1171  28.8588  31.4985  32.3229  33.3711
    33.9748  34.3218  35.1678  36.6983  37.6989  38.0964  38.5907  40.2746
    40.3468  41.4635  42.7402  45.2723

          k = 0.0000 0.2309 0.2066 (  4453 PWs)   bands (ev):

  -113.3583-113.3582 -67.5649 -67.5638 -67.5633 -67.5629 -67.5629 -67.5626
    -7.5649  -7.2607   4.0926   4.1817   4.5258   4.5404   4.6256   4.6510
     5.5619   5.5896   5.6999   5.7364   7.1120   8.1411   8.5710   9.1015
     9.4069   9.6032  13.7105  15.5692  19.1884  20.5956  21.8309  22.5000
    23.5161  23.9892  26.5081  28.6094  29.2441  31.7862  32.3282  32.6335
    33.7117  34.1200  35.4238  37.2895  37.4121  38.1885  38.8166  40.2569
    41.3559  41.6871  42.7410  43.6851

          k = 0.0000 0.2309-0.3100 (  4446 PWs)   bands (ev):

  -113.3582-113.3582 -67.5644 -67.5644 -67.5630 -67.5630 -67.5627 -67.5627
    -7.4137  -7.4137   4.0762   4.0762   4.5668   4.5668   4.5824   4.5824
     5.6472   5.6472   5.6549   5.6549   7.7243   7.7243   8.9526   8.9526
     9.3549   9.3549  14.6079  14.6079  19.9694  19.9694  21.9313  21.9313
    23.6848  23.6848  27.6027  27.6027  30.7408  30.7408  32.4223  32.4223
    33.7187  33.7187  36.3281  36.3281  38.1233  38.1233  40.0088  40.0088
    41.8983  41.8983  42.3788  42.3788

          k = 0.0000 0.3464 0.0000 (  4452 PWs)   bands (ev):

  -113.3582-113.3582 -67.5651 -67.5642 -67.5637 -67.5633 -67.5631 -67.5626
    -7.5089  -7.0388   4.0940   4.4447   4.5609   4.7296   4.9153   5.0788
     5.4123   5.5729   5.7591   5.9290   6.1566   7.1753   8.0516   8.4006
     9.4242   9.5909  14.0484  17.5859  18.2457  19.2757  21.4148  22.8614
    23.6514  24.3170  25.8897  28.4456  28.6553  30.3995  33.6264  34.8887
    35.5370  35.9376  36.0351  37.7403  38.4467  38.6811  38.8068  39.7707
    40.3966  41.5092  43.8155  44.1149

          k = 0.0000 0.3464 0.1033 (  4468 PWs)   bands (ev):

  -113.3582-113.3582 -67.5651 -67.5640 -67.5639 -67.5632 -67.5630 -67.5626
    -7.4770  -7.0695   4.0644   4.3516   4.5789   4.7049   4.8844   4.9257
     5.4624   5.5850   5.7453   5.8602   6.5083   7.2926   7.9821   8.4867
     9.4172   9.5151  14.1583  17.0606  18.5721  19.3454  21.3748  22.8769
    23.6559  24.2319  25.3720  28.6990  29.0155  30.9069  32.6822  35.0022
    35.0782  36.2163  36.4443  37.4941  37.8252  38.7359  39.2749  39.9482
    41.3673  41.7097  43.8145  44.6637

          k = 0.0000 0.3464 0.2066 (  4469 PWs)   bands (ev):

  -113.3582-113.3582 -67.5650 -67.5643 -67.5637 -67.5631 -67.5631 -67.5627
    -7.3899  -7.1544   4.0095   4.1463   4.6315   4.6808   4.7792   4.8063
     5.5647   5.6179   5.7094   5.7787   6.9470   7.4384   8.1199   8.7153
     9.2300   9.3063  14.5562  16.1763  18.9839  19.4581  21.3052  22.4632
    23.7021  24.0349  25.4733  28.0842  30.0108  31.9147  32.2243  33.2354
    35.2623  36.1299  36.5873  37.4404  38.5420  38.7194  39.6344  41.2574
    41.5302  41.7818  44.4151  44.6347

          k = 0.0000 0.3464-0.3100 (  4468 PWs)   bands (ev):

  -113.3582-113.3582 -67.5647 -67.5647 -67.5633 -67.5633 -67.5629 -67.5629
    -7.2716  -7.2716   4.0151   4.0151   4.7047   4.7047   4.7127   4.7127
     5.6630   5.6630   5.6777   5.6777   7.2477   7.2477   8.7281   8.7281
     9.0156   9.0156  15.2747  15.2747  19.3298  19.3298  21.6793  21.6793
    23.8330  23.8330  26.6837  26.6837  31.4754  31.4754  32.3158  32.3158
    35.6462  35.6462  37.0332  37.0332  38.7274  38.7274  40.6919  40.6919
    42.7386  42.7386  43.2564  43.2564

          k = 0.0000 0.4619 0.0000 (  4474 PWs)   bands (ev):

  -113.3582-113.3581 -67.5649 -67.5646 -67.5643 -67.5634 -67.5633 -67.5627
    -7.3166  -7.0041   4.1061   4.4070   4.6094   4.9094   5.0871   5.0883
     5.5258   5.6506   5.7720   5.9908   6.1935   6.6940   7.4743   8.0181
     9.0313   9.3695  15.2243  17.6872  17.7839  18.7723  20.9340  22.5271
    23.5092  24.3813  26.0743  28.6292  29.5511  30.0452  33.3868  34.7014
    36.0117  36.4756  37.4368  37.9478  38.9004  39.1675  39.8377  41.3294
    41.8580  42.2445  43.2333  45.8189

          k = 0.0000 0.4619 0.1033 (  4460 PWs)   bands (ev):

  -113.3582-113.3581 -67.5651 -67.5645 -67.5642 -67.5634 -67.5633 -67.5627
    -7.2940  -7.0231   4.0685   4.3102   4.6343   4.8782   5.0134   5.0472
     5.5559   5.6561   5.7582   5.9258   6.2904   6.8250   7.5846   8.1205
     9.0919   9.2854  15.1998  17.1331  18.2353  18.8080  20.8882  22.6913
    23.5542  24.3107  25.3065  28.7792  30.3426  30.4590  32.0677  35.2055
    35.9283  36.7201  36.9465  37.7236  38.5800  39.7280  40.4238  41.2675
    42.0233  43.2742  43.4479  45.2214

          k = 0.0000 0.4619 0.2066 (  4460 PWs)   bands (ev):

  -113.3582-113.3582 -67.5652 -67.5648 -67.5638 -67.5633 -67.5632 -67.5629
    -7.2334  -7.0767   3.9987   4.1147   4.7065   4.8430   4.9147   4.9427
     5.6395   5.6723   5.7283   5.8332   6.4560   6.8034   8.1078   8.3866
     9.0533   9.0740  15.2982  16.4299  18.5959  18.8621  20.9756  22.4676
    23.6881  24.1262  25.0925  27.9714  31.2026  31.5539  31.8286  34.2290
    35.2171  36.7464  36.8889  37.3962  39.4129  40.2281  41.3875  41.5162
    42.4933  43.6753  44.0785  45.3502

          k = 0.0000 0.4619-0.3100 (  4468 PWs)   bands (ev):

  -113.3582-113.3582 -67.5651 -67.5651 -67.5634 -67.5634 -67.5631 -67.5631
    -7.1532  -7.1532   3.9932   3.9932   4.8166   4.8166   4.8555   4.8555
     5.6973   5.6973   5.7379   5.7379   6.6383   6.6383   8.7248   8.7248
     8.7279   8.7279  15.7375  15.7375  18.8013  18.8013  21.5663  21.5663
    23.8947  23.8947  26.3508  26.3508  32.0222  32.0222  32.5417  32.5417
    35.8889  35.8889  37.0821  37.0821  40.0585  40.0585  42.1245  42.1245
    42.8367  42.8367  45.0017  45.0017

          k = 0.0000-0.5774 0.0000 (  4470 PWs)   bands (ev):

  -113.3582-113.3581 -67.5649 -67.5645 -67.5645 -67.5635 -67.5635 -67.5627
    -7.2278  -7.0045   4.1571   4.3763   4.6235   5.0241   5.0255   5.1613
     5.5647   5.6945   5.7785   5.8607   6.3500   6.5638   7.2836   7.8603
     8.8242   9.2811  15.9797  17.0466  17.7505  18.7203  20.7668  22.6159
    23.4046  24.4596  26.0630  28.7385  29.2920  30.7982  33.2039  35.1426
    35.1656  36.2876  37.6062  37.9303  38.6356  39.4402  41.3400  42.9488
    42.9984  43.6739  43.6808  44.8412

          k = 0.0000-0.5774 0.1033 (  4468 PWs)   bands (ev):

  -113.3582-113.3581 -67.5652 -67.5647 -67.5642 -67.5634 -67.5634 -67.5628
    -7.2108  -7.0172   4.1119   4.2753   4.6512   4.9853   5.0007   5.1149
     5.6306   5.6970   5.7648   5.8604   6.3049   6.5111   7.5780   7.9708
     8.9141   9.1938  15.7985  16.8828  17.9718  18.7629  20.6991  22.7700
    23.4690  24.3824  25.2677  28.8357  30.3824  31.0783  31.7968  34.9829
    36.1821  36.4734  36.7991  37.7101  38.9215  39.5906  41.3796  43.1526
    43.3814  43.5257  44.4821  45.1737

          k = 0.0000-0.5774 0.2066 (  4484 PWs)   bands (ev):

  -113.3582-113.3582 -67.5653 -67.5650 -67.5638 -67.5633 -67.5633 -67.5629
    -7.1655  -7.0535   4.0229   4.0907   4.7317   4.9415   4.9578   4.9967
     5.7046   5.7374   5.7391   5.8507   6.2777   6.4067   8.1869   8.2543
     8.9526   8.9841  15.6504  16.4290  18.3363  18.7719  20.8231  22.4680
    23.6493  24.1764  25.0599  28.0311  31.2617  31.8266  31.8949  34.8061
    34.8714  36.5544  36.5708  37.2461  39.9872  40.4753  41.9321  43.0783
    43.2013  43.4356  44.8365  46.2272

          k = 0.0000-0.5774-0.3100 (  4476 PWs)   bands (ev):

  -113.3582-113.3582 -67.5653 -67.5653 -67.5635 -67.5635 -67.5631 -67.5631
    -7.1072  -7.1072   3.9928   3.9928   4.8548   4.8548   4.9331   4.9331
     5.7182   5.7182   5.8140   5.8140   6.3174   6.3174   8.6131   8.6131
     8.7410   8.7410  15.9004  15.9004  18.6172  18.6172  21.4918  21.4918
    23.9065  23.9065  26.3424  26.3424  31.8918  31.8918  33.1802  33.1802
    35.6482  35.6482  36.8142  36.8142  40.5802  40.5802  42.6810  42.6810
    43.7080  43.7080  45.3182  45.3182

          k = 0.1000 0.1732 0.0000 (  4461 PWs)   bands (ev):

  -113.3583-113.3582 -67.5656 -67.5633 -67.5631 -67.5628 -67.5628 -67.5624
    -7.7622  -7.1248   4.2427   4.4131   4.4997   4.5491   4.6989   4.7511
     5.4657   5.5166   5.7433   5.8724   5.9912   8.4440   8.7033   9.1160
     9.8314   9.8763  12.5346  16.5259  18.3589  21.0176  22.5294  23.4752
    23.8495  25.0120  26.0580  26.2711  30.2994  30.5989  31.9911  32.3696
    33.7114  33.7801  35.4534  36.7104  37.2956  38.4749  38.7104  39.8139
    40.2483  40.8178  42.9740  46.1355

          k = 0.1000 0.1732 0.1033 (  4460 PWs)   bands (ev):

  -113.3583-113.3582 -67.5654 -67.5633 -67.5632 -67.5630 -67.5627 -67.5624
    -7.7208  -7.1688   4.2118   4.3617   4.4900   4.4972   4.6678   4.6768
     5.4955   5.5375   5.7319   5.7894   6.4044   8.5201   8.6440   9.0689
     9.7592   9.8126  12.8014  16.1791  18.6084  21.0704  22.5420  23.1186
    23.3678  24.5604  26.6750  26.7964  30.2649  30.6275  32.3968  32.5290
    33.3790  33.8308  35.3260  36.7956  37.1257  38.0520  38.8043  39.6259
    40.8327  41.1107  42.9943  45.0509

          k = 0.1000 0.1732 0.2066 (  4435 PWs)   bands (ev):

  -113.3583-113.3582 -67.5650 -67.5637 -67.5631 -67.5629 -67.5627 -67.5625
    -7.6068  -7.2879   4.1388   4.1843   4.4886   4.4958   4.5950   4.6235
     5.5682   5.5861   5.6979   5.7285   7.1080   8.3236   8.7449   9.1643
     9.4975   9.6385  13.5025  15.3854  19.2198  20.9806  22.0803  22.4058
    23.3265  24.0088  27.6570  27.7135  29.7041  31.0524  31.9233  32.8819
    33.7052  33.7316  35.1791  36.6181  37.3311  37.8182  38.7684  40.3241
    41.3003  41.7095  42.4160  43.3734

          k = 0.1000 0.1732-0.3100 (  4446 PWs)   bands (ev):

  -113.3582-113.3582 -67.5643 -67.5643 -67.5629 -67.5629 -67.5627 -67.5627
    -7.4486  -7.4486   4.1019   4.1019   4.5080   4.5080   4.5734   4.5734
     5.6447   5.6447   5.6543   5.6543   7.7911   7.7911   9.0940   9.0940
     9.4047   9.4047  14.4293  14.4293  20.1063  20.1063  22.0848  22.0848
    23.5695  23.5695  28.2646  28.2646  29.9063  29.9063  32.5808  32.5808
    33.7007  33.7007  35.7133  35.7133  37.8263  37.8263  40.1749  40.1749
    41.3287  41.3287  42.5167  42.5167

          k = 0.1000 0.2887 0.0000 (  4446 PWs)   bands (ev):

  -113.3583-113.3581 -67.5653 -67.5639 -67.5635 -67.5631 -67.5630 -67.5626
    -7.5831  -7.0601   4.1634   4.4251   4.5422   4.6459   4.8598   4.9956
     5.4178   5.5396   5.7535   5.9390   6.0877   7.6237   8.1225   8.5694
     9.5693   9.5976  13.6685  17.4118  18.3864  19.7950  21.6156  22.7849
    23.3218  24.9696  25.8114  26.9492  30.1021  31.4738  32.4926  33.8512
    35.0713  35.2254  36.2866  36.6812  38.2676  38.4456  38.6025  40.5581
    40.8182  41.2915  42.2773  45.1164

          k = 0.1000 0.2887 0.1033 (  4447 PWs)   bands (ev):

  -113.3583-113.3582 -67.5652 -67.5638 -67.5637 -67.5632 -67.5629 -67.5626
    -7.5481  -7.0950   4.1311   4.3549   4.5401   4.6222   4.8297   4.8491
     5.4618   5.5639   5.7404   5.8477   6.4957   7.7170   8.0951   8.5841
     9.5119   9.5491  13.8257  16.9476  18.6517  19.8620  21.6949  22.5553
    23.1211  24.8545  25.7866  27.3749  29.9685  31.9110  32.6272  33.3006
    34.4277  35.3641  36.4404  37.4535  37.7951  38.4416  38.9869  39.9510
    41.2800  41.8105  42.5920  45.5630

          k = 0.1000 0.2887 0.2066 (  4458 PWs)   bands (ev):

  -113.3582-113.3582 -67.5650 -67.5641 -67.5635 -67.5632 -67.5629 -67.5627
    -7.4524  -7.1905   4.0659   4.1686   4.5609   4.6015   4.7203   4.7682
     5.5589   5.6059   5.7054   5.7678   7.0724   7.7643   8.2306   8.7403
     9.2848   9.3421  14.3231  16.0626  19.1225  19.9356  21.5427  22.0447
    23.1873  24.2674  26.4533  28.0017  29.5594  31.4617  32.8136  33.0767
    34.9246  35.6362  36.0429  36.8324  38.3539  38.7426  39.2163  40.3758
    41.7402  42.1398  43.1421  44.5841

          k = 0.1000 0.2887-0.3100 (  4450 PWs)   bands (ev):

  -113.3582-113.3582 -67.5646 -67.5646 -67.5633 -67.5633 -67.5629 -67.5629
    -7.3214  -7.3214   4.0547   4.0547   4.5913   4.5913   4.7055   4.7055
     5.6517   5.6517   5.6743   5.6743   7.4909   7.4909   8.7756   8.7756
     9.0464   9.0464  15.1211  15.1211  19.6519  19.6519  21.5723  21.5723
    23.6667  23.6667  27.5027  27.5027  30.0931  30.0931  33.2436  33.2436
    35.3810  35.3810  36.2526  36.2526  38.5332  38.5332  40.5566  40.5566
    41.7095  41.7095  43.7087  43.7087

          k = 0.1000 0.4041 0.0000 (  4459 PWs)   bands (ev):

  -113.3582-113.3581 -67.5649 -67.5644 -67.5641 -67.5634 -67.5632 -67.5627
    -7.3819  -7.0108   4.1447   4.4415   4.5816   4.8063   5.0366   5.1343
     5.4493   5.5927   5.7692   5.9787   6.2385   6.9117   7.6646   7.9628
     9.1845   9.3211  14.8845  17.7983  18.3299  18.9010  21.1340  22.1836
    22.9590  24.5489  26.1507  28.1252  30.0720  30.6906  33.3357  34.9781
    35.2747  36.3136  36.9213  37.6227  38.1142  38.9044  39.4015  40.0978
    42.2008  42.6009  44.0420  45.6457

          k = 0.1000 0.4041 0.1033 (  4458 PWs)   bands (ev):

  -113.3582-113.3581 -67.5650 -67.5643 -67.5641 -67.5634 -67.5632 -67.5628
    -7.3558  -7.0341   4.1094   4.3574   4.5961   4.7814   4.9912   5.0015
     5.4805   5.6267   5.7573   5.9177   6.4442   7.0665   7.6780   8.0551
     9.1869   9.2665  14.9352  17.3324  18.5963  18.9540  21.0835  22.3005
    22.8113  24.6167  25.8628  28.2308  29.9262  31.5427  32.4855  34.3481
    35.6261  36.2660  37.1072  37.6620  38.3283  39.2581  39.9085  40.2373
    41.8424  42.9999  44.5369  45.6126

          k = 0.1000 0.4041 0.2066 (  4462 PWs)   bands (ev):

  -113.3582-113.3582 -67.5651 -67.5646 -67.5638 -67.5634 -67.5631 -67.5629
    -7.2852  -7.0991   4.0428   4.1653   4.6477   4.7485   4.8520   4.9082
     5.5805   5.6584   5.7317   5.8258   6.7017   7.1134   8.0615   8.3255
     8.9667   9.1727  15.1871  16.5439  18.8794  19.0764  20.9749  21.9171
    23.2262  24.4451  25.8861  27.9366  30.0874  31.7119  32.6879  33.3157
    35.8804  36.2855  36.8355  37.5248  39.2778  39.7780  40.4835  41.0166
    41.7246  43.6537  44.4591  45.1111

          k = 0.1000 0.4041-0.3100 (  4468 PWs)   bands (ev):

  -113.3582-113.3582 -67.5649 -67.5649 -67.5634 -67.5634 -67.5630 -67.5630
    -7.1908  -7.1908   4.0400   4.0400   4.7166   4.7166   4.8262   4.8262
     5.6695   5.6695   5.7328   5.7328   6.9281   6.9281   8.5613   8.5613
     8.8201   8.8201  15.7554  15.7554  19.0636  19.0636  21.2583  21.2583
    23.9144  23.9144  26.7863  26.7863  30.9581  30.9581  32.9641  32.9641
    36.3198  36.3199  36.8854  36.8854  39.9328  39.9328  41.0353  41.0353
    42.5002  42.5002  44.9106  44.9106

          k = 0.1000 0.5196 0.0000 (  4463 PWs)   bands (ev):

  -113.3582-113.3581 -67.5648 -67.5645 -67.5644 -67.5636 -67.5635 -67.5628
    -7.2316  -7.0025   4.1900   4.4727   4.6062   4.9431   5.0713   5.1778
     5.5458   5.6403   5.7888   5.9206   6.2694   6.6922   7.2751   7.7324
     8.8051   9.1467  15.9868  17.5349  17.7873  18.7493  20.8283  22.5189
    22.7693  24.1660  26.1831  29.0542  30.0231  30.6126  33.1020  35.0922
    35.7569  35.9425  37.5609  37.8605  38.1915  38.9737  39.9267  42.3820
    42.8106  43.7167  44.7210  45.2126

          k = 0.1000 0.5196 0.1033 (  4465 PWs)   bands (ev):

  -113.3582-113.3581 -67.5651 -67.5646 -67.5642 -67.5635 -67.5634 -67.5629
    -7.2142  -7.0156   4.1502   4.3636   4.6254   4.9194   5.0324   5.1164
     5.5846   5.6625   5.7830   5.9225   6.2485   6.6800   7.4902   7.8798
     8.8728   9.0738  15.8889  17.2295  18.0774  18.7970  20.6654  22.4185
    22.9247  24.2633  25.8872  28.9335  30.0520  31.5058  32.0510  34.8890
    35.6921  36.4107  37.2270  37.7562  38.5667  39.5159  40.4030  42.4677
    43.1866  43.6033  44.6525  45.2077

          k = 0.1000 0.5196 0.2066 (  4461 PWs)   bands (ev):

  -113.3582-113.3582 -67.5652 -67.5650 -67.5638 -67.5634 -67.5633 -67.5630
    -7.1679  -7.0530   4.0700   4.1630   4.6910   4.8821   4.9702   4.9941
     5.6486   5.6858   5.7907   5.8936   6.3003   6.5681   7.9340   8.3081
     8.7339   9.0283  15.8453  16.7060  18.4261  18.8265  20.5852  21.7826
    23.6059  24.3445  25.7244  27.9510  30.6987  31.7013  32.4784  33.5997
    35.7495  36.4388  37.0025  37.6215  39.6657  40.4596  41.2377  42.5660
    43.4156  43.8787  44.8015  45.4684

          k = 0.1000 0.5196-0.3100 (  4464 PWs)   bands (ev):

  -113.3582-113.3582 -67.5652 -67.5652 -67.5635 -67.5635 -67.5631 -67.5631
    -7.1082  -7.1082   4.0506   4.0506   4.7982   4.7982   4.9389   4.9389
     5.6822   5.6822   5.8375   5.8375   6.4242   6.4242   8.3568   8.3568
     8.8064   8.8064  16.1462  16.1462  18.6876  18.6876  21.0227  21.0227
    24.1653  24.1653  26.5034  26.5034  31.7588  31.7588  32.5208  32.5208
    36.4342  36.4342  36.9826  36.9826  40.1952  40.1952  42.7312  42.7312
    43.6003  43.6003  45.3615  45.3615

          k = 0.2000 0.3464 0.0000 (  4461 PWs)   bands (ev):

  -113.3582-113.3581 -67.5650 -67.5642 -67.5641 -67.5634 -67.5632 -67.5629
    -7.4063  -7.0142   4.2471   4.3609   4.6393   4.7255   5.0250   5.1425
     5.4011   5.5668   5.7685   5.9817   6.2486   7.3049   7.4214   7.9624
     9.2006   9.2678  14.8168  17.8061  18.7389  19.1557  21.0802  22.0710
    22.2083  25.2168  25.7543  27.5121  31.6883  32.1212  32.1407  33.7799
    34.8552  36.1052  36.7124  37.8182  37.8763  38.4425  39.2226  39.9921
    42.4502  43.8654  43.9890  45.3342

          k = 0.2000 0.3464 0.1033 (  4458 PWs)   bands (ev):

  -113.3582-113.3581 -67.5650 -67.5642 -67.5640 -67.5635 -67.5631 -67.5629
    -7.3790  -7.0391   4.2007   4.3244   4.6314   4.6928   4.9592   4.9877
     5.4519   5.6170   5.7577   5.9219   6.5062   7.4192   7.5112   7.9690
     9.1059   9.2955  14.9016  17.4391  18.8202  19.2122  21.2883  21.7531
    22.1895  25.5621  25.6348  27.4546  30.9143  32.4160  32.8217  33.0647
    34.5450  36.5307  37.0444  37.2403  38.4472  39.1061  39.7164  40.0448
    41.7877  43.9593  44.1030  46.1286

          k = 0.2000 0.3464 0.2066 (  4470 PWs)   bands (ev):

  -113.3582-113.3582 -67.5650 -67.5645 -67.5637 -67.5635 -67.5630 -67.5630
    -7.3049  -7.1083   4.1124   4.1920   4.6303   4.6500   4.8221   4.8992
     5.5647   5.6547   5.7354   5.8302   6.8391   7.3074   8.0815   8.1359
     8.8586   9.2039  15.2223  16.6585  19.0425  19.3240  21.1242  21.1697
    22.8500  24.9122  26.3957  27.7075  30.2616  30.7205  33.2812  33.8377
    35.1786  35.7949  37.2999  37.5370  38.9324  39.9881  40.2002  40.5952
    41.4392  44.0705  44.4836  45.2376

          k = 0.2000 0.3464-0.3100 (  4464 PWs)   bands (ev):

  -113.3582-113.3582 -67.5648 -67.5648 -67.5635 -67.5635 -67.5631 -67.5631
    -7.2054  -7.2054   4.0899   4.0899   4.6429   4.6429   4.8189   4.8189
     5.6620   5.6620   5.7375   5.7375   7.0961   7.0961   8.4265   8.4265
     8.8235   8.8235  15.8424  15.8424  19.2899  19.2899  20.9038  20.9038
    23.8912  23.8913  27.3869  27.3869  29.9746  29.9746  33.6988  33.6988
    35.5551  35.5551  37.6378  37.6378  39.4723  39.4723  40.9745  40.9745
    41.9324  41.9324  45.2419  45.2419

          k = 0.2000 0.4619 0.0000 (  4460 PWs)   bands (ev):

  -113.3582-113.3581 -67.5647 -67.5645 -67.5643 -67.5637 -67.5635 -67.5631
    -7.2376  -6.9994   4.2968   4.4836   4.6940   4.8287   5.1506   5.2339
     5.4580   5.5551   5.7943   6.0326   6.1859   6.8763   7.2460   7.4882
     8.7987   8.9234  16.0496  17.8237  18.4650  18.7949  21.0673  21.7311
    21.9747  24.4294  25.6677  28.8855  31.5577  32.0201  32.9783  33.7895
    35.5581  36.2779  36.7858  37.4269  37.6411  38.3585  39.2904  42.1441
    42.8346  44.6303  45.4159  46.3570

          k = 0.2000 0.4619 0.1033 (  4464 PWs)   bands (ev):

  -113.3582-113.3581 -67.5649 -67.5645 -67.5641 -67.5638 -67.5633 -67.5631
    -7.2196  -7.0131   4.2711   4.4166   4.6629   4.8012   5.0792   5.1091
     5.4839   5.6376   5.7920   6.0229   6.2579   6.9120   7.2973   7.7141
     8.7305   8.9730  16.0605  17.6187  18.5580  18.8550  20.6526  21.3879
    22.4427  24.7654  25.8921  28.4124  30.8920  32.1414  33.1121  33.3966
    35.6698  36.0744  36.9990  37.8332  38.4352  38.9894  39.3115  42.4844
    42.9085  44.4934  45.0771  46.0711

          k = 0.2000 0.4619 0.2066 (  4461 PWs)   bands (ev):

  -113.3582-113.3582 -67.5651 -67.5648 -67.5638 -67.5636 -67.5633 -67.5631
    -7.1718  -7.0523   4.1928   4.2669   4.6389   4.7581   4.9647   4.9930
     5.5805   5.6684   5.8061   5.9473   6.4417   6.8125   7.5819   8.1892
     8.5154   9.0397  16.1869  17.1311  18.7342  18.9623  20.1637  20.7403
    23.3821  25.1892  26.1512  27.7196  30.1368  31.2877  33.1224  33.7509
    35.5446  35.9849  37.4497  38.0834  39.4604  39.9136  41.0449  42.9493
    43.2594  43.4089  44.7396  45.6082

          k = 0.2000 0.4619-0.3100 (  4454 PWs)   bands (ev):

  -113.3582-113.3582 -67.5650 -67.5650 -67.5637 -67.5637 -67.5632 -67.5632
    -7.1099  -7.1099   4.1655   4.1655   4.6961   4.6961   4.9347   4.9347
     5.6495   5.6495   5.8614   5.8614   6.6353   6.6353   7.9816   7.9816
     8.8344   8.8344  16.5683  16.5683  18.9131  18.9131  20.2141  20.2141
    24.4989  24.4989  26.8715  26.8715  30.4437  30.4437  33.3795  33.3795
    35.8271  35.8272  37.8938  37.8938  40.5071  40.5071  42.0031  42.0031
    43.5701  43.5701  44.6702  44.6702

          k = 0.2000 0.5774 0.0000 (  4469 PWs)   bands (ev):

  -113.3582-113.3581 -67.5647 -67.5643 -67.5643 -67.5639 -67.5637 -67.5632
    -7.1532  -7.0129   4.2896   4.6125   4.7701   4.8656   5.1508   5.2456
     5.5214   5.5910   5.8000   5.8147   6.4120   6.6836   6.7784   7.7796
     8.4869   8.7938  16.9052  17.7835  17.8143  18.7184  20.8238  21.6612
    22.8960  23.5418  25.5494  30.1486  30.6832  32.0870  32.7544  33.9360
    35.9106  36.6330  37.2985  37.3140  38.0862  38.3991  39.3283  39.7348
    44.5249  44.8390  45.7356  47.6282

          k = 0.2000 0.5774 0.1033 (  4456 PWs)   bands (ev):

  -113.3582-113.3581 -67.5649 -67.5646 -67.5642 -67.5637 -67.5636 -67.5632
    -7.1414  -7.0197   4.2758   4.5800   4.5918   4.8999   5.1066   5.1714
     5.5642   5.6120   5.8340   5.8519   6.3535   6.6216   6.9746   7.9946
     8.4886   8.8000  16.7903  17.6821  17.9988  18.7942  20.3503  21.2945
    23.2004  24.0124  25.8687  29.4414  30.0462  32.2909  32.9141  33.5836
    35.9256  36.4819  37.1191  38.0559  38.5613  39.3416  39.5064  40.0797
    44.6593  44.6884  45.3908  47.3098

          k = 0.2000 0.5774 0.2066 (  4468 PWs)   bands (ev):

  -113.3582-113.3582 -67.5651 -67.5649 -67.5640 -67.5636 -67.5634 -67.5631
    -7.1108  -7.0404   4.2219   4.3326   4.6056   4.8366   5.0506   5.0646
     5.6022   5.6257   5.9097   5.9434   6.3111   6.4929   7.3646   8.2315
     8.4643   8.9245  16.7214  17.3669  18.3304  18.8980  19.7579  20.5787
    24.0119  24.7426  26.3075  27.8343  29.7955  31.7144  32.9444  33.4320
    35.9257  36.4262  37.4945  38.2405  39.0719  40.5885  41.2925  41.5048
    43.8463  44.7321  45.6522  46.3930

          k = 0.2000 0.5774-0.3100 (  4472 PWs)   bands (ev):

  -113.3582-113.3582 -67.5651 -67.5651 -67.5638 -67.5637 -67.5632 -67.5632
    -7.0730  -7.0730   4.2069   4.2069   4.7045   4.7045   5.0325   5.0325
     5.6196   5.6196   5.9666   5.9666   6.3680   6.3680   7.8121   7.8121
     8.8488   8.8488  16.9460  16.9460  18.6658  18.6659  19.9428  19.9428
    24.8902  24.8903  26.5943  26.5943  30.5628  30.5628  33.1594  33.1594
    36.2315  36.2315  37.9002  37.9002  40.1037  40.1037  43.0293  43.0293
    43.9318  43.9318  46.0844  46.0846

          k = 0.3000 0.5196 0.0000 (  4469 PWs)   bands (ev):

  -113.3582-113.3581 -67.5645 -67.5644 -67.5641 -67.5641 -67.5638 -67.5634
    -7.1153  -7.0253   4.3277   4.6593   4.7860   4.9769   5.2415   5.4379
     5.4413   5.5038   5.7369   5.7556   6.4054   6.4583   6.7530   7.8860
     8.4610   8.4827  17.2654  17.8279  18.3264  18.4110  20.9598  21.0981
    22.7932  23.9943  24.6027  30.3703  31.9586  32.1269  32.6995  34.4121
    35.5552  36.4048  36.8071  37.0131  37.5544  38.2803  39.2523  39.3121
    44.4949  45.9917  46.7086  46.8373

          k = 0.3000 0.5196 0.1033 (  4468 PWs)   bands (ev):

  -113.3582-113.3581 -67.5647 -67.5646 -67.5642 -67.5638 -67.5635 -67.5635
    -7.1067  -7.0287   4.3483   4.5663   4.6923   4.9170   5.1774   5.2406
     5.4824   5.5964   5.8005   5.8712   6.3707   6.5933   6.7262   8.0730
     8.3758   8.6042  17.2793  17.8059  18.4255  18.4295  20.3216  20.6449
    23.2389  24.5159  25.1078  29.4595  30.9861  31.5286  33.2837  34.4431
    35.8524  35.9048  37.2564  38.0688  38.3069  38.9143  39.1047  39.5480
    44.6458  45.9777  46.4399  46.9428

          k = 0.3000 0.5196 0.2066 (  4466 PWs)   bands (ev):

  -113.3582-113.3582 -67.5650 -67.5649 -67.5641 -67.5637 -67.5634 -67.5632
    -7.0851  -7.0399   4.3691   4.3983   4.5486   4.7776   5.1027   5.1279
     5.5331   5.5927   5.9125   6.0261   6.3408   6.5446   7.0425   7.9685
     8.5669   8.8432  17.3582  17.7290  18.4872  18.6898  19.3735  19.8458
    24.1721  25.5578  25.8682  27.7169  29.9378  30.6304  33.5787  34.1980
    35.6858  36.1585  37.6813  38.0803  39.6882  40.0267  40.8394  41.5144
    44.3132  45.3955  45.5080  46.2746

          k = 0.3000 0.5196-0.3100 (  4462 PWs)   bands (ev):

  -113.3582-113.3582 -67.5650 -67.5650 -67.5639 -67.5639 -67.5632 -67.5632
    -7.0599  -7.0599   4.3248   4.3248   4.6205   4.6205   5.0904   5.0904
     5.5678   5.5678   6.0153   6.0153   6.4188   6.4188   7.5154   7.5154
     8.8633   8.8633  17.5486  17.5486  18.6848  18.6848  19.2120  19.2120
    25.4275  25.4275  26.4987  26.4987  29.8485  29.8485  33.8284  33.8284
    36.0125  36.0125  37.6606  37.6606  41.1994  41.1994  42.2752  42.2752
    44.4562  44.4562  45.3876  45.3876

          k = 0.0000-0.1155 0.1033 (  4446 PWs)   bands (ev):

  -113.3583-113.3582 -67.5655 -67.5630 -67.5629 -67.5628 -67.5625 -67.5623
    -7.8214  -7.2173   4.2828   4.3888   4.4092   4.4455   4.5726   4.5860
     5.5233   5.5388   5.7276   5.7478   6.3616   9.0077   9.2264   9.2485
     9.8993   9.9870  12.1016  15.5726  18.5935  22.1500  23.2276  23.2585
    23.5800  24.2977  26.9222  28.1887  28.8090  30.1764  31.2860  31.4870
    32.9488  34.0566  34.8112  34.9425  37.3173  38.1508  38.8714  39.0782
    41.0272  41.1099  43.6466  44.2293

          k = 0.0000-0.1155 0.2066 (  4435 PWs)   bands (ev):

  -113.3583-113.3582 -67.5650 -67.5635 -67.5628 -67.5627 -67.5625 -67.5624
    -7.6979  -7.3492   4.1966   4.2136   4.4346   4.4409   4.5247   4.5358
     5.5809   5.5876   5.6973   5.7071   7.0706   8.5802   9.2087   9.4075
     9.7075   9.8339  12.9587  14.8702  19.2303  21.5792  22.4779  23.1654
    23.2923  23.8677  27.7937  29.1122  29.2074  30.0646  31.3191  31.4374
    33.6177  34.3202  34.5900  35.4620  36.8658  36.9313  38.2556  40.0216
    41.4443  41.6150  42.4767  42.9271

          k = 0.0000-0.2309 0.1033 (  4444 PWs)   bands (ev):

  -113.3583-113.3582 -67.5653 -67.5635 -67.5633 -67.5630 -67.5628 -67.5624
    -7.6743  -7.1476   4.1559   4.3841   4.4911   4.5558   4.7099   4.7182
     5.4801   5.5443   5.7352   5.8039   6.4265   8.1564   8.6341   8.9120
     9.6901   9.7824  13.0682  16.3981  18.6028  20.5975  22.2326  23.3681
    23.4673  24.3494  25.7490  28.1171  28.8588  31.4985  32.3229  33.3711
    33.9748  34.3218  35.1678  36.6983  37.6989  38.0964  38.5907  40.2746
    40.3468  41.4635  42.7402  45.2724

          k = 0.0000-0.2309 0.2066 (  4453 PWs)   bands (ev):

  -113.3583-113.3582 -67.5649 -67.5638 -67.5633 -67.5629 -67.5629 -67.5626
    -7.5649  -7.2607   4.0926   4.1817   4.5258   4.5404   4.6256   4.6510
     5.5619   5.5896   5.6999   5.7364   7.1120   8.1411   8.5710   9.1015
     9.4069   9.6032  13.7105  15.5692  19.1884  20.5956  21.8309  22.5000
    23.5161  23.9892  26.5081  28.6094  29.2441  31.7862  32.3282  32.6335
    33.7117  34.1200  35.4238  37.2895  37.4121  38.1885  38.8166  40.2569
    41.3559  41.6871  42.7410  43.6851

          k = 0.0000-0.3464 0.1033 (  4468 PWs)   bands (ev):

  -113.3582-113.3582 -67.5651 -67.5640 -67.5639 -67.5632 -67.5630 -67.5626
    -7.4770  -7.0695   4.0644   4.3516   4.5789   4.7049   4.8844   4.9257
     5.4624   5.5850   5.7453   5.8602   6.5083   7.2926   7.9821   8.4867
     9.4172   9.5151  14.1583  17.0606  18.5721  19.3454  21.3748  22.8769
    23.6559  24.2319  25.3720  28.6990  29.0155  30.9069  32.6822  35.0022
    35.0782  36.2163  36.4443  37.4941  37.8252  38.7359  39.2749  39.9482
    41.3673  41.7097  43.8145  44.6637

          k = 0.0000-0.3464 0.2066 (  4469 PWs)   bands (ev):

  -113.3582-113.3582 -67.5650 -67.5643 -67.5637 -67.5631 -67.5631 -67.5627
    -7.3899  -7.1544   4.0095   4.1463   4.6315   4.6808   4.7792   4.8063
     5.5647   5.6179   5.7094   5.7787   6.9470   7.4384   8.1199   8.7153
     9.2300   9.3063  14.5562  16.1763  18.9839  19.4581  21.3052  22.4632
    23.7021  24.0349  25.4733  28.0842  30.0108  31.9147  32.2243  33.2354
    35.2623  36.1299  36.5873  37.4405  38.5420  38.7194  39.6344  41.2573
    41.5302  41.7818  44.4151  44.6347

          k = 0.0000-0.4619 0.1033 (  4460 PWs)   bands (ev):

  -113.3582-113.3581 -67.5651 -67.5645 -67.5642 -67.5634 -67.5633 -67.5627
    -7.2940  -7.0231   4.0685   4.3102   4.6343   4.8782   5.0134   5.0472
     5.5559   5.6561   5.7582   5.9258   6.2904   6.8250   7.5846   8.1205
     9.0919   9.2854  15.1998  17.1331  18.2353  18.8080  20.8882  22.6913
    23.5542  24.3107  25.3065  28.7792  30.3426  30.4590  32.0677  35.2055
    35.9283  36.7201  36.9465  37.7236  38.5800  39.7280  40.4238  41.2675
    42.0233  43.2742  43.4479  45.2214

          k = 0.0000-0.4619 0.2066 (  4460 PWs)   bands (ev):

  -113.3582-113.3582 -67.5652 -67.5648 -67.5638 -67.5633 -67.5632 -67.5629
    -7.2334  -7.0767   3.9987   4.1147   4.7065   4.8430   4.9147   4.9427
     5.6395   5.6723   5.7283   5.8332   6.4560   6.8034   8.1078   8.3866
     9.0533   9.0740  15.2982  16.4299  18.5959  18.8621  20.9756  22.4676
    23.6881  24.1262  25.0925  27.9714  31.2026  31.5539  31.8286  34.2290
    35.2171  36.7464  36.8889  37.3962  39.4129  40.2281  41.3875  41.5162
    42.4933  43.6753  44.0785  45.3506

          k =-0.1000-0.2887 0.1033 (  4447 PWs)   bands (ev):

  -113.3583-113.3582 -67.5652 -67.5638 -67.5637 -67.5632 -67.5629 -67.5626
    -7.5481  -7.0950   4.1311   4.3549   4.5401   4.6222   4.8297   4.8491
     5.4618   5.5639   5.7404   5.8477   6.4957   7.7170   8.0951   8.5841
     9.5119   9.5491  13.8257  16.9476  18.6517  19.8620  21.6949  22.5553
    23.1211  24.8545  25.7867  27.3749  29.9685  31.9110  32.6272  33.3006
    34.4277  35.3641  36.4404  37.4535  37.7951  38.4416  38.9869  39.9510
    41.2800  41.8105  42.5920  45.5630

          k =-0.1000-0.2887 0.2066 (  4458 PWs)   bands (ev):

  -113.3582-113.3582 -67.5650 -67.5641 -67.5635 -67.5632 -67.5629 -67.5627
    -7.4524  -7.1905   4.0659   4.1686   4.5609   4.6015   4.7203   4.7682
     5.5589   5.6059   5.7054   5.7678   7.0724   7.7643   8.2306   8.7403
     9.2848   9.3421  14.3231  16.0626  19.1225  19.9356  21.5427  22.0447
    23.1873  24.2674  26.4533  28.0017  29.5594  31.4617  32.8136  33.0767
    34.9246  35.6362  36.0429  36.8324  38.3539  38.7426  39.2163  40.3758
    41.7402  42.1398  43.1421  44.5841

          k =-0.1000-0.4041 0.1033 (  4458 PWs)   bands (ev):

  -113.3582-113.3581 -67.5650 -67.5643 -67.5641 -67.5634 -67.5632 -67.5628
    -7.3558  -7.0341   4.1094   4.3574   4.5961   4.7814   4.9912   5.0015
     5.4805   5.6267   5.7573   5.9177   6.4442   7.0665   7.6779   8.0551
     9.1869   9.2665  14.9352  17.3324  18.5963  18.9540  21.0835  22.3005
    22.8113  24.6167  25.8628  28.2308  29.9262  31.5427  32.4855  34.3481
    35.6261  36.2660  37.1072  37.6620  38.3283  39.2581  39.9085  40.2373
    41.8424  42.9999  44.5369  45.6123

          k =-0.1000-0.4041 0.2066 (  4462 PWs)   bands (ev):

  -113.3582-113.3582 -67.5651 -67.5646 -67.5638 -67.5634 -67.5631 -67.5629
    -7.2852  -7.0991   4.0428   4.1653   4.6477   4.7485   4.8520   4.9082
     5.5805   5.6584   5.7317   5.8258   6.7017   7.1134   8.0615   8.3255
     8.9667   9.1727  15.1871  16.5439  18.8794  19.0764  20.9749  21.9171
    23.2262  24.4451  25.8861  27.9366  30.0874  31.7119  32.6879  33.3157
    35.8804  36.2855  36.8355  37.5248  39.2778  39.7780  40.4835  41.0166
    41.7246  43.6537  44.4591  45.1111

          k =-0.1000-0.5196 0.1033 (  4465 PWs)   bands (ev):

  -113.3582-113.3581 -67.5651 -67.5646 -67.5642 -67.5635 -67.5634 -67.5629
    -7.2142  -7.0156   4.1502   4.3636   4.6254   4.9194   5.0324   5.1164
     5.5846   5.6625   5.7830   5.9225   6.2485   6.6800   7.4902   7.8798
     8.8728   9.0738  15.8889  17.2295  18.0774  18.7970  20.6654  22.4185
    22.9247  24.2633  25.8872  28.9335  30.0520  31.5058  32.0510  34.8890
    35.6921  36.4107  37.2270  37.7562  38.5667  39.5159  40.4030  42.4677
    43.1866  43.6033  44.6524  45.2077

          k =-0.1000-0.5196 0.2066 (  4461 PWs)   bands (ev):

  -113.3582-113.3582 -67.5652 -67.5650 -67.5638 -67.5634 -67.5633 -67.5630
    -7.1679  -7.0530   4.0700   4.1630   4.6910   4.8821   4.9702   4.9941
     5.6486   5.6858   5.7907   5.8936   6.3003   6.5680   7.9340   8.3081
     8.7339   9.0283  15.8453  16.7060  18.4261  18.8265  20.5851  21.7826
    23.6059  24.3445  25.7244  27.9510  30.6987  31.7013  32.4784  33.5997
    35.7495  36.4388  37.0025  37.6215  39.6657  40.4596  41.2377  42.5660
    43.4156  43.8787  44.8015  45.4683

          k =-0.2000-0.4619 0.1033 (  4464 PWs)   bands (ev):

  -113.3582-113.3581 -67.5649 -67.5645 -67.5641 -67.5638 -67.5633 -67.5631
    -7.2196  -7.0131   4.2711   4.4166   4.6629   4.8012   5.0792   5.1091
     5.4839   5.6376   5.7920   6.0229   6.2579   6.9120   7.2973   7.7141
     8.7305   8.9730  16.0605  17.6187  18.5580  18.8550  20.6526  21.3879
    22.4427  24.7654  25.8921  28.4124  30.8920  32.1414  33.1121  33.3966
    35.6698  36.0744  36.9990  37.8332  38.4353  38.9894  39.3115  42.4844
    42.9085  44.4934  45.0771  46.0711

          k =-0.2000-0.4619 0.2066 (  4461 PWs)   bands (ev):

  -113.3582-113.3582 -67.5651 -67.5648 -67.5638 -67.5636 -67.5633 -67.5631
    -7.1718  -7.0523   4.1928   4.2669   4.6389   4.7581   4.9647   4.9930
     5.5805   5.6684   5.8061   5.9473   6.4417   6.8125   7.5819   8.1892
     8.5154   9.0397  16.1869  17.1311  18.7342  18.9623  20.1637  20.7403
    23.3821  25.1892  26.1512  27.7196  30.1368  31.2877  33.1224  33.7509
    35.5446  35.9849  37.4497  38.0834  39.4604  39.9136  41.0449  42.9493
    43.2594  43.4089  44.7396  45.6081

     the Fermi energy is    10.5595 ev

!    total energy              =    -864.69258212 Ry
     estimated scf accuracy    <          2.0E-11 Ry
     smearing contrib. (-TS)   =      -0.00000000 Ry
     internal energy E=F+TS    =    -864.69258212 Ry

     The total energy is F=E-TS. E is the sum of the following terms:
     one-electron contribution =    -571.81792512 Ry
     hartree contribution      =     302.51124214 Ry
     xc contribution           =     -87.21535247 Ry
     ewald contribution        =    -508.17054667 Ry

     convergence has been achieved in  11 iterations

     Writing all to output data dir out/mp-2133.save/
 
     init_run     :      0.71s CPU      0.83s WALL (       1 calls)
     electrons    :     30.73s CPU     33.83s WALL (       1 calls)

     Called by init_run:
     wfcinit      :      0.67s CPU      0.76s WALL (       1 calls)
     potinit      :      0.01s CPU      0.02s WALL (       1 calls)
     hinit0       :      0.01s CPU      0.03s WALL (       1 calls)

     Called by electrons:
     c_bands      :     27.75s CPU     30.29s WALL (      11 calls)
     sum_band     :      2.94s CPU      3.44s WALL (      11 calls)
     v_of_rho     :      0.03s CPU      0.03s WALL (      12 calls)
     mix_rho      :      0.01s CPU      0.02s WALL (      11 calls)

     Called by c_bands:
     init_us_2    :      0.13s CPU      0.15s WALL (    1656 calls)
     init_us_2:cp :      0.12s CPU      0.14s WALL (    1656 calls)
     cegterg      :     25.93s CPU     26.91s WALL (     792 calls)

     Called by *egterg:
     cdiaghg      :      8.51s CPU      8.56s WALL (    2900 calls)
     h_psi        :     14.93s CPU     15.80s WALL (    2972 calls)
     g_psi        :      0.08s CPU      0.08s WALL (    2108 calls)

     Called by h_psi:
     h_psi:calbec :      0.55s CPU      0.59s WALL (    2972 calls)
     vloc_psi     :     13.99s CPU     14.79s WALL (    2972 calls)
     add_vuspsi   :      0.33s CPU      0.35s WALL (    2972 calls)

     General routines
     calbec       :      0.55s CPU      0.58s WALL (    2972 calls)
     fft          :      0.01s CPU      0.03s WALL (     119 calls)
     ffts         :      0.00s CPU      0.00s WALL (      11 calls)
     fftw         :     15.28s CPU     16.23s WALL (  269942 calls)
     davcio       :      0.24s CPU      1.78s WALL (    2646 calls)
 
     Parallel routines
 
     PWSCF        :     31.91s CPU     35.64s WALL

 
   This run was terminated on:  14: 0:43  22Dec2023            

=------------------------------------------------------------------------------=
   JOB DONE.
=------------------------------------------------------------------------------=
