
     Program PWSCF v.7.1 starts on 22Dec2023 at  3:38:52 

     This program is part of the open-source Quantum ESPRESSO suite
     for quantum simulation of materials; please cite
         "P. Giannozzi et al., J. Phys.:Condens. Matter 21 395502 (2009);
         "P. Giannozzi et al., J. Phys.:Condens. Matter 29 465901 (2017);
         "P. Giannozzi et al., J. Chem. Phys. 152 154105 (2020);
          URL http://www.quantum-espresso.org", 
     in publications or presentations arising from this work. More details at
     http://www.quantum-espresso.org/quote

     Parallel version (MPI), running on    24 processors

     MPI processes distributed on     1 nodes
     123102 MiB available memory on the printing compute node when the environment starts
 
     Reading input from pw_mp-2133_nscf_k290_E72.in
Warning: card &IONS ignored
Warning: card / ignored
Warning: card &CELL ignored
Warning: card / ignored

     Current dimensions of program PWSCF are:
     Max number of different atomic species (ntypx) = 10
     Max number of k-points (npk) =  40000
     Max angular momentum in pseudopotentials (lmaxx) =  4

     Atomic positions and unit cell read from directory:
     out/mp-2133.save/
     Atomic positions from file used, from input discarded
 
 
     R & G space division:  proc/nbgrp/npool/nimage =      24
     Subspace diagonalization in iterative solution of the eigenvalue problem:
     one sub-group per band group will be used
     scalapack distributed-memory algorithm (size of sub-group:  4*  4 procs)

 
     Parallelization info
     --------------------
     sticks:   dense  smooth     PW     G-vecs:    dense   smooth      PW
     Min          31      31      8                 1103     1103     166
     Max          32      32      9                 1110     1110     177
     Sum         745     745    211                26513    26513    4139
 
     Using Slab Decomposition
 


     bravais-lattice index     =            4
     lattice parameter (alat)  =       6.1177  a.u.
     unit-cell volume          =     319.8517 (a.u.)^3
     number of atoms/cell      =            4
     number of atomic types    =            2
     number of electrons       =        52.00
     number of Kohn-Sham states=         1200
     kinetic-energy cutoff     =      72.0000  Ry
     charge density cutoff     =     288.0000  Ry
     Exchange-correlation= PBE
                           (   1   4   3   4   0   0   0)

     celldm(1)=   6.117706  celldm(2)=   0.000000  celldm(3)=   1.613066
     celldm(4)=   0.000000  celldm(5)=   0.000000  celldm(6)=   0.000000

     crystal axes: (cart. coord. in units of alat)
               a(1) = (   1.000000   0.000000   0.000000 )  
               a(2) = (  -0.500000   0.866025   0.000000 )  
               a(3) = (   0.000000   0.000000   1.613066 )  

     reciprocal axes: (cart. coord. in units 2 pi/alat)
               b(1) = (  1.000000  0.577350  0.000000 )  
               b(2) = (  0.000000  1.154701  0.000000 )  
               b(3) = (  0.000000  0.000000  0.619937 )  


     PseudoPot. # 1 for O  read from file:
     /usr/scratch4/magr4985/MG/HTDF/pseudo/SG15/O.upf
     MD5 check sum: e36c48deb68f4e355fffe4602be2c42c
     Pseudo is Norm-conserving, Zval =  6.0
     Generated using ONCVPSP code by D. R. Hamann
     Using radial grid of  602 points,  4 beta functions with: 
                l(1) =   0
                l(2) =   0
                l(3) =   1
                l(4) =   1

     PseudoPot. # 2 for Zn read from file:
     /usr/scratch4/magr4985/MG/HTDF/pseudo/SG15/Zn.upf
     MD5 check sum: 732f41c0cd6489a4b50a33b4ec99a2d3
     Pseudo is Norm-conserving, Zval = 20.0
     Generated using ONCVPSP code by D. R. Hamann
     Using radial grid of  602 points,  6 beta functions with: 
                l(1) =   0
                l(2) =   0
                l(3) =   1
                l(4) =   1
                l(5) =   2
                l(6) =   2

     atomic species   valence    mass     pseudopotential
        O              6.00    15.99940     O ( 1.00)
        Zn            20.00    65.40900     Zn( 1.00)

      6 Sym. Ops. (no inversion) found



   Cartesian axes

     site n.     atom                  positions (alat units)
         1           Zn  tau(   1) = (   0.0000000   0.5773502   0.8074876  )
         2           Zn  tau(   2) = (   0.5000000   0.2886752   0.0009545  )
         3           O   tau(   3) = (   0.0000000   0.5773502   1.4190439  )
         4           O   tau(   4) = (   0.5000000   0.2886752   0.6125108  )

     number of k points=    13  Gaussian smearing, width (Ry)=  0.0005
                       cart. coord. in units 2pi/alat
        k(    1) = (   0.0000000   0.0000000   0.0000000), wk =   0.0312500
        k(    2) = (   0.0000000   0.0000000   0.1549843), wk =   0.0625000
        k(    3) = (   0.0000000   0.0000000  -0.3099687), wk =   0.0312500
        k(    4) = (   0.0000000   0.2886751   0.0000000), wk =   0.1875000
        k(    5) = (   0.0000000   0.2886751   0.1549843), wk =   0.1875000
        k(    6) = (   0.0000000   0.2886751  -0.3099687), wk =   0.1875000
        k(    7) = (   0.0000000  -0.5773503   0.0000000), wk =   0.0937500
        k(    8) = (   0.0000000  -0.5773503   0.1549843), wk =   0.1875000
        k(    9) = (   0.0000000  -0.5773503  -0.3099687), wk =   0.0937500
        k(   10) = (   0.2500000   0.4330127   0.0000000), wk =   0.1875000
        k(   11) = (   0.2500000   0.4330127   0.1549843), wk =   0.3750000
        k(   12) = (   0.2500000   0.4330127  -0.3099687), wk =   0.1875000
        k(   13) = (   0.0000000  -0.2886751   0.1549843), wk =   0.1875000

     Dense  grid:    26513 G-vectors     FFT dimensions: (  36,  36,  54)

     Estimated max dynamical RAM per process >      76.38 MB

     Estimated total dynamical RAM >       1.79 GB

     The potential is recalculated from file :
     out/mp-2133.save/charge-density

     Starting wfcs are random

     Band Structure Calculation
     Davidson diagonalization with overlap

     ethr =  5.00E-06,  avg # of iterations = 10.4

     total cpu time spent up to now is      598.9 secs

     End of band structure calculation

          k = 0.0000 0.0000 0.0000 (  3321 PWs)   bands (ev):

  -113.3535-113.3533 -67.5648 -67.5617 -67.5617 -67.5616 -67.5612 -67.5612
    -7.9258  -7.1981   4.3686   4.3686   4.4145   4.4950   4.5605   4.5605
     5.5226   5.5226   5.7321   5.7321   6.0234   9.3224   9.3224  10.0264
    10.1136  10.1136  10.9804  15.4373  18.3688  23.1304  23.1304  24.2015
    24.3955  24.3955  26.7575  28.4000  28.4000  30.0821  30.0821  30.1502
    31.4476  33.4071  35.0836  35.0836  37.6906  38.6636  38.6636  39.0077
    41.3678  41.3678  44.7427  44.7428  45.4483  47.0423  47.0424  49.3679
    49.3679  51.1121  52.2559  54.2921  57.2018  58.5064  58.5064  60.2885
    60.4834  60.7416  61.1917  61.1917  62.8358  62.8358  64.6485  65.6528
    66.0364  66.0364  66.3264  66.6884  66.6884  67.4707  67.4707  70.1127
    70.1128  70.1363  71.3792  71.3792  73.2964  73.2964  74.1872  74.2408
    74.8993  74.8993  77.5789  77.5789  77.7155  78.1695  78.1695  78.6354
    79.8164  79.8586  80.3422  80.6286  80.6286  80.6996  80.6996  80.7203
    81.6525  81.6525  83.4464  83.6151  83.6151  84.3843  85.8978  85.8978
    87.7662  88.6861  89.0949  89.0949  89.3631  89.3631  90.7648  95.7684
    95.7684  96.7877  96.7877  97.6271  97.8669  98.7790 100.2011 100.8574
   100.8574 101.9722 103.6707 103.6707 104.4020 104.4919 104.4919 104.6981
   104.6981 105.7400 105.7400 107.0198 107.0198 107.2456 107.3168 107.6251
   107.6251 107.7883 109.8048 109.8048 110.0495 110.0495 111.4856 111.4856
   114.7259 117.4880 117.7171 117.7171 119.8466 122.0066 123.1097 123.1097
   124.1586 124.1586 125.8878 125.8878 126.1476 126.4215 126.7163 127.5662
   127.9798 128.4992 128.8494 128.8494 129.4435 129.4435 129.6193 130.9180
   131.9928 131.9928 132.9097 134.7168 135.2010 135.2010 136.4325 136.4325
   137.2216 137.2216 137.9711 138.1532 138.3677 138.8856 138.8856 140.1152
   140.6775 140.6776 140.9299 140.9299 142.2479 142.4837 142.4837 142.8656
   143.1572 143.1572 143.2119 143.9406 143.9406 143.9457 144.0591 144.0591
   145.7362 145.7362 146.2015 146.2015 146.4531 146.5226 147.9304 147.9304
   148.7751 148.9768 148.9768 151.5187 152.1765 153.2636 153.6023 153.6023
   153.7922 154.1529 154.1529 154.2505 155.6168 155.6168 156.0440 156.0440
   156.5763 156.5763 156.7747 157.3547 157.3547 157.4181 157.4181 157.8975
   158.0504 158.0504 158.4024 159.6689 159.6689 160.2170 161.4523 161.4523
   161.5069 162.3108 163.4948 163.4948 163.6020 163.7829 163.7829 163.9307
   163.9307 166.3920 166.5389 166.5389 167.1243 167.7148 169.5497 169.5497
   170.4069 170.8218 171.5746 171.5746 172.7288 172.7288 173.0361 173.6519
   173.6519 174.2858 176.6313 176.6313 177.1068 177.1068 177.3947 177.5357
   179.0431 179.5132 179.8198 179.8198 180.6823 180.6823 180.8278 181.3202
   181.3202 181.3334 182.2667 182.2667 183.1398 183.9598 183.9598 184.5310
   184.7322 184.7322 185.2311 185.3591 186.6673 186.6673 187.1220 187.1220
   189.8828 190.9061 191.2294 191.2294 191.6137 192.3757 192.3757 192.4542
   192.7656 192.7656 193.7422 193.7422 194.2009 194.3788 194.3996 194.3996
   195.6592 195.6592 196.0079 196.0293 197.5094 197.5094 199.4487 203.3030
   203.3030 203.3097 203.3097 203.3471 206.4312 206.8620 206.8620 208.3786
   211.0566 211.0566 211.0954 211.5385 211.8060 211.8060 212.4470 212.4470
   214.0454 214.0454 214.4449 214.6096 214.6096 214.7785 214.7785 214.9146
   214.9146 215.7550 216.3712 216.6323 216.6323 216.9272 217.2997 217.6132
   218.0814 218.0814 218.2131 218.5594 218.5594 218.6410 219.6934 219.6934
   220.4303 220.4303 220.9831 220.9831 221.0347 221.0347 221.1573 221.9349
   222.2808 222.2808 223.0236 223.0236 223.2151 223.6841 223.9972 224.0312
   224.3449 225.3098 225.3098 226.3814 226.3814 227.1067 227.1067 228.5149
   228.5149 228.8885 229.9112 229.9112 230.0663 230.0663 232.2477 232.4164
   233.8107 236.0237 236.2322 236.6010 236.6010 239.1508 239.1508 240.3994
   240.3994 241.4785 241.6091 241.6340 242.1564 244.2037 244.2037 244.9140
   245.0529 245.0529 245.6651 245.6651 245.8090 245.8090 245.8371 245.8990
   246.7105 247.5740 247.5740 247.9659 248.4497 248.4497 249.1998 249.1998
   249.2519 249.2519 249.6609 249.6620 249.9949 250.8311 250.8311 251.2172
   251.2172 251.9790 251.9790 252.0794 252.3805 252.4210 252.8238 252.8312
   252.8312 253.1680 253.1680 253.4498 253.4498 254.7757 254.7757 255.9173
   255.9173 256.1166 256.3005 256.3005 256.3150 256.4930 256.5237 256.5685
   257.2886 257.2886 257.4064 257.5394 257.5394 257.6177 258.3941 258.5142
   258.5142 259.9613 259.9613 260.4567 260.4567 261.7540 261.7540 262.5704
   263.3706 263.5506 263.5506 263.6722 263.6722 264.2516 265.1849 265.5075
   265.5075 266.6036 267.1929 267.1929 267.6317 267.8204 267.8242 268.0324
   268.1300 268.1300 268.6383 269.0628 269.2508 269.2508 269.8136 269.8136
   270.3464 271.0642 271.1945 271.1945 271.2676 271.2676 271.4558 271.9500
   271.9500 272.0771 272.0771 272.2372 272.3342 272.3342 272.5296 272.5743
   272.5743 273.4446 273.6979 273.7327 273.7327 274.0148 274.0148 274.2363
   274.2363 274.4520 274.5634 274.5634 275.1143 275.6671 275.8582 275.8582
   275.8856 275.8856 276.5055 276.7097 276.7097 276.9122 278.3933 281.3079
   281.3079 282.0795 283.5695 283.5695 284.7056 284.7653 284.7653 285.5649
   285.5649 287.8168 287.8168 288.8244 289.2195 289.3635 289.3635 290.0811
   290.4386 290.4386 291.4025 291.4026 292.7130 295.4712 295.4801 295.4801
   295.6319 295.9070 296.4632 296.4632 296.6018 296.8524 296.8524 297.3731
   297.3731 298.1710 298.1710 298.6874 298.6874 299.0039 299.1613 299.6502
   299.6502 299.6836 300.4629 300.5291 300.5291 301.4240 301.4240 301.9712
   303.4442 303.5221 303.5221 303.5723 303.5723 304.8892 305.7224 306.0232
   306.0232 306.1033 306.4684 307.7579 307.7579 309.2596 309.2596 309.4504
   309.7093 311.4631 311.4631 311.8773 311.8773 312.1855 312.1855 312.4364
   312.5676 312.5676 313.2616 313.2616 313.2672 313.4708 313.7982 316.4919
   317.3893 319.3738 319.3738 319.6214 319.6214 321.4815 321.4815 321.5269
   321.8315 321.8315 322.2330 322.2330 322.4122 323.2465 323.2465 323.5721
   323.5721 324.0834 324.0834 324.3051 324.8509 325.1460 325.2387 325.2578
   325.4980 325.4980 326.3120 327.1519 327.1519 327.8818 327.8818 328.4735
   328.6065 328.6065 328.8214 329.6737 329.6737 330.5227 330.5469 331.2226
   331.2226 331.2375 331.2375 331.8949 331.8949 332.0583 332.6244 333.0749
   333.5443 333.5443 333.6249 333.6249 334.0305 334.0305 334.4767 334.4767
   334.5669 334.5694 334.5871 334.8075 334.9782 335.5488 335.5488 336.3278
   336.9805 336.9805 337.5728 337.6572 337.6744 337.6744 338.3653 338.3653
   339.9330 339.9330 340.4124 342.2002 342.2002 342.9650 342.9650 343.5644
   344.0736 344.4723 344.4723 345.4146 345.4146 345.7460 345.7460 346.6455
   348.0982 348.2640 348.4079 348.4079 348.4480 348.4480 350.3316 350.8456
   351.1258 351.1258 351.4950 351.9354 352.7661 352.9331 352.9331 354.6610
   354.7406 355.8903 355.8903 357.0873 357.0873 357.3163 357.3163 357.9001
   357.9001 358.4955 358.4955 359.3249 359.8418 360.1102 360.5613 360.9307
   360.9307 361.4561 361.7849 361.8424 361.8424 362.7294 362.7294 362.7341
   363.7217 364.5766 364.5766 364.6163 365.1270 365.1270 366.6208 366.6208
   366.7632 366.8647 366.8647 367.0443 367.0704 367.0704 367.5028 367.7360
   367.7360 367.8242 367.8242 368.0776 368.0776 368.1499 368.1878 369.7704
   369.7704 369.9144 370.6569 371.3764 371.3764 371.4800 371.4800 371.7751
   371.9074 371.9074 372.0067 372.7258 372.7259 372.9741 372.9741 373.6958
   374.6179 374.6179 375.2650 375.2650 375.4038 377.0253 377.0253 377.7896
   378.6188 378.9264 379.0608 379.0608 379.2051 379.2051 380.9876 381.1242
   381.1242 381.3432 381.5128 381.8278 381.9862 381.9862 382.2322 382.3797
   384.0187 384.0187 384.4514 384.4514 384.7291 384.7291 384.7330 384.9063
   385.2569 385.2569 386.0941 386.1517 386.1517 386.2441 386.2441 386.6411
   386.8451 386.8451 387.1125 387.2621 387.2621 387.4336 387.4487 387.7600
   387.7600 388.1463 388.1463 388.6764 388.6764 389.5553 389.5784 389.5784
   389.7158 390.3255 391.1557 391.1557 391.5528 391.9262 392.2941 392.3996
   392.3996 393.7736 393.7736 393.8056 394.3461 394.3461 394.8765 394.8765
   395.6166 395.6166 395.8274 396.4276 396.4447 398.5598 398.5599 398.6897
   398.6897 398.8222 399.1102 399.2210 399.2210 399.3491 399.7583 399.7583
   399.9218 400.3541 401.1836 401.1836 401.3426 401.3426 402.2551 402.3743
   402.3743 402.5177 402.5177 402.9939 402.9939 403.1450 403.3774 403.3774
   403.4304 403.8718 403.8718 404.5763 404.7238 404.7238 405.2047 405.2047
   405.2295 405.2295 405.6774 405.7603 405.7603 405.8349 405.9479 405.9479
   406.1516 406.1669 406.4245 406.5055 407.3475 408.1281 408.1282 408.3934
   408.6857 408.7765 408.7765 409.1024 409.1024 409.2707 409.2707 409.8673
   409.8673 410.0931 410.5965 410.5965 411.6808 411.6885 411.6940 411.8240
   411.8240 412.0384 412.0384 412.5790 412.5790 412.7904 413.1244 413.1244
   413.3897 413.5159 416.1515 416.5811 416.5811 416.9376 417.1572 417.1572
   418.8044 418.8044 419.0419 419.6084 420.1270 420.3332 420.3332 421.8208
   421.8208 422.1919 422.2085 422.3868 422.3868 422.4598 422.4598 423.1280
   423.1280 423.2814 423.3554 423.5482 423.5482 423.9743 423.9743 424.0303
   424.0303 424.3214 424.3598 424.3598 424.4060 424.6516 424.8841 425.3731
   425.3731 426.8259 426.8259 427.3313 427.6638 427.6638 428.7627 428.8369
   428.8369 429.1317 429.6597 429.6597 431.8070 432.3037 432.3037 433.6984
   435.0017 435.0017 435.9130 436.0014 436.1725 436.1725 436.2314 436.2314
   436.3573 436.8517 437.1816 437.1816 437.9014 437.9196 439.2260 439.2260
   439.5345 440.3039 440.5171 440.5669 440.5669 440.8546 441.0238 441.4249
   441.4249 441.4765 441.4765 442.3296 442.7975 443.0288 443.0288 443.2892
   443.2892 444.0232 444.0232 444.6478 444.6478 444.6603 444.8809 445.0135
   445.0135 445.0160 445.0160 445.0709 445.0989 445.8039 445.8039 446.2629
   446.3051 446.3051 447.0534 447.0801 447.0801 447.0982 447.1693 447.3052
   447.3052 447.4376 447.4713 447.5232 447.5406 447.5406 447.7071 447.7071
   448.5366 448.5366 448.9515 448.9515 449.5987 449.5987 449.7026 449.7026
   449.7148 449.7400 450.8425 450.9309 451.2248 451.2755 451.2755 451.7484
   451.7484 452.0274 452.0274 452.7375 452.7375 452.9250 453.0558 453.8724
   453.8957 460.1953 460.1953 461.0787 461.1056 461.1056 463.0729 463.0729
   464.5643 465.5957 465.5957 465.7908 465.7908 466.2448 466.2448 468.5185
   468.5185 468.9304 468.9304 469.0991 469.5539 470.3164 470.3164 470.3603
   471.1356 471.1356 472.9104 473.3093 474.1598 474.1598 475.1422 475.1422
   475.4750 476.1738 478.4887 478.4887 478.6681 478.7808 478.7808 479.3745
   479.3745 479.8828 480.3007 480.3007 480.7550 481.4660 481.4871 482.7024
   483.2174 483.2174 483.4606 483.4606 483.7275 484.0837 484.0837 484.4394
   485.1680 485.1680 485.1778 485.1778 485.9379 486.5757 487.0184 487.0184
   487.2327 487.4265 487.4265 487.4395 487.9745 487.9745 488.1517 488.1517
   488.2687 488.2687 488.4418 488.4418 488.8381 488.8430 488.9815 488.9972
   489.2077 489.2077 489.4410 489.6223 489.6223 490.8896 490.8896 491.3259
   491.5570 491.5570 491.8613 491.8613 493.9646 493.9646 493.9721 493.9721
   494.0602 494.3089 494.3089 494.4185 494.9954 495.0057 495.0492 495.1623
   495.1623 495.5528 496.2429 496.2429 496.4177 496.5362 496.5661 496.5661

          k = 0.0000 0.0000 0.1550 (  3315 PWs)   bands (ev):

  -113.3534-113.3533 -67.5643 -67.5621 -67.5617 -67.5617 -67.5613 -67.5613
    -7.8241  -7.3098   4.2786   4.3153   4.3848   4.3848   4.5193   4.5193
     5.5635   5.5635   5.7129   5.7129   6.6665   9.0832   9.4404   9.4404
    10.0001  10.0001  12.1027  14.9079  18.8575  22.4866  23.1536  23.1536
    24.0007  24.0007  27.3997  29.0390  29.0390  29.6735  30.7002  30.7002
    33.5066  33.5890  34.4580  34.4580  37.5212  37.5212  37.8301  38.9912
    41.6953  41.6953  42.9459  42.9459  45.0813  46.1989  50.7311  50.7312
    50.7697  50.7697  53.4858  57.4972  58.3906  58.7433  58.7433  59.2017
    59.2017  59.5458  60.5998  60.6861  60.6861  61.5144  63.2128  63.2128
    63.4148  66.4398  67.2390  67.2390  67.4011  67.4011  67.7499  68.6471
    68.6471  69.0545  73.6647  73.6647  73.9481  74.4435  74.9794  74.9794
    75.2307  75.5939  75.5948  75.5949  77.6025  78.0364  78.0364  78.8132
    78.8132  78.8425  80.6802  80.6802  81.8071  81.8071  82.1394  83.4071
    83.4071  84.4237  84.4237  85.2735  85.3124  86.0795  86.0999  86.6801
    86.6801  88.1817  88.1817  88.9616  90.9528  90.9528  93.0622  93.4066
    93.4066  95.2162  95.5633  95.5633  96.1241  96.9856  96.9856  98.3003
    99.5451  99.5451  99.7134 100.0137 100.0137 101.0382 102.0428 102.0428
   103.6733 104.2391 104.2391 107.0274 107.1782 107.1782 108.1861 112.0220
   112.0221 113.6617 114.1707 114.1707 114.5084 115.9941 116.7286 116.7286
   117.4117 117.4117 118.4915 119.0283 119.0283 119.6268 119.6268 121.4110
   121.9251 121.9251 124.1472 125.1861 126.7051 127.1121 128.1281 128.8996
   128.8996 129.0678 129.0678 130.1148 130.1148 130.6902 131.3924 132.9715
   132.9715 134.3919 134.3919 134.6520 134.8457 134.8457 134.8870 135.0776
   136.0435 136.6214 136.8336 136.8336 137.3528 137.6112 137.6112 138.0101
   139.0356 139.0356 139.4117 139.4117 140.9884 140.9884 141.3177 142.0713
   142.0713 142.6042 142.8310 144.2411 144.2411 144.2635 144.2635 144.9569
   144.9569 144.9570 145.1664 145.1664 145.3753 146.9214 146.9214 147.5863
   147.6127 147.9035 147.9035 150.2696 150.2696 150.6349 152.2045 152.2045
   152.6268 152.7436 153.0470 153.1582 153.1582 153.8375 154.0710 154.0710
   154.9225 154.9225 155.6491 155.6491 157.6027 158.0497 159.1516 159.7211
   159.7211 160.2058 161.5028 161.5028 162.8243 163.5579 163.5579 164.0428
   164.0971 164.0971 164.3114 166.7086 166.7086 166.9998 167.8688 167.8688
   168.5891 169.4022 169.8128 170.0014 170.0014 170.5442 170.5443 171.0153
   171.0153 171.4364 171.4364 171.4702 172.8930 173.2799 173.2799 173.7894
   173.7894 174.9368 175.2006 175.2006 177.1498 177.1498 177.1584 177.2739
   177.3205 177.5471 177.5471 178.0244 178.0244 179.0324 179.6212 180.0019
   180.2826 180.2826 180.9400 180.9400 182.4612 182.4612 182.7604 183.4997
   184.8067 184.8067 185.1616 185.1616 186.2880 186.4815 187.7901 187.9011
   187.9011 188.5073 190.3594 190.3594 191.3932 191.3932 191.6522 192.6904
   193.9177 193.9256 193.9256 194.4121 194.4121 195.7818 197.4199 197.4199
   197.5811 197.5811 197.7704 198.9427 198.9427 199.2668 199.9378 199.9378
   200.6957 202.7983 202.7983 202.8490 203.4483 203.4483 205.4421 205.7986
   205.7986 206.2128 206.2128 206.6078 206.6078 206.7913 207.0829 208.0153
   208.0153 208.9780 210.0473 210.9693 210.9693 211.3980 212.8043 212.8043
   212.8668 212.8668 213.1464 213.8999 214.6361 216.4886 216.4886 217.2140
   217.2140 218.8639 218.8639 221.2179 221.4993 222.4192 222.5242 222.9472
   222.9472 223.4182 224.9068 224.9068 224.9174 224.9174 226.1518 226.5741
   226.5741 226.8154 227.9362 227.9362 228.6871 228.6871 228.8372 229.0989
   230.5027 230.5052 230.9313 230.9313 231.6437 231.6437 232.0329 232.0329
   233.4563 233.4563 234.9214 235.0857 235.3875 235.3875 235.5029 235.6284
   235.6284 236.3376 236.6164 236.6164 237.1296 237.1296 237.7953 237.7953
   238.7863 239.4983 239.5328 239.8773 239.8773 240.2608 241.7255 242.0492
   242.0492 242.0589 242.0589 242.4848 243.5242 245.2466 245.4212 245.4212
   245.7320 245.7320 246.0816 246.1654 246.9552 246.9552 246.9890 246.9890
   247.1833 247.3973 248.0225 248.0225 248.7745 248.8554 248.8554 249.4819
   249.6264 249.6264 249.7328 249.7328 251.1283 251.1296 251.1296 251.2455
   251.3666 251.3666 251.8273 253.5887 253.5887 253.7011 253.7011 253.7290
   253.9086 254.2344 254.4625 254.4625 254.7791 256.5810 256.5810 256.7441
   256.7441 256.8553 257.5628 257.6331 257.6331 258.1153 258.1153 258.2356
   258.6258 258.6258 258.7124 259.2490 259.5321 259.7902 259.7902 260.0128
   260.0128 261.3740 261.8925 262.1990 262.1990 262.8007 262.8007 263.6283
   264.6884 264.6885 264.9775 265.3614 265.3614 265.7185 265.7185 266.0610
   266.2491 266.2491 266.5691 266.5691 266.6514 267.5576 268.4736 268.8290
   268.9659 269.0014 269.0014 269.2683 269.2683 270.9005 270.9005 271.2770
   271.2770 271.5695 271.5695 271.6180 272.9412 272.9573 273.0336 273.0336
   273.6647 273.6647 273.7241 275.5042 275.5042 277.1068 277.1068 277.3663
   277.3801 278.8325 278.8325 279.0808 279.0808 279.7988 280.8322 281.9131
   281.9131 282.2809 283.6405 285.0097 285.3192 285.3192 285.4595 285.4595
   285.4944 285.5093 287.0913 287.0913 287.3357 287.5476 287.5476 287.7082
   288.3462 288.3462 288.5364 288.5364 288.6103 288.9429 289.8875 289.8875
   290.6672 290.6672 291.1695 291.2256 291.2256 292.5097 292.6580 292.6580
   293.5372 293.5843 293.5843 293.7359 294.9024 294.9024 295.9911 296.1293
   297.0947 297.0947 300.3503 300.3503 300.8674 300.8674 301.1577 302.0996
   302.4516 302.4516 302.7581 302.7802 303.5401 303.5401 303.6687 303.8289
   304.0375 304.0375 304.3726 304.5041 304.5041 305.5740 305.5740 305.9549
   305.9549 306.4398 306.9120 306.9120 307.2117 307.2117 307.6836 307.7557
   308.0027 309.2119 309.2119 310.3771 310.3771 310.5757 310.5757 311.5995
   311.6669 311.6669 312.3337 313.2307 313.6571 313.6571 313.8509 313.8509
   314.8895 315.1161 316.1303 316.1303 316.4349 316.4349 316.7984 317.4705
   318.1336 318.1336 318.4554 319.2873 319.2873 319.5815 320.2296 320.2296
   320.3317 320.4841 321.2562 321.2562 321.8459 322.6625 322.6631 322.6631
   323.3094 323.3094 323.7794 323.9605 323.9605 324.6208 325.7450 325.7450
   325.9869 325.9869 326.5087 326.5087 326.6938 326.9479 326.9556 328.9102
   328.9102 329.0365 329.4834 331.0537 331.0537 331.1533 331.1533 331.8571
   332.4518 332.7712 332.7712 334.4164 337.1475 337.1475 338.0076 338.0076
   339.7068 339.7357 339.7357 341.2603 341.6060 341.6060 342.0578 342.6431
   342.6431 342.7412 342.7412 343.2144 344.4155 344.4569 345.1101 345.1101
   345.9436 345.9436 346.1729 346.1729 346.5654 346.8330 346.8335 346.8335
   347.5346 347.8709 347.8709 348.3964 348.3964 348.5928 348.8229 348.8577
   348.8577 349.0910 349.0910 349.4971 349.5485 349.7625 349.7625 350.4935
   350.4935 350.6008 350.6008 350.8508 350.8508 351.4049 351.4478 351.5065
   351.5586 351.5586 351.9526 352.5795 353.9291 353.9566 353.9567 355.2278
   355.2278 356.2710 356.2710 357.0549 358.2731 358.2731 359.6540 359.6741
   360.4275 360.4275 360.6083 360.6083 361.3968 361.8989 361.8989 361.9821
   362.1389 363.1662 363.1662 364.0566 364.0566 364.1177 364.3622 366.4120
   366.4120 366.9857 367.6815 367.6815 367.6986 368.4679 368.8279 368.8279
   368.8983 369.2526 369.4282 369.4282 369.6741 370.3387 370.4979 370.4979
   371.7804 371.7804 371.7976 371.7976 372.3374 372.8595 372.8595 372.9751
   373.2446 373.3365 373.3403 373.3403 373.6563 373.6563 374.6565 374.8036
   375.1589 375.1676 375.1676 375.4567 375.4567 375.5455 375.5455 376.6509
   377.0120 377.0120 377.3866 377.3866 377.6213 378.4054 378.5512 378.5512
   379.1670 379.1670 379.9895 379.9935 380.5905 381.0080 381.0080 381.5051
   381.5051 381.5253 382.2119 382.2119 382.2357 382.2804 382.2804 383.0857
   383.4180 383.4180 383.8277 383.8277 384.0024 384.4038 384.4038 385.4944
   386.2404 386.2404 387.0888 387.2287 387.2363 387.2363 388.3293 388.3293
   388.4023 388.4023 389.6623 390.0229 390.0229 390.1213 390.2458 390.2952
   390.2952 390.4514 391.2817 391.2817 392.7960 393.0623 393.5999 393.5999
   393.6074 393.6074 394.2254 394.9233 394.9233 395.0124 395.0398 395.0398
   395.6829 395.6829 396.0875 396.1695 396.2408 396.2408 396.4932 398.0969
   398.7213 398.7213 399.2078 399.2210 399.2210 399.7373 400.3516 400.3516
   400.5299 400.5299 400.9323 400.9323 401.1631 401.1631 401.1942 401.2798
   401.5442 401.5554 401.5554 401.7985 402.2454 402.2454 402.6154 402.6264
   403.9334 403.9334 404.0186 404.0186 404.4570 404.4570 404.7391 405.4606
   405.5502 405.9348 406.0700 406.0700 406.5018 406.5018 406.8806 406.8806
   406.9044 406.9044 407.4034 407.7494 407.9201 407.9201 408.2406 408.4916
   408.9319 408.9319 409.8324 409.8324 410.3775 410.4232 410.4232 410.6813
   410.6898 410.6898 411.0821 411.0821 411.1987 411.7014 412.8285 412.8290
   412.8291 413.2746 413.5477 413.5478 414.2774 414.4907 414.9421 414.9421
   416.3488 416.3488 416.7979 417.8901 417.8901 418.0082 418.0851 418.5052
   418.5052 418.5168 418.5168 418.6730 418.7803 419.0094 419.2008 419.2008
   419.5021 419.9340 419.9340 421.2095 421.3494 421.3494 421.6174 421.6174
   421.9300 421.9300 421.9575 422.6418 422.6418 423.1051 423.6237 424.3152
   424.3152 424.7335 424.7335 425.2246 425.7922 426.5009 426.5009 427.0963
   427.0963 427.1451 427.4435 428.2399 428.9961 429.0376 429.0376 429.4476
   429.4476 429.7068 429.7883 429.7883 430.8119 430.8119 431.2254 431.2254
   431.4698 431.4698 431.6230 431.7082 431.8060 432.2554 432.2554 433.8940
   434.1139 434.3337 434.4181 434.4181 434.9246 434.9246 436.1704 436.1704
   436.7727 436.9457 436.9457 437.9070 437.9070 438.6271 438.6271 438.7569
   439.0267 439.0267 439.2408 439.7136 440.5297 440.5297 441.0387 441.9076
   441.9076 442.2885 442.8227 442.8530 442.8531 442.8969 443.6513 443.6513
   444.0146 444.6561 444.6561 445.2942 445.4861 445.4861 448.3603 448.3603
   448.7175 449.2420 449.8183 449.8183 450.8529 450.8529 451.2100 452.3409
   452.3409 453.0820 453.3288 453.6057 453.6057 453.8397 454.1206 454.1206
   455.0976 455.0977 455.7989 455.8117 456.6419 456.6419 456.8317 456.8317
   457.3792 457.6629 457.6629 458.0188 458.1669 458.1669 458.4068 459.6758
   459.6758 459.9214 459.9310 460.0909 460.0909 460.4231 460.8130 460.8130
   461.5326 461.8246 461.8246 461.9602 462.5619 462.5619 462.5734 462.8191
   463.2321 463.2321 463.5649 463.7690 463.8441 463.8441 464.2175 464.2175
   464.8739 464.8739 465.0456 465.9438 465.9438 467.0911 467.5033 467.5033
   467.5240 469.2741 469.2741 469.3071 470.4976 470.9807 470.9807 471.7192
   471.7192 472.3182 472.5477 474.0919 474.4098 474.4098 474.4392 474.4392
   475.4087 475.4301 475.4301 475.8554 475.8554 475.9321 475.9321 476.0720
   476.0930 477.4001 478.2876 478.3303 478.3303 479.1149 479.1149 479.8117
   479.8117 480.0372 481.2063 481.2155 481.4709 481.7727 481.7727 482.0533
   482.0533 483.2542 483.2542 483.5312 483.5312 483.7849 484.6860 485.1262
   485.8297 485.8297 485.8681 485.8681 486.3287 486.5501 486.5501 486.8502
   488.0352 488.1425 488.1425 488.4606 488.8560 488.8560 489.6006 489.6006
   490.5066 490.9707 490.9707 491.0706 491.0706 491.6696 491.6696 492.0880
   492.3897 493.3644 493.3644 493.6040 493.6040 493.7233 494.2574 494.4948
   494.4948 495.6755 495.9495 496.4668 496.4668 496.4896 496.4896 498.0224

          k = 0.0000 0.0000-0.3100 (  3314 PWs)   bands (ev):

  -113.3534-113.3534 -67.5632 -67.5632 -67.5615 -67.5615 -67.5614 -67.5614
    -7.5720  -7.5720   4.1793   4.1793   4.4398   4.4398   4.4398   4.4398
     5.6487   5.6487   5.6487   5.6487   7.8561   7.8561   9.7228   9.7228
     9.7228   9.7228  13.6374  13.6374  20.2663  20.2663  23.4143  23.4143
    23.4143  23.4143  28.4642  28.4642  30.4274  30.4274  30.4274  30.4274
    34.7786  34.7786  35.1586  35.1586  35.1586  35.1586  38.7085  38.7085
    42.1330  42.1330  42.1330  42.1330  43.5447  43.5447  54.1880  54.1880
    54.1880  54.1880  56.7528  56.7528  56.7634  56.7634  56.7634  56.7634
    58.3451  58.3451  59.5960  59.5960  59.5960  59.5960  61.2306  61.2306
    66.5949  66.5949  67.9757  67.9757  67.9757  67.9757  69.8148  69.8148
    70.3928  70.3928  70.3928  70.3928  70.9913  70.9913  74.3449  74.3449
    76.0561  76.0561  76.0561  76.0561  77.1982  77.1982  79.4749  79.4749
    79.4749  79.4749  82.4377  82.4377  82.4377  82.4378  84.6924  84.6924
    86.7254  86.7254  86.7254  86.7254  88.1289  88.1289  89.0145  89.0146
    89.0146  89.0146  89.4830  89.4830  89.4830  89.4830  90.4123  90.4123
    92.5493  92.5493  92.7644  92.7644  92.7644  92.7644  92.9104  92.9104
    96.3971  96.3971  96.3971  96.3971 100.8357 100.8357 103.6863 103.6863
   103.6863 103.6863 107.4095 107.4095 110.5351 110.5351 110.5926 110.5926
   110.5926 110.5926 116.1312 116.1313 116.5210 116.5210 116.5210 116.5210
   118.3261 118.3261 122.6529 122.6529 122.6529 122.6529 123.5070 123.5070
   123.5070 123.5070 124.3055 124.3055 127.7717 127.7717 127.7717 127.7717
   128.1419 128.1419 129.2775 129.2775 130.1833 130.1833 130.1833 130.1833
   132.5360 132.5360 132.5360 132.5360 132.6753 132.6753 135.0801 135.0801
   136.0688 136.0688 136.8529 136.8529 136.8529 136.8529 138.7868 138.7868
   138.7868 138.7868 139.5781 139.5781 141.6906 141.6906 141.6906 141.6906
   142.9834 142.9834 142.9834 142.9834 143.3142 143.3142 143.7761 143.7761
   144.5506 144.5506 144.5506 144.5506 144.9003 144.9003 146.1814 146.1814
   146.7282 146.7282 146.7282 146.7282 148.7714 148.7714 148.9485 148.9485
   148.9485 148.9486 149.6141 149.6141 149.6141 149.6141 154.9458 154.9458
   160.7792 160.7792 160.7792 160.7792 161.3675 161.3675 163.7893 163.7893
   164.3051 164.3052 164.3052 164.3052 164.3683 164.3683 165.6935 165.6935
   165.7813 165.7813 165.7813 165.7813 166.3225 166.3225 166.3225 166.3225
   168.8850 168.8851 169.9746 169.9746 169.9746 169.9746 170.0641 170.0641
   170.8046 170.8046 170.8046 170.8046 171.2618 171.2618 173.1434 173.1434
   173.4258 173.4258 173.4258 173.4258 176.4588 176.4588 176.4588 176.4588
   178.8051 178.8051 180.2323 180.2323 180.2323 180.2323 182.1821 182.1821
   183.3927 183.3927 183.4048 183.4048 183.4048 183.4048 184.5562 184.5562
   184.5562 184.5562 186.7823 186.7823 186.7823 186.7823 187.2075 187.2075
   187.6940 187.6940 187.6940 187.6940 188.7191 188.7191 191.2805 191.2805
   191.2805 191.2805 192.2072 192.2072 195.0180 195.0180 195.0180 195.0180
   195.1904 195.1904 196.9746 196.9746 197.4355 197.4355 197.4355 197.4355
   202.4108 202.4108 202.4108 202.4108 202.6902 202.6903 203.2048 203.2048
   203.9292 203.9292 203.9292 203.9292 205.1288 205.1288 206.4909 206.4909
   206.4909 206.4909 208.1774 208.1774 211.5873 211.5873 211.5873 211.5873
   213.8147 213.8147 215.2323 215.2323 215.2323 215.2323 220.6130 220.6130
   220.6130 220.6130 221.9713 221.9713 221.9713 221.9713 222.0148 222.0148
   222.6494 222.6494 224.7941 224.7941 225.8046 225.8047 225.8047 225.8047
   227.0327 227.0327 232.3124 232.3124 232.5316 232.5316 232.5316 232.5316
   234.6702 234.6702 235.9335 235.9335 235.9335 235.9335 235.9394 235.9394
   237.3685 237.3685 237.3685 237.3685 237.5635 237.5635 237.9135 237.9135
   237.9135 237.9135 238.8850 238.8850 240.3932 240.3932 240.3932 240.3932
   241.2268 241.2268 241.2268 241.2268 241.4960 241.4960 241.9964 241.9964
   242.7659 242.7659 242.7659 242.7659 243.5914 243.5914 243.5914 243.5914
   243.7584 243.7584 244.2213 244.2213 246.1276 246.1276 246.1276 246.1276
   246.1882 246.1882 246.2059 246.2059 247.8416 247.8416 247.8416 247.8416
   247.9789 247.9789 248.3103 248.3103 248.3103 248.3103 248.5682 248.5682
   248.5682 248.5682 250.0588 250.0588 250.0870 250.0870 250.0870 250.0870
   250.4564 250.4564 251.2214 251.2214 251.2214 251.2214 253.2946 253.2946
   253.2946 253.2946 253.9870 253.9870 256.0970 256.0970 256.0970 256.0970
   257.4814 257.4814 258.0693 258.0693 258.3194 258.3194 258.3194 258.3194
   260.0597 260.0597 260.0597 260.0597 260.7569 260.7569 261.9803 261.9803
   261.9804 261.9804 262.0523 262.0523 262.0523 262.0523 262.0593 262.0593
   262.5625 262.5625 262.9422 262.9422 267.0239 267.0239 267.0239 267.0239
   269.5425 269.5425 269.9059 269.9059 269.9059 269.9059 273.4184 273.4184
   277.4190 277.4190 277.4190 277.4190 278.7008 278.7008 279.1120 279.1120
   279.1120 279.1120 280.3939 280.3939 280.7365 280.7365 281.9698 281.9698
   281.9698 281.9698 282.2952 282.2952 282.9007 282.9007 282.9007 282.9007
   283.6948 283.6948 283.6948 283.6948 283.9374 283.9374 285.1479 285.1479
   285.1479 285.1479 285.4751 285.4751 288.4884 288.4884 288.4884 288.4884
   289.5331 289.5331 289.5331 289.5331 290.1965 290.1965 292.9224 292.9224
   293.3670 293.3670 293.3670 293.3670 293.7215 293.7215 294.8735 294.8735
   294.8735 294.8735 296.1358 296.1358 297.2177 297.2177 297.5824 297.5824
   297.5824 297.5824 298.2402 298.2402 298.2402 298.2402 299.7760 299.7760
   301.4884 301.4884 301.4884 301.4884 302.2010 302.2010 302.2010 302.2010
   302.3097 302.3097 303.0760 303.0760 303.5286 303.5286 303.5286 303.5286
   303.7510 303.7510 306.0444 306.0444 306.1260 306.1260 306.1260 306.1260
   307.9487 307.9487 307.9487 307.9487 309.1072 309.1072 310.3248 310.3248
   312.1938 312.1938 312.6035 312.6035 312.6035 312.6035 313.7051 313.7051
   314.1625 314.1625 314.1625 314.1625 315.2837 315.2837 315.2837 315.2837
   316.2893 316.2893 316.3017 316.3017 316.3017 316.3017 316.9772 316.9772
   317.2576 317.2576 318.3172 318.3172 318.3172 318.3172 321.5421 321.5421
   322.3494 322.3494 322.3494 322.3494 324.9160 324.9160 324.9160 324.9160
   329.1838 329.1838 329.1838 329.1838 330.2453 330.2453 330.4488 330.4488
   330.4488 330.4488 333.4375 333.4375 334.2680 334.2680 334.2680 334.2680
   334.5807 334.5807 335.1304 335.1304 335.1304 335.1304 335.5332 335.5332
   336.5248 336.5248 337.0982 337.0982 337.0982 337.0982 338.2407 338.2407
   339.8393 339.8394 339.8394 339.8394 340.9187 340.9187 341.4173 341.4173
   341.4173 341.4173 345.1820 345.1820 347.9046 347.9046 347.9046 347.9046
   348.8764 348.8764 348.8764 348.8764 351.8331 351.8331 352.0070 352.0070
   352.0070 352.0070 354.2811 354.2811 355.7337 355.7337 356.1378 356.1378
   356.4887 356.4887 356.4887 356.4887 356.6980 356.6980 357.7840 357.7840
   357.7840 357.7840 358.6456 358.6456 358.6456 358.6456 358.8937 358.8937
   359.8556 359.8556 359.8556 359.8556 360.5083 360.5083 360.7374 360.7374
   360.7374 360.7374 360.9848 360.9848 360.9848 360.9848 361.4427 361.4427
   362.5190 362.5190 363.8033 363.8033 363.8033 363.8033 364.2682 364.2682
   365.5931 365.5931 365.5931 365.5931 366.8310 366.8310 366.8310 366.8310
   367.6844 367.6844 367.6844 367.6844 367.8010 367.8010 368.2950 368.2950
   368.2950 368.2950 368.9872 368.9872 369.3651 369.3651 369.5089 369.5089
   370.1767 370.1767 370.1767 370.1767 371.2076 371.2076 371.2992 371.2992
   371.2992 371.2992 372.3049 372.3049 373.0057 373.0057 374.6689 374.6689
   374.6689 374.6689 375.2761 375.2761 375.2761 375.2761 376.1591 376.1591
   376.5365 376.5365 376.7909 376.7909 376.7909 376.7909 380.3230 380.3230
   380.3230 380.3230 381.1324 381.1324 382.2452 382.2452 382.2452 382.2452
   385.2404 385.2404 385.2404 385.2404 385.9397 385.9397 385.9872 385.9872
   385.9872 385.9872 388.2727 388.2727 388.6114 388.6114 390.0264 390.0264
   390.0264 390.0264 390.9896 390.9897 392.2605 392.2605 392.8783 392.8783
   392.8783 392.8783 393.5341 393.5341 393.9111 393.9111 394.2209 394.2209
   394.2209 394.2209 394.6461 394.6461 394.6461 394.6461 395.8115 395.8115
   395.8115 395.8115 395.9719 395.9719 395.9874 395.9874 397.3443 397.3443
   397.5050 397.5050 397.5050 397.5050 399.8978 399.8978 399.8978 399.8978
   400.5500 400.5500 401.1376 401.1376 401.2419 401.2419 401.2419 401.2419
   401.2991 401.2991 401.7991 401.7991 401.7991 401.7991 402.2859 402.2859
   402.7929 402.7929 402.7929 402.7929 404.7016 404.7016 405.0172 405.0172
   405.0172 405.0172 406.3945 406.3945 406.3945 406.3945 408.4370 408.4370
   408.6320 408.6320 408.6320 408.6320 409.7501 409.7501 412.3654 412.3654
   412.3654 412.3654 412.3975 412.3975 412.9400 412.9400 413.1187 413.1187
   413.1187 413.1187 413.8073 413.8073 413.8073 413.8073 413.8105 413.8105
   414.2011 414.2011 414.2011 414.2011 414.4455 414.4455 414.4469 414.4469
   414.4469 414.4469 415.1633 415.1633 416.0060 416.0060 416.0060 416.0060
   416.1698 416.1698 416.2709 416.2709 416.2730 416.2730 416.2730 416.2730
   417.8280 417.8280 417.9958 417.9958 417.9958 417.9958 419.7337 419.7337
   419.7337 419.7337 421.8355 421.8355 422.2427 422.2427 422.2427 422.2427
   423.8467 423.8467 424.9080 424.9080 424.9080 424.9080 426.5853 426.5853
   426.6050 426.6050 426.6050 426.6050 428.6299 428.6299 428.7720 428.7720
   428.7720 428.7720 430.1783 430.1783 430.5181 430.5181 430.5842 430.5842
   430.5842 430.5842 431.7945 431.7945 431.7945 431.7945 433.6350 433.6350
   434.9696 434.9696 434.9696 434.9696 435.5576 435.5576 435.7211 435.7211
   435.7211 435.7211 436.1706 436.1706 436.1706 436.1706 436.3841 436.3841
   437.3468 437.3468 439.0215 439.0215 440.7634 440.7634 440.7634 440.7634
   441.8801 441.8801 444.8039 444.8039 444.8039 444.8039 445.3572 445.3572
   445.3572 445.3572 446.1031 446.1031 450.1853 450.1853 450.1853 450.1853
   451.6227 451.6227 451.6227 451.6227 454.2826 454.2826 454.2826 454.2826
   455.0574 455.0574 455.1885 455.1885 455.1885 455.1885 456.3241 456.3241
   457.9705 457.9705 458.6216 458.6216 458.6216 458.6216 459.0971 459.0971
   459.7274 459.7274 460.4752 460.4752 460.4753 460.4753 462.2983 462.2983
   463.6236 463.6236 463.6236 463.6236 464.6948 464.6948 466.2979 466.2979
   466.4393 466.4393 466.4393 466.4393 467.8237 467.8237 467.8237 467.8237
   467.9351 467.9351 467.9351 467.9351 468.0992 468.0992 468.5754 468.5754
   468.5754 468.5754 469.0137 469.0137 469.8466 469.8466 469.8466 469.8466
   470.0284 470.0284 470.1560 470.1560 470.4447 470.4447 471.3125 471.3125
   471.3125 471.3125 472.1850 472.1850 472.1850 472.1850 472.8392 472.8392
   472.8392 472.8392 473.2927 473.2927 473.6526 473.6526 473.7783 473.7783
   473.7783 473.7783 474.6564 474.6564 474.7069 474.7069 474.7069 474.7069
   475.0311 475.0311 475.0311 475.0311 475.3382 475.3382 475.4546 475.4546
   475.4546 475.4546 475.8261 475.8261 477.5996 477.5996 479.0381 479.0382
   479.9501 479.9501 480.0238 480.0238 480.0238 480.0238 480.4474 480.4474
   480.4474 480.4474 481.7687 481.7687 481.7687 481.7687 482.1296 482.1296
   482.1296 482.1296 482.3662 482.3662 482.5331 482.5331 484.6655 484.6655
   485.0246 485.0246 485.0246 485.0246 486.7222 486.7222 486.7222 486.7222
   487.7488 487.7488 488.6258 488.6258 493.5311 493.5311 496.0002 496.0002

          k = 0.0000 0.2887 0.0000 (  3296 PWs)   bands (ev):

  -113.3534-113.3533 -67.5643 -67.5628 -67.5623 -67.5621 -67.5619 -67.5614
    -7.6186  -7.0753   4.1284   4.4613   4.5222   4.6486   4.8198   4.9622
     5.4141   5.5441   5.7529   5.9326   6.0491   7.6136   8.3980   8.6225
     9.6053   9.7212  13.4393  17.2437  18.3147  19.8442  21.8282  23.3557
    23.5934  24.4187  25.6786  28.0597  28.4775  30.9536  33.4382  34.4360
    34.7166  34.8431  35.7241  37.0229  38.3801  38.6253  38.7868  39.1015
    40.6288  41.6037  42.3533  45.1178  47.2377  47.6584  48.2079  49.3324
    50.5071  51.7411  52.5393  53.2884  54.2192  54.2657  54.7888  55.8332
    56.4560  59.5268  60.5203  61.5211  61.7208  62.1249  63.5730  64.5892
    64.7592  65.6244  66.3573  66.4842  66.8363  67.1007  68.1696  68.4470
    68.6002  68.7416  70.0542  70.6980  71.4334  71.9160  72.6507  73.7112
    73.9407  74.0900  75.2177  75.6075  76.0781  77.4903  77.5900  79.6376
    79.7078  80.2578  80.8590  80.8768  81.7782  82.7312  83.2920  84.0008
    84.4553  85.1659  86.5770  87.1272  87.7320  88.3964  90.1343  90.1887
    91.0762  91.6829  92.7588  93.2500  93.5154  94.0624  94.4447  94.4968
    95.0604  95.8663  96.4059  97.7700  97.8183  98.6857  99.0229  99.7875
   100.5456 101.0747 101.5856 102.5407 103.3303 103.5642 104.0781 104.2283
   105.9413 107.4656 108.3856 108.4340 108.6877 109.7469 109.7537 109.8282
   110.7062 110.8237 111.6862 111.9663 113.2947 113.3907 113.7846 114.7379
   114.8599 115.6947 116.7856 117.5048 117.6606 117.7346 118.0978 118.9667
   119.4911 120.0959 120.5965 120.9727 121.3251 121.6319 122.7483 122.8606
   123.4567 123.5897 124.3394 125.0785 125.9398 126.6954 128.2341 128.5861
   129.2767 129.7639 131.0044 131.0358 131.4349 132.5520 132.8442 133.6580
   135.1476 135.8208 135.8828 136.1955 136.8828 137.0140 137.3292 138.2659
   138.5440 138.8675 139.7359 140.1874 140.2115 140.8251 141.7418 142.5639
   143.2762 143.7451 144.7966 145.4444 145.5678 145.9719 146.1381 146.1655
   146.6003 147.1314 147.5312 147.7003 148.0703 148.4861 148.8074 150.2551
   150.7723 150.8668 151.1326 151.6765 151.8347 152.3653 152.3804 152.8029
   154.2154 154.7728 154.8969 155.5962 155.6939 156.5468 157.1106 157.1439
   157.3241 157.5542 157.9200 158.7921 158.8083 159.4053 159.7056 159.8298
   160.1254 160.4667 161.1897 161.3045 161.5338 161.6557 162.1654 162.6581
   162.6868 163.6868 163.7979 163.9806 164.7474 164.9336 165.0830 165.7547
   166.1749 166.6749 166.8383 167.5301 167.8464 168.2025 168.8792 170.0426
   170.2593 171.2716 171.5170 172.0041 172.6984 172.8422 172.9486 174.2688
   174.4191 174.4801 175.4000 176.5446 176.7075 177.6896 178.5366 178.6484
   179.2390 179.5989 179.7319 180.4234 181.1151 181.3828 182.0487 182.7177
   182.8251 183.2888 183.5486 183.9355 184.6285 185.1677 185.4445 186.2531
   186.6746 188.1944 188.4895 189.0743 190.2023 190.4448 191.2110 191.7901
   192.3309 192.4662 192.8815 193.2883 194.1320 194.7552 194.8046 195.1565
   195.3204 196.0325 197.2339 197.4669 198.1110 198.2574 198.6247 198.7637
   198.8125 199.2168 199.4040 200.2029 200.3541 202.3156 202.6131 202.8881
   203.1855 203.4267 203.8487 203.8699 204.8646 204.9628 205.1028 205.6242
   205.7960 206.6949 207.0960 207.3381 207.8657 208.1812 208.2478 208.7860
   208.8886 209.4342 209.8021 209.9805 210.0885 210.1605 210.9659 211.2183
   211.2365 212.6888 212.8081 213.3788 214.0917 214.2000 214.4568 215.4499
   215.5928 215.7742 216.1943 217.4524 217.8017 217.9956 218.1420 218.6426
   218.9213 219.8345 220.0426 220.5432 220.8636 221.0361 221.3428 221.4959
   221.8856 222.4215 222.9477 223.5099 223.7528 224.1086 224.9813 225.0163
   225.3290 225.4053 226.4470 226.9033 227.3982 227.8129 228.0702 228.5890
   228.9703 229.3452 229.9522 230.2589 231.4375 231.7340 231.9970 232.5965
   232.6165 233.3187 233.6076 234.0068 234.5204 234.9446 235.4302 235.9262
   236.2498 236.8266 237.3675 237.4296 237.7057 238.4743 238.5335 239.3664
   239.3836 239.4462 239.7187 240.5112 241.2087 241.7716 242.1712 242.4618
   242.6192 243.3372 243.7469 243.7936 244.3668 244.7965 244.8703 245.4688
   245.5532 246.1816 246.4382 246.6927 247.1404 247.3433 247.6428 247.8194
   247.8649 248.3905 248.4776 248.4870 248.7027 248.8537 249.5469 250.4721
   250.9474 251.0637 251.7237 251.8226 252.5216 252.6201 253.0430 253.1273
   253.4695 254.0873 254.4441 255.2906 255.7943 256.4171 256.7122 257.1422
   257.5827 257.9749 258.1585 258.7923 259.4834 259.7218 259.8986 260.5349
   260.6987 261.2730 261.2892 261.9279 262.0356 262.6763 262.8265 264.1837
   264.3104 264.7712 265.1293 265.3636 265.4906 265.8113 266.2158 266.4584
   266.9266 267.3734 267.6532 267.9836 268.0020 268.7572 269.0450 269.8167
   270.2080 270.2524 271.1316 271.5672 271.5860 272.0673 272.3029 272.8662
   273.1919 273.6238 274.1819 274.7691 275.0317 275.3067 275.5059 275.6358
   275.8722 276.8408 277.0791 277.4527 277.7896 277.9622 277.9911 278.0927
   278.6584 278.8291 278.9997 279.4231 279.9284 280.0258 280.1188 280.3957
   281.2649 281.4656 281.5039 281.6513 281.8608 282.0824 282.5823 282.9333
   283.3597 283.6069 283.6431 283.7771 284.7207 285.0852 285.2222 285.4015
   285.4746 285.9644 286.4348 286.4949 286.6038 287.0542 287.2240 287.5336
   287.7272 287.8120 288.2380 288.5992 289.6497 289.8757 290.0078 290.8549
   291.0718 291.2280 291.2977 291.3313 292.1520 292.3369 293.0374 293.3650
   293.9856 294.4644 294.4777 294.5928 294.8874 294.9526 295.2381 295.6686
   295.7431 296.4342 296.8436 296.9950 297.5130 298.0520 298.6434 299.1033
   299.3587 300.4861 300.9227 301.2293 302.4314 302.5844 302.7427 302.9620
   303.3199 303.3440 303.9436 304.1421 304.6715 304.8734 305.2464 305.6494
   305.7646 306.2005 306.3257 306.8873 307.3541 307.8788 307.9207 308.8024
   308.9816 309.9714 310.1424 310.3132 310.8642 311.0481 311.8476 311.9117
   312.5414 312.5797 313.5059 313.9904 314.0414 314.3919 314.5452 314.8540
   314.8748 316.0011 316.0296 316.4246 317.3271 317.9171 317.9679 319.1587
   319.6084 319.7335 320.2536 321.1062 321.1916 321.4210 321.8595 322.2129
   322.5513 322.5565 322.8175 323.0947 324.5381 324.7112 324.9125 325.0810
   325.3176 325.8202 325.8261 326.1354 326.9902 327.1193 327.4892 327.9436
   328.1354 328.7448 329.9149 329.9160 330.5560 330.9676 331.2069 331.6755
   331.7159 332.0186 332.2843 332.3288 332.4697 332.8031 332.8519 333.2907
   333.6909 334.1122 334.5029 334.7662 335.2500 335.2900 335.8537 336.2009
   336.2544 337.0644 337.2098 337.5613 337.9259 338.2178 338.3751 338.5895
   338.8948 338.9033 339.2153 340.0554 340.4399 340.4961 340.9122 340.9146
   341.3275 341.3965 342.1811 342.7301 343.5887 343.6274 343.7976 344.3465
   344.5985 344.6538 344.7288 344.9469 345.5079 345.6366 346.3928 346.5691
   347.0064 347.5994 347.6604 348.1758 348.2166 348.6704 348.9116 349.2817
   349.4614 350.2849 350.5643 350.6948 351.2180 351.7749 351.7936 352.0199
   352.1045 352.7492 352.7525 353.2161 353.4946 353.8788 353.8848 354.2199
   354.3920 354.7818 355.2103 356.0451 356.3214 356.3333 356.9601 356.9631
   357.8887 358.1504 358.3102 358.5043 358.8319 359.1367 359.5617 359.9193
   360.2077 360.4203 361.0664 361.2260 361.3682 361.6720 362.3356 362.7807
   362.7829 363.1886 363.5095 363.9676 364.3369 364.5148 364.8206 364.9985
   365.5889 365.8609 366.0432 366.1019 366.1927 366.7487 367.2262 367.2263
   367.4036 367.8927 368.0880 368.1584 368.4508 368.6179 369.6488 369.6634
   370.2700 370.3285 370.6099 370.8032 371.4235 371.4709 372.0489 372.1713
   372.4469 372.6367 373.0921 373.4415 374.3487 375.0475 375.2652 375.4863
   375.8373 375.8676 375.9203 376.0150 376.0804 376.4582 376.5845 376.9789
   377.1908 377.2687 377.4875 378.1662 378.1953 378.3590 378.4815 379.0263
   379.3993 379.4055 379.7114 380.0427 380.6752 380.8375 380.9965 381.4368
   381.5350 381.7636 381.9808 382.2293 382.5153 382.8829 383.0929 383.3150
   383.4467 384.4000 384.9252 385.2541 385.4400 386.4352 386.6256 386.8077
   387.6461 387.7827 388.2700 388.5562 388.6279 389.0749 390.1397 390.3825
   390.4903 390.5659 390.7067 391.6343 392.0139 392.2717 392.2852 393.0598
   393.2799 393.4749 393.6146 393.7592 394.2161 394.3340 394.6317 395.0288
   395.1986 395.4062 395.5347 395.8204 395.9394 395.9861 396.2263 396.2835
   396.5632 397.5754 397.7450 398.1446 398.4574 398.7837 400.0474 400.6709
   400.7166 401.5670 401.6724 402.8004 402.8746 403.0390 403.1345 403.8913
   403.8966 403.9394 404.2718 404.5412 404.5730 404.7429 405.4872 405.5305
   405.9146 406.0089 406.3341 406.7221 407.2705 407.2968 407.8982 407.9015
   408.1359 408.4186 408.7470 408.8998 409.3599 409.4319 409.5238 409.6408
   409.8030 410.1569 410.3343 410.3694 410.4964 410.9480 411.2551 411.3929
   411.7303 412.4746 412.9418 413.3556 413.4985 413.7395 414.2943 414.4620
   414.5241 414.5667 414.8723 414.9792 415.1545 415.3818 415.4142 415.7396
   415.9994 416.0844 416.3754 416.7172 416.7617 416.8997 417.1997 417.3203
   417.7738 418.0784 418.2176 418.4572 418.7737 419.0274 419.1650 419.2616
   419.6282 419.7168 420.1437 420.5168 420.5519 420.8898 421.1327 421.4699
   421.7868 422.0890 422.4477 422.5021 422.6508 422.9224 422.9642 423.0627
   423.4571 423.7160 424.1013 424.3064 424.4013 424.6834 425.1630 425.2790
   425.5528 425.9312 426.2743 426.4018 426.4424 426.8594 427.1123 427.6338
   428.4807 428.6040 428.9091 429.0470 429.1915 429.9553 430.1165 430.5437
   430.6143 431.4348 432.4293 432.6962 433.0268 433.4943 434.1900 434.4487
   435.1408 435.2890 435.8207 436.1340 436.4986 436.5577 436.7341 436.9295
   437.1711 437.2920 437.3458 437.5953 438.0285 438.2412 438.2807 439.3579
   439.8932 440.1944 440.5138 440.7634 441.4831 441.8259 441.8941 443.0983
   443.4616 443.6279 443.9232 444.6312 444.6429 445.6782 445.9976 446.5452
   446.6152 446.7099 447.0620 447.2754 447.5378 447.8700 448.2734 448.4496
   448.5247 449.0639 449.3074 449.7074 449.9730 450.0699 450.7589 450.8144
   451.0608 451.6234 451.6410 452.0189 452.4025 452.5033 452.8641 452.9717
   452.9895 453.3132 453.6839 453.8623 454.1276 454.2043 454.4677 454.6788
   454.8157 455.0400 455.3010 455.7693 455.8779 456.3487 456.9476 457.5734
   457.8092 457.8824 458.5037 458.8523 459.3864 459.5013 459.5600 459.7628
   459.9475 460.3296 460.4480 460.8325 461.0920 461.3019 461.5086 461.8216
   461.8713 462.0364 462.5533 462.6378 462.8382 463.4001 463.6021 463.6125
   463.9000 464.2005 464.3410 464.8557 464.9947 465.0395 465.0819 465.6828
   465.8918 466.1543 466.2563 466.8047 466.8995 467.4624 467.6758 468.1133
   468.3394 468.4707 468.8626 468.9867 469.3194 469.6747 470.0368 470.3629
   470.5587 471.0363 471.4370 471.9209 472.3084 472.9751 473.0256 473.4318
   473.7222 473.8326 473.9874 474.5010 474.5976 475.1245 475.8808 475.9449
   476.3292 476.3605 476.5409 476.7199 476.7429 476.8571 477.2676 477.2795
   477.8576 478.7220 478.7869 479.4902 479.5138 479.7231 479.7405 480.1316
   480.5464 480.9857 480.9985 481.4720 481.8213 482.1243 482.2829 482.3680
   482.6415 482.8799 483.2865 483.6810 484.5112 484.6664 485.0193 485.3284
   485.6298 485.9527 486.3399 486.7790 486.8483 487.2544 487.3497 487.9706
   488.4864 488.5256 489.3393 489.5482 489.7035 490.1078 490.2049 490.6726
   491.0870 491.1516 491.3767 491.5678 491.5944 491.9905 491.9982 492.3254
   492.3475 492.6691 493.1282 493.2250 493.4694 493.8374 494.2761 494.4691

          k = 0.0000 0.2887 0.1550 (  3296 PWs)   bands (ev):

  -113.3534-113.3533 -67.5641 -67.5628 -67.5626 -67.5620 -67.5619 -67.5615
    -7.5396  -7.1549   4.0702   4.2655   4.5545   4.6100   4.7506   4.7629
     5.5066   5.5768   5.7239   5.7954   6.7864   7.7813   8.2370   8.7919
     9.4725   9.5665  13.8271  16.3711  18.8425  19.9768  21.6341  22.8494
    23.6027  24.1582  25.5587  28.6829  28.9379  31.6363  32.5417  33.6090
    34.4933  35.3302  35.7294  37.6642  37.7099  38.4196  38.6338  40.7037
    40.8445  41.9624  43.0161  44.8681  46.3679  47.3062  47.8431  49.2164
    49.3676  50.7146  51.6217  54.3587  55.1354  55.3496  55.6320  57.4007
    57.8136  58.0606  59.8664  60.2832  61.1758  61.9966  62.3980  63.4577
    64.2600  65.0806  65.2119  66.2265  66.9469  67.1787  68.2962  68.3640
    69.5459  70.2999  70.6028  71.6001  71.6356  72.8576  73.0168  73.6615
    74.0072  75.1526  75.4690  76.1141  76.2899  76.9609  77.8068  78.3285
    79.3740  80.3652  80.6938  82.2062  82.7433  82.9771  83.1680  84.4286
    85.2760  85.4506  86.9023  87.3128  87.8150  87.8552  89.1980  89.9591
    90.0101  91.0493  91.2265  92.2970  92.4364  92.8965  94.2413  95.0020
    95.2268  96.7595  96.9108  98.1070  98.2931  98.6022  99.6020 100.0368
   100.3475 100.5131 101.6700 101.9564 102.1781 102.6142 103.8161 104.1847
   104.5511 105.6746 106.7896 106.9210 107.1707 109.3745 109.8209 110.1015
   111.5987 111.9533 113.1343 113.5032 113.6173 114.1229 114.9827 115.5430
   115.9934 116.3781 116.5404 117.7591 117.9122 118.3933 118.6475 118.9356
   119.3695 120.5472 120.7877 121.6774 122.4883 123.7347 123.8668 124.1603
   124.5305 125.6155 126.0143 126.3888 126.9740 127.4537 127.6393 128.2651
   128.6335 129.7875 129.8442 130.6751 130.6877 131.6566 132.2383 132.5875
   133.4884 134.0357 134.9722 135.9804 136.3205 137.0164 137.6638 138.0750
   138.7390 139.2610 139.2886 140.1530 140.2679 140.8003 141.3343 141.8419
   141.8837 142.5031 143.6220 143.6507 144.3040 144.3930 145.1790 145.5045
   145.6268 146.7587 146.9499 147.1934 147.9042 147.9325 148.3893 148.9370
   150.0205 150.7542 150.7928 151.5240 151.5669 152.2223 152.3562 152.4583
   153.5806 153.8618 154.0003 155.0903 155.2478 155.9638 156.6888 156.7670
   157.5410 157.8919 158.2699 158.4779 158.7065 159.6307 160.8686 160.9104
   161.4265 161.4544 162.1827 162.2644 162.6232 162.6672 163.5098 163.7206
   163.9227 164.3945 165.2033 165.3874 165.8451 166.6467 166.9410 167.2974
   167.6028 167.6843 168.1411 168.4170 168.6494 168.9172 169.9471 170.3121
   170.3608 171.0567 171.4059 172.0300 172.6709 172.7902 173.9445 174.5829
   174.7256 175.4482 176.2540 176.4950 176.5617 177.1348 177.9982 178.2860
   178.6565 179.9455 180.1396 181.0186 181.5154 182.1660 182.4783 182.7885
   182.9297 183.4874 184.1501 184.6983 185.0428 185.8399 185.9413 186.2741
   186.8956 187.2674 187.4414 187.9204 188.4797 189.2557 189.7336 190.6908
   191.0724 191.3541 192.2048 192.9272 193.1889 193.6004 193.8279 194.3462
   194.7326 195.0228 195.6691 195.7826 196.2916 196.5550 196.9184 197.3866
   197.7821 198.6722 198.7392 199.0037 199.9468 200.0899 201.0399 201.2912
   202.0836 202.5080 202.8664 203.4656 203.8017 204.0238 204.5999 205.0171
   205.1713 206.0121 206.5995 207.2583 207.8367 208.2702 208.4081 209.3890
   210.0347 210.0924 210.7945 211.2262 211.3716 211.6865 212.6925 212.8931
   213.0890 213.8482 213.9512 214.1707 214.2898 215.3844 215.6092 216.2671
   216.5736 216.7841 217.2242 217.2747 217.7544 218.0344 218.8417 218.8566
   219.2002 219.4802 220.2951 221.1850 221.2110 221.2978 221.8082 222.3255
   222.9666 223.3253 224.3172 224.4211 224.6584 225.1500 225.3726 225.7500
   226.2160 226.7206 226.7668 227.4847 227.7302 228.3799 228.6899 229.1658
   229.6321 229.9635 230.1796 230.6580 231.2260 231.9310 232.0216 232.2621
   232.7325 233.3879 233.5525 233.9259 234.5977 234.7777 235.2063 235.4039
   236.5600 236.6360 237.0301 237.1480 237.7154 238.0294 238.5705 239.2277
   239.3363 239.7759 239.9770 240.1733 240.2208 240.7673 240.7978 241.1282
   241.3767 242.0147 242.7684 242.9748 243.1175 243.5412 243.6876 244.1111
   244.4855 245.2650 245.6998 246.3764 246.4241 246.6758 246.9957 247.7719
   247.9815 248.0951 248.3782 249.2925 249.9320 250.3425 250.6902 250.8787
   251.2870 251.8927 252.0411 252.5698 253.1203 253.2626 254.1470 254.5886
   254.8245 255.2450 255.7003 256.0924 256.3938 256.7758 257.0548 257.2149
   257.6077 257.7438 258.3331 258.9764 259.3761 260.0569 260.2617 260.6493
   261.0109 261.3852 261.4667 262.2358 262.4524 262.5366 263.4747 263.8615
   264.1788 264.3810 264.5765 264.6986 265.3145 265.5463 265.9473 266.0606
   266.5466 266.7378 267.1583 267.4929 267.7987 267.9224 268.8797 268.9070
   269.3441 269.5834 270.0769 270.6500 271.0034 271.4249 271.4450 272.0458
   272.5878 272.8204 272.9466 273.7042 274.2273 274.3810 274.6961 274.9099
   275.1549 275.6367 276.0584 276.0843 276.3595 276.5882 276.7239 277.2214
   277.3879 277.5286 278.6424 278.8922 279.5262 279.9591 279.9895 280.3888
   280.6398 280.7243 281.3811 281.5777 282.1480 282.5682 282.7912 282.9930
   283.0596 283.3162 283.8196 284.0030 284.0423 284.5387 284.8858 285.2605
   285.2707 285.7720 285.7939 286.5165 286.8099 286.9518 287.3690 287.7066
   288.2604 288.3970 289.3096 289.5776 290.1371 291.0561 291.2149 291.6682
   291.8746 292.0251 292.4321 292.9568 293.1224 293.5564 293.6195 294.4206
   294.5816 295.1400 295.3125 295.6818 295.7493 296.5182 296.6683 297.0945
   297.0949 297.5690 298.1392 298.6202 298.7023 299.0806 299.5383 299.6517
   300.2943 300.9343 301.0856 301.6029 302.0855 302.4026 302.6666 302.9401
   303.0933 303.6183 303.8316 304.1077 305.0237 305.1157 305.8930 306.0251
   306.5868 306.6416 306.8985 308.1178 308.2012 308.6899 309.1822 309.7580
   309.9645 310.2654 310.6792 310.9465 311.6571 311.8905 312.1371 312.3827
   312.7709 313.4690 313.5616 313.9563 314.0396 314.3392 314.4507 314.4783
   315.3285 315.7723 316.0371 316.7866 317.0796 317.3923 317.6996 318.0322
   318.5920 318.8085 319.5642 319.9065 320.2012 320.6485 321.1907 321.2630
   321.7921 322.0772 322.4562 323.1883 323.3182 323.5491 323.6239 324.1618
   324.4957 324.5134 325.0879 325.5052 325.9880 326.3290 326.3759 326.9776
   327.2050 327.4995 328.1006 328.5999 329.0520 329.6154 329.7293 330.6404
   331.2994 331.8231 332.1935 332.3097 332.7248 332.7266 333.0081 333.4272
   333.5010 334.1577 334.1950 334.6482 335.0166 335.0716 336.0739 336.4927
   336.8941 337.0203 337.1386 337.7526 337.9507 338.0018 338.4303 338.9714
   339.2010 339.5056 339.7580 340.1125 340.4213 340.6613 341.1323 341.2689
   341.8274 341.9811 342.0424 342.5916 342.8991 343.2484 343.4537 343.8418
   344.1650 344.9648 345.0301 345.5764 345.8017 346.2686 346.5904 346.6716
   347.0273 347.3342 347.6126 348.1873 348.1980 348.3657 348.5576 348.9688
   349.3930 349.8938 350.0561 350.5090 350.6430 350.9063 351.1396 351.1976
   352.1297 352.5470 352.6742 353.4266 353.5694 353.7130 354.3617 354.7379
   354.8711 355.2534 355.4016 355.7396 356.2445 356.7589 357.0520 357.7200
   357.9710 358.6059 358.6285 358.8003 358.9849 359.2914 359.4751 359.6343
   360.0814 360.5387 360.8242 361.4234 361.5391 361.8581 362.4103 362.8942
   363.0310 363.2489 363.8413 364.1927 364.2203 364.5809 364.6689 365.4396
   365.5674 366.1504 366.4082 366.9707 367.2250 367.5340 367.6284 367.9095
   367.9232 368.3025 368.4589 368.5724 369.2062 369.3174 369.6051 369.7914
   370.1020 370.2882 370.6007 371.1547 371.5619 372.2786 372.4056 372.8766
   372.9092 373.3996 373.4951 373.8412 373.9957 374.2550 374.4970 374.9389
   375.3720 375.8402 375.9067 376.2284 376.3714 376.7701 376.8443 377.7835
   377.9166 378.3566 378.6655 378.7903 379.0916 379.3150 379.4651 379.8308
   380.1578 380.5384 380.7945 380.9763 381.4025 381.8706 382.1491 382.5236
   382.6143 383.0839 383.0863 383.7448 383.7521 384.1652 384.2339 384.6912
   384.8596 385.0882 385.2460 385.3393 386.0151 386.1885 386.7211 386.8159
   386.9714 387.0548 387.2609 387.4298 387.7199 387.9805 388.0718 388.4611
   388.5605 389.2120 389.3050 390.3394 390.6631 391.1513 391.7842 391.8249
   392.9668 392.9800 393.6107 393.8906 394.5654 394.6504 394.8603 395.3189
   395.4975 395.5474 395.6425 396.0626 396.0819 396.3807 396.7650 397.0871
   397.5080 397.7389 398.0945 398.3434 398.6222 398.6572 399.0915 399.2523
   399.3670 399.7553 399.7945 400.4240 400.4616 400.8059 401.0735 401.6652
   401.9371 402.2879 402.4036 402.8343 403.2233 403.3810 403.7316 403.9320
   404.1915 404.5198 404.7600 405.0662 405.1055 405.4396 405.4597 406.2059
   406.4784 406.8210 406.8616 407.1071 407.5191 408.0038 408.2840 408.6857
   408.7932 408.9593 409.8197 409.9397 410.1083 410.2170 410.3957 410.7352
   411.0135 411.0334 411.5476 411.6261 411.7779 411.9812 412.3712 412.4607
   412.5677 413.1962 413.2707 413.6083 413.9049 414.3989 414.7917 415.1528
   415.3042 415.4784 416.0967 416.4555 416.5536 417.3559 417.6506 417.6862
   418.1716 418.2147 418.7757 418.9955 419.8898 420.0878 420.4627 420.5455
   421.2767 421.3415 422.0164 422.8946 423.0203 423.7134 423.9019 424.1737
   424.2990 424.3142 424.9658 425.6097 425.9867 425.9911 426.1927 426.2221
   426.6055 426.9655 427.0152 427.5357 427.5370 428.0068 428.1173 428.7365
   429.0785 429.1152 429.3750 429.5711 429.9203 429.9453 430.1714 430.7574
   430.9877 431.2733 431.6418 432.2329 432.5352 432.8596 433.2288 433.5385
   433.8687 434.0070 434.2645 434.5995 434.7944 435.0808 435.1743 435.4535
   435.8461 436.4051 436.8676 437.0787 437.4030 437.4239 437.8896 438.0613
   438.2074 438.6084 438.7402 438.9332 439.1167 439.1637 439.5666 439.6715
   439.9497 440.5024 440.9631 441.0188 441.2032 441.2582 441.7135 441.7805
   442.1091 442.3204 442.7470 443.0020 443.1039 443.5691 444.0118 444.1775
   444.3610 444.5084 444.7899 444.9347 445.3384 445.4842 445.6408 446.2661
   446.2929 446.7726 446.8144 447.0671 447.5042 447.5159 447.5725 448.4244
   448.6723 448.6987 449.0128 449.4742 449.4836 449.8545 450.0546 450.3902
   450.6594 450.6737 451.4100 451.9159 452.1645 452.5358 453.0744 453.4792
   453.8037 454.0922 454.0997 454.7581 454.8386 454.8655 455.4908 455.7274
   455.8064 456.2407 456.5787 456.9711 457.2413 457.5426 457.9443 458.4079
   458.4810 458.9896 459.1264 459.4418 459.9568 460.4750 460.7255 460.9708
   461.4695 462.0359 462.4287 463.0033 463.1895 463.5120 463.5631 464.1111
   464.3806 464.5630 464.5928 465.2949 465.7424 465.7516 466.3886 466.5353
   466.9038 466.9334 467.4164 467.4478 467.6628 467.6692 468.0530 468.2314
   468.3917 468.9447 469.4129 469.4817 470.1093 470.3028 470.3220 470.7549
   470.8268 471.1296 471.2486 471.5433 472.2628 472.8067 473.1926 473.5433
   473.6293 473.8236 474.1296 474.8747 475.0223 475.8259 475.8968 476.2252
   476.4938 476.5520 476.8111 477.2631 477.3560 477.6631 477.7630 478.2839
   478.5738 478.7672 479.0069 479.1929 479.5986 479.7696 479.7711 480.0146
   480.8443 481.0693 481.9957 482.0683 482.7020 482.7504 483.1085 483.5339
   483.7863 483.8308 484.4859 484.7010 484.7436 484.8247 484.9202 485.2889
   485.4351 485.7068 486.2362 486.7244 486.7684 487.1920 487.3181 487.3508
   487.5841 487.7638 488.0309 488.3425 488.4036 488.6296 488.9845 489.0637
   489.6318 490.4215 490.6587 490.6763 490.9672 491.1586 491.3234 491.6675
   491.9930 492.6405 493.3596 493.5780 494.0299 494.3083 494.3204 494.6633

          k = 0.0000 0.2887-0.3100 (  3304 PWs)   bands (ev):

  -113.3533-113.3533 -67.5635 -67.5635 -67.5622 -67.5622 -67.5618 -67.5617
    -7.3477  -7.3477   4.0404   4.0404   4.6307   4.6307   4.6467   4.6467
     5.6521   5.6522   5.6630   5.6630   7.5283   7.5283   8.7938   8.7938
     9.1859   9.1860  14.9571  14.9571  19.6695  19.6695  21.7572  21.7572
    23.7722  23.7722  27.0828  27.0828  31.0490  31.0490  32.4671  32.4671
    34.7073  34.7073  36.7424  36.7424  38.5164  38.5164  40.1931  40.1931
    42.5342  42.5342  42.5554  42.5554  45.9988  45.9988  48.9472  48.9472
    49.8771  49.8771  53.2306  53.2306  55.0826  55.0826  57.0457  57.0458
    58.2869  58.2869  60.1840  60.1840  60.9512  60.9512  62.0310  62.0310
    63.6714  63.6714  66.0065  66.0065  66.9749  66.9750  68.7757  68.7757
    70.1528  70.1528  71.7121  71.7121  72.0345  72.0345  74.0532  74.0532
    74.3270  74.3270  75.6873  75.6873  76.4371  76.4371  80.3440  80.3440
    80.8913  80.8913  80.9716  80.9716  83.0976  83.0976  83.9358  83.9358
    85.0124  85.0124  85.2556  85.2556  88.1906  88.1906  88.9003  88.9003
    91.0887  91.0887  91.2396  91.2396  93.4847  93.4847  94.2856  94.2856
    94.9404  94.9404  96.7630  96.7630  98.5521  98.5521  98.6262  98.6262
   100.4663 100.4663 101.5972 101.5972 102.1104 102.1104 104.2065 104.2065
   106.5657 106.5657 106.9671 106.9671 107.8768 107.8768 108.9299 108.9299
   110.7816 110.7816 111.5378 111.5378 113.7637 113.7637 114.3625 114.3625
   117.9423 117.9423 118.2563 118.2563 119.4600 119.4600 121.8825 121.8825
   122.2895 122.2895 123.4347 123.4347 124.0672 124.0672 124.7613 124.7613
   125.2972 125.2972 125.5152 125.5152 127.0060 127.0060 127.4379 127.4379
   129.7989 129.7989 130.1315 130.1315 130.6611 130.6611 131.8834 131.8834
   133.7323 133.7323 133.9003 133.9003 135.8459 135.8459 135.9729 135.9729
   138.0791 138.0791 138.7126 138.7126 140.4300 140.4300 140.9585 140.9585
   141.8269 141.8269 142.6307 142.6307 143.2280 143.2280 145.0660 145.0660
   145.3020 145.3020 147.1202 147.1202 147.3753 147.3753 149.0664 149.0664
   149.8930 149.8930 150.6972 150.6972 152.4807 152.4807 152.8542 152.8542
   153.6966 153.6966 154.3680 154.3680 155.2541 155.2541 155.7525 155.7525
   157.4890 157.4890 158.8387 158.8387 159.3839 159.3839 160.7135 160.7135
   161.8915 161.8915 162.3769 162.3769 163.0918 163.0918 163.7685 163.7685
   165.1497 165.1497 165.5022 165.5022 166.6642 166.6642 168.1762 168.1762
   168.2861 168.2861 169.8131 169.8131 170.4864 170.4864 171.3079 171.3079
   172.2911 172.2911 172.6098 172.6098 174.2055 174.2055 174.8079 174.8079
   175.8830 175.8830 177.4503 177.4503 177.5920 177.5920 178.9198 178.9198
   179.1639 179.1639 180.9816 180.9816 181.0420 181.0420 182.0600 182.0600
   183.6591 183.6591 184.3358 184.3358 185.3653 185.3653 185.4757 185.4757
   186.0654 186.0654 187.4653 187.4653 188.1191 188.1191 189.4689 189.4689
   190.0916 190.0916 190.6991 190.6991 191.6222 191.6222 191.9859 191.9859
   193.5359 193.5359 194.3654 194.3654 195.2297 195.2297 196.5825 196.5825
   197.6033 197.6033 197.8844 197.8844 200.1333 200.1333 200.3190 200.3190
   200.6242 200.6242 202.3876 202.3877 202.9031 202.9031 203.7302 203.7302
   205.6758 205.6758 207.3341 207.3341 208.3222 208.3222 209.5187 209.5187
   210.4846 210.4846 211.8554 211.8554 212.5072 212.5072 213.4466 213.4466
   214.0737 214.0737 214.8990 214.8990 215.9668 215.9668 216.8719 216.8719
   217.6437 217.6437 217.9039 217.9039 218.3458 218.3458 219.7091 219.7091
   221.1800 221.1800 221.4199 221.4199 222.8143 222.8143 224.1662 224.1662
   224.2660 224.2660 224.7949 224.7949 225.3104 225.3104 226.0327 226.0327
   226.6583 226.6584 227.1014 227.1015 227.6883 227.6883 228.7175 228.7175
   229.0859 229.0859 230.1167 230.1167 230.7987 230.7987 231.4105 231.4105
   232.3489 232.3489 232.8977 232.8977 233.9854 233.9854 234.6296 234.6296
   236.4738 236.4738 236.5598 236.5598 237.3231 237.3231 237.3844 237.3844
   238.4005 238.4005 239.6486 239.6486 240.3185 240.3185 241.6427 241.6427
   241.9543 241.9543 242.4318 242.4318 244.3096 244.3096 244.8419 244.8419
   245.8891 245.8891 246.9201 246.9201 248.0022 248.0022 248.3471 248.3471
   249.1492 249.1492 249.6963 249.6963 250.8956 250.8956 251.0359 251.0359
   252.4539 252.4539 252.5233 252.5233 252.9392 252.9392 254.4372 254.4372
   254.6973 254.6973 255.3358 255.3358 255.6473 255.6473 257.3898 257.3898
   257.5163 257.5163 258.3325 258.3325 259.8166 259.8166 259.8389 259.8389
   260.7003 260.7003 261.3136 261.3136 261.5670 261.5670 262.0956 262.0956
   263.3870 263.3870 264.0399 264.0399 264.9632 264.9632 265.9881 265.9881
   266.8595 266.8595 266.9909 266.9909 268.3448 268.3448 268.6741 268.6741
   269.1473 269.1473 269.4398 269.4398 270.0175 270.0175 270.3419 270.3419
   271.6788 271.6788 271.9089 271.9089 272.7155 272.7155 273.9783 273.9783
   274.5871 274.5871 275.1449 275.1449 275.7100 275.7100 277.1356 277.1356
   277.7212 277.7212 278.7086 278.7086 279.5445 279.5445 280.1178 280.1178
   280.8149 280.8149 281.5522 281.5522 282.3961 282.3961 282.7302 282.7302
   283.4132 283.4132 284.5128 284.5128 285.0340 285.0340 286.1795 286.1795
   286.4626 286.4626 287.6283 287.6283 288.2672 288.2672 288.3959 288.3959
   290.1853 290.1853 290.2845 290.2845 290.6989 290.6989 291.6177 291.6177
   291.9219 291.9220 293.3473 293.3473 293.8540 293.8540 295.0380 295.0380
   295.2268 295.2268 296.1389 296.1389 296.2758 296.2758 296.9030 296.9030
   297.3517 297.3517 298.3639 298.3639 298.8426 298.8426 299.5337 299.5337
   300.5949 300.5949 300.9191 300.9191 301.2798 301.2798 303.5648 303.5648
   304.0828 304.0828 304.7044 304.7044 305.1496 305.1496 305.3550 305.3550
   306.2868 306.2868 306.8117 306.8117 307.6592 307.6592 308.2798 308.2798
   310.1038 310.1038 310.6383 310.6383 311.6628 311.6628 313.1785 313.1785
   313.5016 313.5016 314.9731 314.9731 315.5951 315.5951 315.6681 315.6681
   316.7661 316.7661 317.5726 317.5726 317.8431 317.8431 319.3780 319.3780
   319.4853 319.4853 320.6939 320.6939 321.9216 321.9216 321.9891 321.9891
   322.5417 322.5417 322.9565 322.9565 323.3086 323.3086 323.4203 323.4203
   323.6319 323.6319 325.2581 325.2581 325.8620 325.8620 326.1922 326.1922
   326.9342 326.9342 326.9350 326.9350 327.8425 327.8425 328.4889 328.4889
   329.8562 329.8562 330.8504 330.8504 331.1011 331.1011 332.9118 332.9118
   333.2841 333.2841 334.4947 334.4947 334.6694 334.6694 335.7241 335.7241
   335.9327 335.9327 336.4357 336.4357 337.0913 337.0913 337.1912 337.1912
   338.5533 338.5533 339.1500 339.1500 339.5319 339.5319 339.9482 339.9482
   340.4611 340.4611 341.4389 341.4389 342.2626 342.2626 343.2827 343.2827
   343.8575 343.8575 344.6630 344.6630 345.3577 345.3577 346.0605 346.0605
   347.5968 347.5968 347.7399 347.7399 348.8470 348.8470 348.9751 348.9751
   350.2623 350.2623 350.4545 350.4545 351.2908 351.2908 352.2909 352.2909
   352.8446 352.8446 353.6583 353.6583 354.4227 354.4227 354.8024 354.8024
   356.0639 356.0639 356.3375 356.3375 357.3184 357.3184 357.6367 357.6367
   359.5377 359.5377 359.5484 359.5484 360.2104 360.2104 360.7711 360.7711
   361.1032 361.1032 361.5827 361.5827 361.6920 361.6920 363.5476 363.5476
   363.8529 363.8529 364.0925 364.0925 365.1023 365.1023 365.2717 365.2718
   365.7351 365.7351 366.5420 366.5420 367.6025 367.6025 367.7710 367.7710
   368.2677 368.2677 368.4483 368.4483 369.2894 369.2894 370.2053 370.2053
   370.4392 370.4392 370.8816 370.8816 371.5269 371.5269 372.4737 372.4737
   372.5675 372.5675 374.0800 374.0800 374.6649 374.6649 375.4141 375.4141
   376.4919 376.4919 376.8744 376.8745 377.9562 377.9562 378.5238 378.5238
   378.9139 378.9139 379.2931 379.2931 380.5156 380.5156 381.1238 381.1238
   381.6018 381.6018 381.9458 381.9458 382.0305 382.0305 382.6023 382.6023
   383.4609 383.4609 383.9418 383.9418 384.3582 384.3582 384.9953 384.9953
   385.1773 385.1773 385.6748 385.6748 386.3871 386.3871 386.5854 386.5854
   387.6424 387.6424 387.8588 387.8588 388.2260 388.2260 388.5454 388.5454
   388.9081 388.9081 389.3568 389.3568 389.6350 389.6350 390.7233 390.7233
   391.1804 391.1804 392.3307 392.3307 392.4684 392.4684 393.4421 393.4421
   393.4987 393.4987 393.9308 393.9308 394.4132 394.4132 394.4393 394.4393
   394.7845 394.7845 395.2877 395.2877 395.8641 395.8641 396.3079 396.3080
   396.9955 396.9955 397.3285 397.3285 398.2749 398.2749 399.3719 399.3719
   399.7281 399.7282 400.5449 400.5449 402.1633 402.1633 402.8781 402.8781
   403.6951 403.6951 404.2689 404.2689 404.7321 404.7321 405.5599 405.5599
   406.7458 406.7458 406.8320 406.8320 408.0141 408.0141 408.5521 408.5521
   409.4116 409.4116 410.0723 410.0723 410.5317 410.5317 411.8932 411.8932
   411.9325 411.9325 412.7716 412.7716 413.8375 413.8375 414.1691 414.1691
   415.2679 415.2679 415.3180 415.3180 416.4347 416.4347 416.8800 416.8800
   418.0624 418.0624 418.1722 418.1722 419.3231 419.3231 419.6953 419.6953
   421.4427 421.4427 421.4589 421.4589 422.0607 422.0607 422.6742 422.6742
   422.8443 422.8443 423.7623 423.7623 423.8949 423.8949 424.3086 424.3086
   424.6703 424.6703 425.0273 425.0273 425.9418 425.9418 425.9603 425.9603
   427.4092 427.4092 428.3503 428.3503 428.6624 428.6625 429.1862 429.1862
   429.2711 429.2711 429.8090 429.8090 429.9502 429.9502 430.5885 430.5885
   431.5459 431.5459 431.8206 431.8206 432.6154 432.6154 432.6971 432.6971
   433.4494 433.4494 434.0065 434.0065 434.3533 434.3533 434.6344 434.6344
   435.1086 435.1086 435.1577 435.1577 435.8711 435.8711 437.0545 437.0545
   437.7106 437.7106 438.3182 438.3182 439.2710 439.2710 439.9301 439.9301
   440.5385 440.5385 440.5934 440.5934 441.2654 441.2654 441.4761 441.4761
   442.2193 442.2193 443.0116 443.0116 443.0715 443.0715 444.3295 444.3295
   445.2744 445.2744 445.5314 445.5314 445.9952 445.9952 446.7506 446.7506
   446.8030 446.8030 448.1026 448.1026 448.3903 448.3903 449.0399 449.0399
   449.0707 449.0707 449.2521 449.2521 450.1052 450.1052 451.1758 451.1758
   451.4470 451.4470 452.0569 452.0569 452.9143 452.9143 453.9300 453.9300
   454.3364 454.3364 454.7648 454.7648 455.2820 455.2820 455.9261 455.9261
   456.8057 456.8057 457.3930 457.3930 457.6295 457.6295 458.1634 458.1635
   458.4213 458.4213 458.7005 458.7005 459.0572 459.0572 460.0734 460.0734
   460.3219 460.3219 461.4173 461.4173 461.4638 461.4638 462.4001 462.4002
   462.4076 462.4076 463.2634 463.2634 463.5645 463.5645 464.0790 464.0790
   464.5879 464.5879 465.1760 465.1760 465.7758 465.7758 466.2256 466.2256
   466.9549 466.9549 467.3337 467.3337 467.7975 467.7975 468.5136 468.5136
   468.5450 468.5450 469.7238 469.7238 470.3298 470.3298 471.1356 471.1356
   471.1833 471.1834 472.5928 472.5928 473.8590 473.8590 474.1673 474.1673
   475.2875 475.2875 475.2974 475.2974 477.4000 477.4000 478.0356 478.0356
   479.4694 479.4694 479.8909 479.8909 480.2010 480.2010 480.3893 480.3893
   481.6784 481.6784 482.4295 482.4295 483.3323 483.3323 484.3548 484.3548
   485.0387 485.0387 485.5004 485.5004 486.2371 486.2371 486.4274 486.4274
   486.9366 486.9366 487.2456 487.2456 487.5438 487.5438 487.8263 487.8263
   488.8247 488.8247 488.8260 488.8260 489.8288 489.8288 490.6393 490.6393
   491.9040 491.9040 492.0768 492.0768 493.0800 493.0800 493.5504 493.5504
   493.9036 493.9037 494.3001 494.3001 494.5706 494.5706 495.2828 495.2828

          k = 0.0000-0.5774 0.0000 (  3314 PWs)   bands (ev):

  -113.3533-113.3532 -67.5639 -67.5635 -67.5635 -67.5625 -67.5624 -67.5617
    -7.2325  -7.0093   4.1561   4.3751   4.6228   5.0233   5.0243   5.1605
     5.5645   5.6943   5.7783   5.8605   6.3494   6.5627   7.2822   7.8591
     8.8225   9.2800  15.9801  17.0477  17.7518  18.7223  20.7700  22.6200
    23.4059  24.4650  26.0642  28.7397  29.2938  30.8033  33.2068  35.1440
    35.1672  36.2883  37.6069  37.9323  38.6369  39.4508  41.3415  42.9498
    42.9999  43.6765  43.6850  44.8422  45.3137  45.8029  47.1610  48.6970
    49.4765  50.6053  51.7027  52.1190  53.3960  53.9279  56.0915  56.3398
    57.3912  57.4332  58.1018  58.9944  59.0407  60.4269  60.5743  61.7326
    61.8393  62.3760  63.2426  63.9705  65.3566  65.9982  66.2739  66.8291
    67.1686  68.6567  69.9103  69.9520  70.8695  71.7495  72.1124  72.4607
    72.5442  75.2795  76.0645  76.1711  76.5184  77.9857  81.3248  81.5481
    82.1104  83.5204  84.0781  84.5584  85.0415  85.3398  85.8176  86.8369
    86.9191  87.7885  88.4493  88.8488  89.5597  89.9821  91.1257  91.1783
    91.1927  92.4255  92.8977  94.0111  94.6694  95.8819  96.2315  96.8602
    97.3854  97.7339  98.3840  98.5294  98.7558  99.7740 100.1675 101.3927
   101.5007 102.7750 102.9804 103.0270 103.1083 103.9358 104.3149 104.3175
   105.6864 107.6374 107.8097 108.2623 108.6399 108.7647 109.0539 109.5851
   110.0098 110.3574 110.8745 111.9776 112.1735 112.3329 112.3587 113.2446
   113.5945 114.4567 114.7188 116.4554 117.0802 117.2687 117.8463 117.9846
   118.7213 119.4344 120.0241 120.3594 120.9470 121.0800 121.7076 121.7133
   121.9740 122.4713 122.8442 123.8205 124.4719 124.5878 125.1147 125.9017
   127.1523 127.2188 128.0247 128.3050 128.4750 129.3181 130.7311 131.0814
   132.6891 133.6188 134.7180 135.4616 135.5991 137.1098 137.3824 137.6694
   137.9753 138.4204 138.5040 139.1015 139.4382 139.5621 140.2010 140.6537
   141.3636 142.3509 142.5930 143.1069 144.4964 144.8708 145.0588 145.5183
   146.6552 146.6632 147.1657 147.7375 148.1606 148.2315 148.5245 148.9272
   149.8196 150.1952 150.6034 150.9241 150.9558 151.2968 151.6999 151.9027
   152.1306 152.1870 152.6310 152.7068 152.7521 153.5731 154.1045 154.3632
   155.2865 155.9076 155.9367 156.9301 158.2278 158.4229 159.2559 159.8160
   161.1333 162.2813 163.3472 164.4428 164.7996 164.8891 166.6631 167.0488
   167.6342 168.1754 168.5726 168.7506 169.0837 169.6397 169.7967 170.0754
   170.5690 170.7406 170.8022 170.8155 173.1131 173.6915 173.7183 174.1310
   174.2357 174.8239 175.1916 175.6034 175.7774 176.0701 176.7465 177.2475
   177.4151 177.4648 177.6239 177.8403 178.2693 179.4030 179.7639 181.4665
   181.5351 181.6758 182.9409 184.2284 184.4394 184.8121 184.8359 185.2129
   185.2649 185.4132 185.7422 186.1871 186.8950 187.1715 187.2427 187.9702
   188.2056 188.3483 188.3904 188.7047 190.8838 190.9963 191.2196 192.3132
   192.4609 193.0638 193.2022 193.4346 193.7778 193.8511 193.9631 194.5631
   194.9813 195.4199 195.5730 195.6691 195.9191 196.3446 196.6464 197.2347
   198.5175 198.5455 198.5795 198.9654 199.1330 199.5983 199.9887 200.2455
   200.5988 201.3733 201.4105 202.2235 202.5827 203.0115 203.1355 203.3208
   203.3549 203.6947 205.2647 205.3774 206.7076 207.2035 207.5292 207.7043
   208.0179 208.1722 208.3380 208.4877 208.8259 209.1569 209.8323 210.1261
   210.7566 210.8016 211.1425 211.6169 211.8993 212.3644 212.8594 213.8125
   214.8131 214.8587 215.3656 215.5548 215.8181 216.7625 217.8660 218.1502
   219.2674 219.4249 221.0608 221.2398 221.7515 221.9133 223.0056 223.3908
   224.0056 224.2511 224.2688 224.4429 225.0370 225.0529 225.1319 225.2060
   225.7174 226.1160 226.8218 227.2515 227.6603 227.8358 228.1740 228.4982
   229.0165 229.2492 229.3437 229.8104 230.4030 230.5905 230.8727 230.9826
   231.6624 231.8716 231.9520 232.0162 232.5369 232.8507 232.9761 233.1702
   234.0600 234.2598 234.4962 234.7457 234.9897 235.1652 235.4506 235.5713
   235.9975 236.3031 236.7592 236.7746 237.3141 237.4752 237.7252 238.3145
   238.7667 238.9788 239.5283 239.9293 240.8349 240.9957 241.4779 241.7944
   241.8806 242.2270 242.3527 243.0774 243.1256 243.8806 244.3500 244.3566
   245.8291 247.1957 247.4494 247.8138 248.3619 248.7027 249.3242 250.1302
   250.9776 251.0334 251.5071 251.8661 252.0809 252.1326 252.9638 254.1042
   254.4692 254.5437 254.7658 254.8980 255.5404 256.0141 256.1139 256.3107
   256.9648 256.9721 257.7853 258.5852 259.1801 259.1977 259.4387 259.7307
   260.3376 261.2673 261.4106 261.8702 262.3245 262.3811 262.9101 263.3476
   263.4639 263.7072 264.2577 264.5777 264.9434 265.9015 266.1573 267.4464
   267.4853 268.2946 269.5452 269.5471 269.5684 269.8955 270.5404 271.0579
   271.7682 271.8340 271.9011 273.5008 273.5502 273.7341 274.0392 275.1058
   275.1252 275.4543 276.3752 277.2470 277.6007 277.8625 277.8913 278.0197
   278.5745 278.7058 279.1023 279.2080 280.0492 280.2518 281.0916 281.4516
   281.5896 281.9057 282.2514 282.2729 282.2998 282.4622 282.7024 282.8810
   282.9250 283.2916 284.0253 284.0543 284.1831 284.3682 284.7680 284.7712
   284.7968 285.6688 286.4094 286.4867 286.9025 287.4845 287.8897 288.0422
   288.5799 288.7435 288.8720 289.3369 289.8523 290.2454 290.5353 290.8345
   291.4072 291.4468 291.7118 292.0455 292.0770 293.0518 293.0921 293.1128
   293.4512 293.6010 293.7575 294.5067 294.5884 294.8652 294.9549 295.1719
   295.9953 295.9974 296.8438 296.9905 298.6028 298.8264 299.1143 299.6693
   299.6814 299.7461 299.9643 300.6329 300.7735 300.8920 302.3110 302.6636
   302.6686 302.9618 303.0612 303.6240 304.3131 304.7214 305.1787 305.3596
   305.9512 305.9530 306.8884 307.0081 307.4544 307.6789 307.9359 308.3560
   308.4036 308.5471 308.9270 309.3109 309.4643 310.1572 310.8213 310.8604
   311.6035 311.9068 312.0283 312.2406 312.6843 312.9827 312.9849 313.0472
   313.3180 313.4495 313.6984 313.8620 313.9124 314.2232 314.9233 315.1843
[...]
   264.1026 264.1026 264.8678 264.8678 266.0851 266.0851 266.7489 266.7489
   267.7104 267.7104 268.4994 268.4994 269.4660 269.4660 269.9296 269.9296
   270.7400 270.7400 271.2045 271.2045 272.1416 272.1416 272.9681 272.9681
   273.5020 273.5020 273.9932 273.9932 274.5062 274.5062 275.3054 275.3054
   275.9644 275.9644 276.4261 276.4261 276.7658 276.7658 277.8107 277.8107
   278.3841 278.3841 278.6798 278.6798 279.7228 279.7228 280.7219 280.7219
   281.6845 281.6845 282.4427 282.4427 282.9553 282.9553 284.1137 284.1137
   285.0667 285.0667 285.6312 285.6312 285.9208 285.9208 286.8060 286.8060
   287.4032 287.4032 288.2498 288.2498 289.6748 289.6748 290.5008 290.5008
   291.1931 291.1931 291.8446 291.8446 292.8546 292.8546 293.8474 293.8474
   294.4981 294.4981 295.7613 295.7613 296.0415 296.0415 297.0220 297.0220
   297.2486 297.2486 297.8691 297.8691 298.5905 298.5905 300.2427 300.2427
   300.8955 300.8955 301.9932 301.9932 302.4079 302.4079 303.0870 303.0870
   303.6633 303.6633 304.0695 304.0695 304.8938 304.8939 305.6443 305.6443
   305.9927 305.9927 306.7027 306.7027 307.5209 307.5209 307.8991 307.8991
   308.5287 308.5287 309.0476 309.0476 311.0031 311.0031 311.7710 311.7710
   311.9814 311.9814 312.7688 312.7688 313.4327 313.4327 313.9157 313.9157
   315.2799 315.2799 315.4909 315.4910 316.4813 316.4813 316.9455 316.9455
   317.4822 317.4822 318.1030 318.1030 318.4576 318.4576 319.2413 319.2413
   319.6354 319.6354 320.2897 320.2897 320.5791 320.5791 321.2844 321.2844
   321.9661 321.9661 322.6337 322.6337 323.1369 323.1369 324.1199 324.1199
   324.9287 324.9287 325.6666 325.6666 325.9932 325.9932 326.7238 326.7238
   327.2465 327.2465 327.7288 327.7288 328.8872 328.8872 329.3361 329.3361
   329.7188 329.7188 330.1921 330.1921 331.1552 331.1552 331.4196 331.4196
   331.6355 331.6355 332.7988 332.7988 333.4623 333.4623 334.1125 334.1125
   335.0610 335.0610 335.5121 335.5121 335.6896 335.6896 336.6438 336.6438
   337.0654 337.0654 337.7821 337.7821 338.5757 338.5757 339.2561 339.2561
   339.7530 339.7530 340.0823 340.0823 340.6026 340.6026 341.4858 341.4858
   342.0110 342.0110 342.2571 342.2571 343.0954 343.0954 343.5329 343.5329
   343.6915 343.6915 344.4577 344.4577 344.7163 344.7163 345.2537 345.2537
   346.8031 346.8031 347.4718 347.4718 348.0265 348.0265 348.5110 348.5110
   349.5511 349.5511 349.8911 349.8911 350.3428 350.3428 350.7857 350.7857
   352.2853 352.2853 352.6637 352.6637 353.3290 353.3290 354.1069 354.1069
   354.7587 354.7587 355.4411 355.4411 356.5045 356.5046 357.3712 357.3712
   357.4931 357.4931 358.4426 358.4426 358.7791 358.7791 359.3566 359.3566
   360.2292 360.2292 360.6557 360.6557 360.9449 360.9449 361.9547 361.9547
   362.8332 362.8332 363.1208 363.1208 363.5835 363.5835 364.0699 364.0699
   364.9717 364.9717 365.1179 365.1179 365.7789 365.7789 366.2763 366.2763
   367.1355 367.1355 367.7181 367.7181 368.8466 368.8466 369.5717 369.5717
   370.8058 370.8058 371.2202 371.2202 372.7217 372.7217 373.2413 373.2413
   374.0701 374.0701 374.4978 374.4978 375.6286 375.6286 375.9895 375.9895
   376.8310 376.8310 377.4557 377.4557 378.2510 378.2510 378.5245 378.5245
   379.1162 379.1162 379.3977 379.3977 380.3175 380.3175 381.2317 381.2317
   382.4692 382.4692 382.9681 382.9681 383.9590 383.9590 384.3805 384.3805
   385.2015 385.2015 385.5732 385.5732 386.5313 386.5313 386.8582 386.8582
   387.4342 387.4342 389.2974 389.2974 390.4718 390.4718 391.2981 391.2982
   391.9999 391.9999 392.9512 392.9512 394.3018 394.3018 394.6389 394.6390
   395.3048 395.3048 395.5131 395.5131 396.4586 396.4586 396.7515 396.7515
   397.8819 397.8819 398.2648 398.2648 398.7619 398.7619 399.7193 399.7193
   400.3207 400.3207 400.8224 400.8224 401.8652 401.8652 402.5081 402.5081
   402.7869 402.7869 403.1320 403.1320 403.6231 403.6231 403.9527 403.9527
   404.2015 404.2015 404.7015 404.7015 405.3263 405.3263 406.3097 406.3097
   407.1725 407.1725 407.2836 407.2836 407.6360 407.6360 408.1181 408.1181
   408.8751 408.8751 409.6058 409.6058 410.2309 410.2309 410.8193 410.8193
   411.7652 411.7652 412.4289 412.4289 412.8292 412.8292 413.1372 413.1372
   413.7678 413.7678 414.3344 414.3344 414.7760 414.7760 415.3245 415.3245
   415.8408 415.8408 416.3247 416.3247 416.6062 416.6062 416.8510 416.8510
   417.5731 417.5731 417.8584 417.8584 418.4664 418.4664 418.9211 418.9211
   419.6971 419.6971 419.8679 419.8679 420.4994 420.4994 420.6387 420.6387
   421.2249 421.2249 421.4594 421.4594 422.9280 422.9280 423.4360 423.4360
   424.4450 424.4450 425.2322 425.2322 425.3942 425.3942 426.3114 426.3114
   426.7847 426.7847 427.3250 427.3250 427.7249 427.7249 428.5494 428.5494
   429.0598 429.0598 429.4402 429.4402 429.8314 429.8314 430.2681 430.2681
   430.4678 430.4678 430.6113 430.6113 431.0762 431.0762 431.4554 431.4554
   432.1357 432.1357 432.5937 432.5937 433.6513 433.6513 435.2570 435.2570
   436.2960 436.2960 437.3233 437.3233 437.9984 437.9984 438.8656 438.8656
   438.9840 438.9840 439.3446 439.3446 440.1338 440.1338 440.6046 440.6046
   441.0561 441.0561 441.5370 441.5370 442.0204 442.0204 442.5736 442.5736
   443.4167 443.4167 444.4502 444.4502 445.0770 445.0770 445.6837 445.6837
   445.9725 445.9725 446.4881 446.4881 447.5120 447.5120 447.8993 447.8993
   448.8453 448.8453 449.2516 449.2516 449.6455 449.6456 450.2545 450.2545
   450.5179 450.5179 451.1183 451.1183 451.6664 451.6664 452.3070 452.3070
   452.7208 452.7208 453.5435 453.5435 454.7029 454.7029 455.2218 455.2218
   455.7448 455.7448 456.4522 456.4522 457.3084 457.3084 457.4051 457.4051
   458.4969 458.4969 459.1288 459.1288 459.6451 459.6451 460.3916 460.3916
   460.8058 460.8058 461.8059 461.8059 462.7792 462.7792 463.5691 463.5691
   463.9607 463.9607 464.4057 464.4057 464.7881 464.7881 465.8445 465.8445
   466.9557 466.9557 467.5611 467.5611 468.0428 468.0428 468.5340 468.5340
   469.2121 469.2121 469.6284 469.6284 469.9085 469.9085 471.0784 471.0784
   471.5239 471.5239 472.1319 472.1319 472.3981 472.3981 472.7202 472.7202
   473.2092 473.2092 473.5720 473.5720 474.1049 474.1049 474.3503 474.3503
   474.6182 474.6182 475.3732 475.3732 475.9180 475.9180 476.1313 476.1313
   476.3689 476.3689 476.8193 476.8193 477.0023 477.0023 477.2260 477.2260
   477.7459 477.7459 478.8008 478.8008 479.9662 479.9662 480.2029 480.2029
   480.7521 480.7521 481.0070 481.0070 481.6948 481.6948 482.6271 482.6271
   483.6692 483.6692 483.8791 483.8791 484.2342 484.2342 484.6734 484.6734
   485.2883 485.2883 485.5495 485.5495 485.9249 485.9249 486.0234 486.0234
   486.7897 486.7897 487.1453 487.1453 487.3219 487.3219 487.6535 487.6535
   488.5924 488.5924 488.9316 488.9316 489.5929 489.5929 490.1207 490.1207
   490.3245 490.3245 491.1837 491.1837 491.7714 491.7714 492.2536 492.2536

          k = 0.0000-0.2887 0.1550 (  3296 PWs)   bands (ev):

  -113.3534-113.3533 -67.5641 -67.5628 -67.5626 -67.5620 -67.5619 -67.5615
    -7.5396  -7.1549   4.0702   4.2655   4.5545   4.6100   4.7506   4.7629
     5.5066   5.5768   5.7239   5.7954   6.7864   7.7813   8.2370   8.7919
     9.4725   9.5665  13.8271  16.3711  18.8425  19.9768  21.6341  22.8494
    23.6027  24.1582  25.5587  28.6829  28.9379  31.6363  32.5417  33.6090
    34.4933  35.3302  35.7294  37.6642  37.7099  38.4196  38.6338  40.7037
    40.8445  41.9624  43.0161  44.8681  46.3679  47.3062  47.8431  49.2164
    49.3676  50.7146  51.6217  54.3587  55.1354  55.3496  55.6320  57.4007
    57.8136  58.0606  59.8664  60.2832  61.1758  61.9966  62.3980  63.4577
    64.2600  65.0806  65.2119  66.2265  66.9469  67.1787  68.2962  68.3640
    69.5459  70.2999  70.6028  71.6001  71.6356  72.8576  73.0168  73.6615
    74.0072  75.1526  75.4690  76.1141  76.2899  76.9609  77.8068  78.3285
    79.3740  80.3652  80.6938  82.2062  82.7433  82.9771  83.1680  84.4286
    85.2760  85.4506  86.9023  87.3128  87.8150  87.8552  89.1980  89.9591
    90.0101  91.0493  91.2265  92.2970  92.4364  92.8965  94.2413  95.0020
    95.2268  96.7595  96.9108  98.1070  98.2931  98.6022  99.6020 100.0368
   100.3475 100.5131 101.6700 101.9564 102.1781 102.6142 103.8161 104.1847
   104.5511 105.6746 106.7896 106.9210 107.1707 109.3745 109.8209 110.1015
   111.5987 111.9533 113.1343 113.5032 113.6173 114.1229 114.9827 115.5430
   115.9934 116.3781 116.5404 117.7591 117.9122 118.3933 118.6475 118.9356
   119.3695 120.5472 120.7877 121.6774 122.4883 123.7347 123.8668 124.1603
   124.5305 125.6155 126.0144 126.3888 126.9740 127.4537 127.6393 128.2651
   128.6335 129.7875 129.8442 130.6751 130.6877 131.6566 132.2383 132.5875
   133.4884 134.0357 134.9722 135.9804 136.3205 137.0164 137.6638 138.0750
   138.7390 139.2610 139.2886 140.1530 140.2679 140.8003 141.3343 141.8419
   141.8837 142.5031 143.6220 143.6507 144.3040 144.3930 145.1790 145.5045
   145.6268 146.7587 146.9498 147.1934 147.9042 147.9325 148.3893 148.9370
   150.0205 150.7542 150.7928 151.5240 151.5669 152.2223 152.3562 152.4583
   153.5806 153.8618 154.0003 155.0903 155.2478 155.9638 156.6888 156.7670
   157.5410 157.8919 158.2699 158.4779 158.7065 159.6307 160.8686 160.9104
   161.4265 161.4544 162.1827 162.2644 162.6232 162.6672 163.5098 163.7206
   163.9227 164.3945 165.2033 165.3874 165.8451 166.6467 166.9410 167.2974
   167.6028 167.6843 168.1411 168.4170 168.6494 168.9172 169.9471 170.3121
   170.3608 171.0567 171.4059 172.0300 172.6709 172.7902 173.9445 174.5829
   174.7256 175.4482 176.2540 176.4950 176.5617 177.1348 177.9982 178.2860
   178.6565 179.9455 180.1396 181.0186 181.5154 182.1660 182.4783 182.7885
   182.9297 183.4874 184.1501 184.6983 185.0428 185.8399 185.9413 186.2741
   186.8956 187.2674 187.4414 187.9204 188.4797 189.2557 189.7336 190.6908
   191.0724 191.3541 192.2048 192.9272 193.1889 193.6004 193.8279 194.3462
   194.7326 195.0228 195.6691 195.7826 196.2916 196.5550 196.9184 197.3866
   197.7821 198.6722 198.7392 199.0037 199.9468 200.0899 201.0399 201.2912
   202.0836 202.5080 202.8664 203.4656 203.8017 204.0238 204.5999 205.0171
   205.1713 206.0121 206.5995 207.2583 207.8367 208.2702 208.4081 209.3890
   210.0347 210.0924 210.7945 211.2262 211.3716 211.6865 212.6925 212.8931
   213.0890 213.8482 213.9512 214.1707 214.2898 215.3844 215.6092 216.2671
   216.5736 216.7840 217.2242 217.2747 217.7544 218.0344 218.8417 218.8566
   219.2002 219.4802 220.2951 221.1850 221.2110 221.2979 221.8082 222.3255
   222.9666 223.3253 224.3172 224.4211 224.6584 225.1500 225.3726 225.7500
   226.2160 226.7206 226.7668 227.4847 227.7302 228.3799 228.6899 229.1658
   229.6321 229.9635 230.1796 230.6580 231.2260 231.9310 232.0216 232.2621
   232.7325 233.3879 233.5525 233.9259 234.5977 234.7777 235.2063 235.4039
   236.5601 236.6360 237.0301 237.1480 237.7154 238.0294 238.5705 239.2277
   239.3363 239.7759 239.9770 240.1733 240.2208 240.7673 240.7978 241.1282
   241.3767 242.0147 242.7684 242.9748 243.1175 243.5412 243.6876 244.1111
   244.4855 245.2650 245.6998 246.3764 246.4241 246.6758 246.9957 247.7719
   247.9815 248.0951 248.3782 249.2925 249.9320 250.3425 250.6902 250.8787
   251.2870 251.8927 252.0411 252.5698 253.1203 253.2626 254.1470 254.5886
   254.8245 255.2450 255.7003 256.0924 256.3938 256.7758 257.0549 257.2149
   257.6077 257.7438 258.3331 258.9764 259.3761 260.0569 260.2617 260.6493
   261.0109 261.3852 261.4667 262.2358 262.4524 262.5366 263.4747 263.8615
   264.1788 264.3810 264.5765 264.6986 265.3145 265.5463 265.9473 266.0606
   266.5466 266.7378 267.1583 267.4929 267.7987 267.9224 268.8797 268.9070
   269.3441 269.5834 270.0769 270.6500 271.0034 271.4249 271.4450 272.0458
   272.5878 272.8204 272.9466 273.7042 274.2273 274.3810 274.6961 274.9099
   275.1549 275.6367 276.0584 276.0844 276.3595 276.5882 276.7239 277.2214
   277.3879 277.5286 278.6424 278.8922 279.5262 279.9591 279.9895 280.3888
   280.6398 280.7243 281.3811 281.5777 282.1480 282.5682 282.7912 282.9930
   283.0596 283.3162 283.8196 284.0030 284.0423 284.5387 284.8858 285.2605
   285.2707 285.7720 285.7939 286.5165 286.8099 286.9518 287.3690 287.7066
   288.2604 288.3970 289.3096 289.5776 290.1371 291.0561 291.2149 291.6682
   291.8746 292.0251 292.4321 292.9568 293.1224 293.5564 293.6195 294.4206
   294.5816 295.1400 295.3125 295.6818 295.7493 296.5182 296.6683 297.0945
   297.0949 297.5690 298.1392 298.6202 298.7023 299.0806 299.5383 299.6516
   300.2943 300.9343 301.0856 301.6029 302.0855 302.4026 302.6666 302.9401
   303.0933 303.6183 303.8316 304.1077 305.0237 305.1157 305.8930 306.0251
   306.5868 306.6416 306.8985 308.1178 308.2011 308.6899 309.1822 309.7580
   309.9645 310.2654 310.6792 310.9465 311.6571 311.8905 312.1371 312.3827
   312.7709 313.4690 313.5616 313.9563 314.0396 314.3392 314.4507 314.4783
   315.3285 315.7723 316.0371 316.7866 317.0796 317.3923 317.6996 318.0322
   318.5920 318.8085 319.5642 319.9065 320.2012 320.6485 321.1907 321.2630
   321.7921 322.0772 322.4562 323.1883 323.3182 323.5491 323.6239 324.1618
   324.4957 324.5134 325.0879 325.5052 325.9880 326.3290 326.3759 326.9776
   327.2050 327.4995 328.1006 328.5999 329.0520 329.6154 329.7293 330.6404
   331.2994 331.8231 332.1935 332.3097 332.7248 332.7266 333.0081 333.4272
   333.5010 334.1577 334.1950 334.6482 335.0166 335.0716 336.0739 336.4927
   336.8941 337.0203 337.1386 337.7526 337.9507 338.0018 338.4303 338.9714
   339.2010 339.5056 339.7580 340.1125 340.4213 340.6613 341.1323 341.2689
   341.8274 341.9811 342.0424 342.5916 342.8991 343.2484 343.4537 343.8418
   344.1650 344.9648 345.0301 345.5764 345.8017 346.2686 346.5904 346.6716
   347.0273 347.3342 347.6126 348.1873 348.1980 348.3657 348.5576 348.9688
   349.3930 349.8938 350.0561 350.5090 350.6430 350.9063 351.1396 351.1976
   352.1297 352.5470 352.6742 353.4266 353.5694 353.7130 354.3617 354.7379
   354.8711 355.2534 355.4016 355.7396 356.2445 356.7589 357.0520 357.7200
   357.9710 358.6059 358.6285 358.8003 358.9849 359.2914 359.4751 359.6343
   360.0814 360.5387 360.8242 361.4234 361.5391 361.8581 362.4103 362.8942
   363.0310 363.2489 363.8413 364.1927 364.2203 364.5809 364.6689 365.4396
   365.5674 366.1504 366.4082 366.9707 367.2250 367.5340 367.6284 367.9095
   367.9232 368.3025 368.4589 368.5724 369.2062 369.3174 369.6051 369.7914
   370.1020 370.2882 370.6007 371.1547 371.5619 372.2786 372.4056 372.8766
   372.9092 373.3996 373.4951 373.8412 373.9957 374.2550 374.4970 374.9389
   375.3720 375.8402 375.9067 376.2284 376.3714 376.7701 376.8443 377.7835
   377.9166 378.3566 378.6655 378.7903 379.0916 379.3150 379.4651 379.8308
   380.1578 380.5384 380.7945 380.9763 381.4025 381.8706 382.1491 382.5236
   382.6143 383.0839 383.0863 383.7448 383.7521 384.1652 384.2340 384.6912
   384.8596 385.0882 385.2460 385.3393 386.0151 386.1885 386.7211 386.8159
   386.9714 387.0548 387.2609 387.4298 387.7199 387.9805 388.0718 388.4611
   388.5605 389.2120 389.3050 390.3394 390.6631 391.1513 391.7842 391.8249
   392.9668 392.9800 393.6107 393.8906 394.5654 394.6504 394.8603 395.3189
   395.4975 395.5474 395.6425 396.0626 396.0819 396.3807 396.7650 397.0871
   397.5080 397.7389 398.0945 398.3434 398.6222 398.6572 399.0915 399.2523
   399.3670 399.7553 399.7945 400.4240 400.4616 400.8059 401.0735 401.6652
   401.9371 402.2879 402.4036 402.8343 403.2233 403.3810 403.7316 403.9320
   404.1915 404.5198 404.7600 405.0662 405.1055 405.4396 405.4597 406.2059
   406.4784 406.8210 406.8616 407.1071 407.5191 408.0038 408.2840 408.6857
   408.7932 408.9593 409.8197 409.9397 410.1083 410.2170 410.3957 410.7352
   411.0135 411.0334 411.5476 411.6261 411.7779 411.9812 412.3712 412.4607
   412.5677 413.1962 413.2707 413.6083 413.9049 414.3989 414.7917 415.1528
   415.3042 415.4784 416.0967 416.4555 416.5536 417.3559 417.6506 417.6862
   418.1716 418.2147 418.7757 418.9955 419.8898 420.0878 420.4627 420.5455
   421.2767 421.3415 422.0164 422.8946 423.0203 423.7134 423.9019 424.1737
   424.2990 424.3142 424.9658 425.6097 425.9867 425.9911 426.1927 426.2221
   426.6055 426.9655 427.0152 427.5357 427.5370 428.0068 428.1173 428.7365
   429.0785 429.1152 429.3750 429.5711 429.9203 429.9453 430.1714 430.7574
   430.9877 431.2733 431.6418 432.2329 432.5352 432.8596 433.2288 433.5385
   433.8687 434.0070 434.2645 434.5995 434.7944 435.0808 435.1743 435.4535
   435.8461 436.4051 436.8676 437.0787 437.4030 437.4239 437.8896 438.0613
   438.2074 438.6084 438.7402 438.9332 439.1167 439.1637 439.5666 439.6715
   439.9497 440.5024 440.9631 441.0188 441.2032 441.2582 441.7135 441.7805
   442.1091 442.3204 442.7470 443.0020 443.1039 443.5691 444.0118 444.1775
   444.3610 444.5084 444.7899 444.9347 445.3384 445.4842 445.6408 446.2661
   446.2929 446.7726 446.8144 447.0671 447.5042 447.5159 447.5725 448.4244
   448.6723 448.6987 449.0128 449.4742 449.4836 449.8545 450.0546 450.3902
   450.6594 450.6737 451.4100 451.9159 452.1645 452.5358 453.0744 453.4792
   453.8037 454.0922 454.0997 454.7581 454.8386 454.8655 455.4908 455.7274
   455.8064 456.2407 456.5787 456.9711 457.2413 457.5427 457.9443 458.4079
   458.4810 458.9896 459.1264 459.4418 459.9568 460.4750 460.7255 460.9708
   461.4695 462.0359 462.4287 463.0033 463.1895 463.5120 463.5631 464.1111
   464.3806 464.5630 464.5928 465.2949 465.7424 465.7516 466.3886 466.5353
   466.9038 466.9334 467.4164 467.4478 467.6628 467.6692 468.0530 468.2314
   468.3917 468.9447 469.4129 469.4817 470.1093 470.3028 470.3220 470.7549
   470.8268 471.1296 471.2486 471.5433 472.2628 472.8067 473.1926 473.5433
   473.6293 473.8236 474.1296 474.8747 475.0223 475.8259 475.8968 476.2252
   476.4938 476.5520 476.8111 477.2631 477.3560 477.6631 477.7630 478.2839
   478.5739 478.7672 479.0069 479.1929 479.5986 479.7696 479.7711 480.0146
   480.8443 481.0693 481.9957 482.0683 482.7020 482.7504 483.1085 483.5339
   483.7863 483.8308 484.4859 484.7010 484.7436 484.8247 484.9202 485.2889
   485.4351 485.7068 486.2362 486.7244 486.7684 487.1920 487.3181 487.3508
   487.5841 487.7638 488.0309 488.3425 488.4036 488.6296 488.9845 489.0637
   489.6318 490.4215 490.6587 490.6763 490.9672 491.1586 491.3234 491.6675
   491.9930 492.6405 493.3596 493.5780 494.0299 494.3083 494.3204 494.6633

     the Fermi energy is    10.7951 ev
     (compare with:    10.5624 eV, computed in scf)

     Writing all to output data dir out/mp-2133.save/
 
     init_run     :      0.02s CPU      0.05s WALL (       1 calls)
     electrons    :    555.11s CPU    598.59s WALL (       1 calls)

     Called by init_run:
     wfcinit      :      0.00s CPU      0.00s WALL (       1 calls)
     potinit      :      0.01s CPU      0.01s WALL (       1 calls)
     hinit0       :      0.01s CPU      0.03s WALL (       1 calls)

     Called by electrons:
     c_bands      :    555.11s CPU    598.57s WALL (       1 calls)
     v_of_rho     :      0.00s CPU      0.00s WALL (       1 calls)

     Called by c_bands:
     init_us_2    :      0.00s CPU      0.00s WALL (      13 calls)
     init_us_2:cp :      0.00s CPU      0.00s WALL (      13 calls)
     cegterg      :    542.22s CPU    584.69s WALL (      13 calls)

     Called by *egterg:
     cdiaghg      :    504.94s CPU    545.10s WALL (     148 calls)
     h_psi        :     10.92s CPU     11.58s WALL (     161 calls)
     g_psi        :      0.06s CPU      0.06s WALL (     135 calls)

     Called by h_psi:
     h_psi:calbec :      0.30s CPU      0.32s WALL (     161 calls)
     vloc_psi     :     10.25s CPU     10.89s WALL (     161 calls)
     add_vuspsi   :      0.23s CPU      0.23s WALL (     161 calls)

     General routines
     calbec       :      0.30s CPU      0.32s WALL (     161 calls)
     fft          :      0.00s CPU      0.02s WALL (      10 calls)
     fftw         :      9.39s CPU      9.98s WALL (  194764 calls)
 
     Parallel routines
 
     PWSCF        :   9m16.76s CPU  10m 0.89s WALL

 
   This run was terminated on:   3:48:53  22Dec2023            

=------------------------------------------------------------------------------=
   JOB DONE.
=------------------------------------------------------------------------------=
