
     Program PWSCF v.7.1 starts on 22Dec2023 at  8:40:21 

     This program is part of the open-source Quantum ESPRESSO suite
     for quantum simulation of materials; please cite
         "P. Giannozzi et al., J. Phys.:Condens. Matter 21 395502 (2009);
         "P. Giannozzi et al., J. Phys.:Condens. Matter 29 465901 (2017);
         "P. Giannozzi et al., J. Chem. Phys. 152 154105 (2020);
          URL http://www.quantum-espresso.org", 
     in publications or presentations arising from this work. More details at
     http://www.quantum-espresso.org/quote

     Parallel version (MPI), running on    24 processors

     MPI processes distributed on     1 nodes
     123008 MiB available memory on the printing compute node when the environment starts
 
     Reading input from pw_mp-2133_scf_k3000_E72.in
Warning: card &CELL ignored
Warning: card / ignored

     Current dimensions of program PWSCF are:
     Max number of different atomic species (ntypx) = 10
     Max number of k-points (npk) =  40000
     Max angular momentum in pseudopotentials (lmaxx) =  4
 
     R & G space division:  proc/nbgrp/npool/nimage =      24
     Subspace diagonalization in iterative solution of the eigenvalue problem:
     a serial algorithm will be used

 
     Parallelization info
     --------------------
     sticks:   dense  smooth     PW     G-vecs:    dense   smooth      PW
     Min          31      31      8                 1103     1103     168
     Max          32      32      9                 1110     1110     177
     Sum         745     745    211                26513    26513    4175
 
     Using Slab Decomposition
 


     bravais-lattice index     =            4
     lattice parameter (alat)  =       6.1177  a.u.
     unit-cell volume          =     319.8517 (a.u.)^3
     number of atoms/cell      =            4
     number of atomic types    =            2
     number of electrons       =        52.00
     number of Kohn-Sham states=           52
     kinetic-energy cutoff     =      72.0000  Ry
     charge density cutoff     =     288.0000  Ry
     scf convergence threshold =      1.0E-10
     mixing beta               =       0.7000
     number of iterations used =            8  plain     mixing
     Exchange-correlation= PBE
                           (   1   4   3   4   0   0   0)

     celldm(1)=   6.117706  celldm(2)=   0.000000  celldm(3)=   1.613066
     celldm(4)=   0.000000  celldm(5)=   0.000000  celldm(6)=   0.000000

     crystal axes: (cart. coord. in units of alat)
               a(1) = (   1.000000   0.000000   0.000000 )  
               a(2) = (  -0.500000   0.866025   0.000000 )  
               a(3) = (   0.000000   0.000000   1.613066 )  

     reciprocal axes: (cart. coord. in units 2 pi/alat)
               b(1) = (  1.000000  0.577350  0.000000 )  
               b(2) = (  0.000000  1.154701  0.000000 )  
               b(3) = (  0.000000  0.000000  0.619937 )  


     PseudoPot. # 1 for O  read from file:
     /usr/scratch4/magr4985/MG/HTDF/pseudo/SG15/O.upf
     MD5 check sum: e36c48deb68f4e355fffe4602be2c42c
     Pseudo is Norm-conserving, Zval =  6.0
     Generated using ONCVPSP code by D. R. Hamann
     Using radial grid of  602 points,  4 beta functions with: 
                l(1) =   0
                l(2) =   0
                l(3) =   1
                l(4) =   1

     PseudoPot. # 2 for Zn read from file:
     /usr/scratch4/magr4985/MG/HTDF/pseudo/SG15/Zn.upf
     MD5 check sum: 732f41c0cd6489a4b50a33b4ec99a2d3
     Pseudo is Norm-conserving, Zval = 20.0
     Generated using ONCVPSP code by D. R. Hamann
     Using radial grid of  602 points,  6 beta functions with: 
                l(1) =   0
                l(2) =   0
                l(3) =   1
                l(4) =   1
                l(5) =   2
                l(6) =   2

     atomic species   valence    mass     pseudopotential
        O              6.00    15.99940     O ( 1.00)
        Zn            20.00    65.40900     Zn( 1.00)

      6 Sym. Ops. (no inversion) found



   Cartesian axes

     site n.     atom                  positions (alat units)
         1           Zn  tau(   1) = (   0.0000000   0.5773502   0.8074876  )
         2           Zn  tau(   2) = (   0.5000000   0.2886752   0.0009545  )
         3           O   tau(   3) = (   0.0000000   0.5773502   1.4190439  )
         4           O   tau(   4) = (   0.5000000   0.2886752   0.6125108  )

     number of k points=    72  Gaussian smearing, width (Ry)=  0.0005
                       cart. coord. in units 2pi/alat
        k(    1) = (   0.0000000   0.0000000   0.0000000), wk =   0.0033333
        k(    2) = (   0.0000000   0.0000000   0.1033229), wk =   0.0066667
        k(    3) = (   0.0000000   0.0000000   0.2066458), wk =   0.0066667
        k(    4) = (   0.0000000   0.0000000  -0.3099687), wk =   0.0033333
        k(    5) = (   0.0000000   0.1154701   0.0000000), wk =   0.0200000
        k(    6) = (   0.0000000   0.1154701   0.1033229), wk =   0.0200000
        k(    7) = (   0.0000000   0.1154701   0.2066458), wk =   0.0200000
        k(    8) = (   0.0000000   0.1154701  -0.3099687), wk =   0.0200000
        k(    9) = (   0.0000000   0.2309401   0.0000000), wk =   0.0200000
        k(   10) = (   0.0000000   0.2309401   0.1033229), wk =   0.0200000
        k(   11) = (   0.0000000   0.2309401   0.2066458), wk =   0.0200000
        k(   12) = (   0.0000000   0.2309401  -0.3099687), wk =   0.0200000
        k(   13) = (   0.0000000   0.3464102   0.0000000), wk =   0.0200000
        k(   14) = (   0.0000000   0.3464102   0.1033229), wk =   0.0200000
        k(   15) = (   0.0000000   0.3464102   0.2066458), wk =   0.0200000
        k(   16) = (   0.0000000   0.3464102  -0.3099687), wk =   0.0200000
        k(   17) = (   0.0000000   0.4618802   0.0000000), wk =   0.0200000
        k(   18) = (   0.0000000   0.4618802   0.1033229), wk =   0.0200000
        k(   19) = (   0.0000000   0.4618802   0.2066458), wk =   0.0200000
        k(   20) = (   0.0000000   0.4618802  -0.3099687), wk =   0.0200000
        k(   21) = (   0.0000000  -0.5773503   0.0000000), wk =   0.0100000
        k(   22) = (   0.0000000  -0.5773503   0.1033229), wk =   0.0200000
        k(   23) = (   0.0000000  -0.5773503   0.2066458), wk =   0.0200000
        k(   24) = (   0.0000000  -0.5773503  -0.3099687), wk =   0.0100000
        k(   25) = (   0.1000000   0.1732051   0.0000000), wk =   0.0200000
        k(   26) = (   0.1000000   0.1732051   0.1033229), wk =   0.0400000
        k(   27) = (   0.1000000   0.1732051   0.2066458), wk =   0.0400000
        k(   28) = (   0.1000000   0.1732051  -0.3099687), wk =   0.0200000
        k(   29) = (   0.1000000   0.2886751   0.0000000), wk =   0.0400000
        k(   30) = (   0.1000000   0.2886751   0.1033229), wk =   0.0400000
        k(   31) = (   0.1000000   0.2886751   0.2066458), wk =   0.0400000
        k(   32) = (   0.1000000   0.2886751  -0.3099687), wk =   0.0400000
        k(   33) = (   0.1000000   0.4041452   0.0000000), wk =   0.0400000
        k(   34) = (   0.1000000   0.4041452   0.1033229), wk =   0.0400000
        k(   35) = (   0.1000000   0.4041452   0.2066458), wk =   0.0400000
        k(   36) = (   0.1000000   0.4041452  -0.3099687), wk =   0.0400000
        k(   37) = (   0.1000000   0.5196152   0.0000000), wk =   0.0400000
        k(   38) = (   0.1000000   0.5196152   0.1033229), wk =   0.0400000
        k(   39) = (   0.1000000   0.5196152   0.2066458), wk =   0.0400000
        k(   40) = (   0.1000000   0.5196152  -0.3099687), wk =   0.0400000
        k(   41) = (   0.2000000   0.3464102   0.0000000), wk =   0.0200000
        k(   42) = (   0.2000000   0.3464102   0.1033229), wk =   0.0400000
        k(   43) = (   0.2000000   0.3464102   0.2066458), wk =   0.0400000
        k(   44) = (   0.2000000   0.3464102  -0.3099687), wk =   0.0200000
        k(   45) = (   0.2000000   0.4618802   0.0000000), wk =   0.0400000
        k(   46) = (   0.2000000   0.4618802   0.1033229), wk =   0.0400000
        k(   47) = (   0.2000000   0.4618802   0.2066458), wk =   0.0400000
        k(   48) = (   0.2000000   0.4618802  -0.3099687), wk =   0.0400000
        k(   49) = (   0.2000000   0.5773503   0.0000000), wk =   0.0200000
        k(   50) = (   0.2000000   0.5773503   0.1033229), wk =   0.0400000
        k(   51) = (   0.2000000   0.5773503   0.2066458), wk =   0.0400000
        k(   52) = (   0.2000000   0.5773503  -0.3099687), wk =   0.0200000
        k(   53) = (   0.3000000   0.5196152   0.0000000), wk =   0.0200000
        k(   54) = (   0.3000000   0.5196152   0.1033229), wk =   0.0400000
        k(   55) = (   0.3000000   0.5196152   0.2066458), wk =   0.0400000
        k(   56) = (   0.3000000   0.5196152  -0.3099687), wk =   0.0200000
        k(   57) = (   0.0000000  -0.1154701   0.1033229), wk =   0.0200000
        k(   58) = (   0.0000000  -0.1154701   0.2066458), wk =   0.0200000
        k(   59) = (   0.0000000  -0.2309401   0.1033229), wk =   0.0200000
        k(   60) = (   0.0000000  -0.2309401   0.2066458), wk =   0.0200000
        k(   61) = (   0.0000000  -0.3464102   0.1033229), wk =   0.0200000
        k(   62) = (   0.0000000  -0.3464102   0.2066458), wk =   0.0200000
        k(   63) = (   0.0000000  -0.4618802   0.1033229), wk =   0.0200000
        k(   64) = (   0.0000000  -0.4618802   0.2066458), wk =   0.0200000
        k(   65) = (  -0.1000000  -0.2886751   0.1033229), wk =   0.0400000
        k(   66) = (  -0.1000000  -0.2886751   0.2066458), wk =   0.0400000
        k(   67) = (  -0.1000000  -0.4041452   0.1033229), wk =   0.0400000
        k(   68) = (  -0.1000000  -0.4041452   0.2066458), wk =   0.0400000
        k(   69) = (  -0.1000000  -0.5196152   0.1033229), wk =   0.0400000
        k(   70) = (  -0.1000000  -0.5196152   0.2066458), wk =   0.0400000
        k(   71) = (  -0.2000000  -0.4618802   0.1033229), wk =   0.0400000
        k(   72) = (  -0.2000000  -0.4618802   0.2066458), wk =   0.0400000

     Dense  grid:    26513 G-vectors     FFT dimensions: (  36,  36,  54)

     Estimated max dynamical RAM per process >       4.67 MB

     Estimated total dynamical RAM >     112.18 MB

     Initial potential from superposition of free atoms

     starting charge      51.9527, renormalised to      52.0000
     Starting wfcs are random

     total cpu time spent up to now is        2.2 secs

     Self-consistent Calculation

     iteration #  1     ecut=    72.00 Ry     beta= 0.70
     Davidson diagonalization with overlap
     ethr =  1.00E-02,  avg # of iterations =  9.5

     total cpu time spent up to now is        9.2 secs

     total energy              =    -864.24618661 Ry
     estimated scf accuracy    <       0.85684031 Ry

     iteration #  2     ecut=    72.00 Ry     beta= 0.70
     Davidson diagonalization with overlap
     ethr =  1.65E-03,  avg # of iterations =  2.0

     total cpu time spent up to now is       11.4 secs

     total energy              =    -864.43714446 Ry
     estimated scf accuracy    <       1.31855556 Ry

     iteration #  3     ecut=    72.00 Ry     beta= 0.70
     Davidson diagonalization with overlap
     ethr =  1.65E-03,  avg # of iterations =  1.8

     total cpu time spent up to now is       13.4 secs

     total energy              =    -864.68588090 Ry
     estimated scf accuracy    <       0.00604143 Ry

     iteration #  4     ecut=    72.00 Ry     beta= 0.70
     Davidson diagonalization with overlap
     ethr =  1.16E-05,  avg # of iterations =  3.8

     total cpu time spent up to now is       16.5 secs

     total energy              =    -864.68759473 Ry
     estimated scf accuracy    <       0.00430649 Ry

     iteration #  5     ecut=    72.00 Ry     beta= 0.70
     Davidson diagonalization with overlap
     ethr =  8.28E-06,  avg # of iterations =  1.2

     total cpu time spent up to now is       18.4 secs

     total energy              =    -864.68785124 Ry
     estimated scf accuracy    <       0.00042496 Ry

     iteration #  6     ecut=    72.00 Ry     beta= 0.70
     Davidson diagonalization with overlap
     ethr =  8.17E-07,  avg # of iterations =  2.5

     total cpu time spent up to now is       20.6 secs

     total energy              =    -864.68787652 Ry
     estimated scf accuracy    <       0.00003895 Ry

     iteration #  7     ecut=    72.00 Ry     beta= 0.70
     Davidson diagonalization with overlap
     ethr =  7.49E-08,  avg # of iterations =  2.0

     total cpu time spent up to now is       22.9 secs

     total energy              =    -864.68788507 Ry
     estimated scf accuracy    <       0.00001022 Ry

     iteration #  8     ecut=    72.00 Ry     beta= 0.70
     Davidson diagonalization with overlap
     ethr =  1.96E-08,  avg # of iterations =  1.0

     total cpu time spent up to now is       24.7 secs

     total energy              =    -864.68788553 Ry
     estimated scf accuracy    <       0.00000091 Ry

     iteration #  9     ecut=    72.00 Ry     beta= 0.70
     Davidson diagonalization with overlap
     ethr =  1.75E-09,  avg # of iterations =  2.0

     total cpu time spent up to now is       26.8 secs

     total energy              =    -864.68788570 Ry
     estimated scf accuracy    <          7.1E-09 Ry

     iteration # 10     ecut=    72.00 Ry     beta= 0.70
     Davidson diagonalization with overlap
     ethr =  1.36E-11,  avg # of iterations =  2.0

     total cpu time spent up to now is       28.8 secs

     total energy              =    -864.68788570 Ry
     estimated scf accuracy    <          5.0E-10 Ry

     iteration # 11     ecut=    72.00 Ry     beta= 0.70
     Davidson diagonalization with overlap
     ethr =  9.57E-13,  avg # of iterations =  1.0

     total cpu time spent up to now is       30.6 secs

     total energy              =    -864.68788570 Ry
     estimated scf accuracy    <          3.0E-10 Ry

     iteration # 12     ecut=    72.00 Ry     beta= 0.70
     Davidson diagonalization with overlap
     ethr =  5.85E-13,  avg # of iterations =  2.0

     total cpu time spent up to now is       32.9 secs

     End of self-consistent calculation

          k = 0.0000 0.0000 0.0000 (  3321 PWs)   bands (ev):

  -113.3535-113.3533 -67.5648 -67.5618 -67.5618 -67.5617 -67.5612 -67.5612
    -7.9258  -7.1980   4.3686   4.3686   4.4145   4.4950   4.5605   4.5605
     5.5226   5.5226   5.7321   5.7321   6.0234   9.3224   9.3224  10.0264
    10.1136  10.1136  10.9804  15.4373  18.3688  23.1304  23.1304  24.2015
    24.3955  24.3955  26.7575  28.4000  28.4000  30.0821  30.0821  30.1502
    31.4476  33.4071  35.0836  35.0836  37.6906  38.6636  38.6636  39.0077
    41.3677  41.3678  44.7427  44.7427

          k = 0.0000 0.0000 0.1033 (  3309 PWs)   bands (ev):

  -113.3535-113.3533 -67.5646 -67.5619 -67.5617 -67.5617 -67.5612 -67.5612
    -7.8794  -7.2493   4.3664   4.3699   4.3756   4.3756   4.5410   4.5410
     5.5417   5.5417   5.7239   5.7239   6.3425   9.3766   9.3766   9.4792
    10.0621  10.0621  11.6131  15.1921  18.5893  23.1344  23.1344  23.2780
    24.1989  24.1989  27.1152  28.6955  28.6955  29.9486  30.4124  30.4124
    32.5111  33.3780  34.7328  34.7328  38.1432  38.1432  38.3641  38.4006
    41.5408  41.5408  43.5259  43.5259

          k = 0.0000 0.0000 0.2066 (  3290 PWs)   bands (ev):

  -113.3534-113.3534 -67.5640 -67.5624 -67.5616 -67.5616 -67.5613 -67.5613
    -7.7512  -7.3875   4.2111   4.2590   4.3986   4.3986   4.4933   4.4933
     5.5905   5.5905   5.6965   5.6965   7.0424   8.6783   9.5240   9.5240
     9.9197   9.9197  12.6166  14.5418  19.2266  21.6839  23.2007  23.2007
    23.7860  23.7860  27.7156  29.3021  29.4749  29.4749  30.8716  30.8716
    33.8124  34.3544  34.3544  34.6727  36.7453  36.7453  37.3860  39.5252
    41.8488  41.8488  42.5590  42.5590

          k = 0.0000 0.0000-0.3100 (  3314 PWs)   bands (ev):

  -113.3534-113.3534 -67.5632 -67.5632 -67.5615 -67.5615 -67.5615 -67.5615
    -7.5720  -7.5720   4.1793   4.1793   4.4398   4.4398   4.4398   4.4398
     5.6487   5.6487   5.6487   5.6487   7.8561   7.8561   9.7228   9.7228
     9.7228   9.7228  13.6374  13.6374  20.2663  20.2663  23.4143  23.4143
    23.4143  23.4143  28.4642  28.4642  30.4274  30.4274  30.4274  30.4274
    34.7786  34.7786  35.1586  35.1586  35.1586  35.1586  38.7085  38.7085
    42.1330  42.1330  42.1330  42.1330

          k = 0.0000 0.1155 0.0000 (  3313 PWs)   bands (ev):

  -113.3535-113.3533 -67.5647 -67.5620 -67.5618 -67.5617 -67.5614 -67.5613
    -7.8702  -7.1730   4.3090   4.4005   4.4486   4.5383   4.5926   4.6056
     5.4999   5.5195   5.7369   5.7786   6.0107   8.9588   9.1889   9.5136
     9.9607  10.0421  11.7078  15.8507  18.3655  22.1086  23.2242  23.6473
    24.3725  24.5198  26.2334  27.7705  28.5879  30.2340  31.3142  31.3912
    32.1528  34.0568  34.8813  35.1741  38.0869  38.6950  38.7003  38.9365
    40.6533  40.9211  44.3810  45.7033

          k = 0.0000 0.1155 0.1033 (  3307 PWs)   bands (ev):

  -113.3535-113.3533 -67.5645 -67.5619 -67.5619 -67.5618 -67.5614 -67.5613
    -7.8255  -7.2218   4.2819   4.3874   4.4084   4.4445   4.5717   4.5852
     5.5231   5.5386   5.7274   5.7475   6.3607   9.0070   9.2255   9.2476
     9.8981   9.9867  12.1009  15.5726  18.5954  22.1512  23.2288  23.2597
    23.5816  24.2995  26.9234  28.1899  28.8104  30.1781  31.2880  31.4889
    32.9506  34.0604  34.8167  34.9452  37.3230  38.1617  38.8834  39.0828
    41.0331  41.1168  43.6571  44.2364

          k = 0.0000 0.1155 0.2066 (  3302 PWs)   bands (ev):

  -113.3534-113.3534 -67.5640 -67.5625 -67.5618 -67.5617 -67.5615 -67.5614
    -7.7021  -7.3535   4.1955   4.2125   4.4339   4.4399   4.5239   4.5351
     5.5807   5.5874   5.6971   5.7069   7.0695   8.5791   9.2080   9.4069
     9.7063   9.8336  12.9582  14.8699  19.2323  21.5805  22.4794  23.1670
    23.2937  23.8693  27.7953  29.1143  29.2092  30.0662  31.3209  31.4410
    33.6200  34.3233  34.5918  35.4644  36.8682  36.9377  38.2641  40.0264
    41.4554  41.6273  42.4885  42.9402

          k = 0.0000 0.1155-0.3100 (  3294 PWs)   bands (ev):

  -113.3534-113.3534 -67.5633 -67.5633 -67.5617 -67.5617 -67.5615 -67.5615
    -7.5299  -7.5298   4.1473   4.1473   4.4727   4.4727   4.4784   4.4784
     5.6468   5.6468   5.6489   5.6489   7.8509   7.8509   9.4496   9.4497
     9.6218   9.6218  13.9433  13.9433  20.2428  20.2428  22.7646  22.7646
    23.5012  23.5012  28.5583  28.5584  30.4643  30.4643  30.8417  30.8417
    33.8163  33.8163  35.5145  35.5145  36.6006  36.6006  39.3645  39.3645
    41.7096  41.7096  42.1897  42.1897

          k = 0.0000 0.2309 0.0000 (  3294 PWs)   bands (ev):

  -113.3534-113.3533 -67.5645 -67.5625 -67.5620 -67.5620 -67.5619 -67.5614
    -7.7181  -7.1107   4.1844   4.4749   4.4790   4.5841   4.7329   4.8195
     5.4425   5.5269   5.7471   5.9077   5.9889   8.0901   8.7604   8.8408
     9.7580   9.8475  12.8372  16.7802  18.3437  20.5341  22.3704  23.4680
    23.9550  24.5393  25.5017  27.6664  28.5772  31.3619  32.7951  33.4915
    33.5754  34.0722  35.4778  37.0854  37.5814  38.4160  38.7025  39.5521
    40.1275  41.4026  42.5198  45.9479

          k = 0.0000 0.2309 0.1033 (  3296 PWs)   bands (ev):

  -113.3534-113.3533 -67.5643 -67.5624 -67.5623 -67.5620 -67.5618 -67.5614
    -7.6784  -7.1522   4.1551   4.3831   4.4903   4.5548   4.7092   4.7170
     5.4799   5.5441   5.7350   5.8036   6.4255   8.1557   8.6336   8.9111
     9.6885   9.7822  13.0682  16.3987  18.6045  20.5993  22.2345  23.3694
    23.4693  24.3517  25.7506  28.1181  28.8607  31.5013  32.3247  33.3734
    33.9782  34.3242  35.1716  36.7007  37.7029  38.1076  38.5994  40.2804
    40.3530  41.4697  42.7489  45.2759

          k = 0.0000 0.2309 0.2066 (  3291 PWs)   bands (ev):

  -113.3534-113.3533 -67.5639 -67.5628 -67.5622 -67.5619 -67.5618 -67.5615
    -7.5691  -7.2651   4.0917   4.1806   4.5251   4.5395   4.6248   4.6502
     5.5617   5.5894   5.6997   5.7361   7.1109   8.1404   8.5701   9.1008
     9.4058   9.6030  13.7104  15.5694  19.1903  20.5972  21.8331  22.5018
    23.5183  23.9915  26.5096  28.6117  29.2452  31.7881  32.3307  32.6355
    33.7133  34.1242  35.4264  37.2991  37.4153  38.1938  38.8273  40.2605
    41.3661  41.6942  42.7475  43.6919

          k = 0.0000 0.2309-0.3100 (  3298 PWs)   bands (ev):

  -113.3534-113.3534 -67.5634 -67.5634 -67.5620 -67.5620 -67.5617 -67.5617
    -7.4181  -7.4181   4.0752   4.0752   4.5660   4.5660   4.5817   4.5817
     5.6469   5.6469   5.6546   5.6546   7.7233   7.7233   8.9516   8.9516
     9.3541   9.3541  14.6078  14.6079  19.9711  19.9711  21.9335  21.9335
    23.6870  23.6870  27.6046  27.6046  30.7422  30.7423  32.4240  32.4240
    33.7216  33.7216  36.3333  36.3333  38.1313  38.1313  40.0135  40.0135
    41.9021  41.9021  42.3885  42.3885

          k = 0.0000 0.3464 0.0000 (  3300 PWs)   bands (ev):

  -113.3534-113.3533 -67.5641 -67.5631 -67.5627 -67.5622 -67.5621 -67.5615
    -7.5131  -7.0436   4.0932   4.4438   4.5601   4.7285   4.9145   5.0776
     5.4121   5.5727   5.7589   5.9283   6.1559   7.1746   8.0508   8.3994
     9.4228   9.5902  14.0485  17.5872  18.2468  19.2786  21.4167  22.8634
    23.6534  24.3204  25.8915  28.4476  28.6572  30.4014  33.6303  34.8924
    35.5394  35.9398  36.0404  37.7428  38.4547  38.6847  38.8077  39.7762
    40.3999  41.5129  43.8218  44.1185

          k = 0.0000 0.3464 0.1033 (  3289 PWs)   bands (ev):

  -113.3534-113.3533 -67.5641 -67.5630 -67.5629 -67.5622 -67.5620 -67.5616
    -7.4812  -7.0742   4.0635   4.3505   4.5782   4.7039   4.8836   4.9248
     5.4621   5.5848   5.7451   5.8598   6.5073   7.2919   7.9814   8.4858
     9.4155   9.5148  14.1585  17.0616  18.5738  19.3482  21.3774  22.8785
    23.6581  24.2355  25.3739  28.7012  29.0173  30.9093  32.6852  35.0052
    35.0822  36.2190  36.4473  37.4971  37.8347  38.7399  39.2794  39.9522
    41.3718  41.7149  43.8169  44.6656

          k = 0.0000 0.3464 0.2066 (  3298 PWs)   bands (ev):

  -113.3534-113.3533 -67.5640 -67.5633 -67.5627 -67.5621 -67.5620 -67.5617
    -7.3942  -7.1590   4.0085   4.1452   4.6308   4.6799   4.7783   4.8055
     5.5645   5.6177   5.7092   5.7784   6.9461   7.4377   8.1185   8.7143
     9.2285   9.3058  14.5564  16.1768  18.9860  19.4602  21.3076  22.4648
    23.7047  24.0382  25.4750  28.0866  30.0121  31.9177  32.2278  33.2366
    35.2667  36.1332  36.5921  37.4501  38.5449  38.7254  39.6375  41.2614
    41.5335  41.7867  44.4164  44.6360

          k = 0.0000 0.3464-0.3100 (  3302 PWs)   bands (ev):

  -113.3533-113.3533 -67.5637 -67.5637 -67.5623 -67.5623 -67.5619 -67.5619
    -7.2761  -7.2761   4.0140   4.0140   4.7038   4.7038   4.7119   4.7119
     5.6628   5.6628   5.6775   5.6775   7.2469   7.2469   8.7266   8.7266
     9.0147   9.0147  15.2748  15.2748  19.3320  19.3320  21.6812  21.6812
    23.8360  23.8360  26.6856  26.6856  31.4763  31.4763  32.3193  32.3193
    35.6503  35.6503  37.0407  37.0407  38.7316  38.7316  40.6952  40.6952
    42.7411  42.7411  43.2588  43.2588

          k = 0.0000 0.4619 0.0000 (  3312 PWs)   bands (ev):

  -113.3534-113.3533 -67.5639 -67.5636 -67.5633 -67.5624 -67.5624 -67.5616
    -7.3211  -7.0090   4.1050   4.4059   4.6087   4.9082   5.0863   5.0874
     5.5256   5.6504   5.7717   5.9904   6.1925   6.6930   7.4731   8.0167
     9.0299   9.3688  15.2247  17.6880  17.7855  18.7751  20.9365  22.5302
    23.5105  24.3859  26.0759  28.6312  29.5524  30.0490  33.3898  34.7027
    36.0155  36.4809  37.4378  37.9491  38.9027  39.1749  39.8387  41.3329
    41.8611  42.2473  43.2354  45.8302

          k = 0.0000 0.4619 0.1033 (  3294 PWs)   bands (ev):

  -113.3533-113.3533 -67.5641 -67.5635 -67.5632 -67.5623 -67.5623 -67.5617
    -7.2985  -7.0278   4.0675   4.3091   4.6336   4.8771   5.0125   5.0464
     5.5557   5.6559   5.7580   5.9255   6.2897   6.8241   7.5834   8.1194
     9.0904   9.2847  15.2002  17.1341  18.2370  18.8109  20.8909  22.6942
    23.5558  24.3157  25.3081  28.7820  30.3461  30.4615  32.0694  35.2084
    35.9305  36.7234  36.9500  37.7267  38.5845  39.7333  40.4251  41.2699
    42.0261  43.2758  43.4514  45.2304

          k = 0.0000 0.4619 0.2066 (  3296 PWs)   bands (ev):

  -113.3533-113.3533 -67.5642 -67.5638 -67.5628 -67.5623 -67.5622 -67.5618
    -7.2379  -7.0814   3.9976   4.1135   4.7057   4.8421   4.9139   4.9419
     5.6393   5.6720   5.7280   5.8329   6.4554   6.8026   8.1061   8.3855
     9.0525   9.0727  15.2984  16.4306  18.5984  18.8648  20.9775  22.4693
    23.6906  24.1305  25.0949  27.9748  31.2055  31.5558  31.8333  34.2304
    35.2198  36.7496  36.8936  37.4006  39.4170  40.2302  41.3903  41.5174
    42.4957  43.6774  44.0834  45.3535

          k = 0.0000 0.4619-0.3100 (  3304 PWs)   bands (ev):

  -113.3533-113.3533 -67.5641 -67.5641 -67.5624 -67.5624 -67.5620 -67.5620
    -7.1579  -7.1579   3.9920   3.9920   4.8158   4.8158   4.8546   4.8546
     5.6971   5.6971   5.7376   5.7376   6.6377   6.6377   8.7229   8.7229
     8.7269   8.7269  15.7377  15.7377  18.8041  18.8041  21.5678  21.5678
    23.8981  23.8981  26.3536  26.3536  32.0263  32.0263  32.5437  32.5437
    35.8919  35.8919  37.0868  37.0868  40.0604  40.0604  42.1259  42.1259
    42.8393  42.8393  45.0042  45.0042

          k = 0.0000-0.5774 0.0000 (  3314 PWs)   bands (ev):

  -113.3534-113.3533 -67.5639 -67.5635 -67.5635 -67.5625 -67.5625 -67.5617
    -7.2325  -7.0093   4.1561   4.3751   4.6228   5.0232   5.0243   5.1605
     5.5645   5.6942   5.7783   5.8604   6.3494   6.5627   7.2822   7.8591
     8.8225   9.2800  15.9801  17.0477  17.7518  18.7223  20.7700  22.6200
    23.4059  24.4650  26.0642  28.7397  29.2938  30.8033  33.2068  35.1440
    35.1671  36.2883  37.6069  37.9324  38.6369  39.4508  41.3415  42.9498
    42.9999  43.6765  43.6850  44.8422

          k = 0.0000-0.5774 0.1033 (  3310 PWs)   bands (ev):

  -113.3533-113.3533 -67.5641 -67.5637 -67.5632 -67.5624 -67.5624 -67.5617
    -7.2154  -7.0220   4.1108   4.2740   4.6505   4.9841   4.9998   5.1141
     5.6303   5.6968   5.7646   5.8601   6.3043   6.5101   7.5762   7.9698
     8.9125   9.1929  15.7987  16.8838  17.9736  18.7651  20.7014  22.7735
    23.4705  24.3879  25.2691  28.8384  30.3853  31.0835  31.7981  34.9844
    36.1829  36.4750  36.8007  37.7119  38.9240  39.5997  41.3810  43.1563
    43.3854  43.5279  44.4836  45.1750

          k = 0.0000-0.5774 0.2066 (  3310 PWs)   bands (ev):

  -113.3533-113.3533 -67.5643 -67.5640 -67.5628 -67.5623 -67.5623 -67.5619
    -7.1701  -7.0583   4.0217   4.0895   4.7309   4.9405   4.9570   4.9958
     5.7044   5.7371   5.7389   5.8504   6.2772   6.4059   8.1849   8.2529
     8.9516   8.9828  15.6506  16.4296  18.3389  18.7747  20.8246  22.4696
    23.6517  24.1805  25.0628  28.0350  31.2629  31.8319  31.8995  34.8085
    34.8724  36.5551  36.5724  37.2472  39.9921  40.4783  41.9353  43.0816
    43.2092  43.4377  44.8389  46.2305

          k = 0.0000-0.5774-0.3100 (  3312 PWs)   bands (ev):

  -113.3533-113.3533 -67.5643 -67.5643 -67.5624 -67.5624 -67.5621 -67.5621
    -7.1120  -7.1120   3.9914   3.9914   4.8540   4.8540   4.9321   4.9321
     5.7180   5.7180   5.8138   5.8138   6.3167   6.3167   8.6120   8.6120
     8.7393   8.7393  15.9006  15.9006  18.6198  18.6198  21.4929  21.4929
    23.9099  23.9099  26.3459  26.3460  31.8960  31.8960  33.1838  33.1838
    35.6497  35.6497  36.8150  36.8150  40.5814  40.5814  42.6874  42.6874
    43.7114  43.7114  45.3217  45.3217

          k = 0.1000 0.1732 0.0000 (  3293 PWs)   bands (ev):

  -113.3535-113.3533 -67.5646 -67.5623 -67.5620 -67.5618 -67.5617 -67.5614
    -7.7663  -7.1294   4.2421   4.4122   4.4986   4.5483   4.6982   4.7496
     5.4655   5.5164   5.7431   5.8719   5.9908   8.4434   8.7028   9.1156
     9.8297   9.8756  12.5343  16.5267  18.3612  21.0191  22.5315  23.4765
    23.8509  25.0145  26.0593  26.2725  30.3004  30.6005  31.9928  32.3738
    33.7130  33.7832  35.4604  36.7118  37.3038  38.4802  38.7240  39.8199
    40.2508  40.8250  42.9808  46.1434

          k = 0.1000 0.1732 0.1033 (  3308 PWs)   bands (ev):

  -113.3535-113.3533 -67.5644 -67.5622 -67.5622 -67.5619 -67.5617 -67.5614
    -7.7250  -7.1734   4.2110   4.3605   4.4890   4.4964   4.6666   4.6761
     5.4952   5.5373   5.7317   5.7891   6.4035   8.5193   8.6434   9.0681
     9.7575   9.8119  12.8011  16.1795  18.6100  21.0719  22.5441  23.1200
    23.3693  24.5626  26.6763  26.7981  30.2666  30.6289  32.3984  32.5319
    33.3820  33.8333  35.3311  36.7984  37.1305  38.0602  38.8142  39.6309
    40.8392  41.1184  43.0031  45.0560

          k = 0.1000 0.1732 0.2066 (  3300 PWs)   bands (ev):

  -113.3534-113.3533 -67.5640 -67.5627 -67.5621 -67.5619 -67.5617 -67.5615
    -7.6110  -7.2924   4.1379   4.1831   4.4877   4.4950   4.5941   4.6228
     5.5680   5.5859   5.6977   5.7283   7.1069   8.3227   8.7440   9.1637
     9.4965   9.6378  13.5019  15.3856  19.2216  20.9820  22.0822  22.4079
    23.3282  24.0109  27.6582  27.7157  29.7059  31.0549  31.9246  32.8836
    33.7087  33.7337  35.1829  36.6224  37.3371  37.8213  38.7792  40.3305
    41.3095  41.7162  42.4259  43.3816

          k = 0.1000 0.1732-0.3100 (  3296 PWs)   bands (ev):

  -113.3534-113.3534 -67.5633 -67.5633 -67.5619 -67.5619 -67.5617 -67.5617
    -7.4529  -7.4529   4.1009   4.1009   4.5072   4.5072   4.5726   4.5726
     5.6445   5.6445   5.6540   5.6540   7.7901   7.7901   9.0932   9.0932
     9.4041   9.4041  14.4292  14.4292  20.1080  20.1080  22.0869  22.0869
    23.5714  23.5714  28.2666  28.2666  29.9080  29.9080  32.5827  32.5827
    33.7033  33.7033  35.7170  35.7170  37.8342  37.8342  40.1794  40.1794
    41.3363  41.3363  42.5262  42.5262

          k = 0.1000 0.2887 0.0000 (  3298 PWs)   bands (ev):

  -113.3534-113.3533 -67.5643 -67.5628 -67.5625 -67.5621 -67.5620 -67.5615
    -7.5872  -7.0649   4.1627   4.4242   4.5413   4.6449   4.8590   4.9943
     5.4176   5.5394   5.7532   5.9382   6.0871   7.6228   8.1217   8.5685
     9.5679   9.5969  13.6687  17.4131  18.3880  19.7970  21.6174  22.7868
    23.3233  24.9728  25.8137  26.9509  30.1034  31.4756  32.4944  33.8549
    35.0755  35.2295  36.2891  36.6860  38.2699  38.4515  38.6101  40.5617
    40.8219  41.2967  42.2846  45.1205

          k = 0.1000 0.2887 0.1033 (  3306 PWs)   bands (ev):

  -113.3534-113.3533 -67.5642 -67.5628 -67.5627 -67.5622 -67.5619 -67.5616
    -7.5524  -7.0997   4.1303   4.3539   4.5392   4.6212   4.8288   4.8481
     5.4616   5.5637   5.7402   5.8473   6.4946   7.7161   8.0943   8.5831
     9.5109   9.5477  13.8256  16.9484  18.6534  19.8639  21.6969  22.5570
    23.1229  24.8572  25.7888  27.3770  29.9699  31.9128  32.6305  33.3029
    34.4303  35.3676  36.4449  37.4572  37.8024  38.4464  38.9931  39.9553
    41.2828  41.8169  42.5968  45.5669

          k = 0.1000 0.2887 0.2066 (  3296 PWs)   bands (ev):

  -113.3534-113.3533 -67.5639 -67.5631 -67.5625 -67.5621 -67.5619 -67.5617
    -7.4567  -7.1950   4.0650   4.1675   4.5600   4.6007   4.7195   4.7675
     5.5586   5.6057   5.7052   5.7675   7.0713   7.7636   8.2295   8.7395
     9.2837   9.3412  14.3231  16.0632  19.1245  19.9374  21.5451  22.0467
    23.1895  24.2697  26.4553  28.0039  29.5610  31.4629  32.8172  33.0805
    34.9276  35.6389  36.0456  36.8390  38.3595  38.7482  39.2236  40.3819
    41.7454  42.1450  43.1443  44.5877

          k = 0.1000 0.2887-0.3100 (  3290 PWs)   bands (ev):

  -113.3534-113.3533 -67.5636 -67.5636 -67.5622 -67.5622 -67.5618 -67.5618
    -7.3258  -7.3258   4.0537   4.0537   4.5905   4.5905   4.7047   4.7047
     5.6515   5.6515   5.6741   5.6741   7.4901   7.4901   8.7744   8.7744
     9.0457   9.0457  15.1214  15.1214  19.6538  19.6538  21.5747  21.5747
    23.6691  23.6691  27.5047  27.5047  30.0946  30.0947  33.2477  33.2477
    35.3832  35.3832  36.2578  36.2578  38.5398  38.5398  40.5622  40.5622
    41.7150  41.7150  43.7114  43.7114

          k = 0.1000 0.4041 0.0000 (  3290 PWs)   bands (ev):

  -113.3534-113.3533 -67.5639 -67.5634 -67.5630 -67.5624 -67.5623 -67.5617
    -7.3861  -7.0155   4.1438   4.4406   4.5808   4.8053   5.0358   5.1333
     5.4491   5.5925   5.7690   5.9780   6.2376   6.9109   7.6637   7.9617
     9.1832   9.3207  14.8852  17.8000  18.3309  18.9044  21.1362  22.1859
    22.9606  24.5531  26.1532  28.1274  30.0738  30.6922  33.3385  34.9823
    35.2788  36.3156  36.9249  37.6266  38.1175  38.9100  39.4065  40.1010
    42.2028  42.6042  44.0453  45.6497

          k = 0.1000 0.4041 0.1033 (  3295 PWs)   bands (ev):

  -113.3534-113.3533 -67.5640 -67.5633 -67.5631 -67.5624 -67.5622 -67.5618
    -7.3601  -7.0388   4.1085   4.3563   4.5953   4.7804   4.9903   5.0007
     5.4803   5.6265   5.7571   5.9174   6.4432   7.0656   7.6769   8.0539
     9.1859   9.2655  14.9357  17.3337  18.5979  18.9570  21.0859  22.3028
    22.8130  24.6203  25.8652  28.2332  29.9285  31.5449  32.4881  34.3511
    35.6296  36.2691  37.1129  37.6648  38.3329  39.2637  39.9106  40.2404
    41.8450  43.0032  44.5408  45.6155

          k = 0.1000 0.4041 0.2066 (  3295 PWs)   bands (ev):

  -113.3533-113.3533 -67.5641 -67.5636 -67.5627 -67.5623 -67.5621 -67.5619
    -7.2896  -7.1038   4.0418   4.1642   4.6470   4.7476   4.8512   4.9074
     5.5803   5.6582   5.7314   5.8256   6.7010   7.1126   8.0602   8.3244
     8.9658   9.1713  15.1875  16.5446  18.8819  19.0789  20.9773  21.9190
    23.2283  24.4477  25.8890  27.9390  30.0905  31.7138  32.6918  33.3190
    35.8839  36.2894  36.8414  37.5274  39.2833  39.7805  40.4861  41.0206
    41.7269  43.6565  44.4612  45.1138

          k = 0.1000 0.4041-0.3100 (  3302 PWs)   bands (ev):

  -113.3533-113.3533 -67.5639 -67.5639 -67.5624 -67.5624 -67.5620 -67.5620
    -7.1954  -7.1954   4.0389   4.0389   4.7157   4.7157   4.8254   4.8254
     5.6692   5.6692   5.7325   5.7325   6.9274   6.9274   8.5601   8.5601
     8.8187   8.8187  15.7558  15.7558  19.0660  19.0660  21.2603  21.2603
    23.9169  23.9169  26.7888  26.7888  30.9606  30.9606  32.9681  32.9681
    36.3238  36.3238  36.8899  36.8899  39.9358  39.9358  41.0374  41.0374
    42.5028  42.5028  44.9142  44.9142

          k = 0.1000 0.5196 0.0000 (  3296 PWs)   bands (ev):

  -113.3533-113.3533 -67.5638 -67.5635 -67.5634 -67.5625 -67.5625 -67.5618
    -7.2361  -7.0073   4.1890   4.4716   4.6054   4.9420   5.0705   5.1771
     5.5456   5.6401   5.7886   5.9203   6.2686   6.6913   7.2737   7.7312
     8.8037   9.1462  15.9877  17.5366  17.7886  18.7518  20.8311  22.5226
    22.7709  24.1703  26.1849  29.0566  30.0247  30.6161  33.1044  35.0943
    35.7616  35.9439  37.5627  37.8624  38.1940  38.9788  39.9339  42.3843
    42.8120  43.7194  44.7234  45.2220

          k = 0.1000 0.5196 0.1033 (  3297 PWs)   bands (ev):

  -113.3533-113.3533 -67.5641 -67.5636 -67.5632 -67.5625 -67.5624 -67.5619
    -7.2186  -7.0203   4.1492   4.3624   4.6246   4.9183   5.0315   5.1156
     5.5844   5.6622   5.7828   5.9222   6.2478   6.6791   7.4887   7.8785
     8.8715   9.0731  15.8895  17.2309  18.0792  18.7995  20.6678  22.4207
    22.9274  24.2675  25.8892  28.9364  30.0555  31.5085  32.0529  34.8905
    35.6960  36.4131  37.2290  37.7595  38.5686  39.5240  40.4051  42.4701
    43.1896  43.6054  44.6567  45.2146

          k = 0.1000 0.5196 0.2066 (  3301 PWs)   bands (ev):

  -113.3533-113.3533 -67.5642 -67.5639 -67.5628 -67.5624 -67.5623 -67.5620
    -7.1725  -7.0578   4.0688   4.1617   4.6902   4.8811   4.9693   4.9934
     5.6484   5.6856   5.7905   5.8934   6.2996   6.5673   7.9328   8.3064
     8.7330   9.0270  15.8456  16.7069  18.4285  18.8292  20.5870  21.7844
    23.6083  24.3479  25.7275  27.9545  30.7027  31.7039  32.4820  33.6018
    35.7513  36.4424  37.0051  37.6243  39.6700  40.4619  41.2399  42.5684
    43.4196  43.8827  44.8055  45.4705

          k = 0.1000 0.5196-0.3100 (  3306 PWs)   bands (ev):

  -113.3533-113.3533 -67.5642 -67.5642 -67.5625 -67.5625 -67.5621 -67.5621
    -7.1129  -7.1129   4.0493   4.0493   4.7974   4.7974   4.9380   4.9380
     5.6820   5.6820   5.8372   5.8372   6.4235   6.4235   8.3557   8.3557
     8.8047   8.8047  16.1466  16.1466  18.6904  18.6904  21.0244  21.0244
    24.1678  24.1678  26.5070  26.5070  31.7629  31.7630  32.5234  32.5234
    36.4360  36.4360  36.9867  36.9867  40.1965  40.1965  42.7345  42.7345
    43.6028  43.6028  45.3648  45.3648

          k = 0.2000 0.3464 0.0000 (  3302 PWs)   bands (ev):

  -113.3534-113.3533 -67.5640 -67.5631 -67.5630 -67.5624 -67.5622 -67.5618
    -7.4107  -7.0190   4.2463   4.3600   4.6382   4.7247   5.0242   5.1414
     5.4010   5.5666   5.7682   5.9811   6.2477   7.3040   7.4207   7.9613
     9.1998   9.2660  14.8173  17.8078  18.7412  19.1580  21.0816  22.0726
    22.2103  25.2200  25.7581  27.5136  31.6894  32.1224  32.1421  33.7854
    34.8580  36.1062  36.7194  37.8236  37.8799  38.4460  39.2270  39.9965
    42.4533  43.8704  43.9911  45.3368

          k = 0.2000 0.3464 0.1033 (  3300 PWs)   bands (ev):

  -113.3534-113.3533 -67.5640 -67.5632 -67.5630 -67.5625 -67.5621 -67.5619
    -7.3833  -7.0439   4.1998   4.3234   4.6305   4.6919   4.9582   4.9869
     5.4517   5.6167   5.7575   5.9215   6.5051   7.4184   7.5100   7.9679
     9.1052   9.2942  14.9021  17.4403  18.8225  19.2144  21.2899  21.7550
    22.1915  25.5650  25.6379  27.4570  30.9154  32.4177  32.8254  33.0677
    34.5483  36.5359  37.0464  37.2447  38.4539  39.1113  39.7206  40.0468
    41.7897  43.9640  44.1057  46.1349

          k = 0.2000 0.3464 0.2066 (  3295 PWs)   bands (ev):

  -113.3534-113.3533 -67.5640 -67.5635 -67.5626 -67.5625 -67.5620 -67.5620
    -7.3093  -7.1129   4.1115   4.1909   4.6294   4.6492   4.8214   4.8984
     5.5644   5.6545   5.7352   5.8299   6.8382   7.3067   8.0803   8.1349
     8.8578   9.2024  15.2228  16.6594  19.0449  19.3262  21.1265  21.1720
    22.8518  24.9144  26.3982  27.7104  30.2637  30.7226  33.2865  33.8433
    35.1810  35.7980  37.3036  37.5389  38.9368  39.9934  40.2060  40.5974
    41.4427  44.0736  44.4881  45.2409

          k = 0.2000 0.3464-0.3100 (  3302 PWs)   bands (ev):

  -113.3533-113.3533 -67.5638 -67.5638 -67.5624 -67.5624 -67.5620 -67.5620
    -7.2099  -7.2099   4.0888   4.0888   4.6420   4.6420   4.8182   4.8182
     5.6618   5.6618   5.7372   5.7372   7.0952   7.0952   8.4256   8.4256
     8.8221   8.8221  15.8429  15.8429  19.2921  19.2921  20.9061  20.9061
    23.8932  23.8932  27.3891  27.3891  29.9774  29.9774  33.7042  33.7042
    35.5591  35.5592  37.6396  37.6396  39.4742  39.4742  40.9812  40.9812
    41.9356  41.9356  45.2476  45.2476

          k = 0.2000 0.4619 0.0000 (  3310 PWs)   bands (ev):

  -113.3533-113.3533 -67.5637 -67.5634 -67.5633 -67.5627 -67.5625 -67.5621
    -7.2421  -7.0043   4.2958   4.4827   4.6930   4.8276   5.1497   5.2331
     5.4578   5.5548   5.7941   6.0322   6.1850   6.8754   7.2448   7.4868
     8.7973   8.9219  16.0506  17.8251  18.4674  18.7975  21.0697  21.7331
    21.9763  24.4325  25.6703  28.8873  31.5601  32.0213  32.9800  33.7926
    35.5598  36.2813  36.7877  37.4326  37.6453  38.3630  39.2996  42.1453
    42.8378  44.6323  45.4206  46.3597

          k = 0.2000 0.4619 0.1033 (  3298 PWs)   bands (ev):

  -113.3533-113.3533 -67.5639 -67.5635 -67.5631 -67.5627 -67.5623 -67.5621
    -7.2241  -7.0179   4.2701   4.4156   4.6619   4.8002   5.0784   5.1083
     5.4837   5.6374   5.7918   6.0226   6.2570   6.9112   7.2963   7.7127
     8.7295   8.9715  16.0615  17.6202  18.5607  18.8577  20.6546  21.3898
    22.4450  24.7685  25.8948  28.4144  30.8944  32.1431  33.1150  33.4005
    35.6724  36.0764  37.0039  37.8364  38.4400  38.9924  39.3191  42.4862
    42.9112  44.4968  45.0803  46.0756

          k = 0.2000 0.4619 0.2066 (  3291 PWs)   bands (ev):

  -113.3533-113.3533 -67.5641 -67.5638 -67.5628 -67.5626 -67.5622 -67.5621
    -7.1763  -7.0570   4.1917   4.2657   4.6380   4.7572   4.9640   4.9923
     5.5803   5.6682   5.8059   5.9470   6.4410   6.8118   7.5810   8.1879
     8.5143   9.0383  16.1877  17.1324  18.7370  18.9651  20.1656  20.7424
    23.3842  25.1915  26.1543  27.7222  30.1402  31.2906  33.1265  33.7558
    35.5469  35.9886  37.4540  38.0852  39.4647  39.9180  41.0470  42.9520
    43.2626  43.4108  44.7419  45.6121

          k = 0.2000 0.4619-0.3100 (  3294 PWs)   bands (ev):

  -113.3533-113.3533 -67.5640 -67.5640 -67.5626 -67.5626 -67.5621 -67.5621
    -7.1145  -7.1145   4.1644   4.1644   4.6952   4.6952   4.9341   4.9341
     5.6493   5.6493   5.8611   5.8611   6.6346   6.6346   7.9808   7.9808
     8.8328   8.8328  16.5691  16.5691  18.9158  18.9158  20.2163  20.2164
    24.5007  24.5007  26.8746  26.8746  30.4473  30.4473  33.3834  33.3834
    35.8317  35.8317  37.8962  37.8962  40.5100  40.5100  42.0052  42.0052
    43.5725  43.5725  44.6744  44.6744

          k = 0.2000 0.5774 0.0000 (  3304 PWs)   bands (ev):

  -113.3533-113.3533 -67.5637 -67.5633 -67.5633 -67.5628 -67.5627 -67.5622
    -7.1578  -7.0177   4.2887   4.6116   4.7691   4.8645   5.1499   5.2449
     5.5212   5.5908   5.7997   5.8144   6.4113   6.6826   6.7772   7.7782
     8.4855   8.7926  16.9065  17.7862  17.8156  18.7209  20.8268  21.6632
    22.8999  23.5433  25.5515  30.1515  30.6849  32.0882  32.7558  33.9383
    35.9133  36.6393  37.3017  37.3169  38.0900  38.4021  39.3308  39.7444
    44.5292  44.8415  45.7374  47.6304

          k = 0.2000 0.5774 0.1033 (  3309 PWs)   bands (ev):

  -113.3533-113.3533 -67.5639 -67.5635 -67.5631 -67.5627 -67.5626 -67.5622
    -7.1460  -7.0246   4.2748   4.5788   4.5909   4.8989   5.1058   5.1707
     5.5639   5.6117   5.8337   5.8516   6.3528   6.6207   6.9734   7.9929
     8.4875   8.7986  16.7911  17.6844  18.0004  18.7967  20.3525  21.2965
    23.2038  24.0144  25.8710  29.4438  30.0482  32.2935  32.9161  33.5864
    35.9279  36.4856  37.1246  38.0586  38.5650  39.3490  39.5090  40.0811
    44.6626  44.6937  45.3929  47.2866

          k = 0.2000 0.5774 0.2066 (  3310 PWs)   bands (ev):

  -113.3533-113.3533 -67.5641 -67.5639 -67.5629 -67.5626 -67.5624 -67.5621
    -7.1154  -7.0452   4.2207   4.3313   4.6047   4.8356   5.0498   5.0638
     5.6019   5.6255   5.9094   5.9431   6.3104   6.4920   7.3636   8.2306
     8.4624   8.9230  16.7221  17.3684  18.3325  18.9007  19.7596  20.5807
    24.0143  24.7448  26.3106  27.8369  29.7980  31.7178  32.9474  33.4358
    35.9290  36.4299  37.5000  38.2439  39.0750  40.5900  41.2938  41.5064
    43.8479  44.7373  45.6558  46.3964

          k = 0.2000 0.5774-0.3100 (  3286 PWs)   bands (ev):

  -113.3533-113.3533 -67.5641 -67.5641 -67.5627 -67.5627 -67.5622 -67.5622
    -7.0776  -7.0776   4.2057   4.2057   4.7037   4.7037   5.0318   5.0318
     5.6194   5.6194   5.9664   5.9664   6.3673   6.3673   7.8114   7.8114
     8.8474   8.8474  16.9469  16.9469  18.6687  18.6687  19.9449  19.9449
    24.8920  24.8920  26.5983  26.5983  30.5660  30.5660  33.1636  33.1636
    36.2359  36.2359  37.9046  37.9046  40.1050  40.1050  43.0305  43.0305
    43.9335  43.9335  46.0886  46.0886

          k = 0.3000 0.5196 0.0000 (  3306 PWs)   bands (ev):

  -113.3533-113.3533 -67.5634 -67.5634 -67.5631 -67.5630 -67.5628 -67.5624
    -7.1200  -7.0301   4.3269   4.6583   4.7849   4.9759   5.2408   5.4377
     5.4405   5.5036   5.7364   5.7552   6.4046   6.4575   6.7522   7.8843
     8.4591   8.4819  17.2676  17.8291  18.3290  18.4142  20.9622  21.1001
    22.7958  23.9966  24.6044  30.3722  31.9610  32.1289  32.7005  34.4132
    35.5563  36.4088  36.8131  37.0181  37.5588  38.2849  39.2614  39.3170
    44.4966  45.9947  46.7104  46.8393

          k = 0.3000 0.5196 0.1033 (  3300 PWs)   bands (ev):

  -113.3533-113.3533 -67.5637 -67.5635 -67.5632 -67.5628 -67.5625 -67.5625
    -7.1114  -7.0334   4.3474   4.5652   4.6911   4.9161   5.1767   5.2399
     5.4822   5.5962   5.8002   5.8706   6.3700   6.5926   6.7254   8.0714
     8.3748   8.6025  17.2809  17.8073  18.4286  18.4319  20.3236  20.6473
    23.2420  24.5181  25.1097  29.4610  30.9873  31.5312  33.2881  34.4456
    35.8557  35.9081  37.2601  38.0738  38.3098  38.9204  39.1128  39.5494
    44.6479  45.9812  46.4425  46.9464

          k = 0.3000 0.5196 0.2066 (  3301 PWs)   bands (ev):

  -113.3533-113.3533 -67.5640 -67.5638 -67.5631 -67.5627 -67.5623 -67.5622
    -7.0897  -7.0447   4.3680   4.3971   4.5476   4.7767   5.1020   5.1271
     5.5328   5.5925   5.9122   6.0258   6.3400   6.5439   7.0417   7.9676
     8.5652   8.8416  17.3594  17.7304  18.4901  18.6920  19.3752  19.8482
    24.1748  25.5604  25.8705  27.7188  29.9399  30.6335  33.5840  34.2018
    35.6897  36.1641  37.6844  38.0839  39.6922  40.0296  40.8404  41.5155
    44.3152  45.3992  45.5112  46.2764

          k = 0.3000 0.5196-0.3100 (  3308 PWs)   bands (ev):

  -113.3533-113.3533 -67.5640 -67.5640 -67.5629 -67.5629 -67.5622 -67.5622
    -7.0646  -7.0646   4.3235   4.3235   4.6196   4.6196   5.0897   5.0897
     5.5676   5.5676   6.0150   6.0150   6.4180   6.4180   7.5144   7.5144
     8.8616   8.8616  17.5497  17.5497  18.6867  18.6867  19.2144  19.2144
    25.4294  25.4294  26.5016  26.5016  29.8514  29.8514  33.8329  33.8329
    36.0181  36.0181  37.6632  37.6632  41.2017  41.2017  42.2765  42.2765
    44.4579  44.4579  45.3890  45.3890

          k = 0.0000-0.1155 0.1033 (  3307 PWs)   bands (ev):

  -113.3535-113.3533 -67.5645 -67.5619 -67.5619 -67.5618 -67.5614 -67.5613
    -7.8255  -7.2218   4.2819   4.3874   4.4084   4.4445   4.5717   4.5852
     5.5231   5.5386   5.7274   5.7475   6.3607   9.0070   9.2255   9.2476
     9.8981   9.9867  12.1009  15.5726  18.5954  22.1512  23.2288  23.2597
    23.5816  24.2995  26.9234  28.1899  28.8104  30.1781  31.2880  31.4889
    32.9506  34.0604  34.8167  34.9452  37.3230  38.1617  38.8834  39.0828
    41.0331  41.1168  43.6571  44.2364

          k = 0.0000-0.1155 0.2066 (  3302 PWs)   bands (ev):

  -113.3534-113.3534 -67.5640 -67.5625 -67.5618 -67.5617 -67.5615 -67.5614
    -7.7021  -7.3535   4.1955   4.2125   4.4339   4.4399   4.5239   4.5351
     5.5807   5.5874   5.6971   5.7069   7.0695   8.5791   9.2080   9.4069
     9.7063   9.8336  12.9582  14.8699  19.2323  21.5805  22.4794  23.1670
    23.2937  23.8693  27.7953  29.1143  29.2092  30.0662  31.3209  31.4410
    33.6200  34.3233  34.5918  35.4644  36.8682  36.9377  38.2641  40.0264
    41.4554  41.6273  42.4885  42.9402

          k = 0.0000-0.2309 0.1033 (  3296 PWs)   bands (ev):

  -113.3534-113.3533 -67.5643 -67.5624 -67.5623 -67.5620 -67.5618 -67.5614
    -7.6784  -7.1522   4.1551   4.3831   4.4903   4.5548   4.7092   4.7170
     5.4799   5.5441   5.7350   5.8036   6.4255   8.1557   8.6336   8.9111
     9.6885   9.7822  13.0682  16.3987  18.6045  20.5993  22.2345  23.3694
    23.4693  24.3517  25.7506  28.1181  28.8607  31.5013  32.3247  33.3734
    33.9782  34.3242  35.1716  36.7007  37.7029  38.1076  38.5994  40.2804
    40.3530  41.4697  42.7489  45.2759

          k = 0.0000-0.2309 0.2066 (  3291 PWs)   bands (ev):

  -113.3534-113.3533 -67.5639 -67.5628 -67.5622 -67.5619 -67.5618 -67.5615
    -7.5691  -7.2651   4.0917   4.1806   4.5251   4.5395   4.6248   4.6502
     5.5617   5.5894   5.6997   5.7361   7.1109   8.1404   8.5701   9.1008
     9.4058   9.6030  13.7104  15.5694  19.1903  20.5972  21.8331  22.5018
    23.5183  23.9915  26.5096  28.6117  29.2452  31.7881  32.3307  32.6355
    33.7133  34.1242  35.4264  37.2991  37.4153  38.1938  38.8273  40.2605
    41.3661  41.6942  42.7475  43.6919

          k = 0.0000-0.3464 0.1033 (  3289 PWs)   bands (ev):

  -113.3534-113.3533 -67.5641 -67.5630 -67.5629 -67.5622 -67.5620 -67.5616
    -7.4812  -7.0742   4.0635   4.3505   4.5782   4.7039   4.8836   4.9248
     5.4621   5.5848   5.7451   5.8598   6.5073   7.2919   7.9814   8.4858
     9.4155   9.5148  14.1585  17.0616  18.5738  19.3482  21.3774  22.8785
    23.6581  24.2355  25.3739  28.7012  29.0173  30.9093  32.6852  35.0052
    35.0822  36.2190  36.4473  37.4971  37.8347  38.7399  39.2794  39.9522
    41.3718  41.7149  43.8169  44.6656

          k = 0.0000-0.3464 0.2066 (  3298 PWs)   bands (ev):

  -113.3534-113.3533 -67.5640 -67.5633 -67.5627 -67.5621 -67.5620 -67.5617
    -7.3942  -7.1590   4.0085   4.1452   4.6308   4.6799   4.7783   4.8055
     5.5645   5.6177   5.7092   5.7784   6.9461   7.4377   8.1185   8.7143
     9.2285   9.3058  14.5564  16.1768  18.9861  19.4602  21.3076  22.4648
    23.7047  24.0382  25.4750  28.0866  30.0121  31.9177  32.2278  33.2366
    35.2666  36.1332  36.5921  37.4501  38.5449  38.7254  39.6375  41.2614
    41.5335  41.7867  44.4164  44.6360

          k = 0.0000-0.4619 0.1033 (  3294 PWs)   bands (ev):

  -113.3533-113.3533 -67.5641 -67.5635 -67.5632 -67.5623 -67.5623 -67.5617
    -7.2985  -7.0278   4.0675   4.3091   4.6336   4.8771   5.0125   5.0464
     5.5557   5.6559   5.7580   5.9255   6.2897   6.8241   7.5834   8.1194
     9.0904   9.2847  15.2002  17.1341  18.2370  18.8109  20.8909  22.6942
    23.5558  24.3157  25.3081  28.7820  30.3461  30.4615  32.0694  35.2084
    35.9305  36.7234  36.9500  37.7267  38.5845  39.7333  40.4251  41.2699
    42.0261  43.2758  43.4514  45.2304

          k = 0.0000-0.4619 0.2066 (  3296 PWs)   bands (ev):

  -113.3533-113.3533 -67.5642 -67.5638 -67.5628 -67.5623 -67.5622 -67.5618
    -7.2379  -7.0814   3.9975   4.1135   4.7057   4.8421   4.9139   4.9419
     5.6393   5.6720   5.7280   5.8329   6.4554   6.8026   8.1061   8.3855
     9.0525   9.0727  15.2984  16.4306  18.5984  18.8648  20.9775  22.4693
    23.6906  24.1305  25.0949  27.9748  31.2055  31.5558  31.8333  34.2304
    35.2198  36.7496  36.8936  37.4006  39.4170  40.2302  41.3903  41.5174
    42.4957  43.6774  44.0833  45.3535

          k =-0.1000-0.2887 0.1033 (  3306 PWs)   bands (ev):

  -113.3534-113.3533 -67.5642 -67.5628 -67.5627 -67.5622 -67.5619 -67.5616
    -7.5524  -7.0997   4.1303   4.3539   4.5392   4.6212   4.8288   4.8481
     5.4616   5.5637   5.7402   5.8473   6.4946   7.7161   8.0943   8.5831
     9.5109   9.5477  13.8256  16.9484  18.6534  19.8639  21.6969  22.5570
    23.1229  24.8572  25.7888  27.3770  29.9699  31.9128  32.6305  33.3029
    34.4303  35.3676  36.4449  37.4572  37.8024  38.4464  38.9931  39.9553
    41.2828  41.8169  42.5968  45.5669

          k =-0.1000-0.2887 0.2066 (  3296 PWs)   bands (ev):

  -113.3534-113.3533 -67.5639 -67.5631 -67.5625 -67.5621 -67.5619 -67.5617
    -7.4567  -7.1950   4.0650   4.1675   4.5600   4.6007   4.7195   4.7675
     5.5586   5.6057   5.7052   5.7675   7.0713   7.7636   8.2295   8.7395
     9.2837   9.3412  14.3231  16.0632  19.1245  19.9374  21.5451  22.0467
    23.1895  24.2697  26.4553  28.0039  29.5610  31.4629  32.8172  33.0805
    34.9276  35.6390  36.0456  36.8390  38.3595  38.7482  39.2236  40.3819
    41.7454  42.1450  43.1443  44.5877

          k =-0.1000-0.4041 0.1033 (  3295 PWs)   bands (ev):

  -113.3534-113.3533 -67.5640 -67.5633 -67.5631 -67.5624 -67.5622 -67.5618
    -7.3601  -7.0388   4.1085   4.3563   4.5953   4.7804   4.9903   5.0007
     5.4803   5.6265   5.7571   5.9174   6.4432   7.0656   7.6769   8.0539
     9.1859   9.2655  14.9357  17.3337  18.5979  18.9570  21.0859  22.3028
    22.8130  24.6203  25.8652  28.2332  29.9285  31.5449  32.4881  34.3511
    35.6296  36.2691  37.1129  37.6648  38.3329  39.2637  39.9106  40.2404
    41.8450  43.0032  44.5408  45.6155

          k =-0.1000-0.4041 0.2066 (  3295 PWs)   bands (ev):

  -113.3533-113.3533 -67.5641 -67.5636 -67.5627 -67.5623 -67.5621 -67.5619
    -7.2896  -7.1038   4.0418   4.1642   4.6470   4.7476   4.8512   4.9074
     5.5803   5.6582   5.7314   5.8256   6.7010   7.1126   8.0602   8.3244
     8.9658   9.1713  15.1875  16.5446  18.8819  19.0789  20.9773  21.9190
    23.2283  24.4477  25.8890  27.9390  30.0905  31.7138  32.6918  33.3190
    35.8839  36.2894  36.8414  37.5274  39.2833  39.7805  40.4861  41.0206
    41.7269  43.6565  44.4612  45.1138

          k =-0.1000-0.5196 0.1033 (  3297 PWs)   bands (ev):

  -113.3533-113.3533 -67.5641 -67.5636 -67.5632 -67.5625 -67.5624 -67.5619
    -7.2186  -7.0203   4.1492   4.3624   4.6246   4.9183   5.0315   5.1156
     5.5844   5.6623   5.7828   5.9222   6.2478   6.6791   7.4887   7.8785
     8.8715   9.0731  15.8895  17.2309  18.0792  18.7995  20.6678  22.4207
    22.9274  24.2675  25.8892  28.9364  30.0554  31.5085  32.0529  34.8906
    35.6960  36.4131  37.2290  37.7595  38.5686  39.5240  40.4051  42.4701
    43.1896  43.6054  44.6567  45.2146

          k =-0.1000-0.5196 0.2066 (  3301 PWs)   bands (ev):

  -113.3533-113.3533 -67.5642 -67.5639 -67.5628 -67.5624 -67.5623 -67.5620
    -7.1725  -7.0578   4.0688   4.1617   4.6902   4.8811   4.9693   4.9934
     5.6483   5.6856   5.7905   5.8934   6.2996   6.5673   7.9328   8.3064
     8.7330   9.0270  15.8456  16.7069  18.4285  18.8292  20.5870  21.7844
    23.6083  24.3480  25.7275  27.9545  30.7027  31.7039  32.4820  33.6018
    35.7513  36.4424  37.0051  37.6243  39.6700  40.4619  41.2399  42.5684
    43.4196  43.8827  44.8055  45.4705

          k =-0.2000-0.4619 0.1033 (  3298 PWs)   bands (ev):

  -113.3533-113.3533 -67.5639 -67.5635 -67.5631 -67.5627 -67.5623 -67.5621
    -7.2241  -7.0179   4.2701   4.4156   4.6619   4.8002   5.0784   5.1083
     5.4837   5.6374   5.7918   6.0226   6.2570   6.9112   7.2963   7.7127
     8.7295   8.9715  16.0615  17.6202  18.5607  18.8577  20.6546  21.3898
    22.4450  24.7685  25.8948  28.4144  30.8944  32.1431  33.1150  33.4005
    35.6724  36.0764  37.0039  37.8364  38.4400  38.9924  39.3191  42.4862
    42.9112  44.4968  45.0803  46.0757

          k =-0.2000-0.4619 0.2066 (  3291 PWs)   bands (ev):

  -113.3533-113.3533 -67.5641 -67.5638 -67.5628 -67.5626 -67.5622 -67.5621
    -7.1763  -7.0570   4.1917   4.2657   4.6380   4.7572   4.9640   4.9923
     5.5803   5.6682   5.8059   5.9470   6.4410   6.8118   7.5810   8.1879
     8.5143   9.0383  16.1877  17.1324  18.7370  18.9651  20.1656  20.7425
    23.3842  25.1915  26.1543  27.7222  30.1402  31.2906  33.1265  33.7558
    35.5469  35.9886  37.4540  38.0852  39.4647  39.9180  41.0470  42.9520
    43.2626  43.4108  44.7419  45.6121

     the Fermi energy is    10.5624 ev

!    total energy              =    -864.68788570 Ry
     estimated scf accuracy    <          1.8E-11 Ry
     smearing contrib. (-TS)   =      -0.00000000 Ry
     internal energy E=F+TS    =    -864.68788570 Ry

     The total energy is F=E-TS. E is the sum of the following terms:
     one-electron contribution =    -571.80906276 Ry
     hartree contribution      =     302.50550398 Ry
     xc contribution           =     -87.21378025 Ry
     ewald contribution        =    -508.17054667 Ry

     convergence has been achieved in  12 iterations

     Writing all to output data dir out/mp-2133.save/
 
     init_run     :      1.70s CPU      2.05s WALL (       1 calls)
     electrons    :     28.20s CPU     30.90s WALL (       1 calls)

     Called by init_run:
     wfcinit      :      1.66s CPU      1.99s WALL (       1 calls)
     potinit      :      0.01s CPU      0.02s WALL (       1 calls)
     hinit0       :      0.01s CPU      0.04s WALL (       1 calls)

     Called by electrons:
     c_bands      :     25.39s CPU     27.45s WALL (      12 calls)
     sum_band     :      2.75s CPU      3.15s WALL (      12 calls)
     v_of_rho     :      0.02s CPU      0.03s WALL (      13 calls)
     mix_rho      :      0.03s CPU      0.04s WALL (      12 calls)

     Called by c_bands:
     init_us_2    :      0.11s CPU      0.12s WALL (    1800 calls)
     init_us_2:cp :      0.10s CPU      0.12s WALL (    1800 calls)
     cegterg      :     24.58s CPU     25.64s WALL (     864 calls)

     Called by *egterg:
     cdiaghg      :      8.93s CPU      9.01s WALL (    3078 calls)
     h_psi        :     14.60s CPU     15.70s WALL (    3150 calls)
     g_psi        :      0.06s CPU      0.07s WALL (    2214 calls)

     Called by h_psi:
     h_psi:calbec :      0.47s CPU      0.50s WALL (    3150 calls)
     vloc_psi     :     13.80s CPU     14.86s WALL (    3150 calls)
     add_vuspsi   :      0.27s CPU      0.29s WALL (    3150 calls)

     General routines
     calbec       :      0.46s CPU      0.49s WALL (    3150 calls)
     fft          :      0.01s CPU      0.03s WALL (     129 calls)
     ffts         :      0.00s CPU      0.00s WALL (      12 calls)
     fftw         :     15.09s CPU     16.28s WALL (  291052 calls)
     davcio       :      0.23s CPU      1.31s WALL (    2882 calls)
 
     Parallel routines
 
     PWSCF        :     30.35s CPU     34.79s WALL

 
   This run was terminated on:   8:40:56  22Dec2023            

=------------------------------------------------------------------------------=
   JOB DONE.
=------------------------------------------------------------------------------=
