
     Program PWSCF v.7.1 starts on  5Dec2023 at 12: 7:37 

     This program is part of the open-source Quantum ESPRESSO suite
     for quantum simulation of materials; please cite
         "P. Giannozzi et al., J. Phys.:Condens. Matter 21 395502 (2009);
         "P. Giannozzi et al., J. Phys.:Condens. Matter 29 465901 (2017);
         "P. Giannozzi et al., J. Chem. Phys. 152 154105 (2020);
          URL http://www.quantum-espresso.org", 
     in publications or presentations arising from this work. More details at
     http://www.quantum-espresso.org/quote

     Parallel version (MPI), running on    24 processors

     MPI processes distributed on     1 nodes
     122530 MiB available memory on the printing compute node when the environment starts
 
     Reading input from pw_mp-856_scf_k3000_E72.in
Warning: card &CELL ignored
Warning: card / ignored

     Current dimensions of program PWSCF are:
     Max number of different atomic species (ntypx) = 10
     Max number of k-points (npk) =  40000
     Max angular momentum in pseudopotentials (lmaxx) =  4
 
     K-points division:     npool     =       2
     R & G space division:  proc/nbgrp/npool/nimage =      12
     Subspace diagonalization in iterative solution of the eigenvalue problem:
     a serial algorithm will be used

 
     Parallelization info
     --------------------
     sticks:   dense  smooth     PW     G-vecs:    dense   smooth      PW
     Min         155     155     46                 3383     3383     540
     Max         156     156     47                 3386     3386     542
     Sum        1861    1861    553                40605    40605    6489
 
     Using Slab Decomposition
 


     bravais-lattice index     =            6
     lattice parameter (alat)  =       9.0042  a.u.
     unit-cell volume          =     491.4233 (a.u.)^3
     number of atoms/cell      =            6
     number of atomic types    =            2
     number of electrons       =        52.00
     number of Kohn-Sham states=           52
     kinetic-energy cutoff     =      72.0000  Ry
     charge density cutoff     =     288.0000  Ry
     scf convergence threshold =      1.0E-10
     mixing beta               =       0.7000
     number of iterations used =            8  plain     mixing
     Exchange-correlation= PBE
                           (   1   4   3   4   0   0   0)

     celldm(1)=   9.004200  celldm(2)=   0.000000  celldm(3)=   0.673163
     celldm(4)=   0.000000  celldm(5)=   0.000000  celldm(6)=   0.000000

     crystal axes: (cart. coord. in units of alat)
               a(1) = (   1.000000   0.000000   0.000000 )  
               a(2) = (   0.000000   1.000000   0.000000 )  
               a(3) = (   0.000000   0.000000   0.673163 )  

     reciprocal axes: (cart. coord. in units 2 pi/alat)
               b(1) = (  1.000000  0.000000  0.000000 )  
               b(2) = (  0.000000  1.000000  0.000000 )  
               b(3) = (  0.000000  0.000000  1.485524 )  


     PseudoPot. # 1 for O  read from file:
     /usr/scratch4/magr4985/MG/HTDF/pseudo/SG15/O.upf
     MD5 check sum: e36c48deb68f4e355fffe4602be2c42c
     Pseudo is Norm-conserving, Zval =  6.0
     Generated using ONCVPSP code by D. R. Hamann
     Using radial grid of  602 points,  4 beta functions with: 
                l(1) =   0
                l(2) =   0
                l(3) =   1
                l(4) =   1

     PseudoPot. # 2 for Sn read from file:
     /usr/scratch4/magr4985/MG/HTDF/pseudo/SG15/Sn.upf
     MD5 check sum: 6680f7ee4d83b53e0fcd4167fcb72813
     Pseudo is Norm-conserving, Zval = 14.0
     Generated using ONCVPSP code by D. R. Hamann
     Using radial grid of  602 points,  6 beta functions with: 
                l(1) =   0
                l(2) =   0
                l(3) =   1
                l(4) =   1
                l(5) =   2
                l(6) =   2

     atomic species   valence    mass     pseudopotential
        O              6.00    15.99940     O ( 1.00)
        Sn            14.00   118.71000     Sn( 1.00)

      8 Sym. Ops., with inversion, found



   Cartesian axes

     site n.     atom                  positions (alat units)
         1           Sn  tau(   1) = (   0.5000000   0.5000000   0.3365816  )
         2           Sn  tau(   2) = (   0.0000000   0.0000000   0.0000000  )
         3           O   tau(   3) = (   0.8059724   0.1940277   0.3365816  )
         4           O   tau(   4) = (   0.1940277   0.8059724   0.3365816  )
         5           O   tau(   5) = (   0.3059723   0.3059723   0.0000000  )
         6           O   tau(   6) = (   0.6940278   0.6940278   0.0000000  )

     number of k points=    78  Gaussian smearing, width (Ry)=  0.0005
                       cart. coord. in units 2pi/alat
        k(    1) = (   0.0000000   0.0000000   0.0000000), wk =   0.0055556
        k(    2) = (   0.0000000   0.0000000   0.1485524), wk =   0.0111111
        k(    3) = (   0.0000000   0.0000000   0.2971048), wk =   0.0111111
        k(    4) = (   0.0000000   0.0000000   0.4456572), wk =   0.0111111
        k(    5) = (   0.0000000   0.0000000   0.5942096), wk =   0.0111111
        k(    6) = (   0.0000000   0.0000000  -0.7427620), wk =   0.0055556
        k(    7) = (   0.0000000   0.1666667   0.0000000), wk =   0.0222222
        k(    8) = (   0.0000000   0.1666667   0.1485524), wk =   0.0444444
        k(    9) = (   0.0000000   0.1666667   0.2971048), wk =   0.0444444
        k(   10) = (   0.0000000   0.1666667   0.4456572), wk =   0.0444444
        k(   11) = (   0.0000000   0.1666667   0.5942096), wk =   0.0444444
        k(   12) = (   0.0000000   0.1666667  -0.7427620), wk =   0.0222222
        k(   13) = (   0.0000000   0.3333333   0.0000000), wk =   0.0222222
        k(   14) = (   0.0000000   0.3333333   0.1485524), wk =   0.0444444
        k(   15) = (   0.0000000   0.3333333   0.2971048), wk =   0.0444444
        k(   16) = (   0.0000000   0.3333333   0.4456572), wk =   0.0444444
        k(   17) = (   0.0000000   0.3333333   0.5942096), wk =   0.0444444
        k(   18) = (   0.0000000   0.3333333  -0.7427620), wk =   0.0222222
        k(   19) = (   0.0000000  -0.5000000   0.0000000), wk =   0.0111111
        k(   20) = (   0.0000000  -0.5000000   0.1485524), wk =   0.0222222
        k(   21) = (   0.0000000  -0.5000000   0.2971048), wk =   0.0222222
        k(   22) = (   0.0000000  -0.5000000   0.4456572), wk =   0.0222222
        k(   23) = (   0.0000000  -0.5000000   0.5942096), wk =   0.0222222
        k(   24) = (   0.0000000  -0.5000000  -0.7427620), wk =   0.0111111
        k(   25) = (   0.1666667   0.1666667   0.0000000), wk =   0.0111111
        k(   26) = (   0.1666667   0.1666667   0.1485524), wk =   0.0222222
        k(   27) = (   0.1666667   0.1666667   0.2971048), wk =   0.0222222
        k(   28) = (   0.1666667   0.1666667   0.4456572), wk =   0.0222222
        k(   29) = (   0.1666667   0.1666667   0.5942096), wk =   0.0222222
        k(   30) = (   0.1666667   0.1666667  -0.7427620), wk =   0.0111111
        k(   31) = (   0.1666667   0.3333333   0.0000000), wk =   0.0222222
        k(   32) = (   0.1666667   0.3333333   0.1485524), wk =   0.0444444
        k(   33) = (   0.1666667   0.3333333   0.2971048), wk =   0.0444444
        k(   34) = (   0.1666667   0.3333333   0.4456572), wk =   0.0444444
        k(   35) = (   0.1666667   0.3333333   0.5942096), wk =   0.0444444
        k(   36) = (   0.1666667   0.3333333  -0.7427620), wk =   0.0222222
        k(   37) = (   0.1666667  -0.5000000   0.0000000), wk =   0.0222222
        k(   38) = (   0.1666667  -0.5000000   0.1485524), wk =   0.0444444
        k(   39) = (   0.1666667  -0.5000000   0.2971048), wk =   0.0444444
        k(   40) = (   0.1666667  -0.5000000   0.4456572), wk =   0.0444444
        k(   41) = (   0.1666667  -0.5000000   0.5942096), wk =   0.0444444
        k(   42) = (   0.1666667  -0.5000000  -0.7427620), wk =   0.0222222
        k(   43) = (   0.3333333   0.3333333   0.0000000), wk =   0.0111111
        k(   44) = (   0.3333333   0.3333333   0.1485524), wk =   0.0222222
        k(   45) = (   0.3333333   0.3333333   0.2971048), wk =   0.0222222
        k(   46) = (   0.3333333   0.3333333   0.4456572), wk =   0.0222222
        k(   47) = (   0.3333333   0.3333333   0.5942096), wk =   0.0222222
        k(   48) = (   0.3333333   0.3333333  -0.7427620), wk =   0.0111111
        k(   49) = (   0.3333333  -0.5000000   0.0000000), wk =   0.0222222
        k(   50) = (   0.3333333  -0.5000000   0.1485524), wk =   0.0444444
        k(   51) = (   0.3333333  -0.5000000   0.2971048), wk =   0.0444444
        k(   52) = (   0.3333333  -0.5000000   0.4456572), wk =   0.0444444
        k(   53) = (   0.3333333  -0.5000000   0.5942096), wk =   0.0444444
        k(   54) = (   0.3333333  -0.5000000  -0.7427620), wk =   0.0222222
        k(   55) = (  -0.5000000  -0.5000000   0.0000000), wk =   0.0055556
        k(   56) = (  -0.5000000  -0.5000000   0.1485524), wk =   0.0111111
        k(   57) = (  -0.5000000  -0.5000000   0.2971048), wk =   0.0111111
        k(   58) = (  -0.5000000  -0.5000000   0.4456572), wk =   0.0111111
        k(   59) = (  -0.5000000  -0.5000000   0.5942096), wk =   0.0111111
        k(   60) = (  -0.5000000  -0.5000000  -0.7427620), wk =   0.0055556
        k(   61) = (  -0.1666667   0.1666667   0.0000000), wk =   0.0111111
        k(   62) = (  -0.1666667   0.1666667  -0.1485524), wk =   0.0222222
        k(   63) = (  -0.1666667   0.1666667  -0.2971048), wk =   0.0222222
        k(   64) = (  -0.1666667   0.1666667  -0.4456572), wk =   0.0222222
        k(   65) = (  -0.1666667   0.1666667  -0.5942096), wk =   0.0222222
        k(   66) = (  -0.1666667   0.1666667   0.7427620), wk =   0.0111111
        k(   67) = (  -0.1666667   0.3333333   0.0000000), wk =   0.0222222
        k(   68) = (  -0.1666667   0.3333333  -0.1485524), wk =   0.0444444
        k(   69) = (  -0.1666667   0.3333333  -0.2971048), wk =   0.0444444
        k(   70) = (  -0.1666667   0.3333333  -0.4456572), wk =   0.0444444
        k(   71) = (  -0.1666667   0.3333333  -0.5942096), wk =   0.0444444
        k(   72) = (  -0.1666667   0.3333333   0.7427620), wk =   0.0222222
        k(   73) = (  -0.3333333   0.3333333   0.0000000), wk =   0.0111111
        k(   74) = (  -0.3333333   0.3333333  -0.1485524), wk =   0.0222222
        k(   75) = (  -0.3333333   0.3333333  -0.2971048), wk =   0.0222222
        k(   76) = (  -0.3333333   0.3333333  -0.4456572), wk =   0.0222222
        k(   77) = (  -0.3333333   0.3333333  -0.5942096), wk =   0.0222222
        k(   78) = (  -0.3333333   0.3333333   0.7427620), wk =   0.0111111

     Dense  grid:    40605 G-vectors     FFT dimensions: (  50,  50,  36)

     Estimated max dynamical RAM per process >       7.41 MB

     Estimated total dynamical RAM >     167.98 MB

     Initial potential from superposition of free atoms

     starting charge      51.8229, renormalised to      52.0000
     Starting wfcs are random

     total cpu time spent up to now is        0.7 secs

     Self-consistent Calculation

     iteration #  1     ecut=    72.00 Ry     beta= 0.70
     Davidson diagonalization with overlap
     ethr =  1.00E-02,  avg # of iterations =  8.9

     total cpu time spent up to now is        6.6 secs

     total energy              =    -368.57089079 Ry
     estimated scf accuracy    <       1.45536724 Ry

     iteration #  2     ecut=    72.00 Ry     beta= 0.70
     Davidson diagonalization with overlap
     ethr =  2.80E-03,  avg # of iterations =  2.0

     total cpu time spent up to now is        8.6 secs

     total energy              =    -368.95416940 Ry
     estimated scf accuracy    <       1.31691390 Ry

     iteration #  3     ecut=    72.00 Ry     beta= 0.70
     Davidson diagonalization with overlap
     ethr =  2.53E-03,  avg # of iterations =  1.9

     total cpu time spent up to now is       10.5 secs

     total energy              =    -369.21648029 Ry
     estimated scf accuracy    <       0.00617563 Ry

     iteration #  4     ecut=    72.00 Ry     beta= 0.70
     Davidson diagonalization with overlap
     ethr =  1.19E-05,  avg # of iterations =  6.8

     total cpu time spent up to now is       13.8 secs

     total energy              =    -369.21893405 Ry
     estimated scf accuracy    <       0.00028978 Ry

     iteration #  5     ecut=    72.00 Ry     beta= 0.70
     Davidson diagonalization with overlap
     ethr =  5.57E-07,  avg # of iterations =  2.5

     total cpu time spent up to now is       15.8 secs

     total energy              =    -369.21895832 Ry
     estimated scf accuracy    <       0.00002339 Ry

     iteration #  6     ecut=    72.00 Ry     beta= 0.70
     Davidson diagonalization with overlap
     ethr =  4.50E-08,  avg # of iterations =  2.0

     total cpu time spent up to now is       17.9 secs

     total energy              =    -369.21896255 Ry
     estimated scf accuracy    <       0.00000400 Ry

     iteration #  7     ecut=    72.00 Ry     beta= 0.70
     Davidson diagonalization with overlap
     ethr =  7.69E-09,  avg # of iterations =  1.0

     total cpu time spent up to now is       19.6 secs

     total energy              =    -369.21896270 Ry
     estimated scf accuracy    <       0.00000177 Ry

     iteration #  8     ecut=    72.00 Ry     beta= 0.70
     Davidson diagonalization with overlap
     ethr =  3.41E-09,  avg # of iterations =  1.0

     total cpu time spent up to now is       21.9 secs

     total energy              =    -369.21896292 Ry
     estimated scf accuracy    <       0.00000004 Ry

     iteration #  9     ecut=    72.00 Ry     beta= 0.70
     Davidson diagonalization with overlap
     ethr =  8.01E-11,  avg # of iterations =  2.0

     total cpu time spent up to now is       24.5 secs

     total energy              =    -369.21896292 Ry
     estimated scf accuracy    <          2.7E-10 Ry

     iteration # 10     ecut=    72.00 Ry     beta= 0.70
     Davidson diagonalization with overlap
     ethr =  5.18E-13,  avg # of iterations =  2.4

     total cpu time spent up to now is       27.3 secs

     End of self-consistent calculation

          k = 0.0000 0.0000 0.0000 (  5073 PWs)   bands (ev):

   -10.5030  -9.7975  -9.5461  -9.5276  -9.5276  -9.4347  -9.3800  -9.3059
    -9.3058  -9.3010  -8.0956  -6.2672  -6.2672  -4.5943   2.6348   6.7342
     6.7342   6.8554   7.7138   8.7763   8.7881   9.4803   9.4803  10.0206
    10.0206  10.7563  11.7790  16.7375  17.0235  17.0235  21.1439  21.1561
    22.7352  22.7352  23.2347  23.3172  25.7051  27.6543  29.6798  30.1471
    30.3113  30.3113  30.7881  30.7881  31.9387  31.9387  32.5176  33.0150
    33.4749  34.3688  37.1673  37.1676

          k = 0.0000 0.0000 0.1486 (  5089 PWs)   bands (ev):

   -10.4579  -9.7482  -9.6129  -9.6129  -9.5297  -9.4418  -9.3764  -9.3185
    -9.3185  -9.3012  -8.0390  -6.1229  -6.1229  -4.6656   2.6311   6.7641
     6.8236   6.8236   7.7796   8.0500   8.7306   9.1060   9.1060  10.0430
    10.0430  10.6764  12.4619  16.9429  17.4473  17.4473  20.3325  21.9413
    22.7010  22.7010  23.1042  23.3001  25.5471  26.7876  28.6393  28.6393
    30.5391  30.5437  31.2951  31.7874  31.7874  32.9733  32.9733  33.7958
    34.2494  34.8891  37.1131  37.1132

          k = 0.0000 0.0000 0.2971 (  5060 PWs)   bands (ev):

   -10.3334  -9.8156  -9.8156  -9.6377  -9.4839  -9.4543  -9.3663  -9.3453
    -9.3453  -9.3025  -7.8556  -5.7655  -5.7655  -4.8872   2.6426   6.5939
     6.7960   7.0648   7.0648   7.9743   8.3295   8.3295   8.4277   9.9942
     9.9942  10.4459  13.7176  17.3427  18.4772  18.4772  19.7118  22.5810
    22.5810  22.6219  22.7145  23.2645  25.2974  25.5653  27.1365  27.1365
    30.1587  31.4900  31.6679  31.9107  31.9107  34.7294  35.2389  35.2496
    35.2496  36.1675  36.1675  36.5015

          k = 0.0000 0.0000 0.4457 (  5064 PWs)   bands (ev):

   -10.1592 -10.0320 -10.0320  -9.6007  -9.4197  -9.4093  -9.3750  -9.3750
    -9.3522  -9.3059  -7.5164  -5.3485  -5.3485  -5.2704   2.7405   5.5352
     6.5280   7.2179   7.2179   7.7228   7.7228   7.9741   8.2851   9.8488
     9.8488  10.0871  14.9433  17.5116  19.4988  19.6900  19.6900  22.0695
    22.3481  22.3481  23.2447  23.2455  24.5829  25.2377  26.1120  26.1120
    29.6279  31.8078  31.8078  32.5303  32.5998  35.4357  35.4357  35.6309
    35.6688  36.8852  37.3222  37.3223

          k = 0.0000 0.0000 0.5942 (  5060 PWs)   bands (ev):

   -10.1868 -10.1868  -9.9729  -9.6769  -9.3982  -9.3982  -9.3560  -9.3368
    -9.3361  -9.3125  -7.0179  -5.8000  -5.0199  -5.0199   3.0295   4.4381
     6.6625   6.7781   6.7781   7.4616   7.9398   7.9398   8.6911   9.6409
     9.6464   9.6464  15.9508  17.2664  19.7735  20.7483  20.7483  21.2580
    22.0110  22.0110  23.3004  23.8777  23.9030  25.0538  25.5624  25.5624
    30.2076  31.4333  31.4333  33.0353  33.5176  35.2517  35.6208  35.6634
    35.7574  35.7574  37.7036  37.7036

          k = 0.0000 0.0000-0.7428 (  5040 PWs)   bands (ev):

   -10.2421 -10.2421  -9.8060  -9.8060  -9.4070  -9.4069  -9.3230  -9.3229
    -9.3194  -9.3194  -6.4142  -6.4142  -4.8950  -4.8950   3.5897   3.5897
     6.5707   6.5707   6.9942   6.9942   8.1097   8.1097   9.1579   9.1579
     9.5314   9.5315  16.7173  16.7173  20.4306  20.4306  21.3630  21.3630
    21.6624  21.6624  23.4958  23.4958  24.5245  24.5245  25.3995  25.3995
    31.2181  31.2181  31.7778  31.7778  34.5314  34.5315  35.3097  35.3097
    36.2766  36.2766  37.4378  37.4378

          k = 0.0000 0.1667 0.0000 (  5076 PWs)   bands (ev):

   -10.4632  -9.8426  -9.5450  -9.5259  -9.5258  -9.4662  -9.3740  -9.3080
    -9.3079  -9.3054  -8.0085  -6.4474  -6.1166  -4.6523   2.8194   6.2384
     6.8677   6.9586   7.8684   8.5937   8.9718   9.4621   9.4895   9.5133
    10.0362  10.6223  12.4935  16.4953  17.1476  17.2716  21.3755  21.4132
    22.4863  22.7612  23.2846  23.2930  25.2960  27.7734  28.2596  29.1553
    29.8199  30.6128  30.8348  30.9752  31.7794  32.1310  33.1135  33.5048
    34.7452  35.4646  36.0949  36.7101

          k = 0.0000 0.1667 0.1486 (  5068 PWs)   bands (ev):

   -10.4207  -9.8072  -9.6187  -9.6149  -9.5226  -9.4480  -9.3707  -9.3197
    -9.3184  -9.3051  -7.9495  -6.3176  -5.9858  -4.6993   2.8209   6.3002
     6.5590   7.2500   7.8253   7.9088   8.8879   9.1548   9.1963   9.7408
    10.0432  10.5797  12.9657  16.7329  17.5537  17.6480  20.5523  22.1325
    22.4010  22.7598  23.1486  23.2710  25.1486  26.8939  27.6206  28.7527
    29.8451  30.8293  31.2081  31.6747  31.8280  32.7272  33.0164  34.4014
    35.2271  35.7664  35.8403  36.7193

          k = 0.0000 0.1667 0.2971 (  5052 PWs)   bands (ev):

   -10.3109  -9.8855  -9.8004  -9.6316  -9.4801  -9.4457  -9.3627  -9.3439
    -9.3430  -9.3055  -7.7709  -6.0194  -5.6576  -4.8327   2.8368   6.2421
     6.3429   6.7555   7.6125   7.8989   8.1967   8.5746   8.8641   9.9095
     9.9747  10.4146  13.9986  17.1920  18.5522  18.5791  19.8448  22.1143
    22.5394  22.8626  22.8651  23.2285  24.7799  25.7185  26.5413  27.8852
    29.9203  30.8791  31.4214  32.0976  32.3648  34.4420  34.6008  34.9102
    35.4040  35.6647  36.7292  37.1369

          k = 0.0000 0.1667 0.4457 (  5051 PWs)   bands (ev):

   -10.2164 -10.0891  -9.9362  -9.5707  -9.4214  -9.4133  -9.3731  -9.3702
    -9.3467  -9.3077  -7.4578  -5.8038  -5.2701  -4.9671   2.9173   5.3820
     6.0710   6.7146   7.3457   7.3794   8.0348   8.5708   8.6384   9.8133
     9.8788  10.1135  15.1052  17.4278  19.4631  19.6261  19.7682  21.6270
    22.4141  22.6296  23.2052  23.2883  24.4155  24.7599  25.7911  27.2869
    29.3074  31.2554  32.0843  32.4715  33.2730  34.2537  34.6061  35.2678
    36.6275  36.7649  37.0500  37.6005

          k = 0.0000 0.1667 0.5942 (  5071 PWs)   bands (ev):

   -10.2654 -10.2413  -9.8599  -9.6198  -9.4041  -9.4008  -9.3500  -9.3345
    -9.3334  -9.3127  -7.0087  -6.0004  -4.9646  -4.9082   3.1566   4.3917
     6.0831   6.5715   6.8430   6.8754   8.4537   8.5811   8.8650   9.6138
     9.7068   9.7252  16.0469  17.2497  19.5260  20.1896  20.8273  21.3345
    22.1773  22.3345  23.2967  23.6607  24.0597  24.1999  25.5658  26.4771
    29.9529  31.1626  31.9358  33.2000  33.9647  34.3836  34.7713  35.1079
    35.8364  36.7270  37.6067  37.7275

          k = 0.0000 0.1667-0.7428 (  5064 PWs)   bands (ev):

   -10.3006 -10.3006  -9.7251  -9.7251  -9.4100  -9.4100  -9.3217  -9.3217
    -9.3158  -9.3158  -6.4805  -6.4805  -4.8426  -4.8426   3.6390   3.6391
     6.2343   6.2343   6.7360   6.7360   8.6430   8.6430   9.2592   9.2592
     9.5619   9.5619  16.7617  16.7617  19.8933  19.8933  21.4349  21.4349
    22.0397  22.0397  23.5470  23.5470  24.0005  24.0005  25.8222  25.8222
    30.8194  30.8194  32.5208  32.5208  34.2096  34.2096  34.9177  34.9177
    36.4559  36.4559  37.4667  37.4668

          k = 0.0000 0.3333 0.0000 (  5070 PWs)   bands (ev):

   -10.3483  -9.9833  -9.5413  -9.5221  -9.5220  -9.5110  -9.3580  -9.3183
    -9.3125  -9.3123  -7.7506  -6.8711  -5.7357  -4.8762   3.3656   5.2443
     7.2436   7.2522   8.1737   8.2842   8.5773   9.1063   9.5139   9.5452
    10.0778  10.3336  13.7473  15.9303  17.4953  17.6502  21.5973  21.9406
    22.1262  22.9607  23.2497  23.6386  24.3069  26.1801  28.1107  28.5795
    29.1691  30.8582  31.0077  31.1459  31.4855  31.9095  32.5923  34.4312
    35.8400  35.9268  35.9986  37.7122

          k = 0.0000 0.3333 0.1486 (  5079 PWs)   bands (ev):

   -10.3132  -9.9625  -9.6230  -9.6190  -9.5050  -9.4632  -9.3559  -9.3229
    -9.3217  -9.3148  -7.6820  -6.7656  -5.6387  -4.8741   3.3764   5.2784
     6.6053   7.3567   7.7800   8.2996   8.7922   9.2313   9.2787   9.3926
    10.0496  10.3248  14.0484  16.1631  17.8725  18.0092  20.9293  21.7216
    22.5349  23.0119  23.2368  23.4458  24.2944  25.8439  27.3239  28.7041
    29.2203  30.5566  31.5229  31.8193  31.9728  32.2121  32.8845  34.0849
    34.8994  36.4720  36.8466  37.4174

          k = 0.0000 0.3333 0.2971 (  5078 PWs)   bands (ev):

   -10.2455 -10.0156  -9.7586  -9.6526  -9.4695  -9.4431  -9.3548  -9.3419
    -9.3381  -9.3141  -7.5047  -6.5343  -5.3874  -4.8652   3.3973   5.3045
     6.0138   6.3700   7.8332   8.1004   8.4548   8.9978   9.2005   9.6579
     9.9401  10.2586  14.7723  16.6679  18.8162  18.8435  20.0671  21.2343
    22.7586  23.0718  23.1366  23.2644  24.0701  25.2058  26.3614  28.5818
    29.5161  30.2970  31.6715  32.3546  32.4607  33.5668  33.7185  34.2252
    35.0679  36.2076  37.4361  37.6021

          k = 0.0000 0.3333 0.4457 (  5067 PWs)   bands (ev):

   -10.2618 -10.1865  -9.7836  -9.5665  -9.4241  -9.4198  -9.3669  -9.3608
    -9.3348  -9.3132  -7.2500  -6.3551  -5.0836  -4.8350   3.4218   4.9291
     5.6325   5.8668   7.2831   7.3102   8.8216   9.0320   9.0693   9.7655
     9.8493  10.1211  15.6117  17.0756  19.4179  19.4743  19.9668  21.0010
    22.6817  22.8691  23.2011  23.2499  23.7490  24.6301  25.8044  28.1390
    29.3050  31.1729  32.2402  32.5321  32.7996  33.2713  33.7886  35.1934
    36.1756  36.5629  36.9036  38.0824

          k = 0.0000 0.3333 0.5942 (  5068 PWs)   bands (ev):

   -10.3490 -10.3280  -9.6881  -9.5487  -9.4115  -9.4042  -9.3407  -9.3330
    -9.3255  -9.3142  -6.9334  -6.3768  -4.8448  -4.7744   3.5124   4.2651
     5.4988   5.7239   6.7849   6.8061   8.9517   9.1107   9.2378   9.6688
     9.8031   9.9556  16.3494  17.1467  19.0903  19.3455  21.0050  21.3958
    22.5327  22.7038  23.2506  23.2865  23.5134  24.0467  25.8758  27.0807
    30.3057  31.2974  32.5411  32.9802  33.1236  33.4290  34.2297  35.0245
    35.5172  36.2113  36.6280  38.2480

          k = 0.0000 0.3333-0.7428 (  5072 PWs)   bands (ev):

   -10.3845 -10.3845  -9.5967  -9.5967  -9.4126  -9.4126  -9.3195  -9.3195
    -9.3091  -9.3091  -6.6062  -6.6062  -4.7468  -4.7468   3.7746   3.7746
     5.5544   5.5544   6.6365   6.6365   9.0228   9.0228   9.5485   9.5485
     9.7981   9.7981  16.8807  16.8807  19.0945  19.0945  21.5806  21.5806
    22.5050  22.5050  23.3469  23.3469  23.5598  23.5598  26.3250  26.3250
    31.0710  31.0710  32.9262  32.9262  33.5763  33.5763  34.2868  34.2868
    35.8332  35.8332  36.9025  36.9026

          k = 0.0000-0.5000 0.0000 (  5092 PWs)   bands (ev):

   -10.1751 -10.1750  -9.5327  -9.5327  -9.5201  -9.5201  -9.3374  -9.3374
    -9.3146  -9.3146  -7.3484  -7.3484  -5.2724  -5.2724   4.2158   4.2158
     7.6854   7.6854   7.8245   7.8245   8.7981   8.7981   9.5391   9.5391
    10.1492  10.1493  14.9790  14.9790  17.7849  17.7849  21.5988  21.5988
    23.1539  23.1539  23.1793  23.1793  24.5852  24.5852  28.6003  28.6003
    29.3565  29.3565  31.0632  31.0632  32.0926  32.0926  32.8475  32.8475
    36.5116  36.5116  37.6755  37.6756

          k = 0.0000-0.5000 0.1486 (  5068 PWs)   bands (ev):

   -10.1499 -10.1499  -9.6224  -9.6224  -9.4834  -9.4834  -9.3373  -9.3373
    -9.3212  -9.3212  -7.2635  -7.2635  -5.2196  -5.2196   4.2361   4.2361
     6.9003   6.9003   8.3134   8.3134   8.8078   8.8078   9.4067   9.4067
    10.1108  10.1109  15.2180  15.2180  18.1512  18.1512  21.1833  21.1833
    23.1733  23.1733  23.2841  23.2841  24.3897  24.3897  28.1906  28.1906
    29.4397  29.4397  31.8062  31.8062  32.3460  32.3460  32.8529  32.8529
    36.4243  36.4243  37.0521  37.0521

          k = 0.0000-0.5000 0.2971 (  5068 PWs)   bands (ev):

   -10.1432 -10.1432  -9.7024  -9.7024  -9.4549  -9.4549  -9.3471  -9.3471
    -9.3264  -9.3264  -7.0696  -7.0696  -5.0783  -5.0782   4.2570   4.2570
     6.0783   6.0783   7.9453   7.9453   9.1170   9.1170   9.3277   9.3277
    10.0127  10.0127  15.7795  15.7795  19.0357  19.0357  20.4082  20.4082
    23.1667  23.1667  23.3493  23.3493  23.9652  23.9652  27.5728  27.5728
    29.8506  29.8506  32.2456  32.2456  32.5634  32.5634  34.1858  34.1858
    35.3963  35.3963  37.1631  37.1631

          k = 0.0000-0.5000 0.4457 (  5072 PWs)   bands (ev):

   -10.2518 -10.2518  -9.6455  -9.6455  -9.4239  -9.4239  -9.3601  -9.3601
    -9.3226  -9.3226  -6.8670  -6.8670  -4.8997  -4.8997   4.1677   4.1677
     5.5265   5.5265   7.2688   7.2688   9.1573   9.1573   9.5587   9.5587
     9.9283   9.9283  16.3790  16.3790  19.4024  19.4024  20.3688  20.3688
    23.0841  23.0841  23.1843  23.1843  23.7071  23.7071  27.0441  27.0441
    30.5910  30.5910  32.2299  32.2299  32.9083  32.9083  34.1603  34.1603
    35.9645  35.9645  37.3195  37.3195

          k = 0.0000-0.5000 0.5942 (  5062 PWs)   bands (ev):

   -10.3715 -10.3715  -9.5675  -9.5675  -9.4100  -9.4100  -9.3347  -9.3347
    -9.3182  -9.3181  -6.7203  -6.7203  -4.7561  -4.7561   3.9719   3.9719
     5.2994   5.2994   6.7728   6.7728   9.0803   9.0803   9.6906   9.6906
     9.9632   9.9632  16.8109  16.8109  18.9169  18.9169  21.2431  21.2431
    22.9547  22.9547  23.0005  23.0005  23.5530  23.5530  26.7172  26.7172
    31.2958  31.2958  32.5080  32.5080  32.9468  32.9468  34.0937  34.0937
    35.4873  35.4873  37.6776  37.6777

          k = 0.0000-0.5000-0.7428 (  5056 PWs)   bands (ev):

   -10.4179 -10.4179  -9.5432  -9.5432  -9.4104  -9.4103  -9.3183  -9.3183
    -9.3059  -9.3059  -6.6666  -6.6666  -4.7025  -4.7025   3.8765   3.8765
     5.2368   5.2368   6.6086   6.6086   9.0327   9.0327   9.7111   9.7111
    10.0116  10.0116  16.9719  16.9719  18.7096  18.7096  21.6665  21.6665
    22.8912  22.8912  22.9063  22.9063  23.4640  23.4640  26.6129  26.6129
    31.5010  31.5010  32.6357  32.6357  33.4946  33.4946  33.8283  33.8283
    35.1659  35.1659  37.1969  37.1969

          k = 0.1667 0.1667 0.0000 (  5055 PWs)   bands (ev):

   -10.4319  -9.8914  -9.5433  -9.5282  -9.5217  -9.4852  -9.3686  -9.3125
    -9.3091  -9.3056  -7.9147  -6.2988  -6.2966  -4.7319   3.0146   6.1235
     6.7498   7.0532   7.9926   8.4656   9.0152   9.1709   9.4607   9.5443
     9.9919  10.5135  12.9987  16.3107  17.3722  17.3965  21.3638  21.6439
    22.4414  22.7667  23.2471  23.4480  24.9778  27.8785  27.9596  28.6442
    29.3466  29.6205  30.1924  30.7840  32.9662  33.1324  33.5183  34.0137
    34.2514  36.2422  36.4380  37.1405

          k = 0.1667 0.1667 0.1486 (  5057 PWs)   bands (ev):

   -10.3906  -9.8625  -9.6216  -9.6139  -9.5213  -9.4525  -9.3657  -9.3210
    -9.3187  -9.3084  -7.8526  -6.2048  -6.1512  -4.7584   3.0162   5.9585
     6.8452   7.1335   7.6768   7.9906   8.9080   9.1158   9.3233   9.5542
    10.0166  10.5090  13.3692  16.5485  17.7350  17.7786  20.6358  22.1167
    22.4057  22.8119  23.2268  23.2938  24.7826  26.9619  27.7406  28.0652
    29.4894  30.3054  30.4311  31.7338  32.0730  33.5660  33.9791  34.2969
    34.5987  36.0223  36.2315  37.3116

          k = 0.1667 0.1667 0.2971 (  5049 PWs)   bands (ev):

   -10.2899  -9.9116  -9.8176  -9.6366  -9.4806  -9.4388  -9.3597  -9.3432
    -9.3426  -9.3082  -7.6760  -5.9971  -5.7915  -4.8257   3.0213   5.6133
     6.5738   7.1122   7.2637   7.7767   8.2384   8.6780   9.1389   9.8153
     9.9800  10.3973  14.2403  17.0108  18.6372  18.7177  19.8628  22.1403
    22.2722  22.9299  23.1354  23.2003  24.3361  25.8147  26.7707  27.6920
    29.6930  30.9110  31.0142  31.5369  32.7578  33.9168  34.1818  35.3293
    35.7741  36.1368  36.1697  37.6507

          k = 0.1667 0.1667 0.4457 (  5062 PWs)   bands (ev):

   -10.2495 -10.0347  -9.9763  -9.5575  -9.4264  -9.4070  -9.3782  -9.3641
    -9.3429  -9.3093  -7.3856  -5.8849  -5.3718  -4.8625   3.0555   5.0941
     5.8100   7.0640   7.1048   7.5322   7.7171   8.7375   9.0352   9.8386
     9.8691  10.1339  15.2175  17.2649  19.2781  19.7796  19.8160  21.7664
    22.0234  22.7903  23.2347  23.4795  23.9777  24.9048  25.7533  27.7961
    29.1368  30.9743  31.4397  32.6163  33.4735  33.5561  34.2877  35.7212
    36.2821  37.1773  37.4279  37.8342

          k = 0.1667 0.1667 0.5942 (  5075 PWs)   bands (ev):

   -10.3391 -10.1898  -9.8764  -9.5651  -9.4082  -9.4008  -9.3485  -9.3329
    -9.3311  -9.3131  -6.9857  -6.0671  -5.0409  -4.7928   3.1895   4.3497
     5.6472   6.5195   6.5526   7.5919   7.9239   9.0084   9.1327   9.6855
     9.7044   9.7755  16.0445  17.1754  19.0448  20.5607  20.7242  21.4891
    21.7322  22.7441  23.3798  23.5157  24.1032  24.1918  25.2052  27.1920
    29.7460  30.8734  31.7041  32.9608  33.8506  34.5704  34.7885  35.3634
    35.4034  36.8857  37.5555  37.8468

          k = 0.1667 0.1667-0.7428 (  5056 PWs)   bands (ev):

   -10.3832 -10.2452  -9.8107  -9.5904  -9.4139  -9.4094  -9.3214  -9.3196
    -9.3175  -9.3105  -6.6249  -6.3719  -4.9149  -4.7391   3.3640   3.9284
     5.6588   6.2698   6.3416   7.5379   8.1169   9.3239   9.3540   9.3627
     9.4898   9.6400  16.4809  16.9768  18.9704  20.7198  21.1634  21.5200
    21.5771  22.6897  23.5235  23.6800  23.6870  24.1959  25.0477  26.8596
    30.2402  30.8074  31.9827  33.2798  33.9547  34.0219  34.8011  35.5124
    35.8880  36.2717  37.2864  38.1832

          k = 0.1667 0.3333 0.0000 (  5061 PWs)   bands (ev):

   -10.3394 -10.0265  -9.5381  -9.5267  -9.5201  -9.5131  -9.3545  -9.3200
    -9.3146  -9.3076  -7.6406  -6.7280  -5.9136  -5.0001   3.5768   5.3705
     7.0585   7.3202   8.1304   8.3375   8.3818   9.1029   9.4680   9.5429
    10.0017  10.2601  14.0295  15.8696  17.6632  17.7573  21.3863  22.0120
    22.2807  22.9230  23.2090  23.9900  24.1726  26.1889  28.1795  28.5126
    29.0583  29.1308  29.6871  31.4947  31.5995  33.2743  33.8806  34.6192
    35.2221  36.0920  36.8114  37.2424

          k = 0.1667 0.3333 0.1486 (  5065 PWs)   bands (ev):

   -10.3022 -10.0013  -9.6226  -9.6169  -9.5101  -9.4682  -9.3525  -9.3238
    -9.3212  -9.3159  -7.5690  -6.6282  -5.8183  -4.9848   3.5731   5.2878
     6.7447   7.3128   7.6430   8.2625   8.6875   9.1200   9.2297   9.4997
    10.0082  10.2984  14.2825  16.0773  18.0216  18.1060  20.8405  21.8033
    22.4800  22.9980  23.2059  23.8231  24.0764  26.1401  27.2673  28.2789
    28.8885  30.0895  30.5223  30.9154  32.0806  33.6570  33.9312  34.4601
    35.0648  35.9533  36.6848  37.5371

          k = 0.1667 0.3333 0.2971 (  5069 PWs)   bands (ev):

   -10.2286 -10.0154  -9.7889  -9.6704  -9.4737  -9.4428  -9.3533  -9.3437
    -9.3376  -9.3158  -7.3903  -6.4190  -5.5633  -4.9359   3.5352   4.9832
     6.3771   6.5710   7.6760   7.8972   8.2986   9.0406   9.4155   9.5359
     9.9553  10.2757  14.8941  16.5026  18.9158  18.9366  20.0003  21.4069
    22.4695  23.0930  23.1934  23.5936  23.8085  25.7396  26.3262  28.1160
    29.2837  30.3013  30.9413  31.7219  32.1233  33.1743  34.4212  35.2503
    35.6362  36.2242  36.8139  37.3514

          k = 0.1667 0.3333 0.4457 (  5075 PWs)   bands (ev):

   -10.2635 -10.1303  -9.8520  -9.5904  -9.4266  -9.4102  -9.3729  -9.3610
    -9.3334  -9.3143  -7.1487  -6.2739  -5.2392  -4.8490   3.4298   4.5045
     5.7620   6.4849   7.0207   7.3284   8.5121   9.0973   9.3685   9.7367
     9.8694  10.1316  15.5785  16.7870  19.2990  19.7513  20.0070  21.1805
    22.2794  22.9585  23.2708  23.3681  23.7892  25.1111  25.6545  28.4538
    28.9348  30.6179  31.2982  31.8756  32.8308  33.1856  34.3901  35.3306
    36.4718  37.0268  37.3009  37.8574

          k = 0.1667 0.3333 0.5942 (  5073 PWs)   bands (ev):

   -10.3724 -10.2552  -9.7753  -9.5431  -9.4119  -9.4033  -9.3429  -9.3328
    -9.3249  -9.3147  -6.8683  -6.3028  -4.9716  -4.7477   3.3232   4.0359
     5.5200   6.1864   6.4778   7.1616   8.6972   9.2588   9.4238   9.6702
     9.8469   9.9285  16.1079  16.8248  18.8561  19.9971  20.9520  21.4451
    22.0575  22.8596  23.1985  23.5034  23.7797  24.4162  25.5166  27.6974
    29.8333  30.5245  31.3684  32.4247  33.4492  33.9107  34.5934  34.9566
    36.0296  36.3432  37.2513  37.9654

          k = 0.1667 0.3333-0.7428 (  5080 PWs)   bands (ev):

   -10.4178 -10.3047  -9.7330  -9.5373  -9.4157  -9.4105  -9.3196  -9.3181
    -9.3125  -9.3071  -6.6674  -6.4203  -4.8683  -4.7005   3.2926   3.8336
     5.4685   6.0026   6.2874   7.1670   8.7587   9.3668   9.5119   9.6517
     9.6873   9.8742  16.3204  16.7947  18.6810  19.9940  21.3929  21.6348
    21.9717  22.7934  23.2170  23.7087  23.8141  23.9020  25.5404  27.3816
    30.2675  30.4252  31.4249  33.1364  33.9864  34.0269  34.1264  34.8445
    35.6364  36.1939  37.3990  37.6064

          k = 0.1667-0.5000 0.0000 (  5080 PWs)   bands (ev):

   -10.1947 -10.1947  -9.5292  -9.5292  -9.5227  -9.5226  -9.3364  -9.3364
    -9.3121  -9.3121  -7.2199  -7.2199  -5.4326  -5.4326   4.4164   4.4164
     7.6523   7.6523   7.7081   7.7081   8.7994   8.7994   9.5069   9.5069
    10.0759  10.0759  15.0796  15.0796  17.8890  17.8890  21.5663  21.5663
    23.1357  23.1357  23.1864  23.1864  24.7735  24.7735  28.6225  28.6225
    29.2025  29.2025  29.6451  29.6451  32.9590  32.9590  33.6302  33.6302
    36.2368  36.2368  37.5525  37.5526

          k = 0.1667-0.5000 0.1486 (  5068 PWs)   bands (ev):

   -10.1641 -10.1641  -9.6208  -9.6208  -9.4900  -9.4900  -9.3361  -9.3360
    -9.3205  -9.3205  -7.1348  -7.1348  -5.3745  -5.3745   4.3924   4.3924
     6.9347   6.9347   8.2032   8.2032   8.7021   8.7021   9.4256   9.4256
    10.0909  10.0910  15.2822  15.2822  18.2366  18.2366  21.1989  21.1990
    23.0910  23.0910  23.2142  23.2142  24.7719  24.7719  27.8979  27.8979
    29.5061  29.5061  30.2785  30.2785  32.8190  32.8190  34.0654  34.0654
    36.3708  36.3708  36.7181  36.7182

          k = 0.1667-0.5000 0.2971 (  5070 PWs)   bands (ev):

   -10.1327 -10.1327  -9.7297  -9.7297  -9.4591  -9.4591  -9.3475  -9.3475
    -9.3269  -9.3268  -6.9444  -6.9444  -5.2142  -5.2142   4.2561   4.2561
     6.3014   6.3014   7.7895   7.7895   8.9770   8.9770   9.3871   9.3871
    10.0546  10.0546  15.7379  15.7379  19.0687  19.0687  20.5147  20.5147
    22.9630  22.9631  23.2366  23.2366  24.5564  24.5564  27.4109  27.4109
    29.5672  29.5672  31.2442  31.2442  32.6072  32.6072  34.9875  34.9875
    35.9158  35.9158  36.6719  36.6719

          k = 0.1667-0.5000 0.4457 (  5072 PWs)   bands (ev):

   -10.2225 -10.2225  -9.7012  -9.7012  -9.4199  -9.4199  -9.3646  -9.3646
    -9.3228  -9.3228  -6.7523  -6.7523  -5.0033  -5.0033   3.9395   3.9395
     5.9680   5.9680   7.1129   7.1129   9.2202   9.2202   9.4731   9.4731
     9.9693   9.9693  16.1553  16.1553  19.5324  19.5324  20.4590  20.4590
    22.7353  22.7353  23.2604  23.2604  24.2664  24.2664  27.0466  27.0466
    29.9909  29.9909  31.6712  31.6712  32.5903  32.5903  34.7242  34.7242
    36.5222  36.5222  37.4824  37.4824

          k = 0.1667-0.5000 0.5942 (  5070 PWs)   bands (ev):

   -10.3402 -10.3402  -9.6285  -9.6285  -9.4089  -9.4089  -9.3364  -9.3364
    -9.3186  -9.3185  -6.6180  -6.6180  -4.8266  -4.8266   3.6112   3.6112
     5.7932   5.7932   6.6967   6.6967   9.2173   9.2173   9.6669   9.6669
     9.8975   9.8975  16.3696  16.3696  19.2570  19.2570  21.2340  21.2340
    22.5340  22.5340  23.2805  23.2805  24.0199  24.0199  26.7932  26.7932
    30.4733  30.4733  31.5498  31.5498  33.2881  33.2881  34.6233  34.6234
    36.0046  36.0046  37.9871  37.9872

          k = 0.1667-0.5000-0.7428 (  5092 PWs)   bands (ev):

   -10.3869 -10.3869  -9.6021  -9.6021  -9.4128  -9.4128  -9.3180  -9.3180
    -9.3081  -9.3081  -6.5698  -6.5698  -4.7587  -4.7587   3.4802   3.4802
     5.6989   5.6989   6.5992   6.5992   9.1874   9.1874   9.7634   9.7634
     9.8607   9.8607  16.4214  16.4214  19.1392  19.1392  21.6216  21.6217
    22.4257  22.4257  23.3132  23.3132  23.8785  23.8785  26.7076  26.7076
    30.6799  30.6799  31.4580  31.4580  34.1206  34.1206  34.5750  34.5750
    35.2570  35.2570  37.9218  37.9223

          k = 0.3333 0.3333 0.0000 (  5051 PWs)   bands (ev):

   -10.3044 -10.1273  -9.5307  -9.5294  -9.5230  -9.5175  -9.3454  -9.3254
    -9.3119  -9.3051  -7.3282  -6.3555  -6.3429  -5.3530   4.1485   5.4373
     6.8442   7.5060   7.8475   7.9876   8.5351   9.0296   9.4233   9.4975
     9.9193  10.0788  14.6531  15.6870  17.9464  17.9843  21.3263  21.9137
    22.6964  22.9365  23.2288  23.7922  24.3990  25.5925  28.1046  28.3707
    28.6736  28.6904  28.9457  31.5762  32.2084  32.5390  34.2134  34.6896
    35.7434  36.1800  36.9123  37.6113

          k = 0.3333 0.3333 0.1486 (  5071 PWs)   bands (ev):

   -10.2640 -10.0933  -9.6207  -9.6159  -9.5121  -9.4840  -9.3438  -9.3250
    -9.3221  -9.3171  -7.2503  -6.3127  -6.2081  -5.3103   4.0944   5.1837
     6.9375   7.1701   7.5670   8.2717   8.3935   8.8233   9.3177   9.6138
     9.9380  10.1674  14.8296  15.8417  18.2788  18.2998  20.9138  21.8560
    22.3321  23.1468  23.2354  23.4420  24.6309  26.0492  27.2148  27.7099
    28.2383  29.6254  29.9085  30.9853  32.5238  33.2409  34.1432  34.7418
    34.8015  36.0754  37.2824  37.7912

          k = 0.3333 0.3333 0.2971 (  5075 PWs)   bands (ev):

   -10.1797 -10.0387  -9.8212  -9.7238  -9.4737  -9.4525  -9.3503  -9.3451
    -9.3344  -9.3205  -7.0708  -6.2471  -5.8437  -5.1830   3.8784   4.6113
     6.5559   7.1810   7.4349   7.5950   8.0641   9.1474   9.3071   9.6721
     9.9345  10.2252  15.2271  16.1236  19.0595  19.0846  20.1918  21.6611
    21.8879  23.0015  23.2953  23.3175  24.7034  26.1669  26.8060  27.0059
    28.5803  29.4637  30.6968  31.2867  32.3564  33.0263  34.4390  35.0984
    35.6591  36.0227  37.2196  38.1703

          k = 0.3333 0.3333 0.4457 (  5074 PWs)   bands (ev):

   -10.2269 -10.0397  -9.9574  -9.6866  -9.4214  -9.4048  -9.3786  -9.3650
    -9.3289  -9.3177  -6.8635  -6.2066  -5.4182  -4.9976   3.4908   3.9902
     6.2782   6.7609   6.7641   7.6134   8.0799   9.4057   9.4390   9.6535
     9.9084  10.1394  15.5874  16.2290  19.4535  19.8254  20.2162  21.4526
    21.6991  22.7009  23.2829  23.5184  24.8010  25.4486  25.8591  28.1656
    28.9729  28.9926  30.3996  31.6957  32.2379  33.4223  34.9012  35.2378
    36.4463  36.7727  37.1201  38.4228

          k = 0.3333 0.3333 0.5942 (  5082 PWs)   bands (ev):

   -10.3415 -10.1955  -9.8567  -9.6222  -9.4092  -9.4017  -9.3445  -9.3353
    -9.3223  -9.3162  -6.6638  -6.2349  -5.0824  -4.8300   3.1306   3.5185
     6.1784   6.1847   6.2538   7.9811   8.1309   9.5460   9.5950   9.6329
     9.8582   9.9542  15.7759  16.1482  19.1466  20.1349  20.9676  21.5396
    21.7747  22.4954  23.2759  23.7810  24.9086  24.9858  25.2335  28.6838
    28.8560  29.1813  30.0594  31.9071  32.8913  34.1849  34.9030  35.3419
    36.0675  37.1099  37.4272  37.4623

          k = 0.3333 0.3333-0.7428 (  5096 PWs)   bands (ev):

   -10.3879 -10.2511  -9.8178  -9.6012  -9.4145  -9.4105  -9.3185  -9.3168
    -9.3146  -9.3090  -6.5522  -6.2856  -4.9545  -4.7628   2.9886   3.3454
     5.9579   5.9703   6.2737   8.1408   8.1523   9.6291   9.6412   9.6788
     9.7503   9.8614  15.8275  16.0860  19.0291  20.1459  21.2360  21.6758
    21.9452  22.3648  23.3010  23.9775  24.5582  25.0351  25.0777  28.5971
    28.6856  29.5806  30.0752  31.9885  33.6030  34.4271  34.8542  35.3955
    35.4289  36.7035  37.7044  37.7853

          k = 0.3333-0.5000 0.0000 (  5050 PWs)   bands (ev):

   -10.2317 -10.2317  -9.5276  -9.5276  -9.5233  -9.5233  -9.3345  -9.3345
    -9.3072  -9.3072  -6.8671  -6.8671  -5.8469  -5.8469   4.8962   4.8963
     7.2176   7.2176   7.7558   7.7559   8.8115   8.8115   9.4395   9.4396
     9.9383   9.9383  15.2782  15.2783  18.0868  18.0868  21.5966  21.5966
    23.1817  23.1817  23.2519  23.2519  24.6536  24.6536  28.2690  28.2690
    28.6506  28.6506  29.8775  29.8775  33.2814  33.2814  33.4072  33.4072
    36.3602  36.3602  36.7453  36.7453

          k = 0.3333-0.5000 0.1486 (  5072 PWs)   bands (ev):

   -10.1916 -10.1916  -9.6180  -9.6179  -9.5020  -9.5019  -9.3334  -9.3333
    -9.3191  -9.3191  -6.7849  -6.7849  -5.7760  -5.7760   4.7377   4.7377
     6.9923   6.9923   7.9701   7.9701   8.4717   8.4717   9.5293   9.5293
     9.9924   9.9924  15.4147  15.4147  18.3937  18.3937  21.3648  21.3648
    22.7590  22.7590  23.3139  23.3139  25.1983  25.1983  27.5175  27.5175
    28.6703  28.6703  30.4545  30.4545  33.0031  33.0031  33.9936  33.9936
    35.4545  35.4545  37.8115  37.8115

          k = 0.3333-0.5000 0.2971 (  5062 PWs)   bands (ev):

   -10.1071 -10.1071  -9.7894  -9.7894  -9.4657  -9.4656  -9.3471  -9.3471
    -9.3275  -9.3275  -6.6189  -6.6189  -5.5626  -5.5626   4.2675   4.2675
     6.8369   6.8370   7.5418   7.5418   8.5048   8.5048   9.6149   9.6149
    10.0458  10.0458  15.6726  15.6726  19.1154  19.1154  20.8784  20.8784
    22.3482  22.3482  23.4164  23.4164  25.6155  25.6155  27.0583  27.0583
    28.3802  28.3802  30.9770  30.9770  32.8038  32.8038  34.7750  34.7750
    35.4511  35.4511  37.6028  37.6028

          k = 0.3333-0.5000 0.4457 (  5074 PWs)   bands (ev):

   -10.1384 -10.1384  -9.8351  -9.8351  -9.4121  -9.4120  -9.3726  -9.3726
    -9.3229  -9.3229  -6.4777  -6.4777  -5.2595  -5.2595   3.6612   3.6612
     6.6196   6.6196   7.0665   7.0665   8.7879   8.7879   9.6751   9.6751
    10.0171  10.0171  15.7921  15.7921  19.6625  19.6625  20.7857  20.7857
    22.1077  22.1077  23.5594  23.5594  25.3742  25.3742  26.9820  26.9820
    28.5790  28.5790  30.7363  30.7363  33.0323  33.0323  35.1009  35.1009
    36.2592  36.2592  37.6429  37.6429

          k = 0.3333-0.5000 0.5942 (  5082 PWs)   bands (ev):

   -10.2591 -10.2591  -9.7669  -9.7669  -9.4038  -9.4038  -9.3411  -9.3410
    -9.3188  -9.3188  -6.3901  -6.3901  -4.9956  -4.9956   3.1831   3.1831
     6.0871   6.0871   7.1705   7.1705   8.9954   8.9954   9.7197   9.7197
     9.9364   9.9364  15.7454  15.7454  19.6283  19.6283  21.2862  21.2862
    22.0295  22.0295  23.6515  23.6515  25.0902  25.0902  26.8406  26.8406
    29.0684  29.0684  30.4031  30.4031  33.5837  33.5837  35.2649  35.2649
    36.3832  36.3832  37.9211  37.9212

          k = 0.3333-0.5000-0.7428 (  5076 PWs)   bands (ev):

   -10.3086 -10.3086  -9.7376  -9.7376  -9.4113  -9.4113  -9.3175  -9.3175
    -9.3128  -9.3128  -6.3599  -6.3599  -4.8918  -4.8918   3.0052   3.0052
     5.8753   5.8753   7.2400   7.2400   9.0740   9.0740   9.7418   9.7418
     9.8867   9.8867  15.7000  15.7000  19.5565  19.5565  21.5727  21.5727
    22.0058  22.0058  23.6868  23.6868  24.9603  24.9603  26.7839  26.7839
    29.2979  29.2979  30.3027  30.3027  33.9422  33.9422  35.2857  35.2857
    36.4506  36.4506  37.2516  37.2516

          k =-0.5000-0.5000 0.0000 (  5076 PWs)   bands (ev):

   -10.2492 -10.2492  -9.5300  -9.5300  -9.5207  -9.5207  -9.3335  -9.3335
    -9.3048  -9.3048  -6.3852  -6.3852  -6.3590  -6.3590   5.2183   5.2183
     6.9128   6.9129   7.7806   7.7806   8.8216   8.8216   9.4043   9.4043
     9.8721   9.8721  15.3772  15.3772  18.1758  18.1758  21.6713  21.6713
    23.2846  23.2846  23.3689  23.3689  24.1979  24.1979  28.0422  28.0422
    28.6560  28.6560  30.6232  30.6232  32.1432  32.1432  33.9498  33.9498
    35.3957  35.3957  37.0501  37.0501

          k =-0.5000-0.5000 0.1486 (  5064 PWs)   bands (ev):

   -10.2049 -10.2049  -9.6167  -9.6167  -9.5073  -9.5073  -9.3319  -9.3319
    -9.3185  -9.3185  -6.3498  -6.3498  -6.2365  -6.2365   4.9359   4.9359
     6.9992   6.9992   7.8686   7.8687   8.3358   8.3358   9.6457   9.6457
     9.8803   9.8803  15.4832  15.4832  18.4609  18.4609  21.5934  21.5934
    22.4865  22.4865  23.4020  23.4020  25.1566  25.1566  27.7848  27.7848
    28.0028  28.0028  31.1769  31.1769  32.2986  32.2986  34.1866  34.1866
    34.7907  34.7907  38.1879  38.1884

          k =-0.5000-0.5000 0.2971 (  5096 PWs)   bands (ev):

   -10.0905 -10.0905  -9.8229  -9.8229  -9.4682  -9.4682  -9.3465  -9.3465
    -9.3279  -9.3279  -6.3243  -6.3243  -5.8696  -5.8696   4.2786   4.2786
     7.1642   7.1642   7.5934   7.5934   8.0399   8.0400   9.8509   9.8509
     9.9008   9.9008  15.6481  15.6481  19.1267  19.1267  21.3613  21.3613
    21.7698  21.7698  23.5439  23.5439  26.3817  26.3817  27.1761  27.1761
    27.2003  27.2003  31.1142  31.1142  32.7282  32.7282  34.7024  34.7024
    35.2152  35.2152  37.5415  37.5415

          k =-0.5000-0.5000 0.4457 (  5080 PWs)   bands (ev):

   -10.0421 -10.0421  -9.9551  -9.9551  -9.4077  -9.4077  -9.3769  -9.3769
    -9.3229  -9.3229  -6.2884  -6.2884  -5.4413  -5.4413   3.5614   3.5614
     6.6077   6.6077   7.6931   7.6931   8.1961   8.1961   9.9100   9.9100
     9.9269   9.9269  15.6416  15.6416  19.6791  19.6791  21.2216  21.2216
    21.5635  21.5635  23.7399  23.7399  26.5966  26.5966  26.7099  26.7099
    27.4208  27.4208  30.4288  30.4288  33.2720  33.2720  35.2019  35.2019
    36.4015  36.4015  36.9357  36.9357

          k =-0.5000-0.5000 0.5942 (  5100 PWs)   bands (ev):

   -10.1982 -10.1982  -9.8551  -9.8551  -9.4004  -9.4004  -9.3441  -9.3441
    -9.3188  -9.3188  -6.2553  -6.2553  -5.1030  -5.1030   3.0255   3.0255
     6.0281   6.0281   8.0255   8.0255   8.3012   8.3012   9.8671   9.8671
     9.9482   9.9482  15.4982  15.4982  19.7205  19.7205  21.4758  21.4758
    21.6655  21.6655  23.8427  23.8427  26.1710  26.1710  26.5367  26.5367
    28.1711  28.1711  30.0021  30.0021  33.6294  33.6294  35.5335  35.5335
    36.8978  36.8978  37.0780  37.0780

          k =-0.5000-0.5000-0.7428 (  5120 PWs)   bands (ev):

   -10.2539 -10.2539  -9.8201  -9.8200  -9.4092  -9.4092  -9.3173  -9.3172
    -9.3153  -9.3153  -6.2415  -6.2415  -4.9741  -4.9741   2.8278   2.8278
     5.8123   5.8123   8.1773   8.1773   8.3385   8.3385   9.8255   9.8255
     9.9562   9.9562  15.4191  15.4191  19.6517  19.6517  21.6576  21.6576
    21.7448  21.7448  23.8619  23.8619  26.0197  26.0197  26.4855  26.4855
    28.4637  28.4637  29.9094  29.9094  33.7060  33.7060  35.6471  35.6471
    37.2321  37.2321  37.2328  37.2328

          k =-0.1667 0.1667 0.0000 (  5055 PWs)   bands (ev):

   -10.4319  -9.8914  -9.5433  -9.5282  -9.5218  -9.4852  -9.3686  -9.3125
    -9.3091  -9.3056  -7.9147  -6.2988  -6.2966  -4.7319   3.0146   6.1235
     6.7497   7.0532   7.9926   8.4656   9.0152   9.1709   9.4607   9.5443
     9.9919  10.5135  12.9987  16.3107  17.3722  17.3965  21.3638  21.6439
    22.4414  22.7667  23.2471  23.4480  24.9778  27.8785  27.9596  28.6442
    29.3466  29.6205  30.1924  30.7840  32.9662  33.1324  33.5183  34.0137
    34.2514  36.2422  36.4380  37.1405

          k =-0.1667 0.1667-0.1486 (  5057 PWs)   bands (ev):

   -10.3906  -9.8625  -9.6216  -9.6139  -9.5213  -9.4525  -9.3657  -9.3210
    -9.3187  -9.3084  -7.8526  -6.2048  -6.1511  -4.7584   3.0162   5.9585
     6.8452   7.1335   7.6768   7.9906   8.9080   9.1158   9.3233   9.5542
    10.0166  10.5090  13.3692  16.5485  17.7350  17.7786  20.6358  22.1167
    22.4057  22.8119  23.2268  23.2938  24.7826  26.9619  27.7406  28.0652
    29.4894  30.3054  30.4311  31.7338  32.0730  33.5660  33.9791  34.2969
    34.5987  36.0223  36.2315  37.3116

          k =-0.1667 0.1667-0.2971 (  5049 PWs)   bands (ev):

   -10.2899  -9.9116  -9.8175  -9.6366  -9.4806  -9.4388  -9.3597  -9.3432
    -9.3426  -9.3082  -7.6760  -5.9971  -5.7915  -4.8257   3.0213   5.6133
     6.5738   7.1122   7.2637   7.7767   8.2384   8.6780   9.1389   9.8153
     9.9800  10.3973  14.2403  17.0108  18.6372  18.7177  19.8628  22.1403
    22.2722  22.9299  23.1354  23.2003  24.3361  25.8147  26.7707  27.6920
    29.6930  30.9110  31.0142  31.5369  32.7578  33.9168  34.1818  35.3293
    35.7741  36.1368  36.1697  37.6506

          k =-0.1667 0.1667-0.4457 (  5062 PWs)   bands (ev):

   -10.2495 -10.0346  -9.9764  -9.5575  -9.4264  -9.4070  -9.3782  -9.3641
    -9.3429  -9.3093  -7.3856  -5.8849  -5.3718  -4.8625   3.0555   5.0941
     5.8100   7.0640   7.1048   7.5322   7.7171   8.7375   9.0352   9.8386
     9.8691  10.1339  15.2175  17.2649  19.2781  19.7796  19.8160  21.7664
    22.0234  22.7903  23.2347  23.4795  23.9777  24.9048  25.7533  27.7961
    29.1367  30.9743  31.4397  32.6163  33.4735  33.5561  34.2877  35.7212
    36.2821  37.1773  37.4279  37.8341

          k =-0.1667 0.1667-0.5942 (  5075 PWs)   bands (ev):

   -10.3391 -10.1898  -9.8765  -9.5651  -9.4082  -9.4008  -9.3485  -9.3329
    -9.3311  -9.3131  -6.9857  -6.0671  -5.0409  -4.7928   3.1895   4.3497
     5.6472   6.5195   6.5526   7.5919   7.9239   9.0084   9.1327   9.6856
     9.7044   9.7755  16.0445  17.1754  19.0448  20.5607  20.7242  21.4891
    21.7322  22.7441  23.3798  23.5157  24.1032  24.1918  25.2052  27.1920
    29.7460  30.8734  31.7041  32.9608  33.8506  34.5704  34.7885  35.3634
    35.4034  36.8857  37.5556  37.8472

          k =-0.1667 0.1667 0.7428 (  5056 PWs)   bands (ev):

   -10.3832 -10.2452  -9.8107  -9.5903  -9.4139  -9.4094  -9.3214  -9.3196
    -9.3175  -9.3105  -6.6249  -6.3719  -4.9149  -4.7391   3.3640   3.9284
     5.6588   6.2698   6.3416   7.5379   8.1169   9.3239   9.3540   9.3627
     9.4898   9.6400  16.4809  16.9768  18.9704  20.7198  21.1634  21.5200
    21.5771  22.6897  23.5235  23.6800  23.6870  24.1959  25.0477  26.8596
    30.2402  30.8074  31.9827  33.2798  33.9547  34.0220  34.8011  35.5124
    35.8880  36.2717  37.2864  38.1819

          k =-0.1667 0.3333 0.0000 (  5061 PWs)   bands (ev):

   -10.3394 -10.0265  -9.5381  -9.5267  -9.5201  -9.5131  -9.3545  -9.3200
    -9.3146  -9.3076  -7.6406  -6.7280  -5.9136  -5.0001   3.5768   5.3705
     7.0585   7.3202   8.1304   8.3375   8.3818   9.1029   9.4680   9.5429
    10.0017  10.2601  14.0295  15.8696  17.6632  17.7573  21.3863  22.0120
    22.2807  22.9230  23.2090  23.9900  24.1726  26.1889  28.1795  28.5126
    29.0583  29.1308  29.6871  31.4947  31.5995  33.2743  33.8806  34.6192
    35.2221  36.0920  36.8114  37.2425

          k =-0.1667 0.3333-0.1486 (  5065 PWs)   bands (ev):

   -10.3022 -10.0013  -9.6226  -9.6169  -9.5101  -9.4682  -9.3525  -9.3238
    -9.3212  -9.3159  -7.5690  -6.6282  -5.8183  -4.9848   3.5731   5.2878
     6.7447   7.3128   7.6430   8.2625   8.6875   9.1200   9.2297   9.4997
    10.0082  10.2984  14.2825  16.0773  18.0216  18.1060  20.8405  21.8033
    22.4800  22.9980  23.2059  23.8231  24.0764  26.1401  27.2673  28.2789
    28.8885  30.0895  30.5223  30.9154  32.0806  33.6570  33.9312  34.4601
    35.0648  35.9533  36.6848  37.5371

          k =-0.1667 0.3333-0.2971 (  5069 PWs)   bands (ev):

   -10.2286 -10.0154  -9.7888  -9.6704  -9.4737  -9.4428  -9.3533  -9.3437
    -9.3376  -9.3158  -7.3903  -6.4190  -5.5633  -4.9359   3.5352   4.9832
     6.3771   6.5710   7.6760   7.8972   8.2986   9.0406   9.4155   9.5359
     9.9553  10.2757  14.8941  16.5026  18.9158  18.9366  20.0003  21.4069
    22.4695  23.0930  23.1934  23.5936  23.8085  25.7396  26.3262  28.1160
    29.2837  30.3013  30.9413  31.7219  32.1233  33.1743  34.4212  35.2503
    35.6362  36.2242  36.8139  37.3514

          k =-0.1667 0.3333-0.4457 (  5075 PWs)   bands (ev):

   -10.2635 -10.1303  -9.8520  -9.5904  -9.4266  -9.4102  -9.3729  -9.3610
    -9.3334  -9.3143  -7.1487  -6.2739  -5.2392  -4.8490   3.4298   4.5045
     5.7620   6.4849   7.0207   7.3284   8.5121   9.0973   9.3685   9.7367
     9.8694  10.1316  15.5785  16.7870  19.2990  19.7513  20.0070  21.1805
    22.2794  22.9585  23.2708  23.3681  23.7892  25.1111  25.6545  28.4538
    28.9348  30.6179  31.2982  31.8756  32.8308  33.1856  34.3901  35.3306
    36.4718  37.0268  37.3009  37.8576

          k =-0.1667 0.3333-0.5942 (  5073 PWs)   bands (ev):

   -10.3724 -10.2552  -9.7753  -9.5431  -9.4119  -9.4034  -9.3429  -9.3328
    -9.3249  -9.3147  -6.8683  -6.3028  -4.9716  -4.7477   3.3232   4.0359
     5.5200   6.1864   6.4778   7.1616   8.6972   9.2588   9.4238   9.6702
     9.8469   9.9285  16.1079  16.8248  18.8561  19.9971  20.9520  21.4451
    22.0575  22.8596  23.1985  23.5034  23.7797  24.4162  25.5166  27.6974
    29.8333  30.5245  31.3684  32.4247  33.4492  33.9107  34.5934  34.9566
    36.0296  36.3431  37.2513  37.9655

          k =-0.1667 0.3333 0.7428 (  5080 PWs)   bands (ev):

   -10.4178 -10.3047  -9.7330  -9.5373  -9.4157  -9.4105  -9.3196  -9.3181
    -9.3125  -9.3071  -6.6674  -6.4203  -4.8683  -4.7005   3.2926   3.8336
     5.4685   6.0026   6.2874   7.1670   8.7587   9.3668   9.5119   9.6517
     9.6873   9.8742  16.3204  16.7947  18.6810  19.9940  21.3929  21.6348
    21.9717  22.7934  23.2170  23.7087  23.8141  23.9020  25.5404  27.3816
    30.2675  30.4252  31.4249  33.1364  33.9864  34.0269  34.1264  34.8445
    35.6364  36.1939  37.3990  37.6063

          k =-0.3333 0.3333 0.0000 (  5051 PWs)   bands (ev):

   -10.3044 -10.1273  -9.5307  -9.5294  -9.5230  -9.5175  -9.3454  -9.3254
    -9.3119  -9.3051  -7.3282  -6.3555  -6.3429  -5.3530   4.1485   5.4373
     6.8442   7.5060   7.8475   7.9876   8.5351   9.0296   9.4233   9.4975
     9.9193  10.0788  14.6531  15.6870  17.9464  17.9843  21.3263  21.9137
    22.6964  22.9365  23.2288  23.7922  24.3990  25.5925  28.1046  28.3707
    28.6736  28.6904  28.9457  31.5762  32.2083  32.5390  34.2134  34.6896
    35.7434  36.1800  36.9123  37.6093

          k =-0.3333 0.3333-0.1486 (  5071 PWs)   bands (ev):

   -10.2639 -10.0933  -9.6207  -9.6158  -9.5121  -9.4840  -9.3438  -9.3250
    -9.3220  -9.3171  -7.2503  -6.3127  -6.2081  -5.3103   4.0944   5.1837
     6.9375   7.1701   7.5670   8.2717   8.3935   8.8233   9.3177   9.6137
     9.9380  10.1674  14.8296  15.8417  18.2788  18.2998  20.9138  21.8560
    22.3322  23.1468  23.2354  23.4420  24.6309  26.0492  27.2148  27.7099
    28.2383  29.6254  29.9086  30.9853  32.5238  33.2409  34.1432  34.7418
    34.8015  36.0754  37.2824  37.7912

          k =-0.3333 0.3333-0.2971 (  5075 PWs)   bands (ev):

   -10.1797 -10.0387  -9.8212  -9.7238  -9.4737  -9.4525  -9.3503  -9.3451
    -9.3344  -9.3205  -7.0708  -6.2471  -5.8437  -5.1830   3.8784   4.6113
     6.5559   7.1810   7.4349   7.5950   8.0641   9.1474   9.3071   9.6721
     9.9345  10.2252  15.2271  16.1236  19.0595  19.0846  20.1918  21.6611
    21.8879  23.0015  23.2953  23.3175  24.7034  26.1669  26.8060  27.0059
    28.5803  29.4637  30.6968  31.2867  32.3564  33.0263  34.4390  35.0984
    35.6591  36.0227  37.2196  38.1703

          k =-0.3333 0.3333-0.4457 (  5074 PWs)   bands (ev):

   -10.2269 -10.0397  -9.9575  -9.6866  -9.4214  -9.4048  -9.3786  -9.3650
    -9.3289  -9.3177  -6.8635  -6.2066  -5.4182  -4.9976   3.4908   3.9902
     6.2782   6.7609   6.7641   7.6134   8.0799   9.4057   9.4390   9.6535
     9.9084  10.1394  15.5874  16.2290  19.4535  19.8254  20.2162  21.4526
    21.6991  22.7009  23.2829  23.5184  24.8010  25.4486  25.8591  28.1656
    28.9729  28.9926  30.3996  31.6957  32.2379  33.4223  34.9012  35.2378
    36.4463  36.7727  37.1201  38.4227

          k =-0.3333 0.3333-0.5942 (  5082 PWs)   bands (ev):

   -10.3415 -10.1954  -9.8567  -9.6222  -9.4092  -9.4017  -9.3445  -9.3353
    -9.3223  -9.3162  -6.6638  -6.2349  -5.0824  -4.8300   3.1306   3.5185
     6.1784   6.1847   6.2538   7.9811   8.1309   9.5460   9.5950   9.6329
     9.8582   9.9542  15.7759  16.1482  19.1466  20.1349  20.9676  21.5396
    21.7747  22.4954  23.2759  23.7810  24.9086  24.9858  25.2335  28.6838
    28.8560  29.1813  30.0594  31.9071  32.8913  34.1849  34.9030  35.3419
    36.0675  37.1099  37.4272  37.4623

          k =-0.3333 0.3333 0.7428 (  5096 PWs)   bands (ev):

   -10.3879 -10.2511  -9.8178  -9.6012  -9.4145  -9.4105  -9.3186  -9.3168
    -9.3146  -9.3090  -6.5522  -6.2856  -4.9545  -4.7628   2.9886   3.3454
     5.9579   5.9703   6.2737   8.1408   8.1523   9.6291   9.6412   9.6788
     9.7503   9.8614  15.8275  16.0860  19.0291  20.1459  21.2360  21.6758
    21.9453  22.3648  23.3010  23.9775  24.5582  25.0351  25.0777  28.5971
    28.6856  29.5806  30.0752  31.9885  33.6030  34.4272  34.8542  35.3955
    35.4289  36.7035  37.7043  37.7853

     the Fermi energy is    10.8942 ev

!    total energy              =    -369.21896292 Ry
     estimated scf accuracy    <          4.4E-11 Ry
     smearing contrib. (-TS)   =      -0.00000000 Ry
     internal energy E=F+TS    =    -369.21896292 Ry

     The total energy is F=E-TS. E is the sum of the following terms:
     one-electron contribution =     -82.23681900 Ry
     hartree contribution      =      76.84101705 Ry
     xc contribution           =     -58.06002435 Ry
     ewald contribution        =    -305.76313662 Ry

     convergence has been achieved in  10 iterations

     Writing all to output data dir out/mp-856.save/
 
     init_run     :      0.58s CPU      0.66s WALL (       1 calls)
     electrons    :     22.72s CPU     26.62s WALL (       1 calls)

     Called by init_run:
     wfcinit      :      0.53s CPU      0.59s WALL (       1 calls)
     potinit      :      0.02s CPU      0.02s WALL (       1 calls)
     hinit0       :      0.02s CPU      0.02s WALL (       1 calls)

     Called by electrons:
     c_bands      :     20.32s CPU     22.96s WALL (      10 calls)
     sum_band     :      2.34s CPU      3.52s WALL (      10 calls)
     v_of_rho     :      0.04s CPU      0.04s WALL (      11 calls)
     mix_rho      :      0.02s CPU      0.05s WALL (      10 calls)

     Called by c_bands:
     init_us_2    :      0.16s CPU      0.19s WALL (     819 calls)
     init_us_2:cp :      0.16s CPU      0.19s WALL (     819 calls)
     cegterg      :     18.78s CPU     19.30s WALL (     390 calls)

     Called by *egterg:
     cdiaghg      :      4.94s CPU      4.97s WALL (    1578 calls)
     h_psi        :     11.13s CPU     11.62s WALL (    1617 calls)
     g_psi        :      0.09s CPU      0.09s WALL (    1188 calls)

     Called by h_psi:
     h_psi:calbec :      0.66s CPU      0.69s WALL (    1617 calls)
     vloc_psi     :      9.92s CPU     10.37s WALL (    1617 calls)
     add_vuspsi   :      0.47s CPU      0.48s WALL (    1617 calls)

     General routines
     calbec       :      0.66s CPU      0.69s WALL (    1617 calls)
     fft          :      0.02s CPU      0.02s WALL (     109 calls)
     ffts         :      0.00s CPU      0.00s WALL (      10 calls)
     fftw         :     10.87s CPU     11.39s WALL (  135590 calls)
     davcio       :      0.19s CPU      3.32s WALL (    1354 calls)
 
     Parallel routines
 
     PWSCF        :     23.58s CPU     28.51s WALL

 
   This run was terminated on:  12: 8: 6   5Dec2023            

=------------------------------------------------------------------------------=
   JOB DONE.
=------------------------------------------------------------------------------=
