
     Program PWSCF v.7.1 starts on  7Dec2023 at 16:19:38 

     This program is part of the open-source Quantum ESPRESSO suite
     for quantum simulation of materials; please cite
         "P. Giannozzi et al., J. Phys.:Condens. Matter 21 395502 (2009);
         "P. Giannozzi et al., J. Phys.:Condens. Matter 29 465901 (2017);
         "P. Giannozzi et al., J. Chem. Phys. 152 154105 (2020);
          URL http://www.quantum-espresso.org", 
     in publications or presentations arising from this work. More details at
     http://www.quantum-espresso.org/quote

     Parallel version (MPI), running on    24 processors

     MPI processes distributed on     1 nodes
     121679 MiB available memory on the printing compute node when the environment starts
 
     Reading input from pw_mp-422_scf_k3000_E82.in
Warning: card &CELL ignored
Warning: card / ignored

     Current dimensions of program PWSCF are:
     Max number of different atomic species (ntypx) = 10
     Max number of k-points (npk) =  40000
     Max angular momentum in pseudopotentials (lmaxx) =  4
 
     K-points division:     npool     =       2
     R & G space division:  proc/nbgrp/npool/nimage =      12
     Subspace diagonalization in iterative solution of the eigenvalue problem:
     a serial algorithm will be used

 
     Parallelization info
     --------------------
     sticks:   dense  smooth     PW     G-vecs:    dense   smooth      PW
     Min          79      79     24                 1629     1629     273
     Max          80      80     25                 1633     1633     275
     Sum         955     955    295                19579    19579    3287
 
     Using Slab Decomposition
 


     bravais-lattice index     =            2
     lattice parameter (alat)  =       9.2035  a.u.
     unit-cell volume          =     194.8967 (a.u.)^3
     number of atoms/cell      =            2
     number of atomic types    =            2
     number of electrons       =        10.00
     number of Kohn-Sham states=           10
     kinetic-energy cutoff     =      82.0000  Ry
     charge density cutoff     =     328.0000  Ry
     scf convergence threshold =      1.0E-10
     mixing beta               =       0.7000
     number of iterations used =            8  plain     mixing
     Exchange-correlation= PBE
                           (   1   4   3   4   0   0   0)

     celldm(1)=   9.203539  celldm(2)=   0.000000  celldm(3)=   0.000000
     celldm(4)=   0.000000  celldm(5)=   0.000000  celldm(6)=   0.000000

     crystal axes: (cart. coord. in units of alat)
               a(1) = (  -0.500000   0.000000   0.500000 )  
               a(2) = (   0.000000   0.500000   0.500000 )  
               a(3) = (  -0.500000   0.500000   0.000000 )  

     reciprocal axes: (cart. coord. in units 2 pi/alat)
               b(1) = ( -1.000000 -1.000000  1.000000 )  
               b(2) = (  1.000000  1.000000  1.000000 )  
               b(3) = ( -1.000000  1.000000 -1.000000 )  


     PseudoPot. # 1 for Be read from file:
     /usr/scratch4/magr4985/MG/HTDF/pseudo/SG15/Be.upf
     MD5 check sum: dc1f98d164da9dc61a6fd2fad64b4ce2
     Pseudo is Norm-conserving, Zval =  4.0
     Generated using ONCVPSP code by D. R. Hamann
     Using radial grid of  602 points,  4 beta functions with: 
                l(1) =   0
                l(2) =   0
                l(3) =   1
                l(4) =   1

     PseudoPot. # 2 for S  read from file:
     /usr/scratch4/magr4985/MG/HTDF/pseudo/SG15/S.upf
     MD5 check sum: f9d020296ee6110346977bfd66d424f6
     Pseudo is Norm-conserving, Zval =  6.0
     Generated using ONCVPSP code by D. R. Hamann
     Using radial grid of  602 points,  4 beta functions with: 
                l(1) =   0
                l(2) =   0
                l(3) =   1
                l(4) =   1

     atomic species   valence    mass     pseudopotential
        Be             4.00     9.01220     Be( 1.00)
        S              6.00    32.06500     S ( 1.00)

     24 Sym. Ops. (no inversion) found



   Cartesian axes

     site n.     atom                  positions (alat units)
         1           Be  tau(   1) = (   0.0000000   0.0000000   0.0000000  )
         2           S   tau(   2) = (  -0.7500000   0.7500000   0.7500000  )

     number of k points=    72  Gaussian smearing, width (Ry)=  0.0005
                       cart. coord. in units 2pi/alat
        k(    1) = (   0.0000000   0.0000000   0.0000000), wk =   0.0011574
        k(    2) = (  -0.0833333   0.0833333  -0.0833333), wk =   0.0092593
        k(    3) = (  -0.1666667   0.1666667  -0.1666667), wk =   0.0092593
        k(    4) = (  -0.2500000   0.2500000  -0.2500000), wk =   0.0092593
        k(    5) = (  -0.3333333   0.3333333  -0.3333333), wk =   0.0092593
        k(    6) = (  -0.4166667   0.4166667  -0.4166667), wk =   0.0092593
        k(    7) = (   0.5000000  -0.5000000   0.5000000), wk =   0.0046296
        k(    8) = (   0.0000000   0.1666667   0.0000000), wk =   0.0069444
        k(    9) = (  -0.0833333   0.2500000  -0.0833333), wk =   0.0277778
        k(   10) = (  -0.1666667   0.3333333  -0.1666667), wk =   0.0277778
        k(   11) = (  -0.2500000   0.4166667  -0.2500000), wk =   0.0277778
        k(   12) = (  -0.3333333   0.5000000  -0.3333333), wk =   0.0277778
        k(   13) = (   0.5833333  -0.4166667   0.5833333), wk =   0.0277778
        k(   14) = (   0.5000000  -0.3333333   0.5000000), wk =   0.0277778
        k(   15) = (   0.4166667  -0.2500000   0.4166667), wk =   0.0277778
        k(   16) = (   0.3333333  -0.1666667   0.3333333), wk =   0.0277778
        k(   17) = (   0.2500000  -0.0833333   0.2500000), wk =   0.0277778
        k(   18) = (   0.1666667  -0.0000000   0.1666667), wk =   0.0138889
        k(   19) = (   0.0000000   0.3333333   0.0000000), wk =   0.0069444
        k(   20) = (  -0.0833333   0.4166667  -0.0833333), wk =   0.0277778
        k(   21) = (  -0.1666667   0.5000000  -0.1666667), wk =   0.0277778
        k(   22) = (  -0.2500000   0.5833333  -0.2500000), wk =   0.0277778
        k(   23) = (   0.6666667  -0.3333333   0.6666667), wk =   0.0277778
        k(   24) = (   0.5833333  -0.2500000   0.5833333), wk =   0.0277778
        k(   25) = (   0.5000000  -0.1666667   0.5000000), wk =   0.0277778
        k(   26) = (   0.4166667  -0.0833333   0.4166667), wk =   0.0277778
        k(   27) = (   0.3333333   0.0000000   0.3333333), wk =   0.0138889
        k(   28) = (   0.0000000   0.5000000   0.0000000), wk =   0.0069444
        k(   29) = (  -0.0833333   0.5833333  -0.0833333), wk =   0.0277778
        k(   30) = (  -0.1666667   0.6666667  -0.1666667), wk =   0.0277778
        k(   31) = (   0.7500000  -0.2500000   0.7500000), wk =   0.0277778
        k(   32) = (   0.6666667  -0.1666667   0.6666667), wk =   0.0277778
        k(   33) = (   0.5833333  -0.0833333   0.5833333), wk =   0.0277778
        k(   34) = (   0.5000000   0.0000000   0.5000000), wk =   0.0138889
        k(   35) = (   0.0000000   0.6666667   0.0000000), wk =   0.0069444
        k(   36) = (  -0.0833333   0.7500000  -0.0833333), wk =   0.0277778
        k(   37) = (   0.8333333  -0.1666667   0.8333333), wk =   0.0277778
        k(   38) = (   0.7500000  -0.0833333   0.7500000), wk =   0.0277778
        k(   39) = (   0.6666667  -0.0000000   0.6666667), wk =   0.0138889
        k(   40) = (   0.0000000   0.8333333   0.0000000), wk =   0.0069444
        k(   41) = (   0.9166667  -0.0833333   0.9166667), wk =   0.0277778
        k(   42) = (   0.8333333   0.0000000   0.8333333), wk =   0.0138889
        k(   43) = (   0.0000000  -1.0000000   0.0000000), wk =   0.0034722
        k(   44) = (  -0.1666667   0.3333333   0.0000000), wk =   0.0277778
        k(   45) = (  -0.2500000   0.4166667  -0.0833333), wk =   0.0555556
        k(   46) = (  -0.3333333   0.5000000  -0.1666667), wk =   0.0555556
        k(   47) = (   0.5833333  -0.4166667   0.7500000), wk =   0.0555556
        k(   48) = (   0.5000000  -0.3333333   0.6666667), wk =   0.0277778
        k(   49) = (  -0.1666667   0.5000000   0.0000000), wk =   0.0277778
        k(   50) = (  -0.2500000   0.5833333  -0.0833333), wk =   0.0555556
        k(   51) = (   0.6666667  -0.3333333   0.8333333), wk =   0.0555556
        k(   52) = (   0.5833333  -0.2500000   0.7500000), wk =   0.0555556
        k(   53) = (   0.5000000  -0.1666667   0.6666667), wk =   0.0555556
        k(   54) = (   0.4166667  -0.0833333   0.5833333), wk =   0.0555556
        k(   55) = (   0.3333333   0.0000000   0.5000000), wk =   0.0277778
        k(   56) = (  -0.1666667   0.6666667  -0.0000000), wk =   0.0277778
        k(   57) = (   0.7500000  -0.2500000   0.9166667), wk =   0.0555556
        k(   58) = (   0.6666667  -0.1666667   0.8333333), wk =   0.0555556
        k(   59) = (   0.5833333  -0.0833333   0.7500000), wk =   0.0555556
        k(   60) = (   0.5000000   0.0000000   0.6666667), wk =   0.0277778
        k(   61) = (   0.8333333  -0.1666667   1.0000000), wk =   0.0277778
        k(   62) = (   0.7500000  -0.0833333   0.9166667), wk =   0.0555556
        k(   63) = (   0.6666667   0.0000000   0.8333333), wk =   0.0277778
        k(   64) = (  -0.1666667  -1.0000000  -0.0000000), wk =   0.0138889
        k(   65) = (   0.6666667  -0.3333333   1.0000000), wk =   0.0277778
        k(   66) = (   0.5833333  -0.2500000   0.9166667), wk =   0.0555556
        k(   67) = (   0.5000000  -0.1666667   0.8333333), wk =   0.0277778
        k(   68) = (   0.6666667  -0.1666667   1.0000000), wk =   0.0277778
        k(   69) = (   0.5833333  -0.0833333   0.9166667), wk =   0.0555556
        k(   70) = (   0.5000000   0.0000000   0.8333333), wk =   0.0277778
        k(   71) = (  -0.3333333  -1.0000000   0.0000000), wk =   0.0138889
        k(   72) = (  -0.5000000  -1.0000000   0.0000000), wk =   0.0069444

     Dense  grid:    19579 G-vectors     FFT dimensions: (  40,  40,  40)

     Estimated max dynamical RAM per process >       2.22 MB

     Estimated total dynamical RAM >      48.60 MB

     Initial potential from superposition of free atoms

     starting charge       9.9648, renormalised to      10.0000
     Starting wfcs are random

     total cpu time spent up to now is        0.2 secs

     Self-consistent Calculation

     iteration #  1     ecut=    82.00 Ry     beta= 0.70
     Davidson diagonalization with overlap
     ethr =  1.00E-02,  avg # of iterations =  8.1

     Threshold (ethr) on eigenvalues was too large:
     Diagonalizing with lowered threshold

     Davidson diagonalization with overlap
     ethr =  4.09E-04,  avg # of iterations =  2.2

     total cpu time spent up to now is        0.9 secs

     total energy              =     -47.21475757 Ry
     estimated scf accuracy    <       0.04211306 Ry

     iteration #  2     ecut=    82.00 Ry     beta= 0.70
     Davidson diagonalization with overlap
     ethr =  4.21E-04,  avg # of iterations =  1.0

     total cpu time spent up to now is        1.0 secs

     total energy              =     -47.21816475 Ry
     estimated scf accuracy    <       0.00245548 Ry

     iteration #  3     ecut=    82.00 Ry     beta= 0.70
     Davidson diagonalization with overlap
     ethr =  2.46E-05,  avg # of iterations =  4.3

     total cpu time spent up to now is        1.3 secs

     total energy              =     -47.21859774 Ry
     estimated scf accuracy    <       0.00026705 Ry

     iteration #  4     ecut=    82.00 Ry     beta= 0.70
     Davidson diagonalization with overlap
     ethr =  2.67E-06,  avg # of iterations =  3.3

     total cpu time spent up to now is        1.5 secs

     total energy              =     -47.21864435 Ry
     estimated scf accuracy    <       0.00000431 Ry

     iteration #  5     ecut=    82.00 Ry     beta= 0.70
     Davidson diagonalization with overlap
     ethr =  4.31E-08,  avg # of iterations =  2.5

     total cpu time spent up to now is        1.8 secs

     total energy              =     -47.21864597 Ry
     estimated scf accuracy    <       0.00000006 Ry

     iteration #  6     ecut=    82.00 Ry     beta= 0.70
     Davidson diagonalization with overlap
     ethr =  6.18E-10,  avg # of iterations =  3.8

     total cpu time spent up to now is        2.0 secs

     total energy              =     -47.21864605 Ry
     estimated scf accuracy    <          3.1E-09 Ry

     iteration #  7     ecut=    82.00 Ry     beta= 0.70
     Davidson diagonalization with overlap
     ethr =  3.05E-11,  avg # of iterations =  2.0

     total cpu time spent up to now is        2.2 secs

     End of self-consistent calculation

          k = 0.0000 0.0000 0.0000 (  2421 PWs)   bands (ev):

   -93.6689  -8.1264   5.4809   5.4809   5.4809  11.1845  11.1845  11.1845
    11.2610  18.2790

          k =-0.0833 0.0833-0.0833 (  2442 PWs)   bands (ev):

   -93.6689  -8.0484   4.8922   5.3884   5.3884  11.0946  11.3525  11.3525
    11.9484  17.9008

          k =-0.1667 0.1667-0.1667 (  2457 PWs)   bands (ev):

   -93.6689  -7.8220   3.6151   5.1608   5.1608  11.0593  11.7405  11.7405
    13.2696  17.3798

          k =-0.2500 0.2500-0.2500 (  2451 PWs)   bands (ev):

   -93.6689  -7.4744   2.2178   4.8941   4.8941  11.0222  12.0743  12.0743
    14.6680  17.3688

          k =-0.3333 0.3333-0.3333 (  2442 PWs)   bands (ev):

   -93.6688  -7.0647   0.9803   4.6643   4.6643  10.9839  12.1686  12.1686
    15.8036  18.0935

          k =-0.4167 0.4167-0.4167 (  2449 PWs)   bands (ev):

   -93.6688  -6.7050   0.1007   4.5136   4.5136  10.9541  12.1159  12.1159
    16.4548  19.3627

          k = 0.5000-0.5000 0.5000 (  2452 PWs)   bands (ev):

   -93.6688  -6.5549  -0.2259   4.4615   4.4615  10.9428  12.0784  12.0784
    16.6398  20.3268

          k = 0.0000 0.1667 0.0000 (  2449 PWs)   bands (ev):

   -93.6689  -8.0224   5.0086   5.1991   5.1991  10.9115  11.6263  11.6263
    11.9002  17.1915

          k =-0.0833 0.2500-0.0833 (  2462 PWs)   bands (ev):

   -93.6689  -7.8454   4.0051   4.9094   5.0918  10.9214  11.7687  12.1131
    12.8987  16.5213

          k =-0.1667 0.3333-0.1667 (  2455 PWs)   bands (ev):

   -93.6689  -7.5373   2.6716   4.6234   4.8703  11.0829  11.9298  12.5414
    13.9135  16.6057

          k =-0.2500 0.4167-0.2500 (  2453 PWs)   bands (ev):

   -93.6688  -7.1446   1.4003   4.4101   4.5841  11.1595  12.0526  12.6825
    14.7500  17.5353

          k =-0.3333 0.5000-0.3333 (  2447 PWs)   bands (ev):

   -93.6688  -6.7589   0.4066   4.3042   4.3188  11.1789  12.0343  12.5795
    15.7403  18.5472

          k = 0.5833-0.4167 0.5833 (  2447 PWs)   bands (ev):

   -93.6688  -6.5271  -0.1098   4.1273   4.3164  11.2045  12.0179  12.4203
    16.5288  19.2234

          k = 0.5000-0.3333 0.5000 (  2439 PWs)   bands (ev):

   -93.6688  -6.5777  -0.0014   4.0399   4.4414  11.2536  12.0968  12.3140
    16.5206  19.0103

          k = 0.4167-0.2500 0.4167 (  2445 PWs)   bands (ev):

   -93.6688  -6.8795   0.6960   4.0729   4.6601  11.3076  12.2486  12.2594
    15.7688  17.5872

          k = 0.3333-0.1667 0.3333 (  2455 PWs)   bands (ev):

   -93.6688  -7.2814   1.7997   4.2309   4.9365  11.3444  12.0986  12.3492
    14.7517  16.6987

          k = 0.2500-0.0833 0.2500 (  2456 PWs)   bands (ev):

   -93.6689  -7.6532   3.0958   4.5095   5.2099  11.3380  11.7671  12.1190
    13.7388  16.5694

          k = 0.1667-0.0000 0.1667 (  2459 PWs)   bands (ev):

   -93.6689  -7.9208   4.2772   4.9229   5.3897  11.2171  11.4281  11.6990
    12.6896  17.0859

          k = 0.0000 0.3333 0.0000 (  2453 PWs)   bands (ev):

   -93.6689  -7.7208   3.9569   4.5684   4.5684  10.5003  12.6876  12.7312
    12.7312  15.8948

          k =-0.0833 0.4167-0.0833 (  2457 PWs)   bands (ev):

   -93.6689  -7.4621   2.9917   4.2496   4.3505  10.4720  12.6523  13.2603
    13.3294  16.3043

          k =-0.1667 0.5000-0.1667 (  2451 PWs)   bands (ev):

   -93.6688  -7.1061   1.8407   4.0233   4.0519  10.6644  12.9199  13.2783
    13.6275  17.6194

          k =-0.2500 0.5833-0.2500 (  2443 PWs)   bands (ev):

   -93.6688  -6.7262   0.8447   3.6917   3.9239  10.7930  12.9745  13.5733
    14.0056  18.8937

          k = 0.6667-0.3333 0.6667 (  2450 PWs)   bands (ev):

   -93.6688  -6.4464   0.2160   3.3729   3.9618  10.9089  12.8778  13.3542
    15.3197  18.8732

          k = 0.5833-0.2500 0.5833 (  2442 PWs)   bands (ev):

   -93.6688  -6.4031   0.1262   3.1623   4.1295  11.1174  12.8199  13.1256
    16.3603  18.2903

          k = 0.5000-0.1667 0.5000 (  2445 PWs)   bands (ev):

   -93.6688  -6.6217   0.5974   3.1049   4.4020  11.4200  12.8064  12.9096
    15.6733  17.3215

          k = 0.4167-0.0833 0.4167 (  2449 PWs)   bands (ev):

   -93.6688  -6.9858   1.4571   3.2500   4.7312  11.7091  12.6026  12.7802
    14.5540  16.3537

          k = 0.3333 0.0000 0.3333 (  2445 PWs)   bands (ev):

   -93.6688  -7.3590   2.3947   3.7041   5.0372  11.7597  12.1449  12.4695
    13.9784  16.1434

          k = 0.0000 0.5000 0.0000 (  2429 PWs)   bands (ev):

   -93.6688  -7.2577   2.7691   3.8962   3.8962   9.9666  12.1087  14.1782
    14.1782  16.6038

          k =-0.0833 0.5833-0.0833 (  2448 PWs)   bands (ev):

   -93.6688  -6.9535   2.0138   3.5651   3.6400   9.9077  11.8305  14.5884
    14.7645  17.7887

          k =-0.1667 0.6667-0.1667 (  2440 PWs)   bands (ev):

   -93.6688  -6.6091   1.2218   3.0995   3.5198  10.0815  12.2254  14.6175
    14.8898  19.2337

          k = 0.7500-0.2500 0.7500 (  2437 PWs)   bands (ev):

   -93.6688  -6.3242   0.6508   2.6151   3.5490  10.2583  13.2692  14.6285
    14.6896  19.2163

          k = 0.6667-0.1667 0.6667 (  2432 PWs)   bands (ev):

   -93.6688  -6.2188   0.4691   2.2539   3.7229  10.5155  14.1014  14.3635
    15.2283  17.7790

          k = 0.5833-0.0833 0.5833 (  2444 PWs)   bands (ev):

   -93.6688  -6.3477   0.7046   2.1318   4.0174  10.9033  13.9470  14.1652
    15.5863  17.3889

          k = 0.5000 0.0000 0.5000 (  2437 PWs)   bands (ev):

   -93.6688  -6.6432   1.1198   2.4356   4.3828  11.3744  13.3351  13.8195
    14.6082  16.5150

          k = 0.0000 0.6667 0.0000 (  2453 PWs)   bands (ev):

   -93.6688  -6.7111   1.6697   3.3482   3.3482   9.3660  11.1567  15.7739
    15.7739  18.3391

          k =-0.0833 0.7500-0.0833 (  2436 PWs)   bands (ev):

   -93.6688  -6.4287   1.1749   2.9663   3.1932   9.3330  11.0862  16.2094
    16.2774  19.4904

          k = 0.8333-0.1667 0.8333 (  2436 PWs)   bands (ev):

   -93.6688  -6.1855   0.8566   2.3290   3.1934   9.5983  11.7413  16.2090
    16.2455  19.6277

          k = 0.7500-0.0833 0.7500 (  2431 PWs)   bands (ev):

   -93.6688  -6.0722   0.8564   1.6758   3.3482   9.9313  13.0437  15.7773
    16.1995  17.9344

          k = 0.6667-0.0000 0.6667 (  2440 PWs)   bands (ev):

   -93.6688  -6.1372   0.9651   1.4422   3.6379  10.3642  14.5366  15.0151
    15.9847  16.5018

          k = 0.0000 0.8333 0.0000 (  2446 PWs)   bands (ev):

   -93.6688  -6.2288   0.8462   2.9984   2.9984   8.8485  10.6160  17.3272
    17.3272  20.0214

          k = 0.9167-0.0833 0.9167 (  2446 PWs)   bands (ev):

   -93.6688  -6.0713   0.6544   2.6527   2.9598   8.9615  10.7552  17.5750
    17.6519  20.2460

          k = 0.8333 0.0000 0.8333 (  2434 PWs)   bands (ev):

   -93.6688  -6.0133   0.7420   2.0232   3.0811   9.4149  11.5931  16.9889
    17.4184  18.7431

          k = 0.0000-1.0000 0.0000 (  2450 PWs)   bands (ev):

   -93.6688  -6.0263   0.5283   2.8789   2.8789   8.6445  10.4543  18.1691
    18.1691  20.8883

          k =-0.1667 0.3333 0.0000 (  2450 PWs)   bands (ev):

   -93.6689  -7.6272   3.2889   4.3031   4.9720  10.9580  12.1373  12.6240
    13.3723  16.2232

          k =-0.2500 0.4167-0.0833 (  2457 PWs)   bands (ev):

   -93.6688  -7.2936   2.2019   3.8603   4.7469  11.2302  12.2782  13.0826
    13.6973  16.6641

          k =-0.3333 0.5000-0.1667 (  2449 PWs)   bands (ev):

   -93.6688  -6.9037   1.1127   3.6256   4.4518  11.4193  12.1770  13.2396
    14.4462  17.5526

          k = 0.5833-0.4167 0.7500 (  2441 PWs)   bands (ev):

   -93.6688  -6.5652   0.3119   3.5271   4.2026  11.5060  11.9565  13.2476
    15.6039  18.4134

          k = 0.5000-0.3333 0.6667 (  2438 PWs)   bands (ev):

   -93.6688  -6.4254   0.0123   3.5073   4.1014  11.5494  11.8408  13.2313
    16.4244  18.2009

          k =-0.1667 0.5000 0.0000 (  2451 PWs)   bands (ev):

   -93.6688  -7.1791   2.3328   3.6409   4.1952  10.4626  12.5145  13.3967
    14.1095  17.0471

          k =-0.2500 0.5833-0.0833 (  2442 PWs)   bands (ev):

   -93.6688  -6.8252   1.4884   3.2149   3.9322  10.7282  12.6975  13.3064
    14.6358  18.0098

          k = 0.6667-0.3333 0.8333 (  2449 PWs)   bands (ev):

   -93.6688  -6.4872   0.7409   2.9400   3.7024  10.9207  12.8889  13.8019
    14.7922  18.6620

          k = 0.5833-0.2500 0.7500 (  2437 PWs)   bands (ev):

   -93.6688  -6.2917   0.3450   2.7228   3.6694  11.1040  12.6901  14.5431
    15.3646  17.5678

          k = 0.5000-0.1667 0.6667 (  2437 PWs)   bands (ev):

   -93.6688  -6.3389   0.4411   2.5969   3.8418  11.3932  12.4771  14.4685
    15.6924  17.2268

          k = 0.4167-0.0833 0.5833 (  2444 PWs)   bands (ev):

   -93.6688  -6.6020   0.9666   2.6612   4.1481  11.7922  12.2185  14.0832
    14.6401  17.3703

          k = 0.3333 0.0000 0.5000 (  2446 PWs)   bands (ev):

   -93.6688  -6.9584   1.6457   3.0611   4.4927  11.7457  12.1988  13.5814
    13.9131  16.7868

          k =-0.1667 0.6667-0.0000 (  2437 PWs)   bands (ev):

   -93.6688  -6.6558   1.4989   3.1008   3.4216   9.8946  11.6054  14.7408
    15.7653  18.6317

          k = 0.7500-0.2500 0.9167 (  2438 PWs)   bands (ev):

   -93.6688  -6.3558   1.0221   2.6132   3.2065  10.1906  12.0403  14.5725
    16.2594  19.0913

          k = 0.6667-0.1667 0.8333 (  2438 PWs)   bands (ev):

   -93.6688  -6.1533   0.7593   2.0989   3.2138  10.4773  13.1274  14.3919
    16.2214  17.8784

          k = 0.5833-0.0833 0.7500 (  2442 PWs)   bands (ev):

   -93.6688  -6.1370   0.7901   1.7671   3.4180  10.8218  13.7003  14.9059
    15.8303  16.5965

          k = 0.5000 0.0000 0.6667 (  2442 PWs)   bands (ev):

   -93.6688  -6.3134   0.9129   1.9263   3.7579  11.2795  13.1853  14.5137
    15.6792  16.8855

          k = 0.8333-0.1667 1.0000 (  2445 PWs)   bands (ev):

   -93.6688  -6.2013   0.8781   2.7581   2.8797   9.4093  11.0867  16.2142
    17.2995  19.7999

          k = 0.7500-0.0833 0.9167 (  2440 PWs)   bands (ev):

   -93.6688  -6.0472   0.8155   2.1445   2.8608   9.8527  11.7457  15.9663
    17.1502  18.9388

          k = 0.6667 0.0000 0.8333 (  2448 PWs)   bands (ev):

   -93.6688  -6.0242   1.0309   1.4973   3.0668  10.3130  13.0578  15.4041
    16.1194  17.9410

          k =-0.1667-1.0000-0.0000 (  2436 PWs)   bands (ev):

   -93.6688  -6.0133   0.6357   2.6471   2.6829   9.2198  10.9318  17.4369
    17.5678  20.2131

          k = 0.6667-0.3333 1.0000 (  2433 PWs)   bands (ev):

   -93.6688  -6.5071   1.1513   2.5366   3.6025  11.2619  12.5481  13.2769
    15.7371  18.0464

          k = 0.5833-0.2500 0.9167 (  2438 PWs)   bands (ev):

   -93.6688  -6.2425   0.8309   2.1789   3.2722  11.6242  12.5459  13.8679
    16.2685  17.2774

          k = 0.5000-0.1667 0.8333 (  2442 PWs)   bands (ev):

   -93.6688  -6.1369   0.6858   2.0883   3.1350  11.6892  12.5150  14.9104
    15.7347  16.6695

          k = 0.6667-0.1667 1.0000 (  2436 PWs)   bands (ev):

   -93.6688  -6.1346   0.9523   2.2090   2.7459  10.8229  12.2928  14.2896
    16.9339  18.2474

          k = 0.5833-0.0833 0.9167 (  2444 PWs)   bands (ev):

   -93.6688  -6.0228   1.0511   1.7488   2.6093  11.3525  13.1531  14.1432
    15.5267  18.3804

          k = 0.5000 0.0000 0.8333 (  2442 PWs)   bands (ev):

   -93.6688  -6.0653   1.0743   1.6263   2.8438  11.7119  13.0873  14.2408
    15.3136  17.8104

          k =-0.3333-1.0000 0.0000 (  2436 PWs)   bands (ev):

   -93.6688  -5.9871   0.9425   2.1156   2.3435  10.6549  12.1858  15.4613
    15.9326  19.8529

          k =-0.5000-1.0000 0.0000 (  2468 PWs)   bands (ev):

   -93.6688  -5.9738   1.2783   1.6771   2.1928  11.9658  13.6197  13.8932
    14.3123  19.7881

     the Fermi energy is     6.6155 ev

!    total energy              =     -47.21864605 Ry
     estimated scf accuracy    <          4.5E-11 Ry
     smearing contrib. (-TS)   =      -0.00000000 Ry
     internal energy E=F+TS    =     -47.21864605 Ry

     The total energy is F=E-TS. E is the sum of the following terms:
     one-electron contribution =     -14.55357252 Ry
     hartree contribution      =       6.16611913 Ry
     xc contribution           =      -8.74431379 Ry
     ewald contribution        =     -30.08687886 Ry

     convergence has been achieved in   7 iterations

     Writing all to output data dir out/mp-422.save/
 
     init_run     :      0.06s CPU      0.12s WALL (       1 calls)
     electrons    :      1.73s CPU      2.05s WALL (       1 calls)

     Called by init_run:
     wfcinit      :      0.05s CPU      0.07s WALL (       1 calls)
     potinit      :      0.00s CPU      0.01s WALL (       1 calls)
     hinit0       :      0.00s CPU      0.03s WALL (       1 calls)

     Called by electrons:
     c_bands      :      1.47s CPU      1.72s WALL (       8 calls)
     sum_band     :      0.23s CPU      0.28s WALL (       8 calls)
     v_of_rho     :      0.02s CPU      0.02s WALL (       8 calls)
     mix_rho      :      0.00s CPU      0.01s WALL (       8 calls)

     Called by c_bands:
     init_us_2    :      0.03s CPU      0.03s WALL (     612 calls)
     init_us_2:cp :      0.02s CPU      0.03s WALL (     612 calls)
     cegterg      :      1.32s CPU      1.46s WALL (     288 calls)

     Called by *egterg:
     cdiaghg      :      0.15s CPU      0.16s WALL (    1232 calls)
     h_psi        :      1.09s CPU      1.23s WALL (    1304 calls)
     g_psi        :      0.01s CPU      0.01s WALL (     980 calls)

     Called by h_psi:
     h_psi:calbec :      0.03s CPU      0.03s WALL (    1304 calls)
     vloc_psi     :      1.04s CPU      1.16s WALL (    1304 calls)
     add_vuspsi   :      0.02s CPU      0.02s WALL (    1304 calls)

     General routines
     calbec       :      0.02s CPU      0.03s WALL (    1304 calls)
     fft          :      0.01s CPU      0.03s WALL (      80 calls)
     ffts         :      0.00s CPU      0.00s WALL (       8 calls)
     fftw         :      1.10s CPU      1.23s WALL (   20636 calls)
     davcio       :      0.03s CPU      0.13s WALL (     988 calls)
 
     Parallel routines
 
     PWSCF        :      1.84s CPU      2.38s WALL

 
   This run was terminated on:  16:19:40   7Dec2023            

=------------------------------------------------------------------------------=
   JOB DONE.
=------------------------------------------------------------------------------=
