
     Program PWSCF v.7.1 starts on  7Dec2023 at 15:31:14 

     This program is part of the open-source Quantum ESPRESSO suite
     for quantum simulation of materials; please cite
         "P. Giannozzi et al., J. Phys.:Condens. Matter 21 395502 (2009);
         "P. Giannozzi et al., J. Phys.:Condens. Matter 29 465901 (2017);
         "P. Giannozzi et al., J. Chem. Phys. 152 154105 (2020);
          URL http://www.quantum-espresso.org", 
     in publications or presentations arising from this work. More details at
     http://www.quantum-espresso.org/quote

     Parallel version (MPI), running on     8 processors

     MPI processes distributed on     1 nodes
     121964 MiB available memory on the printing compute node when the environment starts
 
     Reading input from pw_mp-422_nscf_k60_E82.in
Warning: card &IONS ignored
Warning: card / ignored
Warning: card &CELL ignored
Warning: card / ignored

     Current dimensions of program PWSCF are:
     Max number of different atomic species (ntypx) = 10
     Max number of k-points (npk) =  40000
     Max angular momentum in pseudopotentials (lmaxx) =  4

     Atomic positions and unit cell read from directory:
     out/mp-422.save/
     Atomic positions from file used, from input discarded
 
 
     R & G space division:  proc/nbgrp/npool/nimage =       8
     Subspace diagonalization in iterative solution of the eigenvalue problem:
     one sub-group per band group will be used
     scalapack distributed-memory algorithm (size of sub-group:  2*  2 procs)

 
     Parallelization info
     --------------------
     sticks:   dense  smooth     PW     G-vecs:    dense   smooth      PW
     Min         119     119     35                 2446     2446     389
     Max         120     120     36                 2450     2450     391
     Sum         955     955    283                19579    19579    3119
 
     Using Slab Decomposition
 


     bravais-lattice index     =            2
     lattice parameter (alat)  =       9.2035  a.u.
     unit-cell volume          =     194.8967 (a.u.)^3
     number of atoms/cell      =            2
     number of atomic types    =            2
     number of electrons       =        10.00
     number of Kohn-Sham states=         1200
     kinetic-energy cutoff     =      82.0000  Ry
     charge density cutoff     =     328.0000  Ry
     Exchange-correlation= PBE
                           (   1   4   3   4   0   0   0)

     celldm(1)=   9.203539  celldm(2)=   0.000000  celldm(3)=   0.000000
     celldm(4)=   0.000000  celldm(5)=   0.000000  celldm(6)=   0.000000

     crystal axes: (cart. coord. in units of alat)
               a(1) = (  -0.500000   0.000000   0.500000 )  
               a(2) = (   0.000000   0.500000   0.500000 )  
               a(3) = (  -0.500000   0.500000   0.000000 )  

     reciprocal axes: (cart. coord. in units 2 pi/alat)
               b(1) = ( -1.000000 -1.000000  1.000000 )  
               b(2) = (  1.000000  1.000000  1.000000 )  
               b(3) = ( -1.000000  1.000000 -1.000000 )  


     PseudoPot. # 1 for Be read from file:
     /usr/scratch4/magr4985/MG/HTDF/pseudo/SG15/Be.upf
     MD5 check sum: dc1f98d164da9dc61a6fd2fad64b4ce2
     Pseudo is Norm-conserving, Zval =  4.0
     Generated using ONCVPSP code by D. R. Hamann
     Using radial grid of  602 points,  4 beta functions with: 
                l(1) =   0
                l(2) =   0
                l(3) =   1
                l(4) =   1

     PseudoPot. # 2 for S  read from file:
     /usr/scratch4/magr4985/MG/HTDF/pseudo/SG15/S.upf
     MD5 check sum: f9d020296ee6110346977bfd66d424f6
     Pseudo is Norm-conserving, Zval =  6.0
     Generated using ONCVPSP code by D. R. Hamann
     Using radial grid of  602 points,  4 beta functions with: 
                l(1) =   0
                l(2) =   0
                l(3) =   1
                l(4) =   1

     atomic species   valence    mass     pseudopotential
        Be             4.00     9.01220     Be( 1.00)
        S              6.00    32.06500     S ( 1.00)

     24 Sym. Ops. (no inversion) found



   Cartesian axes

     site n.     atom                  positions (alat units)
         1           Be  tau(   1) = (   0.0000000   0.0000000   0.0000000  )
         2           S   tau(   2) = (  -0.7500000   0.7500000   0.7500000  )

     number of k points=     8  Gaussian smearing, width (Ry)=  0.0005
                       cart. coord. in units 2pi/alat
        k(    1) = (   0.0000000   0.0000000   0.0000000), wk =   0.0312500
        k(    2) = (  -0.2500000   0.2500000  -0.2500000), wk =   0.2500000
        k(    3) = (   0.5000000  -0.5000000   0.5000000), wk =   0.1250000
        k(    4) = (   0.0000000   0.5000000   0.0000000), wk =   0.1875000
        k(    5) = (   0.7500000  -0.2500000   0.7500000), wk =   0.7500000
        k(    6) = (   0.5000000   0.0000000   0.5000000), wk =   0.3750000
        k(    7) = (   0.0000000  -1.0000000   0.0000000), wk =   0.0937500
        k(    8) = (  -0.5000000  -1.0000000   0.0000000), wk =   0.1875000

     Dense  grid:    19579 G-vectors     FFT dimensions: (  40,  40,  40)

     Estimated max dynamical RAM per process >      96.25 MB

     Estimated total dynamical RAM >     770.01 MB

     The potential is recalculated from file :
     out/mp-422.save/charge-density

     Starting wfcs are random

     Band Structure Calculation
     ParO style diagonalization

     ethr =  5.00E-06,  avg # of iterations =  5.9

     total cpu time spent up to now is      605.2 secs

     End of band structure calculation

          k = 0.0000 0.0000 0.0000 (  2421 PWs)   bands (ev):

   -93.6689  -8.1264   5.4809   5.4809   5.4809  11.1845  11.1845  11.1845
    11.2610  18.2790  18.2790  20.3276  22.0103  22.0103  22.0103  27.1144
    34.1546  34.1546  34.1546  38.6743  38.6743  38.6743  40.1793  40.1793
    45.4236  45.4236  45.4236  54.6723  54.6723  54.6723  54.9855  55.4400
    55.4400  57.0128  57.0128  57.0128  61.6243  61.6243  61.6243  65.1257
    65.2563  65.2563  65.2563  65.3793  65.3793  65.3793  65.5739  65.5739
    66.2763  66.2763  66.2763  70.9159  71.1391  71.1391  71.1391  73.3101
    73.3101  73.3101  76.2831  83.5169  89.1730  89.1730  91.7281  91.7281
    91.7281  94.9737  94.9737  94.9737  98.0151 100.0317 102.6897 102.6897
   105.2249 105.2249 105.2249 105.4626 105.4626 105.4626 109.3329 109.3329
   109.3329 114.0885 114.0885 114.0885 115.4400 115.4400 115.4400 115.6591
   115.6591 116.9920 117.0444 117.0444 118.6406 118.6406 118.6406 121.2465
   121.2465 121.2465 122.0818 122.0818 122.0818 122.5007 122.5007 122.5007
   123.9087 123.9087 123.9087 124.1297 125.1208 125.1557 125.1557 125.1557
   125.2315 125.2315 134.4934 134.4934 134.4934 137.9688 139.4129 139.4129
   140.7473 140.7473 140.7473 144.0591 144.0591 144.0591 145.2711 145.2711
   145.2711 145.9462 145.9462 145.9462 146.4763 146.4763 146.4763 147.1714
   147.1714 148.9010 155.9779 155.9779 159.1570 159.9508 159.9508 159.9508
   161.9257 161.9257 161.9257 162.6505 162.6505 162.6505 163.9192 165.9265
   165.9265 165.9265 165.9327 166.1077 166.1077 166.1077 166.4499 166.4499
   166.4499 166.6412 166.6412 166.7573 166.7573 166.7573 167.2099 167.2099
   167.2099 178.4404 181.5566 181.5566 181.5566 185.1789 185.1789 187.2483
   187.2483 187.2483 188.6154 189.5703 189.5703 189.5703 197.4332 197.4332
   197.4332 201.9927 201.9927 202.2654 202.2654 202.2654 204.8319 206.8515
   206.8515 206.8515 207.4273 207.4273 207.4273 210.6916 210.6916 210.6916
   211.1746 211.1746 211.1746 211.9071 211.9071 213.4220 214.4604 214.4604
   214.7946 214.7946 214.7946 214.8270 214.8270 214.8270 216.0056 216.0056
   216.0056 216.4002 216.9667 216.9667 216.9667 217.6530 217.6530 217.6530
   217.6571 217.6571 218.4200 218.4200 218.4200 218.9492 218.9492 218.9492
   219.3417 219.6232 220.3888 220.3888 220.3888 220.7979 220.7979 221.6935
   221.6935 221.6935 221.9214 224.9290 224.9290 224.9290 225.0298 225.0298
   225.2013 225.2013 225.2013 225.3041 225.3041 225.3041 225.6226 225.6226
   225.6310 225.6310 225.6310 236.6048 237.2530 237.2530 237.2530 238.5219
   238.5219 244.5843 244.5843 244.5843 245.7637 245.7637 245.7637 246.3792
   246.3792 246.3792 246.7691 246.7691 246.7691 250.0321 250.0321 250.0810
   250.0810 250.0810 250.1684 251.2308 251.7673 251.7673 251.7673 253.7841
   253.7841 253.7841 254.3726 261.4712 261.4712 261.5500 261.5500 261.5500
   263.1993 263.1993 263.1993 263.9199 263.9199 263.9199 264.0070 264.0070
   264.0070 264.8119 264.8119 268.3574 269.6025 269.6025 269.6025 272.3797
   272.3797 272.7521 272.7521 272.7521 273.4943 273.4943 273.4943 273.7103
   273.8580 273.8580 273.8580 274.0033 274.0033 274.0033 274.5758 274.5758
   274.5758 274.8765 274.8765 288.4463 288.4463 288.4463 290.0481 291.4901
   291.4901 291.4901 295.1640 295.1640 295.4987 298.0466 298.0466 298.0466
   298.7334 298.7334 298.7334 299.0874 299.9467 299.9467 299.9467 305.8349
   305.8349 305.8349 306.0210 306.0210 308.6127 310.6243 310.6243 310.6243
   312.3729 315.8901 315.8901 315.8901 316.0274 316.0274 316.0274 316.2307
   316.2307 316.8754 317.0121 317.0121 317.0121 317.0788 317.0788 317.0788
   317.5691 317.5691 317.5691 317.7237 317.7237 317.7237 318.0262 318.0262
   318.0262 319.0770 319.0770 323.0660 323.0660 323.1112 323.1112 323.1112
   323.3451 323.3451 323.3451 323.3945 323.3945 323.3945 323.4638 325.5471
   325.5471 325.5471 325.6294 326.4015 326.4015 326.4015 326.4915 326.4915
   326.4915 326.5154 326.5154 331.7915 331.7915 331.7915 332.8419 335.1670
   335.1670 335.1670 336.3312 340.0949 340.0949 341.1870 341.1870 341.1870
   341.3570 341.3570 341.3570 342.9740 342.9740 342.9740 343.0777 343.0777
   343.0777 344.2984 344.2984 347.6391 347.6391 348.2063 348.2063 348.2063
   348.5685 348.5685 348.5685 348.7261 348.7261 348.7261 349.3202 349.3202
   349.3202 349.6237 349.6237 350.1288 350.7332 350.7332 350.7332 351.0979
   351.0979 351.0979 351.3800 356.6713 356.6713 356.6713 358.3619 359.6938
   359.6938 360.6326 360.6326 360.6326 361.5094 362.4788 362.4788 362.4788
   363.6867 363.7619 363.7619 363.7619 364.2888 364.2888 364.2888 364.6838
   364.6838 364.6838 365.0465 365.0465 365.0465 366.7954 366.7954 366.7954
   367.5257 367.5257 367.6322 367.7090 367.7090 367.7090 368.0030 368.4864
   368.4864 369.1341 369.1341 369.1341 369.2024 369.2024 369.2024 369.5305
   369.5305 369.5856 369.5856 369.5856 369.8981 369.8981 369.8981 370.0763
   370.0763 370.0830 370.0830 370.0830 370.2733 370.2733 370.2733 370.3776
   370.3776 370.3776 370.7297 370.7297 370.7297 370.9300 371.1020 371.1020
   371.1020 371.1561 371.1561 394.1119 394.1119 394.8209 394.8705 394.8705
   394.8705 404.1966 404.1966 404.1967 404.5444 405.2169 405.2169 405.2169
   407.4890 408.9122 408.9122 410.7400 410.7400 410.7400 411.5304 411.5304
   411.5304 413.0798 413.0798 413.0798 413.1069 413.1069 413.1069 415.0048
   415.0048 417.2606 418.5142 418.5142 418.5142 419.3977 419.3977 420.3603
   420.3603 420.3603 422.3500 422.6409 422.6409 422.6409 422.8497 424.0018
   424.0018 424.0018 424.0301 424.0301 424.0301 424.1736 424.1736 424.1736
   424.4323 424.4323 424.4323 426.8689 426.8689 426.9663 426.9663 426.9663
   427.1980 427.1980 427.1980 427.3755 427.3831 427.3831 427.3839 427.3839
   427.3839 427.4007 427.4007 427.4007 427.4436 427.4436 427.4436 427.6124
   427.6124 436.2469 436.2469 436.2469 436.3615 436.3615 436.3615 436.8148
   436.8148 436.8214 437.5591 437.5591 437.5591 445.9736 445.9736 445.9736
   446.9763 446.9763 447.7320 448.5853 448.5853 448.5853 448.9603 448.9603
   448.9603 449.0894 449.0894 449.0894 449.3891 449.3891 449.3891 450.1907
   450.4010 450.4010 450.4010 450.4940 450.4940 457.7014 457.7014 457.7014
   458.6537 459.1981 459.1981 459.1981 459.7662 459.7662 459.7662 460.2135
   460.2135 461.6310 463.5996 463.5996 463.5996 464.3072 464.3072 464.3072
   465.6514 465.6514 465.6514 465.7906 465.7906 466.1268 466.1268 466.3002
   466.3002 466.3002 466.5061 466.5061 466.5061 466.6687 466.6687 466.6687
   466.9026 466.9824 466.9824 466.9824 467.9006 468.9250 469.1638 469.1638
   469.1638 471.2596 471.2596 471.2596 471.2754 471.2754 471.2754 471.3313
   471.3313 471.3313 471.4042 471.4339 471.4339 476.1540 476.1540 476.1540
   477.1465 477.1465 477.1465 477.1752 477.2429 477.2429 477.4753 477.4753
   477.4753 477.9338 477.9338 477.9338 477.9446 477.9593 477.9593 477.9605
   477.9605 477.9605 478.1432 478.1432 478.1432 493.1574 493.1574 493.8264
   496.2656 496.2656 496.2656 497.2258 497.2258 497.2258 498.1759 498.1759
   498.1759 498.7211 498.7211 498.7211 498.8383 498.8384 498.8384 499.8413
   499.8413 500.0174 500.0174 500.0174 500.1906 503.8736 503.8736 503.8736
   504.8892 506.3756 507.5952 507.5952 507.5952 507.8823 507.8823 509.6381
   510.0655 510.0655 510.0655 510.7661 510.7661 510.7661 511.4250 511.4250
   511.4250 511.6096 511.6096 511.6096 512.6340 512.6340 513.0188 513.0188
   513.0188 513.2693 513.2693 518.3943 518.3943 518.3943 518.4591 518.4591
   518.4653 518.4653 518.4653 518.4718 518.4718 518.4718 518.8182 518.8182
   518.8182 518.9303 518.9303 519.8950 519.8950 519.8950 520.5066 520.5066
   520.5066 520.5559 520.5559 520.5559 520.6217 520.7284 520.7284 520.7284
   520.8688 520.8688 520.8688 520.9366 520.9366 520.9366 521.0430 521.0645
   521.0645 521.0645 521.2431 522.0954 522.0954 523.9520 523.9520 523.9520
   525.4708 525.9810 525.9810 526.0120 526.0120 526.0120 526.0895 526.0895
   526.0895 526.3183 526.3183 526.3183 526.3682 526.3682 526.3682 526.6742
   526.6742 526.6742 526.7027 527.2978 527.2978 528.1699 528.1699 528.2888
   528.2888 528.2888 528.5727 528.7128 528.7128 528.7128 528.8128 528.8128
   528.8128 528.8691 528.8691 528.8691 529.0140 529.0140 529.0140 529.1595
   529.1595 529.3041 529.3041 529.3041 529.4287 544.6729 544.6729 544.6729
   545.2703 545.6800 546.4678 546.4678 546.4678 552.8157 552.8157 552.8157
   552.8191 552.8191 552.8551 552.8551 552.8551 552.9582 552.9582 552.9582
   552.9805 552.9805 552.9805 552.9836 552.9836 559.9645 559.9645 560.3813
   562.8451 562.8451 562.8451 564.5917 564.5917 564.5917 564.7915 564.7915
   564.7915 565.2414 565.2414 565.2414 566.3444 566.3444 566.3444 569.4276
   569.4276 569.4276 569.7607 569.7607 569.8863 569.8863 569.8863 570.0963
   571.1708 571.8179 571.8179 572.6205 572.6205 572.6205 572.6418 572.6418
   572.6418 572.7783 572.7783 572.7783 572.9206 572.9206 572.9206 573.5535
   573.5545 573.5545 573.5545 573.5596 573.5596 590.1327 591.2712 591.2712
   591.2712 593.9521 595.1365 595.1365 595.1365 595.2201 595.2201 596.7068
   596.7068 596.7068 597.3295 597.3295 597.3295 597.7067 597.7067 597.7067
   598.1962 598.1962 599.1585 599.1585 599.1585 602.9555 602.9555 602.9555
   602.9891 602.9891 604.0915 604.0915 604.0915 605.6315 608.2136 608.2136
   608.2136 614.1794 614.6882 614.6882 614.6882 615.1370 615.1370 615.1370
   616.1396 616.4688 616.4688 618.2329 618.6313 618.6313 618.6313 619.3745
   619.3745 619.3745 619.6384 619.6384 619.6384 619.6845 619.6845 619.6845
   620.3710 620.3710 620.3710 620.4519 620.4519 620.8177 620.8177 620.8177
   621.1014 621.1014 621.1207 621.1207 621.1207 621.3475 621.4310 621.4310
   621.4310 621.8543 621.8543 621.8543 622.4789 623.0114 623.0114 623.0114
   623.0908 623.0908 623.0973 623.0973 623.0973 623.1904 623.1904 623.2903
   623.2903 623.2903 623.3481 623.3481 623.3481 624.8013 624.9113 624.9113
   625.2476 625.2476 625.2476 627.1474 627.1585 627.1585 627.1585 627.1788
   627.1788 627.1788 627.3002 627.3002 627.3002 627.3195 627.3195 630.6984
   630.6984 630.6984 630.7275 630.7275 630.7406 630.7406 630.7406 630.8641
   630.9111 630.9111 630.9111 644.0507 644.4440 644.4440 645.1888 645.1888
   645.1888 645.3932 645.3932 645.3932 645.5022 645.5022 645.5022 645.8164
   645.8164 646.3191 646.9044 647.1464 647.1464 647.1464 647.7533 647.7533
   647.7533 648.0447 648.0447 648.0447 648.1418 648.1418 649.8465 649.8465
   649.8465 649.9371 649.9371 649.9371 650.5243 650.5243 650.5243 650.7607
   650.7607 650.7607 651.5280 651.5280 651.5343 652.0209 652.0209 652.0209
   652.6547 652.6547 652.6547 652.7630 652.7630 652.7630 652.9532 652.9532
   652.9532 653.4536 653.4536 653.4673 653.4673 653.4673 653.5730 653.5730
   653.5730 653.6429 653.6429 653.6429 653.7136 655.5356 655.5356 655.5690
   655.5690 655.5690 655.6304 668.1032 668.2110 668.2110 668.3397 668.3397
   668.3397 668.3832 668.3832 668.3832 668.6041 668.6041 668.6041 668.7644
   668.7644 668.7644 669.1667 669.1667 669.3453 669.3453 669.3453 669.5417
   669.5417 669.5417 669.8845 670.0198 670.5087 670.5087 670.5087 670.8446
   671.4948 671.4948 671.5161 671.5161 671.5161 671.7453 671.7453 671.7453
   672.1992 672.1992 672.1992 672.5284 672.5284 672.6145 672.6145 672.6145
   672.6535 672.6535 672.6535 673.6196 673.6196 673.6196 673.6964 673.6964
   673.6964 673.7361 673.7361 673.7361 673.7532 673.8858 673.8858 673.8858

          k =-0.2500 0.2500-0.2500 (  2451 PWs)   bands (ev):

   -93.6689  -7.4744   2.2178   4.8942   4.8942  11.0222  12.0743  12.0743
    14.6681  17.3688  17.3688  19.7151  22.9188  26.0930  26.0930  29.0699
    30.1157  30.1157  32.3211  37.4304  37.4304  40.5653  40.5653  41.2499
    46.3271  46.6816  46.6816  47.7978  50.6639  50.6639  53.5956  54.3212
    54.3212  55.8039  56.4684  56.4684  57.8772  59.3063  59.3063  61.6758
    62.6574  62.6574  62.9847  65.4007  67.5884  67.5884  69.3145  69.3145
    71.4383  73.3433  73.3433  74.9813  76.2769  77.8275  79.6458  79.6458
    80.3868  81.0431  81.0431  82.5025  82.5025  85.6789  85.6789  85.7303
    88.8452  92.2072  92.2072  92.8550  97.1574  97.1574  98.3543 100.1847
   102.3512 102.3512 103.0207 103.8618 105.1360 105.1360 106.2231 106.2231
   106.8245 108.4566 108.4566 108.7166 110.8679 111.9044 111.9044 114.5261
   114.5261 115.4801 116.0974 116.0974 116.5975 119.2898 119.2898 120.1183
   120.8320 120.9766 120.9766 122.7445 122.7445 122.8161 125.9611 125.9611
   125.9729 128.4862 129.5347 129.5347 130.4479 130.5341 130.5341 133.3797
   133.3797 134.2932 134.8051 134.8051 136.8017 138.1693 139.2547 139.2547
   140.1461 140.6048 140.6048 141.8997 141.8997 142.8578 142.9008 143.9687
   145.0076 145.0076 145.4809 145.4809 146.7749 148.8396 148.8396 151.2068
   151.2068 151.5102 151.8797 153.4361 153.4361 154.1250 156.4376 156.4376
   157.3192 157.6985 157.6985 158.8765 158.8765 158.9299 159.3914 163.2833
   163.2833 164.7833 168.2560 169.4593 169.4593 172.2854 172.7974 172.7975
   174.1267 174.4170 174.4170 178.2088 178.5878 178.5878 180.9194 180.9194
   181.0045 181.4953 181.4953 182.6735 183.7256 183.7256 185.7958 186.7550
   186.7550 186.8284 187.2298 188.0103 188.0103 189.4424 189.4424 190.1507
   190.4284 190.5030 190.5030 193.4873 194.1593 194.1593 195.1677 195.4435
   195.4435 197.8789 199.1689 199.1689 200.7661 200.8904 200.8904 203.8380
   203.8380 204.7430 205.2812 205.8381 205.8381 206.8909 207.3218 207.3218
   208.1444 209.2327 209.2327 210.6179 211.1173 211.1173 213.4550 214.0360
   214.0360 214.7884 216.0664 216.0664 216.7873 217.2738 217.4285 217.4285
   218.6676 218.6676 218.8760 220.5070 220.5070 221.6313 222.0245 222.0245
   222.4482 223.8113 223.8113 223.9986 223.9986 224.1694 224.4355 225.9628
   228.5226 228.5226 228.8023 230.8933 230.8933 231.2580 231.2580 232.4785
   232.4785 232.5144 232.8644 233.0532 233.0532 234.9895 234.9895 235.1572
   236.3667 236.3667 237.1505 237.3019 238.8623 239.4884 239.4884 239.8530
   240.7408 240.7408 241.9575 241.9575 242.2091 242.4294 242.4294 243.5042
   244.9714 244.9714 246.1053 246.1053 247.4142 247.4142 247.7750 248.0148
   250.1233 252.3404 252.3404 252.7057 254.4900 255.3919 255.3919 256.7473
   256.7473 256.7551 257.3485 257.5323 257.5323 258.7145 258.7145 259.5749
   261.5074 261.5074 261.6900 261.7808 262.1712 262.1712 265.9680 266.9246
   266.9246 268.1620 268.6486 268.6486 270.4447 270.4447 270.5201 274.3338
   274.3338 274.9144 275.9902 276.5778 276.5778 278.1959 278.1959 278.9403
   280.0908 280.0908 280.1840 281.2574 281.5826 281.5826 282.6413 282.6413
   283.6083 284.6224 286.1246 286.1246 286.5738 290.7678 290.7678 290.9275
   291.7039 291.8372 291.8372 291.9112 292.6112 292.6112 293.0137 293.0137
   293.1131 295.1634 295.1634 295.4577 296.2937 296.6178 296.6178 296.7453
   297.3646 297.3646 298.0776 298.0776 298.7407 299.2651 299.2651 300.2599
   302.4490 302.5899 302.5899 304.9676 305.6531 305.6531 307.7336 307.7336
   309.0213 309.0213 309.1036 311.8827 311.8827 313.0897 313.0897 313.9397
   313.9473 316.1265 316.1265 316.1312 316.6855 317.0643 317.0643 319.9774
   320.0966 320.0966 321.1608 321.1608 321.4448 321.5517 322.7312 322.7312
   323.0566 323.4744 324.1601 324.1601 327.6853 328.4302 328.4302 328.9565
   328.9565 329.8447 330.5038 330.5038 331.1267 331.1267 331.2631 331.8940
   331.8940 331.9736 332.6515 332.6515 332.8056 333.9090 333.9090 334.2630
   335.0285 335.0285 335.3487 335.4310 337.0145 337.0145 337.4125 338.0263
   338.7667 338.7667 339.7993 340.0324 340.0324 340.6283 340.7400 340.7400
   340.9734 341.4681 341.4681 342.7283 342.7283 342.7423 345.6522 345.6522
   345.6572 346.2244 346.3682 346.3682 347.1391 348.6745 348.7116 348.7116
   348.9608 348.9608 349.8157 349.8157 349.8828 351.4283 351.4283 351.6166
   353.0228 353.0228 353.0954 355.3974 355.3974 355.5188 355.5188 355.6653
   355.7267 357.6749 357.6749 358.1516 358.6990 358.6990 358.6998 359.0235
   359.2199 359.2199 359.2261 359.9025 359.9025 361.5910 361.6327 361.6327
   361.8326 361.8326 361.8854 363.3905 368.8710 369.0400 369.0400 369.3542
   369.3542 371.2734 372.4802 372.8205 372.8205 373.4270 373.7028 373.7028
   374.4303 374.4303 375.0137 375.3079 375.3079 375.7814 378.8403 378.9815
   378.9815 380.1487 380.1487 380.2817 380.3107 380.7278 380.7278 383.5346
   383.5346 383.5692 384.5244 384.5244 384.5992 384.5992 384.6055 385.1116
   385.5545 385.5545 387.6445 387.6445 388.2573 388.2573 389.7549 390.9698
   391.2414 391.2414 391.2708 391.6146 393.6978 393.6978 395.1743 395.3219
   395.3219 395.6419 395.6419 396.0308 396.8262 396.8262 396.9390 398.2720
   400.0278 400.0278 400.4307 401.8481 401.8481 402.0574 402.3142 402.3142
   403.3131 403.5034 403.5034 405.3513 405.6862 405.6862 405.8289 407.9220
   407.9614 407.9614 409.0714 409.0714 409.1113 411.2733 411.3687 411.3687
   411.7798 411.7798 411.9291 411.9291 412.1673 412.8788 412.9292 412.9292
   417.6460 420.6299 420.6299 421.2523 421.5364 421.5364 422.5208 423.1739
   423.1739 423.7509 423.9968 424.0847 424.0847 424.8302 424.8734 424.8734
   426.4826 426.4826 426.8960 428.3409 428.3409 428.6635 429.9898 430.1414
   430.1414 432.3993 432.7281 432.7281 434.0202 434.1647 434.1647 434.9183
   435.5424 435.5424 436.0474 436.0474 436.0474 436.2649 436.3781 436.3781
   438.6892 438.8637 438.8637 439.1013 439.8206 439.8206 440.6487 440.8573
   440.8573 444.7748 444.7748 445.2499 445.6411 445.6411 445.6777 445.8376
   446.5336 446.5336 448.1861 448.2456 448.2456 448.2908 451.1751 451.1751
   452.0526 452.3460 452.3460 455.5142 456.2553 456.2553 457.1203 457.4148
   457.6654 457.6654 458.0097 458.0097 458.0314 458.5123 458.5123 458.6826
   459.2119 459.2119 461.2864 461.6031 461.6031 462.4734 462.4734 462.8724
   463.2565 463.5959 463.5959 463.9638 464.4793 464.6416 464.6416 466.3989
   467.0734 467.0734 467.2583 467.2583 467.3501 467.4059 467.4953 467.4953
   471.4807 471.4807 472.5055 472.5055 472.7592 472.8697 472.8697 473.2268
   473.2268 473.3573 474.1089 474.8700 474.8700 475.0448 475.7856 475.7856
   475.9794 476.5342 476.5342 476.7544 477.1647 477.1647 477.2504 477.6163
   477.6163 477.6466 477.9741 477.9741 478.6411 481.0750 481.0750 481.3147
   482.4651 482.4651 482.9465 483.1676 483.3786 483.3786 484.4315 485.1150
   485.1150 485.1850 485.1850 485.2425 486.0547 486.2023 486.2023 486.2767
   486.7908 486.7908 487.5556 487.9736 487.9736 488.0648 488.0648 488.4421
   489.2350 489.2350 489.4397 490.9146 491.1626 491.1626 493.4626 493.4626
   493.7184 494.9460 496.4866 496.4866 496.7368 497.6943 497.6943 498.0831
   498.1438 498.1438 498.1600 498.5598 498.5598 498.6861 499.5333 500.0076
   500.0076 500.8136 500.9378 500.9378 503.4883 503.4883 503.7709 503.7709
   504.0335 504.5536 506.2086 506.2086 507.1653 507.1653 507.2152 509.4615
   510.2571 510.2571 510.2714 510.6165 510.6165 510.8489 511.1669 511.1669
   511.3932 511.6575 511.6575 511.9631 511.9631 512.1480 512.7615 512.9934
   512.9934 514.1401 514.1401 514.3119 515.6291 518.3075 518.3075 518.3172
   519.3057 519.3057 519.3358 522.2440 522.2440 522.4994 522.9655 522.9655
   523.9259 524.3097 524.3097 524.8988 525.1004 525.1004 525.3228 526.7935
   526.8042 526.8042 529.5546 529.5546 529.7439 530.2512 530.2512 530.5478
   530.9006 530.9006 531.2712 531.6373 531.8925 531.8925 534.7181 534.7181
   534.8124 535.4264 535.4264 535.4671 536.0006 536.0281 536.0354 536.0354
   536.2198 536.2198 537.9908 538.0501 538.0501 538.3925 538.3925 538.7655
   539.5659 539.9667 539.9667 541.5105 541.5105 541.5121 543.5068 544.0229
   544.0229 544.7432 545.6023 545.8704 545.8704 546.2099 546.4673 546.4673
   546.6389 546.6389 546.7960 547.8793 547.8793 548.0680 548.0860 548.1201
   548.1201 548.3927 548.3927 549.2254 549.2426 549.2426 550.8367 550.8367
   550.8699 553.3370 553.6469 553.6469 554.1575 555.4860 555.4860 556.2396
   557.5531 557.5531 557.5723 557.6443 557.6443 559.2884 559.2884 559.3186
   559.7420 559.7420 559.8910 560.1811 560.1811 560.7958 561.5579 561.5579
   561.9957 563.7853 566.4981 566.4981 566.7949 566.8078 566.8078 568.5869
   570.0350 570.0350 570.9002 572.0765 572.0765 572.3761 572.7275 572.7275
   573.1582 573.4479 573.4479 574.1159 574.1159 574.2292 574.9279 574.9279
   575.4699 577.5652 577.6147 577.6147 578.0015 578.0769 578.0769 580.7382
   581.6518 581.6518 583.7828 583.7828 583.7919 586.9253 587.1580 587.1580
   587.7157 587.7881 587.7881 589.9992 590.5498 590.5498 591.9336 591.9336
   592.0735 592.5088 592.7945 592.7945 592.9504 593.1240 593.1240 593.3011
   594.4725 594.4725 594.9011 595.1089 595.1089 596.0858 596.7501 597.3152
   597.3152 598.1194 598.1194 598.3291 599.3292 599.3292 599.5949 600.1804
   601.2163 601.2163 602.5748 602.7426 602.7426 602.8586 602.8586 602.9914
   602.9914 603.3037 604.1601 604.5969 604.6236 604.6236 605.0490 605.0490
   605.1300 606.5792 606.5792 609.7880 610.4038 610.4038 610.7860 610.7860
   610.9516 611.4914 611.5085 611.5085 612.9258 612.9258 613.1113 613.5995
   613.5995 613.7194 614.5723 614.5834 614.5834 614.6981 615.3742 615.3742
   616.7228 616.7228 617.0357 617.2129 619.3793 619.3793 620.4099 620.4099
   620.4788 620.9238 620.9238 621.1053 622.3213 622.3213 622.3758 622.9619
   624.0030 624.0030 624.0937 624.3169 624.3169 624.7751 624.7751 624.8382
   624.9078 625.2289 625.6114 625.6114 626.4779 626.4779 626.5374 626.5382
   626.6476 626.6476 629.5966 629.6053 629.6053 629.8969 630.2548 630.2548
   630.8247 630.8247 630.8259 632.2016 632.2395 632.2855 632.2855 632.5836
   632.5836 634.3424 634.4797 634.4797 635.3934 635.3934 635.3965 635.6913
   635.7506 635.7506 637.3454 637.6928 637.6928 637.9769 638.3537 638.3537
   638.5079 638.5079 638.5857 642.3406 642.5389 642.5389 645.3130 645.3425
   645.3425 645.9336 645.9393 645.9393 646.4932 646.5559 646.5560 646.8393
   646.8393 647.0803 648.9200 648.9200 649.0443 649.3982 649.4451 649.4659
   649.4659 650.0032 650.0032 650.2791 650.3276 650.3276 650.3980 651.0577
   651.0577 651.3382 651.4372 651.4372 652.1212 652.2408 652.2408 656.1375
   656.5184 656.5184 656.9698 657.0587 657.0587 657.1342 657.3529 657.3529
   658.2553 658.5324 658.5324 659.4351 659.4351 659.5376 660.1904 660.1904
   660.3288 663.3856 663.4387 663.4387 663.6344 663.8215 663.8215 664.3388
   664.3388 664.3861 664.7157 664.7157 664.8369 665.2103 665.3287 665.3287
   665.5626 665.5796 665.5796 666.1460 666.4943 666.4943 667.6827 667.6827
   668.7243 668.7243 669.0812 669.1265 671.2070 672.5306 672.7644 672.7644
   672.8471 673.8560 674.0036 674.0036 674.2378 674.2378 676.5542 676.5543
   676.6236 676.6236 676.8331 677.6352 677.9149 677.9149 678.8213 678.8643
   678.8643 680.6384 680.6384 681.0647 681.2736 681.2736 681.6815 681.6815
   681.7122 681.8043 682.2434 682.2434 682.2651 682.4060 682.7029 682.7029

          k = 0.5000-0.5000 0.5000 (  2452 PWs)   bands (ev):

   -93.6689  -6.5549  -0.2258   4.4616   4.4616  10.9428  12.0784  12.0784
    16.6399  20.3265  20.3265  20.5731  22.2437  22.9113  22.9113  29.9340
    33.5780  33.5780  35.2303  36.8436  36.8436  39.3840  39.3840  41.7084
    42.6374  42.6705  42.6705  47.5118  47.5118  47.7359  49.4210  52.0821
    52.0821  54.1383  54.1944  59.3123  59.3123  60.6511  60.6511  61.6531
    63.7500  65.3236  65.3236  68.9645  71.1630  72.0857  72.0857  73.9824
    73.9824  74.2512  74.2512  75.6558  78.7806  78.7806  79.2801  82.2743
    82.2743  82.7363  84.1192  84.1192  86.1406  86.1406  88.7401  88.8396
    89.4409  90.2300  91.9103  91.9103  92.1612  92.1612  92.2239  94.8404
    98.5818  98.6776  98.6776  99.2958  99.2958  99.9649  99.9649 102.1124
   105.1390 105.6302 105.6302 110.4516 112.4235 112.4235 112.8816 114.9163
   114.9163 115.0475 115.5084 115.5084 116.5256 119.5948 119.5948 120.8588
   121.9301 122.5457 122.5457 123.6794 123.6794 124.5948 125.5057 126.3370
   126.3370 126.3836 126.7793 126.7793 127.2809 134.1439 134.1439 134.1988
   135.9065 136.5659 136.5659 137.2886 137.2886 139.0445 139.4207 139.4207
   139.7227 140.1221 141.2507 141.2507 143.5972 143.5972 144.4447 145.2054
   145.2054 145.4388 146.4377 146.4377 147.9844 152.0975 152.8988 152.8988
   153.2058 153.6213 153.6213 153.8909 156.5389 156.5389 157.4490 157.4490
   161.9224 161.9224 162.3457 162.3457 163.2829 163.8436 164.7387 165.1823
   165.2420 167.0427 167.0427 168.7339 168.7339 168.9065 168.9065 169.3091
   171.9714 171.9714 172.2810 172.2810 174.9119 175.4791 175.4791 175.9471
   177.4712 181.7172 181.7172 183.5366 185.8314 186.0217 186.0217 186.5209
   186.5209 186.6391 187.0747 187.0747 187.6194 188.5534 189.0340 190.1120
   190.1120 190.2790 190.2790 192.1510 195.2917 195.2917 196.4090 196.4090
   197.0024 198.3014 200.2915 200.2915 200.4592 201.3448 201.3448 201.5366
   201.5366 201.8882 202.1896 202.1896 202.3140 202.3140 202.7714 203.3842
   203.3842 203.5318 206.8321 207.5592 207.5592 208.8680 208.8717 208.8717
   211.6232 211.8997 213.5720 213.6296 213.6296 214.0118 214.0118 214.3276
   214.3276 215.1820 215.1820 215.6797 220.3973 220.8403 220.8403 222.9385
   223.2776 223.2776 224.1465 224.5485 225.3059 225.3059 226.4467 226.9527
   226.9527 227.6054 228.4409 228.7124 228.7124 229.1135 229.6388 229.6388
   232.9875 232.9875 234.1343 234.2910 234.2910 234.9698 235.6508 236.7393
   237.9067 237.9067 239.8191 239.9697 239.9697 241.1584 241.7910 241.7910
   242.2239 242.2239 243.4408 243.4408 243.4831 243.4831 243.6199 243.7183
   251.1102 253.7453 254.6597 254.6597 254.9448 254.9448 256.1567 256.1567
   257.1892 257.9346 257.9346 258.2244 260.2362 260.2362 260.7523 260.7523
   261.0840 261.7370 264.4076 264.4615 264.5346 265.0708 265.0708 265.3480
   265.5637 265.5637 267.0753 267.4088 267.6661 267.6661 269.0973 269.0974
   270.7609 270.7609 272.3352 272.3352 272.5222 272.9374 273.2186 273.2186
   273.5764 273.5764 275.0999 275.0999 275.6993 275.6993 275.7188 276.3095
   277.6388 277.6451 277.6451 277.6745 277.6745 278.1876 278.3698 278.3698
   278.5272 278.5272 279.7478 279.7591 283.6885 285.6536 286.5475 286.5475
   287.4509 288.2568 288.2568 288.8115 291.5447 291.5447 291.8638 291.8638
   292.3131 292.3131 292.5289 292.6887 292.6887 292.8603 295.6503 295.8094
   295.8094 297.8223 297.8223 298.0140 298.8023 298.8023 299.1630 300.1769
   300.1769 300.4666 300.7243 302.6609 302.6609 303.0447 303.0447 303.1292
   304.3867 304.3867 304.4462 304.4462 304.6670 304.8223 312.0357 312.6334
   312.6334 313.4703 314.4895 314.4895 314.8729 314.8729 314.9615 314.9615
   315.1354 315.2669 315.2669 315.3594 315.6251 316.8805 316.9915 316.9915
   321.4710 321.4710 322.1334 322.9826 323.2614 323.2614 323.8027 325.0095
   325.2240 325.3520 325.3520 326.2675 326.2675 327.2299 327.7251 328.1511
   328.1511 328.7018 328.7655 328.7655 333.1839 333.1839 333.5733 333.5733
   335.1353 336.1265 336.1265 337.1530 337.1530 337.9189 340.0897 340.1265
   340.2722 340.2722 340.7131 340.7131 340.9838 341.8699 342.5149 342.5149
   342.9693 344.3697 344.3697 344.7047 344.7047 344.7614 344.8260 344.8260
   348.3924 348.5064 348.5064 349.4321 349.4321 349.6740 350.7456 350.9635
   350.9635 351.2961 351.2961 351.4750 353.5097 353.5097 354.8854 355.2517
   355.4929 355.4929 357.7188 357.7867 357.7867 357.8608 357.8608 358.0220
   358.2779 358.4792 358.8017 358.8017 359.6111 359.6111 362.3150 362.3150
   363.0880 363.0880 363.5509 365.0279 366.2975 366.4406 367.6273 367.6273
   367.9876 367.9876 371.8728 372.6337 372.6759 372.6759 373.9008 373.9008
   374.3138 374.3138 374.4330 374.8351 374.9118 374.9118 375.1523 376.6954
   377.4720 377.4720 377.9306 377.9394 377.9394 378.1864 381.8850 383.4545
   383.4545 384.3424 384.6214 384.6214 385.3037 385.3037 385.6754 386.2264
   386.2264 386.5227 387.7192 387.7913 387.7913 388.2137 388.5430 388.5430
   390.6505 390.6505 390.7397 390.7397 390.9096 390.9765 392.1700 392.2476
   392.2476 392.4508 392.4508 392.5080 393.3994 393.3994 393.4220 393.4432
   393.4432 393.4996 395.0591 395.6340 395.6340 395.6743 395.7848 395.7848
   397.7177 398.2523 398.2523 398.6857 398.9895 398.9895 401.3298 401.3298
   402.2776 402.3229 402.3229 402.4856 402.7135 403.2320 403.2320 403.2721
   404.0073 404.0073 405.0370 405.0370 405.1686 405.2680 405.3253 405.3253
   410.8381 411.3820 411.3820 411.8272 411.8272 411.8741 413.8622 414.5989
   416.8608 416.8608 417.1534 417.3214 417.4518 417.4518 420.3681 420.3681
   420.8816 420.8816 426.8514 426.8514 426.9719 426.9719 427.0395 427.3412
   427.3412 427.7947 428.1278 428.2242 428.2467 428.3392 428.3392 428.8254
   428.8254 428.8776 429.0886 429.0886 430.3102 430.3102 430.3279 430.3279
   431.6795 431.6988 434.4913 434.4913 434.7730 435.4445 436.8377 436.8377
   437.2069 439.3708 439.3810 439.3810 440.0195 440.0195 440.0874 440.5558
   440.5558 441.9023 441.9024 442.3255 444.0401 444.0401 444.1197 444.1197
   444.2368 444.2577 448.2633 448.8722 448.8722 449.1246 450.2677 450.2677
   450.2991 450.6202 453.8001 453.8001 455.0238 455.0238 455.0323 455.4515
   455.9691 455.9691 456.4882 456.4882 456.6440 456.6440 457.3102 457.9600
   458.0295 458.0295 460.0043 460.0043 460.2258 460.7235 460.7235 460.8088
   461.3026 462.3551 462.3551 462.9575 463.9191 463.9191 464.4649 464.5035
   464.5035 464.9553 465.0175 465.0175 466.1193 466.2829 466.2829 466.4806
   466.4806 466.5968 467.9989 467.9989 468.2111 468.2111 468.4732 468.5453
   469.4178 469.6316 469.6316 470.1350 470.7147 470.7147 471.7733 471.7733
   471.8147 471.8822 471.9085 471.9085 476.8882 476.8882 476.9836 477.7549
   477.7549 477.9942 479.1753 479.4876 479.4876 480.0199 480.0199 480.3436
   481.0007 481.2352 481.2352 481.5125 481.5125 481.5688 485.3065 485.7220
   485.7220 486.3271 486.6382 486.6382 486.7492 486.7492 486.8060 487.0796
   487.5039 487.5039 487.5511 487.5511 487.6715 488.1120 488.1120 488.7103
   493.3032 493.3032 493.3521 493.3521 493.6229 493.6437 494.5122 494.5122
   495.1183 495.7723 495.9885 495.9885 496.2154 496.2154 496.2318 496.2648
   496.2859 496.4517 496.4517 498.9286 501.3195 501.3195 501.3581 501.3581
   502.5648 502.9887 502.9887 503.0347 503.1889 503.1889 503.8803 504.0588
   504.0588 504.5119 504.5987 504.5987 504.5995 504.6815 504.6875 504.6875
   504.9936 504.9936 509.7155 509.7155 509.7589 510.0576 510.8601 510.8601
   512.3187 513.6315 515.5274 515.5274 516.8849 516.8849 517.5457 517.5966
   517.7298 517.7298 518.1105 518.1105 518.1885 520.3238 520.3238 520.3735
   520.3735 520.8887 527.3459 527.3459 527.6017 527.9560 527.9560 528.3164
   528.8240 528.8240 529.0656 529.2065 529.2065 529.2523 529.3825 529.5232
   529.5232 529.5650 529.6311 529.6311 529.7255 529.7255 529.9087 529.9235
   529.9235 530.2987 532.5740 532.5740 532.5840 532.6444 532.6444 532.6879
   534.6548 535.7786 535.7786 536.6209 536.6209 536.9790 540.1048 540.1048
   540.6911 541.2441 541.5531 541.5531 542.5508 542.5508 542.5999 542.5999
   542.6640 542.6773 545.0408 545.0492 545.0492 545.2373 545.2373 545.2770
   547.0744 547.4873 547.6662 547.6662 547.7588 547.7588 548.7028 550.0837
   550.0837 550.1038 550.7057 550.7478 550.7478 551.1469 551.1469 551.3204
   551.4060 551.4060 551.5409 551.5409 551.8816 552.9386 553.0109 553.0109
   556.0197 556.0197 556.1350 556.1350 556.4913 556.4985 562.2676 562.2676
   562.4867 563.7129 563.9653 563.9653 564.6409 566.7745 567.7318 567.7318
   567.9495 567.9795 567.9795 568.0200 568.7660 568.7660 568.7877 568.8951
   569.1238 569.1238 569.5391 569.5391 569.6634 569.6634 570.6329 570.9769
   573.2622 573.2622 573.5347 574.3837 574.4177 574.4177 575.5662 575.5662
   576.0610 576.0610 576.0716 577.6741 577.8166 577.8166 578.5286 578.5731
   578.6306 578.8731 578.8731 579.0373 579.9991 579.9991 580.1609 580.1609
   581.1049 581.1049 581.1129 581.6174 581.6174 582.0715 582.0968 582.1599
   582.1599 582.3670 582.3933 582.3933 583.0037 583.0648 583.0648 583.1003
   583.2195 583.2195 583.2810 583.3099 583.3099 583.4572 583.4599 583.4599
   592.6508 593.0087 593.0087 593.2417 593.5228 593.5228 593.7684 594.3889
   594.3889 594.5023 594.5023 594.5512 594.6205 594.6528 594.8150 594.8150
   594.9771 594.9771 595.0057 595.3543 595.3543 596.3790 599.3708 599.3708
   599.4456 601.8144 601.8144 602.7466 603.0480 603.1676 603.1676 603.3504
   603.4406 603.4406 605.3685 605.6653 605.6653 606.1348 606.4033 606.4033
   606.6256 607.1468 607.1468 607.4851 607.7943 607.7943 608.1589 608.1589
   608.2683 608.4525 608.4525 608.7626 609.4872 609.4872 610.2951 610.2951
   610.5404 610.6236 610.6236 610.6974 616.1239 616.1239 616.1352 616.1352
   617.7371 617.7371 617.8529 617.8947 618.1835 618.3433 618.3433 618.3529
   618.5021 618.5186 618.5186 618.6630 619.2746 619.2746 620.3228 620.7028
   620.7028 621.3220 621.5095 621.5560 621.5560 621.8623 622.1950 622.1950
   622.3554 622.3554 624.2063 624.2063 624.2073 624.2073 625.0354 625.0360
   628.8379 628.8379 628.9578 628.9578 628.9744 628.9883 630.6244 630.7289
   630.7289 630.8816 631.2564 631.2564 640.2136 640.3853 640.3853 640.6618
   640.9935 640.9935 641.7194 641.7194 641.8951 642.3037 642.3037 642.5786
   642.5786 642.8957 642.9121 643.1488 643.1606 643.3052 643.3052 643.3567
   643.3567 643.9764 644.1185 644.1185 644.2426 644.6323 644.6323 644.9754
   645.0853 645.0853 645.4255 645.4329 645.4329 645.6942 645.8300 645.8300
   651.2428 651.3649 651.4852 651.4852 651.7672 651.8361 651.8361 652.0969
   652.1294 652.1294 652.3050 652.4010 652.5972 652.5972 652.7580 652.7580
   653.0173 653.7396 653.7396 653.7944 653.8252 653.9049 653.9049 654.0426
   654.4496 654.4496 654.9706 654.9797 654.9797 655.7223 655.7223 656.3603
   658.8721 658.8721 658.8962 658.8962 659.1750 659.1874 659.2587 659.2587
   659.2904 659.2904 661.0034 661.0034 661.0423 661.0423 661.0727 661.0944
   661.0944 661.1581 661.1904 661.3772 661.3772 661.5519 668.1903 668.2371
   668.2371 668.4682 668.5444 668.5444 672.0813 672.1056 672.1056 672.1261
   672.1261 672.1315 677.8995 677.9810 677.9810 678.2398 678.3964 678.3964
   678.5211 678.5211 678.6119 679.1123 680.6004 680.6004 681.9161 681.9409
   681.9409 682.5703 682.5703 682.6300 682.8528 682.8528 682.9324 682.9694
   682.9694 683.1599 689.3412 689.3412 689.3735 689.5547 691.0344 691.0344

          k = 0.0000 0.5000 0.0000 (  2429 PWs)   bands (ev):

   -93.6689  -7.2577   2.7691   3.8962   3.8962   9.9666  12.1087  14.1782
    14.1782  16.6038  19.5461  22.3797  24.5308  24.5308  25.1785  28.2464
    28.2464  30.9953  33.0579  35.0854  37.6564  40.2774  40.2774  41.5772
    45.1652  45.1652  46.8776  48.8260  49.8148  51.9682  51.9682  53.4635
    55.1900  55.1900  58.0386  58.3996  58.8051  58.8051  59.2873  61.1366
    62.0709  62.0709  63.5723  66.5719  66.7814  66.7814  68.8713  70.3064
    72.2365  72.2365  73.1553  73.7423  74.7744  78.8844  79.1833  79.1833
    81.5489  83.2524  84.1694  84.1694  85.2157  88.5019  88.5137  88.5137
    90.8378  93.5821  93.5821  94.6235  94.7182  96.9315  97.0007  97.0007
    97.6386  98.4105 100.1517 100.1517 100.9578 102.0448 104.1867 105.3250
   105.3250 108.5922 108.6739 108.8298 108.8298 110.4680 111.9693 111.9693
   115.0786 116.7481 117.2535 117.2536 118.7976 120.8988 121.4517 121.9063
   121.9063 122.4346 122.4346 122.5435 124.4771 125.0982 125.9226 126.1964
   126.2583 126.2583 129.2277 130.2932 131.3321 131.3321 132.2950 133.0926
   133.3665 133.3665 134.7466 134.7814 134.7814 135.6838 135.9484 136.2184
   136.6306 136.6306 138.6865 138.6865 139.4538 140.4347 143.9825 145.3685
   145.3685 146.7941 148.0983 148.2844 148.2844 149.8015 150.9691 151.5216
   153.0122 153.0122 155.3492 157.1159 157.1159 159.2452 159.5700 159.6487
   159.6487 160.3269 160.4764 160.4764 161.4798 161.9587 163.4427 163.4427
   164.8908 166.6056 166.9499 169.5150 169.5150 171.2847 171.8550 171.9072
   172.3662 172.3662 173.2284 173.2284 174.4990 174.7477 177.2539 178.1523
   178.1523 178.8496 181.8805 183.4113 184.0224 184.4921 184.4921 185.3601
   185.6825 185.6825 186.5323 187.3251 188.4800 188.4800 189.1133 189.6281
   190.2393 190.6454 190.6454 193.6550 194.0929 194.0929 195.9586 196.9304
   197.5146 198.3984 198.3984 199.2429 199.2429 200.7661 201.6094 202.3479
   202.3479 202.7650 203.1461 203.5616 203.5616 203.8568 204.3099 205.9434
   207.7087 207.7087 208.2439 210.2002 210.2002 210.6456 210.6456 210.6534
   212.2899 212.8159 213.7974 214.1938 214.5080 214.5080 214.6703 216.1377
   216.1377 217.1376 219.4453 219.7137 219.7137 221.6444 223.2222 223.8683
   223.8683 223.8839 224.6556 225.1640 225.8572 225.8572 226.6865 229.4577
   229.4577 231.1698 232.0368 232.2020 232.2020 232.8185 233.1532 234.7153
   234.8188 234.8188 236.3247 236.4193 236.4193 236.7450 236.8294 237.2044
   237.8649 237.9634 237.9634 240.4907 240.4907 242.0292 242.4186 242.4186
   242.9223 243.3295 244.9193 245.6118 245.6118 245.7051 245.8310 246.7876
   246.8924 246.8924 247.7325 247.7325 247.7949 248.1960 248.9006 248.9215
   249.1205 249.1205 249.7698 250.7327 250.7327 251.4015 253.0086 253.6308
   253.6308 254.1049 256.7150 257.8253 257.8253 258.1244 259.0398 259.7580
   260.6010 260.6010 260.6437 261.1162 261.6026 261.8463 261.8463 262.3507
   264.8371 264.8371 268.3211 269.7607 271.1972 271.6135 271.7344 271.7344
   273.0049 273.3554 273.6837 273.6837 275.4858 275.7491 275.7491 276.8086
   279.0078 280.4328 280.4328 282.2250 282.9126 284.1243 284.1243 285.3901
   285.3901 285.7664 286.9292 287.7229 287.7229 288.2234 289.3146 289.5945
   289.7727 289.7727 289.9883 290.7675 290.9601 290.9601 291.3222 293.6374
   294.5074 294.5074 295.2758 295.5119 295.9556 295.9556 296.5000 297.7599
   298.8108 299.1683 299.1683 300.2014 302.3797 302.3797 303.7027 304.7825
   304.7825 305.4775 306.7589 308.0019 310.3635 310.3635 310.8472 311.7178
   311.7178 312.1300 312.1570 312.1570 312.6518 313.0564 313.3949 315.4708
   315.8843 315.8843 316.4811 317.2437 317.5988 317.5988 318.8593 319.6946
   320.0272 320.0272 320.4930 320.5484 320.8018 321.4741 321.4741 321.9207
   321.9207 322.0376 322.3378 322.7681 322.7681 323.4843 323.8962 324.2693
   324.3777 324.3777 325.3475 325.5509 325.7479 325.9278 325.9278 326.9855
   327.5466 327.5466 328.3096 329.3191 329.3191 329.3896 329.4712 330.7420
   331.0186 331.0186 331.5112 331.6397 331.6601 331.6601 332.1388 334.7606
   334.8000 334.8000 335.9512 337.5021 337.6262 337.6262 337.7706 339.5891
   339.5891 339.6715 339.7331 345.1913 345.7349 345.7349 345.7577 345.8179
   346.4086 347.6703 347.6703 347.7979 349.0915 349.9049 349.9049 349.9766
   350.9900 351.4247 351.4247 351.7028 351.8308 352.1459 352.5952 352.5952
   353.3446 353.6145 353.6894 353.6894 354.7887 358.4057 359.0104 359.0104
   359.7242 360.9752 361.3789 361.3789 362.0179 362.0179 362.1489 362.5734
   363.1649 363.2040 363.2689 363.2689 363.3885 363.8890 364.4620 365.1222
   365.1222 367.3824 367.3824 369.0627 369.8483 369.8483 370.4527 370.5331
   371.5487 372.8022 372.8022 372.9476 373.5035 373.5035 373.7959 374.2801
   375.4437 375.4570 375.6712 375.6712 375.8998 375.8998 376.3817 378.1557
   379.5907 380.6526 380.6526 381.8734 382.8148 383.2898 383.2898 384.2552
   385.6730 385.8709 385.9070 385.9070 386.8730 386.8730 386.9571 387.1927
   387.6230 388.5706 388.5706 389.0936 389.3619 390.0293 390.0293 390.1417
   390.6935 391.0215 391.0215 391.1308 391.7873 393.0928 393.0928 394.8710
   395.2904 397.3880 397.4812 397.4812 398.0411 398.0483 398.0483 398.9158
   399.2985 399.5087 399.5087 401.4680 401.5118 402.2011 402.2011 402.3391
   402.8244 402.8786 402.8786 403.0007 403.3529 403.3529 403.4938 403.7352
   405.0475 405.1577 405.1577 405.3234 405.4748 409.4124 409.4124 410.8110
   410.8110 411.3463 411.8263 412.7636 413.4928 415.9437 415.9437 416.7763
   419.7385 420.6269 420.6269 421.2607 421.5458 422.0754 422.0883 422.0883
   422.2426 423.9812 423.9812 424.5091 424.8204 425.3741 425.3741 425.7575
   429.8673 430.2108 430.3565 430.3565 430.5124 431.0469 431.2187 431.2187
   432.7138 433.0451 433.3754 433.3754 434.8592 434.8592 435.1371 435.1371
   435.6086 435.9941 436.1510 436.7436 437.7644 437.7707 437.7707 438.3167
   438.3407 438.4842 438.4842 438.6051 438.7573 439.0177 439.0177 439.3701
   440.3430 440.5030 440.5030 440.7129 441.9921 442.1287 442.2014 442.2014
   442.9273 443.2521 443.2521 443.4170 444.4602 446.5541 446.8502 446.8502
   447.2181 447.9266 449.9508 449.9508 451.2614 453.3216 453.4407 453.4407
   453.6657 455.1406 455.5086 455.5086 455.9465 456.3842 456.3842 456.9433
   457.2193 457.4540 460.8473 461.0474 461.0474 461.7868 462.6773 462.8426
   462.8426 463.4790 463.4790 463.5384 463.9640 464.1932 464.6468 464.6468
   464.8722 465.5905 466.3636 466.5390 466.5855 466.5855 467.4714 467.4714
   467.7745 468.6143 468.6143 468.6288 468.6780 470.3611 471.0676 471.0676
   471.7774 472.2198 472.2812 473.5302 473.5302 473.9750 474.3858 474.3858
   474.5010 474.8760 474.9327 475.2854 475.2854 477.0685 477.0685 477.1301
   477.2482 477.3092 477.7786 477.7786 478.1613 478.3043 478.3043 478.4078
   479.8506 480.9170 481.1740 481.1740 481.4399 483.7040 484.1436 484.1436
   484.2684 485.3384 485.7200 485.7200 486.1305 489.6975 489.7776 489.7776
   490.2346 494.8529 495.3199 495.6459 495.6459 495.6472 496.1860 496.9399
   496.9399 497.4215 497.4215 497.5307 497.7478 498.4716 498.9153 499.4890
   499.6617 499.6617 500.5162 500.5162 500.8385 500.8385 501.1121 501.3976
   501.3976 501.5496 501.6318 502.0649 502.4028 502.5619 502.5717 502.5717
   502.6682 502.7899 502.9537 502.9537 503.1709 503.2970 503.4769 503.4769
   503.7289 506.2018 507.8160 507.9329 507.9329 507.9718 508.3977 508.3977
   508.4998 508.5422 509.9857 509.9857 510.5803 511.2479 511.2479 511.4938
   511.9251 512.0508 512.0508 512.1233 514.4917 514.6632 514.6632 514.7438
   514.9128 515.0781 515.4704 515.4704 515.9268 515.9441 516.5608 516.5608
   516.6610 516.6850 516.7766 516.7766 517.1933 517.2064 517.2915 517.2915
   517.7969 518.0694 518.0930 518.0930 518.1190 519.1150 519.2552 519.2829
   519.2829 522.2908 522.4876 523.0091 523.0091 527.1876 527.2286 527.2286
   527.6012 527.8130 527.8130 527.9682 528.0667 528.1907 528.2019 528.2019
   529.1270 529.7763 530.3556 530.4545 530.4545 533.7176 533.9092 533.9092
   534.1884 542.2106 542.2106 542.7269 542.9212 544.1257 544.4109 544.4748
   544.4748 544.5592 545.1907 545.1907 546.0578 546.3581 546.5334 547.1134
   547.1134 547.1205 547.3319 547.5316 547.5316 547.7911 548.0727 548.6688
   548.6688 549.9222 550.2666 550.2666 552.0543 553.4834 553.4834 553.9110
   554.3329 554.9487 555.1100 555.1100 555.5541 556.0174 556.3945 556.3945
   556.8515 557.3529 558.7834 558.7834 559.1804 559.2880 559.4910 559.4910
   560.2135 562.2483 563.1530 563.3253 563.5641 563.7060 563.7060 564.0256
   564.7278 564.7278 565.5078 565.5078 565.5709 565.6720 565.9196 565.9196
   566.0552 566.1231 566.8053 569.4042 571.2308 571.2308 571.8251 574.1117
   574.1191 574.1191 574.7444 574.9139 575.4314 575.4314 576.1102 576.1635
   576.1635 576.2437 576.5603 576.8122 576.9806 576.9806 577.1883 577.3032
   577.3032 577.4944 577.5183 577.5183 577.5362 577.6850 578.2592 578.3409
   578.6252 578.7731 578.7731 579.7444 580.1865 580.1865 580.5389 580.5389
   580.5675 580.9365 581.3458 581.5069 581.5069 581.6234 584.2955 587.2933
   587.5897 587.5897 587.6338 588.5757 588.5757 588.5833 588.8837 589.2631
   589.7615 589.7675 589.7675 589.9285 589.9285 591.2318 591.4476 591.4476
   591.4535 592.4623 592.4784 592.4784 592.5807 592.8278 592.8278 592.8520
   592.8603 593.0022 593.0022 593.0606 593.2458 593.5779 598.4308 598.4308
   599.0005 599.2440 599.4864 599.6007 600.7440 601.0679 601.0679 601.4485
   601.5857 602.0544 602.0544 602.7610 602.7610 603.2263 603.3516 604.1966
   605.0380 605.0380 610.9840 612.4785 612.4785 612.5797 613.2715 613.2965
   613.2965 614.2717 614.3922 614.5873 614.5873 615.2605 616.2089 616.7876
   616.7876 616.9582 618.6800 618.9247 618.9247 619.0650 619.5076 620.2557
   620.9001 620.9001 621.2944 622.0064 623.0272 623.0272 623.6378 624.1572
   624.1673 624.1673 624.5385 624.5385 625.1295 625.6135 625.7859 625.8479
   625.8479 628.1487 628.3737 628.5283 628.6045 628.6045 628.7153 629.0642
   629.1029 629.1029 629.3340 629.6414 629.6518 629.6518 629.9462 631.3562
   631.3562 632.1735 633.1211 633.2117 633.4691 633.4691 635.8672 635.9472
   636.1627 636.1627 636.4098 636.7562 637.0547 637.0547 639.8417 640.0342
   640.0342 640.3647 640.6081 640.9767 640.9767 641.1632 641.1859 641.4405
   641.4405 641.6212 641.7980 641.8319 641.8319 641.8960 642.0024 642.0024
   642.0535 642.3132 643.6140 643.6140 643.7228 644.0059 646.0651 646.0651
   646.3047 646.7182 646.9121 649.7814 649.7814 651.2198 651.5685 651.7938
   651.8258 652.1790 652.1790 652.6032 652.6845 652.6845 653.0528 653.1033
   653.2484 653.2484 655.2878 655.2878 655.3092 655.4003 655.9646 656.0655
   656.0655 656.1339 657.7710 657.7710 658.6596 660.0333 660.6732 660.7253
   661.7133 661.7133 663.7690 663.8857 664.2072 664.2072 664.3770 665.1921
   665.2283 665.2283 665.3771 665.3771 665.6468 665.8029 665.9067 665.9067
   665.9470 665.9901 666.2454 666.5706 666.6615 666.6615 666.8181 666.9216
   666.9931 666.9931 667.1275 667.6119 667.7436 667.7716 667.7716 667.8230
   667.8230 667.9216 668.1539 668.1539 668.2232 668.2329 668.2769 668.4414
   668.4414 668.5845 670.3035 670.3035 670.3371 670.4230 676.2242 676.6190
   677.5039 677.5039 678.1748 678.1748 678.4248 679.5079 679.9904 679.9904
   680.0519 680.1127 680.3028 680.3028 680.3207 680.3424 680.4080 680.4152
   680.6741 680.8013 680.8013 680.8532 680.8532 680.9896 683.4257 683.8453

          k = 0.7500-0.2500 0.7500 (  2437 PWs)   bands (ev):

   -93.6689  -6.3241   0.6508   2.6152   3.5491  10.2583  13.2692  14.6285
    14.6896  19.2162  20.4477  21.6923  23.7822  23.9141  27.9324  29.0730
    30.0811  32.6714  33.0590  34.1622  35.9504  37.7433  39.5356  40.9705
    43.3718  43.4662  44.8325  45.3067  48.0126  49.0775  49.6892  53.3061
    53.3258  54.5300  56.1916  57.1593  57.3534  61.7767  62.3364  63.0844
    63.8120  64.6218  66.5520  68.3395  69.8371  70.0150  71.6240  71.6693
    72.8067  73.1304  75.5678  77.1110  77.6802  78.9096  81.2890  81.8604
    82.4478  83.2755  85.3694  85.6972  86.5883  87.4087  87.9797  89.0830
    89.4323  91.0290  91.8703  92.2092  93.2379  93.8932  96.0193  97.0670
    97.2827  97.8207  99.2464  99.3929 100.1672 100.9597 102.1582 103.9308
   104.6694 105.6164 106.2763 107.3087 107.9518 109.4131 110.1591 110.7222
   112.0586 112.0971 114.3974 115.6085 115.6520 117.5125 117.7170 119.3473
   120.1883 120.3684 121.4901 122.3721 122.4067 123.5338 123.6957 125.0060
   125.9091 127.6035 128.7260 130.1926 131.6864 131.8968 132.2917 132.9467
   134.8534 135.0823 136.1044 137.6120 138.9791 139.0137 139.7312 140.1720
   140.5902 142.1960 143.1630 143.6652 144.1348 145.2426 145.6685 146.6887
   146.6909 147.7843 149.5599 150.2302 150.6948 151.9280 153.4967 154.1159
   155.6359 156.4953 157.0204 158.3561 158.8493 158.9381 159.5403 160.5408
   160.6285 161.4217 161.8095 162.1805 163.1616 164.5981 165.2879 166.4451
   166.5180 167.6147 167.7493 168.0495 168.9374 169.8999 170.5431 171.3722
   171.6647 172.2546 172.6055 173.5836 174.3645 175.3786 175.6151 177.1341
   177.2260 178.0174 178.6503 179.3417 179.8805 181.2996 181.7382 182.6434
   183.8208 184.2089 184.4239 184.6281 185.6221 185.9281 186.5272 188.0210
   189.1133 189.7976 190.5235 191.1667 191.3843 191.5929 193.1886 195.0140
   195.6949 195.9436 196.8943 197.8468 198.1111 198.4297 199.0954 199.8275
   201.3990 201.7055 201.9024 203.0087 203.1569 203.4269 203.9691 204.9501
   205.7111 206.0010 207.7232 207.9265 209.6544 209.9597 210.0701 211.3145
   211.9925 212.1365 212.7265 212.9329 213.0562 213.5722 214.0320 216.0896
   216.0986 216.7741 216.7997 217.8986 217.9029 218.7348 219.1398 221.9833
   222.4909 223.4064 224.7044 225.0136 226.3913 227.3534 227.6168 227.7840
   228.8493 229.2222 229.3035 229.8303 231.4425 232.4230 233.5426 233.7039
   233.8909 234.4277 235.7526 236.6008 237.0249 237.4056 238.3764 238.4447
   238.7652 239.6877 239.8065 240.3358 241.1764 243.1214 243.7320 243.7388
   244.2132 244.5857 245.3945 246.2662 246.3038 246.9562 248.9566 249.6814
   250.1965 250.5967 250.8311 251.3145 252.2250 252.9404 254.1142 254.2301
   254.8219 256.1001 257.1257 257.1604 257.5353 258.2254 258.2742 259.6418
   260.1225 260.5907 260.9351 261.8224 262.0397 262.6511 262.7458 263.0415
   263.5606 264.4671 265.0150 265.5809 266.0453 266.1573 267.1665 268.1298
   268.3357 268.6620 269.3989 270.0357 270.6166 270.9692 271.2309 271.8643
   272.8916 274.5752 274.9217 275.3185 275.7929 275.8250 276.4527 276.5477
   277.2615 279.5683 279.8053 280.2924 280.3984 280.8788 282.3976 282.7520
   283.4642 283.4880 284.2187 285.0112 286.0634 286.5217 287.0402 287.1520
   287.6460 287.6662 288.2382 289.2974 289.8055 290.0801 290.5988 291.2150
   291.7383 291.7957 292.0671 294.2339 294.7941 295.0899 295.3269 295.4179
   297.0373 297.9162 298.0518 298.3353 298.7145 298.8164 300.0848 300.3111
   301.2692 301.3812 301.5999 301.7883 302.4621 302.8438 303.6962 303.7600
   304.0014 306.5806 306.8943 308.0535 309.2454 309.3155 310.4720 310.6215
   310.8633 311.2617 311.6431 312.1224 312.7799 312.8794 313.7008 314.4505
   314.8732 315.1404 315.5014 315.9591 315.9693 316.9976 317.3760 317.5721
   318.3558 319.5533 319.8709 320.0261 321.5282 322.6053 323.0408 323.1862
   323.6358 325.0705 325.3264 325.9672 326.2166 326.6241 327.0901 327.3663
   327.8295 328.5965 328.9023 329.3833 329.9511 330.1861 331.2288 331.9065
   331.9594 333.4588 333.7770 334.2914 334.3218 334.9964 335.2561 335.7003
   336.6225 337.3523 337.8671 337.8942 338.5642 338.7201 339.4973 340.4282
   342.7413 344.3927 345.1843 345.7263 345.8781 346.1831 347.1061 347.2310
   347.5892 347.7039 348.1340 349.0371 349.4181 349.8641 350.6117 351.0806
   351.1565 351.5625 352.0700 353.8093 354.0156 354.2042 354.6854 354.7743
   355.4788 357.7512 357.8387 358.8034 358.9067 359.7100 360.0610 360.4477
   360.7140 360.7376 361.2932 362.2549 362.7715 363.3215 363.4925 364.6592
   365.0690 365.3405 365.7764 366.3459 367.0936 367.7351 367.9530 368.3615
   368.8337 368.9485 369.3203 369.8182 370.4537 371.2679 371.8498 372.1520
   372.6927 372.7885 374.0258 374.1379 375.0689 375.7696 375.8888 376.1006
   376.3548 376.3918 376.8172 377.1341 377.2531 377.6109 380.8868 381.7782
   382.4805 382.8838 383.2629 383.3485 383.7193 383.8726 384.9767 385.0726
   385.7905 385.9229 387.4598 387.9402 388.8731 389.1033 389.6934 389.8835
   390.0971 390.7868 391.2856 391.4508 391.5591 392.2937 392.6298 392.9455
   393.0667 393.4996 393.9660 394.1181 394.5449 395.0049 395.1420 395.2606
   395.6275 396.2353 397.4116 398.1249 398.3905 399.4660 399.9805 400.2503
   400.2929 400.7538 400.8980 400.9925 401.1352 401.5850 401.9799 403.4975
   403.5382 404.4836 404.5117 406.5874 406.6236 407.0251 407.0907 410.3586
   410.6162 411.2601 411.3534 411.4433 412.3791 412.6240 412.7091 413.2390
   414.0079 414.0289 414.3161 414.3887 414.8897 415.5167 415.6711 415.8265
   417.3625 417.8026 418.0450 418.5520 418.6337 419.5054 420.4264 421.4018
   421.5615 421.7412 421.7535 422.4498 423.1452 423.3374 424.1123 424.1800
   424.8302 425.2281 425.8680 426.1098 426.3379 426.6404 426.8236 427.0853
   427.3609 428.5796 428.9553 429.3223 430.3110 430.3300 430.5460 431.1891
   431.5728 431.6824 431.9301 432.0346 432.9430 434.2854 434.4136 434.7254
   435.4858 436.6883 436.9360 437.2082 437.5424 437.8843 438.0649 438.7494
   438.9967 440.2371 440.3532 440.8379 441.3865 441.4170 441.8378 441.9914
   442.0612 442.6871 442.6875 443.1710 443.3523 443.9406 445.1818 445.2286
   445.4641 445.7334 446.2657 446.3211 446.6489 449.3926 451.5887 451.6726
   451.8670 452.3343 452.7445 453.0876 453.1432 453.4146 453.8611 453.8871
   454.3803 454.7997 455.2048 455.7851 456.2104 456.3565 456.5215 456.6762
   457.1380 457.2934 457.5794 458.6996 459.3660 460.0133 460.2003 460.4006
   460.6582 460.6754 461.4285 461.4306 463.2550 464.6254 465.6436 465.6700
   465.7237 465.9427 466.2423 466.5261 468.7800 469.1357 470.3755 470.5318
   470.7565 471.5357 471.5694 472.0226 472.3348 472.5594 472.8205 473.0562
   473.3870 473.4491 473.8203 473.9543 474.2655 474.3628 474.9960 476.3491
   476.6904 478.2892 478.5215 479.2210 479.6165 479.9973 480.4111 480.7270
   481.2223 481.7404 482.1666 482.2836 482.3423 484.7228 485.0889 485.2698
   485.9371 486.0281 486.8905 487.8085 487.9952 490.0658 490.3785 490.5939
   490.7928 491.1127 491.3371 491.5637 491.6437 492.4515 492.5004 492.7470
   493.2383 493.8981 494.4238 494.4669 494.9509 494.9929 498.4691 498.5214
   498.7181 498.7664 499.2005 499.2528 499.5348 499.6356 499.8453 499.9402
   500.2130 500.2617 500.6615 500.8668 500.8947 501.2343 502.5382 503.6154
   503.6810 504.2007 504.2056 504.5178 504.5962 504.7572 505.6786 506.2388
   507.5557 507.7243 507.8582 508.4382 508.7569 509.4448 510.1611 510.4949
   510.6483 511.8800 513.3418 514.5048 514.9010 514.9693 515.4604 515.7651
   515.7774 516.0965 516.4550 516.8125 516.9546 517.6614 517.7647 517.9155
   518.0576 518.3299 518.9514 519.8041 519.9169 520.4245 520.5109 520.6345
   520.6733 521.6596 522.4672 522.6463 522.9160 523.0447 524.1972 524.3235
   524.3878 525.1445 525.3708 525.6014 526.1748 527.9875 528.0964 528.2220
   528.5607 529.4527 530.1127 530.2711 530.9099 531.1039 531.7189 531.8287
   532.0713 532.6122 533.0952 534.4655 534.8829 534.9424 535.5194 536.4882
   536.8839 536.9753 538.7585 539.4409 539.5878 540.5064 540.6025 541.0866
   541.1955 541.4881 541.6828 541.9549 542.1825 543.2021 543.3812 544.0563
   544.2741 544.7972 545.0053 545.1329 545.2780 545.8102 545.8494 546.2651
   546.2943 546.9363 546.9446 548.1332 549.2082 549.5391 549.8005 550.0822
   550.1343 550.5478 550.9654 550.9795 551.9800 552.1361 552.8478 552.9000
   553.1495 553.8862 553.9586 555.1627 555.5390 556.0116 556.4084 556.5374
   556.6836 556.7916 557.0418 557.3841 557.5600 557.9109 558.5045 559.0851
   559.4600 559.5723 560.3721 561.1783 563.7619 563.8137 563.9479 564.0632
   564.1537 564.2563 564.3990 564.5656 564.5899 564.7448 564.7537 565.3280
   565.6473 565.7433 566.8711 567.5962 567.8944 567.9299 568.4243 568.5909
   569.6195 569.6891 569.8329 570.1292 570.6018 570.8005 571.6790 574.7080
   574.8941 574.9455 575.8815 575.8949 576.8569 576.9625 577.0394 577.5988
   577.9385 577.9442 578.2234 578.2530 578.3860 578.4816 578.7647 578.9411
   579.0164 579.1563 579.8138 579.8430 580.2693 580.2972 580.5602 581.4845
   582.6252 582.6592 582.9155 583.1518 583.3060 584.7174 585.3810 585.9682
   586.0876 586.2079 586.4764 586.6057 588.2349 588.9380 589.0553 589.1588
   589.2052 589.8161 590.8984 591.0441 591.2452 591.2766 591.7633 591.7801
   593.2422 593.3870 593.6985 593.9687 594.6251 595.2307 595.4943 595.5177
   595.7935 596.3662 596.4040 596.7856 597.0191 597.0520 597.7761 598.5028
   598.8767 599.6367 599.7821 600.2119 600.2763 600.7498 601.3543 601.5485
   601.7407 602.1330 602.2513 602.9213 603.1025 603.3719 603.4482 603.8189
   603.8631 604.6239 604.7659 604.8724 604.9116 605.4079 605.8233 606.0450
   606.1623 606.4289 606.8358 608.0250 609.3102 610.3739 611.9595 612.0685
   612.7929 612.9828 613.3085 613.3490 614.4375 614.4684 615.0635 615.2667
   615.8820 615.9346 615.9811 616.1671 617.7667 617.9454 618.2335 618.9183
   619.0076 620.5655 620.5702 620.9514 621.1928 621.5726 621.6817 622.1981
   622.7779 622.8624 623.8026 624.1969 624.5637 624.9055 624.9963 625.0391
   625.2305 625.5574 625.5997 625.9091 626.8057 626.8668 627.1125 627.7469
   627.9197 628.1759 628.4695 628.5093 629.5436 630.0155 630.1613 630.6239
   630.6526 630.9627 631.6180 631.8894 632.0069 632.2753 632.5293 634.2778
   634.3477 635.1993 635.2975 636.4149 636.9355 636.9409 637.6595 637.8559
   638.9727 639.1792 639.9930 641.1285 641.7987 641.8434 641.9894 642.0832
   642.2250 642.3348 642.5201 643.0019 643.0301 643.3110 643.3184 644.0215
   644.5207 644.6080 645.6149 645.9397 646.0703 646.9820 647.6738 648.3153
   648.8157 649.1163 649.1827 649.6365 649.8481 650.2361 650.3644 651.3031
   651.9371 652.0774 652.4400 652.5973 653.0880 653.3326 653.5563 654.0026
   654.8789 655.1601 655.8325 656.1552 656.4701 656.7849 658.0994 658.4914
   659.1746 660.2476 660.6588 660.7459 661.1491 661.9602 662.1849 662.2085
   662.2375 662.4056 662.5569 662.8845 663.1012 663.2301 664.1484 664.4078
   664.8920 665.7413 665.8161 666.1512 666.3260 666.7250 667.1238 667.1280
   668.0143 669.0013 669.3464 669.6107 669.6508 669.8359 671.1758 671.5431
   671.5769 671.6884 671.8772 672.1509 673.9620 674.1137 674.2773 674.3738
   674.4200 674.7138 675.7450 675.9296 676.1656 676.2197 676.2634 677.1762
   677.2422 677.9723 678.3143 678.4705 679.2673 679.2835 679.5028 679.7613
   680.2408 680.3803 681.1482 681.1718 681.5283 681.5579 681.8483 682.1058
   682.1403 682.9297 683.0815 683.5147 683.8611 684.3531 685.4316 686.4238

          k = 0.5000 0.0000 0.5000 (  2437 PWs)   bands (ev):

   -93.6689  -6.6431   1.1199   2.4356   4.3828  11.3744  13.3351  13.8195
    14.6082  16.5149  19.1266  22.0698  23.9185  25.6041  27.4825  28.1904
    29.0835  31.9254  35.1296  35.2354  36.8494  39.0763  39.2543  41.7674
    42.0569  43.1963  44.0766  46.8148  49.5141  49.9288  52.0210  52.5654
    53.8698  54.9362  55.9300  56.1965  56.8092  57.9829  58.9610  64.2563
    64.2943  65.8637  66.1289  68.4343  69.2911  71.2369  72.2871  73.2525
    73.9043  73.9802  74.9922  75.6074  76.5488  76.5704  79.9299  80.8132
    81.3677  83.3429  83.9189  84.0962  85.2155  86.0112  87.9683  89.1001
    89.6986  90.5770  90.7976  92.4802  94.7017  94.9229  96.8431  97.9310
    98.0175  99.0350 100.0146 100.2612 101.7135 102.0376 102.6351 103.1379
   104.1303 105.8692 105.9861 108.0983 108.7038 109.0453 111.8776 112.3649
   113.2195 113.6530 113.9744 115.6965 115.8830 117.5992 118.1923 119.2979
   119.6063 120.8670 121.4189 122.4983 124.3275 125.7938 126.1780 127.6715
   127.9637 128.1376 129.2974 130.8851 131.5358 131.8984 132.3267 132.5476
   133.4720 135.4189 136.2520 136.5885 136.6521 137.5431 137.9807 140.5935
   141.3980 141.6454 142.0218 142.9369 143.0438 143.9673 144.4362 145.6267
   145.6473 146.4666 147.5556 148.7477 149.7358 149.8626 150.8292 151.8859
   152.6794 154.2410 155.0207 155.7835 156.0992 158.0056 158.3318 158.7182
   160.6964 161.0386 161.4850 163.2836 163.3621 164.3659 165.4768 166.8296
   166.9364 167.8067 167.9466 168.2479 168.5494 169.6667 169.7828 170.2987
   170.7371 171.0931 171.4637 174.7801 175.7867 177.1583 177.3768 178.2832
   178.8217 179.3385 180.8417 181.6101 181.9114 183.1755 183.2329 184.0199
   184.6880 185.7217 186.1240 186.8830 187.8887 188.6690 188.7368 189.1220
   189.1253 190.0744 190.8664 191.4337 191.7070 192.4930 193.6472 193.7023
   195.5399 195.8183 196.3448 197.3345 198.5183 199.8856 200.1145 201.4115
   201.8637 202.7902 203.1223 203.4158 203.8578 204.9111 206.0818 206.1873
   206.4120 206.8222 207.1156 208.3487 208.3889 209.9920 210.0827 210.9139
   211.5036 211.5154 212.2325 212.3073 213.3075 213.6139 213.6814 214.4854
   216.3507 217.3175 217.9604 219.1582 219.8143 220.4742 221.4011 222.0268
   222.2711 224.8354 224.9775 225.0773 225.4154 226.8631 226.8966 227.0046
   228.2076 228.7803 228.9470 229.2612 230.0701 230.0930 231.5050 232.3689
   233.0344 233.4031 233.8977 235.6581 236.0160 236.5014 236.5174 237.2761
   237.7305 238.5448 238.6673 238.7218 241.2890 241.5095 243.1500 243.3762
   243.6110 243.9915 244.5081 244.9660 245.2065 245.2772 247.1593 247.4534
   248.5888 249.4772 249.9961 251.0205 251.1193 252.7653 254.4105 254.4836
   254.6606 255.2438 255.4582 257.1649 257.7268 258.0452 259.3101 259.6274
   260.0314 260.3685 261.0123 261.5357 262.0711 262.2626 263.8402 264.2533
   264.3456 265.1690 265.4117 265.4856 266.0564 266.2337 266.5241 266.9071
   267.6449 267.9035 268.1022 269.3889 269.5027 270.5946 270.6328 271.5355
   271.7988 274.5810 275.7071 276.3518 276.3873 276.5550 277.3103 277.8728
   278.1760 278.2385 278.4254 278.5921 279.4257 279.5528 281.4555 282.5435
   282.7349 284.8060 284.9274 284.9701 285.5538 285.8583 286.1033 286.5391
   287.4489 287.8486 288.3421 290.9250 291.1737 292.4405 292.5397 292.7381
   293.0078 293.5731 294.4176 295.5810 296.3105 296.4507 297.6229 298.6556
   298.8248 299.0414 299.0533 299.3248 300.0226 300.2300 300.4055 301.1057
   301.2959 301.5488 302.1736 302.3539 302.4818 302.7223 303.4907 304.3040
   304.5594 304.6529 305.6421 306.0277 306.6063 308.3203 308.7619 308.7660
   309.5169 312.1715 313.2880 313.4951 313.6855 314.2264 314.2734 315.2632
   315.4465 316.1921 316.3082 316.8892 316.9540 317.5661 317.6379 319.2859
   319.4200 320.1024 320.1733 320.4460 320.6967 321.7196 321.8291 322.1769
   322.4548 323.0117 323.0533 324.2506 326.0197 326.1271 327.4652 327.6012
   328.4465 328.9714 329.3373 331.1923 331.5622 331.9478 332.9316 332.9512
   333.4080 334.3492 334.8408 335.2065 335.4171 335.6762 336.3533 336.4099
   336.5738 338.6233 338.6884 340.8308 341.3714 342.7277 343.2563 344.7272
   345.7015 346.3462 346.6646 346.6863 346.7278 347.4622 347.6479 347.9425
   348.1855 348.7648 349.2670 349.3062 350.0279 350.1725 350.3687 352.7398
   353.5767 353.6673 353.7782 354.1896 354.5057 354.7513 355.6806 355.7483
   357.0891 357.4606 357.5133 357.6274 358.0194 358.7382 358.9023 359.5711
   359.6875 360.7638 360.8752 361.0116 361.6002 361.9996 362.3426 362.4382
   362.5654 362.7003 362.7659 362.8481 364.6839 365.0912 365.3633 365.5524
   366.0269 367.1265 367.1663 368.0260 370.1122 370.4331 371.0388 371.1648
   371.4124 371.5720 371.8323 371.8888 372.0568 373.4941 373.6947 374.4836
   374.6930 374.7191 374.8089 375.6315 375.6671 376.6608 376.7494 381.0182
   382.0588 382.2591 382.4062 383.5466 383.7454 384.0318 384.4250 384.8894
   384.9920 385.0062 385.4091 386.4388 386.7771 387.1785 387.8339 388.4961
   388.6625 388.7352 388.9943 389.5153 390.9447 391.1143 391.3919 391.4202
   391.8798 392.1951 392.3742 392.7690 392.9101 393.9409 394.3017 396.0948
   396.3488 397.0691 397.4819 397.6399 397.6715 397.8756 398.0486 398.4605
   399.0089 399.1553 399.2763 399.7833 400.2537 400.4855 403.0962 404.4424
   407.0010 407.3368 407.4460 407.5224 407.7820 407.9039 408.2110 409.1431
   410.1320 410.4211 410.5876 411.3568 411.6148 412.0749 412.8335 413.5337
   413.6984 414.4847 415.2022 415.2882 415.5962 415.8655 416.1330 416.4730
   417.3477 417.4504 417.6269 417.9989 418.8412 418.8995 419.3688 419.5531
   420.2325 420.7728 421.0429 421.2480 423.5241 423.5959 424.4772 424.7771
   425.3720 425.6640 426.3702 426.5909 426.8047 427.7141 427.7205 427.8295
   428.0571 428.3863 430.8498 431.1470 431.2166 431.2956 431.3079 431.4487
   431.6369 433.0452 433.6058 434.3336 434.7440 434.9257 435.0348 435.1730
   435.3224 435.3732 435.4195 435.7134 436.1339 436.3641 437.3516 437.7709
   439.0614 439.4206 440.7782 441.2250 441.3947 443.2839 443.3180 443.6130
   443.6663 443.8717 445.8206 446.1091 447.4155 447.4185 447.7187 448.5811
   450.1800 450.1889 450.5179 450.7880 450.8488 451.9409 452.0833 452.3925
   452.4651 453.4154 453.9706 454.0469 454.2328 454.2965 454.4319 454.5573
   454.7523 454.9437 454.9681 455.3678 455.5200 455.9583 456.2078 456.8037
   456.9290 457.2503 459.7675 459.9402 460.6884 460.8986 462.9197 463.1381
   463.6048 463.9948 466.6216 467.1270 467.2155 467.3956 467.5341 468.2414
   468.6742 468.8556 469.5887 470.0371 470.5197 470.7094 471.8339 472.1425
   472.1815 472.2431 473.1642 473.2066 473.7488 473.9363 474.5803 475.6737
   475.8873 476.0285 476.2615 476.5670 476.6268 477.0697 477.2729 477.3961
   477.5917 477.6023 478.0197 478.6359 478.7882 478.8422 479.4634 480.0856
   480.3461 480.8826 481.0841 481.6579 482.9257 484.3536 484.7808 484.7819
   485.1357 486.0307 487.1679 487.2910 487.6852 487.8970 489.5411 489.8703
   490.0659 490.1455 490.2425 490.5947 490.8282 491.0301 491.0761 491.2899
   491.9181 492.3754 492.5055 492.5543 493.4588 493.5159 493.8665 493.9454
   494.5372 494.8861 495.0401 495.0854 497.1747 497.2403 497.6157 498.0363
   498.3270 498.6318 499.5486 499.7100 501.1755 501.3350 501.4953 501.8772
   502.0799 502.2989 503.1164 504.4508 504.6502 505.0600 506.1069 506.4013
   506.8649 507.4674 507.5697 507.5764 508.4332 508.5961 508.6698 508.8045
   510.7004 510.8601 510.8961 511.0816 511.1019 511.1636 511.2906 511.5764
   512.1764 514.2256 515.6325 515.7838 515.9667 516.4973 516.6667 516.8878
   517.1508 517.9356 518.9261 519.5419 519.9819 520.1029 520.1377 520.2423
   521.1770 521.2888 521.9759 522.1383 523.0287 523.5127 523.5761 524.7063
   524.8363 525.2962 525.6620 526.2731 526.9243 527.4617 527.5714 527.9880
   528.4877 529.3544 529.6234 530.1424 530.5325 530.7913 530.8203 531.3856
   532.1265 532.6263 532.8031 532.8901 532.9864 533.0328 534.1341 534.4796
   534.8321 534.9987 535.5670 537.0170 537.5127 539.1785 539.3198 539.5112
   540.3203 540.5156 540.5535 541.0882 541.7803 542.7766 542.8992 543.0003
   543.0095 543.5007 543.9947 544.7827 544.9625 545.0205 545.2496 545.5041
   545.6058 545.6333 546.6172 547.0477 547.2899 547.7260 548.6589 548.7490
   550.0483 550.1310 550.2868 550.5219 550.5584 551.2426 551.5793 552.6945
   552.8122 553.2035 553.4192 553.8702 553.9787 554.6765 554.7151 555.4392
   555.5138 556.0772 556.6245 556.7637 557.0996 557.1491 558.2962 558.4704
   560.0752 560.4284 560.4647 560.6938 561.2252 561.4278 562.2800 562.4326
   562.5482 562.7436 562.9778 564.9447 565.7101 565.9220 566.1955 566.3107
   566.4479 566.6102 567.0897 567.1873 567.9093 568.0135 568.0206 568.7385
   568.8395 571.7848 572.4871 572.8134 573.4461 573.6019 574.3372 574.9838
   575.0786 575.3885 575.6250 576.2215 576.8635 577.1174 577.8052 578.0608
   578.0763 578.3339 578.6967 579.3613 580.9300 581.5483 581.8017 582.5690
   583.5981 583.8016 583.8435 583.9059 583.9391 584.2492 584.2958 584.3885
   584.4226 585.0540 585.1412 585.4548 585.7620 585.8824 586.2914 586.5690
   586.6279 586.8081 587.2324 587.5062 587.7082 588.1114 588.7638 589.3665
   589.4932 589.5309 589.6871 590.9843 590.9862 591.9887 592.0061 592.5846
   592.9528 593.4533 593.4634 593.5666 593.7073 593.7554 593.8174 594.0887
   594.3991 595.7135 596.7723 597.3997 598.0154 598.1848 599.4088 599.6906
   600.1654 600.3328 600.7038 600.8534 600.9394 602.1693 602.4345 602.4547
   602.9346 603.5220 604.1974 604.2990 604.3620 604.6388 604.7863 604.8533
   605.5550 606.0197 606.5245 606.8959 606.9763 607.3368 607.4312 607.7586
   608.8121 608.9646 610.3790 610.4583 610.4959 610.7899 610.8646 612.2903
   612.5428 612.9481 613.1665 613.1883 613.2295 613.8726 614.1946 614.8854
   614.9154 614.9687 615.1802 619.2608 619.4286 620.0482 620.4063 620.7262
   621.3377 621.3884 622.0203 622.2501 622.4781 622.5460 622.7847 623.5322
   623.7863 623.7866 624.0316 624.7033 624.7766 625.1240 625.3575 625.3935
   625.5722 626.4104 626.6571 626.8123 626.9883 627.0888 627.2858 628.3020
   628.3529 628.4324 628.6572 628.8266 629.2041 629.3839 629.4482 630.4793
   630.5072 630.5628 630.6852 631.1525 631.9884 634.4771 634.9299 634.9393
   635.8646 635.9161 636.0226 636.2528 636.3175 637.4582 637.8032 638.1491
   638.3575 638.8274 639.1242 640.3166 640.4939 640.5270 640.7211 641.2228
   642.1317 642.6127 643.2149 643.4478 643.5082 644.1523 644.2628 644.8338
   644.8886 644.9766 645.4151 645.7036 646.0514 646.1854 646.7101 646.8780
   647.7404 648.0638 648.3861 648.9413 649.1150 649.2515 649.7067 649.7172
   649.8656 650.3698 650.4214 650.6504 650.8998 651.4768 651.5649 651.6592
   651.9746 652.4791 652.6502 654.8724 655.5820 655.9519 656.1733 657.0781
   657.1395 659.4658 660.4467 660.9340 660.9609 661.0462 661.1973 661.5077
   662.6637 664.3628 664.3852 665.3696 665.3951 665.4902 665.7183 665.9317
   666.0454 666.1644 666.4608 666.5927 667.0215 667.0704 667.4644 668.0538
   668.1369 668.1465 668.4386 668.8007 668.8117 669.3515 669.3855 672.1419
   672.8565 672.9289 673.4352 674.5374 674.7881 674.8622 675.1368 675.7938
   675.8369 676.0992 676.5691 677.2434 677.4148 677.6017 677.6169 677.6699
   677.7241 678.2697 678.8583 679.7869 679.8070 679.8512 680.0342 680.6157
   680.6774 680.8141 681.0918 681.2164 681.2336 681.3591 681.5760 682.4085
   682.4217 682.5292 682.6466 682.7564 683.2479 683.6964 684.0942 685.2682

          k = 0.0000-1.0000 0.0000 (  2450 PWs)   bands (ev):

   -93.6689  -6.0262   0.5283   2.8789   2.8789   8.6445  10.4543  18.1691
    18.1691  20.8883  21.7052  22.2605  22.2605  22.7140  28.1421  28.9456
    31.1242  31.1242  32.9625  33.6235  34.5636  34.5636  35.6029  40.9808
    44.3355  44.3355  44.9400  48.1253  48.1253  49.8016  51.8123  52.5362
    55.4758  57.2043  57.3803  57.3803  58.0515  58.7222  58.7222  59.2954
    62.8208  63.6623  63.6623  68.3377  70.9387  71.6921  71.6921  73.0586
    74.2616  76.1825  76.1825  78.3562  79.5512  81.3856  82.1519  82.1519
    83.1778  83.6010  83.6010  84.4978  84.4978  85.1524  85.4733  86.9243
    88.2730  89.8953  96.4507  96.4507  96.5584  96.5826  97.8202  97.8202
    98.3856  99.9134 101.3958 101.3958 101.5367 102.0056 102.8105 102.8105
   103.3648 103.6062 104.4700 104.4700 104.7491 104.8045 108.9900 109.0253
   109.9480 109.9480 110.5571 110.5571 113.0580 114.3655 117.8489 117.8489
   119.7143 122.3701 122.3701 122.7860 122.8037 125.4476 125.4476 125.7010
   127.6217 128.3623 128.4583 128.4583 129.3528 130.4031 130.4031 131.1134
   133.4028 134.9003 135.7957 135.7957 136.0804 138.5697 138.5697 140.1492
   142.6094 143.1021 144.8686 145.7801 145.7801 147.2573 151.3909 151.3909
   151.4474 151.8255 153.1250 154.2301 154.2301 154.4441 155.2554 157.2357
   157.2357 157.2763 158.6492 158.6760 158.6953 159.2533 159.2533 159.9184
   160.2406 160.2406 160.6662 160.6662 161.5065 161.5738 164.8919 164.9432
   167.6378 167.6379 168.2344 168.3439 172.0908 173.3315 173.8157 173.8157
   174.2134 175.2973 175.2973 175.9280 176.2405 176.2405 177.0242 177.3551
   177.3551 177.4526 178.3110 178.3110 179.3716 180.7906 180.8052 180.9388
   181.8443 181.8443 183.1148 183.3034 183.8927 183.8927 184.7104 185.0067
   185.0067 186.0522 186.3007 186.7489 186.7489 186.9539 187.7524 188.4778
   191.1166 191.1166 191.9832 195.3587 196.7277 196.7277 198.1097 198.1097
   198.8491 199.5621 200.5972 200.5972 201.2673 202.2054 206.3404 207.0724
   207.2178 207.2178 207.4588 208.4085 208.4085 209.1054 209.1777 209.2557
   209.9010 209.9010 211.6663 212.1732 212.1732 212.3128 217.6553 218.1034
   219.5639 219.5639 220.9258 221.6776 222.9503 223.0734 223.0734 226.1722
   226.1722 226.4153 228.3736 228.3892 228.8427 229.6560 229.6560 230.1726
   232.1991 232.1991 232.5684 232.9215 233.0049 233.4308 233.4308 233.7490
   234.5596 234.5596 234.8143 234.9257 235.1240 235.1240 238.8100 239.1605
   239.3555 239.3555 240.0501 240.0501 241.0783 241.4333 246.0425 246.9375
   246.9375 247.8734 249.2786 249.6629 249.8161 249.8161 250.7943 251.8109
   251.8881 251.8881 251.9560 251.9813 252.1285 252.1285 254.1412 254.1412
   254.3857 254.5333 255.2422 255.4471 255.4471 255.5339 256.6585 256.9899
   256.9899 257.0020 257.7118 258.1406 258.1406 258.1450 260.4327 260.5370
   260.8132 260.8132 260.8617 260.8617 261.0592 261.1317 265.8271 266.1817
   269.3484 269.3484 270.0868 270.0868 272.0618 272.4476 276.5031 276.6234
   276.6234 277.1530 277.1530 277.2268 277.3282 277.6427 278.0329 278.0819
   278.5297 279.1066 279.1066 279.4401 279.4401 279.9818 280.0055 280.2388
   283.1030 283.1030 284.4549 284.4549 284.7824 285.8314 286.8867 286.9088
   287.1347 287.1347 287.9684 288.2701 288.2701 288.4490 288.6321 288.6321
   289.0544 289.0700 293.4159 294.5389 294.5389 294.7712 296.6415 297.4679
   297.4679 299.4300 300.2453 300.2453 300.7418 300.7889 300.9865 301.5191
   301.6503 301.6503 302.2075 303.0391 305.0526 305.5810 305.5810 305.9279
   307.2587 307.2587 307.5887 307.9774 309.0889 309.5719 309.5719 309.7851
   311.2033 311.2033 311.6025 311.9615 313.2731 313.2731 313.2957 313.3019
   313.3177 313.3177 313.4024 313.5218 317.7816 318.5632 319.7162 319.7162
   320.1105 321.0602 325.3113 325.3731 325.3731 325.8013 325.9954 325.9954
   326.1669 326.1669 326.1994 326.6367 326.6367 326.8923 330.5946 330.8606
   330.8606 331.2461 331.4363 331.4755 331.5546 331.5546 331.7272 331.9401
   332.0472 332.0472 332.0696 332.2935 332.3397 332.6371 332.8034 332.8035
   333.4463 333.5020 333.6080 333.6080 334.5541 334.5541 335.2877 337.0645
   337.5310 337.5796 337.5796 337.7758 337.8115 337.9342 337.9359 337.9359
   338.3668 338.4315 338.4315 338.4916 347.8769 349.7925 350.2216 350.2216
   351.0049 351.0668 351.0668 351.3873 353.4065 353.5955 354.3392 354.3392
   354.8003 354.8003 355.9672 355.9720 358.0047 358.6937 358.6937 358.7978
   359.2385 359.5635 359.5635 360.2218 362.7278 362.7278 362.8752 363.7087
   363.8649 364.1491 364.1491 364.8181 370.3742 370.4693 370.4693 371.6609
   372.3294 372.4659 372.4659 373.2630 376.3308 376.3308 376.4145 377.2720
   377.7621 377.7621 377.8379 378.4237 379.9903 382.6686 382.6686 382.9914
   384.4255 384.4255 384.4924 384.5902 384.6284 384.6284 384.6392 385.7285
   386.0885 386.6183 386.6376 386.6376 386.7152 386.9300 386.9300 387.3267
   387.6167 387.6167 387.7542 387.7806 387.8200 387.8388 387.8388 388.0202
   388.4530 388.4530 388.4640 388.5202 395.0852 396.2847 396.4503 396.9533
   397.3012 397.3012 398.4148 398.4148 399.0380 399.6138 400.0523 400.8157
   400.8157 401.4322 401.7269 402.0881 402.0881 402.1847 402.5881 402.5881
   403.1560 403.1988 404.9168 404.9168 405.1872 405.1872 406.1827 406.1884
   406.3687 406.4578 406.4578 406.7307 407.0872 407.5929 408.5059 408.5059
   408.9034 409.4977 410.5046 410.5271 410.6752 410.6752 411.7865 411.7865
   411.9183 412.0095 412.0993 412.2430 412.3103 412.3103 412.7227 412.9613
   412.9613 412.9861 412.9861 413.8772 414.4072 414.4072 414.5998 414.6783
   414.7146 414.7987 414.7987 414.9941 420.5718 421.9393 421.9393 422.3959
   422.3959 422.8401 423.2070 423.2555 424.1833 425.0409 425.5111 425.5422
   425.5422 426.9486 426.9486 427.8626 429.5235 429.6354 429.7890 429.7890
   430.5091 430.5091 430.6126 430.6126 431.1562 431.1572 431.7034 432.4649
   432.6409 432.6837 432.6837 432.8905 434.8700 435.3782 435.9838 435.9838
   436.0159 436.7889 436.9577 436.9577 437.5921 437.6313 438.3267 438.3267
   439.6790 439.7057 439.7577 439.7577 439.8496 439.8496 439.9207 439.9470
   451.8239 451.9519 451.9519 451.9960 452.7187 453.0808 453.1513 453.2586
   453.2586 453.5883 453.5883 454.2022 455.1030 455.7711 457.2761 457.2761
   457.8875 457.8875 457.9947 458.0253 458.0253 458.3911 458.6448 458.8049
   458.8049 459.0643 459.0986 459.1862 459.4878 459.4878 459.6706 459.8467
   459.8467 459.9127 460.8360 462.3805 462.4363 462.6097 462.6097 462.6122
   462.9306 463.6017 464.9011 464.9011 465.0897 465.0897 465.6815 465.6815
   465.8402 465.8411 465.9427 466.0102 475.0961 475.1644 475.1644 475.4538
   475.6338 476.8607 476.8607 476.9938 477.5365 478.6540 478.8007 478.8007
   479.0733 479.0733 480.2421 480.5395 480.5962 480.5962 480.7744 480.9229
   481.4372 481.4818 481.4818 482.0266 482.9541 482.9541 483.4580 483.5226
   483.5751 483.5885 483.5885 483.6485 483.6485 483.6525 483.6680 483.7382
   484.5949 484.5958 484.5958 484.6307 487.1054 487.1859 487.1859 487.3264
   488.9795 488.9873 488.9873 489.0044 496.2225 499.3250 499.3250 500.0076
   500.0076 500.8375 500.9141 501.0140 501.2248 501.8685 502.9706 502.9706
   503.2589 503.4560 503.6452 503.6452 504.1467 504.2208 506.0676 506.0676
   506.5047 506.6049 507.1901 507.1901 507.3930 507.7240 508.3610 508.6385
   508.6474 508.6474 508.9181 508.9682 508.9682 509.1610 509.1947 509.1947
   509.7226 509.8211 512.3847 512.9076 512.9076 513.7538 513.8862 513.9006
   513.9006 514.2382 514.6551 514.6551 514.9191 515.0823 515.1811 515.3328
   516.0018 516.0018 517.1381 518.5548 518.5548 520.6933 523.9173 525.7956
   531.4155 531.4155 531.4778 531.4778 531.8343 531.9122 533.1319 533.1319
   533.6261 533.6261 533.6822 533.7445 534.2281 534.8946 535.0514 535.0561
   535.1062 535.1062 535.1442 536.0688 536.0688 536.5539 536.5539 536.7346
   536.8364 537.0554 537.0585 538.0363 538.0363 538.4382 538.8506 538.8506
   539.1920 539.3749 539.4426 539.4803 539.4803 539.7168 539.8527 539.8527
   540.2767 540.2954 540.5297 540.6821 540.6821 540.8145 548.3248 548.9007
   549.5971 549.5971 549.6297 550.3502 550.3548 550.3548 550.6161 551.3219
   551.4096 551.4096 551.6111 551.6953 551.6953 552.0748 552.7484 552.7484
   552.7574 553.2075 553.5181 553.6735 553.6735 553.7736 554.3736 554.6456
   554.7073 555.0451 555.0451 555.2607 555.2607 555.5351 555.6534 557.0573
   557.0573 557.3548 557.3548 557.4570 557.7308 558.0240 558.0379 558.0379
   558.3223 558.4382 558.4617 558.4617 558.5082 558.6008 562.1985 562.3490
   562.3490 562.6147 562.7838 563.0998 563.0998 563.2560 563.2622 563.3028
   563.3028 563.5887 563.9144 563.9144 564.0798 564.0872 564.0900 564.1692
   564.1692 564.2699 564.7192 564.7192 564.7871 565.0542 566.5734 566.6799
   566.6874 566.6936 566.6936 566.8234 566.8352 566.8493 566.8493 566.9849
   567.0388 567.0388 567.0958 567.1406 567.1406 567.5400 577.2630 577.2630
   577.2850 577.6312 577.8645 578.7838 579.0717 579.0717 579.2589 579.5003
   579.7405 579.7405 579.8039 579.9690 580.0847 580.0847 586.3823 586.5340
   586.7592 586.7592 587.3202 587.3202 587.9266 588.4900 588.8099 588.8804
   588.8804 588.9675 589.1771 589.3935 589.3935 589.4675 589.6460 589.8568
   589.8568 589.8876 590.1275 590.5672 590.5672 590.6868 590.7056 590.7678
   590.7678 590.9304 591.0062 591.0757 591.1211 591.1211 599.7567 599.8753
   600.1809 602.0943 602.0943 602.5004 602.5004 604.6487 604.9062 604.9062
   605.4755 605.5219 606.2642 606.2642 606.8038 607.0741 607.0745 607.1748
   607.1748 607.6916 608.3002 609.4762 609.7958 609.8551 609.8551 610.0316
   610.2293 610.2293 610.2811 610.7755 610.8175 610.8984 610.8984 611.9152
   612.6762 612.6762 614.8702 614.8823 615.0314 615.0314 615.0401 615.0401
   615.1367 615.1393 616.2656 616.2656 616.3276 616.7104 616.7104 616.7180
   616.7277 617.1177 624.2267 624.5056 624.5785 624.7810 624.7810 625.6329
   626.6478 627.4273 627.4273 627.6006 629.2739 629.2739 629.3013 629.9671
   630.4028 630.4028 630.5379 630.6595 630.8052 630.8052 631.1029 631.1029
   631.2062 631.2280 631.4505 631.7483 632.0456 632.0456 632.8523 632.9241
   632.9241 633.6048 634.0068 634.3979 634.4032 634.8422 634.8422 634.8449
   634.8662 634.9546 634.9546 635.0822 635.1668 635.1668 635.4833 635.6131
   635.6976 635.7227 635.9954 635.9954 636.0842 636.0842 636.1370 636.2041
   636.2041 636.2374 636.4451 636.5276 641.4433 641.4433 641.4944 641.4944
   641.6514 641.6514 641.7146 642.1773 642.3036 642.6039 642.6575 642.8344
   642.8344 642.9129 649.7939 649.9988 651.1194 651.2467 651.2467 651.2996
   651.2996 651.6600 652.6286 652.9617 653.4326 653.4326 653.7923 654.4512
   654.9282 655.1265 655.1265 655.5778 656.4192 656.5454 656.5454 656.6653
   657.0979 657.0979 659.7944 659.7944 660.2437 660.4169 660.8680 660.8962
   660.8962 660.9235 664.4786 664.4947 664.6373 664.6373 664.7075 664.7694
   665.1106 665.1106 665.9694 665.9694 666.3404 666.4534 666.5186 666.5619
   666.5619 666.6190 666.8289 666.8376 666.8376 666.8849 667.1836 667.1836
   667.5391 667.7051 676.5085 676.5446 677.2933 677.2933 677.5260 677.9586
   678.2025 678.2025 679.2275 681.8719 682.2021 682.2992 682.2992 682.5631
   682.5631 682.5705 682.6730 682.7304 682.9509 683.0749 683.1190 683.1190
   683.2936 683.2936 683.3244 683.8851 683.8851 684.8696 685.9308 685.9430
   685.9430 686.6794 686.6795 686.8565 686.8850 687.6171 687.6171 689.2352

          k =-0.5000-1.0000 0.0000 (  2468 PWs)   bands (ev):

   -93.6689  -5.9737   1.2784   1.6772   2.1928  11.9658  13.6197  13.8932
    14.3124  19.7714  19.7891  22.4098  23.9220  26.9979  28.1324  29.6025
    29.6621  31.5219  33.3445  33.4393  35.4204  36.8648  37.9179  41.7566
    41.7921  42.8979  43.9300  44.1857  47.0332  49.5071  51.5014  52.6387
    54.0274  54.2702  55.8431  56.9953  59.9951  60.3244  61.2710  62.6489
    64.2506  67.5884  67.8705  68.6571  68.9789  71.2008  72.2077  72.7189
    73.6137  73.9277  76.8775  78.1189  78.2900  78.4043  78.8318  82.0914
    82.3371  83.0000  83.1286  85.0612  85.1387  87.0897  87.1730  89.5385
    89.5640  89.7438  90.0150  94.2752  94.6099  96.1657  96.5453  97.2779
    99.0202 101.0577 101.1627 101.2270 101.8417 102.8907 103.0648 103.4663
   103.8518 104.0939 104.5035 105.1367 107.9046 108.1396 110.1925 110.3947
   110.9835 111.8758 112.4717 113.2036 113.9682 116.2736 116.5887 116.5961
   116.7853 118.4285 119.6024 120.0036 120.0886 120.9447 122.1990 123.9624
   124.4235 127.2652 127.3388 127.6332 129.0691 131.0466 131.9055 134.6929
   135.6256 136.3475 138.9732 140.2356 141.5533 141.9499 142.8530 144.9057
   145.0953 145.5364 145.6899 146.6678 148.0610 148.5959 148.8627 148.9026
   149.3035 150.8542 151.3307 152.6219 152.9118 153.8458 154.2941 154.8493
   155.5925 155.7197 156.0352 156.9575 157.0681 157.3005 157.7461 157.8233
   159.5382 160.3130 160.6801 162.3271 162.4497 162.9960 164.4324 164.4543
   165.1829 165.8225 165.9449 166.4099 167.0610 167.8602 167.9877 169.4418
   174.2451 175.4045 175.5732 176.4617 177.1615 177.2683 178.0766 178.6124
   178.8365 179.1940 179.3116 179.6846 180.2560 180.4787 181.7314 181.8355
   182.5050 183.8685 184.3361 184.5056 184.9031 185.4272 185.6610 186.0624
   186.2730 188.2067 190.1399 190.3807 191.2209 191.5791 192.2445 192.5898
   192.7049 193.8040 194.1007 194.1822 194.2027 194.3481 194.7133 194.9609
   198.1505 198.6528 199.0588 200.8829 200.9514 201.1678 202.0300 202.0587
   207.8944 208.7746 210.4613 210.7095 210.9475 211.4255 211.8180 212.4450
   212.8993 213.1028 213.5139 214.3832 214.5769 215.2594 215.8573 215.9628
   217.3287 217.6117 219.0010 219.3238 221.5205 222.5557 222.7500 223.3231
   224.8229 224.8337 224.8954 225.6215 226.8661 227.2272 227.2565 228.2380
   229.4734 229.9720 230.0956 230.2704 230.5990 230.7628 230.8201 231.0349
   233.2524 233.3117 233.4074 233.4274 235.6211 237.2574 237.2990 237.6290
   239.2351 240.0493 240.5922 241.4143 241.5580 241.9115 242.2565 242.3267
   242.3379 243.4895 243.7386 244.1673 246.7315 246.9997 247.1179 248.0370
   250.9758 251.1054 251.5949 251.7703 253.4985 253.8301 255.4655 255.7894
   255.8592 256.3331 258.4306 258.7154 261.0593 262.2517 263.0726 263.1342
   263.2945 263.3435 263.9326 264.1865 264.6831 264.9367 265.3662 265.7797
   265.8505 265.9877 266.4907 266.9944 267.2004 267.4427 267.8559 268.0297
   268.3761 268.4536 268.6241 268.9816 269.0624 269.5967 269.6601 269.8148
   275.9308 276.2688 276.6381 276.9153 277.6602 278.1628 278.5905 278.7256
   279.3779 279.6134 279.6477 280.1935 280.5124 280.5555 280.5948 280.7128
   284.2993 284.5155 284.6492 285.6708 286.1297 286.3061 286.3331 286.4317
   286.7168 286.7473 288.4688 288.7177 290.3611 290.3633 290.4051 290.5701
   290.6237 292.4207 293.0102 293.0697 293.9033 294.0855 294.0861 294.4232
   295.0308 295.0672 295.2440 295.4708 295.9836 296.3010 296.3748 296.3812
   298.3562 298.6515 298.6803 298.9161 302.2785 302.2896 302.3680 302.6456
   303.0510 303.1192 303.1474 303.1898 307.2856 307.4244 307.5881 307.6031
   309.2413 309.4801 309.5950 309.9005 310.0288 310.1228 310.2012 310.8430
   312.7021 313.1634 313.2625 313.7083 316.1115 316.2816 317.0864 317.3372
   317.8141 317.9356 317.9846 318.1812 324.6871 324.7305 324.7354 325.4080
   325.7560 326.7390 326.9080 326.9755 327.8096 328.9166 328.9390 329.6827
   329.8515 330.1751 330.4251 330.5495 330.9566 330.9712 331.7285 332.0706
   334.1864 335.2407 335.3533 335.7248 337.1721 337.5042 337.5860 337.7955
   340.9346 341.4076 341.8110 341.9298 341.9754 342.2082 342.4694 342.5832
   343.2839 343.6403 343.7660 343.8428 344.8800 344.9812 345.6649 346.5189
   346.6084 346.6587 346.7451 347.1066 350.1165 350.1904 350.6028 351.0112
   351.0284 351.0574 351.5320 351.8074 351.8282 351.9972 352.2817 352.4731
   352.8688 352.9420 355.5238 355.7266 355.7581 355.8387 357.0235 357.5602
   362.1014 362.2198 362.2700 362.3171 362.8050 363.4583 363.5199 363.6684
   365.8933 365.9785 366.0123 366.1065 367.0380 367.3947 367.6358 368.0482
   369.6479 369.7575 369.9529 369.9879 370.3841 371.2769 371.4856 371.5961
   372.8938 373.0467 373.1590 373.3942 376.3536 376.5561 377.3751 377.5506
   378.3224 378.5913 379.1749 379.1777 379.4209 379.6903 379.8423 380.1807
   380.3359 380.4534 380.5828 380.6654 381.8611 382.1933 382.1935 382.3656
   383.6327 383.6914 383.6968 383.7024 389.4978 389.7860 390.8150 390.9483
   392.2747 392.7753 392.8267 393.0077 393.6269 394.7399 395.3294 395.8676
   397.3874 397.5634 397.5993 398.6543 398.7572 398.7790 399.0783 399.2836
   400.1685 401.0845 401.2373 402.2955 404.5491 404.7889 405.0233 405.2133
   405.3572 405.7462 405.8720 406.3640 406.9032 406.9375 407.1188 408.0376
   408.1839 408.6848 409.0854 409.2231 409.7057 409.7457 409.8979 409.9019
   410.0893 410.1074 410.1669 410.3144 413.7225 413.9017 413.9171 414.4012
   414.8059 415.0264 415.0438 415.2053 415.2382 415.2611 415.4731 415.4800
   415.7632 415.8619 416.0559 416.1590 416.7560 416.8501 416.9301 416.9873
   418.6809 418.8539 419.0210 419.2589 420.0609 420.1423 421.0382 421.5372
   422.5575 422.8255 422.8955 422.9217 423.0381 423.1064 423.2209 423.3258
   423.3765 423.3819 423.4583 423.6181 429.8014 430.2282 430.3403 431.8250
   432.1853 432.4624 432.5692 432.6102 432.7462 432.8529 432.9326 433.2204
   436.2392 437.1465 437.3011 437.3982 437.7644 438.1122 438.2704 438.6699
   439.6215 439.6831 440.2589 440.3248 441.1745 441.2811 441.5304 441.6539
   442.6894 442.8016 442.9429 443.0266 443.3126 444.2274 444.5303 444.5940
   444.9855 444.9931 445.0788 445.2226 446.0446 446.0981 446.4411 446.7715
   449.2318 449.9411 453.9573 453.9912 454.0125 454.0860 455.0032 455.1262
   455.3137 455.6619 455.9877 456.0381 456.1350 456.1421 456.1953 456.3558
   456.5792 456.6116 456.7228 456.8957 457.1396 457.4894 457.5032 457.8667
   458.0659 458.0966 458.3866 458.4094 458.4229 458.5318 458.8017 460.1041
   460.1125 460.1936 460.2551 460.3345 468.0657 468.7173 469.0216 469.0525
   469.1589 469.3679 470.1663 470.2788 470.4902 470.6176 470.6547 470.8356
   471.0336 471.0510 471.0891 471.2495 471.6357 472.7525 472.8782 474.2473
   477.2054 477.6294 477.8659 478.0040 478.3276 478.5324 479.1771 479.2677
   480.1153 480.2995 480.5298 480.5927 480.8997 481.4361 481.6498 482.0358
   482.8066 484.3579 484.6972 484.7914 485.1056 485.1160 485.2398 485.3249
   493.5604 493.6519 493.6872 493.9859 494.3198 494.3568 494.9150 494.9706
   495.4673 495.6986 495.9577 495.9714 498.5369 498.5904 498.8921 498.9007
   500.3338 500.8330 500.8516 501.6353 502.2888 502.5510 502.9522 503.6518
   503.8847 503.9163 505.0128 505.3181 505.9002 505.9073 506.4778 506.5706
   506.8249 506.9749 507.1740 507.4248 508.6710 508.6860 508.7285 509.0147
   509.0674 509.3489 509.4103 509.5900 514.1752 514.6029 515.2156 515.2256
   515.4641 515.4952 517.5030 517.9558 518.6671 518.7951 518.8290 518.9110
   519.1474 519.2396 519.2793 519.4366 520.4516 520.4805 520.7167 520.7570
   520.8488 520.9033 521.0774 521.1611 524.5179 525.0972 525.2895 525.7178
   525.9511 526.7730 527.3879 527.6713 528.2386 528.8971 529.3634 529.8225
   530.5610 530.9411 531.2121 531.3558 531.4821 531.6916 531.7669 531.9508
   531.9736 532.2958 532.5830 532.5918 532.6816 532.8880 532.9205 533.0162
   533.0419 533.1846 533.3251 533.8546 534.3059 534.4366 534.6013 534.7089
   535.0037 535.1769 535.7080 535.8024 535.9587 536.1768 536.4121 536.4305
   537.1586 537.1949 537.4684 537.5054 537.5466 537.7411 537.8165 537.8306
   542.6049 542.6262 542.8614 542.9714 544.0728 544.2786 544.9240 544.9484
   545.0575 545.4860 545.5819 545.7000 545.8296 545.8517 546.3981 546.4676
   546.6358 546.6592 546.7084 546.7285 546.7590 546.7943 546.8690 546.9659
   546.9888 547.1156 547.1848 547.2154 554.0800 555.3584 555.7812 555.8139
   556.5407 557.1818 557.5172 557.6871 557.8409 558.6377 558.8597 559.1379
   559.3100 559.8714 560.1126 560.5153 560.8103 561.1679 561.1897 561.5519
   564.4331 564.5538 564.9942 565.0091 565.2159 565.3155 565.7312 566.6311
   566.6572 566.7906 568.5082 569.0267 569.5602 569.8141 569.9529 569.9916
   570.3178 570.3789 570.5341 571.2687 571.5128 571.6034 571.7720 571.8737
   571.8793 572.1800 573.2092 573.7519 575.1527 575.4022 575.6167 575.6627
   575.6701 575.7049 575.7865 575.8002 576.9116 577.4937 578.1082 578.4215
   579.1025 579.3512 579.4339 579.7695 579.8601 580.4793 580.7081 581.1231
   583.6007 583.8623 583.8841 583.9698 584.3729 584.5282 584.5842 584.5930
   589.6295 589.7570 590.3035 590.4519 590.9498 592.9552 592.9711 593.1349
   593.1450 593.3043 593.4918 593.5648 593.5798 594.1078 594.1492 594.1935
   594.3429 594.3726 594.8770 594.9489 595.3131 595.9109 596.1412 596.5932
   596.9804 597.0606 597.1517 597.6927 597.9588 598.3994 598.8447 598.9994
   600.0745 600.2208 600.3843 600.4921 601.2315 601.4785 601.5583 601.8757
   602.4210 602.5591 602.5930 602.9923 603.1489 603.2029 603.3746 604.4343
   605.6657 606.0945 607.2152 607.3833 607.5361 607.6049 608.5009 608.5625
   608.6895 608.9932 609.3194 609.4666 609.6125 609.6749 609.7665 609.7872
   609.8173 610.0749 610.0834 610.1487 610.2375 610.2889 610.3973 610.5623
   610.5915 610.6322 611.0819 611.0983 612.9796 613.1908 613.3361 613.4390
   613.4465 613.6152 613.7098 613.9042 621.0666 621.4258 621.5136 621.5949
   621.6005 621.7055 622.3980 622.4390 622.5494 622.5832 622.9409 623.0776
   625.5229 626.2044 626.9687 627.1387 627.5262 627.5482 627.5717 627.6107
   627.8085 629.5209 629.5870 630.0958 630.3297 630.5399 630.5993 630.6288
   630.6697 630.7880 631.3899 631.5242 634.0931 634.1064 634.1649 634.1709
   636.6477 636.7334 637.1453 637.2635 637.9460 637.9554 638.1441 638.1850
   638.6072 638.9660 639.0497 639.1557 642.5646 643.0668 643.6136 643.7657
   643.8218 644.6265 644.6454 644.8298 644.8614 645.2540 645.3519 645.3606
   645.6495 645.6605 646.1782 646.2296 646.2508 646.5652 646.5737 646.7384
   646.7935 647.1219 647.2373 647.5591 647.6428 647.6558 647.8456 647.8761
   647.9328 648.0368 648.0777 648.0852 648.6510 648.7704 648.9420 649.0398
   649.0669 649.8893 649.9920 650.0223 650.2187 650.5101 650.5406 650.6062
   659.4302 659.6294 659.7649 659.9486 659.9564 660.0001 660.2282 660.5517
   660.6358 660.7794 660.9768 661.1125 661.8002 661.8690 661.8897 661.8968
   665.7626 666.0047 667.5927 667.7551 668.4775 669.2256 669.5248 669.5619
   669.6418 669.7972 669.8556 671.1605 671.8224 671.8742 672.2092 672.2906
   673.0474 673.0813 673.1343 673.1667 673.2097 673.3212 673.3574 673.5175
   674.1201 674.1893 674.7025 674.8405 675.1278 675.2624 675.3209 675.5687
   677.3874 677.4529 677.7968 678.0119 678.0135 678.5232 678.8252 678.8462
   678.8643 680.3524 680.5424 680.6609 682.9236 682.9787 682.9791 682.9881
   684.0963 684.3059 684.6045 684.6188 684.6817 684.7658 685.4264 685.4746

     the Fermi energy is     7.4378 ev
     (compare with:     6.6155 eV, computed in scf)

     Writing all to output data dir out/mp-422.save/
 
     init_run     :      0.03s CPU      0.06s WALL (       1 calls)
     electrons    :    563.15s CPU    604.89s WALL (       1 calls)

     Called by init_run:
     wfcinit      :      0.00s CPU      0.00s WALL (       1 calls)
     potinit      :      0.01s CPU      0.02s WALL (       1 calls)
     hinit0       :      0.01s CPU      0.01s WALL (       1 calls)

     Called by electrons:
     c_bands      :    563.15s CPU    604.88s WALL (       1 calls)
     v_of_rho     :      0.01s CPU      0.01s WALL (       1 calls)

     Called by c_bands:
     init_us_2    :      0.00s CPU      0.00s WALL (       8 calls)
     init_us_2:cp :      0.00s CPU      0.00s WALL (       8 calls)
     paro_k       :    544.78s CPU    585.38s WALL (       8 calls)

     Called by paro_*:
     h_psi        :     10.14s CPU     10.59s WALL (     826 calls)
     g_psi        :      0.22s CPU      0.25s WALL (   80036 calls)

     Called by h_psi:
     h_psi:calbec :      0.15s CPU      0.16s WALL (     826 calls)
     vloc_psi     :      9.82s CPU     10.26s WALL (     826 calls)
     add_vuspsi   :      0.10s CPU      0.10s WALL (     826 calls)

     General routines
     calbec       :      0.15s CPU      0.16s WALL (     826 calls)
     fft          :      0.00s CPU      0.01s WALL (      10 calls)
     fftw         :      8.75s CPU      9.14s WALL (  131438 calls)
 
     Parallel routines
 
     PWSCF        :   9m23.82s CPU  10m 5.95s WALL

 
   This run was terminated on:  15:41:20   7Dec2023            

=------------------------------------------------------------------------------=
   JOB DONE.
=------------------------------------------------------------------------------=
