
     Program PWSCF v.7.1 starts on 14Nov2023 at 13:10:47 

     This program is part of the open-source Quantum ESPRESSO suite
     for quantum simulation of materials; please cite
         "P. Giannozzi et al., J. Phys.:Condens. Matter 21 395502 (2009);
         "P. Giannozzi et al., J. Phys.:Condens. Matter 29 465901 (2017);
         "P. Giannozzi et al., J. Chem. Phys. 152 154105 (2020);
          URL http://www.quantum-espresso.org", 
     in publications or presentations arising from this work. More details at
     http://www.quantum-espresso.org/quote

     Parallel version (MPI), running on    24 processors

     MPI processes distributed on     1 nodes
     123228 MiB available memory on the printing compute node when the environment starts
 
     Reading input from pw_mp-1265_scf_k3000_E110.in
Warning: card &CELL ignored
Warning: card / ignored

     Current dimensions of program PWSCF are:
     Max number of different atomic species (ntypx) = 10
     Max number of k-points (npk) =  40000
     Max angular momentum in pseudopotentials (lmaxx) =  4
 
     K-points division:     npool     =       2
     R & G space division:  proc/nbgrp/npool/nimage =      12
     Subspace diagonalization in iterative solution of the eigenvalue problem:
     a serial algorithm will be used

 
     Parallelization info
     --------------------
     sticks:   dense  smooth     PW     G-vecs:    dense   smooth      PW
     Min          79      79     24                 1629     1629     267
     Max          80      80     26                 1633     1633     269
     Sum         955     955    295                19579    19579    3215
 
     Using Slab Decomposition
 


     bravais-lattice index     =            2
     lattice parameter (alat)  =       7.9255  a.u.
     unit-cell volume          =     124.4580 (a.u.)^3
     number of atoms/cell      =            2
     number of atomic types    =            2
     number of electrons       =        16.00
     number of Kohn-Sham states=           16
     kinetic-energy cutoff     =     110.0000  Ry
     charge density cutoff     =     440.0000  Ry
     scf convergence threshold =      1.0E-10
     mixing beta               =       0.7000
     number of iterations used =            8  plain     mixing
     Exchange-correlation= PBE
                           (   1   4   3   4   0   0   0)

     celldm(1)=   7.925516  celldm(2)=   0.000000  celldm(3)=   0.000000
     celldm(4)=   0.000000  celldm(5)=   0.000000  celldm(6)=   0.000000

     crystal axes: (cart. coord. in units of alat)
               a(1) = (  -0.500000   0.000000   0.500000 )  
               a(2) = (   0.000000   0.500000   0.500000 )  
               a(3) = (  -0.500000   0.500000   0.000000 )  

     reciprocal axes: (cart. coord. in units 2 pi/alat)
               b(1) = ( -1.000000 -1.000000  1.000000 )  
               b(2) = (  1.000000  1.000000  1.000000 )  
               b(3) = ( -1.000000  1.000000 -1.000000 )  


     PseudoPot. # 1 for Mg read from file:
     /usr/scratch4/magr4985/MG/HTDF/pseudo/SG15/Mg.upf
     MD5 check sum: 330956729b1f868fdecd9f5113f6a961
     Pseudo is Norm-conserving, Zval = 10.0
     Generated using ONCVPSP code by D. R. Hamann
     Using radial grid of  602 points,  4 beta functions with: 
                l(1) =   0
                l(2) =   0
                l(3) =   1
                l(4) =   1

     PseudoPot. # 2 for O  read from file:
     /usr/scratch4/magr4985/MG/HTDF/pseudo/SG15/O.upf
     MD5 check sum: e36c48deb68f4e355fffe4602be2c42c
     Pseudo is Norm-conserving, Zval =  6.0
     Generated using ONCVPSP code by D. R. Hamann
     Using radial grid of  602 points,  4 beta functions with: 
                l(1) =   0
                l(2) =   0
                l(3) =   1
                l(4) =   1

     atomic species   valence    mass     pseudopotential
        Mg            10.00    24.30500     Mg( 1.00)
        O              6.00    15.99940     O ( 1.00)

     48 Sym. Ops., with inversion, found



   Cartesian axes

     site n.     atom                  positions (alat units)
         1           Mg  tau(   1) = (   0.0000000   0.0000000   0.0000000  )
         2           O   tau(   2) = (  -0.5000000   0.5000000   0.5000000  )

     number of k points=    72  Gaussian smearing, width (Ry)=  0.0005
                       cart. coord. in units 2pi/alat
        k(    1) = (   0.0000000   0.0000000   0.0000000), wk =   0.0011574
        k(    2) = (  -0.0833333   0.0833333  -0.0833333), wk =   0.0092593
        k(    3) = (  -0.1666667   0.1666667  -0.1666667), wk =   0.0092593
        k(    4) = (  -0.2500000   0.2500000  -0.2500000), wk =   0.0092593
        k(    5) = (  -0.3333333   0.3333333  -0.3333333), wk =   0.0092593
        k(    6) = (  -0.4166667   0.4166667  -0.4166667), wk =   0.0092593
        k(    7) = (   0.5000000  -0.5000000   0.5000000), wk =   0.0046296
        k(    8) = (   0.0000000   0.1666667   0.0000000), wk =   0.0069444
        k(    9) = (  -0.0833333   0.2500000  -0.0833333), wk =   0.0277778
        k(   10) = (  -0.1666667   0.3333333  -0.1666667), wk =   0.0277778
        k(   11) = (  -0.2500000   0.4166667  -0.2500000), wk =   0.0277778
        k(   12) = (  -0.3333333   0.5000000  -0.3333333), wk =   0.0277778
        k(   13) = (   0.5833333  -0.4166667   0.5833333), wk =   0.0277778
        k(   14) = (   0.5000000  -0.3333333   0.5000000), wk =   0.0277778
        k(   15) = (   0.4166667  -0.2500000   0.4166667), wk =   0.0277778
        k(   16) = (   0.3333333  -0.1666667   0.3333333), wk =   0.0277778
        k(   17) = (   0.2500000  -0.0833333   0.2500000), wk =   0.0277778
        k(   18) = (   0.1666667  -0.0000000   0.1666667), wk =   0.0138889
        k(   19) = (   0.0000000   0.3333333   0.0000000), wk =   0.0069444
        k(   20) = (  -0.0833333   0.4166667  -0.0833333), wk =   0.0277778
        k(   21) = (  -0.1666667   0.5000000  -0.1666667), wk =   0.0277778
        k(   22) = (  -0.2500000   0.5833333  -0.2500000), wk =   0.0277778
        k(   23) = (   0.6666667  -0.3333333   0.6666667), wk =   0.0277778
        k(   24) = (   0.5833333  -0.2500000   0.5833333), wk =   0.0277778
        k(   25) = (   0.5000000  -0.1666667   0.5000000), wk =   0.0277778
        k(   26) = (   0.4166667  -0.0833333   0.4166667), wk =   0.0277778
        k(   27) = (   0.3333333   0.0000000   0.3333333), wk =   0.0138889
        k(   28) = (   0.0000000   0.5000000   0.0000000), wk =   0.0069444
        k(   29) = (  -0.0833333   0.5833333  -0.0833333), wk =   0.0277778
        k(   30) = (  -0.1666667   0.6666667  -0.1666667), wk =   0.0277778
        k(   31) = (   0.7500000  -0.2500000   0.7500000), wk =   0.0277778
        k(   32) = (   0.6666667  -0.1666667   0.6666667), wk =   0.0277778
        k(   33) = (   0.5833333  -0.0833333   0.5833333), wk =   0.0277778
        k(   34) = (   0.5000000   0.0000000   0.5000000), wk =   0.0138889
        k(   35) = (   0.0000000   0.6666667   0.0000000), wk =   0.0069444
        k(   36) = (  -0.0833333   0.7500000  -0.0833333), wk =   0.0277778
        k(   37) = (   0.8333333  -0.1666667   0.8333333), wk =   0.0277778
        k(   38) = (   0.7500000  -0.0833333   0.7500000), wk =   0.0277778
        k(   39) = (   0.6666667  -0.0000000   0.6666667), wk =   0.0138889
        k(   40) = (   0.0000000   0.8333333   0.0000000), wk =   0.0069444
        k(   41) = (   0.9166667  -0.0833333   0.9166667), wk =   0.0277778
        k(   42) = (   0.8333333   0.0000000   0.8333333), wk =   0.0138889
        k(   43) = (   0.0000000  -1.0000000   0.0000000), wk =   0.0034722
        k(   44) = (  -0.1666667   0.3333333   0.0000000), wk =   0.0277778
        k(   45) = (  -0.2500000   0.4166667  -0.0833333), wk =   0.0555556
        k(   46) = (  -0.3333333   0.5000000  -0.1666667), wk =   0.0555556
        k(   47) = (   0.5833333  -0.4166667   0.7500000), wk =   0.0555556
        k(   48) = (   0.5000000  -0.3333333   0.6666667), wk =   0.0277778
        k(   49) = (  -0.1666667   0.5000000   0.0000000), wk =   0.0277778
        k(   50) = (  -0.2500000   0.5833333  -0.0833333), wk =   0.0555556
        k(   51) = (   0.6666667  -0.3333333   0.8333333), wk =   0.0555556
        k(   52) = (   0.5833333  -0.2500000   0.7500000), wk =   0.0555556
        k(   53) = (   0.5000000  -0.1666667   0.6666667), wk =   0.0555556
        k(   54) = (   0.4166667  -0.0833333   0.5833333), wk =   0.0555556
        k(   55) = (   0.3333333   0.0000000   0.5000000), wk =   0.0277778
        k(   56) = (  -0.1666667   0.6666667  -0.0000000), wk =   0.0277778
        k(   57) = (   0.7500000  -0.2500000   0.9166667), wk =   0.0555556
        k(   58) = (   0.6666667  -0.1666667   0.8333333), wk =   0.0555556
        k(   59) = (   0.5833333  -0.0833333   0.7500000), wk =   0.0555556
        k(   60) = (   0.5000000   0.0000000   0.6666667), wk =   0.0277778
        k(   61) = (   0.8333333  -0.1666667   1.0000000), wk =   0.0277778
        k(   62) = (   0.7500000  -0.0833333   0.9166667), wk =   0.0555556
        k(   63) = (   0.6666667   0.0000000   0.8333333), wk =   0.0277778
        k(   64) = (  -0.1666667  -1.0000000  -0.0000000), wk =   0.0138889
        k(   65) = (   0.6666667  -0.3333333   1.0000000), wk =   0.0277778
        k(   66) = (   0.5833333  -0.2500000   0.9166667), wk =   0.0555556
        k(   67) = (   0.5000000  -0.1666667   0.8333333), wk =   0.0277778
        k(   68) = (   0.6666667  -0.1666667   1.0000000), wk =   0.0277778
        k(   69) = (   0.5833333  -0.0833333   0.9166667), wk =   0.0555556
        k(   70) = (   0.5000000   0.0000000   0.8333333), wk =   0.0277778
        k(   71) = (  -0.3333333  -1.0000000   0.0000000), wk =   0.0138889
        k(   72) = (  -0.5000000  -1.0000000   0.0000000), wk =   0.0069444

     Dense  grid:    19579 G-vectors     FFT dimensions: (  40,  40,  40)

     Estimated max dynamical RAM per process >       2.48 MB

     Estimated total dynamical RAM >      54.66 MB

     Initial potential from superposition of free atoms

     starting charge      15.9336, renormalised to      16.0000
     Starting wfcs are random

     total cpu time spent up to now is        0.4 secs

     Self-consistent Calculation

     iteration #  1     ecut=   110.00 Ry     beta= 0.70
     Davidson diagonalization with overlap
     ethr =  1.00E-02,  avg # of iterations =  7.6

     total cpu time spent up to now is        1.2 secs

     total energy              =    -140.69910454 Ry
     estimated scf accuracy    <       0.36410609 Ry

     iteration #  2     ecut=   110.00 Ry     beta= 0.70
     Davidson diagonalization with overlap
     ethr =  2.28E-03,  avg # of iterations =  2.0

     total cpu time spent up to now is        1.5 secs

     total energy              =    -140.79403356 Ry
     estimated scf accuracy    <       0.29720506 Ry

     iteration #  3     ecut=   110.00 Ry     beta= 0.70
     Davidson diagonalization with overlap
     ethr =  1.86E-03,  avg # of iterations =  1.7

     total cpu time spent up to now is        1.8 secs

     total energy              =    -140.85269413 Ry
     estimated scf accuracy    <       0.00154795 Ry

     iteration #  4     ecut=   110.00 Ry     beta= 0.70
     Davidson diagonalization with overlap
     ethr =  9.67E-06,  avg # of iterations =  5.0

     total cpu time spent up to now is        2.2 secs

     total energy              =    -140.85304286 Ry
     estimated scf accuracy    <       0.00001391 Ry

     iteration #  5     ecut=   110.00 Ry     beta= 0.70
     Davidson diagonalization with overlap
     ethr =  8.69E-08,  avg # of iterations =  2.3

     total cpu time spent up to now is        2.5 secs

     total energy              =    -140.85304591 Ry
     estimated scf accuracy    <       0.00000141 Ry

     iteration #  6     ecut=   110.00 Ry     beta= 0.70
     Davidson diagonalization with overlap
     ethr =  8.84E-09,  avg # of iterations =  2.0

     total cpu time spent up to now is        2.8 secs

     total energy              =    -140.85304616 Ry
     estimated scf accuracy    <       0.00000013 Ry

     iteration #  7     ecut=   110.00 Ry     beta= 0.70
     Davidson diagonalization with overlap
     ethr =  8.25E-10,  avg # of iterations =  1.0

     total cpu time spent up to now is        3.1 secs

     total energy              =    -140.85304617 Ry
     estimated scf accuracy    <          3.0E-09 Ry

     iteration #  8     ecut=   110.00 Ry     beta= 0.70
     Davidson diagonalization with overlap
     ethr =  1.87E-11,  avg # of iterations =  2.0

     total cpu time spent up to now is        3.4 secs

     total energy              =    -140.85304617 Ry
     estimated scf accuracy    <          1.1E-10 Ry

     iteration #  9     ecut=   110.00 Ry     beta= 0.70
     Davidson diagonalization with overlap
     ethr =  6.86E-13,  avg # of iterations =  1.5

     total cpu time spent up to now is        3.7 secs

     End of self-consistent calculation

          k = 0.0000 0.0000 0.0000 (  2421 PWs)   bands (ev):

   -63.3967 -30.1616 -30.1616 -30.1616  -8.3451   8.9263   8.9263   8.9263
    13.8205  24.9023  24.9023  24.9023  28.7413  30.7344  30.7344  33.5289

          k =-0.0833 0.0833-0.0833 (  2427 PWs)   bands (ev):

   -63.3961 -30.1676 -30.1622 -30.1622  -8.2674   8.4589   8.8785   8.8785
    14.2708  23.9168  25.0740  25.0740  30.0463  30.1613  30.1613  33.5031

          k =-0.1667 0.1667-0.1667 (  2433 PWs)   bands (ev):

   -63.3944 -30.1842 -30.1638 -30.1638  -8.0478   7.4197   8.7510   8.7510
    15.2318  22.5240  25.4802  25.4802  29.4188  29.4188  31.4400  34.4291

          k =-0.2500 0.2500-0.2500 (  2439 PWs)   bands (ev):

   -63.3921 -30.2067 -30.1661 -30.1661  -7.7278   6.2616   8.5835   8.5835
    16.1635  21.6240  25.7709  25.7709  29.3287  29.3287  31.1972  37.0136

          k =-0.3333 0.3333-0.3333 (  2442 PWs)   bands (ev):

   -63.3898 -30.2290 -30.1684 -30.1684  -7.3799   5.2393   8.4229   8.4229
    16.7287  21.3801  25.7035  25.7035  30.0878  30.0878  30.6475  38.4340

          k =-0.4167 0.4167-0.4167 (  2428 PWs)   bands (ev):

   -63.3881 -30.2453 -30.1701 -30.1701  -7.1031   4.5325   8.3094   8.3094
    16.9134  21.5557  25.5196  25.5196  30.2461  31.1584  31.1584  38.0715

          k = 0.5000-0.5000 0.5000 (  2452 PWs)   bands (ev):

   -63.3875 -30.2512 -30.1707 -30.1707  -6.9963   4.2784   8.2686   8.2686
    16.9388  21.6860  25.4393  25.4393  30.1060  31.6934  31.6934  37.7785

          k = 0.0000 0.1667 0.0000 (  2433 PWs)   bands (ev):

   -63.3959 -30.1673 -30.1636 -30.1636  -8.2422   8.4053   8.8178   8.8178
    14.4168  23.6243  25.1442  25.1442  29.2065  30.4914  30.9508  33.8658

          k =-0.0833 0.2500-0.0833 (  2428 PWs)   bands (ev):

   -63.3946 -30.1795 -30.1659 -30.1646  -8.0717   7.6336   8.6813   8.7101
    15.2006  22.5007  25.4613  25.4775  28.1865  30.7104  32.0647  34.3576

          k =-0.1667 0.3333-0.1667 (  2431 PWs)   bands (ev):

   -63.3925 -30.1996 -30.1685 -30.1664  -7.7875   6.5853   8.5109   8.5398
    16.1588  21.5644  25.6007  25.8058  27.8907  30.4978  32.2451  36.5417

          k =-0.2500 0.4167-0.2500 (  2430 PWs)   bands (ev):

   -63.3902 -30.2214 -30.1708 -30.1690  -7.4504   5.5728   8.3339   8.3536
    16.8841  21.1969  25.2434  25.8694  28.6375  30.9073  31.7968  38.6566

          k =-0.3333 0.5000-0.3333 (  2424 PWs)   bands (ev):

   -63.3883 -30.2392 -30.1721 -30.1719  -7.1493   4.7944   8.1487   8.2479
    17.1973  21.3570  24.8525  25.7362  29.7672  31.4408  31.6519  38.5613

          k = 0.5833-0.4167 0.5833 (  2425 PWs)   bands (ev):

   -63.3873 -30.2483 -30.1741 -30.1721  -6.9836   4.4032   8.0293   8.2174
    17.2669  21.5958  24.6598  25.6238  30.6451  31.3782  31.9108  38.4415

          k = 0.5000-0.3333 0.5000 (  2431 PWs)   bands (ev):

   -63.3875 -30.2463 -30.1751 -30.1707  -7.0183   4.4856   8.0021   8.2688
    17.2638  21.5517  24.6948  25.6574  30.9815  31.0908  31.4878  38.5512

          k = 0.4167-0.2500 0.4167 (  2428 PWs)   bands (ev):

   -63.3889 -30.2339 -30.1745 -30.1684  -7.2390   5.0220   8.0746   8.3912
    17.1444  21.3055  24.9263  25.8636  29.6806  30.8666  31.5678  38.7633

          k = 0.3333-0.1667 0.3333 (  2434 PWs)   bands (ev):

   -63.3910 -30.2143 -30.1724 -30.1657  -7.5632   5.8952   8.2354   8.5567
    16.6905  21.3117  25.2341  26.1144  28.4612  30.2852  31.9778  37.5656

          k = 0.2500-0.0833 0.2500 (  2436 PWs)   bands (ev):

   -63.3932 -30.1928 -30.1694 -30.1634  -7.8913   6.9306   8.4559   8.7232
    15.8377  21.9063  25.3838  25.9129  28.2416  29.9795  32.2905  35.4487

          k = 0.1667-0.0000 0.1667 (  2427 PWs)   bands (ev):

   -63.3951 -30.1757 -30.1656 -30.1621  -8.1430   7.8935   8.6958   8.8431
    14.8799  22.9697  25.2584  25.3711  29.0243  30.1890  31.4103  34.2860

          k = 0.0000 0.3333 0.0000 (  2445 PWs)   bands (ev):

   -63.3937 -30.1825 -30.1690 -30.1690  -7.9587   7.3424   8.5374   8.5374
    15.7145  21.7576  25.7768  25.7768  26.8406  31.5933  33.7741  34.8915

          k =-0.0833 0.4167-0.0833 (  2436 PWs)   bands (ev):

   -63.3919 -30.1965 -30.1723 -30.1715  -7.7299   6.6345   8.3412   8.3635
    16.5441  20.9587  25.3923  26.1434  26.6657  31.7435  34.3950  36.2417

          k =-0.1667 0.5000-0.1667 (  2442 PWs)   bands (ev):

   -63.3898 -30.2148 -30.1750 -30.1746  -7.4335   5.8325   8.0574   8.2069
    17.3759  20.5727  24.4396  26.3184  27.4915  31.9958  34.0989  37.8698

          k =-0.2500 0.5833-0.2500 (  2429 PWs)   bands (ev):

   -63.3880 -30.2309 -30.1788 -30.1763  -7.1433   5.1485   7.7413   8.1053
    17.8694  20.7913  23.7487  26.2551  28.3603  32.5058  33.8062  38.0324

          k = 0.6667-0.3333 0.6667 (  2422 PWs)   bands (ev):

   -63.3868 -30.2407 -30.1830 -30.1759  -6.9474   4.7343   7.4805   8.0811
    18.0387  21.2673  23.3731  26.1228  29.1286  32.5765  33.5711  38.3705

          k = 0.5833-0.2500 0.5833 (  2419 PWs)   bands (ev):

   -63.3866 -30.2416 -30.1860 -30.1738  -6.9163   4.6875   7.3418   8.1398
    18.0958  21.4261  23.3199  26.0850  29.8527  31.5317  33.4309  38.9737

          k = 0.5000-0.1667 0.5000 (  2419 PWs)   bands (ev):

   -63.3875 -30.2340 -30.1864 -30.1707  -7.0618   5.0125   7.3685   8.2691
    18.0310  21.1630  23.6051  26.2345  29.8521  30.4574  33.4883  38.8713

          k = 0.4167-0.0833 0.4167 (  2428 PWs)   bands (ev):

   -63.3893 -30.2204 -30.1836 -30.1674  -7.3295   5.6056   7.5858   8.4394
    17.6126  20.9632  24.1771  26.6151  28.2031  30.6130  33.6721  37.6105

          k = 0.3333 0.0000 0.3333 (  2429 PWs)   bands (ev):

   -63.3914 -30.2053 -30.1774 -30.1647  -7.6328   6.2959   7.9853   8.6070
    16.7650  21.2524  24.8650  26.7760  27.3552  30.3323  33.4898  36.0206

          k = 0.0000 0.5000 0.0000 (  2429 PWs)   bands (ev):

   -63.3906 -30.2021 -30.1764 -30.1764  -7.5663   6.2895   8.1868   8.1868
    17.1567  20.1933  24.6399  26.5863  26.5863  32.6355  36.5861  36.5861

          k =-0.0833 0.5833-0.0833 (  2424 PWs)   bands (ev):

   -63.3889 -30.2140 -30.1804 -30.1798  -7.3321   5.7800   7.9271   8.0285
    17.9061  19.7114  23.6811  26.8890  27.1284  33.1232  36.6759  37.0908

          k =-0.1667 0.6667-0.1667 (  2420 PWs)   bands (ev):

   -63.3872 -30.2256 -30.1861 -30.1815  -7.0844   5.3394   7.4933   7.9267
    18.5056  19.8713  22.9191  26.9267  27.6401  33.6070  36.5122  36.9462

          k = 0.7500-0.2500 0.7500 (  2416 PWs)   bands (ev):

   -63.3860 -30.2323 -30.1931 -30.1811  -6.8936   5.0929   7.0026   7.9034
    18.7470  20.6398  22.4075  26.7932  27.9579  33.7024  36.0301  37.3516

          k = 0.6667-0.1667 0.6667 (  2411 PWs)   bands (ev):

   -63.3857 -30.2328 -30.1995 -30.1786  -6.8218   5.0854   6.6265   7.9640
    18.9260  21.2039  22.1878  26.6527  28.3619  32.5751  35.6526  37.9580

          k = 0.5833-0.0833 0.5833 (  2417 PWs)   bands (ev):

   -63.3862 -30.2288 -30.2014 -30.1749  -6.8936   5.2435   6.5519   8.0959
    18.9797  21.0742  22.4506  26.6123  29.2008  30.7644  35.4332  38.2140

          k = 0.5000 0.0000 0.5000 (  2421 PWs)   bands (ev):

   -63.3875 -30.2246 -30.1953 -30.1707  -7.0833   5.4125   6.9202   8.2692
    18.5461  20.8262  23.1629  26.6846  29.1114  30.1691  34.9836  37.9656

          k = 0.0000 0.6667 0.0000 (  2397 PWs)   bands (ev):

   -63.3876 -30.2204 -30.1839 -30.1839  -7.1694   5.4787   7.8672   7.8672
    18.3885  19.0517  22.9909  27.3567  27.3567  34.0014  36.2864  38.6426

          k =-0.0833 0.7500-0.0833 (  2419 PWs)   bands (ev):

   -63.3862 -30.2277 -30.1886 -30.1863  -6.9867   5.2051   7.5814   7.7615
    18.7418  19.0382  22.4478  27.5454  27.6444  34.6805  35.8933  38.8825

          k = 0.8333-0.1667 0.8333 (  2428 PWs)   bands (ev):

   -63.3853 -30.2305 -30.1967 -30.1863  -6.8347   5.1327   7.0213   7.7345
    18.8210  19.8951  22.0324  27.4554  27.6319  35.1464  36.0148  38.2520

          k = 0.7500-0.0833 0.7500 (  2414 PWs)   bands (ev):

   -63.3849 -30.2266 -30.2076 -30.1838  -6.7585   5.3368   6.3406   7.7919
    19.1026  20.8452  21.6713  27.2137  27.5278  34.2531  36.5981  37.6510

          k = 0.6667-0.0000 0.6667 (  2424 PWs)   bands (ev):

   -63.3853 -30.2199 -30.2154 -30.1797  -6.7810   5.6871   5.8506   7.9221
    19.3483  21.2520  21.6463  26.9263  28.0009  32.3600  36.8119  37.4299

          k = 0.0000 0.8333 0.0000 (  2446 PWs)   bands (ev):

   -63.3853 -30.2330 -30.1894 -30.1894  -6.8773   4.9902   7.6498   7.6498
    18.3609  19.0197  22.2407  27.9152  27.9152  35.1533  35.4494  39.9254

          k = 0.9167-0.0833 0.9167 (  2423 PWs)   bands (ev):

   -63.3847 -30.2350 -30.1935 -30.1901  -6.7881   4.9309   7.3845   7.6159
    18.3833  19.3146  22.0928  27.9023  27.9419  35.0663  36.0968  38.8763

          k = 0.8333 0.0000 0.8333 (  2420 PWs)   bands (ev):

   -63.3846 -30.2314 -30.2014 -30.1880  -6.7451   5.0975   6.8267   7.6667
    18.7362  20.0138  21.8760  27.5623  27.6729  35.6872  36.4475  36.8700

          k = 0.0000-1.0000 0.0000 (  2450 PWs)   bands (ev):

   -63.3845 -30.2375 -30.1914 -30.1914  -6.7703   4.8303   7.5734   7.5734
    18.1299  19.1073  22.1560  28.1222  28.1222  34.6567  36.2063  40.0876

          k =-0.1667 0.3333 0.0000 (  2436 PWs)   bands (ev):

   -63.3930 -30.1910 -30.1712 -30.1656  -7.8708   6.9775   8.3815   8.6283
    15.9957  21.6438  25.4146  26.0282  27.3124  30.8191  33.3052  35.2076

          k =-0.2500 0.4167-0.0833 (  2430 PWs)   bands (ev):

   -63.3910 -30.2083 -30.1762 -30.1674  -7.5802   6.1439   8.0585   8.4811
    16.9135  21.0262  24.8899  26.4103  27.4183  30.9690  33.4996  36.7621

          k =-0.3333 0.5000-0.1667 (  2427 PWs)   bands (ev):

   -63.3889 -30.2263 -30.1796 -30.1702  -7.2673   5.3480   7.7994   8.3098
    17.5672  20.9479  24.2542  26.1997  28.5203  31.3392  33.2189  38.5973

          k = 0.5833-0.4167 0.7500 (  2424 PWs)   bands (ev):

   -63.3873 -30.2396 -30.1812 -30.1728  -7.0210   4.7761   7.6359   8.1771
    17.8100  21.2826  23.8157  25.9710  29.6913  31.4747  33.1076  38.7755

          k = 0.5000-0.3333 0.6667 (  2424 PWs)   bands (ev):

   -63.3868 -30.2444 -30.1816 -30.1740  -6.9267   4.5674   7.5806   8.1275
    17.8505  21.4880  23.6665  25.8816  30.3034  31.3179  33.1650  39.0199

          k =-0.1667 0.5000 0.0000 (  2434 PWs)   bands (ev):

   -63.3902 -30.2079 -30.1790 -30.1731  -7.4972   6.0941   7.9902   8.2562
    17.3508  20.3605  24.4366  26.6585  26.8684  32.1440  35.5328  36.6201

          k =-0.2500 0.5833-0.0833 (  2423 PWs)   bands (ev):

   -63.3883 -30.2210 -30.1847 -30.1756  -7.2258   5.5474   7.6010   8.0943
    18.1548  20.2006  23.5328  26.5802  27.7348  32.4135  35.6197  37.6166

          k = 0.6667-0.3333 0.8333 (  2422 PWs)   bands (ev):

   -63.3868 -30.2314 -30.1891 -30.1781  -6.9884   5.1259   7.2378   7.9677
    18.5740  20.6562  22.8932  26.3496  28.5468  32.4373  35.5115  37.8212

          k = 0.5833-0.2500 0.7500 (  2422 PWs)   bands (ev):

   -63.3860 -30.2363 -30.1927 -30.1785  -6.8602   4.9299   6.9801   7.9370
    18.7118  21.1894  22.5816  26.1662  29.1793  31.9102  35.4494  38.0132

          k = 0.5000-0.1667 0.6667 (  2420 PWs)   bands (ev):

   -63.3862 -30.2344 -30.1944 -30.1764  -6.8867   5.0029   6.9059   8.0097
    18.7499  21.1665  22.6550  26.1814  29.7156  30.9242  35.2280  38.3445

          k = 0.4167-0.0833 0.5833 (  2420 PWs)   bands (ev):

   -63.3873 -30.2273 -30.1925 -30.1730  -7.0579   5.2963   7.0771   8.1601
    18.5516  20.7562  23.1352  26.3986  29.0276  30.8780  35.1039  38.3113

          k = 0.3333 0.0000 0.5000 (  2419 PWs)   bands (ev):

   -63.3891 -30.2179 -30.1859 -30.1696  -7.3146   5.7014   7.5013   8.3389
    17.8569  20.6674  23.9354  26.7042  27.7585  31.1441  34.7826  37.2029

          k =-0.1667 0.6667-0.0000 (  2415 PWs)   bands (ev):

   -63.3874 -30.2223 -30.1867 -30.1820  -7.1237   5.4409   7.6349   7.8682
    18.6139  19.3722  22.9142  26.9820  27.6484  33.6540  36.6665  38.0663

          k = 0.7500-0.2500 0.9167 (  2420 PWs)   bands (ev):

   -63.3860 -30.2280 -30.1934 -30.1843  -6.9267   5.2406   7.1685   7.7339
    19.0772  19.7949  22.2984  26.6873  28.2235  33.7499  36.7456  37.7332

          k = 0.6667-0.1667 0.8333 (  2419 PWs)   bands (ev):

   -63.3853 -30.2287 -30.2016 -30.1842  -6.7990   5.2560   6.6105   7.7133
    19.2593  20.7235  21.8655  26.2876  28.5867  33.2212  36.8874  37.5099

          k = 0.5833-0.0833 0.7500 (  2418 PWs)   bands (ev):

   -63.3853 -30.2252 -30.2084 -30.1814  -6.7810   5.4367   6.2048   7.8017
    19.4735  21.1187  21.7664  26.1290  29.0138  31.8918  37.0195  37.4900

          k = 0.5000 0.0000 0.6667 (  2428 PWs)   bands (ev):

   -63.3860 -30.2250 -30.2049 -30.1772  -6.8779   5.4095   6.4127   7.9678
    19.3604  20.8045  22.2597  26.2834  29.8517  30.3042  36.5411  37.7779

          k = 0.8333-0.1667 1.0000 (  2417 PWs)   bands (ev):

   -63.3853 -30.2314 -30.1924 -30.1892  -6.8524   5.0757   7.3938   7.5741
    18.7606  19.3758  22.1103  27.2294  28.2026  35.0098  35.8900  38.2622

          k = 0.7500-0.0833 0.9167 (  2418 PWs)   bands (ev):

   -63.3847 -30.2299 -30.2001 -30.1894  -6.7591   5.1656   6.8715   7.5268
    19.0317  20.0978  21.8096  26.6118  28.5314  34.9351  35.9916  37.2972

          k = 0.6667 0.0000 0.8333 (  2413 PWs)   bands (ev):

   -63.3847 -30.2231 -30.2107 -30.1863  -6.7334   5.4831   6.2143   7.6228
    19.4038  20.9692  21.4653  26.1301  28.6643  33.5798  36.2934  37.7811

          k =-0.1667-1.0000-0.0000 (  2420 PWs)   bands (ev):

   -63.3845 -30.2344 -30.1945 -30.1920  -6.7539   4.9648   7.3091   7.4628
    18.5543  19.5232  22.0040  27.2887  28.4062  35.0999  36.6132  37.3181

          k = 0.6667-0.3333 1.0000 (  2427 PWs)   bands (ev):

   -63.3868 -30.2252 -30.1944 -30.1786  -7.0087   5.3730   7.0688   7.9048
    19.0822  20.1016  22.6851  26.3383  28.6029  32.1062  37.1271  37.5772

          k = 0.5833-0.2500 0.9167 (  2426 PWs)   bands (ev):

   -63.3857 -30.2272 -30.2011 -30.1821  -6.8431   5.3191   6.6300   7.7255
    19.5488  20.5930  22.0864  25.8931  29.5504  31.4766  37.1939  37.7153

          k = 0.5000-0.1667 0.8333 (  2430 PWs)   bands (ev):

   -63.3853 -30.2277 -30.2035 -30.1837  -6.7809   5.3224   6.4500   7.6541
    19.6134  20.9973  21.8680  25.6463  29.9601  31.1858  37.0624  37.6826

          k = 0.6667-0.1667 1.0000 (  2425 PWs)   bands (ev):

   -63.3851 -30.2266 -30.2006 -30.1884  -6.7959   5.3188   6.7784   7.4589
    19.7114  20.1514  21.7685  25.9294  29.1502  33.0756  36.4981  37.7840

          k = 0.5833-0.0833 0.9167 (  2419 PWs)   bands (ev):

   -63.3847 -30.2216 -30.2088 -30.1899  -6.7298   5.5857   6.2701   7.3583
    20.0308  20.8978  21.3914  25.2388  29.8852  32.1766  36.0952  38.1225

          k = 0.5000 0.0000 0.8333 (  2425 PWs)   bands (ev):

   -63.3849 -30.2195 -30.2118 -30.1870  -6.7475   5.6986   6.0769   7.4792
    20.2197  20.7234  21.5653  25.2712  30.5426  30.9353  36.4932  38.3193

          k =-0.3333-1.0000 0.0000 (  2424 PWs)   bands (ev):

   -63.3845 -30.2259 -30.2029 -30.1930  -6.7210   5.3562   6.6769   7.2502
    19.5739  20.5543  21.5252  25.6570  29.3424  33.8427  35.5446  37.6796

          k =-0.5000-1.0000 0.0000 (  2400 PWs)   bands (ev):

   -63.3845 -30.2144 -30.2144 -30.1936  -6.7044   5.9604   5.9604   7.1478
    20.6847  20.6847  21.3092  24.6701  31.1217  31.1217  35.6805  38.2601

     the Fermi energy is    11.0100 ev

!    total energy              =    -140.85304617 Ry
     estimated scf accuracy    <          8.6E-12 Ry
     smearing contrib. (-TS)   =      -0.00000000 Ry
     internal energy E=F+TS    =    -140.85304617 Ry

     The total energy is F=E-TS. E is the sum of the following terms:
     one-electron contribution =     -55.88084435 Ry
     hartree contribution      =      31.43227301 Ry
     xc contribution           =     -21.22970229 Ry
     ewald contribution        =     -95.17477254 Ry

     convergence has been achieved in   9 iterations

     Writing all to output data dir out/mp-1265.save/
 
     init_run     :      0.20s CPU      0.31s WALL (       1 calls)
     electrons    :      2.98s CPU      3.37s WALL (       1 calls)

     Called by init_run:
     wfcinit      :      0.19s CPU      0.25s WALL (       1 calls)
     potinit      :      0.00s CPU      0.01s WALL (       1 calls)
     hinit0       :      0.00s CPU      0.04s WALL (       1 calls)

     Called by electrons:
     c_bands      :      2.56s CPU      2.83s WALL (       9 calls)
     sum_band     :      0.38s CPU      0.47s WALL (       9 calls)
     v_of_rho     :      0.03s CPU      0.03s WALL (      10 calls)
     mix_rho      :      0.01s CPU      0.01s WALL (       9 calls)

     Called by c_bands:
     init_us_2    :      0.03s CPU      0.03s WALL (     684 calls)
     init_us_2:cp :      0.03s CPU      0.03s WALL (     684 calls)
     cegterg      :      2.33s CPU      2.47s WALL (     324 calls)

     Called by *egterg:
     cdiaghg      :      0.34s CPU      0.36s WALL (    1251 calls)
     h_psi        :      1.97s CPU      2.10s WALL (    1287 calls)
     g_psi        :      0.01s CPU      0.01s WALL (     927 calls)

     Called by h_psi:
     h_psi:calbec :      0.04s CPU      0.04s WALL (    1287 calls)
     vloc_psi     :      1.89s CPU      2.02s WALL (    1287 calls)
     add_vuspsi   :      0.02s CPU      0.02s WALL (    1287 calls)

     General routines
     calbec       :      0.04s CPU      0.04s WALL (    1287 calls)
     fft          :      0.01s CPU      0.04s WALL (      99 calls)
     ffts         :      0.00s CPU      0.00s WALL (       9 calls)
     fftw         :      2.00s CPU      2.14s WALL (   34354 calls)
     davcio       :      0.05s CPU      0.24s WALL (    1130 calls)
 
     Parallel routines
 
     PWSCF        :      3.30s CPU      4.12s WALL

 
   This run was terminated on:  13:10:52  14Nov2023            

=------------------------------------------------------------------------------=
   JOB DONE.
=------------------------------------------------------------------------------=
