
     Program PWSCF v.7.1 starts on 14Nov2023 at 13:11:10 

     This program is part of the open-source Quantum ESPRESSO suite
     for quantum simulation of materials; please cite
         "P. Giannozzi et al., J. Phys.:Condens. Matter 21 395502 (2009);
         "P. Giannozzi et al., J. Phys.:Condens. Matter 29 465901 (2017);
         "P. Giannozzi et al., J. Chem. Phys. 152 154105 (2020);
          URL http://www.quantum-espresso.org", 
     in publications or presentations arising from this work. More details at
     http://www.quantum-espresso.org/quote

     Parallel version (MPI), running on    24 processors

     MPI processes distributed on     1 nodes
     123203 MiB available memory on the printing compute node when the environment starts
 
     Reading input from pw_mp-1265_nscf_k690_E110.in
Warning: card &IONS ignored
Warning: card / ignored
Warning: card &CELL ignored
Warning: card / ignored

     Current dimensions of program PWSCF are:
     Max number of different atomic species (ntypx) = 10
     Max number of k-points (npk) =  40000
     Max angular momentum in pseudopotentials (lmaxx) =  4

     Atomic positions and unit cell read from directory:
     out/mp-1265.save/
     Atomic positions from file used, from input discarded
 
 
     K-points division:     npool     =       2
     R & G space division:  proc/nbgrp/npool/nimage =      12
     Subspace diagonalization in iterative solution of the eigenvalue problem:
     one sub-group per band group will be used
     scalapack distributed-memory algorithm (size of sub-group:  3*  3 procs)

 
     Parallelization info
     --------------------
     sticks:   dense  smooth     PW     G-vecs:    dense   smooth      PW
     Min          79      79     23                 1629     1629     260
     Max          80      80     24                 1633     1633     263
     Sum         955     955    283                19579    19579    3143
 
     Using Slab Decomposition
 


     bravais-lattice index     =            2
     lattice parameter (alat)  =       7.9255  a.u.
     unit-cell volume          =     124.4580 (a.u.)^3
     number of atoms/cell      =            2
     number of atomic types    =            2
     number of electrons       =        16.00
     number of Kohn-Sham states=         1200
     kinetic-energy cutoff     =     110.0000  Ry
     charge density cutoff     =     440.0000  Ry
     Exchange-correlation= PBE
                           (   1   4   3   4   0   0   0)

     celldm(1)=   7.925516  celldm(2)=   0.000000  celldm(3)=   0.000000
     celldm(4)=   0.000000  celldm(5)=   0.000000  celldm(6)=   0.000000

     crystal axes: (cart. coord. in units of alat)
               a(1) = (  -0.500000   0.000000   0.500000 )  
               a(2) = (   0.000000   0.500000   0.500000 )  
               a(3) = (  -0.500000   0.500000   0.000000 )  

     reciprocal axes: (cart. coord. in units 2 pi/alat)
               b(1) = ( -1.000000 -1.000000  1.000000 )  
               b(2) = (  1.000000  1.000000  1.000000 )  
               b(3) = ( -1.000000  1.000000 -1.000000 )  


     PseudoPot. # 1 for Mg read from file:
     /usr/scratch4/magr4985/MG/HTDF/pseudo/SG15/Mg.upf
     MD5 check sum: 330956729b1f868fdecd9f5113f6a961
     Pseudo is Norm-conserving, Zval = 10.0
     Generated using ONCVPSP code by D. R. Hamann
     Using radial grid of  602 points,  4 beta functions with: 
                l(1) =   0
                l(2) =   0
                l(3) =   1
                l(4) =   1

     PseudoPot. # 2 for O  read from file:
     /usr/scratch4/magr4985/MG/HTDF/pseudo/SG15/O.upf
     MD5 check sum: e36c48deb68f4e355fffe4602be2c42c
     Pseudo is Norm-conserving, Zval =  6.0
     Generated using ONCVPSP code by D. R. Hamann
     Using radial grid of  602 points,  4 beta functions with: 
                l(1) =   0
                l(2) =   0
                l(3) =   1
                l(4) =   1

     atomic species   valence    mass     pseudopotential
        Mg            10.00    24.30500     Mg( 1.00)
        O              6.00    15.99940     O ( 1.00)

     48 Sym. Ops., with inversion, found



   Cartesian axes

     site n.     atom                  positions (alat units)
         1           Mg  tau(   1) = (   0.0000000   0.0000000   0.0000000  )
         2           O   tau(   2) = (  -0.5000000   0.5000000   0.5000000  )

     number of k points=    29  Gaussian smearing, width (Ry)=  0.0005
                       cart. coord. in units 2pi/alat
        k(    1) = (   0.0000000   0.0000000   0.0000000), wk =   0.0039062
        k(    2) = (  -0.1250000   0.1250000  -0.1250000), wk =   0.0312500
        k(    3) = (  -0.2500000   0.2500000  -0.2500000), wk =   0.0312500
        k(    4) = (  -0.3750000   0.3750000  -0.3750000), wk =   0.0312500
        k(    5) = (   0.5000000  -0.5000000   0.5000000), wk =   0.0156250
        k(    6) = (   0.0000000   0.2500000   0.0000000), wk =   0.0234375
        k(    7) = (  -0.1250000   0.3750000  -0.1250000), wk =   0.0937500
        k(    8) = (  -0.2500000   0.5000000  -0.2500000), wk =   0.0937500
        k(    9) = (   0.6250000  -0.3750000   0.6250000), wk =   0.0937500
        k(   10) = (   0.5000000  -0.2500000   0.5000000), wk =   0.0937500
        k(   11) = (   0.3750000  -0.1250000   0.3750000), wk =   0.0937500
        k(   12) = (   0.2500000   0.0000000   0.2500000), wk =   0.0468750
        k(   13) = (   0.0000000   0.5000000   0.0000000), wk =   0.0234375
        k(   14) = (  -0.1250000   0.6250000  -0.1250000), wk =   0.0937500
        k(   15) = (   0.7500000  -0.2500000   0.7500000), wk =   0.0937500
        k(   16) = (   0.6250000  -0.1250000   0.6250000), wk =   0.0937500
        k(   17) = (   0.5000000   0.0000000   0.5000000), wk =   0.0468750
        k(   18) = (   0.0000000   0.7500000   0.0000000), wk =   0.0234375
        k(   19) = (   0.8750000  -0.1250000   0.8750000), wk =   0.0937500
        k(   20) = (   0.7500000   0.0000000   0.7500000), wk =   0.0468750
        k(   21) = (   0.0000000  -1.0000000   0.0000000), wk =   0.0117188
        k(   22) = (  -0.2500000   0.5000000   0.0000000), wk =   0.0937500
        k(   23) = (   0.6250000  -0.3750000   0.8750000), wk =   0.1875000
        k(   24) = (   0.5000000  -0.2500000   0.7500000), wk =   0.0937500
        k(   25) = (   0.7500000  -0.2500000   1.0000000), wk =   0.0937500
        k(   26) = (   0.6250000  -0.1250000   0.8750000), wk =   0.1875000
        k(   27) = (   0.5000000   0.0000000   0.7500000), wk =   0.0937500
        k(   28) = (  -0.2500000  -1.0000000   0.0000000), wk =   0.0468750
        k(   29) = (  -0.5000000  -1.0000000   0.0000000), wk =   0.0234375

     Dense  grid:    19579 G-vectors     FFT dimensions: (  40,  40,  40)

     Estimated max dynamical RAM per process >     101.25 MB

     Estimated total dynamical RAM >       2.37 GB

     The potential is recalculated from file :
     out/mp-1265.save/charge-density

     Starting wfcs are random

     Band Structure Calculation
     ParO style diagonalization

     ethr =  5.00E-06,  avg # of iterations =  5.6

     total cpu time spent up to now is      771.6 secs

     End of band structure calculation

          k = 0.0000 0.0000 0.0000 (  2421 PWs)   bands (ev):

   -63.3967 -30.1616 -30.1616 -30.1616  -8.3451   8.9264   8.9264   8.9264
    13.8205  24.9023  24.9023  24.9023  28.7413  30.7344  30.7344  33.5289
    33.5289  33.5289  47.5957  47.5957  47.5957  48.3826  59.6612  59.6612
    59.6612  65.1855  65.1855  66.2888  66.2888  66.2888  70.3140  75.1143
    75.1143  82.4442  82.4442  82.4442  82.9519  82.9519  82.9519  89.5790
    89.5790  89.5790  91.1255  91.1255  91.1255  92.7715  92.7715  92.7715
    92.9552  95.4815  95.4815  95.4815  96.4632  96.4632  96.5431  96.5431
    96.5431  97.8485  98.4905 106.7201 106.7201 106.7201 121.2929 121.2929
   121.2929 121.9951 121.9951 127.0554 142.1549 142.1549 142.1549 143.2839
   143.2839 143.2839 145.0980 151.3025 151.3025 152.4494 152.4494 152.4494
   155.9097 155.9097 155.9097 156.0361 157.8312 157.8312 160.4808 160.4808
   160.4808 161.9233 161.9233 161.9233 162.1588 162.1588 162.1588 163.0796
   163.0796 163.0796 163.0921 163.0921 164.8512 164.8512 164.8512 166.3620
   167.0486 167.0486 167.0486 168.5687 168.5687 169.8424 169.8424 169.8424
   170.6554 182.6307 182.6307 182.6307 187.8880 187.8880 187.8880 191.8539
   191.8539 191.8539 192.8145 197.0908 199.4616 199.4616 201.1667 201.1667
   201.1667 201.4088 201.4088 201.4088 201.9677 201.9677 201.9677 202.0144
   202.0144 202.0144 202.0473 202.0473 202.5018 202.5018 218.7490 218.7490
   218.7490 219.0012 219.0394 219.0394 219.0394 222.5626 225.5929 225.5929
   225.5929 226.1879 226.1879 226.1879 227.4626 227.4626 227.4626 227.5847
   227.8806 227.8806 227.8806 232.4407 232.4407 232.4984 232.4984 232.4984
   232.6012 242.5265 242.5265 242.5265 258.9013 258.9013 258.9013 260.8277
   260.8277 260.8277 262.5841 262.5841 263.7781 263.7781 263.7781 267.7431
   275.3133 275.3133 275.3133 278.5949 278.5949 280.8381 280.8381 280.8381
   280.8545 280.8545 280.8545 288.0112 288.0112 288.0112 288.5056 288.9661
   288.9661 289.8917 289.8917 289.8917 290.4997 291.3859 291.3859 291.6138
   291.6138 291.6138 293.0962 293.0962 293.0962 294.5826 294.6538 295.0418
   295.0418 295.0418 295.0468 295.0468 295.0468 296.3789 296.3789 297.3996
   297.3996 297.3996 297.7853 298.2608 298.2608 298.2608 299.1670 299.1670
   299.1670 299.7638 299.7638 299.7638 299.8523 299.8523 300.4075 300.4075
   300.4075 300.7412 303.2091 303.2091 303.2091 303.8110 303.8110 303.8127
   303.8127 303.8127 304.4873 304.4873 304.4873 304.7582 304.7582 304.7582
   304.7864 304.7864 310.6870 323.0411 323.0411 323.0411 325.9875 325.9875
   332.9069 332.9069 332.9069 332.9319 332.9319 332.9319 333.3469 333.3469
   333.3469 333.8277 333.8277 333.8277 337.8343 339.6957 339.6957 339.7797
   339.7797 339.7797 340.0195 343.3032 343.3032 343.3032 351.1744 351.1744
   351.1744 352.0221 361.5356 362.4152 362.4152 362.4794 362.4794 362.4794
   363.2150 363.2150 363.2150 363.2381 363.2381 363.2381 363.4365 363.4365
   363.4365 363.5544 363.5544 363.5544 363.6140 363.6140 368.1624 368.1624
   368.1624 368.8321 368.8321 369.4960 369.5104 369.5104 369.5104 369.7939
   369.7939 369.7939 370.1329 370.1329 370.1329 370.7702 370.7702 370.7702
   371.0052 371.0052 376.5016 390.3041 390.3041 390.3041 398.0040 398.0040
   398.0040 401.1779 401.1779 401.1779 401.7158 402.7804 402.7804 405.5840
   416.5449 416.5449 416.5449 417.3529 417.3529 417.3529 417.7694 418.2306
   418.2306 418.2306 419.9784 419.9784 419.9784 420.3137 420.3137 428.3855
   428.3855 428.3855 429.3883 429.3883 429.4603 429.4603 429.4603 429.6343
   430.6043 430.6043 430.6043 430.9296 430.9296 430.9296 431.1220 431.1220
   431.1220 431.3420 431.3420 431.3420 433.2627 433.9672 433.9672 433.9672
   434.4718 434.4718 434.4718 434.7395 434.7395 434.7852 434.7852 434.7852
   437.6046 437.6046 437.6063 437.6063 437.6063 437.6175 438.7858 438.7858
   438.7858 438.8366 438.8366 439.5588 439.5588 439.5588 439.9367 439.9367
   439.9367 440.1670 445.6441 459.2266 459.2266 459.2266 462.7110 462.7557
   462.7557 462.7557 468.3374 468.3374 468.6756 468.6756 468.6756 468.8085
   468.8085 468.8085 469.3565 469.3565 469.3565 469.6624 469.6624 469.6624
   469.7825 469.7825 469.7825 470.0460 470.0460 474.8778 474.8778 475.2308
   475.2308 475.2308 475.3929 475.3929 475.3929 475.6143 475.6143 475.6143
   475.6218 475.6218 475.6218 475.8127 475.8589 475.8589 477.1536 477.3557
   477.3557 477.3557 477.5759 477.5759 477.5759 477.7849 482.0968 482.0968
   482.0968 483.0936 483.0936 486.1343 486.1886 486.1886 486.1886 487.6499
   487.6499 487.6499 489.2135 489.2135 489.2135 491.9887 491.9887 491.9887
   493.3748 493.9731 493.9731 493.9731 494.6048 494.6048 495.2628 495.2628
   495.2628 495.8914 499.0911 499.0911 500.0226 500.0226 500.0226 500.2179
   500.2179 500.2179 500.3029 500.3029 500.3029 501.3794 501.3794 501.3794
   501.3798 501.3798 501.8854 502.1690 502.1690 502.1904 502.1904 502.1904
   503.8871 503.8871 503.8871 504.0393 504.0393 504.0393 504.2434 504.2434
   504.2434 504.3574 504.3574 504.3574 505.2835 505.2835 505.2891 505.2891
   505.2891 505.3084 507.1614 522.2772 522.2772 522.2772 528.4361 528.4361
   537.5604 553.3542 553.3542 553.3542 559.1240 559.1240 559.1240 561.3234
   561.3234 561.3234 562.6789 563.3388 563.3388 564.5236 564.5236 564.5236
   564.9982 564.9982 564.9982 565.0394 565.0394 565.0394 565.3532 565.3532
   565.3686 565.3686 565.3686 565.5771 565.6049 565.6049 565.6049 565.9088
   565.9088 566.2664 566.2664 566.2664 567.5724 570.2879 571.4254 571.4254
   571.4254 571.8706 571.8706 571.8706 572.3274 572.3274 572.3274 572.7552
   572.7552 572.7552 577.1696 577.1696 577.2612 577.2612 577.2835 577.2835
   577.2835 577.3774 577.3774 577.3774 577.4082 577.4082 577.4082 577.6277
   577.6277 577.6277 578.9519 578.9911 578.9911 579.0755 579.0755 579.0755
   579.2773 599.3039 599.3039 599.3039 602.4364 602.4364 602.4364 602.8302
   602.8302 602.8435 602.8435 602.8435 606.4421 606.4421 606.4421 608.4220
   608.4220 608.4940 608.4940 608.4940 608.7873 608.8450 608.8450 608.8450
   609.4378 609.4378 609.4378 609.7801 609.7801 609.7801 609.8888 610.0607
   610.0607 610.0670 610.0670 610.0670 610.0968 610.0968 610.0968 613.4226
   617.2285 617.2285 617.2285 618.2857 618.2857 618.3373 618.3373 618.3373
   629.9625 630.8705 631.3876 631.3876 631.3876 631.6040 631.6040 631.6040
   631.8884 631.8884 632.1935 632.1935 632.1935 632.4029 632.4029 632.4029
   632.6788 632.6788 632.6788 633.1498 634.8172 638.0173 638.0173 638.0360
   638.0360 638.0360 638.0720 638.0720 638.0720 638.4138 638.4138 638.4138
   638.4223 638.4223 638.4223 638.5696 641.0787 641.0787 641.0787 641.1276
   641.1276 641.1276 641.1416 641.1416 641.2214 641.2214 641.2214 641.3621
   641.3621 641.3621 641.5148 641.7905 641.7905 641.7905 641.8321 641.8321
   642.3151 643.0841 643.0841 643.0841 643.5179 643.5179 643.5179 643.7984
   643.7984 643.8395 643.8395 643.8395 646.1305 668.8115 668.8115 668.8115
   672.0943 672.0943 672.3382 672.3382 672.3382 673.8590 673.8590 673.8590
   673.9274 673.9274 673.9274 674.0808 674.0808 674.0808 674.1594 674.1594
   674.1594 675.3371 675.3371 675.5233 675.5233 675.5233 675.9482 677.1453
   677.1453 678.9457 684.4544 689.8617 689.8617 689.8617 691.5751 691.5751
   691.5751 691.7805 698.0646 698.0646 698.0646 698.6922 698.6922 698.6922
   698.8476 698.8476 698.8476 698.9182 698.9182 699.0363 699.0363 699.0363
   699.3327 699.3327 701.4229 702.9625 702.9625 702.9625 704.1357 704.1357
   704.1357 704.1696 704.1696 704.1696 704.4029 704.4029 704.4029 704.5360
   704.5360 704.5360 705.7777 705.7777 705.9475 705.9475 705.9475 705.9683
   705.9683 706.0064 706.0064 706.0064 706.0121 706.0121 706.0121 706.0814
   706.0814 706.0814 706.2682 706.2682 706.2682 706.3817 707.5572 707.5572
   707.6359 707.6359 707.6359 707.9473 707.9473 707.9473 707.9932 707.9932
   707.9932 708.0743 708.1244 708.1244 708.1244 708.1363 708.1363 708.1363
   708.1404 708.3277 708.3277 708.3277 708.4751 708.4751 711.2102 711.2175
   711.2175 711.2175 711.2218 711.2218 712.5167 714.0539 714.0539 714.1791
   714.1791 714.1791 714.6515 714.6515 714.6515 714.6698 714.6850 714.6850
   714.6850 714.8705 714.8705 714.8705 715.0102 715.0102 715.0102 715.2741
   715.2741 715.3392 715.3392 715.3392 715.3876 734.8887 734.8887 734.8887
   736.1753 736.2483 736.2483 736.2483 739.4497 748.1708 748.1708 748.1708
   748.2063 748.2063 748.2534 748.2534 748.2534 748.3214 748.3214 748.3214
   748.4445 748.4445 748.4523 748.4523 748.4523 753.9508 753.9508 753.9508
   756.9075 756.9075 761.6092 761.6092 761.6092 761.8692 761.8692 761.8692
   761.8823 761.8823 761.8823 762.1262 762.1262 762.1262 763.0239 768.7592
   768.7592 768.8835 768.8835 768.8835 769.0519 774.3155 774.3155 774.3155
   774.3284 774.3390 774.3390 777.3934 777.3934 777.3934 777.4075 777.4075
   777.4075 777.4475 777.4475 777.4475 777.4699 777.4699 777.4699 778.7878
   778.7878 778.8071 778.8071 778.8071 778.8330 807.3022 807.3022 807.3022
   810.9435 810.9435 810.9435 811.5257 812.0839 812.0839 812.4002 812.4002
   812.4002 812.6621 812.6621 812.6621 812.8535 812.8535 812.8535 813.0007
   813.0007 813.0007 813.1876 813.1876 813.9670 818.3170 818.3170 818.3170
   824.2305 824.2305 824.2305 827.0279 827.1050 827.1050 827.1078 827.1078
   827.1078 829.4966 830.4025 830.4025 830.4025 830.6434 830.6434 830.6434
   833.1736 833.1736 833.1736 833.4416 835.6248 835.6248 836.8298 836.8298
   836.8298 837.2194 837.2194 837.2194 837.3131 837.3131 837.7038 837.7038
   837.7038 837.7855 837.7855 837.8398 837.8398 837.8398 838.6860 838.6860
   838.6860 838.8000 838.8000 838.8000 839.0749 839.0749 839.0749 839.0993
   839.0993 839.1771 839.9846 840.0151 840.0151 840.0151 840.0500 840.0500
   840.0500 840.2265 842.3977 843.0998 843.0998 843.0998 843.1707 843.1707
   843.2049 843.2049 843.2049 843.3710 843.3710 843.3710 843.4114 843.4114
   843.4201 843.4201 843.4201 845.1308 845.1333 845.1333 845.1333 845.1542
   845.1542 845.1542 845.2044 845.2044 845.2056 845.2056 845.2056 849.6035
   849.6035 849.6035 849.6648 849.6648 849.6648 849.7520 849.7520 849.7520
   849.7685 849.7685 849.8588 870.9982 870.9982 870.9982 872.4118 872.4118
   874.1504 876.5797 876.5797 876.5797 876.9246 876.9246 876.9246 877.8708
   877.8708 877.8708 877.9217 878.6962 878.6962 878.8846 878.8846 878.8846
   879.1147 879.1147 879.1147 879.4248 879.4248 879.4248 879.6355 879.6463
   879.6463 880.2019 880.2019 880.2019 880.5648 880.5648 880.5648 880.6191
   880.6191 880.6191 881.0482 881.0482 881.0482 884.9342 884.9342 885.1410
   885.1569 885.1569 885.1569 885.2405 885.2405 885.2405 885.3952 885.3952
   885.3952 885.6390 885.6390 885.6851 885.6851 885.6851 885.8815 885.8815
   885.8815 885.9315 885.9375 885.9375 885.9375 887.1227 887.1227 887.1547
   887.1547 887.1547 887.2112 893.9207 893.9207 893.9207 896.9226 896.9226
   896.9226 897.2669 897.2669 897.3339 897.3339 897.3339 899.6987 899.7871
   899.7871 899.7871 900.0368 900.0368 900.1961 900.1961 900.1961 900.7747
   900.7747 900.7747 901.1000 905.0514 905.6303 905.6303 905.6303 906.2049
   906.2049 906.2049 906.8720 906.8720 906.9108 906.9108 906.9108 908.6325
   908.7979 908.7979 908.7979 909.0651 909.0651 909.0651 909.3083 909.3083
   909.3083 909.3307 909.3307 913.3277 913.3277 913.3397 913.3397 913.3397
   913.5251 913.5251 913.5251 913.6814 913.6814 913.6814 913.7121 913.7121

          k =-0.1250 0.1250-0.1250 (  2430 PWs)   bands (ev):

   -63.3954 -30.1748 -30.1629 -30.1629  -8.1734   7.9764   8.8226   8.8226
    14.7259  23.1838  25.2642  25.2642  29.7446  29.7446  30.9705  33.6925
    35.2016  35.2016  45.5745  47.4252  47.4252  50.2462  56.8371  56.8371
    60.6153  63.2457  63.2457  66.6855  70.4073  71.9712  71.9712  74.4283
    74.4283  79.5724  80.2846  80.5495  80.5495  82.4537  82.4537  84.8543
    84.8543  85.9078  89.7372  90.1777  90.1777  90.7880  92.5334  94.3993
    94.3993  96.4960  96.4960  97.4461  98.0098  98.0098  98.7887 100.9948
   103.4567 104.7436 104.7436 106.9265 106.9265 110.6373 117.9209 117.9209
   119.3202 125.0600 125.0600 126.9878 139.1348 139.2900 139.2900 140.9202
   140.9202 142.8481 146.2589 146.2589 147.7470 150.3313 150.9014 150.9014
   151.1816 151.1816 152.2576 153.0089 153.0089 155.7322 156.3063 158.4136
   158.4136 159.4315 159.4315 159.9047 162.0592 163.4373 163.4373 163.6546
   163.6546 163.9666 165.3972 165.4370 165.4370 167.7365 168.9185 168.9185
   171.1669 172.2709 174.2397 174.2397 175.5908 176.4677 176.4677 179.8088
   179.8088 180.1747 180.1747 182.4088 183.1596 183.9349 183.9349 185.4699
   185.4699 188.7694 192.6868 192.6868 193.6389 194.7758 194.7758 197.8614
   199.9707 199.9707 200.5648 202.4703 202.4703 204.1865 204.8545 206.4890
   206.4890 208.2407 210.3921 210.3921 210.6215 213.1479 213.1479 214.3826
   214.4817 214.4817 215.6467 216.3187 218.9169 218.9169 219.3365 219.3365
   221.5730 222.8300 222.8300 223.3275 227.6040 227.6040 230.8905 232.6393
   236.1039 236.1039 236.9137 236.9199 237.4945 237.4945 238.8981 238.8981
   241.3156 244.7151 244.7151 246.0749 250.9634 250.9634 253.9212 254.9077
   254.9077 261.8813 261.8813 262.9127 264.1196 264.4304 267.8217 267.8217
   271.4522 271.4522 274.8671 274.9096 274.9096 274.9620 276.5667 277.3321
   277.3321 278.3168 278.3168 280.0000 280.7905 280.7905 281.0091 283.3490
   283.4002 283.4002 283.5717 283.5717 284.1612 284.1612 284.2647 286.2798
   288.7695 288.7695 289.9069 290.9804 290.9804 292.2814 293.1468 293.1468
   293.4216 293.5058 293.5058 294.2639 295.6371 295.6371 296.5969 296.8259
   296.8259 297.1056 297.3586 297.3586 300.0465 300.3261 300.3261 301.9646
   301.9646 302.1802 303.2401 303.3148 303.3297 303.3297 304.2249 304.2249
   305.2968 307.8756 307.8756 308.6369 309.2439 309.2439 309.7271 311.3986
   311.4925 311.4925 313.6569 314.4511 314.4511 315.6655 315.6655 316.0836
   317.6168 317.6168 318.7182 318.7182 318.7711 319.2737 319.5310 322.4738
   322.4738 324.8522 325.6489 325.6489 328.9258 329.3150 329.3150 329.4627
   335.5871 335.5871 338.1390 338.1390 339.3736 340.7187 340.7187 344.2057
   344.2057 344.5485 345.2376 345.8250 348.2993 348.2993 348.9431 348.9431
   350.2230 352.0455 352.0455 353.0836 354.2653 354.2653 354.8325 354.8325
   355.2690 355.7884 355.7884 357.4851 357.4851 357.6750 358.4557 359.7197
   359.7197 359.7426 361.7805 364.5160 364.5160 366.7380 367.6104 370.0322
   370.0322 372.4590 372.9082 372.9082 374.0442 374.0442 374.3754 374.4599
   376.1241 380.2494 380.2494 382.5814 382.7962 382.7962 383.1299 383.2229
   383.2229 386.9924 386.9924 387.7760 390.6196 391.1160 391.1160 391.7157
   391.7157 395.9542 398.1473 398.1473 399.0921 403.9656 404.8727 404.8727
   408.0084 408.0084 408.9458 408.9458 413.2250 413.3960 413.7038 413.7038
   414.5873 414.5873 414.9279 415.0744 416.3139 416.3139 417.9470 417.9470
   418.9524 419.4024 419.4024 419.7978 420.8181 421.0652 421.0652 423.8260
   423.8260 424.1716 424.3727 424.3727 425.0448 427.5897 427.9928 427.9928
   428.4392 434.0118 434.5437 434.5437 435.2906 435.2906 435.3992 435.4135
   436.6062 438.2193 438.6552 438.6552 439.7548 439.7548 441.6389 441.6389
   441.7118 442.5532 444.0647 444.0647 445.3545 445.3545 446.0813 446.0945
   446.7084 446.7475 446.7475 448.7401 448.7401 449.9155 449.9155 450.3824
   450.3824 452.2223 453.6310 454.0466 454.0466 454.5401 456.0860 456.7538
   456.7538 456.7900 456.7900 457.0349 459.9703 460.1852 460.1852 460.8690
   460.8690 461.5574 462.2405 462.2405 463.9884 464.4680 464.4680 464.7662
   465.9564 465.9564 468.0623 468.0623 468.3419 469.7915 470.5315 470.5315
   471.2686 471.8085 471.8085 472.1646 474.3497 474.3497 474.3613 474.8189
   474.8189 476.2020 476.2020 476.2643 477.6692 478.2958 478.2958 479.0666
   479.0666 480.2515 480.8139 481.1239 481.2410 481.2410 481.3920 482.3064
   482.3064 483.1091 483.1091 484.1054 485.1876 485.1876 485.5395 487.6359
   488.1381 488.1381 488.2554 488.2554 488.6706 489.6715 491.0659 491.0659
   492.9988 492.9988 493.2010 493.8281 493.8281 494.0186 494.5213 494.9751
   494.9751 495.1976 495.1976 496.5667 496.5667 497.1288 497.3397 497.3397
   498.6969 500.1637 500.5388 501.4229 501.4229 502.4817 502.4817 503.4624
   506.3133 506.3133 507.0868 507.6447 507.9317 507.9317 509.1636 509.1636
   510.7301 510.7301 511.8084 511.8724 513.1523 513.1523 514.0250 514.1567
   514.1567 515.9196 516.5108 516.5108 517.2880 518.4958 523.6936 523.6936
   525.1532 526.7253 526.7253 527.2061 529.4643 529.4643 531.1537 536.9531
   537.6833 537.6833 538.9716 538.9716 543.2380 545.2795 545.2795 547.8719
   547.8719 548.3592 548.3592 550.0384 550.0384 550.6384 551.0407 551.2132
   551.2132 551.4130 553.5586 554.7629 554.7629 556.3092 556.5615 556.5615
   559.5701 562.0153 562.0153 563.6196 563.9119 564.1022 564.1022 565.0415
   565.0415 565.4256 566.4193 566.4193 567.9981 569.3557 569.3557 571.4962
   571.5571 571.5571 573.7380 576.9431 577.5971 577.5971 578.3540 578.3540
   578.8127 579.5196 579.5196 580.4421 580.5967 580.5967 583.8447 584.0889
   584.0889 584.7412 585.1106 585.1106 585.9202 586.7144 587.9779 588.1851
   588.1851 589.1110 590.2323 590.2323 590.8954 591.1804 591.1804 591.2341
   591.2341 591.9372 591.9372 592.1055 592.1772 592.1772 593.5248 593.5248
   593.8984 594.6559 596.7874 598.4349 598.4349 598.7249 599.5369 599.5369
   601.3957 601.6829 603.3322 603.3322 603.8934 604.3449 604.3449 606.0388
   606.0388 606.9192 607.0116 607.3536 607.3536 608.7487 608.7487 611.7997
   612.7742 612.7742 613.2486 613.7252 613.7252 616.2621 616.2621 616.4430
   616.8944 616.8944 617.4632 617.9562 617.9562 618.4607 621.0335 621.0335
   621.0531 621.4316 623.2185 623.2185 623.3358 625.0054 625.0054 626.3885
   626.3885 626.3925 627.1008 629.7298 629.8553 629.8553 632.3796 632.3796
   633.1802 633.3734 633.3734 633.6225 634.9227 634.9227 635.1168 635.1168
   635.1402 635.3959 635.9530 635.9530 636.1337 637.1099 637.1099 638.8744
   638.8744 638.9557 639.5182 639.7646 640.5384 640.5384 643.7057 644.4082
   644.4082 644.8617 644.8617 644.9739 645.7407 645.8582 645.8582 646.1897
   646.1897 646.3637 647.4062 647.4062 647.4908 647.6524 647.6524 649.4570
   649.4570 649.8750 650.4379 655.5923 655.5923 657.5864 657.5864 658.1331
   659.7820 661.2790 662.9966 663.2864 663.2864 663.8618 664.3785 664.3785
   664.9673 664.9673 666.5703 666.5703 666.6383 666.7987 667.3218 667.6451
   667.6451 667.6815 667.6815 667.9826 671.1189 672.9264 672.9264 674.2196
   674.2196 675.7604 675.7604 676.3771 676.4682 678.1821 678.4557 678.4557
   680.7229 680.7229 683.3801 683.5728 683.5728 683.5967 683.6482 683.9936
   683.9936 684.5729 684.6196 684.6196 685.0799 685.0799 685.5307 685.9916
   685.9916 686.5296 687.2976 687.2976 688.9539 689.0021 689.0021 689.5328
   689.5477 689.5477 690.8544 692.7038 692.7038 692.7505 693.2371 693.2371
   693.4044 694.1485 694.1485 697.2871 697.8625 697.8625 698.5661 698.6349
   698.6349 699.3760 699.5138 699.5138 699.8527 699.8527 700.1514 700.1514
   700.1794 700.5048 700.5048 700.6284 700.9243 702.2282 703.0381 703.1241
   703.1241 704.5668 704.5946 704.5946 704.8717 706.4776 706.5825 706.5825
   710.8384 710.8384 710.8814 710.9107 710.9107 711.3227 711.3227 711.8584
   713.0109 713.6905 713.9447 713.9447 714.5459 714.5459 719.3615 719.3615
   719.3974 720.1321 720.3649 720.3649 721.5563 721.7139 721.7139 722.7284
   722.8022 722.8022 723.0673 723.0826 723.0826 723.6166 723.6166 723.7823
   723.9842 723.9842 724.6516 725.4930 725.9992 725.9992 726.0903 730.8666
   730.8666 732.0876 732.4358 732.4358 732.6009 732.6009 733.7171 733.7171
   733.8905 734.5918 734.5918 734.6332 734.7107 736.0283 736.0283 736.1255
   736.5474 737.6948 737.6948 738.7830 738.7830 739.5608 739.5608 739.9262
   740.1664 740.1664 740.1713 740.5343 744.9379 744.9379 745.3223 745.6067
   745.6067 746.6663 746.6663 747.4646 747.9317 750.5272 750.5272 750.6095
   752.3340 752.3340 752.4563 754.8926 754.8926 754.9302 757.2704 757.2704
   757.2750 763.2348 763.2348 763.2350 763.9524 763.9711 763.9711 766.5096
   766.5118 766.5118 769.9148 770.3246 770.3246 772.9899 777.2387 778.0258
   778.0258 778.1501 778.8792 778.8792 782.8762 782.8762 783.5233 784.6719
   784.6719 788.9536 788.9536 789.0670 789.8301 790.8419 790.8419 791.1773
   793.2857 793.2857 793.4721 793.4721 793.4809 795.4254 795.8146 795.8146
   796.1297 796.9655 796.9655 800.2041 801.6797 801.7128 801.7128 804.6547
   804.6547 804.9600 804.9600 805.0416 806.9027 807.3378 807.3378 808.2505
   808.9396 808.9396 810.6752 810.6752 811.7555 811.7555 812.3162 812.5535
   812.5535 813.4759 814.0847 815.1056 815.1056 816.2075 816.4709 816.4709
   817.2482 818.5603 818.5603 818.6859 820.2696 820.4520 820.4520 821.6795
   821.7315 821.7315 825.4329 825.4329 827.1105 827.3540 827.3540 828.0442
   828.0442 828.5015 828.5015 828.7211 828.9118 829.9061 830.2114 830.2114
   830.4653 832.2662 832.4138 832.4138 834.1134 834.1134 834.4359 835.9403
   835.9403 837.5062 837.5689 837.5689 838.5023 840.1891 840.1891 840.4447
   842.8389 845.3448 845.3448 845.3525 845.3525 845.4382 845.6706 845.9980
   845.9980 846.1627 846.2181 846.2181 846.3842 847.0197 847.0197 849.3151
   849.3151 849.5469 850.6073 850.6073 851.4137 851.4137 851.4634 851.4824
   851.5692 851.5692 851.8764 851.9387 851.9387 851.9731 853.1182 853.1182
   853.5807 855.6328 855.6328 855.6751 856.1045 856.9220 857.4127 857.4127
   857.5666 857.5666 857.9889 857.9889 858.8630 859.6231 859.9841 859.9841
   860.2336 860.2336 860.2525 860.2671 860.2671 860.4129 860.7461 860.7461
   861.1384 864.2066 866.1391 866.2538 866.2538 867.8333 867.8333 867.8365
   868.3143 868.3143 868.8971 870.1809 870.1809 870.3899 870.3899 870.9430
   872.5616 872.5616 872.9119 873.0115 873.2585 873.2585 873.2917 873.3255
   873.6288 873.6288 875.5257 875.5257 875.9630 876.3103 879.6859 879.6859
   879.8636 879.8636 879.9977 880.2636 880.2636 880.9642 881.6925 881.6925
   881.7175 882.1921 882.1921 882.1995 882.9491 882.9491 883.2504 884.0182
   884.0182 884.0225 884.2846 884.2846 884.4171 886.4966 886.4966 886.5036
   887.3367 887.3367 887.4039 889.1281 889.1281 890.6519 890.6519 890.7209
   890.8481 891.4057 891.4057 891.7743 891.8863 891.8863 891.9717 893.5597
   893.5597 893.6419 895.6711 895.6711 895.7526 895.7876 895.7876 895.9979
   899.9092 899.9092 900.0399 900.0399 900.0621 900.3241 901.2498 901.2498
   901.3609 901.7854 901.7854 901.9911 903.0589 903.2314 903.2314 904.1613
   904.1613 904.3213 904.8233 904.8233 904.9727 904.9727 905.1494 905.3588
   905.5081 905.5081 905.5655 908.0618 908.0618 908.5923 908.7674 908.7674
   908.8333 910.1936 910.5859 910.5859 911.7261 911.7261 911.9715 912.2146
   913.6148 913.6148 914.3200 914.3250 914.3250 914.9990 914.9990 915.1103

          k =-0.2500 0.2500-0.2500 (  2439 PWs)   bands (ev):

   -63.3921 -30.2067 -30.1661 -30.1661  -7.7278   6.2617   8.5835   8.5835
    16.1636  21.6240  25.7709  25.7709  29.3287  29.3287  31.1972  37.0136
    37.8453  37.8453  43.5179  46.1849  46.1849  52.9613  53.5215  53.5215
    62.1305  63.9483  63.9483  67.8726  69.0115  69.6637  69.6637  73.6059
    76.2569  76.2569  76.8181  78.4491  78.4491  80.7515  82.2151  82.2151
    83.6322  83.6322  88.2205  88.5009  88.5009  88.5088  94.8198  95.4117
    95.4117  96.8693 100.1521 100.1521 104.9369 104.9369 105.8972 106.3457
   108.2577 108.2577 110.7396 113.2656 114.4500 114.4500 115.5301 115.5301
   119.3260 124.9449 124.9449 126.9774 131.5129 131.5129 135.5649 136.8220
   136.8220 139.7999 139.7999 140.2039 142.0745 142.0745 144.3960 147.1004
   147.8327 147.8327 149.6934 149.6934 151.1873 152.5019 155.5602 157.0316
   157.0316 158.9346 159.3756 160.1623 160.1623 163.3875 165.9923 165.9923
   166.2844 166.8692 166.8692 169.2873 169.2873 170.6851 173.0717 173.0717
   173.1765 174.0244 174.0244 176.0803 176.0803 176.3431 179.0214 179.0214
   179.6855 185.1678 185.1678 185.1714 186.2664 186.2664 186.4452 186.6280
   190.4360 191.6746 191.6746 193.4894 193.4894 196.1729 196.8404 196.8404
   199.1950 199.1950 199.5066 201.0952 201.0952 201.5263 203.8215 203.8215
   204.1693 206.2030 209.7772 209.7772 211.5111 213.0775 214.1721 214.1721
   215.4915 215.4915 216.5629 218.6118 218.6118 219.6297 220.2540 220.2540
   220.3542 221.3737 227.4202 227.4202 229.4747 234.7154 234.7154 237.0303
   237.0303 237.2967 242.2682 243.2805 243.2805 245.7139 245.7139 246.4851
   246.4851 247.0234 248.7091 248.8087 248.8087 251.0787 255.5035 255.5035
   256.5645 258.8343 259.2406 259.2406 260.5985 260.5985 262.1953 262.1953
   262.3248 263.3261 263.3261 264.2233 265.0833 266.1196 266.6053 266.6053
   267.1649 267.9459 268.4482 268.4482 270.1401 270.1401 274.8194 274.8194
   275.6174 275.8365 275.8365 277.5386 279.8855 288.5084 288.5084 288.7687
   288.7687 288.8906 290.2193 290.5754 290.5754 291.5027 293.6777 293.6777
   293.6914 294.3697 294.3697 294.4660 296.3919 296.3919 296.8661 297.5304
   297.5304 298.2422 298.3431 298.3431 298.7199 301.6252 303.4782 303.4782
   303.9449 303.9449 304.0965 306.3191 306.3191 307.0885 308.8854 308.8854
   309.4630 310.8682 312.3144 312.3144 313.9737 314.0240 314.5425 314.8199
   314.8199 315.2861 315.2861 316.9251 316.9251 317.8992 317.8992 321.4621
   321.4621 321.4641 321.6227 324.4448 324.4448 325.9534 328.3695 328.7691
   328.7691 329.2147 329.2147 329.2339 330.9906 330.9906 331.0409 333.4746
   333.4746 335.1781 337.2683 337.2683 338.6991 338.9032 342.7007 342.7007
   343.0552 343.0552 343.5116 346.0765 346.1147 346.1147 346.3071 347.2144
   347.2144 348.2209 348.2209 350.0735 354.3246 354.5166 354.5166 354.7973
   356.1429 356.1429 357.9681 359.4363 359.4363 361.4818 361.4818 361.5213
   363.2152 364.7017 365.4432 365.4432 369.9549 369.9549 371.5904 372.2912
   372.2912 372.9029 376.5567 376.5567 378.9229 378.9229 379.4600 379.7026
   379.7026 380.6834 383.8966 383.8966 384.0867 385.9299 385.9299 386.3080
   386.7198 388.0130 389.6089 389.6089 393.8164 393.8164 394.2793 394.6687
   394.6687 397.0182 397.0182 397.1432 397.8526 397.8526 398.2804 398.7304
   399.1400 399.1400 399.4757 402.0029 402.0029 402.0816 402.3817 410.1891
   410.1891 410.7502 411.8621 411.8621 412.9800 413.0543 413.0543 414.2298
   414.2739 414.2739 414.6144 414.6144 419.0182 419.0182 419.1414 420.1395
   420.1395 421.6456 421.7686 423.1553 423.1553 425.4606 425.8825 425.8825
   426.1941 426.1941 426.3332 427.8454 431.1893 432.7409 432.7409 434.7259
   434.7259 435.4405 436.7447 436.7447 437.0153 437.4791 437.7187 437.7187
   440.5119 440.8319 440.8319 441.7310 441.7310 441.8923 443.1764 443.1764
   445.9731 445.9731 446.0527 446.2156 447.3549 447.3549 449.8849 449.8849
   449.9678 451.2771 453.3954 456.0799 456.0799 456.1160 457.1868 457.1868
   457.3078 457.3330 457.4125 457.4125 458.9918 458.9918 460.6529 460.6529
   462.1307 462.2138 462.2138 462.7267 462.8804 464.1619 464.1619 464.9014
   466.0575 466.0575 467.3227 467.3227 468.0012 469.5087 469.7948 469.7948
   470.0380 471.0163 471.0163 472.3583 472.4010 472.4010 472.8682 472.8682
   472.9383 474.9509 475.0381 475.0381 476.2353 476.2353 476.2616 477.3086
   477.3086 477.3557 477.6770 479.4410 480.2622 480.2622 482.5187 482.5187
   483.1112 483.1112 483.9346 483.9403 486.0062 486.0062 487.7787 489.1827
   489.1915 489.1915 489.4244 489.4439 489.4439 490.6253 490.6253 490.7257
   491.1591 491.1591 491.2163 493.2060 493.2060 499.5497 499.8851 499.8851
   504.0926 504.5049 504.5049 504.7764 505.6482 505.6482 506.4222 507.6133
   509.6215 511.1210 511.1210 511.2840 511.2840 511.3114 511.3114 511.3236
   512.4367 514.7927 514.7927 515.2457 515.9061 518.5109 518.5109 521.4247
   521.4247 521.6388 521.6388 521.9477 522.6814 522.6814 522.9883 525.9602
   526.2889 526.2889 527.9324 527.9324 528.2188 528.2188 529.5115 530.2679
   531.1237 531.9876 531.9876 532.4309 532.4309 533.9718 534.7564 534.7564
   535.6630 535.8790 535.8790 536.9982 536.9982 537.1446 539.1088 539.1088
   539.2852 542.1373 544.1602 544.1602 544.6798 546.0718 546.5071 546.5071
   550.2410 550.8187 550.8187 551.1625 551.1958 551.8947 551.8947 552.0067
   553.3620 553.3620 553.7458 553.8177 553.8177 558.0090 558.0090 559.1707
   559.1707 560.0820 560.1582 560.1582 561.4269 561.4269 561.5796 565.0762
   566.6024 566.6024 567.5572 567.5572 567.6115 568.6304 570.3595 570.3595
   571.8065 573.9606 575.4675 575.4675 576.4130 576.4181 576.4181 576.8550
   578.0485 578.0485 580.6186 580.6186 581.3716 581.5573 584.7359 584.7359
   584.8025 588.9068 588.9068 589.1269 592.4631 592.4631 593.1589 593.1880
   593.1880 593.3508 593.5437 593.5437 593.9174 593.9174 595.9572 595.9572
   596.2832 596.5181 597.3180 597.6777 597.6777 598.6835 600.3302 600.6587
   600.6587 601.9002 601.9002 602.4417 603.8420 603.8420 604.7713 604.9423
   604.9423 605.8368 605.8368 606.0371 606.4853 606.9519 606.9519 611.9935
   612.4995 612.4995 613.2233 613.4423 613.4423 615.0596 616.3205 616.3205
   617.8602 620.2195 620.2195 620.5398 620.6074 622.2574 622.2574 622.3973
   622.8617 622.8617 625.0597 625.0597 625.4731 626.3609 627.5812 627.5812
   628.9415 629.6216 631.6554 631.6554 633.2739 633.2739 633.4444 633.5868
   634.4682 634.4682 635.0715 635.0715 635.5021 635.7206 635.7206 635.7565
   636.1759 636.1759 636.8644 637.5349 637.5349 637.7400 638.3286 638.3286
   639.2974 639.2974 642.0538 643.5381 643.5381 643.7945 643.7945 644.6142
   644.6161 644.6178 644.6178 645.6350 648.0973 649.5640 649.5640 650.0307
   650.0307 650.5704 650.5704 650.8463 650.9684 650.9684 651.0365 652.5923
   652.5923 652.6719 652.9177 654.8935 654.8935 655.8359 655.9835 655.9835
   656.1881 656.5613 656.5613 656.9376 658.2277 658.2277 658.7433 658.7433
   659.4884 659.6210 659.6210 660.0942 660.9666 661.7468 661.7468 662.3546
   664.7604 664.7604 665.0330 665.9612 666.8962 666.8962 668.1261 668.1261
   668.2794 668.2794 668.5802 669.2769 669.6509 669.6509 669.9659 670.2237
   670.2237 670.2751 671.8843 677.9527 677.9527 678.0669 680.7035 680.7035
   681.5974 681.5974 682.5841 682.6061 682.6061 682.6440 683.1039 683.1039
   683.6320 686.1572 686.1572 686.4670 687.4341 687.4341 688.1989 688.1989
   688.2382 688.6365 690.0348 690.5369 690.5369 692.0015 692.0015 693.1206
   693.3519 693.3519 693.3866 695.6117 695.6117 695.8414 695.8414 696.1334
   696.7412 698.9586 699.2226 699.2226 700.0719 701.6795 701.6795 702.1212
   703.4185 703.4462 703.4462 703.7731 703.7731 703.8035 707.4117 707.4117
   707.4399 707.4598 707.4756 707.4756 708.4612 708.4612 710.2328 710.8883
   710.8883 711.0125 714.3117 714.3117 715.3780 715.3780 715.6666 717.3483
   717.3483 718.0434 718.8196 723.4975 723.4975 724.3671 724.8965 724.8965
   724.9061 724.9885 725.1998 725.1998 725.4409 725.4409 725.7350 726.6442
   726.6442 726.9386 726.9386 727.4148 727.6799 727.6799 727.7042 727.7507
   727.7507 727.8115 728.2417 732.8983 732.8983 732.9109 735.9219 735.9219
   736.8757 736.8757 737.2644 737.4783 737.6852 737.6852 737.7532 739.2454
   739.2454 739.8942 740.1489 740.1489 740.1918 741.8292 741.8292 741.9808
   743.8797 744.2968 744.2968 744.4732 745.9597 745.9597 746.1978 746.1978
   746.3431 751.7994 751.7994 751.8530 753.0539 754.1860 754.1860 754.8697
   754.8697 755.2209 755.7826 756.2454 756.2490 756.2490 756.7952 756.7952
   756.8133 758.3404 758.3404 758.4808 759.0081 764.4611 764.4611 766.4223
   766.8962 766.8962 767.0608 767.0608 767.0627 768.9290 768.9290 770.1519
   771.1766 771.1766 771.7011 771.7011 773.7072 775.4869 775.4869 776.0519
   776.0519 776.4667 776.8431 777.1720 777.1720 778.2609 779.8763 779.8763
   780.2045 781.5007 781.5325 781.5325 781.8664 781.9203 781.9203 783.5554
   783.5554 785.8642 787.1603 787.1603 787.5139 790.5297 790.5297 791.5547
   792.1847 792.1847 792.2702 794.2479 794.2479 795.3561 798.1973 798.1973
   799.8918 801.0521 801.0521 801.1385 803.5616 803.5616 804.0525 804.6558
   804.6558 804.6815 805.7653 805.8987 805.8987 806.2629 811.0909 812.5862
   812.5862 812.9117 812.9117 813.2454 813.4750 813.4750 813.8064 813.8064
   813.9528 814.1942 814.1942 814.1961 814.8857 816.9585 816.9585 817.2003
   818.2585 818.2585 818.4590 818.4590 819.0317 823.8279 823.8279 826.2457
   826.2457 826.2645 826.5144 826.5144 826.8572 827.4397 827.8898 828.4366
   828.4366 828.6738 828.7469 828.7469 829.0026 829.0026 829.1929 830.0398
   830.0398 830.7240 832.7462 832.9185 832.9185 833.1626 833.1626 833.1852
   833.2638 833.4481 833.4481 834.3782 834.3782 835.5489 835.5814 835.5814
   835.8092 835.8092 835.9790 836.4936 838.9327 840.4492 840.4492 841.4045
   841.5444 841.8162 841.8162 844.1592 844.2225 844.2225 845.8229 845.8229
   846.5445 847.0469 847.0469 847.3800 847.3800 847.4220 848.0611 848.3674
   848.3674 848.4994 851.1050 851.1050 851.3574 851.3741 851.3821 851.3821
   853.3370 853.3370 853.5953 854.9330 854.9330 855.3318 855.3774 855.3774
   855.6973 855.6973 855.7338 855.8120 856.5734 856.5734 856.6252 858.9827
   858.9827 859.0118 862.8857 862.8857 862.9345 866.0409 866.0409 866.4838
   866.4838 866.4839 866.7119 866.7221 866.7221 866.7246 872.7570 872.7570
   872.7785 875.5512 875.6395 875.6395 875.7412 875.7497 875.7497 878.0899
   878.0899 878.7411 878.9514 878.9514 879.3375 879.5414 879.5414 879.5810
   881.4652 881.4652 881.4808 881.9611 881.9611 882.2076 882.4188 882.4669
   882.4669 882.9368 882.9368 883.0807 883.5857 883.5857 883.6221 883.9339
   883.9339 884.0919 884.9311 884.9311 884.9421 888.1964 888.6516 888.6516
   890.4972 890.4972 890.6996 892.5061 892.5061 892.5784 895.2682 895.2682
   895.5414 896.3923 896.3923 896.4780 896.7205 897.9767 898.6284 898.6284
   898.9573 899.1084 899.1084 899.4263 899.4263 899.4344 900.4962 900.5100
   900.5100 900.7729 901.0792 901.0792 901.1687 901.1811 901.1811 901.3666
   903.5692 903.5692 905.6194 905.6194 907.2295 907.6183 907.6183 908.1947
   908.1947 908.5745 908.8234 910.7565 910.7565 911.0282 912.4513 912.4513
   912.6314 912.7940 912.7940 914.9897 915.7584 915.7584 916.7575 916.9579
   916.9579 917.0044 917.0044 917.0811 918.9650 918.9650 919.0084 921.6415
   921.6813 921.6813 922.1062 922.2019 922.2019 922.4389 922.4389 922.5714

          k =-0.3750 0.3750-0.3750 (  2434 PWs)   bands (ev):

   -63.3889 -30.2382 -30.1693 -30.1693  -7.2258   4.8366   8.3583   8.3583
    16.8554  21.4454  25.6075  25.6075  30.4177  30.6337  30.6337  38.3301
    39.8070  39.8070  43.3623  43.3623  46.1056  54.0303  54.0303  55.9876
    60.4236  63.7534  63.7534  64.9767  65.9429  65.9429  69.6345  69.8283
    72.4532  72.4532  76.3040  76.4059  77.9649  77.9649  82.0089  82.0089
    87.9338  88.2264  88.8711  88.8711  90.2880  90.2880  92.9782  94.8433
    94.8433 101.0515 105.7040 105.7040 106.8462 109.9098 109.9098 111.2689
   111.4380 111.4380 112.9047 112.9047 114.7117 117.7005 119.6816 119.6816
   121.0272 124.2873 124.2873 127.5258 127.5258 127.9287 131.1516 131.1516
   131.4942 131.4942 133.7879 134.5890 138.2103 138.2103 141.7351 146.1358
   147.6404 147.6404 148.5696 151.3441 151.3441 152.2422 152.6182 154.4765
   154.4765 156.1763 156.2864 156.2864 156.8252 161.4283 161.4283 166.8443
   167.8750 167.8750 169.1133 169.1133 169.7093 169.7093 169.8326 171.4328
   173.2701 176.7013 177.2261 177.2261 179.1732 179.1732 179.6756 181.2261
   181.2261 182.9231 183.5545 185.9505 185.9505 188.9257 191.5186 191.5186
   195.0582 195.0582 195.1118 195.1702 195.1702 197.5585 200.1808 201.5577
   202.0963 202.0963 202.6963 202.6963 203.3548 205.3453 205.3453 207.2968
   208.1416 208.1416 208.3773 208.3773 210.5223 210.5223 210.8068 210.9486
   212.2112 213.5072 213.5072 217.0419 222.7313 222.7313 224.5282 224.5282
   226.0498 230.0610 230.0610 230.8039 230.8039 230.9214 232.7592 239.0791
   239.0791 240.2574 240.2574 241.1978 242.2912 242.7723 243.0371 243.0371
   244.7822 244.7822 246.7012 249.4487 249.4487 250.2796 254.2182 254.2182
   254.5902 255.5573 255.9808 255.9808 257.6925 257.6925 259.4076 259.4076
   259.8340 260.8196 260.8196 261.1930 264.7590 264.7590 265.5808 266.7303
   266.7303 266.8753 267.0041 267.6438 267.6438 271.8310 272.6807 272.6807
   273.9718 275.2430 275.2430 277.8453 281.3229 282.5260 282.5260 282.6578
   285.8777 286.9450 286.9450 287.4101 287.4101 288.8546 289.4980 289.4980
   289.6764 289.9489 292.2235 292.2235 293.3467 294.6782 294.6782 295.1638
   295.1638 295.2439 296.5869 296.5869 298.9671 300.6295 300.6295 302.6371
   302.6371 303.1462 304.0337 306.8995 310.2039 310.2039 310.6456 310.6456
   311.8991 313.9299 313.9299 314.3139 314.6648 314.6648 315.5541 316.5683
   316.5683 316.9268 317.7400 318.1954 318.1954 320.1357 320.1357 320.6533
   321.9575 322.8752 322.8752 327.7423 328.5932 328.5932 330.8049 330.8049
   331.9207 332.3912 333.7612 333.7612 334.0076 334.0076 334.4405 335.9626
   335.9626 336.1539 340.4618 341.7359 341.7359 343.0099 343.5323 343.5323
   343.8608 348.7155 350.5552 350.5552 353.4127 353.5123 353.5123 355.5572
   356.7404 356.7404 357.1085 357.1085 358.0763 358.0763 358.7503 359.0067
   359.0067 359.6675 359.6948 360.1592 360.3103 360.3103 365.3338 365.3338
   365.5331 365.9431 366.4923 366.4923 367.7817 367.7817 368.9794 371.1307
   371.1307 374.8117 376.1245 376.1245 376.8889 378.2465 378.2465 378.4691
   378.4691 379.4007 379.8288 383.6948 383.6948 384.9271 384.9271 385.5290
   386.7105 387.4756 387.4756 388.2844 388.9746 388.9746 389.1427 390.6473
   390.6473 391.2520 391.2520 391.5265 392.3176 394.6062 396.8913 396.8913
   398.4474 398.4474 398.9375 402.4462 402.4462 402.8425 402.8913 402.8913
   404.2806 404.8226 406.6429 406.6429 411.6668 411.6668 411.8281 411.9234
   412.8513 412.8513 415.1440 415.1440 418.3281 418.3281 419.1281 419.1281
   419.1916 419.8319 420.9788 421.7934 421.7934 421.9091 424.1604 424.1942
   424.1942 424.9059 424.9059 426.9005 427.4056 427.4056 427.7101 430.1998
   430.1998 430.8231 431.0680 431.6411 431.6411 432.4416 435.8440 435.8440
   436.5236 437.6422 437.6422 438.9926 438.9926 440.4495 440.5709 440.5709
   440.7504 442.5180 442.5180 442.9989 444.6376 444.6376 444.9659 445.3613
   445.3613 447.5272 447.5272 449.3681 449.3681 449.4182 450.3126 452.0346
   452.4647 452.4647 452.7068 453.2879 453.2879 453.3694 454.3546 454.3546
   458.2929 462.4916 462.4916 466.5172 466.5172 466.6004 467.4427 468.1211
   468.1211 469.9670 471.3377 472.5206 472.5206 473.9568 474.3820 474.3820
   474.7597 476.9916 476.9916 477.9839 477.9839 478.3352 478.3726 478.3726
   478.7534 478.7534 478.9276 478.9412 479.3464 479.3464 479.4095 480.1653
   480.6002 480.6002 481.7052 482.4262 484.2789 484.2789 485.0144 485.0144
   485.0495 485.0859 485.6434 485.6434 486.3294 486.3294 486.3687 489.1522
   491.0667 491.0667 492.5768 492.5768 493.1106 493.1106 493.1288 498.4930
   500.3890 500.3890 500.6745 501.1637 501.1637 501.3022 503.6102 504.9977
   504.9977 506.9445 506.9445 507.5939 507.6393 507.6393 509.0406 509.0406
   511.0741 513.4965 513.4965 513.9894 513.9894 514.0215 514.9991 515.0661
   519.2385 520.4818 520.4818 521.6146 521.6146 523.2607 523.2607 523.6510
   523.9660 523.9660 524.2023 524.2601 524.3306 524.3306 525.6281 526.2957
   526.2957 529.2911 530.2448 530.2448 530.4098 531.2641 531.2641 532.0135
   533.9609 533.9609 534.1385 534.1385 534.6451 534.6451 534.7014 534.7833
   534.9748 536.7580 536.7580 537.2792 537.8775 539.8357 540.6917 540.6917
   542.4850 542.4850 542.7074 542.7074 542.9083 543.4619 544.3886 544.8762
   544.8762 547.8613 548.9145 548.9145 553.4663 553.4663 554.1690 555.3236
   555.3236 555.7445 555.7445 556.0937 556.7680 556.7936 556.8914 556.8914
   557.1957 557.1957 558.0443 560.6146 560.6146 561.3779 561.3779 561.5777
   561.5777 561.5873 561.7039 563.3878 563.5114 563.5114 565.5474 566.3353
   566.3353 566.4664 568.3778 570.7035 570.7035 571.2471 571.2471 571.3903
   573.7325 573.7325 575.8889 575.8889 576.2374 576.2585 577.2151 577.2151
   577.9396 579.7804 581.4557 581.4557 583.1373 583.1373 583.2348 587.6441
   587.6441 588.4834 589.6094 589.6094 590.0449 598.1396 598.1396 598.5358
   599.1847 599.1847 599.5689 601.4094 601.4094 601.8141 603.1046 603.1046
   604.3065 604.3065 604.3209 604.7033 605.9927 605.9927 607.7080 607.7080
   609.6897 611.2239 611.2239 611.7411 611.7449 611.7449 612.0608 612.7476
   612.7476 613.0835 613.2437 613.3574 613.3574 614.1332 614.1997 614.1997
   614.5089 614.5089 615.6019 616.7678 617.5316 617.9717 617.9717 619.5745
   619.5745 619.8607 620.2315 620.2315 620.7974 622.6335 622.6335 623.7303
   628.8022 628.8022 629.1700 631.0455 631.0455 632.0195 632.0195 632.1560
   632.6504 632.7129 632.7215 632.7215 633.8006 633.8006 633.9025 635.0426
   635.0426 636.0902 638.8642 639.1102 639.1102 639.4544 639.4544 639.5549
   641.5067 641.5067 641.5845 641.6070 642.4450 642.4450 643.0343 643.0343
   643.3742 643.8959 646.0953 646.0953 646.5322 646.5322 646.6233 648.0807
   648.5319 648.5319 649.4605 649.4605 649.5010 649.8875 650.0420 650.0420
   651.0095 651.0095 651.2777 651.7341 651.9889 651.9889 652.1184 652.1184
   652.4537 652.9501 652.9501 653.1830 657.2938 657.6048 657.6048 658.2869
   658.2869 658.3434 658.7886 659.1389 659.1389 660.0507 660.0507 660.0715
   660.4423 663.8717 663.8717 664.0530 664.0530 664.1047 664.3680 664.3680
   664.3906 664.7115 667.3603 667.3603 668.1779 670.1013 670.1013 672.2844
   672.2844 673.7458 673.7458 673.7591 673.7784 676.7246 676.7246 677.5527
   677.5527 677.5952 677.6864 681.6936 682.7007 682.7007 683.0205 683.0205
   683.4535 689.2496 689.2496 689.7435 690.8053 690.8053 691.2038 693.4550
   693.4550 694.7146 694.7146 695.0328 695.2960 696.2511 696.2511 697.1519
   697.1519 697.6062 698.7145 700.7206 700.7206 703.0461 703.0584 703.0584
   703.0636 703.8934 703.8934 703.9763 704.5465 704.5465 705.3027 705.3027
   705.3261 705.4365 705.4365 705.5053 705.6061 706.5807 706.5807 708.5138
   709.0487 709.0487 709.5423 709.9503 710.4724 710.4724 712.7875 713.8446
   713.8446 715.2078 715.2078 715.2291 717.4665 717.4665 718.2849 718.8712
   720.6426 720.6426 721.7272 723.9379 723.9379 724.9221 724.9221 725.0761
   725.4605 725.9331 725.9331 725.9398 726.6568 726.6568 726.6994 727.2612
   727.2612 727.3340 731.7698 731.7698 731.7792 732.4756 732.4756 732.5695
   733.0148 735.3633 735.3633 735.4536 735.4536 736.0093 736.6767 736.6767
   737.6299 737.8820 738.5957 738.5957 739.9632 739.9632 741.4445 741.8594
   741.8594 743.1310 746.5212 746.8563 746.8563 747.0915 747.0949 747.0949
   747.8182 748.3799 748.3799 750.6246 750.6246 750.9035 750.9035 751.1728
   753.9791 755.1475 755.1475 755.3917 755.9123 755.9123 756.2230 759.7597
   759.7597 759.7645 760.6185 760.6185 761.2331 761.6562 761.6562 761.9781
   761.9781 762.0697 762.7690 764.2941 764.2941 764.9829 765.1430 765.4431
   765.4431 765.7571 765.7571 765.9339 767.2929 767.2929 767.3988 767.3988
   767.5253 768.6474 773.8134 773.8134 775.6466 777.4351 777.4351 777.4503
   779.0790 779.3442 779.3442 779.4672 779.5561 779.5561 780.1461 780.3947
   780.3975 780.3975 781.2482 781.2482 781.7882 781.7882 783.7866 783.9524
   783.9524 784.0217 786.5553 786.5553 786.9787 790.8704 791.5851 791.5851
   792.8957 797.2988 797.6312 797.6312 798.1178 798.1178 799.2689 800.3420
   800.3420 800.3873 800.5747 800.8265 800.8265 801.0674 801.0674 801.1479
   801.1542 801.1542 802.7618 803.5412 803.5412 804.2698 805.0023 805.0023
   805.5760 805.5760 805.7619 806.1569 806.1569 806.1944 807.3635 808.0277
   808.0277 808.7516 809.4492 810.0105 810.0105 810.8189 810.8189 811.3927
   811.9385 811.9385 811.9762 812.3612 812.3612 812.6466 814.4233 814.4233
   815.5748 815.5748 815.7463 816.6222 819.8610 819.8610 820.6273 820.6273
   820.6847 820.7136 821.5296 821.5296 822.8225 822.8375 822.8375 823.3809
   826.3083 826.3083 827.9589 828.0008 828.4048 828.4048 828.9333 828.9333
   829.0295 829.5221 829.5221 830.1045 830.1045 830.1081 830.8099 831.4758
   831.4758 831.7095 832.8430 832.8430 833.1657 834.3409 834.3409 835.5220
   836.7227 836.7227 836.7330 839.3468 839.4767 839.4767 841.0309 841.0309
   841.2281 842.0495 842.4862 842.4862 842.7159 849.6632 849.6632 850.2305
   850.6122 850.6122 850.6653 854.4301 854.4301 855.5765 855.5765 856.1133
   856.1333 856.1333 856.2980 857.1356 857.2154 857.2154 857.6552 857.6552
   858.6090 858.6090 858.6868 858.6962 859.4282 859.4282 859.7899 861.1706
   861.6477 861.6477 861.9497 862.3154 862.3154 862.4637 862.4637 862.5789
   862.6908 862.6908 862.7524 862.7804 865.4427 866.0668 866.0668 867.1788
   867.1788 867.5105 868.2277 868.2277 868.2975 869.5248 869.5248 873.7528
   873.7528 874.0189 874.0189 874.2358 874.9068 874.9068 874.9366 875.2116
   876.4845 876.4845 878.4996 878.4996 878.5810 878.9819 880.2423 880.2423
   880.8014 882.6645 882.6645 883.1000 885.2304 885.2304 885.3837 885.4965
   885.4965 885.5143 886.3846 886.3846 886.6289 886.9110 886.9110 886.9153
   890.0050 890.0050 890.0327 890.9399 890.9399 891.3508 892.1084 892.1084
   892.1669 893.4612 893.4612 893.5497 893.8260 893.9768 893.9768 894.3398
   894.3398 894.3480 896.0074 896.0074 896.2084 900.0574 900.0574 900.2184
   900.3040 900.3040 900.3824 901.7156 901.7156 902.7310 907.1635 907.1635
   907.4251 908.3342 908.3342 908.4143 911.3166 911.3166 911.5074 911.5928
   911.6028 911.6028 915.8830 916.4511 917.6955 917.6955 917.7798 918.2631
   918.2631 918.3334 918.3334 919.0413 919.4335 919.7720 919.7720 923.8990
   923.8990 924.0260 924.8508 924.8508 925.8706 926.2277 926.2277 926.3668
   926.4276 926.4283 926.4283 929.2190 929.2190 929.8951 929.9554 929.9554

          k = 0.5000-0.5000 0.5000 (  2452 PWs)   bands (ev):

   -63.3875 -30.2512 -30.1707 -30.1707  -6.9962   4.2784   8.2687   8.2687
    16.9388  21.6861  25.4393  25.4393  30.1060  31.6934  31.6934  37.7785
    40.0922  40.0922  42.1029  42.1029  51.8648  53.5314  56.1495  56.1495
    59.5200  60.1144  60.1144  62.5771  67.2227  67.2227  68.8430  70.2777
    70.2777  71.9496  73.4873  76.4269  77.5957  77.5957  81.8417  81.8417
    88.0151  88.5115  90.3041  90.3041  90.7552  90.7552  92.1565 100.9318
   100.9318 101.8366 101.8366 102.9972 108.0070 108.4185 110.7960 110.7960
   114.0641 114.0641 117.6379 117.6379 118.1930 118.1930 119.1326 121.6739
   121.6739 121.8103 121.8103 123.0244 123.7625 123.9711 128.8853 128.8853
   130.6162 132.8449 137.9230 137.9230 140.6052 140.6052 140.6125 140.6125
   142.7944 144.4017 145.7863 147.8771 147.8771 152.1019 152.1019 152.7841
   155.7252 155.9872 158.2847 159.1281 159.1281 159.4440 159.4440 160.7344
   166.6121 166.6121 167.3701 167.3701 168.1629 172.5870 174.0958 174.0958
   174.1803 174.1803 174.3451 174.4447 181.4558 182.5064 182.5064 182.8550
   182.8550 183.6465 187.2551 187.2551 187.6929 187.6929 189.6442 189.8167
   190.3882 192.1242 196.9594 196.9594 199.0655 199.0655 201.3043 201.3043
   202.8307 202.8307 203.1102 204.6245 204.7824 206.2526 206.2526 206.7030
   206.7030 206.7137 207.7135 212.6257 214.0513 214.0513 214.0542 214.0542
   216.1604 220.0327 223.3713 223.3713 223.4758 223.4758 224.9406 224.9406
   225.2666 225.2666 226.2072 226.2110 230.1628 230.1628 232.3913 232.3913
   235.7695 236.9712 238.1064 238.1064 239.2878 239.2878 241.8818 241.8818
   242.3144 242.3482 242.5548 242.5548 243.4579 251.3306 251.4926 251.4926
   252.1616 252.1616 255.1366 256.2300 263.0267 263.0267 263.3767 263.9043
   264.7228 265.1098 265.1098 266.8075 266.8075 267.6265 268.1521 269.8158
   269.8158 269.8990 269.8990 270.9238 270.9238 271.3186 271.6217 274.8083
   274.8083 274.8714 274.8714 275.0860 275.2425 275.9477 275.9477 275.9905
   275.9905 280.4170 286.6857 286.6857 287.3161 287.3161 288.4704 288.4929
   289.5290 290.9609 292.2400 292.2400 292.2643 292.2643 293.2386 293.2386
   293.4075 293.4075 293.7453 293.8763 297.3978 297.3978 299.3228 299.3228
   302.1030 303.4201 304.7103 305.3262 307.9570 307.9570 308.1360 308.1360
   308.2323 308.6001 314.8340 314.8340 316.1850 316.1850 316.5429 318.1933
   322.7681 322.7681 323.6395 323.9317 323.9317 325.0912 325.0912 325.1114
   325.1114 325.3857 325.4221 326.1571 327.2641 327.2641 327.3603 327.3603
   327.5364 327.8799 330.6539 333.3536 334.4750 334.4750 334.9819 334.9819
   341.6760 341.7737 341.7737 344.2616 344.2616 345.8108 348.3162 348.3162
   348.8814 348.8814 352.5627 356.4518 357.0214 357.0214 357.5421 357.5421
   359.4141 359.4844 359.4844 359.5449 359.5449 359.7096 359.7462 359.9208
   359.9208 359.9509 359.9509 360.8005 360.8436 364.0186 368.0849 368.0849
   368.9503 369.0739 369.4841 369.4841 373.2731 374.1351 374.3033 374.4506
   374.4506 374.5245 374.5245 374.7944 374.7944 374.9035 374.9035 376.3297
   376.8079 376.8079 376.8825 376.9215 376.9215 377.0543 379.8141 379.8141
   379.8178 379.8178 380.5105 381.5475 381.5516 387.0393 393.8624 393.8624
   394.4273 394.4273 394.7283 394.7283 394.8087 394.8087 394.9069 395.1820
   401.1225 401.1225 401.5163 402.1463 402.1463 402.5010 403.8770 403.8770
   404.4856 404.4856 408.1416 408.7021 408.7021 410.1492 410.1492 410.4572
   410.4710 410.8668 411.5048 411.5048 411.5499 411.5499 412.1911 412.4332
   416.0295 416.0295 416.1110 416.1110 419.7442 419.7442 419.7885 422.4959
   423.5978 423.5978 424.0670 426.3004 426.8115 427.2070 427.2070 427.2544
   427.2544 428.2087 428.2087 428.2538 428.2538 428.3604 428.4344 431.5955
   441.0420 441.0420 441.2961 441.8869 441.8869 441.8935 442.4648 442.4648
   443.7478 443.7478 444.7524 444.7524 444.7620 444.8935 445.0894 445.0894
   445.2985 445.7202 448.4501 450.9043 454.4859 454.4859 456.2672 456.2672
   456.8602 457.4124 458.5447 458.7574 458.7574 458.7668 458.8834 458.8834
   459.4601 459.5803 459.8693 459.8693 460.0645 460.0645 460.8643 460.8643
   462.4211 462.4211 464.7879 464.7879 465.0754 465.0754 468.5672 473.1046
   473.6308 473.6308 473.9247 473.9247 474.0196 475.1792 475.9983 475.9983
   476.6980 476.6980 477.0402 480.8537 480.8871 480.8871 480.9741 480.9741
   481.0398 481.9685 482.6405 482.6678 482.6678 482.7535 482.7535 482.8649
   489.0685 490.7222 490.7222 491.1245 491.1245 491.9095 495.5043 495.5043
   495.6502 495.6502 496.6299 496.6438 502.3107 502.7053 505.0395 505.0395
   505.5053 505.5053 507.1611 507.1611 509.1253 509.9614 509.9614 510.3310
   511.8206 511.8206 511.9580 511.9841 511.9841 512.1647 512.5522 513.7955
   514.3724 514.3724 514.4115 514.4115 514.5427 514.5458 516.9074 516.9074
   517.6047 519.8576 519.8576 520.0036 520.4356 520.4356 520.4613 520.4613
   523.1181 523.1181 523.2376 523.2376 524.3604 524.4032 526.8482 527.9497
   529.2314 529.2704 529.8964 530.1962 530.1962 530.2864 530.2864 530.5636
   530.5636 530.6935 530.6935 530.7760 530.7760 530.7868 530.7868 531.4417
   531.4444 532.4813 532.4813 532.5276 532.5276 532.8511 532.9121 535.5895
   544.7703 544.7703 544.9828 544.9828 545.2480 545.2496 546.8419 546.8419
   547.3662 547.3662 547.5723 547.5723 547.6330 547.6330 547.6507 547.6545
   547.9493 549.3631 550.2956 550.2956 550.3393 550.3393 550.4458 550.4737
   560.7221 560.7221 561.1642 561.8148 561.8148 562.7768 563.0725 563.0725
   563.0965 563.0965 563.5389 564.0618 569.0799 569.6885 574.8252 574.8252
   574.9095 575.5647 575.5647 576.4801 576.4801 577.3725 577.7461 577.7461
   578.3732 578.3732 578.7540 578.7540 578.8883 578.8883 578.9775 578.9970
   579.0072 579.0072 581.0968 581.7178 584.2114 584.2114 584.2248 584.2248
   586.3719 586.3722 590.5322 590.5322 591.4414 593.1776 593.5662 593.5662
   596.1294 596.1294 596.1357 596.1357 596.5291 596.6969 597.1683 597.1683
   598.7422 598.7422 601.9037 601.9037 601.9091 601.9091 602.2575 602.2585
   603.0508 605.7374 605.7379 606.2479 606.2479 606.7179 606.7179 607.5914
   608.0317 609.5338 609.5338 611.1017 611.3074 611.3074 611.9652 615.9984
   618.1314 618.1314 618.1369 618.1369 625.7568 625.7568 625.7925 625.8169
   625.8169 626.7053 626.7053 626.8669 628.3161 628.3161 628.8218 628.8714
   628.9351 628.9351 629.8890 629.8890 630.2727 630.4253 630.4253 630.4451
   630.5873 630.5873 632.4774 632.5434 632.8835 632.9198 632.9198 632.9655
   632.9655 633.0399 633.1159 633.1159 633.4500 633.4500 633.6254 633.6406
   633.7678 633.7678 633.8051 634.0274 634.0274 634.6836 635.1992 635.1992
   635.2105 635.2105 635.4885 635.5334 643.6143 643.6143 645.2027 645.2027
   646.3443 646.4824 646.4824 646.6561 646.8706 646.8944 646.8944 647.0005
   651.0054 651.0054 651.1417 651.1417 651.2499 651.3233 657.7003 658.1150
   658.1150 658.7251 658.7251 659.7742 664.2690 664.2690 664.6183 664.6183
   664.6538 665.4078 665.6308 665.6945 665.6945 665.7597 665.7597 666.0766
   666.5371 666.5371 666.8610 666.8610 667.1547 667.1547 667.1894 667.2385
   667.6555 667.6555 668.0048 668.0048 668.0990 668.1095 668.1095 668.1264
   668.1695 669.0931 679.5604 679.8722 679.8722 680.3291 680.7897 680.7897
   681.2001 681.4332 682.5269 682.5269 682.5631 682.5631 683.8305 683.8305
   684.0987 684.0987 684.2833 684.2833 684.3160 684.3160 684.3407 684.3457
   684.6775 685.1852 687.9196 690.0849 695.3814 695.3814 695.9674 695.9674
   696.7627 697.4587 702.4774 702.4774 702.5692 702.5692 703.7446 703.7585
   703.7585 703.8579 703.8579 703.8858 706.8239 706.8239 709.4536 709.4536
   710.1575 710.3793 711.0278 711.0278 711.0548 711.0548 711.6883 711.9409
   714.9071 714.9538 714.9538 714.9625 715.0330 715.0621 715.0621 715.1135
   715.1135 715.1364 715.1492 715.1492 717.6212 717.6212 717.6584 717.6584
   717.8915 718.2206 720.3800 720.3800 720.3819 720.4692 720.4692 720.4937
   722.2426 722.2426 723.2348 723.2348 724.2018 725.3210 733.1686 733.1686
   733.3658 733.3658 733.4434 733.5781 734.7628 734.7628 735.0322 735.1866
   735.1866 735.5537 735.5586 735.5586 735.5926 735.5926 736.0516 736.0591
   738.8990 738.9032 738.9032 738.9304 738.9304 738.9338 747.9160 747.9160
   748.2308 748.5361 749.5803 749.5803 750.0832 750.0832 750.2163 750.2163
   750.4470 750.8171 750.8171 750.8602 750.8602 750.8910 751.1006 751.1641
   753.8592 753.8592 754.3522 754.3522 755.0305 755.7710 755.7736 755.9162
   755.9162 756.0661 756.2698 756.2698 764.7312 764.7312 765.9980 766.2838
   766.2838 766.3361 766.8509 767.4473 767.4473 767.4477 767.5374 767.5374
   767.5410 767.5771 768.0614 768.1105 768.1105 768.1111 768.1111 768.9139
   778.5488 778.5488 779.3229 779.3229 779.5911 779.7579 781.1370 781.1370
   781.3789 781.4484 781.4552 781.4552 782.0205 782.0205 782.2486 782.2486
   782.7514 782.7514 782.8985 782.8985 783.3075 783.3089 783.4194 783.4194
   783.4556 783.4736 783.4736 783.4918 783.6458 783.7718 786.9104 786.9549
   787.3949 787.3949 787.4291 787.4291 788.9191 788.9191 788.9236 788.9458
   788.9458 788.9822 789.3672 789.3672 789.4255 789.4255 789.5364 789.5890
   803.5206 803.5585 803.5585 803.8200 803.8200 803.8697 804.6531 804.6531
   804.6671 804.6961 804.6961 804.6992 804.8644 804.9094 804.9094 804.9101
   804.9101 804.9342 810.0007 810.0007 811.2270 811.2270 812.3926 813.4234
   817.2093 817.2093 817.7519 817.7519 818.1908 818.4814 819.2554 819.2554
   819.9987 820.0433 820.0720 820.0720 820.2250 820.2250 820.3299 820.3461
   820.3461 820.3810 820.4966 820.4966 820.5041 820.6286 820.6286 820.6745
   825.6375 825.7474 828.5241 828.7236 828.7236 829.0210 829.0210 829.9025
   831.9495 831.9495 832.0540 832.0540 832.0820 832.0820 832.5025 832.5973
   833.6231 833.7273 833.7273 834.5388 834.5388 834.5905 834.5905 834.6097
   838.1286 838.1286 838.1472 838.1472 838.2262 838.2262 838.2306 838.2398
   838.2463 838.2463 838.2697 838.3987 839.8401 839.8401 839.8523 839.8523
   840.6340 840.6341 841.2960 841.2960 841.2988 841.2988 843.0295 843.0297
   853.2657 853.2657 854.1428 854.2718 854.2718 854.5999 854.7281 854.7281
   854.9157 854.9157 854.9987 855.1088 864.8918 864.8918 865.2438 866.4479
   866.5125 866.5125 866.6493 866.6493 867.3242 867.3242 867.4619 867.5238
   867.8528 867.8528 868.1642 868.1642 868.2986 868.5793 868.5793 868.7168
   868.7168 869.0666 869.1030 869.1170 869.2135 869.3753 869.4198 869.4198
   869.4998 869.4998 870.7368 870.7368 871.0553 871.0553 871.0754 871.2479
   878.5609 878.9253 884.9478 884.9478 885.7322 885.8825 885.8825 885.9312
   886.8617 886.8617 886.8722 886.8913 886.8913 886.9431 886.9431 886.9791
   887.0331 887.0331 887.0809 887.5220 887.9955 888.0075 888.0075 888.1794
   888.1794 888.2872 888.7626 888.7626 888.7768 888.7768 888.8079 888.8358
   889.5133 889.5133 889.8599 889.8599 889.9982 890.0615 890.5874 890.5874
   890.6096 890.6096 890.6116 890.6175 891.4270 891.4270 891.4328 891.4328
   892.7271 892.7271 892.7336 892.7336 892.8550 892.8586 899.7493 899.7493
   900.3809 900.3966 900.3966 900.5501 907.8761 907.8910 907.8910 907.9041
   907.9041 907.9302 921.0772 921.0772 921.5128 921.5160 921.5631 921.5631
   921.5947 921.5947 921.8354 921.8354 921.8658 921.8658 921.8711 921.8735
   922.6683 922.6683 922.8166 922.8166 922.8584 922.8622 922.8977 922.9013
   922.9013 922.9992 925.2571 925.2571 925.7647 925.9877 925.9877 926.1332

          k = 0.0000 0.2500 0.0000 (  2421 PWs)   bands (ev):

   -63.3949 -30.1740 -30.1659 -30.1659  -8.1195   7.8972   8.6934   8.6934
    15.0216  22.6711  25.4237  25.4237  28.0317  31.2198  32.0347  34.2913
    34.2913  35.7562  45.7291  46.8962  46.8962  51.0744  57.4702  57.4702
    57.9014  60.0624  65.4938  70.1673  70.1673  70.3451  73.5926  73.9657
    75.5952  77.1792  77.1792  80.6330  81.2364  81.2364  82.1049  84.8392
    87.4091  87.4091  88.7901  88.7901  89.2192  90.4886  92.7564  92.7613
    95.8335  95.8335  96.0850  96.3358  98.6485  98.6485  99.8132 103.3884
   103.3884 105.6084 107.1147 109.1373 109.4815 109.4815 115.3927 119.9140
   119.9140 122.2500 126.6435 126.9438 139.6732 139.6732 140.0090 140.0216
   140.5065 140.5065 140.6823 147.5634 149.0847 149.0847 149.6727 149.6727
   149.7035 150.3554 150.8045 151.1353 155.1962 155.2982 155.2982 155.7779
   156.1440 158.2541 158.2541 161.6067 163.5218 163.6282 164.4956 164.4956
   165.0188 166.2213 166.2213 166.4108 166.5381 167.5278 171.0608 171.0608
   173.0217 173.6065 175.1824 175.1824 175.2470 176.4431 177.2662 177.7158
   177.7158 180.4904 181.4504 181.4504 183.5475 183.7204 183.7204 186.7716
   189.3716 189.3716 190.3017 190.3107 192.9949 193.7147 193.7147 194.3562
   199.7135 199.7135 200.7121 201.9968 202.3982 204.1823 204.1823 204.1863
   208.9762 210.0691 210.5663 210.5663 211.2723 211.7610 211.7610 212.1614
   212.2130 215.5180 217.4893 217.4893 218.3582 222.5414 223.1415 223.1415
   223.3654 224.5402 225.6423 225.6423 226.5347 226.9228 232.8242 233.1020
   233.1020 235.1528 236.5588 236.5588 237.2029 237.2029 237.4125 237.8404
   237.9488 246.9514 247.7179 247.7179 252.5305 252.5305 254.2813 254.2813
   254.3142 254.5519 260.6692 260.8672 264.4702 264.6785 268.2444 268.2444
   272.3489 273.3250 273.3250 273.7039 274.4470 275.5937 276.1721 276.1774
   276.1774 277.0396 277.0396 278.7888 278.7888 278.8301 279.0252 279.8158
   282.3277 283.9808 284.6965 284.9639 284.9639 285.7025 286.5148 286.6154
   286.6154 288.2937 288.9126 288.9841 288.9841 289.2587 289.2587 290.5072
   291.6299 291.6299 291.6392 292.0450 294.2721 295.0257 295.0286 295.0286
   295.1281 296.8647 298.6247 298.6764 298.6764 299.0567 300.5825 301.2149
   301.8931 301.8931 303.0296 304.3769 304.3769 304.9673 306.2157 308.3615
   308.3615 308.7764 308.7764 310.6988 311.3245 311.5371 311.5371 311.5830
   313.6691 314.0385 314.6957 317.0371 317.0371 317.1836 318.7834 320.2060
   320.2060 320.5077 320.5245 321.1866 321.1866 321.5438 322.1621 322.1621
   322.6523 323.2028 327.8955 331.4179 331.4179 332.6258 332.6258 333.3332
   333.6753 333.9050 333.9050 334.0674 334.2776 335.3424 337.6519 342.7022
   343.6304 343.6304 344.2876 344.2876 344.4112 345.3181 345.7114 346.2481
   346.2481 347.1770 347.5669 350.6408 350.9016 350.9016 351.3797 352.0949
   358.0809 358.0809 359.4550 359.4550 361.3702 361.4573 362.1267 362.1630
   362.1630 362.3573 362.3573 362.7514 364.4911 365.9439 366.3651 375.1969
   375.1969 375.4413 375.7751 376.1253 376.1253 376.7001 378.1200 378.5636
   378.7663 379.2924 379.2924 379.7215 382.5121 383.3967 383.3967 383.4450
   383.4450 383.7821 385.1710 386.6309 388.1335 388.1335 393.6792 394.9844
   394.9844 396.5822 396.6122 398.4364 399.2978 399.2978 402.4708 402.4708
   404.7360 405.0915 405.7135 405.7135 408.0049 408.0830 412.8308 412.9270
   413.3635 413.3635 413.9105 414.8526 414.8526 415.9999 417.6180 417.6180
   418.7467 418.9588 419.6874 419.6874 419.9259 420.1177 422.7590 426.2977
   426.2977 428.7161 429.1582 429.4854 429.4854 429.7620 429.7781 430.6651
   430.6651 431.1884 432.0511 435.3319 435.9084 435.9259 435.9259 436.7925
   438.8408 439.1842 439.1842 439.4301 439.5834 439.5834 439.8162 440.2591
   440.2591 440.2784 440.3120 441.0602 441.0602 441.4261 441.8766 443.6907
   446.9052 446.9052 448.5010 449.0684 449.0684 449.4863 449.6117 450.1932
   453.5394 453.5394 454.4451 455.4802 455.6389 455.6389 455.7632 455.8447
   456.0147 456.0147 456.3142 456.3142 456.4088 456.6620 458.9982 461.1869
   461.1869 461.7266 462.6249 462.6249 462.8930 462.8930 463.0900 463.6698
   464.1889 465.6229 465.6229 465.8027 466.3281 467.6145 467.6788 467.6788
   467.7833 468.0113 472.0493 472.9548 473.6700 473.6700 473.9216 473.9827
   473.9827 475.0298 475.6503 475.9372 475.9372 478.2620 479.4352 480.0529
   480.1421 480.1421 481.2659 482.2932 482.3202 482.3202 482.7698 483.2817
   483.2817 483.5546 486.1007 487.1155 487.4571 487.9123 487.9123 488.2073
   488.2073 488.5161 488.5161 488.6691 489.0526 489.8084 490.0847 490.4711
   490.4711 490.8661 492.3541 492.6649 492.6649 493.0175 493.4900 494.2996
   496.3332 496.3332 496.8245 497.5839 497.7916 497.7916 500.3221 501.4919
   501.5551 501.9508 501.9508 502.3781 503.3210 503.3210 503.6617 504.5660
   507.3395 507.3395 507.6827 507.7581 507.9535 507.9535 508.0844 509.8958
   512.8294 515.5834 515.5834 516.4430 516.5930 516.7574 516.7574 518.4368
   520.5085 521.4326 521.4326 521.8362 522.0316 522.0316 522.7194 523.1826
   523.1826 526.5855 528.1959 528.6407 531.6538 534.3870 534.3870 534.6142
   534.6142 535.5242 535.6731 535.8956 537.1444 537.2666 537.2666 542.4698
   542.4698 543.0973 543.9952 545.3997 549.8808 549.8808 552.0857 552.3752
   552.9925 552.9925 553.3792 554.0534 554.8448 554.8448 556.1595 556.2560
   558.8454 559.1493 559.1493 560.6047 561.2096 562.1281 562.1281 563.2219
   566.2143 569.8673 569.8673 570.6783 571.8995 571.9908 572.5341 572.5341
   572.7272 574.2434 574.2434 575.2686 575.2686 575.6188 576.4215 577.2550
   577.4716 578.2611 578.4764 578.6438 578.6438 578.9688 578.9688 579.0339
   579.2517 580.9388 580.9388 583.3748 583.5297 583.8077 584.0826 584.0826
   586.8932 589.2326 589.2326 590.1836 592.5097 594.5887 594.6296 594.6296
   594.7979 594.7979 594.8201 595.7022 595.8002 598.3921 598.9188 598.9188
   600.3903 600.6131 600.6131 600.6509 601.3632 601.3632 601.6247 601.6826
   602.5796 602.9000 604.3404 604.3404 604.7522 606.2313 606.3104 606.3104
   607.3284 607.3592 607.3592 608.4669 608.5276 608.8481 608.8481 610.2020
   611.2161 611.2161 612.0039 612.4501 613.7313 614.7536 614.7536 615.1078
   616.5872 616.5872 616.7903 616.9333 616.9333 617.1162 617.2609 617.8518
   617.8518 618.1133 618.2328 618.4099 618.4682 618.4682 618.5420 619.5761
   619.6045 619.6045 619.6365 620.1051 622.0651 629.2362 629.2362 629.6350
   630.0276 630.8642 630.8642 631.0301 631.0631 633.7564 633.7564 634.2750
   634.4952 635.4183 638.2813 638.2813 639.1633 639.1772 639.9420 640.3522
   640.3522 640.9405 640.9405 641.9850 642.6269 643.3024 643.5173 643.5695
   643.5695 643.6594 643.6594 643.8247 644.6908 647.1289 650.2172 650.2172
   650.9586 651.8839 653.2239 654.0522 654.0522 655.1445 656.5801 656.5801
   657.2738 658.3281 658.8062 659.6346 659.6346 660.2747 661.2477 661.4042
   661.4042 661.5372 663.3052 663.3052 666.2784 666.2784 666.3998 666.7472
   667.4461 667.4461 667.8108 667.8145 668.4675 669.0088 669.0088 669.2965
   670.5003 670.7541 670.7541 671.1590 671.3936 671.3936 673.0476 673.1320
   673.1320 673.2888 673.5116 674.0287 674.0287 674.1342 674.3728 674.4377
   674.5401 674.5401 674.6421 675.0679 675.1899 675.1899 676.9924 677.6594
   679.5254 680.1461 680.1461 680.4932 680.6068 681.1314 681.1314 681.5055
   682.2143 682.3626 682.3626 682.5806 683.4210 688.5192 688.5192 688.6398
   688.8843 690.8379 690.8379 691.0881 691.7302 692.0001 692.0001 692.9980
   693.1294 693.5837 693.5837 693.6533 694.1175 694.1175 694.1453 694.1917
   694.6849 702.5187 702.5187 702.6036 702.6541 703.6816 703.6816 704.0214
   704.1889 704.7961 704.7961 704.9754 704.9793 704.9793 705.0034 705.1584
   705.1941 706.8456 708.3879 708.3879 708.4855 708.4855 708.7448 710.1241
   710.8664 712.1901 712.8177 712.8177 713.2721 713.4386 713.6852 713.6852
   713.9536 714.5854 716.7402 716.8365 716.8365 716.9654 717.0615 717.0615
   718.0722 719.5691 719.5691 719.6640 719.6709 720.1947 720.8089 722.0107
   722.0107 722.5262 723.1259 723.2401 723.2401 723.3870 723.7605 723.9745
   723.9745 724.6196 724.8512 724.8512 725.0919 729.3240 729.3240 729.5348
   729.7290 729.9358 729.9358 730.0085 730.1867 730.3149 730.4406 730.4406
   730.6153 730.9525 730.9534 730.9534 731.2914 731.4706 736.4049 736.7063
   736.7659 736.7659 736.8329 739.4902 739.4902 740.8605 741.2026 741.4721
   741.4721 742.2292 743.3230 743.3230 747.3536 747.3536 748.8736 748.9269
   749.4759 749.4759 749.9948 750.2083 750.9019 757.3347 757.3347 757.9905
   758.2674 759.6276 759.6276 759.8744 760.0314 762.2453 762.2453 763.1244
   764.2850 766.2354 766.2705 766.2705 766.3585 770.1368 770.3162 770.3162
   770.3987 773.7102 773.7102 774.0217 774.2031 774.3435 774.4586 774.4586
   774.6016 777.8192 777.9629 777.9629 777.9771 778.0359 778.2666 778.2666
   779.0116 781.2788 781.3206 781.3206 781.3787 790.4344 790.4344 790.4361
   790.4430 790.9767 793.4843 793.4843 793.9774 793.9855 793.9855 795.1932
   795.1973 795.8449 796.1233 796.1233 796.4641 798.4558 798.5560 799.0705
   800.7907 800.7907 801.4631 801.4631 801.9788 804.4553 804.4553 804.9965
   805.8128 807.6676 807.6676 807.8540 807.9526 808.4783 813.3175 815.1713
   815.4285 815.4285 815.6360 815.8353 815.8353 816.3647 816.4389 816.4389
   816.6737 817.8174 820.5788 820.5898 820.5898 820.7474 821.1502 821.1502
   821.5582 821.6194 825.2839 825.2839 825.8200 825.8636 825.8636 826.8663
   827.1034 827.2950 827.2950 827.4799 828.1640 828.7856 828.8005 828.8005
   829.2235 829.7276 829.9200 830.3198 830.3198 830.6176 831.0609 834.5588
   834.5588 836.8039 837.7023 837.7023 837.9708 838.9063 839.1084 839.1084
   839.7403 844.3231 844.3231 844.5895 844.7120 845.2276 845.6690 846.5154
   846.5154 846.7792 846.7792 846.9626 847.3431 847.5380 847.8148 847.9644
   847.9644 848.3131 848.8802 848.8802 849.4292 850.0588 850.1650 850.1650
   850.1953 850.2214 850.5570 851.2994 851.2994 851.7035 854.7422 855.3061
   855.3061 855.7354 857.3827 857.3882 857.3882 857.6086 858.4118 858.4605
   858.4657 858.4727 858.4727 859.1034 859.1034 859.3492 860.8183 860.8183
   861.2725 862.0041 864.4051 864.5786 864.5786 864.7618 866.5604 866.5604
   866.7504 867.4261 869.5103 869.5103 869.8094 870.1028 870.2203 870.2203
   870.4346 870.8546 871.0549 871.3127 871.3127 871.7102 873.3905 873.7919
   874.3199 874.3199 874.4364 874.4364 875.0498 875.0540 875.0540 875.4213
   875.4776 875.4776 875.5231 875.5521 875.6142 875.7134 877.1201 877.3423
   877.3423 877.5308 877.6797 878.2664 878.3618 878.4704 878.4704 878.5911
   878.5911 878.8808 878.9052 879.8991 879.8991 880.1809 880.5409 880.5822
   880.7039 880.7039 880.8245 881.4702 881.4702 881.5602 881.6664 881.6778
   881.6778 881.8726 882.7535 887.3798 887.3798 887.5439 887.6951 889.1248
   889.1248 889.2766 889.5703 891.2626 891.2626 891.3617 891.4053 891.7300
   891.7300 892.2129 892.7318 892.8485 892.8485 893.0486 893.1261 894.3838
   894.4048 894.4048 894.4246 899.4540 899.4540 899.5208 899.5213 900.1878
   900.1878 900.4047 900.8504 906.3986 906.3986 906.5086 906.8865 907.1223
   907.5011 907.5011 907.7121 908.2429 908.2429 908.4645 908.7543 909.5022
   909.5045 909.5045 909.5135 913.9139 913.9139 913.9430 914.0820 914.5293
   915.3057 915.3182 915.3182 915.3558 916.8640 916.8640 917.8227 917.8788
   918.4187 918.4693 918.4693 918.6857 920.5297 920.5297 920.9615 921.0526

          k =-0.1250 0.3750-0.1250 (  2435 PWs)   bands (ev):

   -63.3923 -30.1973 -30.1703 -30.1686  -7.7732   6.6603   8.4384   8.4440
    16.3152  21.3157  25.5009  25.9469  27.1976  31.1331  33.2295  36.4824
    36.5812  37.5560  43.7824  45.5100  47.4587  52.5401  53.3223  55.1631
    58.6582  61.5543  64.9727  68.8752  71.0327  71.1961  72.2061  73.6620
    73.8398  75.5644  77.0571  77.6797  79.4701  80.5118  82.1143  82.6547
    82.9147  85.9072  86.2506  87.4855  90.9475  93.1264  93.3626  94.9717
    95.4040  96.2201  96.7017  98.9674  99.0791 104.7497 105.9813 109.1623
   109.3730 109.8014 110.2191 111.8249 112.4013 115.0358 116.3996 117.5211
   119.3621 123.8181 125.4330 127.6103 131.8061 134.4757 134.7356 135.5787
   137.4119 139.3013 139.7048 140.5757 142.5634 143.4842 145.1136 145.8349
   146.2763 148.1101 150.4389 150.9178 151.5521 151.7847 154.9144 155.0686
   156.8286 157.3082 159.8340 160.2938 162.0860 163.2046 166.1470 166.1523
   166.5203 168.0965 168.3866 168.9982 169.1907 171.2639 172.3748 173.7884
   174.0357 175.0836 175.6525 177.2951 177.7401 178.0915 179.2342 179.2971
   180.8468 182.2199 183.1792 183.4778 183.5135 184.3020 186.2121 187.7484
   188.7424 190.2973 192.4002 192.4964 192.8927 193.9622 194.2908 194.9789
   195.9824 198.2102 198.3944 201.0346 202.3582 202.4537 203.2423 203.4591
   204.5348 205.6232 209.1651 209.6551 212.7138 212.8584 214.1844 216.8695
   217.2798 217.6041 217.7799 218.1661 218.4008 223.1972 225.4526 226.3360
   226.6713 227.0092 227.4059 228.3456 228.6199 231.2381 233.4082 234.1752
   234.3391 235.5591 236.1780 238.2155 241.5626 242.7404 243.1558 244.2379
   244.2553 246.3616 248.2447 249.0462 249.6155 252.1511 252.8535 254.6800
   257.3115 257.9933 258.1441 258.5596 259.1776 259.3505 261.2484 262.4278
   262.9720 263.3807 266.1359 266.4712 267.1886 267.6151 269.0922 269.4495
   270.1454 271.3947 272.0073 273.0420 273.9002 274.7127 275.4798 276.1472
   278.2949 279.1091 279.7859 280.5022 280.7575 280.8903 282.7553 283.9362
   284.2474 285.7000 287.1590 287.7254 289.2483 289.8186 289.9171 290.5141
   290.9849 291.9082 292.1502 292.5143 294.1012 294.2450 294.6818 295.1556
   297.5591 298.2208 298.2965 299.7730 302.2838 303.2843 303.8467 304.1565
   304.9568 306.1900 307.0816 307.5356 308.0714 308.1027 308.3439 308.7505
   310.2650 310.5957 312.0633 312.1855 313.1463 315.9587 316.4319 316.9291
   317.1905 318.2140 319.4824 321.2059 321.3484 323.1247 323.3007 323.4968
   323.5043 324.3998 324.8639 325.0208 325.6570 326.3851 326.9940 328.5618
   329.2028 329.3471 329.4137 330.0293 330.0792 331.3259 332.9483 333.0883
   333.6423 333.9043 335.4291 336.2802 336.6907 337.0211 337.4464 337.8187
   339.4133 339.7331 340.1098 340.3998 341.7654 342.6322 342.8264 343.8464
   345.0496 347.2981 347.6033 349.2971 349.3036 350.9918 351.5971 353.3461
   355.6844 359.5350 360.1519 361.4745 361.7639 362.3450 363.2429 364.3995
   365.1555 365.4558 367.0003 368.4865 368.5137 370.7651 372.3869 373.6914
   373.8041 373.8260 374.3901 374.8682 375.7751 375.8913 376.8521 379.9246
   381.0971 381.6140 382.5032 384.5483 385.4642 385.8294 385.9640 386.8046
   386.9344 388.0639 391.2388 391.4433 391.8353 392.8786 393.5715 393.6429
   394.0004 394.6808 395.4724 396.6508 397.3872 398.1310 399.2169 399.3896
   399.9348 400.4114 401.0509 401.7625 403.6264 403.8976 406.7796 407.6247
   408.4831 410.2357 411.1715 412.5819 413.0237 414.2060 414.4359 415.0097
   415.1399 416.4547 417.5196 417.8750 417.9563 418.4181 419.3108 419.4617
   420.8196 421.5366 423.3068 424.4242 424.5949 426.5634 427.9353 427.9434
   428.3131 428.9275 429.4539 430.3819 430.4798 431.3680 431.4505 436.3343
   437.6681 438.2093 438.4230 439.0308 439.3633 439.8340 439.8771 439.9897
   440.0170 440.7502 441.7469 441.7714 441.8415 441.9873 443.0983 443.3381
   443.3918 444.3545 445.6854 446.2640 447.6523 448.0497 449.3100 450.4527
   450.4888 451.2297 451.6591 452.4613 453.8571 454.4187 455.1251 455.4180
   456.6871 457.1057 457.3909 457.4184 457.5273 457.6009 457.9197 458.1721
   459.3441 459.7423 459.9070 460.3259 461.2413 461.2881 461.9437 463.2581
   464.1993 464.7048 465.3489 465.8989 466.4513 466.9144 467.0886 467.1531
   467.4365 468.0235 468.3100 469.3324 469.3793 470.1257 470.5949 470.9036
   472.6867 475.9294 476.3657 477.0711 477.3702 477.5453 477.5609 478.5403
   479.1649 479.6909 480.1321 480.6462 482.1337 482.1855 482.4375 482.8356
   483.6804 483.7023 484.8941 485.1243 485.3007 485.5791 485.7248 487.9639
   488.4193 489.9825 490.1029 490.7950 491.3633 493.0748 494.2330 495.4433
   496.1997 496.8549 496.9015 499.4773 499.4987 499.7931 500.5764 500.8580
   502.0345 502.6634 504.5359 504.9645 507.0246 507.6937 508.3603 508.4262
   508.9011 508.9307 509.2494 509.4875 510.6741 510.8498 511.2952 511.6353
   511.8313 514.0378 515.2387 516.6523 516.7686 516.8319 517.1192 517.3706
[...]
   494.8727 495.5826 496.3277 496.4661 497.1082 497.2904 497.9663 498.1208
   498.5619 500.4154 501.6343 504.1163 504.8235 506.6872 506.8170 507.7484
   507.9272 508.4568 510.1366 510.6947 511.1417 511.8515 512.2949 513.9150
   515.5082 516.8342 517.9774 518.5230 520.4259 520.9048 521.0118 521.1830
   523.3217 523.9050 524.2561 525.3335 528.3659 529.1079 529.2827 529.5290
   529.7046 530.1234 530.1488 530.4547 530.4889 531.3413 531.4224 532.0933
   532.4906 532.5895 532.6818 533.7873 534.1482 534.5899 535.2022 535.2581
   535.6709 535.9636 536.4213 536.7414 537.1787 538.8726 539.5312 539.5923
   540.4317 540.6815 540.8758 541.1400 541.9366 542.1766 542.2811 544.3082
   545.6004 546.4066 546.6899 548.3884 549.3964 549.6217 549.6237 549.9009
   549.9667 550.2212 552.7917 553.0391 553.6543 553.7089 553.8776 553.9539
   554.2436 555.1704 557.0855 557.1940 557.6724 557.6970 557.9748 558.2032
   559.8955 559.9310 561.7308 561.8383 563.6481 563.9897 564.4246 564.6051
   564.6583 564.7202 565.1149 565.3233 565.9293 566.9008 567.1101 568.2602
   568.3303 568.4747 568.8357 569.1204 571.3902 574.2455 574.8204 574.8953
   575.2027 575.7514 575.8038 576.1456 576.2461 576.3209 576.3691 576.6068
   576.8463 579.5416 579.5768 579.8729 580.1040 580.2856 580.2947 580.3079
   580.3520 580.7233 581.0788 581.0892 581.9049 582.8602 586.0859 587.0331
   588.1113 589.7092 590.1924 590.4801 590.6190 592.5841 593.3132 593.3418
   594.8382 595.6530 596.1767 596.6557 596.8882 597.0368 597.1986 597.2283
   599.2502 601.2666 601.2697 601.5511 602.1626 602.2934 602.5349 602.6027
   602.8550 603.6441 603.8600 606.7950 608.6898 610.0038 612.0176 612.1504
   612.1589 612.6789 612.6980 612.8991 614.0778 614.0855 614.0899 614.5298
   614.7407 614.8965 615.0828 615.1055 615.6076 615.9246 616.8001 617.6719
   617.9697 619.0576 621.0280 621.0590 622.1385 622.6148 622.8019 623.2696
   623.5449 623.7748 627.5065 628.5510 628.8442 629.5315 630.0715 630.1208
   630.4484 632.3991 632.5545 632.7796 633.0098 634.1330 634.3989 634.6444
   634.9093 636.0167 636.0472 636.1402 637.8496 638.0426 638.9900 639.5790
   640.5015 640.6715 640.7159 641.8853 642.6532 643.0571 643.6158 644.0794
   644.0881 644.1347 644.6089 645.1248 645.1258 647.6606 648.2673 649.2349
   649.4605 652.7552 652.9548 654.4944 655.3074 656.3537 656.5840 656.7506
   657.0778 657.2264 657.5249 657.7751 658.3157 658.8132 660.0858 660.6846
   660.8289 660.9666 662.7482 664.0465 664.0537 665.3196 665.4629 665.7532
   666.2327 667.8634 667.9809 669.5088 671.0766 672.1479 674.8519 674.8568
   675.7010 676.0427 676.7006 676.9230 677.1399 677.2127 677.9160 679.6012
   680.5400 680.6758 680.8035 681.1520 681.2320 681.4671 682.1004 683.1475
   685.0399 686.0924 686.3372 687.0990 687.1119 687.6475 690.3550 690.7921
   690.9007 691.8843 691.8985 691.9106 693.9617 694.7794 695.4502 696.1659
   699.6684 699.9231 700.2977 701.4424 701.6350 701.8940 702.3042 702.4213
   702.6460 704.4458 705.0533 705.3112 705.5675 706.4927 706.6163 706.8391
   707.4289 707.9050 707.9207 707.9338 708.9153 708.9717 711.7175 712.0818
   712.1022 712.1918 712.3826 712.6348 714.0386 714.1623 714.5519 715.1367
   715.2830 715.5096 716.5150 716.7792 718.2750 718.4038 718.5315 719.1392
   719.1647 719.2222 719.4462 720.7163 720.8841 721.4278 721.6460 721.7170
   722.2197 722.3268 722.4929 726.0801 726.1162 728.2620 728.3208 728.5033
   728.7913 728.8816 729.1441 730.4345 730.5251 730.5982 730.7474 733.0418
   733.4952 733.7924 734.4865 734.5863 734.5963 734.7069 735.6035 735.6370
   735.8039 735.9062 736.1194 736.3439 736.3757 737.5904 739.4153 740.6227
   741.1661 741.6457 741.9580 742.1398 743.2111 744.2213 744.5640 744.6852
   745.4811 745.8960 746.6630 746.6661 746.8451 747.0448 747.1194 747.3991
   747.5025 747.5298 748.2828 748.7189 749.9484 750.0463 750.9951 751.2821
   751.6101 752.1469 753.5173 753.9664 754.1117 754.1984 754.2882 755.0452
   755.2468 755.2673 757.3839 758.1372 758.2514 759.2937 760.5196 760.8211
   761.0615 761.5587 761.7812 762.0241 763.8243 763.8319 763.9842 763.9906
   764.4532 764.4689 766.3734 766.4917 766.9652 767.0291 769.5245 769.6915
   769.8419 769.8864 769.8891 770.4120 770.6412 770.6451 771.4920 771.9965
   772.9157 773.1622 776.3117 776.5163 776.7583 777.1072 779.8449 779.9578
   779.9606 780.0877 780.1537 780.6101 780.6285 781.2634 781.5690 781.5785
   782.1487 782.7920 783.0653 783.5238 784.8847 784.8871 785.0986 785.6290
   785.6626 785.6638 785.7733 785.9324 787.0417 787.7916 789.0954 789.3351
   789.9095 789.9249 792.5076 792.6410 793.2343 793.2606 793.4728 794.1853
   794.6003 794.6074 795.4228 796.0123 796.3720 797.1630 797.2747 797.3597
   797.9029 798.6732 798.6764 799.3117 799.4083 801.7942 802.6726 806.5259
   806.5645 807.3840 807.9536 808.0703 808.0815 808.1480 809.0076 809.0535
   810.0868 810.4515 810.4626 811.0969 811.1237 817.9450 818.5993 818.7918
   818.7978 819.2807 819.3827 819.5380 819.7950 820.0095 822.1456 822.3559
   822.3713 822.8292 822.9408 823.1460 823.1663 823.1963 825.3400 825.5638
   825.6454 826.1408 826.4735 826.5593 827.3063 827.5770 827.9469 828.0460
   828.1527 828.3031 833.2819 833.4816 834.6603 835.1509 835.3624 835.4594
   835.6658 835.9828 836.3072 836.3884 836.4082 836.5783 837.4399 837.4549
   838.4441 838.4624 838.5104 838.5219 838.7740 838.8043 839.3585 839.4166
   839.4615 840.2538 840.4991 840.5723 840.9759 840.9955 841.2471 841.7670
   842.1162 842.1770 843.1648 843.1859 844.9794 845.3961 845.5470 846.0368
   850.2614 850.3506 850.3963 850.4125 852.4084 853.5450 853.5685 853.8755
   853.9023 854.0167 855.3453 855.5902 855.6895 855.9730 856.0500 856.2785
   857.0491 857.0992 859.9478 860.6665 861.4545 861.4739 861.7350 862.1177
   862.2710 862.3767 862.6407 862.7939 863.0195 863.5555 865.0983 865.1187
   867.8586 867.8730 868.3826 868.8488 871.8125 872.4135 872.5077 872.6179
   872.7382 872.8136 872.8754 873.2058 874.2226 874.8096 874.9645 874.9945
   875.5698 875.5880 875.8537 875.8574 876.2188 876.2197 877.1211 877.3343
   879.4063 880.0360 880.9575 883.4034 883.4536 883.5362 883.5869 885.2758
   885.4903 885.6482 885.8430 886.2529 886.6114 887.5568 887.5626 888.1626
   888.1763 888.9812 889.2977 889.6751 889.6936 891.7844 892.4768 893.3202
   893.3607 894.8690 895.0967 895.2134 895.2628 895.7491 895.9009 897.2667
   897.2792 899.7186 900.0288 900.2148 900.2358 900.5566 900.6492 900.8859
   900.9837 904.2289 904.2818 904.3021 906.9561 907.2862 907.3723 907.4150
   909.8348 910.1084 910.7918 911.3981 911.6128 911.6202 911.7121 911.9657
   912.1232 912.1832 913.5950 913.6170 914.1993 914.2121 915.0672 915.5263
   916.6840 917.4929 919.0928 919.1345 920.0194 920.0659 921.9697 922.0759
   922.4405 922.6548 922.7083 922.8128 923.4720 923.5359 923.6718 924.1385
   924.6959 925.4220 927.4289 927.8481 927.8978 928.0824 928.6639 928.6811

          k =-0.5000-1.0000 0.0000 (  2400 PWs)   bands (ev):

   -63.3845 -30.2144 -30.2144 -30.1936  -6.7044   5.9604   5.9604   7.1478
    20.6847  20.6847  21.3092  24.6701  31.1217  31.1217  35.6805  38.2601
    41.0251  43.7189  46.8061  46.8061  48.8867  50.3476  50.3476  55.0898
    59.5375  59.5375  60.7830  60.8055  63.2877  63.2877  64.4557  66.4290
    69.1279  69.1279  69.1806  76.1331  82.7627  84.2597  84.2597  89.5809
    89.5809  91.8784  93.0515  93.2515  93.7940  94.0253  94.0253  94.2294
   101.2285 101.2285 101.9112 102.5802 105.5434 109.0275 110.6958 110.6958
   110.9187 112.0200 112.0200 117.2057 120.1717 120.1717 121.6016 121.6016
   122.7792 124.0788 124.5463 124.6660 126.5244 126.5244 128.6531 130.2987
   131.8971 133.2011 134.8630 134.8630 141.5782 141.5782 144.5238 144.6970
   145.4686 145.4686 146.3427 146.5393 146.7837 148.1484 150.0431 150.0431
   153.8379 153.8379 154.9834 154.9834 155.0379 156.4948 157.5067 157.5832
   162.0006 162.2510 162.5829 162.5829 163.3452 163.5483 165.8826 165.8826
   170.7599 172.7154 175.9599 175.9599 178.9675 178.9675 181.8373 181.8373
   182.5569 184.2273 194.5996 195.9701 195.9701 196.0681 196.2077 197.3399
   197.3399 197.6274 199.9757 202.0750 202.5574 203.7763 203.7763 204.8649
   205.6053 206.3125 206.3125 206.4352 208.0612 208.3320 208.3320 208.9485
   208.9485 209.3503 209.7113 213.4564 213.4564 214.8672 214.9614 215.4633
   222.8324 222.8324 223.2810 223.2810 223.7472 224.8476 225.5594 225.8124
   226.6078 226.8956 227.5033 227.5033 229.6109 230.3832 232.2261 232.2261
   235.3746 235.3746 237.2693 240.0628 240.0628 240.5129 241.2507 241.8069
   242.1265 242.1265 242.3493 243.5235 244.8184 248.2124 248.5799 248.5799
   248.7179 248.7780 253.1690 253.1690 256.3291 256.3291 257.6958 258.0673
   258.1995 258.2799 259.6540 259.6540 260.2617 260.3101 260.5090 260.5090
   261.6881 262.1622 262.1924 262.2107 262.2107 264.6697 264.6697 266.0967
   274.5603 274.6709 275.8250 275.8250 276.4310 276.4310 277.7624 277.8087
   280.4984 280.4984 284.3924 286.3346 288.3207 288.3207 291.5149 291.5149
   293.3084 294.5724 294.9949 295.2502 295.2502 295.3030 295.8874 295.8874
   296.6817 298.3493 299.8218 299.8663 299.8799 301.3456 301.9484 301.9484
   304.3141 304.3141 305.8709 308.7860 308.7860 309.1194 309.4786 311.2203
   311.3843 311.3843 311.6664 315.4663 315.4663 315.5979 315.6867 316.9971
   317.0874 317.0874 317.1305 317.1616 324.1288 324.1288 324.6386 324.9263
   325.6948 326.5426 326.5426 326.8745 331.9229 331.9229 333.5072 334.2120
   335.3357 335.3357 336.2678 336.2678 337.2944 337.4151 340.8174 341.4499
   342.1083 345.1314 345.1314 345.1602 345.8454 345.8454 345.9750 345.9897
   347.0226 350.2632 352.1862 352.1862 354.1425 356.9686 361.3271 361.3271
   361.4237 361.6961 361.6961 362.3115 362.8974 362.8974 363.3153 363.3379
   363.7179 363.7179 363.7774 364.0081 364.2934 364.5996 364.7517 364.7517
   366.7250 367.0571 367.2574 367.2574 370.5908 370.5908 372.4384 373.2418
   373.2418 373.6457 376.4811 376.5112 377.1467 377.1467 378.1222 378.1222
   378.2143 378.8345 379.2424 379.4813 379.7515 380.1567 380.1567 380.1839
   384.6376 384.6376 385.5080 388.6980 390.2330 391.0935 391.0935 391.3186
   391.7598 391.7598 395.5646 395.5646 395.6271 395.8393 396.0962 396.5637
   396.5637 397.3914 397.6248 398.0838 398.0838 398.1914 398.2478 400.1305
   400.5631 400.5631 401.6805 401.6805 402.3480 402.3784 402.3832 402.3832
   402.9629 402.9694 405.5160 407.9511 408.7244 408.7244 409.3059 411.2248
   412.5539 413.2767 413.2767 414.8949 414.8949 414.9175 414.9981 416.5639
   419.8898 419.8898 419.9429 419.9502 427.2185 427.2185 427.4243 427.9630
   428.3953 428.3953 429.5132 429.5132 429.5818 430.1476 430.7428 430.7428
   430.7603 430.9503 431.0379 433.2381 439.9873 439.9873 442.4213 442.4213
   442.5839 443.3865 443.5647 445.0002 445.6764 445.6764 446.5953 447.0986
   447.1324 447.1324 447.1919 449.7629 453.0348 454.6875 458.2272 458.2272
   461.6894 461.6894 462.7034 462.7034 462.8150 463.4013 463.8340 463.8340
   463.9790 464.0107 464.0681 464.1727 464.5072 465.1432 465.1432 465.4253
   465.4253 466.2767 466.3723 466.3732 466.4589 466.4589 467.1793 467.1793
   467.2493 467.2620 467.3384 467.6197 467.8227 469.4896 470.6180 470.6180
   473.5126 477.0266 480.3688 480.3688 481.8843 481.8843 482.1411 482.3510
   482.9754 484.2241 486.9098 486.9098 487.4787 487.4787 487.5693 487.5694
   492.6389 493.1980 493.1980 493.2627 494.4135 494.4135 496.3349 497.7885
   497.8461 497.8461 498.2876 498.2876 498.8104 499.2675 499.7896 499.7896
   499.9515 499.9565 500.3961 501.8098 504.9167 504.9167 505.1910 505.2131
   505.3565 505.3565 507.5747 507.7736 507.7736 507.8512 509.1517 510.0325
   510.0325 511.9984 512.1382 513.8991 514.1252 514.2452 514.2452 515.2998
   515.2998 515.4617 515.5287 515.8313 515.8313 515.9443 516.7317 519.8633
   521.3393 521.3393 522.5892 522.5939 526.0431 526.0431 533.3039 533.3039
   533.7244 534.0406 534.1338 534.5162 534.5328 534.5328 534.9207 536.1982
   543.2827 543.2827 544.1092 545.9545 545.9545 545.9911 546.3472 546.4922
   547.5710 547.6699 547.6699 547.8658 548.2938 548.3280 548.3280 549.1557
   549.1557 549.3448 549.9621 550.6327 550.8113 551.1483 551.1483 551.8777
   551.9528 551.9528 552.1885 552.8784 554.1280 554.1280 554.4303 555.3028
   555.3051 555.3051 555.3051 556.2216 560.1176 560.1176 561.7424 564.5004
   564.5828 564.5828 564.6801 566.5020 566.9092 566.9092 567.3018 567.3623
   567.3623 567.5851 567.5851 567.5897 567.8248 567.8465 567.9242 568.0784
   568.2949 568.7259 568.7259 569.1879 569.3601 569.3601 569.8944 569.8944
   569.9138 569.9511 570.2125 572.3509 572.7732 572.7732 572.8059 572.8238
   573.9241 573.9245 573.9352 573.9352 580.4581 581.2349 581.2349 582.2519
   583.6936 583.6936 584.1070 584.1070 584.1410 584.8744 585.0826 585.0893
   591.9178 591.9178 594.1822 594.5102 595.1223 597.5390 597.8104 597.8104
   598.5185 598.5185 598.9796 598.9937 599.4874 599.4874 600.4333 600.4640
   600.4640 600.4751 600.9214 601.0814 602.3023 602.3023 602.9605 603.1001
   603.1638 603.1716 603.1716 603.4911 604.5405 605.3448 606.5862 606.5862
   606.6448 606.6574 611.2640 611.2640 611.5355 612.5816 613.4624 613.4624
   615.1425 615.1425 615.4196 615.5358 617.3337 617.8509 618.9129 618.9129
   618.9156 618.9377 618.9933 618.9933 619.0165 619.0697 619.5101 619.5101
   620.5283 620.6685 620.6685 620.7138 620.7289 621.3239 623.8449 623.8449
   624.7540 624.7540 624.7642 624.7856 633.1947 633.1947 634.1010 634.9907
   635.9993 635.9993 636.0637 636.0727 637.6557 637.7320 637.7417 637.7417
   638.0311 638.0311 638.0316 638.0525 644.3418 645.4246 645.4246 645.5564
   647.5448 647.5448 647.8854 647.9217 649.1510 649.1510 652.1522 652.2819
   652.2819 652.4449 652.5380 653.0980 657.5641 657.5641 658.0149 658.0149
   658.6924 659.3240 659.3336 659.3759 659.3814 659.3814 659.3875 660.2462
   662.9203 662.9203 663.6907 667.5627 668.7811 668.7811 669.1385 669.1385
   669.2802 669.3502 669.9773 670.3648 672.3779 672.3779 675.7037 675.7051
   675.7051 675.7255 676.5063 676.8382 680.5063 682.0090 682.7283 682.7283
   683.4744 683.4744 684.0801 684.0801 684.5502 684.6070 685.3703 685.4720
   685.4720 685.5883 686.2320 686.2320 686.8071 686.8750 686.9598 687.3289
   688.4741 688.4989 688.4989 688.7211 700.8649 700.8649 701.5385 702.1544
   702.8606 702.8606 703.1651 703.1651 703.3339 703.3535 704.0232 704.0466
   704.4672 704.4672 704.6155 704.6167 704.9205 704.9633 704.9633 705.0268
   710.3691 710.3691 710.9017 711.3118 711.3118 712.9668 714.0300 714.1749
   714.1749 715.5096 715.5104 716.9513 718.5971 718.5971 718.8480 719.4546
   719.4546 719.5420 719.5789 719.6404 720.0851 720.5424 720.5424 720.5846
   720.7495 720.9868 721.0056 721.1557 721.1557 721.2435 721.3815 721.3815
   721.4622 721.4622 722.1402 722.1402 722.2840 722.4104 722.4104 722.4308
   722.4455 722.4553 722.5673 722.7948 722.7948 722.9908 723.0247 723.0247
   723.0517 723.0973 723.5505 723.7136 727.2053 727.2053 727.2140 727.2189
   736.7915 737.1392 737.1392 737.1672 737.3575 737.3575 737.3989 737.9847
   738.1180 738.1180 738.6397 738.7231 738.7231 738.7622 738.7957 738.8389
   738.8389 739.0170 739.3707 740.1189 740.3166 740.4060 740.4060 740.5376
   741.1086 741.1445 741.1445 741.2168 748.6142 749.1002 749.3299 749.3299
   751.0235 751.0235 752.0920 752.3547 752.6712 752.8043 752.8043 752.9731
   755.1994 755.3909 761.7968 761.7968 761.8358 761.8461 766.1414 766.1414
   766.2822 767.2171 767.9757 767.9757 769.6977 769.7835 769.7835 769.9356
   770.1469 770.2925 770.8143 770.8143 771.5917 771.6188 771.6188 771.7139
   772.1424 772.8240 773.9191 773.9392 773.9392 773.9968 774.3533 774.4138
   774.4138 774.4283 774.8775 774.8775 774.9494 775.0302 775.0302 775.0571
   775.1274 775.1440 777.6651 777.6651 778.4487 778.4487 778.7707 779.5550
   786.3215 786.3215 786.5982 787.3257 787.9563 787.9563 788.9780 788.9976
   788.9976 789.0064 789.2300 789.2980 795.3885 795.3933 795.3933 795.3978
   799.2982 799.7336 799.9151 799.9151 800.9589 800.9829 800.9829 801.1051
   803.4505 803.4505 803.7339 804.5462 804.5462 804.5611 804.5672 804.7106
   805.1055 805.1055 805.9733 806.4466 807.1467 807.1467 807.2546 807.2761
   807.5640 807.5640 807.6463 807.6463 807.6746 807.7978 807.9268 808.2937
   811.7903 811.7903 813.0113 813.0145 813.0145 813.0148 813.2156 813.2297
   817.8777 817.8777 818.7842 819.1725 819.1725 819.2861 819.3684 819.4575
   820.1278 820.1278 820.1311 820.9542 822.0337 822.0337 822.6488 822.6690
   823.4734 823.5726 823.5726 823.7547 824.2827 824.2827 824.3541 824.4115
   824.4115 824.4159 824.4959 824.5268 824.5337 824.5337 824.8792 824.8818
   824.9457 824.9606 824.9714 824.9714 825.1430 825.5776 825.5776 825.5937
   825.7988 825.8238 825.8238 825.8455 836.4988 836.4988 838.7029 839.0588
   839.0588 839.0771 839.5537 840.8504 843.2517 843.2517 843.3716 843.3716
   843.3727 843.3992 843.3993 843.4252 854.4351 854.4351 854.6644 854.7813
   855.0316 855.0316 855.5577 855.5669 855.6001 855.6001 855.9927 856.2543
   857.7675 857.7675 857.8743 858.0063 858.3279 858.3404 858.3404 858.4097
   858.9672 859.2295 859.2295 859.3816 859.9232 859.9232 859.9585 859.9711
   862.9892 863.0181 863.0181 863.0525 870.3847 870.3847 870.8280 871.1461
   871.1687 871.1687 871.6421 871.6642 871.6740 871.6740 871.8526 872.1707
   874.4798 874.7680 874.8299 874.8299 874.9341 874.9341 874.9469 874.9648
   875.0263 875.0801 875.0801 875.1589 875.5886 875.5886 876.3523 876.3795
   876.3878 876.3878 876.4595 876.4651 876.4753 876.4829 876.4829 876.5198
   881.5399 881.5456 881.5456 881.5485 887.1342 887.1342 887.1685 887.6207
   890.9490 890.9490 891.5101 891.5756 891.5756 891.6447 891.6485 891.7061
   893.5415 893.5542 893.5542 893.5806 894.3427 894.3427 894.3768 894.3822
   895.7122 895.7122 896.3850 896.9727 902.3749 902.3983 902.3983 902.4275
   902.8555 902.8555 902.8874 902.9493 909.9304 909.9304 909.9420 910.0413
   910.1225 910.1225 910.1386 910.1406 913.7851 913.7851 913.8199 913.8298
   915.3442 915.3589 915.3716 915.3716 915.6387 915.6387 915.6667 915.6725
   918.7607 919.6402 920.2585 920.2585 922.3834 922.3834 922.8069 922.8069
   922.9134 923.2802 923.2892 923.4545 923.4545 923.5065 924.1238 924.2438
   924.8822 924.8822 924.9002 925.0065 925.9226 926.3246 926.3246 926.3599

     the Fermi energy is    10.4004 ev
     (compare with:    11.0100 eV, computed in scf)

     Writing all to output data dir out/mp-1265.save/
 
     init_run     :      0.02s CPU      0.03s WALL (       1 calls)
     electrons    :    727.05s CPU    771.35s WALL (       1 calls)

     Called by init_run:
     wfcinit      :      0.00s CPU      0.00s WALL (       1 calls)
     potinit      :      0.01s CPU      0.01s WALL (       1 calls)
     hinit0       :      0.00s CPU      0.01s WALL (       1 calls)

     Called by electrons:
     c_bands      :    727.03s CPU    771.30s WALL (       1 calls)
     v_of_rho     :      0.00s CPU      0.00s WALL (       1 calls)

     Called by c_bands:
     init_us_2    :      0.00s CPU      0.00s WALL (      15 calls)
     init_us_2:cp :      0.00s CPU      0.00s WALL (      15 calls)
     paro_k       :    697.39s CPU    739.50s WALL (      15 calls)

     Called by paro_*:
     h_psi        :     15.04s CPU     15.86s WALL (    1465 calls)
     g_psi        :      0.31s CPU      0.35s WALL (  144040 calls)

     Called by h_psi:
     h_psi:calbec :      0.27s CPU      0.29s WALL (    1465 calls)
     vloc_psi     :     14.48s CPU     15.28s WALL (    1465 calls)
     add_vuspsi   :      0.14s CPU      0.14s WALL (    1465 calls)

     General routines
     calbec       :      0.27s CPU      0.28s WALL (    1465 calls)
     fft          :      0.00s CPU      0.00s WALL (      10 calls)
     fftw         :     12.94s CPU     13.66s WALL (  235392 calls)
 
     Parallel routines
 
     PWSCF        :  12m 8.11s CPU  12m52.91s WALL

 
   This run was terminated on:  13:24: 2  14Nov2023            

=------------------------------------------------------------------------------=
   JOB DONE.
=------------------------------------------------------------------------------=
