
     Program PWSCF v.7.1 starts on  4Dec2023 at 14:58:47 

     This program is part of the open-source Quantum ESPRESSO suite
     for quantum simulation of materials; please cite
         "P. Giannozzi et al., J. Phys.:Condens. Matter 21 395502 (2009);
         "P. Giannozzi et al., J. Phys.:Condens. Matter 29 465901 (2017);
         "P. Giannozzi et al., J. Chem. Phys. 152 154105 (2020);
          URL http://www.quantum-espresso.org", 
     in publications or presentations arising from this work. More details at
     http://www.quantum-espresso.org/quote

     Parallel version (MPI), running on    24 processors

     MPI processes distributed on     1 nodes
     119951 MiB available memory on the printing compute node when the environment starts
 
     Reading input from pw_mp-23703_nscf_k690_E120.in
Warning: card &IONS ignored
Warning: card / ignored
Warning: card &CELL ignored
Warning: card / ignored

     Current dimensions of program PWSCF are:
     Max number of different atomic species (ntypx) = 10
     Max number of k-points (npk) =  40000
     Max angular momentum in pseudopotentials (lmaxx) =  4

     Atomic positions and unit cell read from directory:
     out/mp-23703.save/
     Atomic positions from file used, from input discarded
 
 
     K-points division:     npool     =       2
     R & G space division:  proc/nbgrp/npool/nimage =      12
     Subspace diagonalization in iterative solution of the eigenvalue problem:
     one sub-group per band group will be used
     scalapack distributed-memory algorithm (size of sub-group:  3*  3 procs)

 
     Parallelization info
     --------------------
     sticks:   dense  smooth     PW     G-vecs:    dense   smooth      PW
     Min          79      79     23                 1629     1629     260
     Max          80      80     24                 1633     1633     263
     Sum         955     955    283                19579    19579    3143
 
     Using Slab Decomposition
 


     bravais-lattice index     =            2
     lattice parameter (alat)  =       7.5915  a.u.
     unit-cell volume          =     109.3754 (a.u.)^3
     number of atoms/cell      =            2
     number of atomic types    =            2
     number of electrons       =         4.00
     number of Kohn-Sham states=         1200
     kinetic-energy cutoff     =     120.0000  Ry
     charge density cutoff     =     480.0000  Ry
     Exchange-correlation= PBE
                           (   1   4   3   4   0   0   0)

     celldm(1)=   7.591481  celldm(2)=   0.000000  celldm(3)=   0.000000
     celldm(4)=   0.000000  celldm(5)=   0.000000  celldm(6)=   0.000000

     crystal axes: (cart. coord. in units of alat)
               a(1) = (  -0.500000   0.000000   0.500000 )  
               a(2) = (   0.000000   0.500000   0.500000 )  
               a(3) = (  -0.500000   0.500000   0.000000 )  

     reciprocal axes: (cart. coord. in units 2 pi/alat)
               b(1) = ( -1.000000 -1.000000  1.000000 )  
               b(2) = (  1.000000  1.000000  1.000000 )  
               b(3) = ( -1.000000  1.000000 -1.000000 )  


     PseudoPot. # 1 for H  read from file:
     /usr/scratch4/magr4985/MG/HTDF/pseudo/SG15/H.upf
     MD5 check sum: bf21e08b90ac4ce7d0149ac4e8138190
     Pseudo is Norm-conserving, Zval =  1.0
     Generated using ONCVPSP code by D. R. Hamann
     Using radial grid of  602 points,  2 beta functions with: 
                l(1) =   0
                l(2) =   0

     PseudoPot. # 2 for Li read from file:
     /usr/scratch4/magr4985/MG/HTDF/pseudo/SG15/Li.upf
     MD5 check sum: c91dd4cee9943b136ac3b62641658f95
     Pseudo is Norm-conserving, Zval =  3.0
     Generated using ONCVPSP code by D. R. Hamann
     Using radial grid of  602 points,  4 beta functions with: 
                l(1) =   0
                l(2) =   0
                l(3) =   1
                l(4) =   1

     atomic species   valence    mass     pseudopotential
        H              1.00     1.00790     H ( 1.00)
        Li             3.00     6.94100     Li( 1.00)

     48 Sym. Ops., with inversion, found



   Cartesian axes

     site n.     atom                  positions (alat units)
         1           Li  tau(   1) = (   0.0000000   0.0000000   0.0000000  )
         2           H   tau(   2) = (  -0.5000000   0.5000000   0.5000000  )

     number of k points=    29  Gaussian smearing, width (Ry)=  0.0005
                       cart. coord. in units 2pi/alat
        k(    1) = (   0.0000000   0.0000000   0.0000000), wk =   0.0039062
        k(    2) = (  -0.1250000   0.1250000  -0.1250000), wk =   0.0312500
        k(    3) = (  -0.2500000   0.2500000  -0.2500000), wk =   0.0312500
        k(    4) = (  -0.3750000   0.3750000  -0.3750000), wk =   0.0312500
        k(    5) = (   0.5000000  -0.5000000   0.5000000), wk =   0.0156250
        k(    6) = (   0.0000000   0.2500000   0.0000000), wk =   0.0234375
        k(    7) = (  -0.1250000   0.3750000  -0.1250000), wk =   0.0937500
        k(    8) = (  -0.2500000   0.5000000  -0.2500000), wk =   0.0937500
        k(    9) = (   0.6250000  -0.3750000   0.6250000), wk =   0.0937500
        k(   10) = (   0.5000000  -0.2500000   0.5000000), wk =   0.0937500
        k(   11) = (   0.3750000  -0.1250000   0.3750000), wk =   0.0937500
        k(   12) = (   0.2500000   0.0000000   0.2500000), wk =   0.0468750
        k(   13) = (   0.0000000   0.5000000   0.0000000), wk =   0.0234375
        k(   14) = (  -0.1250000   0.6250000  -0.1250000), wk =   0.0937500
        k(   15) = (   0.7500000  -0.2500000   0.7500000), wk =   0.0937500
        k(   16) = (   0.6250000  -0.1250000   0.6250000), wk =   0.0937500
        k(   17) = (   0.5000000   0.0000000   0.5000000), wk =   0.0468750
        k(   18) = (   0.0000000   0.7500000   0.0000000), wk =   0.0234375
        k(   19) = (   0.8750000  -0.1250000   0.8750000), wk =   0.0937500
        k(   20) = (   0.7500000   0.0000000   0.7500000), wk =   0.0468750
        k(   21) = (   0.0000000  -1.0000000   0.0000000), wk =   0.0117188
        k(   22) = (  -0.2500000   0.5000000   0.0000000), wk =   0.0937500
        k(   23) = (   0.6250000  -0.3750000   0.8750000), wk =   0.1875000
        k(   24) = (   0.5000000  -0.2500000   0.7500000), wk =   0.0937500
        k(   25) = (   0.7500000  -0.2500000   1.0000000), wk =   0.0937500
        k(   26) = (   0.6250000  -0.1250000   0.8750000), wk =   0.1875000
        k(   27) = (   0.5000000  -0.0000000   0.7500000), wk =   0.0937500
        k(   28) = (  -0.2500000  -1.0000000   0.0000000), wk =   0.0468750
        k(   29) = (  -0.5000000  -1.0000000   0.0000000), wk =   0.0234375

     Dense  grid:    19579 G-vectors     FFT dimensions: (  40,  40,  40)

     Estimated max dynamical RAM per process >     101.28 MB

     Estimated total dynamical RAM >       2.37 GB

     The potential is recalculated from file :
     out/mp-23703.save/charge-density

     Starting wfcs are random

     Band Structure Calculation
     ParO style diagonalization

     ethr =  5.00E-06,  avg # of iterations =  5.4

     total cpu time spent up to now is      772.6 secs

     End of band structure calculation

          k = 0.0000 0.0000 0.0000 (  2421 PWs)   bands (ev):

   -43.6325  -4.7824  16.6298  18.4621  18.4621  18.4621  23.1760  23.1760
    23.1760  24.6616  29.2446  29.2446  29.2446  31.4834  31.4834  46.0785
    62.7682  62.7682  62.7682  67.4009  67.4009  67.4009  68.6927  68.6927
    68.9588  69.0410  69.0410  69.0410  85.2840  85.2840  85.2840  91.3788
    91.3788  94.4621  94.4621  94.4621  96.1527  96.1527  96.1527  96.7835
    96.7835  96.7835  97.2428  97.2428  97.2428  97.7621  98.6173  98.6173
    98.6173  98.8444  98.8444  99.2216 103.8087 103.8087 103.8087 104.8953
   104.8953 104.8953 105.4078 128.9128 139.7771 139.7771 139.7771 140.9201
   140.9201 147.5992 160.6678 160.6678 160.6678 165.7146 165.7146 165.7146
   166.3979 168.3977 168.3977 168.6047 168.6047 168.6047 170.3363 171.6997
   171.6997 171.6997 172.2062 172.2062 172.2062 172.6150 172.6150 172.6150
   172.6168 172.6168 173.7606 173.7606 173.7606 176.7215 176.7215 177.8524
   177.8524 177.8524 178.9522 178.9522 178.9522 179.6235 179.6235 179.6235
   180.3260 180.3260 180.3260 180.7133 180.7133 181.1548 181.1548 181.1548
   181.4460 203.7317 211.5497 211.5497 211.5497 213.9605 213.9605 213.9605
   214.6601 216.7111 216.7111 217.1187 217.1187 217.1187 217.3237 217.3237
   217.3237 217.5826 217.5826 217.5826 217.6835 217.6835 217.6835 217.9131
   217.9131 223.4825 234.5643 234.5643 234.5643 237.3961 237.3961 243.2931
   243.2931 243.2931 243.3103 243.3103 243.3103 244.0058 244.2355 245.1781
   245.1781 245.1781 245.3261 245.3261 245.3261 245.6476 245.6476 245.6476
   245.7723 245.7723 245.7723 247.6863 247.6863 247.6863 247.6886 247.6886
   247.6971 275.0446 287.6498 287.6498 287.6498 289.9425 289.9425 289.9425
   290.2747 290.2747 290.3749 290.3749 290.3749 296.7099 307.3582 307.3582
   307.3582 313.1365 313.1365 313.1365 313.9257 313.9257 314.9236 314.9236
   314.9236 316.7584 317.1796 317.1796 317.1796 317.8205 317.8205 317.8205
   318.1351 318.1351 318.9693 319.0121 319.0121 319.0121 319.5589 319.7012
   319.7012 319.7012 320.5344 320.5344 320.7316 320.7316 320.7316 321.1653
   321.1653 321.1653 321.4751 321.4751 321.4751 321.6731 321.6731 321.6731
   321.7104 321.7104 321.9229 321.9229 321.9229 322.0700 323.4163 323.4163
   323.4163 325.6395 325.6395 325.6395 326.2194 326.8864 326.8864 327.2787
   327.2787 327.2787 327.4973 329.0190 329.0190 329.0190 329.0957 329.0957
   329.2006 329.2006 329.2006 329.4743 329.4743 329.4743 329.5889 329.5889
   329.6437 329.6437 329.6437 355.0547 360.1750 360.1750 360.1750 361.7127
   361.7127 365.2419 365.2419 365.2419 365.2966 365.2966 365.2966 365.4459
   365.4459 365.4459 365.4737 365.4737 365.4737 367.1262 367.1262 367.1753
   367.1753 367.1753 367.2900 382.1277 388.2908 388.2908 388.2908 390.1783
   390.1783 390.1783 390.6021 394.1561 394.1561 394.1948 394.1948 394.1948
   394.3492 394.3492 394.3492 394.3602 394.3602 394.3602 394.3760 394.3760
   394.3875 394.3875 394.3875 397.3280 400.6712 400.6712 400.6712 401.8851
   401.8851 402.4402 402.4402 402.4402 402.6433 402.6433 402.6433 402.8380
   402.8380 402.8380 402.8540 402.8540 402.8540 403.2655 403.4127 403.4127
   403.4127 403.4216 403.4216 436.2096 438.8712 438.8712 438.8712 439.5528
   439.5528 439.5528 439.6755 446.1784 456.4062 456.4062 456.4062 459.9012
   459.9012 463.8561 463.8561 463.8561 463.9525 463.9694 463.9694 463.9694
   464.4471 464.4471 464.4471 464.8377 464.8377 468.8410 468.8410 468.8410
   468.8437 468.8437 468.8437 468.8843 468.8843 468.8843 468.9111 468.9111
   468.9111 468.9718 469.8274 469.9979 469.9979 469.9979 470.0895 470.0895
   470.0895 470.1959 470.1959 470.1959 470.2078 470.2078 471.3364 471.3364
   471.3408 471.3408 471.3408 471.3509 473.8747 473.8747 473.8747 475.3100
   475.3100 475.3100 475.6273 475.6273 475.6990 475.6990 475.6990 478.0122
   478.0122 478.0122 478.0281 478.0281 478.1488 478.1488 478.1488 478.2448
   478.2448 478.2448 478.3380 503.3180 508.0248 508.0248 508.0248 510.8310
   510.8310 510.8310 511.5758 512.7364 512.7364 512.9832 512.9832 512.9832
   513.3907 513.3907 513.3907 513.5215 513.5215 513.5215 513.7278 513.7278
   513.7278 513.8543 513.8543 515.4293 515.4293 515.6238 515.6238 515.6238
   515.6687 515.6687 515.6687 515.7937 515.7937 515.7937 515.8735 515.8735
   515.8735 516.0165 516.0165 516.3334 516.5075 516.5075 516.5075 516.6196
   516.6196 516.6196 516.6902 524.2716 532.9743 532.9743 532.9743 537.0461
   537.0461 537.4683 537.4683 537.4683 538.7058 538.7058 538.7058 539.1885
   539.1888 539.1888 539.1888 539.7884 539.7884 539.7884 540.6914 540.6914
   540.6914 540.8883 541.0738 541.0738 541.0738 541.5078 541.5078 541.6195
   541.6195 541.6195 541.7644 543.2513 543.2513 543.4575 543.4575 543.4575
   543.4949 543.4949 543.4949 543.5308 543.5308 543.5308 543.8685 543.8685
   543.8685 543.8778 543.8778 544.3001 544.3212 544.3212 544.3212 544.3412
   544.3412 544.9842 544.9842 544.9842 545.0219 545.0219 545.0219 545.0910
   545.0910 545.0910 545.1067 545.1067 545.1067 545.4569 545.4569 545.4691
   545.4691 545.4691 545.4988 585.4843 587.1991 587.1991 587.1991 587.7260
   587.7260 612.4415 613.3980 614.0041 614.0041 614.0041 616.1467 616.1467
   616.1467 616.3091 616.4752 616.4752 616.6840 616.6840 616.6840 616.7270
   616.7270 616.7270 616.8740 616.8740 616.8740 616.8759 616.8759 616.8759
   617.0037 617.0037 620.5747 620.5747 620.5747 622.3326 622.3326 623.2237
   623.2237 623.2237 623.4174 623.4174 623.4174 623.4465 623.8479 626.2016
   626.2016 626.2016 626.2830 626.2830 626.2830 626.3105 626.3105 626.3105
   626.3853 626.3853 626.3853 627.4747 627.4747 627.4803 627.4803 627.4803
   627.4996 627.4996 627.5076 627.5076 627.5076 627.5080 627.5080 627.5080
   627.5184 627.5184 627.5184 628.1081 628.1081 628.1284 628.1284 628.1284
   628.1456 657.5802 660.1843 660.1843 660.1843 662.0828 662.0828 662.2355
   662.2355 662.2355 662.4934 662.4934 662.4934 663.1321 663.1321 663.1321
   663.2295 663.2295 663.5891 663.6183 663.6183 663.6183 663.8187 663.8187
   663.8187 663.8237 663.8237 663.8237 663.8672 663.8672 663.8672 664.1974
   664.2801 664.2801 664.2801 664.3378 664.3378 677.4811 683.3008 683.3008
   683.3008 685.7829 685.7829 685.7829 686.2303 686.2303 686.2895 686.2895
   686.2895 690.6927 690.6927 690.7001 690.7341 690.7341 690.7341 690.9207
   690.9207 690.9207 690.9296 690.9386 690.9386 690.9386 690.9976 690.9976
   690.9976 691.2191 691.2191 691.2191 691.3660 693.1967 693.1967 693.2193
   693.2193 693.2193 693.2634 693.2634 693.2634 693.3306 693.3306 693.3306
   693.4336 694.2481 694.2481 694.2481 694.2648 694.2648 694.2963 694.2963
   694.2963 694.3824 694.3824 694.3824 694.4690 697.0292 699.5122 699.5122
   699.5122 700.2051 700.2051 700.2051 700.5600 700.5600 700.5600 700.5657
   700.5657 701.0052 701.1775 701.1775 701.1775 701.3130 701.3130 701.3130
   701.3182 701.3182 701.3593 701.3593 701.3593 733.5454 736.0875 736.0875
   736.0875 737.1080 737.1080 737.4140 737.4140 737.4140 737.5540 737.5540
   737.5540 737.6573 737.6573 737.6573 737.7535 737.7535 737.7535 737.9233
   737.9233 738.0314 738.0314 738.0314 738.1172 751.0374 756.6518 756.6518
   756.6518 758.2679 758.2679 761.3178 761.3533 761.3533 761.3533 762.0097
   762.0097 762.0097 762.2959 764.5323 764.5323 764.5323 764.6849 764.6849
   764.7172 764.7172 764.7172 764.8088 764.8088 764.8088 764.8400 764.8400
   764.8400 764.9809 764.9809 766.9453 766.9453 766.9453 766.9955 766.9955
   766.9955 767.0392 767.0392 767.0392 767.1197 767.1197 767.1197 767.2757
   767.2757 767.3031 767.3031 767.3031 767.3038 767.3038 767.3332 767.3332
   767.3332 767.3567 767.3567 767.3567 767.3898 767.3898 767.3898 768.0642
   768.0980 768.0980 768.0980 768.1408 768.1408 768.1408 768.1927 769.0224
   769.5691 769.5771 769.5771 769.5771 769.5804 769.5804 772.3921 772.3921
   772.3921 773.5546 773.5546 773.7038 773.7038 773.7038 774.0830 774.0830
   774.0830 774.1625 774.1625 774.1625 774.2667 774.2667 774.2667 774.3151
   774.6466 774.6466 774.6466 774.7542 774.7542 776.2637 776.2637 776.3270
   776.3270 776.3270 776.4676 776.6808 776.6808 776.6808 776.6843 776.6843
   776.6843 776.7478 776.7478 776.7478 776.7583 776.7583 776.7583 776.9697
   776.9697 776.9937 776.9937 776.9937 777.0571 807.1861 809.1154 809.1154
   809.1154 809.5841 809.5841 809.5841 809.6188 813.8026 813.8026 813.8026
   813.8041 813.8041 813.8108 813.8108 813.8108 813.8199 813.8199 813.8238
   813.8238 813.8238 813.8528 813.8528 813.8528 830.4138 834.2250 834.2250
   834.2250 835.1539 835.1539 837.5276 837.5276 837.5276 837.5424 837.5424
   837.5424 837.6177 837.6177 837.6177 837.6458 837.6458 837.6458 839.8643
   839.8643 839.9167 839.9167 839.9167 840.0760 842.1900 842.1979 842.1979
   842.2064 842.2064 842.2064 843.1837 843.1837 843.1837 843.1907 843.1907
   843.1907 843.1949 843.1949 843.1949 843.2032 843.2032 843.2032 843.6733
   843.6805 843.6805 843.6805 843.6846 843.6846 882.2819 885.8255 885.8255
   885.8255 886.4786 886.4786 886.4786 886.5800 886.9627 886.9627 887.0005
   887.0005 887.0005 887.0600 887.0600 887.0600 887.0775 887.0775 887.0775
   887.1273 887.1273 887.1273 887.1448 887.1448 900.5354 908.6255 908.6255
   908.6255 910.4480 910.4480 910.4480 911.2971 911.2971 911.3359 911.3359
   911.3359 911.5120 912.3933 912.3933 912.3933 912.7554 912.7554 912.7554
   912.9025 914.4637 914.4637 914.4637 914.5033 914.5033 914.6638 914.6638
   914.6638 914.8359 914.8431 914.8431 914.8475 914.8475 914.8475 914.9409
   914.9409 914.9409 915.2904 915.2904 915.2904 915.4150 915.4150 915.4150
   915.4675 916.6122 916.6122 916.6227 916.6227 916.6227 916.6326 916.6326
   916.6370 916.6370 916.6370 916.6584 916.6584 916.6584 916.6645 916.6645
   916.6645 917.4934 917.5371 917.5371 917.5371 917.5407 917.5407 917.5407
   917.5508 917.5508 917.5508 917.5693 917.5693 918.6144 921.8021 921.8021
   921.8021 922.5067 922.5067 922.5543 922.5543 922.5543 922.6377 922.6377
   922.6377 923.3083 923.3083 923.3541 923.3541 923.3541 923.4819 925.4143
   925.4143 925.4143 925.4310 925.4310 925.4310 925.4883 925.4883 925.5011
   925.5011 925.5011 925.5897 950.8295 956.7296 956.7296 956.7296 957.5665
   957.5665 959.3131 959.3131 959.3131 959.3784 959.3784 959.3784 959.4107
   959.6608 959.6608 959.6608 959.8622 959.8622 960.5531 960.8128 960.8128
   960.8128 960.9388 960.9388 960.9388 961.0533 961.0533 961.0533 961.1103
   961.1103 961.7023 961.7023 961.7023 961.7981 961.7981 961.7981 961.8151
   961.8151 961.8151 961.9602 961.9602 961.9602 962.7151 962.7151 962.7336
   962.7336 962.7336 962.7546 962.7546 962.7546 962.7926 962.7926 962.7926
   962.8245 963.1674 963.1674 963.1874 963.1874 963.1874 963.1886 963.2166
   963.2166 963.2166 963.2327 963.2327 963.2327 963.6887 963.6887 963.7029
   963.7029 963.7029 963.7383 978.5966 984.6899 984.6899 984.6899 985.7974
   985.7974 985.7974 985.9465 985.9465 986.0704 986.0704 986.0704 986.9770
   986.9770 986.9770 987.0874 987.0874 987.1477 987.1477 987.1477 987.3598
   987.3598 987.3598 987.5403 988.9388 989.1678 989.1678 989.1678 989.3501
   989.3501 989.3501 989.6282 989.6282 989.6282 989.6468 989.6468 989.8625
   990.1276 990.1276 990.1276 990.2390 990.2390 990.2474 990.2474 990.2474
   990.2697 990.2697 990.2697 992.0368 992.0368 992.0449 992.0449 992.0449
   992.0916 992.0916 992.0916 992.1065 992.1065 992.1065 992.1528 992.1839

          k =-0.1250 0.1250-0.1250 (  2433 PWs)   bands (ev):

   -43.6259  -4.5077  14.4393  17.1237  17.9147  17.9147  22.7065  24.3536
    24.3536  26.3264  26.3264  29.0304  31.0238  35.4853  35.4853  45.1345
    58.3369  58.3369  59.0310  65.0009  65.0009  67.4236  68.4846  68.4846
    69.4768  72.9126  77.7246  77.7246  81.0229  81.0229  83.8803  87.4284
    87.4284  89.2846  89.2846  90.1622  90.3884  90.4601  93.7796  93.7796
    95.0835  95.6108  95.6108  98.5130 100.2241 100.2241 100.5438 102.0767
   102.0767 103.8461 103.8461 104.4403 107.2117 108.0098 109.1900 109.1900
   109.4661 109.4661 118.1678 125.2875 131.5413 131.5413 138.9678 147.3305
   149.8174 149.8174 152.8043 152.8043 155.0927 158.2397 158.2397 159.2071
   160.9386 162.7311 162.7311 164.5721 164.5721 166.0996 166.0996 167.1374
   167.1374 167.1709 168.0783 169.7036 171.5963 171.5963 172.1523 173.4583
   173.4583 173.9779 173.9779 174.0314 175.6262 175.6442 175.6442 175.9408
   180.4464 180.4464 180.7569 182.2271 182.2271 184.9804 184.9804 185.1656
   185.3557 188.0161 188.0161 189.2156 192.2798 192.2798 193.5011 194.5357
   194.5357 195.3255 199.1306 199.1306 202.8145 205.1877 205.1877 208.3931
   208.3931 208.5806 212.5684 215.5399 215.5399 216.8488 216.8488 216.9302
   217.0426 223.1393 223.9434 223.9434 224.5709 224.8321 224.8321 227.0811
   227.0811 227.2050 231.0403 232.0991 232.3798 232.3798 233.5899 233.5899
   234.0451 236.4102 236.4102 236.5836 237.4179 237.4179 238.7297 238.9251
   238.9251 242.3505 247.0083 247.0083 251.2595 251.2595 251.5899 255.3903
   256.0332 256.0332 257.2994 257.2994 257.3319 261.6163 262.3532 262.3532
   265.4499 266.3101 271.7272 271.7272 280.0661 288.5569 288.5569 288.9707
   290.5249 290.5249 290.7972 294.5910 294.5910 298.5455 298.5455 299.6829
   299.6901 301.1718 302.3178 302.3178 303.9149 304.2052 304.2052 304.3730
   306.3977 306.3977 307.7397 307.7554 307.7554 309.2549 309.2549 310.7865
   310.7865 311.0756 311.3272 313.0572 313.0572 314.2004 314.2004 314.3827
   315.5933 316.3980 316.3980 317.8321 318.0129 318.0129 318.4802 318.9116
   318.9116 321.5932 321.5932 321.7790 322.1153 322.8612 322.8612 324.1558
   325.0844 325.0844 325.1636 326.2140 326.2140 326.9691 326.9691 327.0714
   328.8568 330.3338 330.8947 330.8947 332.5849 332.5849 334.3207 334.3207
   334.4217 335.8593 335.8593 336.3811 338.4301 339.4377 340.3131 340.3131
   341.1588 341.1588 341.9682 341.9682 342.3445 342.5084 342.8182 342.8182
   342.8744 344.7641 344.7641 347.9454 347.9454 348.1043 348.4905 352.9970
   352.9970 354.0984 354.6660 354.6660 357.4300 357.4300 357.5099 363.2011
   369.1288 369.1288 369.9349 372.2285 372.2285 375.9037 375.9037 375.9986
   376.9195 378.9532 379.2069 379.2069 379.8930 379.8930 381.4742 382.8623
   382.8623 383.0427 383.0427 383.1299 385.3551 385.3551 385.5147 387.8256
   388.6802 388.6802 389.2165 389.2165 389.3409 390.6917 391.2350 391.2350
   393.7240 394.4758 394.4758 398.2487 398.5089 398.5089 402.6557 403.7968
   403.7968 406.3662 406.3662 406.4695 406.9766 407.4520 407.4520 411.5280
   414.2510 415.9967 416.5871 416.5871 417.1242 417.1242 417.2442 420.3289
   420.3289 425.4348 426.4899 426.4899 428.8945 430.3435 430.3435 432.9586
   439.8568 439.8568 442.9498 442.9498 443.0060 447.4367 447.8974 447.8974
   448.2230 448.9621 448.9621 450.4801 451.1200 451.4146 451.4146 452.4723
   452.4723 452.8942 452.9602 452.9602 455.2136 455.2136 455.4202 457.5408
   457.8745 457.8745 459.9006 462.1357 462.1357 463.9869 463.9869 464.1213
   467.1925 469.7631 470.5687 470.5687 470.7652 471.1751 471.1751 471.2201
   472.2035 472.2035 472.7746 472.7746 472.8961 473.2294 475.2716 475.2716
   480.2287 481.5025 481.5025 481.8627 482.0719 482.0719 482.1390 482.9054
   484.0631 484.0631 485.3442 485.3442 485.6171 485.7668 485.7668 486.5121
   487.4069 487.4069 488.2068 488.2068 488.9942 490.5983 490.6381 490.6381
   493.0090 494.0536 494.0536 494.1647 494.6827 494.6827 496.9215 497.1659
   497.1659 497.2672 499.0929 499.0929 501.7853 501.7853 501.9631 503.9960
   504.7090 504.7090 505.5289 505.5289 505.5980 505.8483 511.5707 512.1147
   512.1147 513.0581 513.0581 513.3226 513.5352 513.5352 513.6063 514.7658
   514.7658 515.8380 515.9279 515.9279 516.1870 516.1870 516.2164 517.0922
   517.0922 517.3866 520.9661 521.8705 521.8705 522.5653 522.5653 522.7345
   522.8001 523.5069 523.5069 524.1481 524.1481 524.2164 525.4905 525.9526
   525.9526 528.2267 528.7806 528.7806 530.4231 530.4231 530.4899 531.3103
   532.1681 532.1681 534.2635 534.5364 534.5364 534.7400 534.7400 534.7903
   535.6250 535.7540 535.7540 537.0539 537.0768 537.0768 537.6507 537.6555
   537.6555 538.0481 541.6948 541.6948 543.6841 544.1200 544.1200 544.9080
   545.9559 545.9559 547.7183 547.7183 548.2611 549.6525 549.9977 549.9977
   551.0153 551.0153 551.0997 554.4552 555.0666 555.0666 555.3108 555.3108
   555.3753 558.0672 558.9270 558.9270 560.9913 562.0890 562.0890 563.2852
   563.2852 563.3301 567.3492 568.1930 568.5144 568.5144 569.2698 569.2698
   570.2118 570.2118 570.3412 570.9916 574.3985 574.3985 584.9819 586.8796
   586.8796 589.9165 595.2294 595.2294 598.2614 599.6128 599.6128 599.8320
   600.6689 600.6689 600.9176 601.3522 601.3522 604.2573 604.2573 604.3629
   605.2976 606.4689 606.4689 609.0800 609.9515 609.9515 611.0726 611.0726
   611.2610 613.5695 613.7179 613.7179 613.9702 613.9702 614.0405 614.3503
   614.6533 614.6533 618.8163 618.9260 618.9260 621.9907 622.3184 622.3184
   629.0950 630.0080 630.0080 631.9772 632.8764 632.8764 633.2884 633.4480
   633.4480 633.5228 634.8598 634.8598 636.0283 636.1364 636.1364 636.3587
   637.8824 637.8824 639.5056 639.5056 639.6394 641.4135 641.5662 641.5662
   641.9357 641.9357 641.9924 644.5999 645.0234 645.0234 645.3587 645.3587
   645.4022 645.8116 647.2285 647.2285 647.7248 648.6246 648.6246 650.9966
   650.9966 651.0754 653.2308 654.3334 654.4563 654.4563 655.9104 657.6899
   657.6899 657.7805 660.4817 660.4817 662.0861 662.0861 662.2609 662.2723
   662.5289 662.5289 663.1057 663.1057 663.1517 666.0499 666.2315 666.2315
   667.6690 667.9365 667.9365 668.0073 668.8082 668.8082 672.9263 673.1137
   673.1137 677.2804 677.7160 677.7160 678.1014 679.3152 679.3152 681.4873
   681.9564 681.9628 681.9628 682.5283 682.5283 682.6196 682.6196 682.6601
   683.0262 683.0262 683.0369 689.5761 689.7521 689.8894 689.8894 690.3288
   690.3288 690.3629 690.8775 690.8775 692.0492 692.0492 692.1971 692.5770
   692.7120 692.7120 693.2407 693.2407 693.2544 695.4275 696.3439 696.3439
   696.8299 696.8299 696.8631 699.4381 699.5592 699.5592 699.7924 699.7924
   699.8255 702.8978 703.1298 703.1298 704.8220 705.5707 705.5707 706.0314
   706.0314 706.0510 708.4283 709.6882 709.6882 710.2538 710.2538 710.4224
   711.7607 713.6039 713.6039 718.0284 718.0284 718.1207 721.5928 722.3150
   722.3150 723.5867 723.8330 723.8330 723.9792 724.4913 724.4913 726.0124
   726.6485 727.7878 728.1351 728.1351 728.8805 728.8805 728.9069 730.1929
   730.1929 732.7601 732.7779 732.7779 733.6149 733.9640 733.9640 735.0234
   736.2962 736.2962 740.2312 741.9703 741.9703 742.8348 743.0586 743.0586
   744.4082 744.4082 744.5396 745.1102 745.1102 745.1595 746.0683 746.3177
   746.3177 746.3434 746.6381 746.6381 746.7563 746.7832 746.7832 747.5161
   747.5161 747.5411 751.1111 751.5443 751.5443 751.6481 752.0093 752.0093
   752.4583 752.4583 752.5090 753.8061 754.1228 754.1228 754.7669 754.7669
   754.7971 760.9756 761.8150 761.8150 762.0242 762.0242 762.0768 762.4757
   762.5360 762.5360 764.5514 765.3922 765.3922 765.4270 765.5261 765.5261
   765.9339 766.0791 766.0791 766.1512 766.1512 766.3163 769.2138 769.6677
   769.6677 769.7073 770.0912 770.0912 772.2907 772.5371 772.5371 772.5490
   775.6610 776.9143 776.9143 777.0049 777.0049 777.7763 777.7763 777.9970
   778.4364 778.5195 778.5195 778.5306 779.2615 779.2615 781.7139 781.7139
   781.7315 785.6493 785.9503 785.9503 787.0944 787.0944 787.1487 788.1314
   788.3414 788.3414 788.5466 788.6747 788.6747 788.7943 789.4332 789.4332
   789.7433 789.7433 789.8309 793.1758 793.4792 793.4877 793.4877 793.6236
   793.6236 796.7983 798.2870 799.0132 799.0132 799.3660 799.3660 799.4183
   800.1013 800.1013 802.2483 802.5107 802.5107 802.6397 802.6397 803.4962
   804.9306 804.9306 804.9498 805.2776 806.9902 807.3083 807.3083 807.5902
   807.5902 809.6879 809.6879 809.8007 810.6931 810.6931 810.8283 815.6448
   815.9483 815.9483 816.1980 816.1980 816.2097 819.6182 820.1908 820.1908
   822.2656 822.6087 822.6087 823.5722 823.5722 823.5899 824.0628 824.0628
   824.0959 829.3955 829.4320 829.4320 831.2348 831.2348 831.2427 831.6775
   831.8223 831.8223 846.4117 847.8833 849.3303 849.3303 849.5255 850.2186
   850.2186 851.5318 851.5318 852.6611 852.6611 852.6961 857.4789 857.8949
   857.8949 858.1334 858.1334 858.1390 863.3274 864.7002 864.7002 865.9726
   865.9726 866.0939 867.7092 868.2663 868.2663 868.8462 868.8462 868.8677
   871.0930 871.3660 871.4032 871.4032 873.1695 873.1695 873.1943 876.8241
   876.8241 877.7306 878.5318 878.5318 880.6542 880.6969 880.6969 885.5066
   885.9072 885.9072 886.0895 887.0482 887.0482 887.3005 887.3005 887.3117
   888.7378 890.4087 890.4087 892.8706 893.2059 893.2059 893.2895 893.8445
   893.8445 894.3632 894.3632 894.4362 897.0312 897.4505 897.4505 899.6472
   900.2493 900.2493 900.5208 900.5208 900.5401 904.7193 905.5424 905.5424
   906.1090 906.1090 906.1313 907.2635 908.0000 908.0000 908.4827 908.4827
   908.5186 910.9049 910.9506 910.9506 911.1121 911.1648 911.1648 916.6946
   918.1919 918.1919 918.3147 918.4372 918.4372 918.4422 919.7072 919.7072
   919.9467 919.9467 919.9859 921.5892 921.9181 921.9181 922.2793 922.4215
   922.4215 922.5941 923.5190 923.5190 923.7518 924.7630 924.7630 926.0233
   926.0233 926.2052 927.9688 929.0721 929.0721 929.2924 929.2924 929.3051
   929.8488 930.3917 930.3917 931.0939 931.6991 931.6991 932.7529 932.7529
   932.9116 932.9116 932.9312 932.9365 934.9749 935.1360 935.1360 935.4922
   935.4922 935.5472 936.0313 936.4124 936.4124 936.5664 936.5664 936.6163
   941.2002 941.8734 941.8734 943.1165 943.7538 943.7538 944.5833 944.5833
   944.6023 945.3890 946.8394 946.8394 948.2203 949.0209 950.1087 950.1087
   950.2286 950.2286 951.3258 951.3258 951.3403 951.7679 952.3369 952.3369
   952.5912 952.5912 952.5991 952.7831 953.2106 953.7587 953.7587 954.1131
   954.1131 954.2691 954.9511 955.6408 955.6408 956.4810 956.4810 957.1392
   958.4874 958.4874 958.5521 960.0847 960.4550 960.4550 960.8355 960.8355
   960.8442 961.0308 961.4050 961.4050 961.8296 961.8296 961.9307 962.0713
   962.2047 962.2047 962.4507 962.4507 962.4818 964.4966 964.6240 964.6240
   966.5542 966.8235 966.8235 970.9259 971.4179 971.4179 971.5478 971.5478
   971.5567 974.6176 975.8350 975.8350 975.9375 976.1197 976.1197 976.1355
   976.7933 976.7933 977.1462 977.1462 977.1848 978.1193 978.4188 978.4188
   981.7248 981.7248 981.7474 982.4952 982.7421 982.7421 983.2567 983.2567
   983.2647 983.7011 983.8181 983.8181 984.1632 984.1719 984.1719 984.7385
   985.2065 985.2065 985.4587 985.5305 985.5305 987.2775 988.2417 988.2417
   988.8024 988.8024 989.0560 991.0024 991.1738 991.1738 991.4428 991.4428
   991.5154 994.0507 995.1708 995.1708 995.6606 995.6606 995.7452 996.9389
   997.0615 997.0615 997.3383 997.3422 997.3422 997.3785 998.1495 998.1495

          k =-0.2500 0.2500-0.2500 (  2439 PWs)   bands (ev):

   -43.6099  -3.7194  10.3169  15.6302  17.2228  17.2228  22.7243  22.7243
    24.1528  28.0000  28.0000  32.7423  37.5000  41.2438  41.2438  42.8364
    50.7902  50.7902  55.2336  64.8746  65.8182  65.8182  69.7680  69.7680
    70.7835  72.9748  72.9748  77.1111  78.0388  80.9776  80.9776  82.0964
    83.7426  83.7426  84.7884  88.1957  88.1957  90.4381  92.5003  92.5003
    94.9074  96.3636  96.3636  96.9848 100.0055 100.0055 106.2437 109.4893
   109.4893 111.9562 111.9562 112.7352 112.8832 115.4274 115.4274 118.6425
   119.4866 121.7524 121.7524 123.6493 123.6493 130.1931 133.3454 138.7985
   138.7985 142.2733 147.3525 147.3525 148.3739 151.3596 151.3596 153.5558
   153.8153 153.8153 154.6396 159.8354 159.8354 161.3834 163.4462 163.4462
   166.2411 166.2411 167.2300 168.0265 169.6459 169.6459 172.2151 172.2151
   172.4441 173.7466 175.0093 175.0093 177.0362 177.4819 177.4819 177.5505
   181.8841 181.8841 183.5454 187.6218 187.6218 190.2420 190.7888 190.7888
   191.1000 193.8580 193.8580 195.6075 197.5879 197.5879 200.3665 200.4265
   200.4265 200.5957 201.5749 204.2029 205.0362 205.0362 207.4767 207.4767
   207.8995 209.7528 209.7528 210.5839 210.6906 210.6906 215.8941 217.0452
   217.0452 218.0954 218.0954 218.1948 220.1209 221.2781 221.2781 223.4030
   223.4030 223.7112 230.2449 231.5477 231.5477 232.5075 232.6435 232.6435
   233.5227 235.1568 235.1568 237.7025 237.7025 237.8346 247.1909 251.4806
   253.3464 254.3824 254.3824 255.9802 255.9802 256.9425 256.9425 259.6276
   259.6276 259.9201 266.0543 268.0293 268.0293 268.1167 270.1740 270.1740
   270.2824 275.7884 275.7884 278.3392 279.2974 279.2974 279.3642 279.3642
   279.4208 280.2968 283.6073 284.5011 284.5011 286.4814 286.4814 287.4473
   288.1195 288.9610 288.9610 289.1651 290.1982 290.1982 291.8065 291.8065
   292.1003 297.7239 299.8711 299.8711 301.6157 301.6157 301.8706 302.2574
   304.3807 304.3807 305.7294 305.7294 306.0206 312.9267 314.4627 314.4627
   316.4585 317.0832 317.0832 317.2411 318.2892 318.2892 321.5325 321.5325
   321.6531 321.7136 322.9938 322.9938 324.4501 325.7980 325.7980 325.9105
   326.3913 327.6282 327.6282 328.8211 328.8211 330.6860 330.6860 330.8355
   332.9994 333.9294 333.9294 334.7807 334.7807 334.8687 336.4866 337.2731
   337.2731 339.3795 340.3167 340.3167 340.4043 344.8468 344.8468 345.1589
   346.2809 346.5367 346.5367 349.3660 349.3660 349.4530 350.1450 350.1450
   353.6442 353.6442 354.0915 354.4754 356.3396 356.3396 356.7550 357.9229
   357.9229 358.0098 358.0416 358.0416 359.5526 362.0333 362.0333 363.9695
   363.9695 364.6318 367.1900 369.0619 369.0619 372.2840 372.6220 372.6220
   372.7334 375.1382 376.1050 376.1050 376.6348 376.6348 376.7508 377.5674
   377.5674 381.8579 383.1541 383.1541 385.0331 386.5890 386.5890 386.6760
   389.5778 390.0968 390.0968 393.7929 394.3382 394.3382 398.3361 399.1317
   399.1317 400.7395 402.5295 402.5295 405.2280 405.2280 405.3965 410.3162
   413.3422 413.3422 413.3510 415.6937 416.2606 416.2606 416.8902 416.8902
   419.3461 419.3461 419.4397 421.3892 422.3406 422.3406 423.3131 424.5962
   424.5962 427.2895 427.5824 427.5824 428.9807 430.7930 430.7930 430.9079
   431.8683 431.8683 432.4082 432.4082 432.5286 433.2106 433.2106 433.3541
   434.8741 435.4576 435.4576 437.9057 437.9057 437.9858 441.4184 446.7120
   446.8802 446.8802 447.1845 447.1845 449.8587 451.1236 451.1236 454.3049
   458.3446 458.9266 458.9266 459.4363 459.4363 460.7086 461.5867 461.5867
   461.9499 461.9499 462.3585 463.4168 463.4168 463.5194 467.3828 468.4774
   468.4774 469.1659 469.1659 469.2778 473.5066 474.2581 474.2581 474.7330
   474.7330 474.7804 475.9449 476.9229 476.9229 478.6103 479.9200 479.9200
   480.0055 484.5674 484.5674 485.2908 486.6832 486.6832 487.7039 487.8971
   487.8971 487.9767 489.5661 490.0103 490.0103 490.6126 490.6126 493.3718
   493.3718 493.5786 496.1683 496.8596 496.9338 496.9338 497.5662 497.5662
   497.6270 499.3543 500.7360 500.7360 501.5395 502.1005 502.1005 502.5904
   502.5904 502.6910 503.0730 503.0730 503.2114 508.1879 509.8477 509.8477
   510.6597 510.9512 510.9512 512.3087 512.3087 512.3096 512.3903 513.5259
   513.5259 514.7564 514.7564 514.8308 517.1574 517.2537 517.2537 517.4726
   517.4726 517.5071 518.2943 519.2441 519.2441 519.6723 520.3289 520.3289
   520.4106 520.7951 520.7951 522.2510 523.8959 523.8959 526.3754 526.3754
   526.5515 528.0740 528.5484 528.5484 529.3424 529.3760 529.3760 531.3525
   531.3788 531.3788 531.7027 531.7087 531.7087 533.6287 534.1683 534.1683
   534.7521 534.7521 534.8128 550.1438 551.0938 551.5605 551.5605 552.0888
   552.0888 552.8459 554.5647 554.5647 554.6981 554.8962 554.8962 555.9840
   556.3054 556.3054 556.6680 557.9094 557.9094 558.4937 558.7227 558.7227
   559.3337 559.3337 559.4062 559.5824 563.9897 563.9897 566.7403 567.3111
   567.5926 567.5926 567.8269 567.8269 567.8701 570.9085 570.9085 573.3714
   573.3714 574.1685 575.8729 576.4862 576.4862 577.3507 579.0009 579.0009
   582.1983 582.1983 582.3366 583.0805 584.7308 584.7308 584.7475 585.3386
   585.3386 585.6617 585.6617 585.7785 585.9594 585.9594 586.0325 593.4548
   594.7316 594.7316 595.3304 596.8771 596.8771 597.0100 597.1432 597.1432
   598.3595 598.3595 598.6222 600.8317 600.9952 600.9952 601.2919 601.2919
   601.3615 601.8195 605.9387 605.9387 606.8814 608.2776 608.2776 609.5586
   609.5586 609.7137 613.2850 613.5434 613.5434 617.8777 618.0858 618.0858
   621.5556 623.0051 623.1619 623.1619 625.2220 626.4260 626.4260 627.0864
   627.6789 627.6789 627.9916 628.0263 628.0263 628.0868 629.5344 629.5344
   633.3823 633.3823 633.5530 635.7719 636.4242 636.4242 636.7442 637.5983
   637.5983 640.8831 641.1906 641.1906 643.3619 643.3619 643.4303 646.2345
   646.4575 646.4575 649.4089 650.0274 650.0274 650.9943 650.9943 651.0876
   651.3613 653.4132 653.4132 654.6976 654.6976 654.8045 655.5162 655.7743
   655.7743 656.7546 656.8963 656.8963 657.2453 657.2453 657.2990 663.6440
   663.8095 663.8095 664.3841 664.3841 664.4295 668.6110 669.3042 669.3042
   671.5087 672.5988 672.5988 675.5310 675.5310 675.6164 676.0831 677.3734
   677.3734 678.0629 678.0629 678.1115 678.1228 679.1642 679.1642 681.6577
   682.9797 682.9797 683.6028 683.6028 683.6766 683.7707 683.8212 683.8212
   687.8604 688.3428 688.3428 688.9058 688.9058 688.9347 689.3286 692.2618
   692.5433 692.5433 692.8184 693.0948 693.0948 693.1215 694.3905 694.3905
   696.2534 696.6197 696.6197 696.9001 696.9001 697.4684 697.4684 697.4899
   699.1636 699.1636 699.9830 701.6130 702.2471 702.2471 702.5683 702.5683
   702.6266 706.9741 707.2425 707.2425 707.5326 707.5326 707.5682 708.9039
   710.5455 710.5455 710.7351 711.3918 711.3918 711.9940 711.9940 712.0196
   712.6509 713.1278 713.1278 713.2607 713.6931 713.6931 715.8866 716.1523
   716.1523 718.8218 719.9815 719.9815 719.9868 720.2902 720.2902 720.8624
   720.8624 720.8937 721.2842 721.2842 721.4420 722.8128 723.5092 723.5092
   724.6244 724.6244 724.7411 726.4281 726.6716 726.6716 726.9971 726.9971
   727.1077 729.4123 730.2456 730.2456 730.6618 730.6618 730.7219 735.7900
   735.8988 735.8988 736.3266 739.4335 741.0131 741.0131 741.1263 741.1263
   743.4983 743.6982 743.6982 744.2993 744.2993 744.3209 745.2301 745.2301
   745.3110 748.0572 749.1071 749.1071 749.1659 749.2532 749.2532 749.3684
   749.3684 749.4189 752.3534 753.2379 753.2379 755.1669 755.1669 755.3241
   756.8702 757.3007 757.3007 758.1287 758.1287 758.1554 761.0238 761.4333
   761.4333 762.7527 764.3602 764.3602 764.3781 765.5431 765.6124 765.6124
   766.7864 767.8439 767.8439 768.9234 768.9234 768.9485 770.0170 770.8537
   770.8537 773.6379 773.6379 773.6575 776.0271 776.5072 776.5072 777.9324
   779.1622 779.1622 782.2853 782.2853 782.3955 784.2780 784.7075 784.7075
   787.6963 787.6963 787.7145 789.4666 790.2926 790.2926 790.9030 790.9030
   790.9251 790.9525 791.2962 791.2962 791.4423 791.4423 791.4643 793.5157
   794.3187 794.3368 794.3368 794.8339 794.8339 795.3649 795.3649 795.5505
   796.7913 796.9315 796.9315 796.9503 797.6608 797.6608 804.0852 804.6524
   804.6524 804.9099 804.9099 804.9447 806.6961 807.8879 807.8879 808.0534
   808.3060 808.3060 808.5775 808.5775 808.7729 809.2390 809.2390 809.2658
   810.6031 810.7438 810.7438 811.0055 811.0055 811.0621 813.1952 814.2509
   814.2509 818.1240 818.2950 818.2950 819.6735 819.7945 819.7945 820.6078
   820.6078 820.6198 822.7366 823.5005 823.5005 823.9171 823.9171 823.9620
   830.3637 831.0380 831.0380 832.7956 833.5369 834.2081 834.2081 834.2272
   836.2252 836.2252 838.7499 838.7499 838.8230 838.8230 839.7317 839.8038
   841.3475 841.3475 843.6317 843.6317 843.7402 844.5353 845.3509 845.3509
   847.0220 847.0220 847.0867 849.9138 850.8662 850.8662 851.4950 851.5105
   851.5105 851.5328 851.6194 851.6194 856.0748 856.1468 856.1468 857.5787
   859.3243 859.3243 861.9281 861.9281 862.0030 862.2458 862.8703 862.8703
   866.1850 866.1850 866.2143 873.0673 874.3901 874.3901 874.7377 874.7377
   874.8039 874.8932 875.1646 875.1646 875.3083 875.3083 875.3137 877.4023
   878.1924 878.1924 881.8281 882.3130 882.3130 885.2695 885.4852 885.4852
   885.5047 886.2406 887.6387 887.6387 888.1140 888.3891 888.3891 888.6113
   888.6113 888.6214 890.0935 890.0935 890.1197 890.1197 890.2572 891.2764
   892.2187 892.2187 893.0887 893.0887 893.1920 900.7395 902.2206 902.2206
   902.2488 902.5166 902.5166 902.7829 902.7829 902.7907 904.1278 904.4775
   904.4775 904.5186 905.1813 905.1813 906.0904 906.0904 906.3289 908.3514
   908.5217 908.5217 908.8395 908.8395 908.9061 909.8094 910.1913 910.1913
   910.5372 910.5577 910.5577 910.9037 912.0959 912.0959 914.6504 916.0774
   916.0774 916.3419 916.3419 916.3699 916.5620 919.4150 920.4658 920.4658
   920.9007 920.9007 921.0767 921.4379 921.7559 921.7559 921.9685 921.9685
   921.9759 923.9516 924.3252 924.3252 925.1917 925.5600 925.5600 926.0685
   926.0685 926.0866 927.2037 927.2037 927.2227 929.7481 930.3587 930.3587
   930.6423 930.6806 930.6806 930.8574 931.0688 931.0688 931.4134 931.4134
   931.4344 934.1991 934.8424 934.8424 935.0803 935.0803 935.0912 935.4683
   935.6004 935.6004 939.9716 940.1579 940.1579 944.0522 944.5393 944.5393
   944.7444 944.7444 944.7515 947.1906 947.8316 947.8316 950.6144 950.6144
   950.6325 953.5207 954.0312 954.0312 954.2588 954.2588 954.2682 957.8182
   958.6035 958.6035 958.7555 958.7555 958.7990 961.1604 962.6436 962.6436
   962.6786 963.0933 963.0933 963.2323 963.2920 963.3431 963.3431 963.4767
   963.4767 963.7098 963.7098 963.7487 965.8146 966.9830 966.9830 967.2752
   967.2752 967.3023 970.6780 971.4249 971.4249 972.2562 972.4267 972.4267
   972.6797 972.7437 972.7437 975.2387 975.9379 975.9379 976.5899 977.1588
   977.1588 977.5400 977.5400 977.5594 977.6798 977.7836 977.7836 978.0827
   978.0827 978.0844 981.4908 981.9319 981.9319 982.0818 982.0818 982.0840
   983.7896 984.8860 985.0331 985.0331 986.2858 986.2858 986.6428 986.9602
   986.9602 987.3538 987.8313 987.8313 988.0636 988.9334 989.7759 989.7759
   990.6252 990.6252 992.4054 992.4054 992.4736 992.8728 992.8728 993.1462
   993.6156 997.3490 997.3490 997.9443 998.5763 998.57631001.68581001.6858
  1001.70711002.47991003.94101003.94101004.41501004.41501004.52221005.2681
  1005.38501005.38501005.63571005.63571005.67921008.50281009.23761009.2376

          k =-0.3750 0.3750-0.3750 (  2440 PWs)   bands (ev):

   -43.5939  -2.6220   6.9478  14.5993  17.0084  17.0084  20.5474  20.5474
    26.3952  32.2658  32.2658  34.1178  41.9307  43.5625  43.5625  46.2900
    48.1717  48.1717  51.3833  63.4217  63.5180  63.5180  66.6752  68.3677
    68.3677  71.9099  71.9099  72.9544  73.0901  76.3367  76.3367  79.0350
    79.0350  79.9978  86.8585  91.9495  91.9495  92.5082  94.1608  94.1608
    94.6617  99.6471  99.6471 101.1819 104.5906 104.5906 109.5691 114.5314
   115.9923 115.9923 118.3231 118.3231 119.1341 121.0175 121.0175 121.8768
   121.9045 122.7551 122.7551 125.0712 125.0712 131.2931 132.7997 135.3832
   135.3832 137.3474 137.3474 138.4885 140.2260 140.2260 142.0984 142.0984
   142.8599 148.6221 153.6147 161.4108 161.8483 161.8483 165.3678 165.3678
   165.6766 165.9112 165.9112 167.0673 167.9824 167.9824 169.7677 169.7677
   170.1180 170.8104 172.4784 172.4784 177.1853 178.9881 178.9881 181.8380
   181.8380 181.9138 183.5092 186.8004 189.7920 189.7920 193.2282 193.2282
   193.4362 193.7678 194.7283 195.2857 195.2857 197.4691 197.4691 197.7264
   197.7264 197.9809 203.2234 207.6077 207.6077 209.6401 211.2697 211.2697
   213.9650 213.9650 214.2524 214.8081 219.0446 219.1205 219.1205 220.2365
   220.2365 220.3031 221.8852 222.5697 222.5697 224.5362 224.5362 225.5736
   225.9142 225.9142 226.7245 226.7329 226.7329 227.6542 227.6542 227.6835
   234.1298 238.0167 238.0167 244.2066 246.5555 246.5555 249.2064 249.2064
   249.3425 249.3902 257.3683 257.3683 259.3043 260.6594 260.6594 260.9849
   261.6010 263.5023 263.5023 266.2040 266.2040 268.8260 268.8260 269.1085
   270.9134 271.9548 272.3974 272.3974 274.8807 274.8807 275.0057 277.1057
   277.1057 279.3331 281.4193 281.4193 282.2771 283.9483 283.9483 284.0972
   287.1217 287.1217 289.7020 289.7020 290.0570 292.1000 293.0222 293.0222
   293.9345 293.9345 294.1359 296.2525 297.5452 297.5452 298.6713 300.1542
   300.1542 301.2144 301.2144 301.4649 307.9888 310.3772 311.2151 311.2151
   313.1554 313.9361 313.9361 314.2477 314.2477 314.3802 315.7724 316.2278
   316.2278 316.4920 316.9807 316.9807 316.9877 319.1861 319.1861 319.2820
   321.4348 321.4348 325.7779 327.2182 327.2182 330.4073 330.4073 330.5078
   333.7237 336.7074 336.7074 337.0313 338.4537 338.4537 340.8900 342.0780
   342.0780 342.2249 342.5027 342.5027 343.6972 343.6972 343.8057 344.3860
   345.0833 345.0833 347.2862 347.2862 347.3555 348.0445 349.9020 349.9020
   356.8202 359.4421 359.5420 359.5420 362.9324 362.9324 363.0733 363.5766
   364.4925 364.5392 364.5392 365.0829 365.0829 365.1862 368.5989 368.5989
   370.9466 371.7708 371.7708 372.6221 372.9128 372.9128 374.2363 374.2967
   374.2967 381.4229 384.8587 384.8587 387.0116 387.0116 387.0475 387.7225
   389.5955 389.5955 390.6200 391.6320 391.9608 391.9608 393.7174 393.7174
   393.8950 395.0321 395.0321 398.1191 398.1191 398.1986 398.3545 401.8404
   403.0302 403.0302 403.3801 403.3801 404.1047 406.2926 406.2926 407.0814
   407.9078 407.9078 409.5126 410.2883 410.2883 412.1142 412.1142 412.2519
   414.7826 415.2003 415.2003 419.4664 420.2501 420.4768 420.4768 420.9675
   420.9675 421.9918 423.3119 423.3119 423.7721 423.7721 423.8440 425.9697
   425.9697 426.1625 429.0724 429.5773 430.2330 430.2330 433.1858 433.1858
   433.2863 433.5094 433.5094 435.8403 435.8403 436.5990 436.9009 437.1167
   437.1167 446.5907 447.9458 447.9458 448.5721 448.5721 448.6975 450.4867
   456.5293 456.5293 457.0665 459.4729 459.4729 461.0324 462.0266 462.0266
   462.9666 462.9666 463.0580 463.7444 463.7444 463.7971 465.1861 466.2974
   466.4386 466.4386 467.0280 467.0280 467.1340 467.3717 467.3717 469.1104
   470.1525 470.1525 470.3274 471.2046 471.3906 471.3906 474.7244 474.7244
   475.6972 476.8482 476.8482 477.7658 478.3887 478.3887 478.9745 478.9745
   479.0280 482.4239 483.1143 483.1143 483.6285 483.6285 483.7382 488.2752
   489.3450 489.3450 490.3280 490.3280 490.3902 493.7267 494.2146 494.2146
   494.8735 494.8735 494.9399 496.3614 496.9226 496.9226 502.6144 504.3539
   504.3539 508.9575 509.7342 509.7342 510.9283 510.9283 511.0034 514.5232
   515.8233 515.8233 516.8618 516.8618 516.9319 517.3098 518.8527 518.8527
   519.3976 519.4788 519.4788 519.6444 519.6444 519.6675 521.5759 521.5759
   521.6997 522.9485 523.7358 523.7358 524.4151 524.4151 524.4692 526.3356
   526.5360 526.5842 526.5842 526.6746 526.8215 526.8215 526.8337 529.7099
   529.7099 530.0659 531.6983 533.2495 533.2495 533.6244 533.6244 534.6155
   535.1646 535.1646 535.2489 535.4142 535.4142 543.3924 545.2550 545.2550
   546.1894 546.1894 546.2637 546.9326 547.7465 547.7465 549.1168 550.2264
   550.2264 551.8870 551.8870 552.0445 556.5359 558.0575 558.0575 561.1546
   561.1546 561.2731 562.0963 564.0234 564.0234 565.5006 565.5006 565.8430
   567.8477 568.0527 568.0527 568.5045 568.5045 568.5800 570.3965 571.1286
   571.1286 571.8251 571.8251 571.8887 572.0971 572.8962 572.8962 575.4597
   575.4597 575.5348 579.3578 580.7885 581.1865 581.1865 581.4916 581.4916
   581.5399 582.1160 582.1160 583.7768 583.7768 583.9330 584.9730 585.6725
   585.6725 586.6543 586.6543 586.8926 588.9848 589.1578 589.1578 589.4896
   589.4896 589.5401 589.5607 594.4538 594.9769 594.9769 596.8694 599.6603
   600.9809 600.9809 601.6333 601.6333 603.4891 603.4891 604.2956 605.3602
   605.3602 605.5333 605.7747 607.0010 607.3213 607.3213 608.1600 608.1600
   608.8728 608.8728 609.0263 610.8115 611.2564 611.2564 611.6169 611.6169
   611.6713 613.2513 613.4243 613.4243 615.6092 615.7581 615.7581 616.9826
   617.4293 617.4293 619.8290 619.8290 619.8957 620.8938 622.2482 622.2482
   624.5770 624.5770 624.7069 627.3727 627.5562 627.5562 633.8016 634.3057
   634.6106 634.6106 638.3860 638.3860 638.5253 638.9312 638.9312 643.2246
   643.7166 643.7166 646.3734 647.1673 647.1673 655.6464 657.1308 657.1308
   657.8153 657.8153 657.9825 658.5185 659.7733 659.7733 660.5213 663.9130
   663.9130 664.2388 664.9097 664.9097 666.1906 666.1906 666.2765 666.4176
   666.4176 667.2268 667.8215 668.5092 668.5092 668.8673 669.3872 669.3872
   669.5269 670.3089 670.3089 670.9500 671.1873 671.1873 672.7507 673.0732
   673.1242 673.1242 673.2178 673.2178 673.4810 673.4810 673.5038 673.7063
   673.7063 673.7575 678.8259 680.2494 680.2494 682.7197 682.7197 682.8526
   687.0732 687.8238 687.8238 688.5785 688.5785 688.6139 689.3955 690.0828
   690.0828 690.4788 690.7716 690.7716 690.7994 691.0445 691.0445 695.1726
   695.4539 695.4539 697.1525 698.0661 698.0661 700.3289 700.9534 700.9534
   701.0476 701.2896 701.2896 701.3973 701.9768 701.9768 702.0048 703.7852
   704.4423 704.4423 705.4533 705.4533 705.7180 705.9293 705.9293 707.3837
   707.6664 707.6664 707.9668 708.1211 708.1211 708.2812 709.1938 709.1938
   709.7421 709.7421 709.8351 710.4945 711.6067 711.6067 712.5903 712.8916
   712.8916 713.6497 713.6497 713.6743 715.9010 716.0168 716.0168 716.3149
   716.3149 716.3462 718.1707 718.7559 718.7559 719.1125 719.1125 719.1373
   721.3392 721.4595 721.4595 722.5602 723.2659 723.2659 723.4901 723.4901
   723.5368 724.5533 729.1799 729.1799 729.6201 729.9247 729.9247 733.9549
   734.0950 734.0950 734.6954 734.6954 734.7169 736.9007 737.5506 737.5506
   737.7310 737.7310 737.7827 748.4264 750.1503 750.1503 750.4712 751.3142
   751.3142 751.4028 751.4028 751.5694 754.3837 754.3837 754.4828 759.4691
   759.9585 759.9585 760.7355 761.2164 761.2164 763.1378 763.3569 763.3569
   764.1664 764.1664 764.1875 766.4893 766.4893 766.5127 766.5458 767.6180
   767.6180 767.8023 767.8397 767.8397 767.8744 768.7011 768.8800 768.8800
   769.2437 769.2437 769.6646 769.6646 769.6791 773.1405 773.1405 773.2168
   774.0193 774.8614 774.8614 775.1152 775.1809 775.1809 778.0642 778.1176
   778.1176 778.1388 779.1616 779.1616 784.1813 785.3715 785.3715 786.0701
   786.5559 786.5559 787.5390 787.5390 787.6997 789.7390 789.7390 789.7611
   791.9104 792.2042 792.2042 793.6275 794.3465 794.3465 794.6281 794.6281
   794.6417 795.2003 795.2003 795.2269 796.3869 799.7374 801.3698 801.3698
   801.4968 802.6049 802.6049 803.7721 804.2081 804.2081 804.7669 804.7669
   804.7961 808.2405 808.5023 808.5023 811.0177 811.0177 811.0320 811.7949
   812.8539 812.8539 814.2701 814.2701 814.3781 815.7857 816.7526 816.7526
   819.6664 820.6837 820.6837 821.0044 821.0044 821.0549 824.4205 825.1093
   825.1093 825.5514 825.5514 825.7221 825.8333 826.8313 826.8313 828.0803
   829.5182 829.5182 830.2075 830.9009 830.9009 831.4344 831.4344 831.5062
   831.5080 831.5080 831.7367 833.7348 833.8847 833.8847 834.1490 834.1490
   834.2088 834.4470 834.6393 834.6393 835.0996 835.0996 835.1247 841.7789
   842.4838 842.4838 845.6914 845.6914 845.7104 847.0556 847.2838 847.2838
   848.5399 849.1231 849.1231 849.4322 849.4322 849.4721 851.2005 852.6284
   852.6284 854.9468 855.0001 855.0001 855.1847 855.6393 855.6393 855.9633
   855.9633 856.0373 856.4970 857.0635 857.0635 867.1593 868.1358 868.1358
   869.7015 871.3432 871.3432 871.3624 871.7906 872.3751 872.3751 873.0888
   873.0888 873.3369 874.7178 874.7497 874.7497 875.6249 875.6249 876.2607
   876.6303 876.6303 876.7813 876.9869 876.9869 876.9912 878.5084 878.5084
   878.6185 878.7065 879.4996 879.4996 880.2191 880.2191 880.2444 880.3246
   880.3246 880.5892 882.5708 882.7514 882.7514 883.0575 883.0575 883.1339
   886.6724 887.9000 887.9000 888.3464 888.3464 888.5158 890.2272 890.4754
   890.4754 890.7280 890.7280 890.7333 893.0526 893.4389 893.4389 893.6359
   893.6359 893.6465 897.2113 897.8202 897.8202 898.0239 898.0239 898.0355
   902.2181 902.7776 902.7776 903.1255 903.1255 903.1587 904.6482 905.1620
   905.1620 907.1088 907.6106 907.6106 910.0118 910.0118 910.1482 910.2589
   910.3366 910.3366 910.7395 910.7395 910.7632 912.9822 914.1123 914.1123
   914.2394 914.2394 914.2708 916.5071 916.6702 916.6702 919.3295 920.3007
   920.3007 920.9871 920.9871 921.0807 924.7154 925.7267 925.9784 925.9784
   926.1988 926.1988 926.2035 929.5804 929.5804 931.9671 932.8638 932.8638
   933.1051 933.1051 933.1201 933.9844 934.3800 934.3800 936.5278 936.8232
   936.8232 936.8719 937.2123 937.2123 937.5052 937.5052 937.5110 939.2031
   939.5363 939.5363 939.8192 939.8432 939.8432 941.2337 941.8413 941.8413
   941.9937 941.9937 942.0146 945.6888 946.0610 946.5068 946.5068 946.9536
   946.9536 946.9703 947.4219 947.4219 948.0332 950.2051 950.2051 950.6115
   951.2112 951.2112 953.1949 953.1949 953.8933 956.6874 957.6435 957.6435
   957.9589 957.9589 957.9796 959.8802 960.4529 960.4529 960.7338 960.8002
   960.8002 964.3911 965.1134 965.1134 965.3926 965.3926 965.4567 965.5471
   965.6868 965.6868 965.8490 965.8490 965.8845 965.9396 966.3054 966.3054
   969.1409 969.1409 969.1566 971.3458 972.3079 972.3079 972.6594 972.6594
   972.7513 972.8163 972.9404 972.9404 973.1828 973.1828 973.2014 977.8952
   978.7719 978.7719 979.3016 979.3016 979.3841 981.3181 981.7295 981.7295
   981.8727 981.8727 981.9162 989.7869 990.6890 990.6890 991.1670 991.1670
   991.1840 992.7465 993.3778 993.3778 993.5390 993.5390 993.5525 996.0526
   996.8149 996.81491000.73721001.67751001.67751001.86131002.81271002.8127
  1004.27171004.27171004.33301004.86961005.86331005.86331006.56121008.2276
  1008.69071008.69071008.75231008.75231008.76561011.12781011.12781011.9036
  1013.24931013.24931013.72851013.72851013.83511014.39191014.55021014.5502

          k = 0.5000-0.5000 0.5000 (  2452 PWs)   bands (ev):

   -43.5873  -1.9765   5.5221  14.2350  17.0787  17.0787  19.6593  19.6593
    27.9598  33.0973  37.1445  37.1445  37.8980  37.8980  44.2788  47.9971
    55.0865  55.0865  55.5449  56.0058  56.0058  56.2819  63.5844  69.5510
    69.5510  71.2600  73.9964  73.9964  74.2496  74.2496  75.6019  75.8346
    75.8346  76.4770  87.6740  92.1996  92.2253  92.2253  93.0112  93.0112
    99.3112 105.1426 108.0933 109.1952 109.1952 109.9906 110.2969 110.2969
   112.0218 112.0218 112.3496 112.3496 121.1606 124.0190 127.0656 127.0656
   128.1013 128.1013 129.3279 130.1584 130.1820 130.1820 130.6889 130.6889
   131.3848 131.3848 131.3955 131.3955 131.8974 131.9958 144.6304 145.9183
   149.9365 149.9365 149.9954 149.9954 153.9136 161.9505 161.9505 164.6776
   165.4975 165.4975 166.6594 166.7603 167.2454 167.8231 167.8231 168.7319
   168.7319 169.0979 177.3043 182.1999 182.4359 182.4359 183.6080 184.1976
   184.1976 184.8341 184.8341 185.4489 185.4583 185.4583 187.0613 187.1494
   187.1494 187.3147 187.3147 187.4066 198.8630 201.4856 202.2804 202.2804
   202.9526 202.9526 205.3816 205.3816 205.4429 205.4429 205.5436 205.7932
   214.5207 219.4285 220.7378 220.7378 222.1174 222.1174 222.2591 222.3229
   222.8671 222.8671 222.8964 222.8964 223.1919 223.8945 223.8945 224.3183
   224.3183 224.4517 232.1980 233.7377 239.4371 239.4371 239.4783 239.8820
   239.8820 240.2410 242.7687 242.7687 242.7707 242.7707 243.4906 243.4906
   243.5103 243.5103 243.7330 243.7349 254.9282 258.3885 258.5482 258.5482
   259.3073 259.3073 261.5698 261.5698 261.6304 261.6304 261.7274 261.7351
   269.4830 274.3949 275.7662 275.7662 277.3772 277.3772 278.8706 278.8706
   278.9234 278.9234 279.1311 279.2200 287.6626 292.7372 292.9745 292.9745
   294.4426 294.9294 295.4972 295.4972 295.9409 296.2008 296.2008 296.2111
   296.4185 296.4185 297.4379 297.9631 297.9631 298.4590 298.4590 298.5976
   298.7172 298.7172 298.7943 298.7943 298.8761 298.9633 298.9663 298.9663
   298.9741 298.9741 312.1035 314.1325 314.1325 314.3903 315.0169 315.0169
   315.8057 316.0032 316.7297 316.7297 316.7700 316.7700 317.4443 317.4950
   317.4950 317.7381 317.7381 317.9246 329.6437 331.9482 332.1412 332.1412
   332.9382 332.9382 334.5151 334.6467 335.8176 335.8176 335.8515 335.9080
   335.9080 336.0529 346.2253 350.0025 350.0025 350.3134 351.3460 351.3460
   352.8097 353.3213 353.3213 353.3704 353.3704 353.4081 353.5475 353.8954
   353.8954 354.1148 354.1756 354.1756 355.2276 355.2276 355.2454 355.3224
   355.3224 355.4055 367.1601 368.5575 371.2307 371.2307 371.4438 371.4438
   380.5628 384.6410 386.5076 386.5076 387.3485 388.0298 388.0298 389.0834
   389.2773 389.2773 389.2965 389.2965 390.4667 390.6029 390.6029 390.6374
   390.6374 390.6468 391.4798 391.5436 391.6059 391.6059 391.6265 391.6265
   391.9538 391.9538 391.9847 391.9847 392.0003 392.0116 403.4562 404.9227
   406.3027 406.5654 406.5654 406.7869 407.4756 407.4756 408.7285 408.7285
   408.7561 408.7561 409.2486 409.3623 409.3623 409.3792 409.3888 409.3888
   410.4922 410.4922 410.5092 410.5092 410.5653 410.5859 410.9862 410.9862
   410.9970 410.9970 411.7265 411.7289 423.7474 423.9308 427.9035 428.1600
   428.1600 428.3017 428.4493 428.4493 429.3544 429.3544 429.3701 429.3701
   440.2518 442.8829 443.6014 443.6014 444.0984 444.8002 444.8002 445.2105
   445.2397 445.2397 445.2875 445.2875 447.4727 447.5183 447.5774 447.5774
   447.5995 447.5995 448.0144 448.0144 448.0668 448.0668 448.2883 448.3011
   459.1102 461.0267 461.0267 463.1334 463.1334 463.3192 463.3300 465.1401
   465.1401 465.2626 465.4406 465.4406 465.5685 465.6207 465.6207 465.7662
   465.7742 465.7742 465.8522 465.9373 465.9373 466.1380 466.1380 466.2545
   481.0967 482.2702 482.2702 483.1278 483.3561 483.4574 483.4574 484.1122
   484.1976 484.1976 484.2401 484.2401 484.2598 484.2598 484.3199 484.4284
   484.4284 484.4533 496.8785 497.2977 500.3145 500.7352 500.8868 500.8868
   501.8308 501.8308 502.2929 502.2929 502.3354 502.3354 502.4411 502.4411
   502.4431 502.4431 502.4522 502.5369 502.5581 502.6522 504.3488 504.3488
   504.3494 504.3494 515.4976 516.7488 516.7488 517.1112 518.4436 518.4436
   519.2654 520.1217 520.1523 520.1523 520.1595 520.1595 520.4276 521.0475
   521.0475 521.3787 521.3787 521.5554 521.9532 522.0542 522.0542 522.1216
   522.1216 522.1278 523.1500 523.2241 523.2241 523.3596 523.3596 523.4253
   536.2436 536.6799 537.7826 537.7826 538.1926 538.1926 540.9152 540.9152
   540.9625 540.9625 541.0314 541.0711 554.1041 554.8617 556.2769 556.4034
   556.4034 557.3904 557.3904 557.9351 558.2096 558.2096 558.2972 558.3275
   558.3275 558.3517 558.5505 558.5505 558.5971 558.5971 558.6399 558.6401
   559.0233 559.0233 559.0590 559.0590 559.1527 559.1730 571.3713 571.7524
   572.6882 573.4116 573.4116 574.3891 574.5623 574.5623 574.6608 574.6608
   574.9101 574.9101 575.6159 575.6159 575.6482 575.6482 575.8670 575.9805
   577.1310 577.4489 577.9639 578.0273 578.0387 578.0387 578.0429 578.0429
   578.1631 578.1631 578.1866 578.1866 578.2234 578.2234 578.2379 578.2379
   578.3533 578.3686 578.5393 578.5393 578.5712 578.6100 578.6100 578.7018
   593.8479 593.9192 594.3039 594.3039 594.7251 594.7251 595.0876 595.7636
   595.7636 595.8211 595.9078 595.9078 596.0256 596.0996 596.1013 596.1013
   596.1029 596.1029 597.2873 597.2873 597.2986 597.2986 597.3409 597.3614
   613.0056 613.4408 613.5927 613.5927 614.1001 614.1001 614.5531 614.6474
   614.6474 614.6506 614.6506 614.6557 627.1617 628.1887 629.8239 631.2769
   631.2769 631.6862 631.7275 631.7275 632.5397 632.5397 632.6868 632.6868
   632.8421 632.8421 632.8620 632.8620 632.9443 632.9600 632.9757 632.9757
   633.0162 633.0479 633.0802 633.0802 634.5973 634.5973 634.5997 634.5997
   635.3694 635.3696 648.6280 649.7719 650.6562 650.6562 650.8186 650.8256
   650.8256 651.1409 651.1409 651.1857 651.4588 651.4588 653.1991 653.1991
   653.2006 653.2006 653.3305 653.3309 665.1285 666.3355 666.3355 666.4700
   667.2396 667.5409 668.0820 668.0820 668.1825 668.8686 668.8686 668.9826
   668.9826 668.9957 670.4319 670.8950 670.8950 671.0195 671.0195 671.0779
   671.7153 671.7153 671.7223 671.7223 683.8598 684.9710 684.9710 685.0821
   686.3141 686.6197 686.6197 687.1158 687.1158 687.2565 687.2565 687.6803
   688.1447 688.2474 688.4236 688.4236 688.4344 688.5842 688.5842 688.7157
   688.7440 688.7440 688.8780 688.8780 689.2952 689.3200 689.3200 689.3792
   689.3792 689.4353 689.4386 689.5625 689.5625 689.5833 689.6193 689.6193
   690.2484 690.2833 690.2833 690.3306 690.3306 690.3568 690.7341 690.7341
   690.7407 690.7407 690.7464 690.7558 705.6533 706.2321 706.2321 706.4742
   706.8348 706.8348 707.3830 707.3871 707.3871 707.4264 707.4264 707.4703
   707.7028 708.1516 708.1516 708.2143 708.2143 708.2455 721.5515 723.7373
   723.8040 723.8040 724.3294 724.3294 724.8774 724.8774 725.0508 725.3422
   725.3422 725.4674 725.4751 725.6088 725.6088 725.7020 725.7020 725.7243
   725.8382 726.9572 726.9572 727.1495 727.1495 727.2713 727.2713 727.2732
   727.2826 727.2826 727.3560 727.3620 727.4237 727.4872 727.4872 727.5827
   727.5827 727.6275 742.4436 743.9921 744.1008 744.3711 744.3711 744.6654
   744.6654 744.6859 744.7361 744.9125 744.9586 744.9586 744.9689 744.9689
   744.9845 744.9845 745.0643 745.0643 745.1918 745.1918 745.2069 745.2075
   745.2075 745.2753 758.8728 760.3240 761.4563 761.6074 761.6074 761.9542
   762.0173 762.0173 764.8356 764.8356 764.8449 764.8449 764.8903 764.8903
   764.9090 764.9090 764.9120 764.9291 776.2394 779.5618 779.5618 780.0525
   780.1433 780.2303 780.2303 780.7516 781.0787 781.0787 781.1636 781.1636
   781.7367 781.7587 781.7587 781.7623 781.7623 781.8275 781.9589 781.9589
   781.9707 781.9755 781.9755 781.9977 782.4078 782.4078 782.4161 782.4161
   782.5559 782.5800 783.5209 783.5237 783.5237 783.5664 783.5664 783.5944
   795.1190 797.6654 797.6654 797.6962 797.9601 797.9601 799.0180 799.7023
   799.7023 799.8369 799.8369 799.8652 800.8597 801.4469 801.5323 801.5323
   801.5386 801.5386 801.8702 801.8702 801.8821 801.8821 801.9472 801.9485
   802.3559 802.3559 802.3568 802.3698 802.3698 802.3946 815.7851 817.9150
   818.3952 818.3952 818.5464 818.5464 818.7306 818.9297 818.9297 819.1202
   819.1202 819.1279 819.4710 819.4805 819.4805 819.4916 819.4916 819.5529
   820.8343 820.8343 820.8382 820.8382 820.9957 820.9963 833.0552 836.1850
   836.2183 836.2183 836.5231 836.5913 836.5913 837.2395 837.4408 837.7596
   837.7596 837.8768 837.8768 837.9012 838.0847 838.0847 838.1151 838.1151
   838.1161 838.1443 838.2986 838.2986 838.3039 838.3039 838.3225 838.3639
   851.1351 853.5195 853.7434 853.7434 854.2791 854.5184 854.5184 854.8617
   854.8617 854.9520 854.9520 855.0036 855.4716 855.6594 855.6594 855.6677
   855.6677 855.9240 855.9933 856.1167 856.2803 856.2803 856.2853 856.2853
   856.4597 856.4803 856.5162 856.5162 856.5395 856.5395 857.8989 857.9034
   857.9429 857.9429 857.9625 857.9625 857.9983 857.9998 857.9998 858.0196
   858.0196 858.0346 858.3244 858.3244 858.3268 858.3268 858.3484 858.3515
   874.1455 875.3900 875.3900 875.4352 875.4452 875.5134 875.5134 875.7150
   875.7150 875.7279 875.7279 875.8099 875.8461 875.8549 875.8879 875.8879
   875.8896 875.8896 889.0458 890.9844 890.9844 891.5895 891.5895 891.6250
   892.8402 893.2769 893.2769 893.3162 893.3162 893.3356 893.4944 894.0578
   894.0578 894.0737 894.0737 894.0800 894.7025 894.9358 894.9358 894.9697
   894.9697 895.0163 895.0318 895.0318 895.0376 895.0376 895.0423 895.0495
   906.5407 908.2015 908.4825 909.8206 909.8206 910.3045 910.3045 910.3055
   910.3055 910.3730 910.4041 910.4041 910.4191 911.5200 912.1066 912.4586
   912.4586 912.5097 912.5097 912.6244 912.6244 912.6754 912.6754 912.7804
   912.8717 912.8766 912.8766 912.9978 912.9978 913.0180 913.3742 913.4781
   913.4781 913.5073 913.5073 913.5217 913.6844 913.6844 913.6921 913.6921
   913.9032 913.9040 914.7116 914.7116 914.7120 914.7120 915.1746 915.1747
   930.1691 930.9402 930.9402 931.1812 931.2140 931.2140 931.2381 931.4956
   931.4956 931.5941 931.5941 931.6329 944.1785 948.5664 948.5664 948.9841
   949.0245 949.0889 949.0889 949.2201 949.2231 949.2231 949.2337 949.2337
   949.4884 949.4913 949.4913 949.5013 949.5013 949.5953 949.6743 949.6743
   949.7017 949.7017 949.7958 949.8087 949.8169 949.8217 949.8541 949.8648
   949.8648 949.8795 949.8795 950.0185 950.0185 950.1010 950.1010 950.1553
   963.2382 965.5937 966.1347 967.0317 967.0317 967.3665 967.4219 967.5469
   967.5469 967.5471 967.5497 967.5497 967.5810 967.5810 967.6914 967.8062
   967.8062 967.8956 967.9753 967.9753 968.0506 968.2571 968.2571 968.2885
   968.2885 968.3278 968.5878 968.6079 968.6079 968.6778 968.6778 968.7186
   969.0130 969.3257 969.3257 969.4755 969.4755 969.6722 969.6819 969.8513
   969.8513 969.9119 969.9119 969.9172 969.9172 969.9826 969.9826 970.0220
   970.1096 970.1096 970.1139 970.1139 970.1532 970.1595 984.2805 985.5679
   985.5679 985.7015 985.7089 985.7089 988.5013 988.5013 988.5134 988.5207
   988.5207 988.54281003.31201005.20561005.20561005.34441005.43821005.4942
  1005.49421005.52841005.52841005.53481005.53481005.54071005.56721006.0841
  1006.08411006.13471006.16691006.16691006.22701006.22701006.26191006.2619
  1006.27031006.27941018.52721022.78661022.78661022.96511022.97821023.0209

          k = 0.0000 0.2500 0.0000 (  2437 PWs)   bands (ev):

   -43.6237  -4.4095  14.8319  16.2443  16.2443  19.3045  19.7822  25.2356
    26.3313  26.3313  29.2197  30.0121  30.0121  32.0594  38.6297  45.0262
    57.4257  57.4257  60.1498  60.3484  66.5275  66.5275  67.1492  67.9654
    72.8204  76.8547  76.8547  78.7462  80.8066  81.2199  81.2199  85.0261
    86.0002  86.0002  89.2725  91.9445  92.9527  93.2776  93.2776  93.8298
    93.8966  95.7846  95.7846  96.5340  98.0571  98.0571 100.0579 101.9227
   102.8698 102.8698 103.3554 103.6369 110.5900 110.5900 111.0663 112.9934
   114.2489 114.2489 115.0761 120.6243 131.4937 140.2339 140.2339 141.4643
   143.5536 151.3460 151.3460 155.1045 155.1858 157.0587 157.3423 158.6289
   158.6289 159.2199 160.8529 160.8529 161.3821 162.6905 163.7048 163.7048
   164.6517 167.2626 169.2019 169.2019 170.0138 170.3522 173.5801 173.5801
   174.6951 176.1630 177.7009 177.7009 178.3609 178.5851 179.9324 180.2877
   180.2877 180.8996 181.1636 181.1636 183.1185 185.8180 186.7040 186.7040
   187.0027 187.1785 188.6723 188.6723 189.0840 193.4198 194.5748 197.5072
   197.5072 198.3638 198.3638 198.5241 200.0646 204.3122 206.0038 206.0038
   206.8683 208.3167 208.7157 208.7157 209.0272 210.5855 219.3204 222.2394
   222.2394 223.5605 223.5605 224.8923 224.9160 226.1192 226.8740 227.2864
   227.2864 227.6392 229.6838 229.6838 230.6748 233.1153 234.3578 234.7783
   234.7783 235.6390 235.6390 235.7927 236.2741 242.0833 242.1431 242.1431
   242.2806 245.9170 247.4866 247.4866 247.9627 251.6301 251.7303 251.7303
   251.8996 255.0741 258.3892 258.3892 258.7127 261.1052 265.5169 269.0441
   269.0441 271.4638 271.4638 271.5367 272.2894 280.6443 288.6171 289.2069
   289.2069 290.4780 291.9415 291.9415 294.8096 297.3581 297.8795 298.4614
   298.4614 298.9958 299.1116 301.4799 301.4799 302.8298 303.9921 306.6356
   306.7108 306.7108 306.7237 307.5570 308.1076 308.1076 308.8648 308.8648
   309.1635 309.5033 309.9778 310.9573 311.2543 311.2543 311.3829 311.3829
   311.5860 312.1387 315.4424 315.4595 315.4595 315.5366 318.8135 319.4989
   319.4989 319.6882 319.8555 322.2499 322.2499 323.2351 324.8340 325.0286
   325.0286 325.3190 325.5955 327.0384 327.0384 327.6095 327.9001 330.0707
   330.0707 330.7035 332.7470 335.3209 335.3624 335.4185 335.4185 335.6740
   337.1217 337.1217 337.4229 337.5578 338.0060 338.0060 339.8034 339.8563
   339.8563 342.0600 343.8868 344.2981 345.0407 345.0407 345.5992 346.2067
   346.2067 346.9639 348.2094 348.5756 348.5756 348.8458 353.5046 355.1444
   355.1444 355.2969 355.7981 362.9192 364.3604 364.3604 365.1757 365.8053
   365.9712 365.9712 366.0389 366.4712 369.3458 369.3458 369.9120 373.5351
   374.6280 374.9627 374.9627 375.1855 375.3740 375.3740 376.0757 377.2113
   378.2110 378.2110 378.7362 380.8965 380.9431 380.9431 381.0219 387.9810
   391.9023 392.8884 392.8884 393.6349 393.8863 393.8863 394.1473 394.3294
   394.3294 394.4043 395.7159 401.5479 404.7582 404.7582 405.8164 408.6922
   408.7428 408.7428 408.8481 410.6109 411.7801 411.7801 412.3599 412.8554
   413.0360 413.0360 413.1139 416.1890 417.1422 417.1422 417.3075 419.5860
   421.2243 421.2243 421.5786 424.9631 429.0361 431.1262 431.1262 431.8863
   436.5474 436.5474 437.7037 439.2828 440.8211 440.8211 441.7134 447.1062
   447.2654 447.3463 447.3463 447.4863 449.1898 449.1898 449.6978 452.5194
   456.0568 456.0568 457.2905 458.3032 458.4098 458.6391 458.6391 458.7917
   458.9685 458.9685 459.3239 462.1097 462.2013 462.2013 462.4624 465.8531
   465.8661 465.8661 465.8985 470.0833 470.9473 470.9473 471.4026 472.5249
   472.7911 472.7911 472.8873 474.3579 475.4763 475.4914 475.4914 475.5263
   475.7055 475.7055 476.1051 478.6737 478.6874 478.6874 478.7328 482.0330
   483.3952 484.8194 484.8194 485.8507 487.5699 487.5699 487.7510 488.1884
   488.1884 488.3671 488.4995 493.2880 493.6493 493.8609 493.9439 493.9439
   494.0831 495.1071 495.1071 495.1161 495.8319 495.8319 495.9392 496.0472
   496.3513 496.6411 496.6411 496.7433 501.5901 501.9614 501.9614 503.5546
   504.1822 504.1822 504.5279 504.5536 504.6324 505.4130 505.4130 505.7439
   506.9437 506.9437 506.9540 506.9666 507.1147 507.1147 509.6628 511.8125
   512.8687 512.8687 513.3908 515.4172 517.1412 517.1412 517.9472 520.5595
   520.6195 520.7254 520.7254 520.8712 521.8155 521.8155 522.4987 524.6024
   525.2235 525.2235 525.2593 525.3297 525.6232 525.6232 526.0893 528.8714
   528.8989 528.8989 528.9660 531.2090 531.2162 531.2162 531.2496 531.3203
   532.5983 532.5983 533.2359 533.7837 533.9853 533.9853 534.0764 536.1415
   537.0091 537.0091 537.5689 537.6582 537.7927 537.7927 537.9206 540.2165
   541.5964 541.5964 542.1567 543.9578 544.3108 544.3108 544.5820 545.6989
   546.9682 546.9682 547.6730 547.7397 548.0137 548.0137 548.1507 550.4292
   552.9151 554.0611 554.0611 554.4782 556.3694 556.4108 556.4377 556.4377
   559.3317 559.3327 559.3327 559.3381 563.2536 564.8564 564.8564 565.2656
   567.4091 567.4477 567.4477 567.5077 570.0311 572.8023 572.8023 574.9613
   577.2316 578.1716 578.1716 578.6436 581.9645 584.4216 584.4216 584.4836
   584.7782 587.2514 587.7097 587.7097 588.2723 589.6164 589.6164 591.4262
   596.5428 597.7357 597.7357 598.1894 601.6484 602.2924 602.2924 602.9744
   603.1878 603.3534 603.3534 603.5037 605.9567 606.9757 606.9757 607.2206
   609.3748 609.4068 609.4068 609.4577 615.4297 616.1764 616.1764 616.6188
   623.7342 624.9668 625.1708 625.1708 625.6740 625.8577 626.7443 626.7780
   626.7780 626.8429 626.8429 626.8956 627.5954 629.5712 630.5213 630.5213
   631.0909 631.2354 631.4233 631.4233 631.5631 634.4610 635.0788 635.0788
   635.3605 635.5181 635.9554 635.9554 636.0517 641.4496 642.9963 642.9963
   643.4331 646.6258 646.6345 646.6345 646.6579 648.5251 649.6671 649.6671
   649.9196 651.9757 653.3513 653.8356 653.8356 654.3723 654.6361 654.9572
   654.9572 655.0916 655.1432 655.1886 655.1886 655.2687 655.5392 655.5392
   656.2073 659.6240 661.5202 661.6254 661.6254 661.7872 662.8097 662.8568
   662.8568 663.1622 664.1657 664.1657 665.0922 665.8901 665.8901 665.9829
   666.2003 668.2897 668.3910 668.3910 668.4383 670.9896 671.0116 671.0116
   671.0387 671.0509 672.5078 672.5078 672.6490 672.9413 672.9512 672.9512
   673.2414 673.7860 673.8124 673.8124 673.8219 673.8616 673.9760 673.9760
   674.0412 682.6309 683.5213 683.5213 684.1996 688.1225 688.1715 688.1715
   688.2440 690.0566 690.9799 690.9799 691.2788 691.5879 692.0901 692.0901
   692.1402 695.5232 695.8473 695.8473 696.0329 698.0966 698.1297 698.1297
   698.1754 699.4949 699.8869 700.8807 700.8807 701.2953 701.4190 701.4190
   702.1396 708.3840 710.2100 710.3477 710.3477 710.5404 711.1812 711.1812
   711.8032 714.9077 715.0644 715.0644 715.0855 715.8096 717.6278 717.6498
   717.6498 717.6793 718.9167 719.2942 719.2942 719.4937 721.3449 722.1301
   722.1301 722.3859 725.6197 725.6197 726.8029 726.8649 726.8649 726.9544
   726.9751 728.1898 728.6915 728.6915 729.1321 729.7067 729.8856 729.8856
   729.9563 730.4551 731.5133 731.5133 732.0107 734.8852 734.9501 734.9501
   734.9873 735.0322 737.3087 737.3087 737.4851 737.6014 737.6014 737.9572
   738.0540 738.2245 738.2758 738.2758 738.3065 739.6764 740.0588 740.0588
   740.3306 741.7991 742.4217 742.4217 742.8725 743.0783 743.2265 743.2265
   743.3736 750.5432 751.0113 751.0113 751.3062 753.7458 753.7721 753.7721
   753.8749 754.5885 755.6145 755.6145 756.0952 756.3935 756.6212 756.7472
   756.7472 756.8136 757.1628 757.1628 757.2904 757.4530 757.5456 757.5456
   757.6305 764.0368 764.0481 764.0481 764.0595 765.9416 766.4730 766.4730
   766.6484 766.9251 766.9473 766.9473 766.9681 769.2677 769.5141 769.5141
   769.6673 773.6886 773.6886 773.6909 773.6919 774.0480 775.4017 775.4017
   775.8241 777.3963 778.0826 778.0826 778.4882 781.3109 781.3579 781.3579
   781.4416 781.7669 783.0784 783.0784 783.3073 784.1373 784.7502 784.7502
   784.9740 785.2721 785.3268 785.3268 785.3641 786.4386 786.4483 786.4483
   786.4652 788.3793 789.1521 789.1521 789.4491 789.6596 789.8093 789.8093
   789.9357 792.2776 793.9204 794.2673 794.2673 794.4367 794.6559 794.6890
   794.6890 794.6996 795.1951 795.2373 795.2373 795.2850 796.2215 796.2215
   796.6249 797.7388 797.7388 798.0037 798.5693 800.4658 800.5045 800.5045
   800.5478 800.8462 800.9599 801.8355 801.8355 802.3224 809.4885 809.4885
   809.9540 811.8343 811.8343 811.9884 812.5025 814.1685 814.5597 814.5597
   814.8429 822.6455 823.6689 823.6689 824.0168 829.3410 829.3480 829.3480
   829.3576 830.3116 830.9918 830.9918 831.1171 834.6396 835.3472 835.3472
   835.7531 835.7909 835.8790 835.8790 835.8918 839.4287 839.9539 839.9539
   840.0511 842.3453 842.3564 842.3564 842.3758 845.0273 845.6079 845.6079
   845.8091 846.2080 846.2382 846.2382 846.2537 849.3781 850.1059 850.1059
   850.2716 852.3017 852.6134 852.6134 852.7405 857.5537 857.5644 857.5644
   857.5708 867.1352 868.3277 868.3277 868.6433 868.9457 869.0098 869.0098
   869.0566 871.6339 873.4092 873.4092 873.7269 875.5926 877.2702 878.1104
   879.0429 879.0429 879.3400 880.0907 880.0907 882.2310 882.3229 882.4440
   882.4600 882.4600 884.7215 885.4309 885.4483 885.4483 885.4737 885.7155
   885.7155 885.9172 886.2039 887.1787 887.1787 887.3625 890.4250 890.9903
   890.9903 891.1347 893.5034 893.5489 893.5489 893.6030 896.1846 896.6913
   896.6913 896.7880 900.5193 901.3593 901.3593 901.5908 901.7095 901.7665
   901.7665 901.7825 904.7655 905.5856 905.5856 905.8870 906.2265 906.2834
   906.2834 906.3240 909.0025 909.4190 909.4190 909.6598 910.9274 915.7637
   915.7637 917.6220 918.7056 920.0344 920.0344 920.2008 920.2364 922.9088
   922.9088 923.3456 923.6689 923.7124 923.8119 923.8119 923.9707 924.1368
   924.1368 924.3123 924.4626 924.6846 924.6846 924.8219 925.0742 925.2727
   925.2727 925.3561 925.9777 926.0280 926.0280 926.0853 928.2159 929.0790
   929.0790 929.3893 929.4855 929.5967 929.5967 929.6291 933.4063 933.8800
   933.8800 934.0293 934.7776 934.8102 934.8102 934.8601 936.0203 936.9106
   936.9106 937.0862 940.1673 940.2227 940.2227 940.2869 942.8349 944.0428
   944.4894 944.4894 944.6533 945.3627 945.3627 945.7761 948.0026 948.3364
   948.4055 948.4055 949.5093 950.5145 950.6353 950.6353 950.6950 950.7006
   950.7006 950.7141 950.7796 951.1623 951.1623 951.5584 951.8339 951.9901
   952.0296 952.0808 952.0808 952.3322 952.4705 952.4705 952.5189 953.1117
   953.1117 953.8120 954.1806 954.2235 954.2235 954.2714 956.2947 957.1239
   957.1368 957.1368 957.4471 957.4818 957.6103 957.6103 957.7044 957.7044
   957.7641 957.8464 960.4520 961.2221 961.2221 961.3626 961.7081 961.9914
   961.9914 962.1373 962.3627 962.3627 962.3790 962.3881 963.9365 964.2679
   964.2679 964.3477 969.3299 969.3490 969.3623 969.3623 969.3691 969.9846
   969.9846 970.1334 970.3376 971.0734 971.2796 971.2796 971.2989 971.4884
   971.5311 971.5311 971.5424 972.7868 972.8293 972.8293 972.8760 975.4100
   975.8997 975.8997 975.9928 983.4199 984.4592 984.4592 984.6785 984.9126
   984.9126 984.9163 984.9214 988.1696 989.2741 989.2741 989.4863 989.6532
   989.8515 989.8515 989.8992 990.3883 990.4536 990.4536 990.5432 990.7606
   990.7606 990.7635 990.7778 994.6501 995.0776 995.0776 995.1695 995.4851
   995.4870 995.4870 995.4941 998.2608 999.1301 999.1301 999.4627 999.9310
  1000.09801000.09801000.14341003.70911004.20411004.20411004.26901004.7462

          k =-0.1250 0.3750-0.1250 (  2439 PWs)   bands (ev):

   -43.6109  -3.7690  11.6551  14.4959  15.1088  18.6066  20.6203  24.0642
    26.6997  28.0600  30.1755  31.8594  35.3604  36.6424  41.7241  45.0286
    50.5796  53.6474  57.7670  59.9402  60.9415  66.4720  67.3626  72.4328
    74.4767  75.6832  75.7061  77.1313  78.4957  79.8624  81.2538  82.4262
    83.4191  85.0646  85.5468  88.0960  88.8484  91.0430  91.3213  92.0634
    93.1732  94.7534  97.8978  99.2824  99.8097 100.5457 101.1974 104.3933
   107.7467 108.7872 110.8758 112.6675 113.0471 114.8032 117.0968 118.2574
   118.9139 120.1383 123.5909 126.2160 129.1301 132.5711 134.2641 140.2091
   141.7631 145.6882 146.0380 147.3386 148.8000 148.9255 150.8119 151.7247
   153.7213 155.0958 155.9917 156.7978 158.3701 159.2302 160.3161 161.3631
   162.8696 163.0532 165.2638 167.4986 167.5127 171.7843 173.4866 174.7396
   175.7146 175.7669 177.4751 177.9642 179.1717 179.5812 182.1430 183.5769
   184.7202 184.9131 185.5189 187.1371 187.9466 188.3629 188.9225 189.4049
   189.4600 191.0930 192.8905 194.2588 195.0085 195.9679 197.6731 198.8718
   198.9893 200.1516 200.3435 201.5440 202.8385 203.4978 203.9585 204.8390
   208.1738 208.5053 209.7636 210.2282 211.4787 211.7169 214.2447 214.7429
   215.9819 216.8728 218.7766 219.0107 219.0234 221.3903 224.3165 224.5907
   225.8557 226.4166 229.8704 230.0151 234.0665 236.0789 236.2846 236.8779
   237.6279 238.1527 241.6626 244.0597 244.1792 244.6099 245.0034 245.5220
   245.8879 247.0110 251.0211 252.3101 252.9067 253.3666 254.3154 254.9928
   259.6687 261.0716 264.4940 266.4278 266.8398 267.4916 267.8320 271.0294
   271.7544 272.2578 272.7934 275.3844 279.1657 279.9933 280.9458 281.0506
   281.6945 282.1224 284.0744 284.3754 286.0884 286.7746 287.5663 288.7453
   289.0111 289.3930 290.0502 290.9661 291.2465 291.6043 294.3793 295.6343
   295.9331 296.4096 296.5668 297.4165 301.6966 304.6885 305.4037 306.8152
   306.9791 307.9174 308.0304 308.0804 309.1966 309.5434 310.3331 312.6512
   313.5003 314.0595 314.1740 314.6356 315.4794 315.5591 317.0014 317.2745
   317.5631 317.6515 320.9483 321.2112 322.1323 323.6671 325.1479 325.8946
   326.0608 327.8826 328.5801 328.6356 330.6789 331.7498 331.8328 332.7255
   332.8326 332.8558 334.3872 336.4442 338.0219 339.2439 341.1342 341.5695
   342.7499 343.1799 343.2274 344.1999 344.2746 344.5025 346.1841 346.9130
   347.2420 347.9443 348.0195 348.9638 350.8212 351.1515 352.4284 352.8178
   353.0445 353.4985 355.2832 356.1553 356.3534 356.5191 356.7999 357.8119
   358.1427 358.7696 359.3570 360.5218 362.0523 362.3548 362.4860 362.5691
   364.4782 365.3498 365.9891 366.3405 366.4030 366.7257 368.4084 368.7274
   369.4321 370.6042 370.9072 371.0864 371.7537 372.7846 373.5164 375.3932
   375.5605 378.2813 378.4571 380.6100 380.8099 384.0192 385.0642 390.2697
   392.8400 393.6221 394.2539 394.3543 394.5732 397.8620 398.6051 399.2982
   399.3310 399.9822 401.0399 405.0368 406.3733 407.7759 408.2042 408.7416
   409.0218 410.5166 410.8034 411.5258 412.7509 412.9196 414.5183 415.3796
   417.1942 418.2496 419.4885 419.9083 419.9887 421.4919 424.9778 425.6482
   426.4066 426.4299 427.0385 427.2958 427.3986 428.9116 429.7265 430.7577
   431.5780 434.5683 435.1317 436.2470 436.3163 436.4783 436.7688 437.2666
   439.3734 440.3414 440.5913 441.3286 443.5442 445.0233 445.5374 446.0429
   446.1157 448.6449 448.7780 449.0157 449.3384 449.4555 451.8744 454.0847
   455.1724 456.2044 456.4942 457.0595 457.4579 460.0967 460.2367 461.1831
   463.2921 463.4221 463.4554 464.1179 467.2215 468.2347 468.4717 468.9164
   469.0418 469.5034 471.0524 472.3568 472.6918 473.2918 476.5772 476.6919
   477.2013 477.9689 478.3686 478.7533 478.8504 480.0370 480.4456 481.1708
   481.5654 482.6513 482.8971 484.2001 485.4298 485.6681 485.8336 487.3064
   487.8848 488.3400 489.1900 489.2814 489.5647 490.6342 491.1075 491.5468
   491.8376 492.4804 495.4564 495.7615 495.8739 496.0224 496.0556 496.3009
   497.0723 497.5347 497.6073 498.2043 498.9946 499.2356 500.7127 501.7935
   502.1878 502.9557 503.9689 504.0989 504.2300 504.3500 505.9948 506.1840
   506.6526 506.6862 506.8616 506.9116 507.7225 509.8426 509.8603 510.2942
   511.0095 511.3447 511.4419 512.6647 513.3070 513.3347 513.4562 517.8375
   518.4247 518.8760 519.3578 519.6945 520.3529 522.4502 522.5753 523.4401
   523.6292 524.1935 524.3989 524.8864 525.3444 525.4496 526.5629 526.7797
   527.1411 527.4935 527.9551 528.7900 529.0661 529.8516 532.8089 533.9772
   534.0721 534.5429 534.6577 534.8059 535.2796 540.1954 541.3043 541.4580
   542.1710 542.2808 542.4988 544.8920 545.0872 545.2909 545.5113 545.6545
   546.1819 550.2124 551.8023 551.8637 552.1404 552.3502 553.4463 553.4971
   554.2440 554.8758 558.2129 558.8760 559.6924 560.0643 560.1241 561.4886
   561.5283 562.4877 562.7671 562.8748 562.9652 564.3156 564.4713 566.3915
[...]
   542.3171 542.4923 542.6870 542.7354 542.8995 542.9231 543.6886 544.1807
   546.7849 546.9270 549.8638 549.8684 555.4553 555.7935 556.5396 557.1282
   557.2533 559.4230 559.6356 559.7043 560.2976 563.7314 563.9750 564.9884
   565.2520 565.4070 565.4255 565.8490 568.8238 569.4704 571.1047 571.1900
   572.3930 573.2618 575.3201 575.5671 575.6548 575.8458 577.8733 577.9268
   577.9342 578.8588 579.4751 579.6492 579.6970 579.7906 583.1890 583.9411
   584.2641 584.3851 584.5187 584.5918 585.3129 585.3455 585.8748 586.9703
   588.2836 588.7569 589.1352 589.3087 589.3465 589.4930 589.5410 589.7328
   590.9994 591.5826 593.7926 594.2059 594.9312 596.4656 596.4699 596.8091
   596.8521 597.2771 598.1112 598.2686 598.3958 598.8187 600.9454 600.9808
   600.9832 601.3541 601.7385 602.2524 602.5624 602.6858 602.8092 603.0941
   603.7752 603.9586 605.6186 605.6261 607.6225 607.8321 607.9209 608.0286
   611.0127 611.0419 613.1287 613.2783 613.3803 613.4205 615.2693 615.2777
   615.6758 615.9906 616.5403 616.8880 617.3549 617.4327 620.9395 621.5755
   621.9942 622.0399 623.4953 623.6965 625.3237 626.0037 626.6223 626.6681
   626.7318 626.8490 627.0428 627.0966 629.1370 629.1444 630.0101 630.9379
   631.0018 631.1959 631.3312 631.5429 631.5793 631.6211 631.7567 635.0039
   635.7181 637.5428 637.7917 638.6844 640.9145 641.1357 642.0893 642.3807
   643.1489 643.1553 644.6360 644.6662 645.0304 645.1424 647.4995 647.7018
   647.7135 647.7482 647.7535 648.9382 649.7394 650.0286 650.4117 650.4818
   654.0952 654.2119 655.2001 655.2289 657.9348 658.7749 658.8018 658.9630
   659.1132 659.1244 664.8943 665.1334 667.9357 668.0711 668.3317 668.3853
   668.4921 668.6049 668.8717 668.8893 668.9598 670.9155 670.9259 671.3135
   671.3726 672.5320 672.6860 672.8020 673.0326 673.0413 673.5559 673.7683
   675.5323 675.9113 676.8335 676.9296 677.4049 677.4423 681.4633 682.0599
   682.1213 682.2833 685.7593 686.4642 687.1203 687.1493 687.6046 687.6472
   687.8001 687.8241 691.3050 691.6033 691.7917 691.8870 693.9802 694.1751
   695.5694 695.6248 696.0555 696.3840 696.3943 696.4945 697.0838 697.1792
   697.1992 697.5347 699.1273 699.1321 700.8210 701.0240 701.4810 701.4965
   703.6471 703.6479 704.9525 705.4567 707.0490 707.8105 709.5423 710.2137
   710.8756 713.0029 713.0036 713.3403 714.3563 714.9772 715.2204 715.7439
   715.7668 717.5878 718.7047 719.1830 719.6107 719.7488 719.8290 719.9033
   720.0313 720.0464 726.3876 726.5628 727.9661 728.4160 728.6391 728.8060
   728.8421 728.9566 729.0524 729.1117 731.7163 731.7203 737.5792 738.3135
   738.4379 738.5389 741.3224 742.2086 742.5950 742.6006 743.2330 743.2591
   743.5100 743.5262 745.8492 746.3962 746.8997 747.6012 748.2421 748.2528
   748.4311 750.3224 750.4223 750.5078 751.9521 752.2880 753.0824 753.1489
   754.7462 755.1285 755.2539 755.3272 758.8100 759.5365 761.6757 761.7902
   762.9996 763.6403 764.2096 764.2126 765.7657 765.7971 766.1209 766.2340
   768.9137 768.9216 769.6967 770.5460 770.7344 770.8702 770.9171 771.0243
   771.3418 771.3458 774.3285 774.6943 775.3124 775.5270 775.9243 775.9404
   781.4631 782.4120 782.6655 782.8354 783.2780 783.5129 783.7455 784.0194
   784.5569 784.6962 784.7291 785.0769 785.4439 785.4592 785.4600 785.5794
   786.5395 787.3519 787.6273 787.6332 788.5394 788.6582 789.1183 789.4712
   789.5512 789.5579 789.9996 790.0207 793.4999 793.8219 794.3332 794.4002
   794.7766 794.8283 794.8475 797.9381 798.6103 798.7949 798.8748 798.9035
   798.9586 799.2981 799.3609 799.7723 799.7985 800.1612 800.1676 801.4582
   802.8853 803.0594 803.5130 803.5624 805.2869 805.5650 808.2044 808.5409
   808.6876 808.7382 810.8814 810.8865 811.4497 811.8270 812.1027 812.3244
   812.6220 812.7457 813.3588 813.3931 813.8612 813.8717 816.4427 817.2218
   817.3126 817.4142 817.4745 817.4816 821.0696 821.7915 821.8427 821.8719
   822.0272 822.0360 822.8225 822.8761 823.4648 823.9053 825.4476 826.0100
   826.2283 826.2848 826.2917 826.7850 827.4582 827.6512 829.4715 829.4761
   830.3671 830.7298 831.3309 831.4076 831.9837 832.0238 832.4568 832.4670
   832.5973 834.5593 835.7849 836.1972 836.4907 836.5056 836.8466 836.9917
   837.0709 837.0805 838.6264 839.0097 840.3853 840.4339 840.9358 840.9613
   844.9273 845.2524 848.7576 849.0890 849.9228 850.0277 850.1999 850.2569
   850.7212 850.7421 851.5737 852.6582 853.6655 854.0406 854.4970 854.6235
   854.6571 854.7413 854.9341 854.9536 855.3190 855.3830 855.7303 855.7422
   857.5435 857.5467 858.0034 858.8018 859.2567 859.5482 860.0580 860.1106
   861.2304 861.7356 863.9383 864.5140 864.5942 864.6386 866.8289 866.8330
   867.9669 868.5222 868.6909 868.7675 868.8902 868.9282 868.9950 869.0179
   872.6103 872.8253 873.0138 873.4393 877.5560 877.6912 880.7321 881.9475
   882.3472 882.4139 882.7091 882.7304 882.7672 882.7887 883.2067 883.2783
   883.3905 883.6691 883.6807 889.9945 891.8470 892.2349 892.3409 892.3866
   892.6997 893.2446 895.5105 896.1658 896.3381 896.4450 896.5514 896.5806
   897.2403 897.2831 899.3231 899.3282 899.9233 900.5928 900.8711 900.9083
   901.1753 901.4957 901.8205 901.8247 903.5980 903.6957 905.1810 905.6850
   905.9062 905.9685 908.5935 908.6060 909.4743 910.2202 910.5153 910.6568
   911.3547 911.4258 911.4626 911.5161 911.5170 911.5401 911.5842 911.5873
   914.1765 914.6043 915.0997 915.1311 915.3704 915.4161 915.8522 915.9141
   916.2558 916.2712 919.3579 919.7359 919.9284 919.9631 921.0292 923.0308
   923.7932 924.5042 924.6068 924.6573 925.1605 925.1830 925.2741 925.2852
   927.1503 927.5379 928.8240 929.4926 929.7901 929.8046 929.8665 930.0136
   933.0674 933.7528 933.8313 933.9061 933.9295 934.0053 936.5854 936.5911
   937.0177 937.9297 938.0458 938.1212 938.8737 939.1457 939.3952 939.5221
   941.1340 941.1424 942.6262 943.0642 943.3465 943.3649 945.0710 945.5882
   946.6216 946.7394 950.7042 950.7096 950.8055 950.8088 951.0890 952.0963
   952.3208 952.4597 952.5526 952.6025 952.6588 952.6787 953.1182 953.1517
   953.6752 953.6813 956.5945 956.8712 957.8416 958.4411 959.5371 959.7347
   961.5111 961.9489 962.1541 962.3272 962.4021 962.4360 964.5603 964.5684
   964.6250 964.6320 966.2699 966.6861 966.8353 966.8489 968.8090 969.0109
   970.5655 970.8908 971.2221 971.2412 973.8334 973.8437 974.3556 975.7309
   975.7548 975.9352 976.7422 976.7913 976.8090 976.8236 976.8740 977.8907
   977.9806 980.7048 980.8123 981.0330 981.0375 983.1941 983.2452 983.2520
   984.3462 984.9691 985.0665 985.0978 989.5586 989.7220 989.8393 989.8598
   992.8642 994.0533 994.5747 994.6000 994.6560 994.7487 994.9383 994.9425
   995.1303 995.1710 995.5873 995.6010 998.2549 999.1496 999.87311000.0452
  1000.46411000.85421003.61011003.79581006.41931006.42981007.15711007.9065
  1007.91131008.24331008.36941008.51421008.52971008.54811008.58221008.6445
  1012.12191012.56951012.87611012.91861014.34591016.21041018.79441019.6868

          k =-0.5000-1.0000 0.0000 (  2400 PWs)   bands (ev):

   -43.5733   0.4025   5.9012   5.9012  12.3693  18.2021  24.6703  24.6703
    28.6384  36.6115  37.1431  37.1431  43.1297  43.4684  43.4684  44.3186
    50.0037  53.9306  57.0390  57.6038  57.6038  58.9428  61.9736  61.9736
    62.4527  62.4900  62.4900  62.6142  72.8752  77.0639  77.1854  77.1854
    85.8960  91.6626  93.4737  93.4737  96.0353  97.5131  97.6937  97.6937
    99.3082  99.3082  99.6304  99.8080 106.7945 110.8567 113.0871 113.0871
   113.3965 114.6240 115.4588 116.6470 116.6470 117.1560 118.2109 118.2109
   127.4929 132.7687 132.7687 132.9935 133.4856 134.3695 134.3695 134.7884
   134.8430 135.1603 135.1603 135.2996 143.8210 146.7324 148.0271 148.0271
   149.7755 150.5788 151.5454 151.5454 155.1840 155.1895 155.1895 155.5410
   155.5410 155.5829 155.6944 155.8387 164.8949 168.6656 168.6656 168.8609
   169.9931 171.5013 171.8078 171.8078 171.8745 171.8745 171.9622 172.1206
   174.4115 174.4300 174.4300 174.5051 182.9329 185.2796 189.2585 189.3363
   189.5750 189.5750 192.7522 192.7522 200.3962 204.9508 205.2336 205.2336
   211.2693 211.2693 211.3363 211.3707 214.5479 222.0793 222.0793 222.5308
   223.8384 224.7399 225.4582 225.5693 225.5693 226.9339 226.9339 227.2993
   227.6015 227.7768 227.8651 227.8651 227.8668 228.0785 228.0785 228.2845
   228.4193 228.5113 228.5113 228.5503 230.1805 230.1805 230.4671 230.4868
   241.9203 244.7999 244.7999 244.8764 246.2163 246.2163 246.3844 246.6494
   246.7101 246.8047 246.8969 246.8969 255.5881 259.5515 260.2383 260.2383
   262.8762 263.7568 263.8363 263.8363 265.0136 265.0136 265.0848 265.1244
   265.1837 265.2133 265.4416 265.4416 267.4240 267.4240 267.4240 267.4241
   276.3383 278.6023 280.6337 281.1879 281.1879 281.4071 282.7063 282.7063
   282.8604 282.8999 283.0655 283.5852 283.5852 283.6540 284.3662 284.3662
   284.4465 284.5804 284.7360 285.0020 285.0020 285.0576 285.9289 285.9289
   299.1047 300.4007 301.6644 301.6644 302.4768 302.4768 302.6938 302.7517
   312.9658 315.6999 318.8796 318.8796 319.2943 319.9593 319.9593 320.0521
   321.2686 321.2686 321.3710 321.3871 323.0497 323.0497 323.4889 323.4953
   327.9489 332.3662 332.3662 332.9852 334.8280 336.4805 336.4805 336.6062
   338.3657 338.7008 338.9902 338.9902 339.2386 339.2386 339.4241 339.4717
   340.0822 340.1129 340.1556 340.1556 341.7245 341.7569 341.7569 341.7994
   342.0263 342.0616 342.0616 342.0878 354.2336 355.5472 355.5731 355.5731
   357.3041 357.4167 357.9362 357.9362 360.6145 360.6177 360.6177 360.6438
   368.9971 372.7607 372.7607 374.4257 374.9229 376.1715 376.1715 376.4031
   376.9296 377.0593 377.1017 377.1017 377.3380 377.5715 377.5715 377.6877
   386.9924 388.9166 391.7805 391.7805 392.2139 392.2286 393.9016 394.2836
   394.7459 394.7459 395.2279 395.2279 395.2688 395.5284 395.6885 395.7147
   395.7147 395.7415 395.9355 395.9355 396.0363 396.0534 397.7981 397.7981
   397.8326 397.8614 397.8614 397.8899 408.2813 410.1899 411.5121 411.5121
   412.9159 412.9159 413.3374 413.3985 413.5013 413.5845 413.8151 413.8151
   414.1796 414.1796 414.3501 414.3648 414.4829 414.5099 414.5844 414.5844
   425.6918 427.3100 428.6639 428.8342 428.8342 429.6802 430.8259 430.8259
   431.1452 431.2647 431.2647 431.6350 431.7877 431.9689 431.9708 431.9708
   432.9717 433.4329 433.4329 433.6203 433.8206 433.9199 433.9199 433.9906
   435.0199 435.0199 435.0416 435.0766 435.1587 435.1587 435.4370 435.4376
   446.2346 447.4605 447.4605 447.9302 449.2287 450.0718 450.0718 450.1245
   451.1151 451.3886 451.4847 451.4847 451.6635 451.6635 451.7358 451.7361
   454.0348 454.0357 454.0375 454.0375 466.7020 468.2821 468.2821 468.5773
   469.0296 469.5845 469.7891 469.7891 469.8923 469.9742 470.0179 470.0286
   470.0286 470.2126 470.2126 470.3402 484.8135 485.7446 486.3697 486.3697
   488.0068 488.0068 488.0517 488.1714 488.1956 488.4155 488.4981 488.4981
   488.9614 488.9614 488.9675 489.0015 501.4845 502.5814 504.6806 504.6806
   505.0631 505.8338 505.8338 506.4627 506.5519 506.5655 506.6896 506.6896
   506.8093 507.1382 507.1828 507.1828 507.4455 507.5801 507.6053 507.6053
   507.6725 507.8485 507.8958 507.8958 507.9513 507.9848 508.0343 508.0343
   508.4146 508.4146 508.5628 508.5739 520.8832 520.9459 521.7068 522.3073
   522.3073 522.3474 525.2770 525.3521 525.4030 525.4030 525.9250 525.9454
   525.9454 525.9501 528.2364 528.2364 528.2939 528.3058 528.3058 528.3216
   540.1531 540.4053 541.3471 541.3471 542.6846 543.5667 543.6138 543.6138
   544.2464 544.3737 544.5312 544.5312 544.7694 544.7694 544.8315 544.8822
   545.0062 545.0062 545.0293 545.0421 547.2140 547.2152 547.2214 547.2214
   558.1932 558.3432 559.5288 559.5288 560.1203 560.7607 561.1820 561.3421
   561.3421 562.6547 562.6547 562.7627 562.7678 562.8141 562.8700 562.8700
   562.9692 563.1355 563.1355 563.2636 563.8684 563.9925 563.9925 564.0459
   565.4560 565.4560 565.8217 565.8264 581.0465 581.1941 581.1941 581.2773
   581.7183 582.0324 582.0324 582.0920 593.8190 594.2449 594.4092 594.4092
   597.5342 598.4098 598.5177 598.5177 598.8477 599.1546 599.2396 599.2396
   599.3773 599.8048 599.9047 599.9047 599.9868 600.0394 600.2057 600.2225
   600.2225 600.3122 600.3122 600.3383 601.0425 601.1050 601.1647 601.1647
   601.7073 601.7332 601.7332 601.7783 602.8442 602.8522 602.8522 602.8594
   613.1702 613.3577 613.8970 613.8970 615.2328 616.9422 616.9422 617.0872
   617.6500 617.7150 617.7966 617.7966 618.2618 618.4863 618.4863 618.5068
   618.5130 618.5360 618.7461 618.7461 618.9449 618.9449 619.1615 619.1691
   619.6353 619.7972 619.8109 619.8144 619.8144 619.9651 619.9651 620.0075
   620.3800 620.3870 620.3870 620.3951 621.4225 621.4310 621.4310 621.4525
   621.6936 621.7109 621.7109 621.7155 635.7001 636.6591 636.8921 637.1763
   637.1763 637.2036 637.4304 637.4304 638.0872 638.0872 638.2768 638.3041
   651.8459 652.9160 652.9493 652.9493 654.5045 654.5893 654.8071 654.8071
   655.0099 655.6283 655.6283 655.7409 655.7429 656.1899 656.2862 656.2862
   656.4012 656.4118 656.4118 656.4609 656.4609 656.4668 656.4676 656.5266
   657.0191 657.0191 657.0255 657.0948 658.7779 658.7860 658.7860 658.8080
   669.8845 670.3895 670.6299 672.1737 672.1737 672.2670 673.4760 673.4760
   673.6518 673.6752 674.2865 674.2865 674.3340 674.3449 674.3693 674.7260
   674.7260 674.7337 675.0695 675.1018 675.1018 675.1500 675.2029 675.2683
   675.2683 675.3255 675.7119 675.7554 675.7554 675.7804 677.4192 677.4192
   677.5046 677.5122 677.5122 677.5145 691.7825 692.7298 692.7298 692.8037
   693.5191 693.5191 693.5302 693.5925 694.1236 694.1456 694.1456 694.1748
   694.2304 694.2452 694.2757 694.2757 707.0607 708.5761 709.2455 709.5678
   709.5678 709.6980 710.3869 710.3869 711.5413 711.7650 711.7650 711.8379
   712.1651 712.1651 712.2093 712.2346 714.5576 714.5576 714.8219 714.8241
   714.8241 714.8359 714.9376 714.9379 725.5762 726.3251 726.3251 726.4337
   729.0918 730.6475 730.6475 730.7585 730.9487 730.9487 730.9670 731.0216
   731.0277 731.1067 731.1165 731.1165 733.3617 733.3753 733.3753 733.3776
   745.0367 747.1520 747.6507 747.6507 747.7737 748.3005 748.5712 748.5712
   748.6578 748.6578 748.6635 748.9680 749.1642 749.1652 749.1725 749.1725
   749.3665 749.3666 749.4113 749.4113 749.7021 749.7199 749.8593 749.8593
   750.1209 750.1209 750.1304 750.2060 765.2173 766.6961 766.6961 766.9947
   767.1001 767.9100 767.9334 767.9334 768.0546 768.0546 768.0883 768.0909
   768.2900 768.3034 768.3552 768.3552 768.6366 768.6366 768.6581 768.6893
   780.3001 782.5535 782.5535 783.4845 784.0753 784.1358 784.1358 784.1739
   784.5931 785.0552 785.1506 785.1506 785.5280 785.7215 785.8111 785.9977
   785.9977 786.0301 786.1466 786.2821 786.2821 786.3670 786.3727 786.3727
   786.4778 786.4778 786.4909 786.6348 786.8441 787.0181 787.0181 787.0707
   787.0875 787.2058 787.2327 787.3667 787.3667 787.4203 787.4203 787.4789
   787.5108 787.5108 787.7141 787.7591 787.7913 787.8186 787.8186 787.9456
   788.0260 788.1389 788.1389 788.1934 789.3365 789.3365 789.3380 789.3463
   803.0055 804.4208 804.4208 804.7898 805.1420 805.1915 805.1915 805.2375
   805.3297 805.3497 805.3497 805.3576 805.4703 805.4770 805.4972 805.4972
   805.5987 805.6333 805.6394 805.6394 805.8574 805.9834 805.9834 806.0432
   806.3681 806.3718 806.3718 806.3778 820.3030 821.4173 821.5749 821.5749
   822.8056 823.3795 823.3795 823.5961 823.6785 823.6883 823.6883 823.7018
   826.6386 826.6451 826.6466 826.6466 836.3555 838.8157 839.8976 840.4202
   840.4202 841.0792 841.2038 841.4155 841.4824 841.4824 841.5994 841.8736
   841.9513 841.9513 842.1665 842.5150 842.5150 842.5487 842.7335 842.7753
   842.7753 842.7854 843.0903 843.0941 843.0992 843.0992 843.3816 843.5019
   843.5097 843.5097 843.5331 843.5916 843.5916 843.6055 843.9965 844.0174
   844.0174 844.0362 845.1457 845.1457 856.5446 858.0699 858.0699 858.1984
   860.2346 860.2346 860.3363 860.5253 860.6994 861.3027 861.3027 861.3119
   861.3277 861.5669 861.5669 861.5817 863.8196 863.8257 863.8274 863.8274
   874.0947 876.5830 876.7765 876.7765 876.9248 877.0166 877.7964 878.2044
   878.2044 879.2353 879.2353 879.4396 879.5102 879.5963 879.5963 879.6038
   879.6175 879.9192 879.9192 879.9345 880.1945 880.1945 880.2222 880.2843
   880.2870 880.3163 880.3240 880.3240 880.3409 880.3925 880.3925 880.4244
   882.3151 882.3151 882.6932 882.6958 882.7349 882.7359 882.7374 882.7374
   893.7880 896.5314 896.7098 896.7098 897.2010 897.3256 897.3256 897.3295
   897.5674 897.5674 897.5693 897.6620 897.6752 897.6752 897.7673 897.8267
   898.2616 898.4089 898.5297 898.5297 898.8034 898.8034 898.8309 898.8332
   898.8687 898.9402 898.9402 898.9515 898.9892 898.9920 899.0008 899.0008
   899.4626 899.4750 899.4750 899.4843 899.5468 899.5958 899.5958 899.6892
   899.7576 899.7740 899.8561 899.8561 916.1006 916.9253 917.1049 917.1049
   917.3918 917.5660 917.5660 917.6639 917.6851 917.6923 917.6923 917.7169
   928.6855 931.3788 931.3788 931.7262 934.1303 934.2267 934.3963 934.3963
   934.6071 935.0392 935.0392 935.0598 935.0908 935.4913 935.4913 935.5539
   935.6002 935.6894 935.6894 935.7127 935.8604 935.8881 935.8950 935.8950
   936.5480 936.6880 936.7491 936.7491 937.2512 937.2512 937.2791 937.2931
   938.3176 938.3186 938.3186 938.3283 950.1760 952.1076 952.1076 952.2717
   952.6287 953.6189 953.8226 953.8226 953.9366 953.9645 953.9895 953.9895
   954.0418 954.0836 954.3251 954.3251 954.5569 954.5611 954.5611 954.5771
   954.5834 954.6026 954.6026 954.6175 954.6952 954.8418 954.8418 954.8658
   955.0219 955.0242 955.0242 955.0346 955.0466 955.0466 955.2056 955.2119
   957.1690 957.1690 957.1692 957.1720 970.5379 972.2896 972.3307 972.3307
   972.4309 972.5368 972.5368 972.5936 972.9454 972.9454 972.9780 973.0151
   973.5171 973.5177 973.5540 973.5540 974.0131 974.0296 974.0296 974.0626
   985.0117 987.6784 987.6784 987.8871 988.6318 989.1137 989.2712 989.2712
   989.7763 989.7828 989.7828 989.7943 991.5228 991.8907 991.8907 991.9106
   991.9954 991.9954 992.0206 992.0269 994.1505 994.1505 994.1541 994.1600
   994.3895 994.3908 994.3970 994.3970 994.4380 994.4380 994.4429 994.4498
  1005.79521007.33501007.33501007.43451007.46981008.82731008.82731009.0857
  1009.08611009.16611009.17371009.17371009.18381010.10331010.10331010.1523
  1010.36831010.40551010.40551010.42481010.49311010.56891010.57381010.5738

     the Fermi energy is     2.1431 ev
     (compare with:     0.7580 eV, computed in scf)

     Writing all to output data dir out/mp-23703.save/
 
     init_run     :      0.02s CPU      0.03s WALL (       1 calls)
     electrons    :    726.08s CPU    772.38s WALL (       1 calls)

     Called by init_run:
     wfcinit      :      0.00s CPU      0.00s WALL (       1 calls)
     potinit      :      0.01s CPU      0.01s WALL (       1 calls)
     hinit0       :      0.00s CPU      0.01s WALL (       1 calls)

     Called by electrons:
     c_bands      :    726.06s CPU    772.32s WALL (       1 calls)
     v_of_rho     :      0.00s CPU      0.00s WALL (       1 calls)

     Called by c_bands:
     init_us_2    :      0.00s CPU      0.00s WALL (      15 calls)
     init_us_2:cp :      0.00s CPU      0.00s WALL (      15 calls)
     paro_k       :    687.60s CPU    730.93s WALL (      15 calls)

     Called by paro_*:
     h_psi        :     14.48s CPU     15.34s WALL (    1381 calls)
     g_psi        :      0.29s CPU      0.34s WALL (  137153 calls)

     Called by h_psi:
     h_psi:calbec :      0.23s CPU      0.26s WALL (    1381 calls)
     vloc_psi     :     14.01s CPU     14.83s WALL (    1381 calls)
     add_vuspsi   :      0.11s CPU      0.11s WALL (    1381 calls)

     General routines
     calbec       :      0.22s CPU      0.25s WALL (    1381 calls)
     fft          :      0.00s CPU      0.00s WALL (      10 calls)
     fftw         :     12.53s CPU     13.27s WALL (  225910 calls)
 
     Parallel routines
 
     PWSCF        :  12m 7.14s CPU  12m54.54s WALL

 
   This run was terminated on:  15:11:42   4Dec2023            

=------------------------------------------------------------------------------=
   JOB DONE.
=------------------------------------------------------------------------------=
