
     Program PWSCF v.7.1 starts on  4Dec2023 at 14:58:28 

     This program is part of the open-source Quantum ESPRESSO suite
     for quantum simulation of materials; please cite
         "P. Giannozzi et al., J. Phys.:Condens. Matter 21 395502 (2009);
         "P. Giannozzi et al., J. Phys.:Condens. Matter 29 465901 (2017);
         "P. Giannozzi et al., J. Chem. Phys. 152 154105 (2020);
          URL http://www.quantum-espresso.org", 
     in publications or presentations arising from this work. More details at
     http://www.quantum-espresso.org/quote

     Parallel version (MPI), running on    24 processors

     MPI processes distributed on     1 nodes
     119940 MiB available memory on the printing compute node when the environment starts
 
     Reading input from pw_mp-23703_scf_k3000_E120.in
Warning: card &CELL ignored
Warning: card / ignored

     Current dimensions of program PWSCF are:
     Max number of different atomic species (ntypx) = 10
     Max number of k-points (npk) =  40000
     Max angular momentum in pseudopotentials (lmaxx) =  4
 
     K-points division:     npool     =       2
     R & G space division:  proc/nbgrp/npool/nimage =      12
     Subspace diagonalization in iterative solution of the eigenvalue problem:
     a serial algorithm will be used

 
     Parallelization info
     --------------------
     sticks:   dense  smooth     PW     G-vecs:    dense   smooth      PW
     Min          79      79     24                 1629     1629     267
     Max          80      80     26                 1633     1633     269
     Sum         955     955    295                19579    19579    3215
 
     Using Slab Decomposition
 


     bravais-lattice index     =            2
     lattice parameter (alat)  =       7.5915  a.u.
     unit-cell volume          =     109.3754 (a.u.)^3
     number of atoms/cell      =            2
     number of atomic types    =            2
     number of electrons       =         4.00
     number of Kohn-Sham states=            8
     kinetic-energy cutoff     =     120.0000  Ry
     charge density cutoff     =     480.0000  Ry
     scf convergence threshold =      1.0E-10
     mixing beta               =       0.7000
     number of iterations used =            8  plain     mixing
     Exchange-correlation= PBE
                           (   1   4   3   4   0   0   0)

     celldm(1)=   7.591481  celldm(2)=   0.000000  celldm(3)=   0.000000
     celldm(4)=   0.000000  celldm(5)=   0.000000  celldm(6)=   0.000000

     crystal axes: (cart. coord. in units of alat)
               a(1) = (  -0.500000   0.000000   0.500000 )  
               a(2) = (   0.000000   0.500000   0.500000 )  
               a(3) = (  -0.500000   0.500000   0.000000 )  

     reciprocal axes: (cart. coord. in units 2 pi/alat)
               b(1) = ( -1.000000 -1.000000  1.000000 )  
               b(2) = (  1.000000  1.000000  1.000000 )  
               b(3) = ( -1.000000  1.000000 -1.000000 )  


     PseudoPot. # 1 for H  read from file:
     /usr/scratch4/magr4985/MG/HTDF/pseudo/SG15/H.upf
     MD5 check sum: bf21e08b90ac4ce7d0149ac4e8138190
     Pseudo is Norm-conserving, Zval =  1.0
     Generated using ONCVPSP code by D. R. Hamann
     Using radial grid of  602 points,  2 beta functions with: 
                l(1) =   0
                l(2) =   0

     PseudoPot. # 2 for Li read from file:
     /usr/scratch4/magr4985/MG/HTDF/pseudo/SG15/Li.upf
     MD5 check sum: c91dd4cee9943b136ac3b62641658f95
     Pseudo is Norm-conserving, Zval =  3.0
     Generated using ONCVPSP code by D. R. Hamann
     Using radial grid of  602 points,  4 beta functions with: 
                l(1) =   0
                l(2) =   0
                l(3) =   1
                l(4) =   1

     atomic species   valence    mass     pseudopotential
        H              1.00     1.00790     H ( 1.00)
        Li             3.00     6.94100     Li( 1.00)

     48 Sym. Ops., with inversion, found



   Cartesian axes

     site n.     atom                  positions (alat units)
         1           Li  tau(   1) = (   0.0000000   0.0000000   0.0000000  )
         2           H   tau(   2) = (  -0.5000000   0.5000000   0.5000000  )

     number of k points=    72  Gaussian smearing, width (Ry)=  0.0005
                       cart. coord. in units 2pi/alat
        k(    1) = (   0.0000000   0.0000000   0.0000000), wk =   0.0011574
        k(    2) = (  -0.0833333   0.0833333  -0.0833333), wk =   0.0092593
        k(    3) = (  -0.1666667   0.1666667  -0.1666667), wk =   0.0092593
        k(    4) = (  -0.2500000   0.2500000  -0.2500000), wk =   0.0092593
        k(    5) = (  -0.3333333   0.3333333  -0.3333333), wk =   0.0092593
        k(    6) = (  -0.4166667   0.4166667  -0.4166667), wk =   0.0092593
        k(    7) = (   0.5000000  -0.5000000   0.5000000), wk =   0.0046296
        k(    8) = (   0.0000000   0.1666667   0.0000000), wk =   0.0069444
        k(    9) = (  -0.0833333   0.2500000  -0.0833333), wk =   0.0277778
        k(   10) = (  -0.1666667   0.3333333  -0.1666667), wk =   0.0277778
        k(   11) = (  -0.2500000   0.4166667  -0.2500000), wk =   0.0277778
        k(   12) = (  -0.3333333   0.5000000  -0.3333333), wk =   0.0277778
        k(   13) = (   0.5833333  -0.4166667   0.5833333), wk =   0.0277778
        k(   14) = (   0.5000000  -0.3333333   0.5000000), wk =   0.0277778
        k(   15) = (   0.4166667  -0.2500000   0.4166667), wk =   0.0277778
        k(   16) = (   0.3333333  -0.1666667   0.3333333), wk =   0.0277778
        k(   17) = (   0.2500000  -0.0833333   0.2500000), wk =   0.0277778
        k(   18) = (   0.1666667  -0.0000000   0.1666667), wk =   0.0138889
        k(   19) = (   0.0000000   0.3333333   0.0000000), wk =   0.0069444
        k(   20) = (  -0.0833333   0.4166667  -0.0833333), wk =   0.0277778
        k(   21) = (  -0.1666667   0.5000000  -0.1666667), wk =   0.0277778
        k(   22) = (  -0.2500000   0.5833333  -0.2500000), wk =   0.0277778
        k(   23) = (   0.6666667  -0.3333333   0.6666667), wk =   0.0277778
        k(   24) = (   0.5833333  -0.2500000   0.5833333), wk =   0.0277778
        k(   25) = (   0.5000000  -0.1666667   0.5000000), wk =   0.0277778
        k(   26) = (   0.4166667  -0.0833333   0.4166667), wk =   0.0277778
        k(   27) = (   0.3333333   0.0000000   0.3333333), wk =   0.0138889
        k(   28) = (   0.0000000   0.5000000   0.0000000), wk =   0.0069444
        k(   29) = (  -0.0833333   0.5833333  -0.0833333), wk =   0.0277778
        k(   30) = (  -0.1666667   0.6666667  -0.1666667), wk =   0.0277778
        k(   31) = (   0.7500000  -0.2500000   0.7500000), wk =   0.0277778
        k(   32) = (   0.6666667  -0.1666667   0.6666667), wk =   0.0277778
        k(   33) = (   0.5833333  -0.0833333   0.5833333), wk =   0.0277778
        k(   34) = (   0.5000000   0.0000000   0.5000000), wk =   0.0138889
        k(   35) = (   0.0000000   0.6666667   0.0000000), wk =   0.0069444
        k(   36) = (  -0.0833333   0.7500000  -0.0833333), wk =   0.0277778
        k(   37) = (   0.8333333  -0.1666667   0.8333333), wk =   0.0277778
        k(   38) = (   0.7500000  -0.0833333   0.7500000), wk =   0.0277778
        k(   39) = (   0.6666667  -0.0000000   0.6666667), wk =   0.0138889
        k(   40) = (   0.0000000   0.8333333   0.0000000), wk =   0.0069444
        k(   41) = (   0.9166667  -0.0833333   0.9166667), wk =   0.0277778
        k(   42) = (   0.8333333   0.0000000   0.8333333), wk =   0.0138889
        k(   43) = (   0.0000000  -1.0000000   0.0000000), wk =   0.0034722
        k(   44) = (  -0.1666667   0.3333333   0.0000000), wk =   0.0277778
        k(   45) = (  -0.2500000   0.4166667  -0.0833333), wk =   0.0555556
        k(   46) = (  -0.3333333   0.5000000  -0.1666667), wk =   0.0555556
        k(   47) = (   0.5833333  -0.4166667   0.7500000), wk =   0.0555556
        k(   48) = (   0.5000000  -0.3333333   0.6666667), wk =   0.0277778
        k(   49) = (  -0.1666667   0.5000000   0.0000000), wk =   0.0277778
        k(   50) = (  -0.2500000   0.5833333  -0.0833333), wk =   0.0555556
        k(   51) = (   0.6666667  -0.3333333   0.8333333), wk =   0.0555556
        k(   52) = (   0.5833333  -0.2500000   0.7500000), wk =   0.0555556
        k(   53) = (   0.5000000  -0.1666667   0.6666667), wk =   0.0555556
        k(   54) = (   0.4166667  -0.0833333   0.5833333), wk =   0.0555556
        k(   55) = (   0.3333333   0.0000000   0.5000000), wk =   0.0277778
        k(   56) = (  -0.1666667   0.6666667  -0.0000000), wk =   0.0277778
        k(   57) = (   0.7500000  -0.2500000   0.9166667), wk =   0.0555556
        k(   58) = (   0.6666667  -0.1666667   0.8333333), wk =   0.0555556
        k(   59) = (   0.5833333  -0.0833333   0.7500000), wk =   0.0555556
        k(   60) = (   0.5000000   0.0000000   0.6666667), wk =   0.0277778
        k(   61) = (   0.8333333  -0.1666667   1.0000000), wk =   0.0277778
        k(   62) = (   0.7500000  -0.0833333   0.9166667), wk =   0.0555556
        k(   63) = (   0.6666667   0.0000000   0.8333333), wk =   0.0277778
        k(   64) = (  -0.1666667  -1.0000000  -0.0000000), wk =   0.0138889
        k(   65) = (   0.6666667  -0.3333333   1.0000000), wk =   0.0277778
        k(   66) = (   0.5833333  -0.2500000   0.9166667), wk =   0.0555556
        k(   67) = (   0.5000000  -0.1666667   0.8333333), wk =   0.0277778
        k(   68) = (   0.6666667  -0.1666667   1.0000000), wk =   0.0277778
        k(   69) = (   0.5833333  -0.0833333   0.9166667), wk =   0.0555556
        k(   70) = (   0.5000000   0.0000000   0.8333333), wk =   0.0277778
        k(   71) = (  -0.3333333  -1.0000000   0.0000000), wk =   0.0138889
        k(   72) = (  -0.5000000  -1.0000000   0.0000000), wk =   0.0069444

     Dense  grid:    19579 G-vectors     FFT dimensions: (  40,  40,  40)

     Estimated max dynamical RAM per process >       2.34 MB

     Estimated total dynamical RAM >      51.37 MB

     Initial potential from superposition of free atoms

     starting charge       3.8851, renormalised to       4.0000
     Starting wfcs are random

     total cpu time spent up to now is        0.1 secs

     Self-consistent Calculation

     iteration #  1     ecut=   120.00 Ry     beta= 0.70
     Davidson diagonalization with overlap
     ethr =  1.00E-02,  avg # of iterations =  6.9

     total cpu time spent up to now is        0.5 secs

     total energy              =     -15.46802440 Ry
     estimated scf accuracy    <       0.06096449 Ry

     iteration #  2     ecut=   120.00 Ry     beta= 0.70
     Davidson diagonalization with overlap
     ethr =  1.52E-03,  avg # of iterations =  1.1

     total cpu time spent up to now is        0.7 secs

     total energy              =     -15.47439949 Ry
     estimated scf accuracy    <       0.00029740 Ry

     iteration #  3     ecut=   120.00 Ry     beta= 0.70
     Davidson diagonalization with overlap
     ethr =  7.44E-06,  avg # of iterations =  4.0

     total cpu time spent up to now is        0.9 secs

     total energy              =     -15.47447738 Ry
     estimated scf accuracy    <       0.00002399 Ry

     iteration #  4     ecut=   120.00 Ry     beta= 0.70
     Davidson diagonalization with overlap
     ethr =  6.00E-07,  avg # of iterations =  1.2

     total cpu time spent up to now is        1.0 secs

     total energy              =     -15.47447902 Ry
     estimated scf accuracy    <       0.00000018 Ry

     iteration #  5     ecut=   120.00 Ry     beta= 0.70
     Davidson diagonalization with overlap
     ethr =  4.41E-09,  avg # of iterations =  2.0

     total cpu time spent up to now is        1.2 secs

     total energy              =     -15.47447907 Ry
     estimated scf accuracy    <          7.2E-09 Ry

     iteration #  6     ecut=   120.00 Ry     beta= 0.70
     Davidson diagonalization with overlap
     ethr =  1.80E-10,  avg # of iterations =  2.0

     total cpu time spent up to now is        1.4 secs

     total energy              =     -15.47447908 Ry
     estimated scf accuracy    <          2.0E-10 Ry

     iteration #  7     ecut=   120.00 Ry     beta= 0.70
     Davidson diagonalization with overlap
     ethr =  5.07E-12,  avg # of iterations =  1.0

     total cpu time spent up to now is        1.5 secs

     End of self-consistent calculation

          k = 0.0000 0.0000 0.0000 (  2421 PWs)   bands (ev):

   -43.6325  -4.7824  16.6298  18.4621  18.4621  18.4621  23.1760  23.1760

          k =-0.0833 0.0833-0.0833 (  2427 PWs)   bands (ev):

   -43.6295  -4.6597  15.6144  17.6881  18.1787  18.1787  22.5828  23.7817

          k =-0.1667 0.1667-0.1667 (  2433 PWs)   bands (ev):

   -43.6212  -4.2975  13.0732  16.5905  17.6468  17.6468  23.0519  24.4099

          k =-0.2500 0.2500-0.2500 (  2439 PWs)   bands (ev):

   -43.6099  -3.7194  10.3169  15.6302  17.2228  17.2228  22.7243  22.7243

          k =-0.3333 0.3333-0.3333 (  2442 PWs)   bands (ev):

   -43.5986  -2.9929   7.9185  14.8759  17.0248  17.0248  21.1614  21.1614

          k =-0.4167 0.4167-0.4167 (  2428 PWs)   bands (ev):

   -43.5904  -2.2941   6.1876  14.3981  17.0295  17.0295  20.0728  20.0728

          k = 0.5000-0.5000 0.5000 (  2452 PWs)   bands (ev):

   -43.5873  -1.9765   5.5221  14.2350  17.0786  17.0786  19.6593  19.6593

          k = 0.0000 0.1667 0.0000 (  2433 PWs)   bands (ev):

   -43.6285  -4.6176  15.6879  17.2221  17.2221  19.1151  20.9834  24.8500

          k =-0.0833 0.2500-0.0833 (  2437 PWs)   bands (ev):

   -43.6220  -4.3310  13.9292  16.0983  16.3599  19.0687  20.9307  24.5136

          k =-0.1667 0.3333-0.1667 (  2445 PWs)   bands (ev):

   -43.6117  -3.8159  11.2343  15.0533  15.7616  18.5510  22.1381  23.0894

          k =-0.2500 0.4167-0.2500 (  2436 PWs)   bands (ev):

   -43.6004  -3.1198   8.6953  14.1785  15.4844  17.8961  21.8068  23.5946

          k =-0.3333 0.5000-0.3333 (  2440 PWs)   bands (ev):

   -43.5912  -2.3722   6.7023  13.5386  15.5454  17.2233  21.3652  22.1907

          k = 0.5833-0.4167 0.5833 (  2425 PWs)   bands (ev):

   -43.5864  -1.8743   5.6298  13.1738  15.9389  16.6536  21.1648  21.4862

          k = 0.5000-0.3333 0.5000 (  2431 PWs)   bands (ev):

   -43.5874  -1.9890   5.8629  13.0941  16.3137  16.6282  20.5658  22.0971

          k = 0.4167-0.2500 0.4167 (  2431 PWs)   bands (ev):

   -43.5939  -2.6183   7.3007  13.2872  16.2846  17.4986  20.4951  23.1216

          k = 0.3333-0.1667 0.3333 (  2434 PWs)   bands (ev):

   -43.6042  -3.3719   9.5209  13.7321  16.5872  18.2894  21.1659  24.2624

          k = 0.2500-0.0833 0.2500 (  2442 PWs)   bands (ev):

   -43.6155  -4.0153  12.1812  14.4370  17.1524  18.7764  22.6611  23.0153

          k = 0.1667-0.0000 0.1667 (  2443 PWs)   bands (ev):

   -43.6247  -4.4557  14.5585  15.7851  17.7401  18.8104  22.3225  23.6931

          k = 0.0000 0.3333 0.0000 (  2445 PWs)   bands (ev):

   -43.6175  -4.1149  13.7637  15.2890  15.2890  18.6963  19.0892  25.2232

          k =-0.0833 0.4167-0.0833 (  2440 PWs)   bands (ev):

   -43.6091  -3.6590  11.8791  14.0130  14.5319  18.4430  19.1402  25.2563

          k =-0.1667 0.5000-0.1667 (  2442 PWs)   bands (ev):

   -43.5989  -2.9961   9.4594  12.7475  14.1220  17.8052  20.7468  25.0036

          k =-0.2500 0.5833-0.2500 (  2434 PWs)   bands (ev):

   -43.5897  -2.2193   7.3154  11.7820  14.0716  17.1612  22.6397  25.0199

          k = 0.6667-0.3333 0.6667 (  2422 PWs)   bands (ev):

   -43.5839  -1.5729   5.9096  11.1269  14.3837  16.6459  23.8103  23.9515

          k = 0.5833-0.2500 0.5833 (  2423 PWs)   bands (ev):

   -43.5831  -1.4750   5.7241  10.7826  15.0533  16.3417  22.9416  24.7495

          k = 0.5000-0.1667 0.5000 (  2419 PWs)   bands (ev):

   -43.5876  -2.0136   6.8618  10.7397  16.0617  16.2930  22.4003  25.5593

          k = 0.4167-0.0833 0.4167 (  2434 PWs)   bands (ev):

   -43.5960  -2.7896   8.9090  10.9819  16.4941  17.3457  22.1237  24.8600

          k = 0.3333 0.0000 0.3333 (  2429 PWs)   bands (ev):

   -43.6062  -3.4981  11.3602  11.6363  16.8551  18.6219  22.0081  23.6075

          k = 0.0000 0.5000 0.0000 (  2429 PWs)   bands (ev):

   -43.6027  -3.2552  11.0188  13.6313  13.6313  16.8981  18.2970  27.2163

          k =-0.0833 0.5833-0.0833 (  2428 PWs)   bands (ev):

   -43.5944  -2.6263   9.3088  12.1878  13.0872  17.2435  18.2165  28.0080

          k =-0.1667 0.6667-0.1667 (  2428 PWs)   bands (ev):

   -43.5862  -1.8392   7.5043  10.6207  12.9100  17.2164  19.7549  28.2319

          k = 0.7500-0.2500 0.7500 (  2416 PWs)   bands (ev):

   -43.5805  -1.0872   6.0625   9.5356  13.1029  16.8519  22.0999  26.8766

          k = 0.6667-0.1667 0.6667 (  2411 PWs)   bands (ev):

   -43.5787  -0.7976   5.6054   8.8952  13.6650  16.5530  24.5992  25.7868

          k = 0.5833-0.0833 0.5833 (  2423 PWs)   bands (ev):

   -43.5813  -1.2355   6.4811   8.6432  14.5888  16.3972  24.8599  26.6391

          k = 0.5000 0.0000 0.5000 (  2421 PWs)   bands (ev):

   -43.5877  -2.0256   8.1721   8.8980  15.8503  16.3957  23.7411  26.0863

          k = 0.0000 0.6667 0.0000 (  2417 PWs)   bands (ev):

   -43.5881  -2.0262   7.9594  12.4116  12.4116  15.6101  17.9103  30.4321

          k =-0.0833 0.7500-0.0833 (  2423 PWs)   bands (ev):

   -43.5818  -1.2460   6.5034  11.0619  12.1055  16.2984  17.9508  31.3870

          k = 0.8333-0.1667 0.8333 (  2428 PWs)   bands (ev):

   -43.5771  -0.4481   5.3511   9.4510  12.1727  16.9292  19.2558  30.2015

          k = 0.7500-0.0833 0.7500 (  2422 PWs)   bands (ev):

   -43.5752  -0.0617   4.9673   8.3306  12.6132  16.7863  21.7947  28.7892

          k = 0.6667-0.0000 0.6667 (  2424 PWs)   bands (ev):

   -43.5768  -0.4486   5.6535   7.8776  13.4229  16.5686  24.6262  27.1268

          k = 0.0000 0.8333 0.0000 (  2446 PWs)   bands (ev):

   -43.5775  -0.4889   5.1753  11.6710  11.6710  14.8364  17.8288  34.1288

          k = 0.9167-0.0833 0.9167 (  2425 PWs)   bands (ev):

   -43.5745   0.2466   4.2012  10.5272  11.6108  15.8092  17.9173  33.4590

          k = 0.8333 0.0000 0.8333 (  2424 PWs)   bands (ev):

   -43.5737   0.4508   4.1324   9.1046  11.9256  16.8335  19.1228  31.4909

          k = 0.0000-1.0000 0.0000 (  2450 PWs)   bands (ev):

   -43.5736   0.6271   3.6241  11.4230  11.4230  14.5784  17.8297  35.2701

          k =-0.1667 0.3333 0.0000 (  2436 PWs)   bands (ev):

   -43.6145  -3.9623  12.7784  13.7382  16.2718  19.0115  20.7135  23.7753

          k =-0.2500 0.4167-0.0833 (  2435 PWs)   bands (ev):

   -43.6043  -3.3716  10.4230  12.5472  15.7529  18.4060  21.7817  23.1389

          k =-0.3333 0.5000-0.1667 (  2431 PWs)   bands (ev):

   -43.5941  -2.6241   8.0430  11.9450  15.2829  17.5778  22.2121  24.1986

          k = 0.5833-0.4167 0.7500 (  2428 PWs)   bands (ev):

   -43.5866  -1.8961   6.2930  11.5875  15.0461  16.9007  22.1927  24.4880

          k = 0.5000-0.3333 0.6667 (  2424 PWs)   bands (ev):

   -43.5838  -1.5606   5.6120  11.4669  14.9915  16.6330  22.2347  24.0970

          k =-0.1667 0.5000 0.0000 (  2434 PWs)   bands (ev):

   -43.6007  -3.1199  10.5543  12.0328  14.2655  18.3035  18.9950  25.6926

          k =-0.2500 0.5833-0.0833 (  2426 PWs)   bands (ev):

   -43.5915  -2.3895   8.6224  10.6825  13.8472  17.7859  20.5018  25.5671

          k = 0.6667-0.3333 0.8333 (  2422 PWs)   bands (ev):

   -43.5841  -1.5974   6.7704   9.9228  13.6545  17.2569  22.4884  25.4888

          k = 0.5833-0.2500 0.7500 (  2426 PWs)   bands (ev):

   -43.5803  -1.0714   5.7466   9.4812  13.7773  16.9202  23.8223  25.9261

          k = 0.5000-0.1667 0.6667 (  2424 PWs)   bands (ev):

   -43.5813  -1.2248   6.0574   9.3247  14.1677  16.8943  23.8040  26.8516

          k = 0.4167-0.0833 0.5833 (  2423 PWs)   bands (ev):

   -43.5867  -1.9174   7.5775   9.4440  14.7300  17.2435  23.4421  24.7636

          k = 0.3333 0.0000 0.5000 (  2436 PWs)   bands (ev):

   -43.5951  -2.7106   9.7569   9.9088  15.3387  17.8844  22.5854  23.4384

          k =-0.1667 0.6667-0.0000 (  2429 PWs)   bands (ev):

   -43.5870  -1.9219   7.8793  10.7897  12.7583  17.7383  17.9487  28.4916

          k = 0.7500-0.2500 0.9167 (  2425 PWs)   bands (ev):

   -43.5806  -1.1035   6.5079   9.3200  12.6049  17.5544  19.6461  28.0796

          k = 0.6667-0.1667 0.8333 (  2428 PWs)   bands (ev):

   -43.5769  -0.4523   5.5763   8.3160  12.7565  17.2327  22.0718  27.4457

          k = 0.5833-0.0833 0.7500 (  2420 PWs)   bands (ev):

   -43.5768  -0.4521   5.7241   7.7918  13.2200  17.0390  24.5392  26.8864

          k = 0.5000 0.0000 0.6667 (  2428 PWs)   bands (ev):

   -43.5804  -1.1001   6.9139   7.8164  13.9298  17.0379  25.2413  25.6005

          k = 0.8333-0.1667 1.0000 (  2423 PWs)   bands (ev):

   -43.5771  -0.4473   5.2953  10.0379  11.9213  16.9787  17.8909  31.0297

          k = 0.7500-0.0833 0.9167 (  2420 PWs)   bands (ev):

   -43.5744   0.1956   4.6095   8.6986  12.0367  17.4759  19.2711  30.2089

          k = 0.6667 0.0000 0.8333 (  2431 PWs)   bands (ev):

   -43.5743   0.1772   4.8932   7.7727  12.4788  17.2536  21.9243  29.0454

          k =-0.1667-1.0000-0.0000 (  2428 PWs)   bands (ev):

   -43.5735   0.5690   3.8782   9.7864  11.6532  16.7248  17.9019  32.5422

          k = 0.6667-0.3333 1.0000 (  2427 PWs)   bands (ev):

   -43.5842  -1.6095   7.7849   8.6551  13.4732  17.8377  21.3849  25.7583

          k = 0.5833-0.2500 0.9167 (  2428 PWs)   bands (ev):

   -43.5788  -0.8282   6.4589   7.8685  13.1640  17.6200  23.1885  25.9693

          k = 0.5000-0.1667 0.8333 (  2430 PWs)   bands (ev):

   -43.5768  -0.4556   5.8011   7.6992  13.0537  17.5064  24.4366  26.1768

          k = 0.6667-0.1667 1.0000 (  2425 PWs)   bands (ev):

   -43.5763  -0.3215   5.7241   7.8982  12.4399  17.9919  20.6425  27.8119

          k = 0.5833-0.0833 0.9167 (  2425 PWs)   bands (ev):

   -43.5743   0.1420   5.4627   6.9367  12.4736  17.9317  22.8255  26.9173

          k = 0.5000 0.0000 0.8333 (  2425 PWs)   bands (ev):

   -43.5752  -0.1078   6.1548   6.5581  12.7294  17.8055  24.9099  25.1828

          k =-0.3333-1.0000 0.0000 (  2424 PWs)   bands (ev):

   -43.5734   0.4568   4.6393   7.6452  12.1261  18.0843  20.3930  29.4341

          k =-0.5000-1.0000 0.0000 (  2400 PWs)   bands (ev):

   -43.5733   0.4025   5.9012   5.9012  12.3693  18.2021  24.6703  24.6703

     the Fermi energy is     0.7580 ev

!    total energy              =     -15.47447908 Ry
     estimated scf accuracy    <          4.5E-13 Ry
     smearing contrib. (-TS)   =      -0.00000000 Ry
     internal energy E=F+TS    =     -15.47447908 Ry

     The total energy is F=E-TS. E is the sum of the following terms:
     one-electron contribution =      -7.62197840 Ry
     hartree contribution      =       3.07538238 Ry
     xc contribution           =      -4.02711873 Ry
     ewald contribution        =      -6.90076433 Ry

     convergence has been achieved in   7 iterations

     Writing all to output data dir out/mp-23703.save/
 
     init_run     :      0.06s CPU      0.10s WALL (       1 calls)
     electrons    :      1.15s CPU      1.37s WALL (       1 calls)

     Called by init_run:
     wfcinit      :      0.04s CPU      0.06s WALL (       1 calls)
     potinit      :      0.01s CPU      0.01s WALL (       1 calls)
     hinit0       :      0.00s CPU      0.01s WALL (       1 calls)

     Called by electrons:
     c_bands      :      0.96s CPU      1.13s WALL (       7 calls)
     sum_band     :      0.17s CPU      0.19s WALL (       7 calls)
     v_of_rho     :      0.02s CPU      0.02s WALL (       8 calls)
     mix_rho      :      0.00s CPU      0.01s WALL (       7 calls)

     Called by c_bands:
     init_us_2    :      0.02s CPU      0.02s WALL (     540 calls)
     init_us_2:cp :      0.02s CPU      0.02s WALL (     540 calls)
     cegterg      :      0.84s CPU      0.93s WALL (     252 calls)

     Called by *egterg:
     cdiaghg      :      0.08s CPU      0.08s WALL (     908 calls)
     h_psi        :      0.72s CPU      0.82s WALL (     944 calls)
     g_psi        :      0.00s CPU      0.01s WALL (     656 calls)

     Called by h_psi:
     h_psi:calbec :      0.02s CPU      0.02s WALL (     944 calls)
     vloc_psi     :      0.69s CPU      0.78s WALL (     944 calls)
     add_vuspsi   :      0.01s CPU      0.01s WALL (     944 calls)

     General routines
     calbec       :      0.02s CPU      0.02s WALL (     944 calls)
     fft          :      0.01s CPU      0.01s WALL (      79 calls)
     ffts         :      0.00s CPU      0.00s WALL (       7 calls)
     fftw         :      0.74s CPU      0.83s WALL (   13832 calls)
     davcio       :      0.02s CPU      0.09s WALL (     880 calls)
 
     Parallel routines
 
     PWSCF        :      1.26s CPU      1.67s WALL

 
   This run was terminated on:  14:58:29   4Dec2023            

=------------------------------------------------------------------------------=
   JOB DONE.
=------------------------------------------------------------------------------=
