
     Program PWSCF v.7.1 starts on 13Dec2023 at 17:51:37 

     This program is part of the open-source Quantum ESPRESSO suite
     for quantum simulation of materials; please cite
         "P. Giannozzi et al., J. Phys.:Condens. Matter 21 395502 (2009);
         "P. Giannozzi et al., J. Phys.:Condens. Matter 29 465901 (2017);
         "P. Giannozzi et al., J. Chem. Phys. 152 154105 (2020);
          URL http://www.quantum-espresso.org", 
     in publications or presentations arising from this work. More details at
     http://www.quantum-espresso.org/quote

     Parallel version (MPI), running on     8 processors

     MPI processes distributed on     1 nodes
     122999 MiB available memory on the printing compute node when the environment starts
 
     Reading input from pw_mp-1253_nscf_k0_E48.in
Warning: card &IONS ignored
Warning: card / ignored
Warning: card &CELL ignored
Warning: card / ignored

     Current dimensions of program PWSCF are:
     Max number of different atomic species (ntypx) = 10
     Max number of k-points (npk) =  40000
     Max angular momentum in pseudopotentials (lmaxx) =  4

     Atomic positions and unit cell read from directory:
     out/mp-1253.save/
     Atomic positions from file used, from input discarded
 
 
     R & G space division:  proc/nbgrp/npool/nimage =       8
     Subspace diagonalization in iterative solution of the eigenvalue problem:
     one sub-group per band group will be used
     scalapack distributed-memory algorithm (size of sub-group:  2*  2 procs)

 
     Parallelization info
     --------------------
     sticks:   dense  smooth     PW     G-vecs:    dense   smooth      PW
     Min         130     130     31                 2801     2801     340
     Max         131     131     32                 2803     2803     344
     Sum        1045    1045    253                22419    22419    2741
 
     Using Slab Decomposition
 


     bravais-lattice index     =            2
     lattice parameter (alat)  =      12.5993  a.u.
     unit-cell volume          =     500.0063 (a.u.)^3
     number of atoms/cell      =            2
     number of atomic types    =            2
     number of electrons       =        16.00
     number of Kohn-Sham states=         1008
     kinetic-energy cutoff     =      48.0000  Ry
     charge density cutoff     =     192.0000  Ry
     Exchange-correlation= PBE
                           (   1   4   3   4   0   0   0)

     celldm(1)=  12.599264  celldm(2)=   0.000000  celldm(3)=   0.000000
     celldm(4)=   0.000000  celldm(5)=   0.000000  celldm(6)=   0.000000

     crystal axes: (cart. coord. in units of alat)
               a(1) = (  -0.500000   0.000000   0.500000 )  
               a(2) = (   0.000000   0.500000   0.500000 )  
               a(3) = (  -0.500000   0.500000   0.000000 )  

     reciprocal axes: (cart. coord. in units 2 pi/alat)
               b(1) = ( -1.000000 -1.000000  1.000000 )  
               b(2) = (  1.000000  1.000000  1.000000 )  
               b(3) = ( -1.000000  1.000000 -1.000000 )  


     PseudoPot. # 1 for Ba read from file:
     /usr/scratch4/magr4985/MG/HTDF/pseudo/SG15/Ba.upf
     MD5 check sum: ac4691792522964bb0504809e83fae44
     Pseudo is Norm-conserving, Zval = 10.0
     Generated using ONCVPSP code by D. R. Hamann
     Using radial grid of  602 points,  8 beta functions with: 
                l(1) =   0
                l(2) =   0
                l(3) =   1
                l(4) =   1
                l(5) =   2
                l(6) =   2
                l(7) =   3
                l(8) =   3

     PseudoPot. # 2 for Se read from file:
     /usr/scratch4/magr4985/MG/HTDF/pseudo/SG15/Se.upf
     MD5 check sum: e78e48a4f5d8ce1f8dc76ec1271f249c
     Pseudo is Norm-conserving, Zval =  6.0
     Generated using ONCVPSP code by D. R. Hamann
     Using radial grid of  602 points,  6 beta functions with: 
                l(1) =   0
                l(2) =   0
                l(3) =   1
                l(4) =   1
                l(5) =   2
                l(6) =   2

     atomic species   valence    mass     pseudopotential
        Ba            10.00   137.32700     Ba( 1.00)
        Se             6.00    78.96000     Se( 1.00)

     48 Sym. Ops., with inversion, found



   Cartesian axes

     site n.     atom                  positions (alat units)
         1           Ba  tau(   1) = (   0.0000000   0.0000000   0.0000000  )
         2           Se  tau(   2) = (  -0.5000000   0.5000000   0.5000000  )

     number of k points=     1  Gaussian smearing, width (Ry)=  0.0005
                       cart. coord. in units 2pi/alat
        k(    1) = (   0.0000000   0.0000000   0.0000000), wk =   2.0000000

     Dense  grid:    22419 G-vectors     FFT dimensions: (  40,  40,  40)

     Estimated max dynamical RAM per process >      80.89 MB

     Estimated total dynamical RAM >     647.16 MB

     The potential is recalculated from file :
     out/mp-1253.save/charge-density

     Starting wfcs are random

     Band Structure Calculation
     Davidson diagonalization with overlap

     ethr =  5.00E-06,  avg # of iterations =  9.0

     total cpu time spent up to now is       88.6 secs

     End of band structure calculation

          k = 0.0000 0.0000 0.0000 (  2741 PWs)   bands (ev):

   -21.1027  -6.2139  -6.2139  -6.2139  -5.4424   5.3178   5.3178   5.3178
     8.3008   8.9218   8.9218   8.9218   9.7263   9.7263  12.3130  14.7048
    14.7048  14.7048  14.9021  14.9021  14.9021  16.6743  19.2984  19.2984
    19.2984  21.0002  21.0002  21.0002  22.9829  22.9829  25.0112  25.4943
    25.4943  25.4943  26.9554  26.9554  27.6165  27.6165  27.6165  30.5719
    30.5719  30.5719  33.2889  35.7126  35.7126  35.7126  36.3136  36.3136
    36.3136  36.4553  36.4553  36.4553  37.3487  37.3487  37.3487  37.9978
    38.5346  39.1900  39.1900  39.1900  39.5341  39.5341  39.5341  40.0086
    40.0086  40.9901  45.2132  45.2132  48.6153  48.6153  48.6153  52.7661
    55.4238  55.4238  55.4238  56.5264  56.5264  57.8403  57.8403  57.8403
    58.6368  58.6368  58.6368  59.9147  59.9147  59.9147  61.1191  62.1873
    62.1873  62.1873  62.4282  62.4282  62.4282  62.6245  62.6245  62.6245
    62.7910  62.7910  62.7919  62.7919  62.7919  63.4014  64.6090  64.6090
    64.6090  64.6640  64.6640  64.6640  65.3468  65.3468  65.5794  65.5794
    65.5794  65.9937  65.9937  66.9694  66.9694  66.9694  68.0118  70.5744
    74.0780  74.5065  74.5065  74.5065  76.9052  76.9052  77.0114  77.0114
    77.0114  78.6150  78.6150  79.1864  79.1864  79.1864  79.3420  79.3420
    79.3420  80.0503  80.0503  80.0503  80.3146  80.3146  80.3146  80.5839
    80.5839  81.0878  81.0878  81.0878  83.8273  85.2362  86.5717  86.5717
    86.5717  86.9914  86.9914  86.9914  87.3689  87.3689  87.3689  87.3709
    88.2365  88.2365  88.2365  88.3262  88.3262  88.3262  89.0091  89.0091
    89.0091  93.1121  93.1121  93.2370  93.2370  93.2370  93.4689  94.7408
   100.2306 100.2306 102.1205 102.1205 102.1205 102.3002 102.3002 102.3002
   104.3536 104.3536 104.3536 105.9883 107.5773 107.5773 108.1785 108.1785
   108.1785 108.2096 108.2096 108.2096 110.0216 110.0216 110.0216 110.5485
   110.5485 110.5485 112.0084 112.0084 112.3791 112.9231 112.9231 113.0754
   113.0754 113.0754 113.2231 113.2231 113.2231 113.2730 113.4592 113.4592
   113.4592 114.0843 114.9759 114.9759 115.5117 115.5117 115.5117 115.6126
   115.6126 115.6126 116.4586 116.4586 116.4586 116.7144 116.7224 116.7224
   116.7224 118.7039 118.7039 118.7039 118.7468 118.7468 118.7468 118.9564
   118.9564 119.3732 119.3732 119.3732 119.8390 119.8390 119.8390 120.1969
   120.1969 120.1969 120.3003 120.3003 120.3003 120.3208 120.3208 120.3273
   120.3273 120.5192 120.5590 120.5590 120.5590 120.6770 120.6770 120.6770
   121.4496 123.3898 126.6199 126.6199 126.6199 127.9322 127.9322 127.9322
   128.6499 128.6499 128.6499 128.7930 128.7930 128.7930 129.6339 129.6339
   130.5062 131.8370 131.8370 131.8370 133.7790 133.7790 133.8419 133.8954
   133.8954 133.8954 136.5301 137.5081 137.5081 137.5081 137.9952 139.8554
   139.8554 139.8554 141.7816 141.7816 141.9930 141.9930 141.9930 142.3064
   142.3064 142.3064 143.2093 143.2093 143.2779 143.2779 143.2779 143.4166
   143.4166 143.4166 144.3292 144.5709 144.5709 144.5709 144.8807 144.8807
   145.6270 145.6270 145.6270 145.6957 145.7283 145.7283 145.7283 145.7740
   145.7740 145.7740 145.9222 145.9222 145.9222 146.5681 146.5681 147.6641
   147.6641 147.6641 148.2750 153.3093 153.3093 155.4634 155.4634 155.4634
   155.6103 156.7656 156.7656 156.7656 158.4658 159.2615 159.2615 159.2615
   159.8647 160.1239 160.1239 161.4924 161.4924 161.4924 161.8794 161.8794
   161.8794 162.2259 162.2259 162.2259 164.0004 164.9316 164.9316 164.9316
   165.0524 165.0524 165.7896 165.7896 165.7896 166.5742 166.5742 166.5742
   167.3027 167.3027 167.3027 168.3219 168.3219 168.3219 168.4060 168.4060
   168.4060 170.8236 170.8236 170.8236 171.0540 171.0540 171.0540 171.0778
   171.0778 171.0778 171.1546 171.1546 171.2023 171.2023 171.2023 171.2859
   171.2859 171.2859 171.4794 171.5049 171.5049 172.3244 172.9810 172.9810
   172.9810 173.4293 173.4293 173.4293 174.2191 174.2191 174.2527 174.2527
   174.2527 174.3329 180.0101 180.0101 180.0101 181.4866 181.8405 181.8460
   181.8460 181.8840 181.8840 181.8840 182.1890 182.1890 182.1890 183.6012
   183.6012 183.6012 183.6665 183.6665 183.6665 183.9225 184.4381 184.4381
   184.9176 184.9176 184.9176 186.7781 186.7781 186.7781 186.9464 186.9464
   187.0166 187.0166 187.0624 187.0624 187.0624 187.2049 187.2049 187.2049
   187.3437 187.3437 187.3437 187.5313 187.5313 187.5313 187.7837 187.7837
   187.7837 187.8508 187.8508 188.2609 188.2609 188.2609 188.8508 189.0050
   189.0050 189.0050 189.0128 189.2282 189.2282 189.2282 190.1232 190.1232
   190.1232 190.1245 190.1245 190.1245 190.9818 191.4918 191.4918 191.4918
   191.6170 191.6170 191.6170 191.7056 191.7056 192.2866 195.1495 195.1495
   195.1495 195.1910 195.1910 195.9441 195.9441 195.9441 196.3987 196.6244
   196.6244 196.6244 196.7257 196.7257 196.7257 197.3222 197.3222 197.7083
   197.8058 197.8058 197.8058 197.8993 197.9037 197.9037 197.9037 197.9471
   197.9471 199.5037 199.5037 199.5037 199.5795 199.5795 199.6151 199.6151
   199.6151 199.7867 199.7867 199.7867 199.9059 199.9059 199.9059 200.9658
   201.0347 201.0347 201.0347 201.0596 201.0596 205.9824 205.9824 205.9824
   217.0636 217.4610 217.4610 217.4610 218.3959 218.3959 218.3959 219.9913
   220.2117 220.2117 220.2117 220.5946 220.5946 220.5946 220.6314 220.6314
   220.6314 220.6621 220.6621 220.6621 220.7173 221.1457 221.1457 221.1457
   221.2266 221.2266 221.2266 221.2799 221.2799 221.3608 221.3608 221.3608
   221.3643 221.3643 221.4101 221.4101 221.4101 221.7440 221.7440 221.8918
   221.8918 221.8918 222.3825 223.8353 223.8353 223.8353 226.8375 226.8375
   226.9912 226.9912 226.9912 227.1070 227.1070 227.1722 227.1722 227.1722
   227.3063 227.3063 227.3063 227.3748 227.3748 227.3748 228.1082 228.1082
   228.2217 228.2217 228.2217 228.3115 228.4037 228.4037 228.4037 229.9388
   232.5996 232.5996 232.6893 232.6893 232.6893 232.9949 233.6940 233.6940
   233.6940 236.1706 236.1706 236.1706 237.1475 237.1475 237.1475 237.1727
   237.1727 237.1727 237.1776 237.3587 237.3587 238.5150 238.5150 238.5150
   238.6033 238.6033 238.6068 239.4974 239.4974 239.4974 239.8559 239.8559
   239.8559 240.3638 240.3638 240.3638 240.5078 240.5078 240.5078 240.5936
   240.5936 241.0109 241.0109 241.0109 241.1551 245.7818 245.7818 245.7818
   245.9964 245.9964 246.0674 246.0674 246.0674 246.2200 246.2200 246.2200
   246.4158 246.5810 246.5810 246.5810 247.4917 248.5548 248.8497 248.8497
   248.8497 249.2644 249.2644 249.2674 249.2674 249.2674 249.2939 249.2939
   249.2939 249.9474 249.9474 249.9474 250.4421 250.4421 250.4421 252.6050
   252.6448 252.7098 252.7098 252.7098 252.8494 252.8494 253.1941 253.1941
   253.1941 253.2049 253.2049 253.2049 253.3386 253.3386 253.3518 253.3518
   253.3518 253.3613 253.3613 253.3613 254.0254 254.0254 254.0254 254.0699
   254.0699 254.0732 254.0732 254.0732 254.1787 254.1787 254.1787 254.2077
   255.0840 255.0840 255.7505 257.4608 257.4608 257.4608 258.5119 258.5758
   258.5758 258.5758 262.2231 262.2231 262.2880 262.2880 262.2880 262.9120
   262.9120 262.9120 262.9285 263.0735 263.0735 263.0735 263.0750 263.0750
   263.0750 263.1331 263.3613 263.3613 266.5068 266.5068 266.5068 267.5215
   267.5215 267.5215 270.0781 270.0781 270.0781 270.7281 272.2266 272.2266
   272.2266 272.5611 272.5611 272.5611 272.6868 272.6868 272.6868 272.8420
   272.8897 272.8897 273.0511 273.0511 274.9144 274.9144 274.9144 275.0705
   275.0705 275.0705 275.1541 275.1541 275.1541 275.2043 275.2043 275.2043
   275.2314 275.2314 275.2314 275.7254 275.7254 275.7254 276.1626 276.1626
   276.5252 276.5252 276.5252 276.6028 276.6028 276.6028 277.1732 277.1732
   277.1732 277.6701 277.6701 277.6701 277.7493 277.7493 277.9316 278.0943
   278.0943 278.0943 278.3468 278.3468 278.4478 278.4478 278.4478 278.6845
   278.6845 278.6845 278.7611 278.7611 278.7611 279.0000 279.0000 279.5408
   279.7365 279.7365 279.7365 279.8081 279.8081 279.8081 279.9342 281.9247
   281.9247 281.9247 282.0459 282.0459 282.1595 282.1595 282.1595 282.2302
   282.2302 282.2302 282.3785 282.3785 282.3785 282.4088 282.4735 282.4735
   282.4735 282.4791 282.4963 282.4963 282.6803 282.6803 282.7167 282.7167
   282.7167 282.8871 282.8871 282.8871 282.9174 283.0071 284.0616 284.0616
   284.0616 286.4699 286.4699 286.4699 286.5381 287.8242 287.8242 287.8242
   290.2923 290.2923 290.2923 293.9730 293.9730 294.6154 294.6154 294.6154
   294.6513 294.6513 294.6513 294.7013 294.7013 294.7013 294.7178 294.8637
   294.8637 294.8637 294.9082 294.9082 295.0528 295.0528 295.7598 295.7598
   295.7598 296.4223 296.4223 296.4223 296.4273 296.4273 296.4273 299.3656
   299.3656 299.3656 299.7604 299.7604 299.9167 300.0425 303.2379 303.2379
   303.2379 303.6409 303.6409 303.6409 304.4716 304.4716 304.4716 304.4720
   304.4720 307.0871 307.6065 307.6065 307.6065 307.6239 307.6239 307.6239
   307.6353 307.6353 307.6353 307.7383 307.7383 307.7383 309.1625 309.1625
   309.1638 309.1638 309.1638 309.1823 317.3024 317.3058 317.3058 317.8089
   317.8089 317.8089 318.2447 318.2447 318.2447 318.9378 318.9378 318.9378
   319.0189 319.0189 319.0189 319.1017 319.1017 319.1017 319.1020 319.1020
   319.3071 319.4705 319.4705 319.4705 319.5150 319.6511 319.6511 319.6511
   319.6848 319.6848 320.1642 320.3927 320.3927 321.1209 321.1209 321.1209
   321.7256 321.7256 321.7256 321.9749 321.9749 321.9749 322.3968 323.9791
   323.9791 323.9791 324.4395 324.4395 324.9395 324.9395 324.9395 325.2529
   325.2529 325.2529 327.1953 328.2091 328.2091 328.2091 328.4430 328.4431

     the Fermi energy is     6.1528 ev
     (compare with:     6.1528 eV, computed in scf)

     Writing all to output data dir out/mp-1253.save/
 
     init_run     :      0.03s CPU      0.05s WALL (       1 calls)
     electrons    :     81.70s CPU     88.30s WALL (       1 calls)

     Called by init_run:
     wfcinit      :      0.00s CPU      0.00s WALL (       1 calls)
     potinit      :      0.01s CPU      0.01s WALL (       1 calls)
     hinit0       :      0.01s CPU      0.03s WALL (       1 calls)

     Called by electrons:
     c_bands      :     81.70s CPU     88.30s WALL (       1 calls)
     v_of_rho     :      0.01s CPU      0.01s WALL (       1 calls)

     Called by c_bands:
     init_us_2    :      0.00s CPU      0.00s WALL (       1 calls)
     init_us_2:cp :      0.00s CPU      0.00s WALL (       1 calls)
     cegterg      :     80.18s CPU     86.64s WALL (       1 calls)

     Called by *egterg:
     cdiaghg      :     76.92s CPU     83.32s WALL (      10 calls)
     h_psi        :      0.95s CPU      1.00s WALL (      11 calls)
     g_psi        :      0.01s CPU      0.01s WALL (       9 calls)

     Called by h_psi:
     h_psi:calbec :      0.03s CPU      0.04s WALL (      11 calls)
     vloc_psi     :      0.88s CPU      0.93s WALL (      11 calls)
     add_vuspsi   :      0.03s CPU      0.03s WALL (      11 calls)

     General routines
     calbec       :      0.03s CPU      0.04s WALL (      11 calls)
     fft          :      0.00s CPU      0.02s WALL (      10 calls)
     fftw         :      0.79s CPU      0.83s WALL (   11682 calls)
 
     Parallel routines
 
     PWSCF        :   1m21.91s CPU   1m28.68s WALL

 
   This run was terminated on:  17:53: 6  13Dec2023            

=------------------------------------------------------------------------------=
   JOB DONE.
=------------------------------------------------------------------------------=
