
     Program PWSCF v.7.1 starts on 13Dec2023 at 19: 6:16 

     This program is part of the open-source Quantum ESPRESSO suite
     for quantum simulation of materials; please cite
         "P. Giannozzi et al., J. Phys.:Condens. Matter 21 395502 (2009);
         "P. Giannozzi et al., J. Phys.:Condens. Matter 29 465901 (2017);
         "P. Giannozzi et al., J. Chem. Phys. 152 154105 (2020);
          URL http://www.quantum-espresso.org", 
     in publications or presentations arising from this work. More details at
     http://www.quantum-espresso.org/quote

     Parallel version (MPI), running on    24 processors

     MPI processes distributed on     1 nodes
     122641 MiB available memory on the printing compute node when the environment starts
 
     Reading input from pw_mp-1253_nscf_k260_E48.in
Warning: card &IONS ignored
Warning: card / ignored
Warning: card &CELL ignored
Warning: card / ignored

     Current dimensions of program PWSCF are:
     Max number of different atomic species (ntypx) = 10
     Max number of k-points (npk) =  40000
     Max angular momentum in pseudopotentials (lmaxx) =  4

     Atomic positions and unit cell read from directory:
     out/mp-1253.save/
     Atomic positions from file used, from input discarded
 
 
     K-points division:     npool     =       2
     R & G space division:  proc/nbgrp/npool/nimage =      12
     Subspace diagonalization in iterative solution of the eigenvalue problem:
     one sub-group per band group will be used
     scalapack distributed-memory algorithm (size of sub-group:  3*  3 procs)

 
     Parallelization info
     --------------------
     sticks:   dense  smooth     PW     G-vecs:    dense   smooth      PW
     Min          87      87     26                 1867     1867     307
     Max          88      88     27                 1870     1870     310
     Sum        1045    1045    313                22419    22419    3695
 
     Using Slab Decomposition
 


     bravais-lattice index     =            2
     lattice parameter (alat)  =      12.5993  a.u.
     unit-cell volume          =     500.0063 (a.u.)^3
     number of atoms/cell      =            2
     number of atomic types    =            2
     number of electrons       =        16.00
     number of Kohn-Sham states=         1200
     kinetic-energy cutoff     =      48.0000  Ry
     charge density cutoff     =     192.0000  Ry
     Exchange-correlation= PBE
                           (   1   4   3   4   0   0   0)

     celldm(1)=  12.599264  celldm(2)=   0.000000  celldm(3)=   0.000000
     celldm(4)=   0.000000  celldm(5)=   0.000000  celldm(6)=   0.000000

     crystal axes: (cart. coord. in units of alat)
               a(1) = (  -0.500000   0.000000   0.500000 )  
               a(2) = (   0.000000   0.500000   0.500000 )  
               a(3) = (  -0.500000   0.500000   0.000000 )  

     reciprocal axes: (cart. coord. in units 2 pi/alat)
               b(1) = ( -1.000000 -1.000000  1.000000 )  
               b(2) = (  1.000000  1.000000  1.000000 )  
               b(3) = ( -1.000000  1.000000 -1.000000 )  


     PseudoPot. # 1 for Ba read from file:
     /usr/scratch4/magr4985/MG/HTDF/pseudo/SG15/Ba.upf
     MD5 check sum: ac4691792522964bb0504809e83fae44
     Pseudo is Norm-conserving, Zval = 10.0
     Generated using ONCVPSP code by D. R. Hamann
     Using radial grid of  602 points,  8 beta functions with: 
                l(1) =   0
                l(2) =   0
                l(3) =   1
                l(4) =   1
                l(5) =   2
                l(6) =   2
                l(7) =   3
                l(8) =   3

     PseudoPot. # 2 for Se read from file:
     /usr/scratch4/magr4985/MG/HTDF/pseudo/SG15/Se.upf
     MD5 check sum: e78e48a4f5d8ce1f8dc76ec1271f249c
     Pseudo is Norm-conserving, Zval =  6.0
     Generated using ONCVPSP code by D. R. Hamann
     Using radial grid of  602 points,  6 beta functions with: 
                l(1) =   0
                l(2) =   0
                l(3) =   1
                l(4) =   1
                l(5) =   2
                l(6) =   2

     atomic species   valence    mass     pseudopotential
        Ba            10.00   137.32700     Ba( 1.00)
        Se             6.00    78.96000     Se( 1.00)

     48 Sym. Ops., with inversion, found



   Cartesian axes

     site n.     atom                  positions (alat units)
         1           Ba  tau(   1) = (   0.0000000   0.0000000   0.0000000  )
         2           Se  tau(   2) = (  -0.5000000   0.5000000   0.5000000  )

     number of k points=    16  Gaussian smearing, width (Ry)=  0.0005
                       cart. coord. in units 2pi/alat
        k(    1) = (   0.0000000   0.0000000   0.0000000), wk =   0.0092593
        k(    2) = (  -0.1666667   0.1666667  -0.1666667), wk =   0.0740741
        k(    3) = (  -0.3333333   0.3333333  -0.3333333), wk =   0.0740741
        k(    4) = (   0.5000000  -0.5000000   0.5000000), wk =   0.0370370
        k(    5) = (   0.0000000   0.3333333   0.0000000), wk =   0.0555556
        k(    6) = (  -0.1666667   0.5000000  -0.1666667), wk =   0.2222222
        k(    7) = (   0.6666667  -0.3333333   0.6666667), wk =   0.2222222
        k(    8) = (   0.5000000  -0.1666667   0.5000000), wk =   0.2222222
        k(    9) = (   0.3333333   0.0000000   0.3333333), wk =   0.1111111
        k(   10) = (   0.0000000   0.6666667   0.0000000), wk =   0.0555556
        k(   11) = (   0.8333333  -0.1666667   0.8333333), wk =   0.2222222
        k(   12) = (   0.6666667  -0.0000000   0.6666667), wk =   0.1111111
        k(   13) = (   0.0000000  -1.0000000   0.0000000), wk =   0.0277778
        k(   14) = (   0.6666667  -0.3333333   1.0000000), wk =   0.2222222
        k(   15) = (   0.5000000  -0.1666667   0.8333333), wk =   0.2222222
        k(   16) = (  -0.3333333  -1.0000000   0.0000000), wk =   0.1111111

     Dense  grid:    22419 G-vectors     FFT dimensions: (  40,  40,  40)

     Estimated max dynamical RAM per process >      92.17 MB

     Estimated total dynamical RAM >       2.16 GB

     The potential is recalculated from file :
     out/mp-1253.save/charge-density

     Starting wfcs are random

     Band Structure Calculation
     Davidson diagonalization with overlap

     ethr =  5.00E-06,  avg # of iterations =  6.8

     total cpu time spent up to now is      636.0 secs

     End of band structure calculation

          k = 0.0000 0.0000 0.0000 (  2741 PWs)   bands (ev):

   -21.1027  -6.2139  -6.2139  -6.2139  -5.4423   5.3178   5.3178   5.3178
     8.3008   8.9218   8.9218   8.9218   9.7263   9.7263  12.3130  14.7047
    14.7047  14.7047  14.9021  14.9021  14.9021  16.6743  19.2984  19.2984
    19.2984  21.0002  21.0002  21.0002  22.9829  22.9829  25.0112  25.4943
    25.4943  25.4943  26.9554  26.9554  27.6165  27.6165  27.6165  30.5719
    30.5719  30.5719  33.2889  35.7126  35.7126  35.7126  36.3136  36.3136
    36.3136  36.4553  36.4553  36.4553  37.3487  37.3487  37.3487  37.9978
    38.5346  39.1900  39.1900  39.1900  39.5341  39.5341  39.5341  40.0086
    40.0086  40.9901  45.2132  45.2132  48.6153  48.6153  48.6153  52.7661
    55.4238  55.4238  55.4238  56.5264  56.5264  57.8403  57.8403  57.8403
    58.6368  58.6368  58.6368  59.9148  59.9148  59.9148  61.1191  62.1872
    62.1872  62.1872  62.4282  62.4282  62.4282  62.6245  62.6245  62.6245
    62.7910  62.7910  62.7919  62.7919  62.7919  63.4014  64.6090  64.6090
    64.6090  64.6640  64.6640  64.6640  65.3468  65.3468  65.5794  65.5794
    65.5794  65.9937  65.9937  66.9694  66.9694  66.9694  68.0118  70.5744
    74.0780  74.5065  74.5065  74.5065  76.9052  76.9052  77.0114  77.0114
    77.0114  78.6150  78.6150  79.1864  79.1864  79.1864  79.3420  79.3420
    79.3420  80.0503  80.0503  80.0503  80.3146  80.3146  80.3146  80.5839
    80.5839  81.0878  81.0878  81.0878  83.8273  85.2362  86.5717  86.5717
    86.5717  86.9914  86.9914  86.9914  87.3689  87.3689  87.3689  87.3709
    88.2365  88.2365  88.2365  88.3262  88.3262  88.3262  89.0091  89.0091
    89.0091  93.1121  93.1121  93.2370  93.2370  93.2370  93.4689  94.7408
   100.2306 100.2306 102.1205 102.1205 102.1205 102.3002 102.3002 102.3002
   104.3536 104.3536 104.3536 105.9883 107.5773 107.5773 108.1785 108.1785
   108.1785 108.2096 108.2096 108.2096 110.0216 110.0216 110.0216 110.5485
   110.5485 110.5485 112.0084 112.0084 112.3791 112.9231 112.9231 113.0754
   113.0754 113.0754 113.2231 113.2231 113.2231 113.2730 113.4592 113.4592
   113.4592 114.0843 114.9759 114.9759 115.5117 115.5117 115.5117 115.6126
   115.6126 115.6126 116.4586 116.4586 116.4586 116.7144 116.7224 116.7224
   116.7224 118.7039 118.7039 118.7039 118.7468 118.7468 118.7468 118.9564
   118.9564 119.3732 119.3732 119.3732 119.8390 119.8390 119.8390 120.1969
   120.1969 120.1969 120.3003 120.3003 120.3003 120.3208 120.3208 120.3273
   120.3273 120.5192 120.5590 120.5590 120.5590 120.6770 120.6770 120.6770
   121.4496 123.3898 126.6199 126.6199 126.6199 127.9322 127.9322 127.9322
   128.6499 128.6499 128.6499 128.7930 128.7930 128.7930 129.6339 129.6339
   130.5062 131.8370 131.8370 131.8370 133.7790 133.7790 133.8419 133.8954
   133.8954 133.8954 136.5301 137.5081 137.5081 137.5081 137.9952 139.8554
   139.8554 139.8554 141.7816 141.7816 141.9930 141.9930 141.9930 142.3064
   142.3064 142.3064 143.2093 143.2093 143.2779 143.2779 143.2779 143.4166
   143.4166 143.4166 144.3292 144.5709 144.5709 144.5709 144.8807 144.8807
   145.6270 145.6270 145.6270 145.6957 145.7283 145.7283 145.7283 145.7740
   145.7740 145.7740 145.9222 145.9222 145.9222 146.5681 146.5681 147.6641
   147.6641 147.6641 148.2750 153.3093 153.3093 155.4634 155.4634 155.4634
   155.6103 156.7656 156.7656 156.7656 158.4658 159.2615 159.2615 159.2615
   159.8647 160.1239 160.1239 161.4924 161.4924 161.4924 161.8794 161.8794
   161.8794 162.2259 162.2259 162.2259 164.0004 164.9316 164.9316 164.9316
   165.0524 165.0524 165.7896 165.7896 165.7896 166.5742 166.5742 166.5742
   167.3027 167.3027 167.3027 168.3219 168.3219 168.3219 168.4060 168.4060
   168.4060 170.8236 170.8236 170.8236 171.0540 171.0540 171.0540 171.0778
   171.0778 171.0778 171.1546 171.1546 171.2023 171.2023 171.2023 171.2859
   171.2859 171.2859 171.4794 171.5049 171.5049 172.3244 172.9810 172.9810
   172.9810 173.4293 173.4293 173.4293 174.2191 174.2191 174.2527 174.2527
   174.2527 174.3329 180.0101 180.0101 180.0101 181.4866 181.8405 181.8460
   181.8460 181.8840 181.8840 181.8840 182.1890 182.1890 182.1890 183.6012
   183.6012 183.6012 183.6665 183.6665 183.6665 183.9225 184.4381 184.4381
   184.9176 184.9176 184.9176 186.7781 186.7781 186.7781 186.9464 186.9464
   187.0166 187.0166 187.0624 187.0624 187.0624 187.2049 187.2049 187.2049
   187.3437 187.3437 187.3437 187.5313 187.5313 187.5313 187.7837 187.7837
   187.7837 187.8508 187.8508 188.2609 188.2609 188.2609 188.8508 189.0050
   189.0050 189.0050 189.0128 189.2282 189.2282 189.2282 190.1232 190.1232
   190.1232 190.1245 190.1245 190.1245 190.9818 191.4918 191.4918 191.4918
   191.6170 191.6170 191.6170 191.7056 191.7056 192.2866 195.1495 195.1495
   195.1495 195.1910 195.1910 195.9441 195.9441 195.9441 196.3987 196.6244
   196.6244 196.6244 196.7257 196.7257 196.7257 197.3222 197.3222 197.7083
   197.8058 197.8058 197.8058 197.8993 197.9037 197.9037 197.9037 197.9471
   197.9471 199.5037 199.5037 199.5037 199.5795 199.5795 199.6151 199.6151
   199.6151 199.7867 199.7867 199.7867 199.9059 199.9059 199.9059 200.9658
   201.0347 201.0347 201.0347 201.0596 201.0596 205.9824 205.9824 205.9824
   217.0636 217.4610 217.4610 217.4610 218.3959 218.3959 218.3959 219.9913
   220.2117 220.2117 220.2117 220.5946 220.5946 220.5946 220.6314 220.6314
   220.6314 220.6621 220.6621 220.6621 220.7173 221.1457 221.1457 221.1457
   221.2266 221.2266 221.2266 221.2799 221.2799 221.3608 221.3608 221.3608
   221.3643 221.3643 221.4101 221.4101 221.4101 221.7440 221.7440 221.8918
   221.8918 221.8918 222.3825 223.8353 223.8353 223.8353 226.8375 226.8375
   226.9912 226.9912 226.9912 227.1070 227.1070 227.1722 227.1722 227.1722
   227.3063 227.3063 227.3063 227.3748 227.3748 227.3748 228.1082 228.1082
   228.2217 228.2217 228.2217 228.3115 228.4037 228.4037 228.4037 229.9388
   232.5996 232.5996 232.6893 232.6893 232.6893 232.9949 233.6940 233.6940
   233.6940 236.1706 236.1706 236.1706 237.1475 237.1475 237.1475 237.1727
   237.1727 237.1727 237.1776 237.3587 237.3587 238.5150 238.5150 238.5150
   238.6033 238.6033 238.6068 239.4974 239.4974 239.4974 239.8559 239.8559
   239.8559 240.3638 240.3638 240.3638 240.5078 240.5078 240.5078 240.5936
   240.5936 241.0109 241.0109 241.0109 241.1551 245.7818 245.7818 245.7818
   245.9964 245.9964 246.0674 246.0674 246.0674 246.2200 246.2200 246.2200
   246.4158 246.5810 246.5810 246.5810 247.4917 248.5548 248.8497 248.8497
   248.8497 249.2644 249.2644 249.2674 249.2674 249.2674 249.2939 249.2939
   249.2939 249.9474 249.9474 249.9474 250.4421 250.4421 250.4421 252.6050
   252.6448 252.7098 252.7098 252.7098 252.8494 252.8494 253.1941 253.1941
   253.1941 253.2049 253.2049 253.2049 253.3386 253.3386 253.3518 253.3518
   253.3518 253.3613 253.3613 253.3613 254.0254 254.0254 254.0254 254.0699
   254.0699 254.0732 254.0732 254.0732 254.1787 254.1787 254.1787 254.2077
   255.0840 255.0840 255.7505 257.4608 257.4608 257.4608 258.5119 258.5758
   258.5758 258.5758 262.2231 262.2231 262.2880 262.2880 262.2880 262.9120
   262.9120 262.9120 262.9285 263.0735 263.0735 263.0735 263.0750 263.0750
   263.0750 263.1331 263.3613 263.3613 266.5068 266.5068 266.5068 267.5215
   267.5215 267.5215 270.0781 270.0781 270.0781 270.7281 272.2266 272.2266
   272.2266 272.5611 272.5611 272.5611 272.6868 272.6868 272.6868 272.8420
   272.8897 272.8897 273.0511 273.0511 274.9144 274.9144 274.9144 275.0705
   275.0705 275.0705 275.1541 275.1541 275.1541 275.2043 275.2043 275.2043
   275.2314 275.2314 275.2314 275.7254 275.7254 275.7254 276.1626 276.1626
   276.5252 276.5252 276.5252 276.6028 276.6028 276.6028 277.1732 277.1732
   277.1732 277.6701 277.6701 277.6701 277.7493 277.7493 277.9316 278.0943
   278.0943 278.0943 278.3468 278.3468 278.4478 278.4478 278.4478 278.6845
   278.6845 278.6845 278.7611 278.7611 278.7611 279.0000 279.0000 279.5408
   279.7365 279.7365 279.7365 279.8081 279.8081 279.8081 279.9342 281.9247
   281.9247 281.9247 282.0459 282.0459 282.1595 282.1595 282.1595 282.2302
   282.2302 282.2302 282.3785 282.3785 282.3785 282.4088 282.4735 282.4735
   282.4735 282.4791 282.4963 282.4963 282.6803 282.6803 282.7167 282.7167
   282.7167 282.8871 282.8871 282.8871 282.9174 283.0071 284.0616 284.0616
   284.0616 286.4699 286.4699 286.4699 286.5381 287.8242 287.8242 287.8242
   290.2923 290.2923 290.2923 293.9730 293.9730 294.6154 294.6154 294.6154
   294.6513 294.6513 294.6513 294.7013 294.7013 294.7013 294.7178 294.8637
   294.8637 294.8637 294.9082 294.9082 295.0528 295.0528 295.7598 295.7598
   295.7598 296.4223 296.4223 296.4223 296.4273 296.4273 296.4273 299.3656
   299.3656 299.3656 299.7604 299.7604 299.9167 300.0425 303.2379 303.2379
   303.2379 303.6409 303.6409 303.6409 304.4716 304.4716 304.4716 304.4720
   304.4720 307.0871 307.6065 307.6065 307.6065 307.6239 307.6239 307.6239
   307.6353 307.6353 307.6353 307.7383 307.7383 307.7383 309.1625 309.1625
   309.1638 309.1638 309.1638 309.1823 317.3024 317.3058 317.3058 317.8089
   317.8089 317.8089 318.2447 318.2447 318.2447 318.9378 318.9378 318.9378
   319.0189 319.0189 319.0189 319.1017 319.1017 319.1017 319.1020 319.1020
   319.3071 319.4705 319.4705 319.4705 319.5150 319.6511 319.6511 319.6511
   319.6848 319.6848 320.1642 320.3927 320.3927 321.1209 321.1209 321.1209
   321.7256 321.7256 321.7256 321.9749 321.9749 321.9749 322.3968 323.9791
   323.9791 323.9791 324.4395 324.4395 324.9395 324.9395 324.9395 325.2529
   325.2529 325.2529 327.1953 328.2091 328.2091 328.2091 328.4430 328.4430
   328.4430 328.5491 328.5491 328.5491 328.7751 328.7751 329.2663 329.2663
   329.2663 329.3322 329.3322 330.1173 330.3631 330.3631 330.3631 330.5928
   330.5928 330.5928 330.6227 332.0970 332.0970 332.0970 332.3733 332.3733
   332.3733 332.3781 332.3781 332.6288 332.6288 332.6288 332.6876 332.6876
   332.6876 332.7237 332.7237 332.7291 332.7291 332.7291 332.8536 332.8536
   332.8536 332.8996 333.0527 333.0735 333.0735 333.0735 333.2620 333.2620
   333.6309 333.6309 333.6309 333.6338 333.6338 333.6459 333.6459 333.6459
   333.6609 333.6609 333.6609 338.3321 339.6940 339.6940 339.6940 339.7340
   339.7340 339.7340 342.1396 342.1396 342.1396 342.2582 342.2582 342.2582
   343.0593 343.0593 343.0593 343.7552 343.7552 343.7552 343.7757 343.7757
   343.8419 343.9317 343.9317 343.9700 343.9700 343.9700 343.9797 343.9797
   343.9797 344.5605 344.5605 344.5605 346.1741 346.1741 346.1741 346.4772
   346.6046 346.6046 346.6112 346.6112 346.6112 348.0063 348.0063 348.0063
   348.1013 348.1013 348.1013 348.9731 348.9731 348.9731 348.9820 348.9820
   348.9820 348.9940 348.9940 349.0369 349.0369 349.0369 349.0959 349.1350
   349.2996 349.2996 349.2996 349.4125 349.4125 349.4819 349.4819 349.4819
   350.1890 350.1890 350.2846 350.2846 350.2846 350.3536 350.4348 350.4348
   350.4348 350.4933 350.4933 350.5603 350.5603 350.5603 350.7510 351.0745
   351.0745 351.0745 351.2183 351.2183 351.2183 351.2575 351.2575 351.3036
   351.3036 351.3036 351.4124 352.1519 355.5733 355.5733 355.5733 355.7156
   355.7156 355.7156 356.1984 356.1984 356.2339 356.2339 356.2339 356.3826
   357.2778 357.2778 357.2778 357.4647 357.5111 357.5111 357.5111 357.5728
   357.5728 357.5728 357.6351 357.6351 357.7236 357.7236 357.7236 358.4944
   358.5621 358.5621 358.5621 360.0796 360.2036 360.2041 360.2075 360.2075

          k =-0.1667 0.1667-0.1667 (  2800 PWs)   bands (ev):

   -21.0964  -6.5486  -6.2199  -6.2199  -5.0786   4.6317   5.0034   5.0034
     8.8561   9.2743   9.2743   9.4035  10.4278  10.4278  12.9929  14.5377
    14.5377  14.6768  14.7102  14.8548  14.8548  16.8315  17.6709  18.2383
    18.2383  20.4631  20.4631  21.7966  23.3808  23.3808  23.4569  24.4977
    24.4977  27.0719  27.3639  27.3639  27.8070  29.3006  29.3006  30.1723
    31.0900  31.0900  32.6637  32.9864  32.9864  33.6106  34.5524  35.6917
    35.6917  36.4600  36.9682  36.9682  37.1593  37.6914  38.2235  38.2235
    39.3972  39.3972  39.7405  40.9000  40.9000  41.2642  42.3682  42.6595
    42.6595  44.0023  44.0023  45.1304  47.0764  50.7547  51.1720  51.1720
    51.7008  51.7008  54.6604  55.2904  55.2904  56.0566  56.0794  56.0794
    57.1135  57.3175  57.3175  57.8071  58.1005  58.1005  59.0185  59.0185
    59.3923  59.9366  61.0346  61.0346  61.9608  61.9608  62.8110  62.9446
    62.9969  62.9969  63.8412  64.6629  64.6629  65.4481  65.4481  65.4913
    65.6838  65.7818  65.7818  66.3652  66.3652  66.5615  66.7650  67.3586
    69.2783  69.2783  69.8635  70.8110  70.8110  71.4338  71.4338  72.0259
    72.1360  72.1360  72.9347  72.9347  73.3800  73.3800  73.4160  75.0239
    75.2704  75.2704  75.6005  76.8933  78.2934  78.2934  78.5468  79.4693
    79.4693  79.9330  81.3814  81.4827  81.4827  81.6183  82.0112  82.1764
    82.1764  82.5960  83.1893  83.1893  84.2132  84.2132  84.5766  84.5766
    84.5876  85.1937  85.4893  85.4893  87.8982  88.2466  88.2466  88.5182
    88.8991  88.8991  89.0823  91.8147  91.8147  92.4555  92.4555  92.5413
    93.1800  93.1935  93.1935  94.4469  94.4469  94.8020  96.0685  98.9514
    99.3905  99.3905  99.5522  99.5522 100.0836 101.5459 101.5459 101.9859
   102.4996 102.4996 102.8132 104.4803 104.4837 104.4837 104.6484 104.9823
   106.2598 106.2598 106.7420 107.0751 107.0751 107.2010 108.1533 108.1533
   108.5141 109.1473 109.1473 110.1399 110.1399 110.3045 110.3045 110.8867
   111.4876 111.4876 111.5680 111.5680 111.6207 113.1468 113.1468 113.4069
   113.5576 113.7077 113.7077 114.5575 114.5575 114.7183 115.0940 115.2023
   115.4219 115.4219 116.1137 116.2679 116.7075 116.7075 117.5099 117.5099
   118.0505 118.0505 118.2497 118.3451 118.6421 118.6421 119.6663 119.6663
   119.9118 119.9118 120.1374 120.4916 120.5868 120.5868 120.8690 121.7082
   121.7082 121.9532 122.1333 122.1333 122.2421 122.5012 122.5012 122.7572
   122.8292 122.8292 123.1278 123.6410 124.7509 124.7509 124.8108 125.7402
   125.7402 126.0739 126.3632 127.2452 127.2452 127.8305 127.9833 127.9833
   128.1479 128.6585 128.6585 128.6793 129.6858 130.6550 130.6550 131.4382
   131.4382 132.7798 133.6643 133.6643 133.6982 134.2909 134.2909 134.4045
   134.4045 134.4202 134.7581 134.7581 135.3779 137.2895 137.2895 137.7751
   137.7777 138.2236 138.2236 139.2539 139.2539 139.3824 139.5857 139.5857
   139.6580 140.5381 141.0437 141.0437 141.3141 141.6716 141.6840 141.6840
   142.1764 142.1764 142.9209 143.8676 143.8676 144.3241 145.3994 147.0520
   147.0520 147.1014 147.3305 147.3305 148.1156 148.2858 148.2858 148.7572
   148.9534 148.9534 149.6491 151.0078 151.4201 151.4201 151.5517 152.5272
   152.7924 152.7924 152.8513 152.8513 153.5191 153.5191 153.7977 154.4985
   154.4985 155.4837 155.4837 155.7231 156.9771 156.9771 157.1333 158.9557
   159.1284 159.5915 159.5915 159.8909 159.8909 160.1643 160.1643 160.2767
   160.3609 160.5440 160.5440 160.6834 161.1270 161.1270 161.6208 161.6208
   161.9838 162.2117 162.9033 162.9355 162.9355 164.3302 164.3302 164.8506
   164.9867 164.9867 166.4054 166.4054 166.9817 166.9817 167.0902 168.5698
   168.8621 170.1509 170.1509 170.2819 171.3037 171.4799 171.4799 171.6069
   171.7322 171.7322 172.0891 172.0891 172.4283 172.4714 172.4714 172.5172
   173.0997 173.8102 173.8102 174.1802 174.1802 174.4243 174.6069 174.6069
   174.6809 175.3052 175.3052 175.4337 175.4337 175.6370 175.8034 176.0480
   177.0253 177.0253 177.5471 177.7581 177.7581 177.9071 178.2272 178.2272
   178.7118 179.9281 180.5341 180.5341 180.5658 180.7477 180.7477 181.6370
   181.6370 181.9804 182.2425 182.3738 182.3738 182.4524 182.4524 182.9449
   182.9570 182.9570 183.0240 183.0688 183.2751 183.2751 183.7493 183.7493
   183.8101 184.4100 184.4100 184.6415 184.6415 184.6524 185.3660 185.3660
   185.9155 186.2369 186.2369 186.8134 186.8134 187.4249 187.5543 187.7611
   187.8039 187.8039 188.1425 188.1425 188.7041 189.3769 189.3769 189.4472
   189.5024 189.5024 189.6340 190.1647 190.5671 190.5671 191.1487 191.1487
   191.2862 191.6711 191.6711 191.9196 192.8840 193.1348 193.1348 193.3359
   193.3359 193.7700 193.7700 194.1521 194.1840 194.5343 194.5963 194.5963
   195.7917 195.8530 195.8530 196.3782 196.3782 196.4433 196.4433 196.4643
   196.8956 197.1811 197.1811 197.6435 197.6928 197.7669 197.7669 199.2802
   199.6512 199.6512 200.6747 200.9832 200.9832 201.2851 201.2851 201.4430
   201.9221 201.9221 202.3327 202.9283 203.5253 203.5253 203.8578 204.5154
   204.5154 204.6115 205.3459 205.3459 205.3749 205.3819 207.1055 207.4716
   207.4716 209.1061 209.1061 209.4359 209.4359 210.1849 210.5910 210.8082
   210.8082 211.1725 211.5371 211.5371 212.0006 212.1363 212.1363 212.1788
   212.4639 212.4639 212.8693 212.8693 212.9867 213.5988 213.5988 213.9515
   213.9515 214.4714 214.4714 214.8990 216.0873 216.6664 217.3006 217.3006
   219.7361 219.7361 219.8647 220.1778 220.3625 220.3625 220.7359 220.7359
   220.9470 220.9860 221.8568 221.8568 223.0010 223.0010 223.1400 223.8883
   223.8883 223.9064 223.9461 223.9461 224.3331 225.7373 225.7373 226.8864
   227.1419 227.1419 227.2040 228.8354 228.8354 228.8724 228.9885 228.9885
   229.2562 229.2562 229.6752 230.0618 230.4366 230.4366 230.5775 230.6371
   230.9011 230.9011 231.0371 231.3446 231.5941 231.5941 231.6308 231.7430
   231.7430 232.4378 232.4378 232.6939 232.6939 232.7954 232.9668 233.1562
   234.1145 234.3709 234.3709 234.5876 234.5876 234.9210 235.0546 235.0546
   235.3947 235.3947 235.5307 235.8473 235.8961 235.8961 236.4731 236.9935
   236.9935 237.2625 237.5033 237.5033 238.1588 238.2293 238.2293 238.6400
   238.9252 238.9252 239.9832 240.2003 240.2003 241.0526 241.0526 241.0770
   241.2922 241.5214 241.5214 242.5728 242.5728 243.1377 243.1377 243.6690
   244.7973 244.7973 245.2418 245.9466 246.0396 246.0396 246.2791 246.9800
   247.0706 247.0706 247.1340 247.1340 247.4768 247.9863 248.2036 248.2036
   248.6494 248.6494 248.7300 248.9023 248.9023 249.0043 249.0043 249.3998
   249.4707 249.4707 249.6900 250.3225 250.4160 250.4160 250.5830 250.6318
   250.8618 250.8618 251.1583 251.4416 251.4416 252.4495 252.7019 252.7019
   252.8245 253.1022 253.1022 253.3881 254.0340 254.0699 254.0699 254.5785
   254.5785 254.9822 254.9822 255.3935 255.3935 255.5667 256.0567 256.0845
   256.0845 256.0923 256.2292 256.2292 257.2070 257.2800 258.4870 258.4870
   258.8395 258.8395 259.6855 259.9755 260.1721 260.1721 260.9859 261.0152
   261.0152 261.2838 261.8972 261.8972 262.4564 262.4984 262.4984 262.9178
   262.9178 263.2635 263.6607 263.6607 263.9076 264.9039 264.9303 264.9303
   265.2749 265.2749 265.3469 265.6737 265.6737 265.7815 266.0929 266.2814
   266.2814 266.4021 266.5463 266.7035 266.7035 267.0195 267.0195 267.2281
   267.6417 267.6417 267.8019 267.8920 267.8920 268.0264 268.0264 268.1233
   268.4105 268.4105 268.5798 268.5850 268.9431 268.9431 269.0028 270.2228
   271.0906 271.1246 271.1246 271.2328 271.2328 272.8648 272.8977 272.8977
   273.1351 273.1351 273.2671 273.6799 273.8231 273.8231 274.1626 274.1626
   274.4065 274.4132 274.4132 274.7577 275.0805 275.0805 275.1087 275.9904
   275.9904 276.0812 276.2183 276.9127 277.1032 277.1032 277.3194 277.3194
   277.8916 277.8916 277.9093 278.0398 278.0398 278.5237 278.5237 278.5428
   279.8689 279.8689 280.0533 280.1260 280.1260 280.7903 280.8761 281.1042
   281.1042 281.7871 281.8807 281.8807 282.4154 282.9110 282.9110 283.4383
   283.9380 283.9380 284.5068 284.5068 284.5336 284.6970 285.1336 285.1336
   285.2385 285.4103 285.5305 285.5330 285.5330 285.5563 285.5563 285.9841
   285.9841 286.1615 287.1393 287.1393 287.4250 288.2707 288.2707 288.3271
   288.8781 288.8781 288.9677 288.9979 288.9979 289.1999 289.6099 290.3395
   290.3395 290.4563 290.6577 290.6577 291.3884 291.3884 291.3953 292.1938
   292.1938 292.4384 292.4384 292.8431 292.8766 293.0781 293.0781 293.1911
   293.2417 293.2417 293.2804 293.4613 293.4613 294.1736 294.1736 295.1967
   295.2849 295.3742 295.3742 295.8863 295.8863 296.0817 296.7579 296.9125
   296.9125 298.4647 298.4647 298.5236 298.9371 299.6128 299.6128 299.6994
   299.6994 299.9945 300.2983 300.8503 302.2622 302.2622 302.3037 302.3170
   302.3170 302.5335 302.5335 303.0831 303.1192 303.1192 303.4039 304.0089
   305.2830 305.2830 305.9581 306.5678 307.0944 307.0944 307.4771 307.9639
   307.9639 309.1116 309.2726 310.4388 310.4388 310.7308 310.7308 310.8036
   310.8036 310.9303 310.9303 311.2010 311.6150 311.8321 312.8815 312.8815
   313.3995 313.3995 313.6342 313.9973 313.9973 314.1202 314.3930 314.3930
   315.3250 315.3250 315.4590 315.6804 315.7512 315.7512 317.4670 317.4670
   317.5740 318.1081 318.1498 318.1498 318.1837 318.1837 318.8324 319.0751
   319.0751 319.2141 319.3760 319.5444 319.5444 319.9183 319.9183 320.2552
   320.2552 320.2952 320.4165 320.5882 320.5882 321.9283 322.1239 322.1239
   322.5858 322.6331 322.6331 322.7225 323.3241 323.4737 323.4737 324.1420
   324.1420 324.8321 324.8321 324.8808 324.9869 325.9032 325.9032 326.9039
   326.9039 327.4890 327.5911 327.5911 327.7679 327.7857 327.9744 327.9744
   328.1254 328.6822 328.6822 329.0015 329.2547 329.2547 329.7768 329.7768
   330.1933 330.3678 330.3875 330.3875 331.2545 331.2545 331.7796 331.8524
   331.8524 331.9946 332.4561 332.4561 332.5402 333.0718 333.0718 333.4015
   333.4538 333.4538 333.5248 333.6928 333.8452 333.8452 333.8648 333.9569
   333.9569 334.1976 334.1976 334.5409 334.5409 334.6184 334.6680 334.6680
   334.6935 334.9128 335.0433 335.0433 335.1650 336.1997 336.4314 336.4314
   336.5185 336.5822 336.5822 337.0623 337.4244 337.4244 337.5228 337.7334
   338.2127 338.2754 338.2754 338.6734 338.6734 339.1720 339.4503 339.5570
   339.5570 340.2425 340.2425 340.2549 340.8007 341.0216 341.0216 341.3849
   341.3849 341.4382 341.8063 341.9428 341.9428 342.1616 342.1616 343.0438
   343.5843 343.5877 343.7276 343.7276 344.7495 344.7495 344.8422 345.6169
   345.6169 345.9014 346.0418 346.0418 346.1170 346.2458 346.2458 346.3794
   346.3794 346.4732 346.7137 346.7137 346.8694 346.8918 346.8918 346.9236
   346.9486 346.9486 347.6449 347.9668 347.9668 348.2131 348.3474 348.5230
   348.5230 348.6519 348.6519 348.8682 349.3691 349.4051 349.4051 349.9642
   349.9642 350.1163 350.2918 350.4225 350.4225 350.9559 351.1892 351.3694
   351.3694 351.5130 351.8855 351.8855 352.0118 352.0248 352.0248 352.3535
   352.3535 352.6322 352.6322 352.9267 353.0112 353.0112 353.0444 353.4201
   353.4201 353.7993 353.7993 353.8201 354.4445 354.6253 354.6253 355.0471
   355.0624 355.0624 355.2664 355.3008 355.3008 356.1679 356.1679 356.5451
   356.8365 357.0850 357.0850 357.2063 357.2734 357.2737 357.2737 358.4277
   358.4277 359.9562 360.0180 360.0180 360.4617 360.6829 360.8124 360.8124
   360.8733 360.8733 361.7685 361.7685 361.9797 362.0467 362.7429 362.7429

          k =-0.3333 0.3333-0.3333 (  2812 PWs)   bands (ev):

   -21.0836  -6.9395  -6.2317  -6.2317  -4.6263   3.7326   4.5204   4.5204
     9.3389  10.2089  10.2089  10.9015  12.0058  12.0058  13.6954  13.7856
    13.7856  14.3165  14.7185  14.7185  14.7286  15.9872  16.6147  16.6147
    18.2798  19.3153  19.3153  20.3032  22.5085  23.1905  23.1905  24.8795
    24.8795  27.6733  27.7132  27.7132  28.3848  28.8728  28.9143  28.9143
    31.4454  31.4715  31.7933  31.7933  34.2542  34.2542  35.1565  35.1565
    35.3083  35.9070  35.9070  36.6244  36.7913  38.9632  38.9632  40.6392
    40.9376  40.9376  42.5428  43.2001  43.2001  43.6501  44.1283  44.1283
    44.6878  45.0875  45.6925  45.6925  47.1466  49.3614  49.3614  50.3933
    50.3933  50.5125  52.2953  52.2953  52.5366  52.5366  52.5953  53.1169
    53.1705  56.1028  56.1028  56.6510  56.6510  57.5582  58.6554  58.6554
    59.2909  59.6468  59.9520  59.9520  60.5873  60.9074  60.9074  61.0971
    63.1762  63.1762  64.2513  64.2707  64.2707  64.9709  66.7363  66.7363
    66.9489  67.3760  67.3760  68.2457  68.5641  68.5641  69.0914  69.3908
    69.3908  69.7461  69.9404  69.9404  70.5184  70.9591  70.9591  71.9968
    71.9968  72.1226  72.2183  75.0309  75.4350  75.4350  76.9394  77.2612
    77.3797  77.3797  77.5952  77.5952  77.7721  78.7640  78.7899  78.7899
    79.1523  79.1523  79.7188  80.0757  80.0757  80.4871  80.8040  80.8040
    82.6164  82.6164  82.7763  83.2892  84.6015  84.6015  84.8805  85.7921
    85.7921  87.6988  88.0222  88.0222  88.5866  89.2206  89.2206  89.7970
    90.1464  90.1464  91.8766  91.8766  91.8787  94.5286  94.5373  94.5373
    95.3060  95.8330  95.8330  95.9496  96.2976  97.6631  97.6631  98.3958
    98.3958  98.4389  98.5609  98.7553  98.7553  99.9968  99.9968 100.4848
   100.5376 100.6439 100.6439 101.2185 101.2185 102.0996 102.1931 102.4209
   102.4209 102.6152 102.6152 104.1457 104.9786 104.9786 105.4915 106.0852
   106.3516 106.3516 106.7501 106.7501 106.9756 106.9756 107.0513 108.3731
   108.3731 109.3022 110.3756 111.7285 111.9976 111.9976 112.3614 112.6035
   112.6035 113.5466 113.7755 113.8526 113.8526 114.6157 114.6157 115.3428
   115.6149 115.6149 115.8753 116.0838 116.0838 116.3087 116.5568 116.5568
   116.8543 117.2646 117.2646 117.5691 118.0046 119.3837 119.3837 120.8827
   120.8827 121.0065 121.0065 121.4001 122.0858 122.0858 122.2937 122.7345
   123.0760 123.0760 123.5515 123.5515 123.6926 124.0346 124.2814 124.5907
   124.5907 125.0635 125.0635 125.5492 125.5492 125.5932 125.9399 126.7345
   126.7345 127.6475 127.6475 128.5568 129.1946 129.9449 129.9641 129.9641
   130.9794 131.1510 131.1510 132.0183 132.3640 132.3640 132.6715 132.9307
   133.0205 133.0205 133.8320 133.8320 133.8861 133.9207 134.0427 134.0427
   135.4557 136.2017 136.2017 137.4462 138.6398 138.6398 138.9193 138.9947
   138.9947 139.1700 139.1700 139.8366 139.8560 140.2350 140.6160 140.6160
   140.9240 141.2003 141.3969 141.3969 141.9414 141.9414 142.7934 142.7934
   142.9029 143.2809 143.2809 143.9670 144.2428 144.2428 145.0955 145.3854
   145.3854 146.9893 146.9893 148.5477 148.9172 149.4230 149.4230 149.9657
   150.1302 150.3609 150.3609 150.5686 150.5686 150.7515 150.7637 150.7637
   152.0011 152.1093 152.1093 152.4369 152.5367 152.5367 152.6175 152.8256
   153.1285 153.1285 153.6114 153.6114 155.0707 155.3272 155.3272 157.1178
   158.0627 158.0627 158.8699 159.3328 159.9223 159.9517 159.9517 160.3043
   160.3043 160.8286 160.8286 160.9647 160.9736 160.9736 161.7925 161.7925
   162.1722 162.6513 162.8600 162.8721 162.8721 163.3575 164.1223 164.1223
   164.1644 165.1069 165.1069 166.1005 166.1005 166.4840 166.8561 166.8561
   166.9457 167.0551 167.2838 167.2838 167.8745 167.9961 167.9961 168.1909
   169.1280 169.1280 169.3212 169.3212 169.3554 169.6719 169.6719 170.0122
   170.3077 170.6937 170.6937 171.4147 171.4147 172.6308 172.6308 172.9431
   173.0849 173.0849 173.7587 174.7150 174.7150 174.9764 175.1827 175.1827
   175.2007 176.0985 176.4015 176.4015 177.3560 177.3560 177.8466 177.8466
   178.1511 178.1550 178.3747 178.3747 179.1186 179.7057 179.7057 179.8263
   180.1743 181.3408 181.3408 181.8123 182.2187 182.2187 182.7668 182.8306
   182.8306 183.1503 183.1503 183.3915 183.7736 183.7736 183.9130 184.6598
   184.6787 184.6787 185.1750 185.1797 186.1477 186.1477 186.4141 186.9521
   186.9521 187.7758 187.7758 187.9738 187.9738 188.0517 188.2117 188.9964
   188.9964 189.1594 189.4540 189.4540 189.5883 189.8812 189.8812 190.0567
   191.4339 191.7556 191.8042 191.8042 192.3160 192.3160 192.6453 193.2232
   193.2232 193.2601 193.7282 193.9430 193.9430 194.3327 194.3327 194.5872
   195.1963 195.4903 195.4903 195.7319 195.7319 195.9936 195.9936 196.1654
   196.1979 196.9331 196.9331 197.6576 197.6576 198.6809 199.0147 199.0147
   199.6398 200.7733 201.0158 201.0158 201.3479 201.9445 201.9445 202.5886
   202.5886 203.5119 203.5483 203.8380 203.8380 204.4732 204.4732 205.0214
   206.2023 206.5775 206.5938 206.5938 206.6368 206.6368 206.8530 206.8530
   206.8583 207.6147 207.6147 207.7343 208.0783 208.0783 208.2487 208.4160
   208.6214 208.6214 209.2712 209.2972 209.2972 209.6452 210.5819 210.5819
   211.0108 211.1694 211.1694 211.5301 211.7480 212.0675 212.0675 212.4314
   212.4314 212.9603 212.9603 213.5721 213.7819 213.9727 214.0882 214.0882
   214.6685 214.6685 214.8624 214.8624 214.9407 215.1289 215.4699 215.4699
   216.1281 216.6323 216.6323 217.1543 217.7129 219.0201 219.0201 219.9508
   220.0416 220.5753 220.5753 220.8740 221.1761 221.1761 221.4157 221.4157
   221.8486 221.8486 222.4891 222.7631 222.8033 222.8033 222.8794 223.4775
   223.5388 223.5388 223.8660 223.8660 224.2551 224.5828 224.5828 224.8380
   225.0053 225.0053 225.5975 226.4561 226.4561 226.5957 227.6727 227.6727
   227.8724 227.8724 228.9049 228.9805 228.9805 229.6245 231.0398 231.0398
   231.1432 231.7867 231.8292 231.8292 232.4174 232.4174 233.0738 234.2489
   234.2489 234.7099 234.8742 234.8742 235.0585 235.0585 235.1987 235.8902
   235.8902 236.0220 236.8272 237.1371 237.1371 237.2022 237.4913 237.5412
   237.5412 237.6171 237.6979 237.6979 238.0575 238.2851 238.2851 238.5826
   238.5826 238.7225 239.0910 239.0910 239.4720 240.1028 240.1028 241.3330
   241.6284 241.6284 242.1047 242.4418 242.5745 242.5745 243.1941 243.1941
   243.7481 245.4446 245.4446 246.2537 246.4982 246.4982 246.8851 247.3398
   247.7083 247.7083 247.9213 248.0564 248.0564 248.4712 248.4712 248.6696
   248.7977 248.7977 248.8535 249.2206 249.2206 249.5699 249.7161 250.1272
   250.1272 250.2067 250.2067 250.5133 250.5133 250.5975 250.7983 251.1015
   251.1015 251.4405 252.0488 252.0955 252.0955 252.3468 252.4014 253.2514
   253.2514 253.3450 253.9715 253.9715 254.2231 254.2231 254.5167 254.7217
   255.0239 255.0239 255.3161 255.8154 255.8154 256.0147 256.0147 256.9500
   257.0832 257.2423 257.2423 257.3433 257.5466 257.5466 257.7889 257.7889
   257.8062 258.0173 258.0173 258.8111 258.8111 259.0081 259.0683 259.1281
   259.1281 259.2626 259.2626 259.3488 259.4726 259.4726 259.5483 259.7625
   259.7625 259.8913 260.0351 260.0351 260.1321 260.1499 260.1499 261.7185
   261.7185 262.2539 263.5727 263.6393 264.1483 264.1483 264.5173 264.5173
   264.5932 264.9914 265.4959 265.4959 265.8462 265.8462 266.6210 267.3819
   267.3819 268.0654 268.2059 268.3237 268.3237 268.4038 268.4038 268.8460
   268.8460 268.9870 269.1945 269.3710 270.2741 270.2741 271.7474 272.0681
   272.0681 272.5065 272.5065 272.7770 272.8350 272.8350 273.0132 273.0132
   273.2153 273.4155 273.4390 273.4390 273.4426 274.9447 274.9447 275.1243
   275.1323 275.1323 275.7074 276.1345 276.1865 276.1865 277.4242 277.4242
   277.6426 277.6948 277.6948 278.0171 278.4276 278.4276 279.2338 279.3562
   279.5966 279.5966 280.3443 280.3443 280.7280 280.7328 280.7328 280.9411
   280.9411 281.3478 281.9105 282.1503 282.1503 282.4710 282.4920 282.4920
   282.9309 282.9309 282.9653 283.4598 283.4811 283.9467 284.5142 284.5142
   284.5491 284.7128 284.7128 285.2474 285.3236 285.3236 285.6330 285.6330
   285.8570 286.3688 286.3688 286.4171 286.7063 286.7063 286.9080 287.7781
   287.7781 288.2360 288.2360 288.5959 288.5959 288.6248 289.1834 289.3395
   289.9665 290.2947 290.2947 291.4608 291.5910 291.5910 292.0355 292.2969
   292.2969 292.4634 293.4269 293.4269 293.6032 293.6407 293.6407 294.0387
   294.0387 294.2150 294.3221 294.3221 294.6040 294.8975 295.1040 295.1040
   295.6969 295.9037 295.9037 296.3434 296.3434 296.5127 296.8954 296.8954
   296.9100 297.6052 297.6052 297.7461 297.9710 298.1910 298.1910 299.7066
   299.7066 299.7873 299.8164 301.2929 301.2929 302.0838 302.0838 302.3028
   302.3028 302.7379 302.7504 302.9294 302.9294 303.4204 303.7035 303.7035
   303.7734 304.3199 304.3199 304.3420 304.5207 304.5207 304.8838 305.1467
   305.1467 305.2479 305.4557 305.5562 305.7550 305.7550 306.8711 306.8711
   307.1984 308.5325 308.5325 309.1232 309.1232 309.3627 309.8950 309.8950
   309.9307 310.4318 310.4318 310.5843 311.2781 311.5404 311.5404 312.0108
   312.0108 312.4490 312.5856 312.5856 312.7797 312.7797 313.1477 313.1477
   313.8067 313.9654 314.5956 314.7073 314.7073 314.8644 315.1035 315.1035
   315.9917 316.4527 316.4527 316.8542 317.3496 317.3946 317.3946 317.6836
   317.6836 317.6868 318.2734 318.6852 318.6852 319.1018 319.3302 319.3586
   319.3586 319.5692 319.7205 319.7205 319.8112 319.8112 320.0630 320.2950
   320.2950 320.3333 320.3822 320.3822 320.6151 320.6151 320.6580 321.4551
   321.4551 321.4587 321.7757 321.8443 321.8443 322.1753 322.3142 322.3673
   322.3673 323.3454 323.3454 323.4020 323.4588 323.4588 323.5379 323.8168
   324.1470 324.1783 324.1783 324.4705 324.4705 325.0514 325.1713 325.1713
   325.8020 325.8020 326.2793 326.2842 326.2842 326.4701 328.2694 328.7365
   328.7365 330.2118 330.2910 330.2910 330.4794 330.9190 330.9190 331.1393
   331.1393 331.3086 331.6437 331.7716 331.7716 331.9665 332.1369 332.1369
   333.5162 333.5162 333.9041 334.0615 334.0615 334.1097 334.2056 334.2056
   334.3115 334.5389 334.5895 334.5895 335.3115 335.3115 335.6659 335.6659
   335.6786 336.2835 336.7119 336.7119 336.7865 336.7865 337.0863 337.3906
   337.4787 337.4787 337.9837 338.0324 338.0324 338.6044 338.8776 338.9171
   338.9171 339.2133 339.3335 339.3335 339.5915 339.5915 340.1574 340.2536
   340.2536 340.5311 340.5311 340.5567 340.9893 340.9893 341.3449 341.4397
   342.3067 342.5409 342.5409 343.1906 343.1906 343.4100 344.2807 344.2807
   344.4906 344.8390 345.1123 345.1123 345.5323 345.5323 346.1748 346.1748
   346.4524 346.9078 347.2473 347.2473 347.5318 347.6293 347.6293 348.1601
   348.1601 348.7470 348.8878 348.9046 348.9046 348.9507 348.9507 349.1381
   349.2322 349.3358 349.3358 349.8134 349.8134 350.4004 350.6297 350.6297
   350.6589 350.8585 350.9296 350.9296 351.2290 351.2290 351.4871 351.4871
   351.5567 351.5567 351.7770 352.1525 352.5317 352.7587 352.7587 353.2899
   353.6235 353.6806 353.6806 353.7258 353.7258 353.7654 353.9241 353.9241
   354.0474 354.1611 355.1147 355.1147 355.4451 356.0080 356.0080 356.3249
   357.5806 357.5806 357.7548 357.8110 357.8110 358.3608 358.3608 358.5435
   358.8161 358.8181 359.2273 359.2273 359.9881 360.4121 360.4121 360.5404
   360.5404 360.7323 361.4223 361.4254 361.4254 361.9615 362.6378 362.6378
   362.6567 363.1221 363.2389 363.2389 363.6416 363.6416 364.0639 364.3536

          k = 0.5000-0.5000 0.5000 (  2824 PWs)   bands (ev):

   -21.0772  -7.0874  -6.2375  -6.2375  -4.4458   3.3799   4.3221   4.3221
    10.2177  10.6108  11.0750  11.0750  12.7037  12.7037  13.5789  13.5789
    14.1881  14.1881  14.4601  14.6000  14.7361  15.1113  15.9388  15.9388
    18.5818  18.6223  18.6223  19.7606  22.9362  23.1416  23.1416  24.9620
    26.0492  26.0492  26.7259  26.7259  28.0133  28.0133  28.3869  28.9935
    30.3332  33.0759  33.0759  34.4816  34.4816  34.5788  34.6861  34.8212
    34.8212  37.1383  37.1512  37.1512  37.1865  39.0113  39.0113  40.1367
    40.8397  40.8397  42.6548  44.4761  44.4761  44.6432  45.4406  46.1184
    46.1184  46.7277  46.7277  47.3846  47.4260  47.7306  47.7306  48.2511
    48.2511  48.4207  48.4207  49.0059  49.9228  52.1682  53.7543  55.2932
    55.2932  56.2923  56.2923  56.6142  56.6142  58.3129  58.6309  58.6309
    59.2777  59.2777  59.6505  60.1031  60.1031  60.1203  60.2217  60.2316
    61.2034  61.2034  62.2183  63.2201  63.2201  65.0450  65.6727  65.6727
    66.4601  67.3362  67.3362  68.3354  68.7283  68.8543  68.8543  69.2277
    69.2277  70.0814  70.2080  71.4496  71.4496  71.4502  72.5522  73.1134
    73.1134  73.1557  73.1557  73.9237  73.9237  74.2781  74.4392  76.7532
    76.7532  79.3291  79.3291  79.4553  79.8716  79.8716  80.5274  80.8701
    80.9709  80.9709  81.3441  81.4315  81.4315  81.9661  81.9661  82.0010
    82.6721  83.8211  83.8211  84.4362  84.8672  84.8672  86.0904  86.0904
    86.5903  87.0880  87.0880  87.8953  88.1837  88.6739  88.7622  88.7622
    89.1245  89.1245  89.4940  91.8514  93.1064  93.1064  94.1724  94.1724
    94.6304  94.6451  94.6451  95.3985  95.4968  95.4968  95.6647  95.7526
    95.7526  96.3158  96.6468  96.6468  99.2537 100.6235 100.6235 100.8139
   100.8139 100.9240 102.3827 102.5157 102.5157 103.0409 104.1947 104.1947
   104.6738 105.0068 105.4619 105.5086 105.5086 105.6930 105.6930 105.9093
   106.1258 106.1258 106.2033 106.4211 106.4211 107.2219 107.3114 107.3114
   107.3607 107.7447 107.7447 108.9168 108.9168 109.0087 109.0087 111.4659
   111.7406 112.5544 112.5544 113.5707 113.7161 113.7161 114.5241 114.7344
   114.7344 114.8605 115.1282 115.4511 115.4511 115.8373 115.9075 115.9075
   116.3232 116.3232 117.0615 118.3597 118.5602 118.5602 118.5763 118.5763
   119.1653 119.9591 119.9591 120.2646 120.2646 120.7190 120.7395 121.6076
   121.6138 123.9568 124.9062 124.9062 125.8165 125.8165 127.0988 127.2442
   127.3767 127.3767 127.8030 127.8030 127.9043 127.9043 128.1188 128.6092
   128.6092 128.8386 129.1806 129.4212 129.4212 129.4231 129.5570 129.6685
   129.6685 129.8924 129.8924 130.4452 132.1107 132.2490 132.2490 133.1800
   133.2224 134.0495 134.0495 134.2894 134.2894 134.6143 134.6143 137.0776
   137.0776 137.2240 138.8537 139.6016 139.6016 140.1830 140.3804 140.3955
   140.7661 140.7661 141.0667 141.0667 141.3267 141.3632 141.3632 141.4702
   141.8586 141.8586 141.9613 141.9613 142.0644 144.3362 144.6683 145.0320
   145.2930 145.2930 145.3971 145.3971 145.9358 145.9358 145.9688 146.0622
   146.0622 146.2166 146.2898 146.6279 146.6279 146.9026 147.2641 147.2641
   147.5613 147.5613 147.7218 147.8782 147.8782 150.0373 150.0373 150.0844
   150.1069 150.1069 151.2840 151.4472 151.4495 154.2801 154.2801 155.4270
   155.4917 155.6812 155.6812 155.7302 155.7302 155.8226 155.8226 156.6049
   157.4583 157.4583 157.5521 157.9848 157.9848 159.0536 159.1391 159.1391
   159.1735 159.1735 159.2596 159.3037 159.4533 159.8270 159.8270 160.3355
   160.6806 160.6806 160.9501 160.9501 160.9704 162.3155 162.3155 162.3972
   162.3972 162.4355 163.5926 163.7299 163.7865 163.7865 164.3964 164.3964
   165.4326 165.4326 167.0007 167.3050 167.7669 167.7669 168.2752 168.2752
   168.4371 168.5071 168.5071 168.8575 169.3419 169.3419 170.3876 172.0048
   172.5408 172.6863 172.6863 172.7240 172.7240 173.1564 173.4929 173.8179
   173.9171 173.9171 174.1603 174.1603 175.1555 175.6807 175.7282 175.7282
   175.7525 175.7525 175.7867 176.0853 176.0853 176.3986 176.3986 176.7838
   176.9838 176.9838 177.0741 177.5760 178.7214 178.7214 178.9525 179.5744
   179.5744 179.9542 179.9542 180.2886 180.2886 180.2913 180.8949 181.7402
   182.1658 182.1658 182.6488 182.6488 182.8978 182.8978 183.7365 184.8776
   184.8776 185.1211 186.4728 186.5571 186.5571 186.8735 186.8735 187.4227
   187.5350 187.5350 188.4210 188.8704 188.8704 189.1524 189.3758 189.3758
   189.9432 190.8475 190.9962 190.9962 191.3295 191.3295 191.3973 191.5091
   191.5717 191.5717 191.9547 192.1325 192.1325 192.5219 192.8123 192.8123
   193.8650 193.8650 194.5628 194.7522 195.0033 195.0033 195.4665 196.7994
   197.3205 197.3205 197.6975 198.2469 198.2469 199.5224 199.6658 199.9215
   199.9215 200.4673 200.4986 200.4986 200.9389 200.9389 201.1186 201.1186
   201.2489 201.7780 201.7780 201.8141 202.1005 202.1005 202.2357 202.4716
   203.0878 203.4087 203.4087 203.6294 203.6399 203.6399 203.9907 204.0192
   204.0192 204.3061 204.3061 204.8118 205.7938 206.1722 206.1722 206.6867
   206.6867 207.0320 207.1568 207.1568 207.3023 207.7651 207.7651 208.3381
   208.3921 208.3921 208.6857 208.6857 208.8186 209.0173 209.2906 209.2906
   209.3269 209.3269 209.6854 209.9282 209.9282 210.5596 210.8484 213.8241
   214.1495 214.1495 214.7456 214.7456 214.7671 215.0637 215.2322 215.2322
   215.6233 215.6233 215.9840 215.9840 216.0398 216.2910 216.6089 216.8587
   216.8587 217.4708 217.4708 217.5473 217.6444 217.7875 217.7875 220.2373
   220.2373 220.2792 220.4444 220.9609 220.9609 221.0363 221.0849 221.0849
   222.2923 222.2923 222.5403 222.6519 222.7578 223.1794 223.1794 223.5073
   223.5073 224.4796 224.9421 224.9421 224.9526 225.0198 225.0322 225.5327
   225.5327 225.6411 225.6411 225.6927 226.0286 226.0286 226.6894 226.6894
   227.4137 227.4137 227.4971 227.7712 229.3275 229.3275 230.1886 230.1886
   230.1927 230.1927 230.6163 230.6163 231.2374 231.5894 231.8187 231.8187
   231.9528 231.9546 232.1357 232.7621 232.7621 233.5480 234.0295 234.0295
   234.2261 234.2261 235.3216 235.5040 235.6052 235.6052 236.2148 236.2148
   236.4119 237.0162 237.0162 237.0418 237.9905 237.9905 238.0384 238.0384
   238.2536 238.2640 238.8295 239.5542 241.5733 241.5733 242.3591 243.5172
   243.5172 243.6560 243.6560 244.6242 244.6242 245.0332 245.3732 245.3732
   245.6573 245.9133 245.9133 246.0025 246.1160 246.1160 246.2201 246.4051
   246.6813 246.7186 246.7186 246.8584 246.8584 246.9747 247.1463 247.1463
   247.2060 247.2060 247.2250 247.4159 247.4159 248.3549 248.3810 248.3810
   248.4229 248.4229 249.1051 249.2325 249.3654 249.3654 249.5370 249.5911
   249.5911 250.0910 250.3641 250.3641 250.4207 250.5755 250.5755 250.9079
   250.9079 251.0947 251.0947 251.2906 252.0406 252.5809 252.5809 252.6802
   253.0390 253.1242 253.1242 254.8922 254.8922 255.4101 255.4202 255.5152
   255.5152 256.1760 257.4234 257.4234 257.7667 257.7843 257.7843 258.1308
   258.7829 259.3078 259.3078 260.3167 260.3167 260.5869 260.6738 260.6738
   260.9264 260.9264 260.9916 261.0787 261.4976 261.7389 261.7389 262.0188
   262.1484 262.1484 262.5815 262.6191 262.6191 263.0764 263.0764 263.1315
   263.4206 263.4206 263.8807 263.8807 264.1688 264.2489 264.4860 264.4860
   265.9417 265.9969 265.9969 266.5800 266.9191 267.1131 267.1131 267.2412
   267.4284 267.4284 267.9359 268.3885 268.9936 268.9936 269.1971 269.1971
   269.2117 269.3518 269.7951 269.7951 270.0679 270.0679 270.0883 271.9650
   271.9650 272.6228 272.7416 272.7649 272.7649 273.2777 273.2777 274.0913
   274.1565 274.1565 274.9634 275.7660 275.8450 275.8450 276.3785 276.3785
   276.4648 276.4648 276.7260 276.7431 277.0866 277.0866 277.5566 277.6234
   277.6234 277.6783 277.6783 278.0877 278.7947 278.9449 278.9449 278.9463
   278.9463 279.0580 279.0580 279.1765 279.3091 279.3091 279.5509 279.6242
   280.0818 280.0818 280.2356 280.2356 280.5823 282.1457 282.1457 282.1716
   282.3679 282.3679 282.5804 282.6525 283.6378 283.6378 283.7330 283.7330
   283.7431 283.9497 285.5427 285.5427 286.1005 286.5235 287.8160 288.0627
   288.0627 288.3607 288.3607 288.3709 288.3709 288.4943 288.5804 288.6529
   288.6529 289.0962 289.0962 289.1124 289.1124 289.2339 289.4292 290.7851
   292.1660 292.1660 292.2744 292.2744 292.2767 292.2991 292.6720 292.6720
   292.9619 292.9619 293.6056 293.9538 293.9538 294.7110 294.7845 294.8254
   294.8254 295.0806 295.0806 295.2447 295.4500 295.4500 296.5800 296.5800
   296.9545 297.4770 297.9148 297.9148 298.4824 298.4824 298.5856 298.6547
   298.7780 298.7780 299.7988 299.8479 300.0059 300.0059 300.4306 300.5460
   300.9354 300.9354 300.9360 301.0818 301.0818 301.4443 301.4443 301.5875
   301.7262 302.8150 302.8150 303.4785 303.9947 303.9947 304.4933 304.4933
   304.4941 304.8799 304.8799 305.2498 305.2498 305.5149 305.5254 305.8742
   305.8742 306.1792 306.3296 306.3401 306.3401 306.3914 306.3914 306.5995
   306.5995 306.6033 306.6080 306.7122 306.8573 306.8573 307.2040 307.2057
   307.6484 307.6484 307.6688 307.6688 308.8022 309.8616 310.8656 310.8656
   310.9053 310.9382 310.9382 311.2449 311.2449 311.2909 311.2909 311.3679
   311.3804 311.6760 312.9249 312.9249 314.6724 315.6093 315.6093 315.8256
   315.8256 316.0237 316.9078 316.9078 316.9500 317.0590 317.0590 317.2121
   317.4959 317.4959 317.5409 317.5409 317.6770 317.6866 318.4013 318.4013
   318.4576 318.4576 318.5166 318.7061 319.5949 319.8370 319.8370 320.1190
   320.3284 320.3284 320.4607 320.9247 320.9247 321.3974 321.3974 321.4491
   321.4491 321.5985 321.7952 321.8026 322.0956 322.0956 322.1206 322.1206
   322.5581 322.6102 322.6102 322.9503 323.0243 323.0243 323.0788 323.3325
   324.1999 324.1999 324.6714 324.9768 324.9768 325.4193 325.5091 325.5091
   325.5811 325.5811 325.8209 326.2999 326.5210 326.5210 327.0781 327.0781
   328.0066 328.0066 329.6148 329.9277 329.9447 329.9447 329.9531 329.9531
   330.4122 330.4264 330.7667 330.7667 330.7853 330.7853 330.8702 330.8777
   330.8777 331.2873 331.2906 332.4358 332.4358 332.5018 332.5018 332.9598
   332.9598 333.9337 333.9338 333.9670 335.0783 335.0783 335.3338 335.3338
   335.3427 335.3977 335.7381 335.7381 336.9413 337.5004 337.5004 337.5531
   337.6393 337.6393 337.6503 337.6503 338.0931 338.2888 338.2888 338.3721
   338.5781 338.5781 338.6794 339.1371 339.5849 339.5849 339.7151 339.7774
   339.9075 339.9970 339.9970 340.2056 340.2056 340.3262 340.6551 340.6551
   340.8139 340.8139 340.8346 341.9186 342.3041 342.3041 342.5538 342.9371
   342.9371 342.9502 343.9435 343.9435 345.4596 346.4125 346.9347 347.2141
   347.2141 347.7749 347.8733 347.8733 348.0937 348.1850 348.1850 348.2028
   348.2028 348.7125 348.7125 349.0267 349.0267 349.1695 349.2251 349.2251
   349.2606 349.3460 349.4166 349.4166 349.5433 349.5680 349.5680 349.6364
   350.4885 350.4885 350.5058 350.9262 350.9663 350.9663 351.0924 351.0971
   351.0971 351.2596 351.2596 351.4032 351.4032 351.8993 351.8993 351.9775
   352.0618 352.0618 352.1207 352.4444 352.8754 352.9514 352.9514 353.0626
   353.0626 353.1344 353.1430 353.2897 353.2897 353.3788 353.3788 353.8709
   353.8709 354.0929 355.7116 356.4364 356.4364 357.2730 357.4130 357.4130
   357.9710 357.9710 360.1109 360.4593 361.7190 361.7190 362.4502 362.4502
   362.5684 362.6609 362.6609 362.7108 362.7895 362.8307 362.8307 363.0584
   363.4551 363.4551 363.4976 363.4976 363.5002 363.5142 363.5508 363.5508

          k = 0.0000 0.3333 0.0000 (  2786 PWs)   bands (ev):

   -21.0943  -6.5391  -6.2462  -6.2462  -5.0641   4.3259   5.1893   5.1893
     8.3586   9.0006   9.7387   9.7387   9.9292  11.5002  13.1460  14.5520
    14.5520  14.5614  14.6625  14.8454  14.8454  16.9666  17.6336  17.6336
    17.7168  19.5194  21.8170  22.3109  22.6219  22.6219  24.5016  24.5016
    24.6964  25.2438  27.3358  27.9994  27.9994  28.9597  30.0900  30.2728
    30.2728  31.4173  33.4590  33.8512  33.8512  34.5708  34.8333  34.8333
    35.2678  35.4640  35.4640  35.6040  36.2835  36.6096  37.2183  39.5598
    39.6635  40.3779  40.3779  41.4611  42.1584  42.1584  42.2698  43.2721
    43.2721  44.8286  45.3428  46.4378  48.6751  48.6751  50.2704  50.7899
    50.7899  51.8916  52.6446  53.5935  53.5935  54.1601  56.7498  56.7973
    56.9142  56.9142  56.9950  57.2073  58.5123  58.6638  58.6638  58.9347
    59.6222  59.6222  60.3186  60.6285  61.0696  62.5261  62.5261  63.0889
    63.4077  63.4077  64.0189  64.8470  65.0885  65.3559  65.3559  65.4679
    65.7713  65.8570  65.8570  67.4501  67.5232  68.1631  68.1631  68.5666
    69.0073  69.3888  69.3888  70.0592  70.5665  71.4427  71.4427  71.4943
    71.4943  72.4705  72.5692  73.6104  73.8644  73.8644  74.3734  75.1511
    75.7909  75.9696  75.9696  76.3503  76.8074  76.8074  76.8808  77.2920
    79.2361  79.6823  79.6823  80.5547  81.7267  81.9735  81.9735  82.2160
    82.2160  82.6915  83.4812  84.7258  84.7258  85.1020  86.0862  86.2831
    86.4703  86.7931  87.3102  87.3102  87.6465  87.8923  87.9408  87.9408
    88.0916  88.5970  88.5970  90.2373  91.9098  93.3773  93.4307  93.8217
    93.8217  94.2122  94.5096  94.5096  95.2603  95.4832  95.4832  95.6868
    98.4629  98.7676  98.8652  98.8652  99.2920  99.2920 100.8434 102.3501
   102.3755 103.4556 103.4556 104.1387 104.4775 104.7480 104.7480 104.7641
   105.2586 105.9842 106.3853 106.4563 106.4563 107.0630 107.9310 107.9310
   108.4399 109.4003 109.7088 109.7088 109.7398 110.5028 110.5028 110.5394
   111.1379 111.5755 111.5755 111.5875 111.8282 112.0660 112.1915 112.1915
   112.7687 112.9711 113.1537 113.1537 113.2761 113.4694 113.7210 113.7210
   114.8032 114.9370 115.3611 115.3611 115.9980 116.5647 116.5647 116.6251
   117.4314 117.6132 117.6132 117.7477 117.8496 117.8496 119.1553 119.8296
   120.1343 120.1343 120.3827 120.7738 120.9723 121.3428 122.1678 122.1678
   122.9154 122.9154 123.4749 123.6390 123.9927 124.4455 124.4455 124.5259
   125.2977 126.0200 126.0200 126.2904 126.3213 126.3700 126.3863 126.9179
   127.1993 127.1993 127.9523 128.0416 128.0416 128.7789 128.9833 128.9838
   129.5092 129.5092 129.6365 129.8992 130.1963 130.1963 130.4890 130.4890
   130.6764 130.7256 131.3746 131.6529 131.7174 132.6775 132.6775 133.0250
   133.0250 134.2722 134.8659 134.9136 134.9136 135.2594 135.6629 135.6629
   135.6979 135.8288 136.1049 136.7570 136.7570 137.0608 140.2674 140.9987
   140.9987 141.2420 141.3086 141.4782 141.4782 142.0940 142.3154 142.7026
   142.7026 143.6609 144.7009 145.4421 146.2906 146.2906 147.5912 147.5956
   148.2014 148.3962 148.3962 149.0722 149.0722 149.2833 149.6468 149.8388
   150.1568 150.1893 150.1893 150.6933 150.7064 150.8017 151.2398 151.2398
   152.1834 152.1834 152.2342 152.4305 152.4409 152.4409 152.8592 153.3786
   153.5625 153.5625 153.7990 155.0535 155.0535 155.0578 155.4810 156.7760
   156.7760 157.8701 158.8029 159.3524 159.6608 159.6608 160.2758 160.3500
   160.4958 160.6010 160.6010 161.4988 161.8179 161.8670 161.9007 161.9007
   163.6023 163.6023 163.6775 164.8429 165.4433 165.4433 166.3476 166.3476
   166.3551 166.3828 166.8089 167.6719 167.8727 167.8727 167.9803 168.2648
   168.5482 168.5482 168.6946 169.5330 170.1657 170.1657 170.8745 170.9775
   171.2905 171.6206 171.7218 171.7218 172.5020 172.5106 172.5106 172.5154
   172.8220 173.0272 173.1083 173.2905 173.2905 173.7003 173.7003 174.5760
   175.1427 175.2434 175.2434 175.4209 175.5714 175.9102 175.9102 176.0997
   176.0997 176.2456 176.2767 176.7328 176.9339 177.1179 177.1179 177.4397
   177.4397 177.9004 178.9793 179.3777 179.6068 179.7124 179.7124 180.8696
   181.1314 181.1332 181.1332 182.2009 182.5957 182.5957 182.7884 182.8872
   183.0479 183.0479 183.6060 183.6226 183.6226 183.6515 183.7856 183.8262
   183.8843 183.8843 184.0180 184.3264 184.3264 184.8669 184.8669 184.8709
   184.9187 186.0328 186.2380 186.5581 186.5581 186.8188 187.3344 187.3344
   187.7575 187.7793 188.2368 188.6051 188.8023 189.3363 189.3363 189.8502
   189.8502 189.8684 189.9868 190.3695 190.7050 190.8040 190.8040 191.3935
   191.6780 191.7202 191.7202 192.5285 193.2669 193.3483 193.3483 193.9769
   193.9925 193.9925 194.8160 194.9822 195.3430 195.3430 195.8383 196.0817
   196.0817 196.3408 197.3409 197.3778 197.3778 198.0241 198.2139 198.3765
   198.3765 198.6083 199.1648 199.4474 199.4545 199.5900 200.1466 200.1466
   200.8574 200.9536 201.0180 201.0180 201.0758 201.3911 201.8952 201.8952
   202.3414 202.9689 202.9689 202.9967 203.7815 203.7815 204.2379 205.2951
   205.2951 205.5071 205.9103 206.0653 206.1288 206.1288 206.4083 206.9353
   207.0808 207.3764 207.3764 207.5167 207.6726 207.6726 208.9145 208.9267
   208.9267 209.0412 209.4417 210.6634 211.1856 211.6539 211.6539 212.9346
   214.6331 214.6331 214.8281 214.8920 215.2800 215.6795 215.6795 215.9082
   215.9356 215.9582 215.9582 216.2079 216.2079 217.0091 217.1261 217.7610
   217.8074 217.8074 217.9231 218.2203 219.3403 219.3403 219.7045 220.0836
   220.6610 220.7535 221.0194 221.2065 221.4883 221.4883 222.1699 222.1699
   222.5965 222.7081 222.9207 222.9207 223.8600 224.0335 224.0335 224.1279
   224.9034 225.7048 225.7048 226.4943 228.0051 228.1217 228.1942 228.1942
   228.4670 228.5751 228.5751 229.0698 229.3647 229.4259 229.4259 229.7366
   230.4895 230.4895 230.7244 231.7485 232.7584 232.8142 233.7197 233.7197
   234.4788 234.6836 234.6836 234.7956 234.9263 235.3043 235.3048 235.4868
   235.4868 235.7710 235.8557 235.8557 236.1330 236.1330 236.2572 236.3936
   236.4051 236.5554 236.7650 236.7650 236.8919 236.9388 237.4677 237.5227
   237.5227 237.7821 237.7821 238.1104 238.2060 238.5930 238.5930 238.6291
   238.7197 239.5525 239.5793 239.5793 239.7128 240.0123 240.0123 240.1805
   240.5318 240.5418 240.8518 240.8518 242.2710 242.2710 242.2949 242.3671
   242.3965 242.4783 242.6467 242.6467 243.9096 244.2280 244.2280 244.3400
   244.7744 244.7744 244.8454 244.9831 245.6427 245.6427 245.7762 245.9382
   245.9455 246.3732 246.5825 247.1847 247.5014 247.5014 248.0929 248.0929
   249.4117 249.5223 249.6259 250.0896 250.0896 251.3050 251.3050 251.4868
   252.4950 252.5680 252.9030 253.1541 253.1541 253.7400 253.7400 254.6027
   254.7406 255.0613 255.0927 255.1574 255.1574 255.7801 255.7801 255.8987
   256.4274 256.8685 256.9964 257.0621 257.0621 257.1587 257.2698 257.6825
   257.6825 258.2900 258.2900 258.3350 258.5619 258.8725 258.8725 258.9444
   259.2224 259.4726 259.4726 260.4680 260.4680 260.6927 260.7798 260.9267
   261.0274 261.1243 261.1243 262.2483 262.3609 262.3734 262.3734 262.5146
   262.5886 262.5907 262.7728 262.7728 263.0896 263.2555 263.3111 263.3111
   263.3524 263.5224 263.9367 264.3164 264.3164 264.7203 265.4980 265.5571
   265.5571 265.6163 265.6895 265.9515 265.9515 266.0519 266.2898 266.2898
   266.2970 267.3033 267.3158 268.0998 268.0998 268.7063 268.8879 268.8879
   268.8887 269.1422 269.1920 269.3517 269.3517 269.5782 269.8526 270.5627
   270.5627 271.1613 271.1613 271.2756 271.7076 272.0001 272.0001 272.0456
   272.1865 272.2881 272.3173 272.3173 272.3530 273.5430 273.6078 273.6078
   274.2803 274.5620 274.5620 274.6206 274.6228 275.1671 275.4014 275.4014
   275.6368 276.6059 276.8439 276.8439 277.0947 277.1758 277.2615 277.2615
   277.3066 277.3183 277.6189 277.6189 278.1652 278.9349 279.1590 279.1590
   280.1626 280.3976 280.5024 280.5024 281.3751 281.6604 281.7617 281.7617
   281.8184 281.8827 281.9460 282.5177 282.5177 283.1467 283.3011 283.3011
   283.4767 283.4937 283.7304 283.7304 284.1473 284.3981 284.4727 284.5807
   284.5807 285.0464 285.0945 285.1276 285.1276 285.3531 285.5532 286.1610
   287.1751 287.1751 287.6653 287.6653 287.8594 287.9793 287.9793 288.0342
   288.9004 289.2419 289.2419 289.2481 289.3482 289.5193 289.7269 289.7269
   290.2025 290.2026 290.5974 290.5974 290.7729 291.5134 291.8335 291.8335
   292.1714 292.3951 292.8282 292.8282 293.4913 294.5123 294.5123 294.7858
   295.0610 295.3368 295.3911 295.3911 295.7310 296.1396 296.4277 296.6039
   296.6039 297.2246 297.5572 297.5572 297.8652 298.3236 298.6906 298.6906
   299.9825 300.3903 300.6059 300.6059 300.8615 300.8615 301.1222 301.3377
   301.3411 301.3520 301.7481 301.7481 302.1512 302.4024 302.4024 303.1094
   303.3823 303.5176 303.8320 303.8320 304.5628 305.8543 306.2952 306.2952
   306.4682 306.4725 307.1897 307.1897 307.3463 307.3798 307.5001 307.6404
   307.6404 308.0694 308.5650 308.7492 308.7492 308.7996 308.8587 308.8587
   309.0338 309.1064 309.2344 309.2492 309.2492 310.1262 310.1262 310.3074
   310.3843 310.7391 310.7391 310.7402 310.7743 311.9222 312.7449 312.7449
   313.1602 313.1602 314.0567 314.6206 314.7050 314.7149 314.7149 317.0658
   317.2467 317.3689 317.4365 317.4649 317.5270 317.5270 317.7030 317.7030
   317.7777 317.9281 318.2300 318.2300 318.6199 318.6199 319.2347 319.8210
   320.0656 320.2040 320.2040 320.3480 320.4673 320.4922 320.5721 320.5721
   321.0470 321.5676 322.7194 322.9574 322.9574 323.2291 323.5128 323.9319
   323.9319 324.2108 324.2525 324.2525 324.7200 324.7905 324.8712 325.2534
   325.3357 327.2154 327.2154 327.7752 327.8948 327.8948 327.8974 328.0505
   328.2214 328.2214 328.3076 328.5175 328.5175 328.7871 328.7871 329.1717
   329.8379 329.8428 330.1910 330.5370 330.5370 330.5849 330.8123 331.4243
   331.6209 331.9127 331.9127 332.9582 332.9582 333.2110 333.2110 333.2844
   333.4212 334.2534 334.2973 334.3100 334.3100 334.4875 334.7787 334.7787
   334.8311 334.8865 334.9322 334.9322 335.4865 335.6004 335.6004 336.2656
   336.3040 336.4624 336.4909 336.8366 337.2276 337.2276 337.7228 337.7611
   337.7611 337.8527 338.0512 338.0949 338.6434 338.6434 338.6512 339.1078
   339.1328 339.3357 339.3357 339.4009 339.6362 339.6362 340.1528 340.1738
   340.2092 340.2092 340.2740 340.5725 340.5725 340.8363 340.9547 341.3136
   341.3136 341.4540 341.7878 342.0492 342.0492 342.2365 342.2416 342.4851
   342.4851 342.5609 342.5609 342.6110 342.6156 342.6605 342.7267 343.7488
   343.8631 343.8631 344.0596 344.2319 344.2319 344.5702 345.2759 345.2995
   345.2995 345.4099 345.5218 345.6099 345.6864 345.7039 345.7039 346.0093
   346.0214 346.0214 346.7517 347.3994 347.3994 348.1964 348.5939 348.9441
   348.9441 349.4638 349.5280 349.5312 349.5312 349.6132 349.6132 349.6442
   349.6792 349.7771 349.9662 350.1213 350.1213 350.3243 350.3803 350.4379
   350.4379 350.6181 350.6462 350.6470 350.8540 350.8540 351.0587 351.2945
   351.4664 351.4664 351.4885 352.3269 352.3269 352.3352 352.5186 354.1403
   354.1915 354.1915 354.2305 355.8929 356.7960 356.7960 356.9714 357.0272
   357.1801 357.1801 357.2942 357.6057 358.5580 358.5580 358.8022 359.0673
   359.1060 359.1060 359.1560 360.0749 360.2117 360.7348 360.7348 361.0492
   361.1741 361.1741 361.1930 361.6045 361.6045 361.8238 361.8662 361.8662
   361.9216 362.0433 362.1721 362.2322 362.2322 362.2339 362.3431 363.5802

          k =-0.1667 0.5000-0.1667 (  2805 PWs)   bands (ev):

   -21.0838  -6.7859  -6.2683  -6.2636  -4.8212   3.9308   4.7556   4.8860
     8.3963   9.9980  10.5746  10.5929  10.8338  12.8386  13.8369  13.8503
    14.1107  14.4634  14.6071  14.6701  14.8282  15.6636  16.7657  16.8556
    18.0063  19.0967  20.9022  20.9490  21.9721  22.1176  23.5182  24.3916
    25.0980  26.3681  26.9755  28.4615  28.5230  29.2548  30.2031  30.3570
    30.5011  31.5741  32.1564  32.6139  32.8076  33.4301  33.8491  34.1854
    35.1328  35.5064  36.4366  38.0664  38.3240  38.3967  38.6855  38.9508
    40.1330  40.3979  41.8334  42.6856  44.2279  45.2047  45.2330  45.4585
    45.9030  46.1642  46.2477  46.4780  46.5934  48.8716  49.2042  49.6069
    50.6469  50.7342  51.0871  51.7124  52.1919  52.6242  52.6788  53.4693
    54.0698  54.4352  55.0828  55.5547  55.9186  57.1324  57.5188  57.8964
    58.8910  59.5860  59.6256  60.7904  61.5222  62.1515  62.8839  62.9931
    63.0736  63.8425  64.6349  65.0826  65.3962  65.5912  65.6655  65.6904
    66.1697  66.3070  66.4966  67.0744  67.1241  67.8852  68.2016  70.2967
    70.7617  70.7624  71.1784  71.3050  71.5201  71.6395  71.9336  72.2219
    72.4672  72.6523  72.9406  72.9830  73.3381  74.8210  75.0242  75.6608
    75.6706  76.0773  76.4615  77.2559  77.8645  77.8988  78.5104  79.1593
    79.5310  79.5984  80.2642  80.3438  80.8905  81.0395  81.3960  81.8058
    81.8619  83.5690  83.6983  84.0532  84.3378  84.7038  85.1312  85.9437
    87.1712  87.7741  88.2047  88.4480  88.9379  90.2537  90.2925  91.2404
    91.9093  92.0798  92.1353  92.4979  93.0308  93.2602  93.3724  93.9647
    93.9730  94.2952  94.9102  94.9147  95.0122  96.4087  96.7979  96.9240
    97.2213  97.8104  97.9944  98.2942  98.5372  98.7251  99.1248  99.7764
   100.3950 100.9307 101.4655 101.6423 101.8859 101.9109 103.1839 103.2069
   103.6222 104.0610 104.0964 104.4017 104.6545 104.6891 104.9403 105.1788
   106.0933 106.1751 107.0786 107.6713 107.7918 107.8707 108.0373 108.6001
   108.7210 109.4070 109.5967 110.0076 111.3706 111.5238 111.6886 111.7597
   111.9165 111.9216 112.9561 113.0057 113.3284 113.3924 113.6776 113.8397
   115.0638 115.2739 115.3836 115.4955 115.6807 116.7672 117.4888 117.5459
   117.8986 118.2061 118.4282 118.8313 119.2299 119.5525 120.1917 120.5217
   121.0625 121.6045 121.8496 122.0140 122.1495 122.4955 122.6299 123.0628
   123.4820 123.6587 123.8320 124.5238 124.7770 124.8789 125.0771 125.4310
   125.4877 125.8416 126.0044 126.2224 126.7072 126.9802 127.0661 127.4619
   127.7379 127.9306 128.2924 129.8138 129.8585 129.9000 130.2784 130.8117
   131.0034 131.0271 131.1214 131.1860 131.3359 131.7771 131.9919 132.0855
   132.1747 132.3879 132.5353 133.6709 133.8844 133.9593 134.1381 134.1910
   134.2360 134.7239 135.2740 135.3956 135.6103 135.9511 136.2739 136.4522
   136.5192 137.0063 138.4579 138.8630 139.4012 139.8685 140.3404 140.5624
   141.2201 141.3317 141.9262 142.0251 142.6338 143.4473 143.6891 143.7585
   144.1563 144.1767 144.3240 144.7957 144.8589 145.3234 145.3267 145.6943
   145.8807 146.1296 146.3278 147.1024 147.7544 148.4712 148.5320 148.7215
   148.9077 149.2782 149.4270 149.6144 150.1032 150.3335 151.1328 151.1398
   151.2834 151.4723 151.9562 152.5750 153.0224 153.0667 153.4415 153.9173
   154.3932 154.8426 155.0993 155.7834 155.8639 156.9860 157.5084 157.5731
   157.9007 158.9301 159.0039 159.6223 159.8168 159.8436 160.2508 160.4845
   160.7719 160.9543 160.9595 161.2493 161.3400 161.3667 161.7532 161.8988
   162.4627 162.5164 163.0628 163.2617 163.3882 163.4648 163.5970 163.9451
   164.0012 164.3175 164.3335 164.7943 165.0422 165.4246 166.1701 166.5303
   166.8378 167.1807 167.5452 167.9632 168.2406 168.5632 168.9166 168.9482
   169.0978 169.5688 169.6634 170.7069 170.7800 171.0102 171.2341 171.3080
   171.3925 171.6854 171.8319 172.3810 172.5421 172.5442 172.9930 173.5022
   173.5306 173.7573 173.9596 174.2127 174.3253 174.5297 174.8653 174.8963
   175.1978 175.3897 175.4674 175.7180 175.7610 175.9932 176.2562 176.9392
   177.1233 177.6620 178.0475 178.2639 178.3885 178.6513 179.0382 179.3618
   180.0065 180.2834 180.8369 181.0402 181.6160 181.6717 181.9520 182.0214
   182.0643 182.4700 183.0488 183.3883 183.5846 183.6270 183.7631 183.8049
   184.1076 184.5765 184.8058 184.8834 185.1163 185.1561 185.4965 185.5199
   186.2623 186.8789 187.1696 187.2211 187.4662 187.6800 188.3667 188.5872
   188.8456 189.3642 189.8913 189.9514 190.4108 190.5651 190.7043 191.2877
   191.3719 191.8696 192.0522 192.5111 192.6495 192.9878 193.3993 193.5877
   193.5912 194.0189 194.3692 194.4626 194.6809 194.7171 195.2215 195.3074
   195.5086 195.7778 195.9591 196.0308 196.5437 196.7952 196.9682 197.0345
   197.4067 197.5453 197.9503 198.4862 198.7838 199.1741 199.5062 199.9291
   200.6505 201.0165 201.2668 201.6137 201.6619 201.6922 201.8653 202.0341
   202.1782 202.5344 202.6344 202.8326 203.0430 203.1712 203.2846 203.4592
   204.0022 204.5105 204.6963 205.0937 205.1233 205.4020 205.7444 206.0912
   206.2575 207.3215 207.7070 207.7965 207.8304 208.1410 208.6455 208.8990
   209.1282 209.2541 209.4221 209.4868 209.8209 209.9705 210.0803 210.3088
   210.4946 210.5898 211.3690 211.4371 211.5266 211.8019 212.3418 212.3431
   212.5349 212.6626 213.1291 213.2380 213.3730 213.7784 213.9928 214.8798
   215.2919 215.5663 215.7252 215.7310 215.8633 216.3738 216.7257 217.0748
   217.1513 217.6203 217.8469 218.3585 218.7085 218.7256 219.5558 219.6892
   219.8005 220.1942 220.7294 220.8184 221.3836 221.4221 221.6704 221.7620
   221.8207 221.8668 222.5048 222.5806 222.6288 222.8284 223.6156 223.8806
   223.9802 224.0209 224.0631 224.7136 224.8298 225.1808 225.5019 225.6875
   225.8863 226.0998 226.2998 226.5816 227.1291 227.3420 227.3769 227.5641
   227.8939 228.6194 228.6816 228.7509 229.0196 229.2159 229.6363 229.7367
   230.0356 230.7319 230.7808 231.4280 231.5161 231.8599 232.2671 232.8432
   232.9816 233.2771 233.4705 233.9487 234.2039 234.7481 235.1102 235.4931
   235.9446 236.0351 236.1719 236.3433 236.6889 236.7740 237.6990 238.0357
   238.0653 238.2252 238.4180 239.0315 239.5180 239.5964 239.7307 240.0568
   240.3483 240.4509 240.5365 240.9263 241.4784 241.4935 241.9476 241.9585
   242.0399 242.2690 242.4419 242.4533 242.9939 243.1307 243.2486 243.4231
   243.8624 243.9572 244.9370 245.0530 245.1168 245.2523 245.3841 245.4293
   245.4886 245.6069 245.7216 245.9637 246.0225 246.3095 246.3863 246.4598
   246.7163 246.8565 247.2194 247.4871 247.6133 247.8234 247.9396 248.8296
   248.9053 249.0036 249.7179 249.8067 250.1113 250.2539 250.4427 250.4587
   250.6923 250.9846 251.0014 251.3105 251.7744 251.9503 252.5671 252.5938
   252.7029 252.8981 253.3157 253.3578 254.0978 254.1005 254.3119 254.4858
   255.2498 255.8331 256.0492 256.0723 256.2938 256.3639 256.6381 256.7004
   256.8566 256.9690 257.3993 257.5196 257.6391 257.7266 258.0636 258.3863
   258.4936 258.8725 258.9569 259.0591 259.4066 259.8266 260.1143 260.1586
   260.6875 260.9420 260.9964 261.3170 261.4024 261.9405 261.9742 262.1382
   262.2530 262.4950 262.6584 262.6769 262.9981 263.0766 263.3479 263.4840
   263.6286 264.1815 264.2395 264.3661 264.4417 264.7080 264.8869 265.0888
   265.1618 265.2337 265.5453 265.7095 265.9995 266.1337 266.2800 266.6003
   267.1003 267.1545 267.2254 267.2828 267.8154 267.9264 268.0402 269.1881
   269.6589 269.8292 269.9724 270.1078 270.2899 270.4325 270.5040 270.7399
   271.0654 271.2186 271.2375 271.7826 271.8868 272.0522 272.2363 272.3154
   272.3782 272.3970 273.0545 273.2893 273.6961 273.7315 273.9506 274.3890
   274.5498 274.7276 274.8743 275.5755 275.6244 275.8447 276.1381 276.1672
   276.5171 276.6422 277.0026 277.2692 277.2791 278.0544 278.2245 279.1408
   279.2118 279.5491 279.7717 279.8540 279.9581 280.0180 280.0735 280.3060
   281.0607 281.2453 281.7589 281.7641 281.8915 282.1482 282.2522 282.6565
   282.6999 282.7409 282.7717 283.0535 283.1985 283.6302 283.8356 283.9365
   284.1667 284.1871 284.2211 284.5693 284.9516 285.6465 286.0714 286.1321
   286.5091 286.5109 286.6020 286.7011 287.2074 287.3545 287.4235 287.8999
   288.3103 288.5310 288.7669 288.8444 289.1671 289.2725 289.7961 290.0857
   290.0990 290.5881 290.7010 291.2983 291.3947 291.4964 291.5011 292.3311
   292.4624 292.8435 293.7144 293.7626 293.8384 294.1849 294.4116 294.4230
   294.5724 294.6895 294.7161 294.8992 295.2701 295.4551 295.5520 296.4710
   296.8006 297.0614 297.5534 297.9529 298.0392 298.2476 298.2722 298.4822
   298.5872 299.1827 299.3232 299.4429 299.8844 300.0271 300.5819 300.9712
   301.5973 301.6865 301.7415 301.9622 301.9935 302.2530 302.4233 302.4259
   302.4963 302.8162 302.8616 302.9300 303.2330 303.4344 303.6248 303.6542
   303.6649 303.8935 304.2128 304.3620 304.4413 304.6417 304.9081 304.9803
   305.4122 305.4684 305.6199 305.6879 306.1348 306.2772 306.5360 307.0028
   307.0576 307.1144 307.3004 307.5628 307.6903 308.1426 308.3543 308.6413
   308.6733 308.7293 308.8967 309.0960 309.6889 309.8676 309.9671 310.4683
   310.7571 310.9105 311.0957 311.1087 311.2401 311.5253 311.9930 312.0151
   312.0681 312.2710 312.3377 312.7992 313.0990 313.5322 314.0040 314.2103
   314.2491 314.3725 314.8153 314.9632 315.4024 315.7792 316.1253 316.6451
   316.7618 316.7799 316.8041 317.1774 317.1778 317.3372 317.5225 317.8280
   317.8578 318.0846 318.4884 318.5370 318.9205 318.9409 319.0244 319.5948
   319.8698 319.9474 320.2308 320.6510 320.6550 321.1579 321.4919 322.0721
   322.1640 322.1848 322.6878 322.9117 322.9451 323.1188 323.4672 323.6498
   324.2151 324.3063 324.5479 324.6920 325.0092 325.2919 325.4857 325.5520
   325.7015 325.8073 326.1628 326.3303 326.5514 326.6497 326.8348 327.0487
   327.3826 327.7584 327.7707 327.9609 327.9724 328.4767 328.5317 328.6030
   328.7864 328.9116 328.9971 329.0238 329.2138 329.6707 329.8340 329.9149
   330.0995 330.1206 330.5613 330.6948 330.8815 331.4549 331.4725 332.2160
   332.3566 332.7928 333.0638 333.5044 333.7254 334.0635 334.2504 334.3964
   334.6301 334.8519 335.1322 335.1426 335.2849 335.4204 335.4390 335.4808
   335.4837 336.0166 336.1500 336.3114 336.4687 336.5751 336.6862 336.8196
   336.9640 337.5672 337.7324 338.0597 338.2889 338.7147 338.8797 339.0639
   339.2595 339.6051 339.6123 339.7613 340.0123 340.0739 340.5314 340.8461
   340.8837 341.1290 341.1863 341.2280 342.0100 342.3362 342.5041 343.1217
   343.3604 343.6104 343.6579 343.9578 344.2684 344.6952 344.8772 344.9172
   345.1738 345.3981 345.8403 345.9049 346.3408 346.4492 346.7199 346.8335
   346.9568 347.0023 347.2385 347.2855 347.3419 347.5708 347.7309 347.9495
   348.3999 348.4755 348.4989 348.9292 349.0564 349.6820 349.9207 350.1039
   350.1346 350.4488 350.5619 350.6756 350.7140 350.9103 350.9301 351.2682
   351.4605 351.5378 351.6391 351.9865 352.1780 352.6783 352.7167 352.7681
   353.0437 353.1243 353.4271 353.4333 353.6389 353.9974 354.2938 354.6242
   354.6929 354.7888 354.9367 355.0469 355.4413 355.4759 355.5055 355.5668
   355.6977 355.7991 355.8699 356.1401 356.3803 356.6568 356.6701 356.8682
   357.0538 357.5610 357.6056 357.7490 357.7650 357.7952 357.9624 358.0719
   358.3467 358.4791 358.5404 358.6993 358.7272 359.2335 359.4413 359.6003
   359.8099 359.9440 360.0898 360.1191 360.2786 360.2893 360.4763 360.6268
   361.2638 361.3848 361.5430 361.5631 362.2973 362.5081 362.7487 362.8366

          k = 0.6667-0.3333 0.6667 (  2819 PWs)   bands (ev):

   -21.0753  -6.9649  -6.2984  -6.2643  -4.6255   3.7035   4.4214   4.4994
     9.2279  10.6491  11.2456  11.3860  12.2885  12.9804  13.2064  13.2149
    14.0223  14.5105  14.6105  14.7034  14.8238  15.2341  16.1320  16.2209
    18.6157  18.9334  19.0960  20.1845  22.2175  22.2504  23.4062  24.3874
    24.4488  25.3493  26.0927  27.9390  28.5979  28.8946  29.9207  30.7406
    30.9163  31.3261  31.5141  32.5263  32.7733  33.2114  34.0786  35.1480
    36.9192  37.8460  37.9156  38.2244  39.1946  40.1344  40.2050  41.0335
    41.1390  41.2037  42.5142  42.5532  43.0237  43.8016  44.0915  44.3222
    44.6977  44.8605  46.9146  47.3461  48.6902  48.9688  49.2812  49.6048
    49.8748  50.4563  50.6202  51.0205  51.8350  52.2405  52.4631  53.5807
    53.7813  53.8731  54.5499  55.0863  56.3248  56.7750  56.8529  58.0555
    58.3036  58.4048  58.7272  59.7187  60.0359  60.2760  60.9109  61.5358
    61.9144  62.7154  63.0405  63.9956  64.8624  65.1238  66.1607  66.2651
    66.2686  66.8534  66.8773  67.3318  67.4820  67.9404  68.0133  68.2087
    69.1607  69.3243  69.7083  69.7275  70.6748  72.0419  72.3337  73.7625
    73.9680  74.3746  75.1869  76.1043  76.5777  76.6638  77.0912  77.1261
    77.2798  77.5152  77.6452  78.3499  78.5262  78.5513  79.5599  79.5701
    79.7634  80.0079  80.2231  80.8559  81.3815  82.6867  83.5259  83.9738
    84.2574  84.7694  85.1105  85.8965  86.3453  86.6312  86.9458  87.1505
    87.2779  87.7311  87.9546  88.2797  88.4671  89.0658  89.2700  89.3810
    89.7786  90.0470  90.3880  90.6695  90.8959  91.4311  92.2822  92.5562
    93.8283  94.0800  94.3672  94.4640  95.1430  95.2391  96.0655  96.1865
    97.0307  97.2168  97.6811  97.9626  98.5779  98.9462  99.0630  99.1908
   100.2651 100.3248 100.8988 101.3627 101.4381 101.6224 101.7404 102.1528
   102.7383 103.2180 103.6452 103.9708 104.0151 105.2634 105.3793 105.4718
   106.0675 106.3287 106.8684 107.1759 107.5293 107.7057 107.9997 108.5017
   109.3060 109.5529 109.7894 110.3496 110.9358 111.0238 111.3842 111.5631
   111.6998 111.9109 112.2598 112.6081 112.8163 112.8248 113.0400 113.4133
   113.7206 114.0335 114.5081 114.6263 114.6569 115.7186 115.9933 116.2396
   116.7807 117.0324 117.4096 117.5943 118.0732 118.8572 119.0472 119.4975
   120.6702 121.2020 121.3816 121.5955 121.6293 121.8020 121.9429 122.6992
   122.8136 123.1899 123.4750 124.4664 124.9453 125.7169 125.8798 126.1709
   126.2937 126.5162 126.6488 127.0335 127.2476 127.3838 127.6118 128.3376
   128.4500 128.6413 129.0645 129.5236 129.9001 130.1112 130.7971 130.8790
   131.1574 131.5536 131.7566 132.3335 132.4465 133.5967 133.6992 134.0500
   134.1625 135.1290 135.3202 135.4379 135.6513 136.0809 136.2169 136.8212
   137.2913 137.6144 137.8997 138.0675 138.2960 138.3866 138.6368 138.8343
   139.1794 139.2999 140.0099 140.4192 140.4658 140.7360 140.7369 140.9381
   141.1817 141.4962 141.7650 141.8721 141.9399 141.9980 142.6517 142.6652
   143.2934 143.5776 144.6337 145.3147 145.6737 145.7420 146.3747 146.5656
   147.2959 147.6082 147.8623 147.8713 148.4870 148.7052 148.9433 149.2795
   149.7202 149.9333 150.3202 150.5541 151.1976 151.3338 151.5338 151.5613
   151.8842 152.1328 152.2678 152.3590 152.4994 152.6134 152.8110 152.8418
   153.4502 153.6588 153.9067 154.1951 154.2015 154.4411 154.6223 154.8917
   155.3415 155.4269 155.6029 155.9788 156.7437 156.9155 157.4442 157.8997
   158.7847 159.1220 159.3704 159.8012 160.3282 160.5404 160.7587 160.8848
   161.1982 161.4332 162.0739 162.5432 162.5464 162.5743 162.8614 163.0669
   163.3225 163.4652 163.6527 164.1613 164.4290 165.0400 165.3773 165.4752
   165.6637 165.6875 166.0592 166.0829 166.3754 166.4811 166.7936 167.4731
   167.6145 167.8187 168.2657 168.4746 168.6655 169.0117 169.2480 170.0512
   170.2437 171.2412 171.6911 172.4163 172.5631 172.9224 173.1065 173.3625
   173.5516 173.8343 174.1650 174.3023 174.6678 174.8734 175.3124 175.3584
   175.5540 175.6459 175.7886 175.9229 176.0403 176.3542 176.8366 177.2757
   177.6683 177.7450 178.4611 178.5481 178.6826 179.0980 179.3275 179.6290
   179.7279 180.1036 180.2362 180.2969 181.0506 181.5599 182.2596 182.9738
   183.1800 183.9347 184.1089 184.2890 184.4109 184.4980 184.6354 184.9105
   185.0806 185.6691 185.7110 185.8824 185.8993 186.2497 186.2891 186.5774
   186.8773 187.2109 187.3975 187.6977 188.0010 188.2985 188.4334 188.8206
   188.9523 189.4513 189.6173 190.3415 190.6845 190.8795 191.4933 191.6108
   191.8383 192.6059 192.7925 193.2097 193.5082 193.6355 194.0267 194.4482
   194.5220 194.5968 194.7447 195.4107 195.7733 195.8147 196.1857 196.4252
   196.8898 196.9640 197.4477 197.6480 197.9306 198.0812 198.2455 198.6200
   198.8790 199.2086 199.4576 199.6446 199.8276 199.9018 200.1763 200.3199
   200.5492 200.7481 200.8140 201.1939 201.3444 201.4340 201.5469 201.9498
   202.4187 202.4752 203.0999 203.4705 203.8595 204.0470 204.2357 204.4431
   204.7219 204.8969 205.0381 205.8717 205.9690 206.4701 206.7532 206.7543
   206.9178 207.5403 207.8402 207.8603 207.9993 208.5408 208.7009 208.8438
   209.2552 209.5910 209.6313 209.6888 210.0575 210.7250 210.7375 210.9249
   211.6631 211.7891 211.8460 212.1380 212.3190 212.3963 212.4747 212.9080
   212.9236 213.4433 214.0562 214.2563 214.5445 214.5505 214.9992 215.2031
   215.4436 215.5328 215.6549 216.0189 216.3667 216.5937 217.0399 217.4060
   217.4782 218.0007 218.2583 218.2981 218.4137 218.7389 218.9226 218.9797
   219.3270 219.7277 219.8177 220.1165 220.1360 220.3780 220.6473 220.9025
   221.0914 221.4472 221.6612 221.9037 222.6727 222.9515 223.0353 223.1758
   223.7173 223.7891 224.3849 224.6883 224.8648 225.2374 225.5291 225.8502
[...]
   193.7612 194.2457 194.4885 194.5922 194.5960 194.9568 195.2447 195.6847
   195.8788 195.9799 196.8056 197.0092 197.2275 197.7940 197.8961 198.1701
   198.6171 199.0793 199.1810 199.3004 199.7134 199.8860 200.3634 200.5600
   200.7626 200.7969 201.4224 201.4556 201.9260 202.2362 202.5676 203.3879
   203.5825 203.9702 204.0180 204.2338 204.5594 204.6987 204.9034 205.0903
   205.2232 205.8288 206.1881 206.2437 207.0661 207.0868 207.5630 207.7773
   208.0286 208.1634 208.2445 208.4162 208.5271 208.9766 209.1615 209.2765
   209.6080 209.6159 210.2146 210.2814 210.4021 210.7242 210.8553 211.0230
   211.1508 211.2569 211.3116 211.8247 211.8354 212.1553 212.3259 212.5686
   212.5995 212.7265 212.7636 213.4459 213.7728 214.3662 214.8262 215.8314
   215.8395 216.6992 216.7421 217.3135 217.7131 217.9867 218.3223 218.8021
   219.1848 219.5158 219.9194 220.0237 220.2392 220.7364 220.9898 221.0945
   221.1979 221.3985 221.6499 221.6746 221.8981 221.9400 222.2566 222.6764
   222.8254 222.8786 223.1800 223.2041 223.3424 223.3913 223.5513 224.0707
   224.0773 224.5911 224.6374 224.8012 224.9049 224.9915 225.3952 225.8787
   225.9576 226.1558 226.3817 226.7390 226.7630 226.8072 227.1704 227.4516
   227.8380 228.3921 228.4190 228.4739 228.5530 228.7149 229.2008 229.2947
   229.6665 229.8704 230.2421 230.4992 230.7246 230.8465 231.2440 231.7994
   231.9920 232.0345 232.4110 232.4367 232.7775 233.1096 233.3484 233.5219
   233.9594 233.9924 234.0456 234.1994 234.3113 234.4156 234.7194 234.7428
   235.0354 235.2079 235.2647 235.5457 235.9632 236.1032 236.3883 236.5676
   236.8167 237.1912 237.3655 237.9063 238.5550 238.7754 238.9942 239.3162
   239.3265 239.5020 239.7418 240.2311 240.2751 240.4805 240.5232 240.9231
   241.0229 241.9213 242.2391 242.6087 242.7816 242.9574 243.0037 243.2104
   243.2379 243.3092 243.7522 243.8193 243.9175 244.1318 244.5585 244.8905
   245.2517 245.5651 245.6369 246.3109 246.3987 246.4141 246.6143 247.3862
   247.5169 247.6384 248.0821 248.2067 248.3510 248.7437 249.1203 249.5658
   249.6345 250.0678 250.1261 250.5378 250.9009 251.2385 251.4090 251.6306
   251.7870 252.1532 252.4539 252.4572 252.9198 253.1004 253.4493 253.6351
   253.7285 254.1526 254.3235 254.5000 254.8517 255.0047 255.5049 255.6106
   256.1819 256.3279 256.6368 256.9156 257.8245 257.9269 258.2857 258.3641
   258.5093 259.4994 259.5641 259.8351 260.1326 260.1440 260.6023 261.0272
   261.1524 261.3179 261.3498 261.8632 262.2298 262.4927 262.6899 262.9399
   263.2952 263.6675 264.0552 264.1993 264.2610 264.3863 264.6861 264.9870
   265.6567 265.8282 265.9493 266.1729 266.1894 266.4210 266.4408 266.9399
   267.0914 267.6753 268.0057 268.3277 268.3323 268.3568 269.0477 269.0477
   269.3059 269.6732 269.7948 270.0252 270.2007 270.3279 270.3890 270.4244
   270.5658 270.8563 271.2394 271.5668 271.8955 272.0193 272.1283 272.1858
   272.3086 272.5510 273.0638 273.8719 274.3099 274.4674 274.4803 274.7836
   274.9288 275.3173 275.5615 275.8406 276.0507 276.4581 276.7809 277.0742
   277.1316 277.2300 277.2726 277.4104 277.7293 277.8735 277.9603 277.9858
   278.3610 278.4515 278.5417 278.7198 278.7345 279.3723 279.4429 279.6147
   279.9399 280.1380 280.5365 280.8033 280.9601 281.0910 281.1377 281.2779
   281.4137 281.5672 282.5012 282.5476 282.9393 283.3494 283.5543 283.9778
   284.3070 284.4539 284.4751 285.0877 285.3598 285.5130 286.1795 286.1972
   286.6006 286.7338 286.7566 287.1481 287.1622 287.2351 287.3803 287.4317
   287.9248 287.9950 288.0258 288.0416 288.3340 288.4032 288.4641 288.7116
   288.7612 289.1066 289.2066 289.2888 289.7214 289.8372 289.9506 289.9777
   290.1378 290.4037 290.9267 291.6175 291.7920 292.0153 292.1300 292.2405
   292.2504 292.4496 292.6805 292.7863 292.9675 293.1073 293.4412 293.5502
   293.9634 294.4366 294.6507 295.1440 295.4134 295.8245 296.1563 296.2330
   296.4362 296.5367 296.5983 296.8835 296.9336 296.9753 297.0882 297.1634
   297.1942 297.2381 297.5362 297.8310 298.1485 298.4843 298.8361 299.5401
   300.4478 300.5567 300.6770 300.7172 300.9217 301.1941 301.6562 301.7433
   301.7853 302.0092 302.6045 302.9623 303.3966 303.4611 303.6492 303.6517
   303.8833 304.0407 304.1027 304.2626 304.4523 304.5508 304.8650 304.9233
   305.1877 305.3056 305.5091 305.6505 305.6648 305.9872 306.1853 306.2165
   306.3717 306.6173 307.0257 307.3439 307.7418 308.0594 308.1942 309.0350
   309.0763 309.2225 309.2588 309.5821 309.6135 309.8179 310.2894 310.5310
   310.6884 310.7397 311.2517 311.8821 312.1222 312.3818 312.5110 312.6287
   312.7649 312.9785 313.2132 313.2802 313.3400 313.7671 313.8843 314.4029
   314.4057 314.6544 314.9655 315.0243 315.1689 315.3771 315.8295 315.8330
   316.2397 316.6885 316.7364 316.9336 316.9908 317.3996 317.5190 317.6970
   317.9288 318.0032 318.5421 318.7636 318.7696 319.0168 319.0550 319.3745
   319.6973 319.7377 320.1004 320.1062 320.3282 320.4283 321.1998 321.4822
   321.6324 321.6881 321.8670 322.0310 322.1538 322.1563 322.3375 322.7143
   322.7164 322.8471 323.1994 323.2564 323.5229 323.5579 323.9505 323.9606
   324.2593 324.2865 324.4573 324.9306 325.1335 325.2987 325.3120 325.8873
   326.0029 326.1435 326.2138 326.5220 326.7569 326.7803 327.0704 327.3103
   327.5986 327.6101 327.6971 327.6986 327.8867 328.0252 328.1434 328.5417
   328.8653 328.8931 329.5056 329.8500 329.9987 330.1584 330.6955 330.7551
   331.0215 331.1262 331.2581 331.3272 331.4674 331.9929 332.0258 332.2821
   332.4587 332.6031 332.9007 333.0397 333.3648 333.3902 333.4775 334.0369
   334.4963 334.9021 334.9707 335.0673 335.2367 335.6255 335.8402 336.3192
   336.6550 337.0134 337.4329 337.5385 337.5528 337.7726 337.7930 338.0330
   338.1794 338.5388 338.8342 338.9569 339.0079 339.0223 339.0933 339.3645
   339.4073 339.6669 339.8596 340.0123 340.0900 340.1889 340.5914 340.6217
   340.7055 341.3996 341.7570 341.9181 342.2665 342.6688 342.6846 342.7149
   342.9979 343.3374 343.9658 344.0560 344.5113 344.7851 345.1408 345.2168
   345.3556 345.4117 346.0345 346.0358 346.1465 346.4893 347.3674 347.3941
   347.6345 347.7166 347.7854 348.1271 348.3118 348.8354 348.9510 349.0871
   349.1321 349.2518 349.8372 349.9382 349.9394 350.1832 350.2049 350.2956
   350.3348 350.4344 350.6543 350.6893 351.1403 351.2949 351.3731 351.5414
   351.6449 351.6772 351.8565 352.0375 352.1828 352.2697 352.4838 352.5943
   353.0277 353.0374 353.9554 354.0760 354.0800 354.7766 354.9680 355.1685
   355.2817 355.9521 355.9658 356.2595 356.3038 356.5204 356.7499 356.8174
   357.0985 357.3629 357.7648 357.8553 357.9474 358.0262 358.1063 358.1207
   358.3779 358.6781 359.6489 359.6823 359.7429 360.1171 360.2635 360.3137
   360.7594 360.9531 361.0976 361.4246 361.6273 361.7104 361.7245 362.3280
   362.4234 362.5454 362.6634 363.8106 364.8118 364.9637 365.1045 365.1174

          k =-0.3333-1.0000 0.0000 (  2802 PWs)   bands (ev):

   -21.0694  -6.5550  -6.4904  -6.3925  -5.0208   4.4222   4.6281   4.8367
     8.3372  10.4142  10.8573  11.5216  12.0756  12.8013  13.5062  13.9082
    14.1223  14.4093  14.4980  14.6819  14.6995  15.7830  16.4316  16.6509
    17.7446  18.4238  19.0497  21.9535  22.2346  22.8659  22.8913  24.1327
    24.5010  25.3526  25.4065  25.8350  26.9672  27.3116  27.7811  29.7620
    30.7737  32.7461  32.9887  33.3432  34.1105  34.9427  35.2643  36.3229
    36.9957  37.2265  38.0004  39.5498  39.6988  39.7932  40.2971  40.7043
    40.8859  41.6033  41.8531  42.4722  43.0601  43.7221  45.0887  45.2028
    46.1609  47.4888  47.6097  47.9700  48.3778  48.7382  48.8048  49.6281
    49.9576  50.2012  50.3650  50.5862  50.6128  50.9207  51.7706  52.9389
    54.1016  54.1252  54.4367  55.1352  55.6923  56.8825  57.1799  57.6192
    57.8241  58.1725  58.6910  58.9253  58.9890  59.3860  60.2183  60.8105
    61.5197  61.7333  62.0966  63.0834  63.6286  63.8570  64.0342  64.3183
    64.4255  64.6258  65.4606  66.0011  66.3953  66.9560  67.0566  69.0385
    69.3742  70.3510  71.2835  71.9732  72.2711  74.4154  74.8523  75.0327
    75.1196  75.5642  75.7117  76.4853  76.8618  77.1093  78.0781  78.2319
    78.5970  78.6659  79.0926  79.6304  79.7500  80.0385  80.4705  80.5591
    81.1312  81.2480  81.3814  81.9832  82.1549  82.6837  82.8712  83.7000
    84.7339  85.3053  86.4244  86.7076  86.7299  86.9656  87.6687  87.6735
    87.7274  88.2261  88.3787  88.4127  88.9474  89.0894  89.5600  89.7181
    89.8430  90.1249  90.2908  90.8699  91.4198  91.5523  91.6743  92.3204
    92.4471  92.9581  93.0576  93.4556  94.6178  94.9001  95.0149  95.5710
    95.9612  96.4700  96.6568  97.6661  97.9338  98.4318  98.7899  99.0017
    99.2604  99.3431  99.6944 100.7481 101.1504 101.2172 101.5586 101.6279
   102.2969 102.3585 102.3667 103.6012 103.7533 103.8454 104.0610 104.2885
   104.4374 104.5553 104.7556 104.7582 104.9896 105.4199 105.9207 105.9783
   106.4931 106.5347 108.0479 108.8482 109.9410 111.4256 111.8793 112.1348
   112.3311 112.6490 112.9581 112.9873 113.3463 113.6733 114.2895 114.6200
   114.9161 115.7742 115.9251 116.3017 116.5590 116.6835 116.9070 117.5772
   117.6869 118.1013 118.3555 118.5151 119.1804 119.7508 120.3074 120.3567
   120.4288 120.7694 120.9493 122.0186 122.3923 122.5935 122.7976 123.3185
   123.4493 123.9041 124.0829 124.1645 124.2606 124.4352 124.9903 125.2563
   125.4451 126.1696 126.2278 126.3707 126.9628 126.9861 127.4932 128.4331
   129.9062 130.1944 130.4691 130.6239 130.8488 131.3144 131.4601 131.6723
   132.3307 132.7545 133.0254 133.4099 133.4124 133.5224 133.6901 133.9439
   134.1044 134.1729 134.2830 134.7864 135.8648 135.9666 136.4453 136.6132
   136.9051 137.5875 137.6370 138.3051 138.6800 139.2886 139.6705 140.2442
   140.4023 140.5095 140.9843 141.4790 141.7498 141.7950 142.0258 142.2569
   142.2748 142.7084 142.8073 143.1011 143.3640 143.3704 143.3920 144.3089
   144.7644 145.1007 145.1335 145.1389 145.2700 145.6149 145.6928 146.4759
   146.7633 147.0758 147.2941 147.6281 147.6750 148.1771 148.2589 148.2723
   149.4023 149.4330 149.6966 150.0144 150.3929 150.9776 151.0912 151.2717
   151.4305 151.7200 151.7947 151.9548 151.9676 152.0406 152.5922 152.6763
   152.9061 152.9466 153.3835 153.4292 153.8630 154.0411 154.3735 155.4837
   155.4920 155.6155 155.6615 156.0806 156.8646 157.0232 157.0892 157.3036
   157.4078 157.5213 158.0808 158.2805 158.4061 158.5140 158.7644 159.0419
   159.1375 159.2260 159.4830 159.8099 160.8394 161.0865 161.1520 162.6120
   162.6490 163.1918 163.2204 164.3655 164.3967 165.9527 166.0194 166.2918
   166.4639 166.6149 166.6419 166.6752 166.7089 167.6624 167.6741 167.7911
   168.2541 168.2985 168.7928 169.5330 169.8094 169.8178 170.4026 170.4110
   170.5034 170.6467 170.9319 171.0870 171.1371 172.0659 172.0681 172.2409
   172.3956 172.4905 172.7310 173.8466 173.9444 174.3899 174.6833 174.6840
   174.8340 174.9604 175.2956 175.8436 175.9477 176.4366 176.6819 176.7632
   176.9295 176.9739 177.4536 177.8117 178.0097 178.0627 178.3533 179.3260
   179.3445 179.4768 181.4270 181.7466 182.6550 182.6810 182.7241 184.1069
   184.2113 184.3827 184.5442 184.7779 184.8106 184.8434 185.2365 185.2655
   185.3487 185.3736 185.6294 186.1368 186.1920 186.2418 186.6277 186.8383
   186.8695 187.4384 187.9225 188.4884 188.6358 188.7124 188.9240 189.3513
   189.8543 189.9880 190.2034 190.6085 190.7803 190.9243 190.9523 192.2727
   192.4163 192.5891 192.6867 192.9056 193.0521 193.3543 193.4760 193.5688
   193.6058 194.3213 194.7362 195.3892 195.7716 195.9468 196.2144 196.3306
   196.4715 196.8471 196.9348 197.0467 197.1449 197.3391 197.5986 197.8055
   197.8418 198.2779 198.4368 198.4495 198.8570 199.3688 199.5923 199.6306
   199.8306 200.1598 200.5563 200.5798 200.6996 201.7835 201.9353 202.5455
   202.5826 203.8739 203.8879 205.0114 205.1359 205.3020 205.6366 205.8529
   206.0621 206.3483 206.4264 207.5734 207.7378 207.8506 208.1252 208.5279
   208.5410 208.7601 209.0595 209.2104 209.2892 210.0776 210.1695 210.5448
   210.6037 210.6211 210.9049 211.1240 211.4773 211.7280 211.7932 211.8032
   211.8885 212.6338 212.8092 213.2312 213.4891 213.5264 214.0295 214.4639
   214.7202 214.8284 214.8520 215.0160 215.2150 215.8133 215.8622 216.6074
   216.8459 217.1095 217.1555 217.3055 218.0583 218.2779 218.8679 218.8855
   218.9000 219.0843 219.3567 219.8180 219.9039 219.9256 220.1104 220.1922
   220.2496 220.4580 220.5902 220.7136 220.7323 220.8565 220.8955 221.1836
   221.5025 221.6172 222.0214 222.1497 222.3234 222.8420 223.1459 223.1798
   223.3288 223.5248 223.5500 223.7509 223.8610 224.4166 224.9909 225.5967
   225.8097 225.8303 225.9377 226.2246 226.3475 227.0368 227.1234 227.1324
   227.1759 227.5711 227.6881 227.8097 227.9729 228.3990 228.4089 228.6680
   228.9022 228.9856 229.1761 229.4590 229.9021 229.9371 230.3411 230.7031
   230.9406 231.1760 231.3008 231.9669 232.3605 232.5071 232.8592 233.0839
   233.2103 233.6416 234.1991 234.2626 234.4387 234.5738 235.7764 235.8918
   236.6110 236.7472 236.7991 236.9026 237.4280 237.6406 237.7575 238.4024
   238.5218 238.6046 238.6072 238.7518 238.7871 238.9067 239.0469 239.1767
   239.2025 239.2188 239.3327 239.4052 239.6444 239.9522 240.0601 240.2470
   240.7082 240.8425 240.8449 241.4295 241.5328 242.2777 242.4790 242.5439
   243.0038 243.4082 243.8149 243.8465 244.0522 244.4084 244.5857 244.5885
   245.0506 245.0515 245.2400 245.6948 246.2673 246.4679 246.7256 246.7709
   246.9208 247.5783 247.8972 248.7479 249.2659 249.3043 249.3793 249.4915
   249.9243 250.0723 250.0992 250.1032 250.4493 250.6101 250.7575 250.8869
   251.6055 251.6144 252.2650 252.3523 252.6071 253.0528 253.1637 253.2406
   253.4861 254.4322 254.4551 254.6101 254.7226 254.8894 254.9934 256.6152
   256.7440 257.1433 257.1685 257.2304 257.2419 257.2648 257.4886 257.5702
   257.6393 258.1518 258.5305 258.8864 259.0684 259.5327 259.6251 259.6491
   259.9848 260.1062 260.3792 260.4174 260.5115 260.9349 261.3929 261.5952
   261.7668 261.8086 262.1795 262.3736 262.6237 262.8054 263.1401 264.0026
   264.1759 264.9332 265.0124 265.1099 265.8234 265.9249 266.3495 267.0329
   267.8696 268.0308 268.2154 269.0882 269.0944 269.4205 269.5605 269.7515
   270.4145 270.7457 270.7980 271.5345 272.1168 272.4061 272.5489 273.1671
   273.3132 273.4194 273.9175 273.9212 274.1042 274.1994 274.3124 274.3672
   274.7012 274.8047 274.8641 275.0274 275.1691 275.6232 275.7960 275.9865
   276.0563 276.1746 276.2018 276.4243 276.7201 276.9070 277.1428 277.2571
   277.3518 277.3733 277.4535 277.6639 277.6889 278.0829 278.1768 278.5221
   278.5894 279.1956 279.4938 279.6361 279.6722 279.8390 279.8773 280.6036
   280.6129 280.6715 280.9731 281.1165 281.5096 281.6166 281.6833 281.9093
   282.2704 282.3221 282.3976 282.4260 282.5075 282.9172 283.2515 283.4647
   283.9366 284.0079 284.1049 284.1480 284.3178 284.4500 284.6037 284.8495
   285.3886 285.7981 285.8944 286.9955 287.4566 287.8070 287.9955 288.1375
   288.4731 288.5801 289.1707 289.3342 289.4263 289.4305 289.7168 289.9539
   289.9614 290.0256 290.8450 290.8891 291.2572 291.3621 291.4885 291.7603
   291.8792 292.0820 292.1298 292.1806 292.2309 292.4279 292.4308 292.4452
   292.5281 292.6356 292.6389 292.7533 292.7579 292.9516 293.0761 293.2438
   293.3504 293.3576 293.3694 293.4505 293.6357 293.7819 293.9882 294.3457
   294.6684 294.9010 294.9973 295.0746 295.1147 295.5067 296.1741 296.7426
   297.0621 297.5350 297.5786 298.3890 298.4075 298.5615 298.9349 298.9729
   299.9779 300.0944 300.5763 301.4748 301.5233 301.6050 301.6409 302.1115
   302.5948 302.6385 302.8136 302.9704 303.7598 303.8315 304.2264 304.2934
   304.3329 304.3635 304.4709 304.5221 304.8537 304.8827 304.8844 305.3485
   305.3864 305.5640 305.7366 305.8706 306.0368 306.1290 306.1325 306.7377
   306.7988 306.8762 307.5260 307.7254 307.7777 308.0626 308.1600 308.1744
   308.3175 308.3263 308.3477 308.6838 308.8704 309.1716 309.2505 309.2950
   309.8755 309.9037 310.5399 310.6678 310.7990 310.8337 310.9650 311.1310
   311.8289 312.0249 312.2102 312.4087 312.7945 313.3106 313.3358 314.0018
   314.1801 314.7711 314.7718 314.9342 315.0500 315.1282 315.2410 315.2585
   315.2993 315.6732 315.7631 316.0290 316.0629 316.1409 317.0421 317.1092
   317.5179 317.8536 317.8991 318.3420 318.4046 318.6471 318.6693 318.7445
   318.9225 319.5228 319.8119 319.8171 320.3123 320.4409 320.6018 320.6881
   320.8201 320.9100 321.0178 321.1283 321.2475 321.3098 321.3497 321.3730
   321.5117 321.5560 321.9005 321.9088 321.9427 322.0352 322.2978 323.6940
   324.2299 324.2387 324.2519 324.6083 325.5051 326.1393 326.4573 326.8156
   327.2389 327.4074 327.4113 327.6498 327.8832 328.0258 328.1829 328.2566
   328.4732 328.5325 328.6912 328.7865 328.9748 329.0896 329.1679 329.3631
   329.3864 329.5801 329.8562 329.9718 330.6830 330.8801 331.5407 331.5543
   331.6100 331.7401 331.8395 331.8430 331.8443 331.8728 332.1159 332.4934
   332.5179 332.9933 333.0092 333.4223 333.4368 333.4987 333.5629 333.5998
   333.6283 333.6324 334.1790 334.2682 334.5620 334.7438 334.8071 334.8360
   334.8558 335.1941 335.6936 336.4032 337.6647 338.0353 338.1318 338.6543
   338.7349 338.8103 338.9270 339.0167 339.1600 339.2767 339.2966 339.4550
   339.5192 339.7389 339.7436 339.9775 339.9995 340.0175 340.3518 340.6542
   340.9274 340.9450 341.1978 341.4922 341.8834 341.9002 342.2739 343.1735
   343.7877 343.8606 344.7322 344.7394 345.0131 345.5709 345.7314 345.7351
   345.7427 345.9161 346.0470 346.1574 346.9006 347.1662 347.1952 347.3744
   347.4249 347.6561 347.7168 347.7234 348.1515 348.1983 348.2830 348.6551
   348.7873 348.9412 349.1104 349.2787 349.9004 349.9438 350.1613 350.6537
   351.0035 351.1080 351.2339 351.2537 351.4286 351.4602 351.5008 351.5050
   351.6897 351.7137 351.7367 351.8563 352.0169 353.0997 353.1609 353.5780
   354.4030 354.7171 354.8021 355.4847 355.4855 355.7271 355.8724 355.9011
   356.1396 356.3589 356.3782 356.4780 356.8512 356.8675 356.9778 357.1651
   357.3495 357.5782 357.7442 358.1843 358.2641 358.2976 358.5705 358.5895
   359.1669 359.3589 359.6047 359.6877 359.7243 360.0583 360.1936 360.5146
   360.5875 360.6000 361.0826 361.4873 361.5521 362.0164 362.0263 362.5351
   362.8177 362.9754 363.0742 363.6393 363.8026 364.1474 364.6353 365.1189

     the Fermi energy is     6.0212 ev
     (compare with:     5.7843 eV, computed in scf)

     Writing all to output data dir out/mp-1253.save/
 
     init_run     :      0.02s CPU      0.05s WALL (       1 calls)
     electrons    :    598.89s CPU    635.63s WALL (       1 calls)

     Called by init_run:
     wfcinit      :      0.00s CPU      0.00s WALL (       1 calls)
     potinit      :      0.00s CPU      0.01s WALL (       1 calls)
     hinit0       :      0.01s CPU      0.03s WALL (       1 calls)

     Called by electrons:
     c_bands      :    598.88s CPU    635.60s WALL (       1 calls)
     v_of_rho     :      0.00s CPU      0.00s WALL (       1 calls)

     Called by c_bands:
     init_us_2    :      0.00s CPU      0.00s WALL (       8 calls)
     init_us_2:cp :      0.00s CPU      0.00s WALL (       8 calls)
     cegterg      :    521.62s CPU    552.24s WALL (       8 calls)

     Called by *egterg:
     cdiaghg      :    496.54s CPU    526.17s WALL (      60 calls)
     h_psi        :      7.26s CPU      7.66s WALL (      68 calls)
     g_psi        :      0.06s CPU      0.06s WALL (      52 calls)

     Called by h_psi:
     h_psi:calbec :      0.23s CPU      0.25s WALL (      68 calls)
     vloc_psi     :      6.72s CPU      7.08s WALL (      68 calls)
     add_vuspsi   :      0.19s CPU      0.20s WALL (      68 calls)

     General routines
     calbec       :      0.23s CPU      0.25s WALL (      68 calls)
     fft          :      0.00s CPU      0.02s WALL (      10 calls)
     fftw         :      6.00s CPU      6.33s WALL (  107372 calls)
 
     Parallel routines
 
     PWSCF        :   9m59.57s CPU  10m36.80s WALL

 
   This run was terminated on:  19:16:53  13Dec2023            

=------------------------------------------------------------------------------=
   JOB DONE.
=------------------------------------------------------------------------------=
