
     Program PWSCF v.7.1 starts on  7Apr2024 at 15:54:32 

     This program is part of the open-source Quantum ESPRESSO suite
     for quantum simulation of materials; please cite
         "P. Giannozzi et al., J. Phys.:Condens. Matter 21 395502 (2009);
         "P. Giannozzi et al., J. Phys.:Condens. Matter 29 465901 (2017);
         "P. Giannozzi et al., J. Chem. Phys. 152 154105 (2020);
          URL http://www.quantum-espresso.org", 
     in publications or presentations arising from this work. More details at
     http://www.quantum-espresso.org/quote

     Parallel version (MPI), running on    32 processors

     MPI processes distributed on     1 nodes
     232424 MiB available memory on the printing compute node when the environment starts
 
     Reading input from pw_MoSe2_nscf_k147_E48.in
Warning: card &IONS ignored
Warning: card / ignored
Warning: card &CELL ignored
Warning: card / ignored

     Current dimensions of program PWSCF are:
     Max number of different atomic species (ntypx) = 10
     Max number of k-points (npk) =  40000
     Max angular momentum in pseudopotentials (lmaxx) =  4

     Atomic positions and unit cell read from directory:
     out/MoSe2.save/
     Atomic positions from file used, from input discarded
 
 
     R & G space division:  proc/nbgrp/npool/nimage =      32
     Subspace diagonalization in iterative solution of the eigenvalue problem:
     one sub-group per band group will be used
     scalapack distributed-memory algorithm (size of sub-group:  5*  5 procs)

 
     Parallelization info
     --------------------
     sticks:   dense  smooth     PW     G-vecs:    dense   smooth      PW
     Min          15      15      4                 2063     2063     322
     Max          16      16      5                 2112     2112     357
     Sum         511     511    151                67305    67305   10961
 
     Using Slab Decomposition
 


     bravais-lattice index     =            4
     lattice parameter (alat)  =       6.2659  a.u.
     unit-cell volume          =    1500.8938 (a.u.)^3
     number of atoms/cell      =            3
     number of atomic types    =            2
     number of electrons       =        26.00
     number of Kohn-Sham states=         1200
     kinetic-energy cutoff     =      48.0000  Ry
     charge density cutoff     =     192.0000  Ry
     Exchange-correlation= PBE
                           (   1   4   3   4   0   0   0)

     celldm(1)=   6.265942  celldm(2)=   0.000000  celldm(3)=   7.044663
     celldm(4)=   0.000000  celldm(5)=   0.000000  celldm(6)=   0.000000

     crystal axes: (cart. coord. in units of alat)
               a(1) = (   1.000000   0.000000   0.000000 )  
               a(2) = (  -0.500000   0.866025   0.000000 )  
               a(3) = (   0.000000   0.000000   7.044663 )  

     reciprocal axes: (cart. coord. in units 2 pi/alat)
               b(1) = (  1.000000  0.577350  0.000000 )  
               b(2) = (  0.000000  1.154701  0.000000 )  
               b(3) = (  0.000000  0.000000  0.141951 )  


     PseudoPot. # 1 for Mo read from file:
     /usr/scratch4/magr4985/FGWC/FGWC/pseudo/SG15/Mo.upf
     MD5 check sum: 2665c9f4159700498d9a5f7573bd8e9f
     Pseudo is Norm-conserving, Zval = 14.0
     Generated using ONCVPSP code by D. R. Hamann
     Using radial grid of  602 points,  6 beta functions with: 
                l(1) =   0
                l(2) =   0
                l(3) =   1
                l(4) =   1
                l(5) =   2
                l(6) =   2

     PseudoPot. # 2 for Se read from file:
     /usr/scratch4/magr4985/FGWC/FGWC/pseudo/SG15/Se.upf
     MD5 check sum: e78e48a4f5d8ce1f8dc76ec1271f249c
     Pseudo is Norm-conserving, Zval =  6.0
     Generated using ONCVPSP code by D. R. Hamann
     Using radial grid of  602 points,  6 beta functions with: 
                l(1) =   0
                l(2) =   0
                l(3) =   1
                l(4) =   1
                l(5) =   2
                l(6) =   2

     atomic species   valence    mass     pseudopotential
        Mo            14.00    95.94000     Mo( 1.00)
        Se             6.00    78.96000     Se( 1.00)

     12 Sym. Ops. (no inversion) found



   Cartesian axes

     site n.     atom                  positions (alat units)
         1           Mo  tau(   1) = (   0.5000000   0.2886752   3.5223315  )
         2           Se  tau(   2) = (   0.0000000   0.0000000   4.0263545  )
         3           Se  tau(   3) = (   0.0000000   0.0000000   3.0183086  )

     number of k points=    10  Gaussian smearing, width (Ry)=  0.0005
                       cart. coord. in units 2pi/alat
        k(    1) = (   0.0000000   0.0000000   0.0000000), wk =   0.0312500
        k(    2) = (   0.0000000   0.1443376   0.0000000), wk =   0.1875000
        k(    3) = (   0.0000000   0.2886751   0.0000000), wk =   0.1875000
        k(    4) = (   0.0000000   0.4330127   0.0000000), wk =   0.1875000
        k(    5) = (   0.0000000  -0.5773503   0.0000000), wk =   0.0937500
        k(    6) = (   0.1250000   0.2165064   0.0000000), wk =   0.1875000
        k(    7) = (   0.1250000   0.3608439   0.0000000), wk =   0.3750000
        k(    8) = (   0.1250000   0.5051815   0.0000000), wk =   0.3750000
        k(    9) = (   0.2500000   0.4330127   0.0000000), wk =   0.1875000
        k(   10) = (   0.2500000   0.5773503   0.0000000), wk =   0.1875000

     Dense  grid:    67305 G-vectors     FFT dimensions: (  27,  27, 200)

     Estimated max dynamical RAM per process >      98.72 MB

     Estimated total dynamical RAM >       3.08 GB

     The potential is recalculated from file :
     out/MoSe2.save/charge-density

     Starting wfcs are random

     Band Structure Calculation
     ParO style diagonalization

     ethr =  5.00E-06,  avg # of iterations =  9.6

     total cpu time spent up to now is      172.8 secs

     End of band structure calculation

          k = 0.0000 0.0000 0.0000 (  8293 PWs)   bands (ev):

   -61.9309 -36.0711 -35.9101 -35.9101 -15.2527 -14.2645  -6.4583  -3.1998
    -3.1998  -2.9125  -2.2200  -2.2200  -1.3476   1.7604   1.7604   1.9874
     1.9874   3.5619   3.8853   4.4093   4.9999   5.2384   6.1359   7.1923
     7.4665   8.2372   9.8311   9.8311  10.0115  10.5492  11.4689  11.8631
    11.8631  13.2108  13.6442  13.6929  15.5135  15.5135  15.6098  15.6098
    15.7235  16.3395  17.6269  17.8515  18.8919  18.8919  20.9229  20.9459
    20.9459  21.1949  21.6108  21.6108  21.7091  22.0071  22.0071  22.1221
    22.1640  22.2417  22.3029  22.3029  22.6470  22.6498  22.6498  22.7374
    22.9145  22.9145  22.9504  22.9504  23.0843  23.3840  23.3840  23.5756
    23.6297  23.7976  23.7976  24.0882  24.4207  24.4207  24.4414  24.4414
    24.6232  25.1231  25.2715  25.2715  25.6205  25.6205  25.6566  26.1786
    26.4614  26.4614  26.7015  26.7015  26.7381  26.8937  27.3058  27.8325
    27.8325  27.8706  28.0684  28.0684  28.5032  28.8950  28.9042  28.9042
    29.6200  29.6200  29.9766  30.6165  31.0187  31.0187  31.1137  31.1137
    31.8881  31.8881  31.9214  32.1534  32.5157  32.7521  33.0725  33.0725
    33.6498  34.2342  34.3025  34.7181  34.7181  34.7659  34.7659  35.4763
    35.4764  35.7780  36.1032  36.9129  36.9129  37.8367  38.2386  38.4968
    38.7288  38.7613  38.7613  38.8418  38.8418  39.3915  39.4492  39.4492
    40.3026  40.3026  40.5307  40.6936  41.6678  41.6678  41.8092  41.8092
    42.2277  42.5218  42.5871  42.5871  43.1295  43.1578  43.1578  43.5002
    44.2190  44.2190  44.2320  44.2320  44.7356  45.0708  45.5360  45.5360
    46.0169  46.6645  47.0567  47.0567  47.2350  48.4050  48.4050  48.6150
    48.9273  48.9274  49.1093  50.2294  50.2294  50.7559  50.9740  51.0782
    51.0782  51.0956  51.0956  51.7835  52.1227  52.2688  52.2688  52.7734
    52.7734  52.9652  52.9907  53.2172  53.3612  54.8215  54.8215  54.8613
    54.8804  54.8804  56.0654  56.0654  56.4740  56.5509  56.5628  56.5628
    56.8397  57.0080  57.3934  57.3934  57.6812  57.7657  57.7657  58.1885
    58.1885  58.2267  58.2267  58.3719  58.5482  58.7707  58.8710  59.0001
    59.0016  59.0016  59.0392  59.0392  59.0713  59.0713  59.2051  59.2051
    59.4826  59.4897  59.4897  59.6835  59.6835  59.8633  59.8781  59.8909
    60.1215  60.2765  60.2765  60.3486  60.3486  60.4418  60.8149  60.8149
    60.9553  60.9553  61.0935  61.0935  61.1130  61.1904  61.6839  61.7282
    61.7594  61.7893  62.1765  62.1765  62.3654  62.3787  62.3787  62.5115
    62.5115  62.9050  62.9050  63.1672  63.2917  63.2917  63.7479  63.7479
    64.3655  64.3815  64.4843  64.4843  64.5092  64.5092  64.6474  64.6807
    64.8795  64.9894  64.9894  65.0970  65.0986  65.0986  65.5013  65.5013
    65.7190  65.7190  66.4830  66.7140  66.7140  67.1539  67.1539  67.5657
    67.5657  67.5670  67.6439  67.6498  68.0600  68.4680  68.6731  68.6731
    68.6818  68.9310  68.9310  69.0203  69.4494  69.4494  69.8953  70.2641
    70.2641  70.2876  70.2876  70.6116  71.4615  71.4615  71.5016  71.5143
    71.5143  71.5253  71.5761  71.7851  72.1239  72.1239  72.3829  72.3829
    72.3976  72.6438  72.6438  73.0375  73.1892  73.1892  73.5139  73.9617
    73.9617  74.1866  74.2042  74.2042  75.2453  75.3366  75.5674  75.5674
    75.6442  75.6442  75.9376  76.0211  76.0211  76.1084  76.4506  76.5964
    76.7993  76.7993  76.8385  76.9954  76.9954  77.0761  77.0869  77.0869
    77.1940  77.1940  77.2734  77.3703  77.4133  77.5006  77.5006  77.6148
    77.6798  77.6798  77.6959  77.6959  77.7300  78.0482  78.0482  78.1593
    78.1852  78.3049  78.3049  78.3530  78.3530  78.5049  78.5286  78.5286
    78.7909  78.7909  78.8499  79.1811  79.1811  79.7097  79.7097  79.8340
    79.9085  80.0524  80.0524  80.1340  80.1340  80.1827  80.4554  80.4602
    80.7808  80.7902  80.7902  80.8625  80.8625  80.9213  81.0744  81.0744
    81.1577  81.1577  81.2309  81.5848  81.8177  81.8177  82.0610  82.3862
    82.3862  82.3916  82.3916  82.5253  82.6391  82.6391  82.7296  82.8832
    83.2337  83.6198  83.6198  83.7108  83.7108  83.9620  84.4413  84.6033
    84.6033  85.0816  85.0816  85.6303  85.7410  85.9073  85.9073  85.9268
    86.0639  86.0639  86.3744  86.4000  86.5356  86.5356  86.7206  86.7206
    86.7671  86.7671  86.9075  86.9970  87.2439  87.2439  87.3203  87.7443
    87.7443  87.9574  87.9574  87.9953  88.0460  88.0460  88.2639  88.7293
    88.8223  88.8223  89.3614  89.4584  89.4584  89.4751  89.4751  89.6023
    89.7233  90.1068  90.1068  90.2574  90.3355  91.0383  91.0383  91.5621
    91.6996  91.8109  91.8109  92.1510  92.1510  92.4250  92.7436  92.7436
    93.1125  93.3539  93.3539  93.6748  93.6748  93.7694  93.8938  94.1686
    94.1686  94.1990  94.1990  94.3661  94.3927  94.5657  94.7770  94.8092
    94.8092  95.2113  95.6467  95.6467  95.8402  95.8402  96.1433  96.1433
    96.3195  96.8614  96.8629  96.8629  97.5337  97.5337  97.7527  97.7563
    98.0117  98.0117  98.6434  98.7231  98.7231  98.7494  98.9439  99.0295
    99.0295  99.5398  99.5398  99.7146  99.7146  99.7385  99.7533  99.8602
    99.9627  99.9627 100.0739 100.0739 100.0780 100.5822 100.7861 101.0410
   101.0410 102.9849 103.2428 103.2945 103.2945 103.6971 103.6971 103.7578
   103.9969 104.0885 104.0885 104.2866 104.3310 105.0198 105.0198 105.0963
   105.1466 105.3383 105.3383 105.6948 105.6948 105.9747 106.3815 106.3815
   106.3818 106.3818 106.5979 106.5979 106.6757 106.6757 107.0376 107.0724
   107.0724 107.3420 107.3548 107.3548 107.4497 107.4620 107.4620 107.5033
   107.6175 107.6175 107.7912 108.6377 108.6922 108.7061 109.0730 109.0730
   109.7838 109.7838 109.8466 109.8466 109.9797 110.2355 111.2429 111.5008
   111.5008 111.5713 111.5713 111.8068 112.0537 112.0537 112.0642 112.5813
   112.6813 112.7805 112.7805 113.4721 113.4721 113.6049 113.6049 113.8591
   113.8591 113.9791 114.3384 114.3384 114.3400 114.5215 115.1347 115.5357
   115.5357 115.8786 115.8786 115.9373 116.0795 116.1689 116.1689 116.2614
   116.2614 116.5313 116.5313 116.6688 116.8211 116.8211 116.9695 117.0902
   117.2642 117.2642 117.2787 117.2787 117.3239 117.3687 117.6124 117.8665
   117.8665 117.9691 118.0184 118.1101 118.1101 118.5622 118.7758 118.7758
   119.0961 119.0961 119.3423 119.5377 119.7675 119.7675 119.9483 120.5858
   121.3944 121.5597 121.5597 121.6209 121.6209 121.9429 121.9583 121.9583
   122.4699 122.4699 122.7745 122.8788 122.8788 123.0891 123.1907 123.1907
   123.4018 123.4018 123.6550 123.9444 123.9807 124.6477 124.7359 124.7359
   124.8293 124.8826 124.8826 124.9526 125.4446 125.4446 125.7256 125.8031
   125.8031 125.8693 125.9800 125.9800 126.4195 126.4195 126.4201 126.7626
   126.7626 126.9816 127.2278 127.2903 127.2903 127.3088 127.3088 127.7841
   127.9247 127.9247 128.0057 128.1087 128.1087 128.5416 128.5416 128.7633
   129.1060 129.9906 129.9906 130.0228 130.3183 130.3492 130.4970 130.4970
   130.5244 130.5895 130.5895 130.7524 130.8368 130.9937 130.9937 131.0557
   131.0557 131.2582 131.2582 131.3254 131.3254 131.5965 131.5965 131.6473
   131.7175 131.7357 131.7357 131.7638 131.8194 131.8194 131.8417 131.8739
   131.8739 131.9791 131.9930 132.0020 132.0033 132.0033 132.0305 132.0959
   132.0959 132.1631 132.1631 132.3058 132.3097 132.3097 132.3794 132.4450
   132.5063 132.5063 132.5132 132.6097 132.6097 132.7318 132.7318 132.7939
   132.8088 132.8094 132.8094 132.8259 132.9090 132.9090 132.9856 132.9856
   133.0272 133.2278 133.2278 133.2571 133.2803 133.3115 133.3115 133.5751
   133.5751 133.6442 133.6537 133.7151 133.7151 133.8682 134.1571 134.1571
   134.1990 134.1990 134.2866 134.3549 134.3549 134.3928 134.3992 134.4414
   134.5093 134.5093 134.6992 134.8227 134.8227 134.8699 134.9110 134.9110
   135.0127 135.0127 135.0700 135.0833 135.1545 135.1545 135.3309 135.3309
   135.5435 135.8649 136.1938 136.4606 136.4606 136.5968 136.5968 136.7530
   136.7530 136.8107 136.8453 136.8570 136.8794 136.8794 136.8861 137.2642
   137.4020 137.4020 137.4602 137.4602 137.5751 137.5751 137.5822 137.5822
   137.7022 137.7135 137.7507 137.7507 138.0344 138.0344 138.0983 138.2367
   138.2367 138.3150 138.8047 138.8047 138.8634 138.8634 139.1200 139.1200
   139.1444 139.4344 139.7022 139.7022 139.7771 139.7946 139.8223 139.8748
   139.8748 140.1970 140.2795 140.2795 140.2898 140.2898 140.3633 140.5617
   140.5617 140.7840 140.7840 140.8120 140.8120 140.9677 140.9880 140.9953
   140.9953 141.0335 141.3316 141.4174 141.4174 141.4858 141.4858 141.8245
   142.2794 142.2884 142.2985 142.2985 142.3998 142.4387 142.4387 142.4734
   142.5595 142.5595 142.9142 143.0127 143.0127 143.0500 143.1008 143.1008
   143.2471 143.3819 143.5868 143.5868 143.9202 144.0290 144.0290 144.0838
   144.0838 144.1530 144.1638 144.2960 144.4903 144.4903 144.6839 144.6839
   144.9077 144.9077 144.9181 144.9366 144.9366 145.0317 145.0395 145.1612
   145.1612 145.6528 146.1976 146.1976 146.3682 146.4770 146.6953 146.6953
   146.9741 147.4022 147.4022 147.4902 147.4902 147.5813 147.7297 147.9743
   148.0944 148.1411 148.3921 148.3921 148.5493 148.5493 148.6063 148.6549
   148.6549 148.7688 148.7688 148.9178 148.9178 149.1153 149.1153 149.2458
   149.2458 149.5116 149.5231 149.5317 149.5366 149.6196 149.6196 149.8245
   149.8245 149.9306 150.0257 150.0257 150.3642 150.3642 150.7438 150.7438
   150.7494 150.9385 151.0847 151.0847 151.0922 151.0922 151.1167 151.1167
   151.2776 151.5690 151.5712 151.8265 151.8265 151.9261 151.9261 151.9652
   151.9891 152.1554 152.1554 152.3134 152.3831 152.6062 152.7525 152.7525
   152.7849 152.7849 152.9719 153.1646 153.1646 153.1709 153.1709 153.5415
   153.7077 153.7077 153.9709 153.9831 153.9831 154.0155 154.5222 154.5222
   154.5574 154.5574 154.6881 154.7321 154.8631 154.8631 155.0244 155.2209
   155.2209 155.2773 155.5315 156.0869 156.0869 156.1250 156.3728 156.8770
   156.8770 157.2598 157.2598 157.4036 157.4435 157.6999 157.6999 158.4097
   158.4097 158.5862 158.6105 158.6920 158.9330 159.0850 159.0850 159.1615
   159.1615 159.4130 159.6498 159.6498 160.0821 160.0821 160.2587 160.2587
   160.2934 160.3362 160.3953 160.5073 160.5073 160.7093 160.7747 160.7747
   161.0153 161.0153 161.0184 161.2609 161.4827 161.4827 161.5069 161.5069
   161.6136 161.8049 161.8049 162.0002 162.0662 162.0662 162.2486 162.2486
   162.3756 162.4099 162.6124 162.6124 162.7013 162.7013 162.8506 162.8506
   163.0680 163.0714 163.0923 163.0923 163.5403 163.6360 163.6360 163.8231
   163.9747 164.2361 164.2361 164.4843 164.4843 164.5863 164.9224 165.2425
   165.2425 165.4744 165.5335 165.5371 165.5371 165.5764 165.7618 165.7618
   166.1793 166.1793 166.3086 166.3086 166.5941 166.6495 166.6866 166.7652
   166.7652 166.8249 166.9828 166.9828 167.2208 167.2919 167.2919 167.8790
   167.8790 167.8882 168.0187 168.0187 168.1944 168.2236 168.3637 168.3637
   168.3905 168.4400 168.4400 168.5402 168.6151 168.6151 168.7080 168.8557
   168.8557 168.9177 168.9177 168.9534 169.0009 169.1713 169.2223 169.2223
   169.2683 169.2683 169.3621 169.3621 169.4900 169.4918 169.4918 169.7046
   169.7330 170.0239 170.3449 170.4188 170.4188 170.6378 170.6378 170.6663
   170.6663 170.7004 170.8130 170.8130 170.8536 171.0665 171.1613 171.1613
   171.1822 171.2408 171.5318 171.5318 171.5838 171.5838 171.7298 171.7628
   171.7628 171.9338 171.9338 172.0090 172.2258 172.6489 172.8334 172.8334

          k = 0.0000 0.1443 0.0000 (  8390 PWs)   bands (ev):

   -61.9278 -36.0637 -35.9461 -35.9184 -15.0478 -14.1518  -6.2075  -3.7158
    -3.4625  -2.9929  -2.5415  -2.0383  -1.4326   1.2456   1.3053   1.6915
     2.0509   3.9808   4.1799   4.7637   5.5239   5.7526   6.5179   7.5190
     8.3845   8.4794   9.0668  10.1181  10.3560  10.5944  10.9188  11.4780
    12.1214  13.0357  13.9341  14.0152  14.4541  14.7990  15.7592  15.9381
    16.6506  17.4852  17.7029  17.9887  18.0070  18.4947  18.6477  19.1642
    19.2390  19.7408  19.9321  19.9524  19.9621  20.3345  20.4358  20.6827
    20.7453  21.0200  21.2516  21.4260  21.7216  21.8856  22.2145  22.2946
    22.5255  22.6037  22.7155  23.4982  23.6577  23.7364  23.9538  24.3346
    24.3662  24.7138  24.8135  25.0886  25.1160  25.2187  25.3658  25.5329
    25.5670  25.9254  26.2091  26.4136  26.4962  26.6767  26.7875  26.8188
    27.1483  27.2263  27.2942  27.4967  27.6767  27.7483  28.0401  28.1535
    28.4174  28.5443  28.6953  28.7494  29.2887  29.3289  29.7036  29.8334
    30.0992  30.5628  30.6413  30.8845  31.0586  31.3438  31.5317  31.6952
    32.2057  32.4490  32.6604  32.8035  32.8663  33.1381  33.2059  33.5034
    33.8294  34.1817  34.2487  34.4797  34.5632  35.0982  35.3206  35.5454
    35.7246  35.9941  36.4081  36.7417  36.7438  37.4609  37.6899  37.8635
    38.0580  38.1892  38.5813  38.6972  39.0187  39.0391  39.4547  39.6449
    39.6712  40.3288  40.4387  41.2326  41.4629  41.6940  41.7040  41.9443
    42.4793  42.6939  42.8478  43.1113  43.4786  43.5037  44.1442  44.1992
    44.4135  45.1191  45.1690  45.2814  45.7135  45.9285  46.0193  46.1988
    46.2947  46.7748  46.8293  47.1780  47.9115  47.9822  48.0266  48.0845
    48.3927  48.6833  49.2607  49.3194  49.7011  49.8041  49.9353  50.4536
    51.0131  51.1230  51.3594  51.4094  51.5958  51.9737  52.0711  52.1258
    52.3624  52.3949  52.5472  52.5966  52.6476  52.8260  53.1830  53.3073
    53.3873  53.4367  53.5177  53.7877  54.0520  54.1698  54.2328  54.5560
    54.9359  54.9818  54.9875  55.2171  55.6071  55.8215  55.9064  55.9424
    55.9437  56.1963  56.3637  56.7421  56.8844  57.2026  58.0012  58.0555
    58.1775  58.2447  58.4469  58.5223  58.6140  58.8190  58.8228  58.9358
    59.0184  59.2944  59.3324  59.3411  59.6140  59.6722  59.8508  59.8929
    59.9667  60.1690  60.2811  60.4972  60.5093  60.7500  60.8440  60.9406
    61.3176  61.4452  61.4608  61.5033  61.6066  61.8210  62.0981  62.1970
    62.2219  62.5003  62.5684  62.7255  62.9225  63.0541  63.5019  63.5455
    63.6793  63.9763  64.3353  64.4755  64.5540  64.7050  64.9412  65.0313
    65.0807  65.4398  65.6165  65.6209  65.7192  65.8359  65.9223  66.0586
    66.1021  66.2124  66.3428  66.5049  66.5240  66.6806  66.7993  66.8528
    67.1397  67.2011  67.3516  67.3902  67.6141  67.6348  67.7629  67.8766
    68.1537  68.2018  68.3661  68.5662  68.6244  68.6468  68.7056  68.9474
    69.1160  69.1170  69.1921  69.1974  69.4650  69.4731  69.8064  69.8149
    69.8213  69.8509  69.9890  70.1450  70.2190  70.2494  70.3737  71.0207
    71.0609  71.1933  71.3326  71.4255  71.5130  71.6102  71.6506  72.0056
    72.0894  72.2620  72.4557  72.5915  72.7213  72.8207  72.8279  72.9209
    72.9923  73.0951  73.4219  73.4598  73.4674  73.7532  73.8018  73.8827
    74.0371  74.2723  74.3459  74.3550  74.3676  74.6556  74.7261  74.8429
    75.1020  75.1109  75.1895  75.3236  75.4619  75.6910  75.7740  75.8545
    75.9195  76.1009  76.3346  76.4876  76.4918  76.7204  76.8259  76.9626
    77.0254  77.2087  77.2101  77.2578  77.6792  77.7113  77.7852  77.8924
    78.1006  78.3439  78.5329  78.6690  78.7089  78.9382  79.1784  79.1846
    79.3113  79.6300  79.6936  79.8919  80.1783  80.1794  80.3743  80.4736
    80.5884  80.9600  80.9695  81.0677  81.2172  81.2621  81.5839  81.6313
    81.7692  81.8299  81.9927  82.0593  82.1462  82.1693  82.2488  82.2497
    82.5472  82.5901  82.6656  82.7502  82.9198  83.0807  83.2193  83.2844
    83.2942  83.3120  83.5364  83.7555  83.8593  84.1563  84.2091  84.3874
    84.6250  84.7508  84.8280  84.8861  85.0251  85.2236  85.2978  85.4716
    85.5483  85.8045  86.0063  86.0206  86.0641  86.3710  86.3818  86.3984
    86.5776  86.6253  86.7145  86.8742  86.9179  87.1598  87.1823  87.2583
    87.4693  87.4735  87.4771  87.7397  87.7804  87.8882  87.9944  88.2088
    88.3763  88.4037  88.5259  88.8643  89.2003  89.3438  89.4879  89.6960
    89.7301  89.9689  89.9741  90.0686  90.0974  90.4131  90.4863  90.7102
    90.9107  90.9518  91.2413  91.4733  91.5898  91.8051  91.8348  91.9840
    92.2161  92.3297  92.4525  92.6891  92.7424  92.9062  92.9541  93.0410
    93.3842  93.4693  93.6859  93.7592  93.9121  94.1362  94.1415  94.3982
    94.4977  94.5135  94.5348  94.5722  94.8420  94.8574  94.9129  95.1872
    95.3385  95.4361  95.5001  95.7660  95.8324  96.2069  96.2538  96.5074
    96.6346  96.9565  97.3242  97.4591  97.6538  97.7725  98.0805  98.1135
    98.2063  98.3950  98.4704  98.8798  99.1344  99.1809  99.1974  99.6150
    99.8290  99.8415  99.9262  99.9581 100.0050 100.2591 100.2986 100.3205
   100.4649 100.5948 100.6766 100.8530 100.9207 101.1730 101.2713 101.6751
   101.7443 101.7604 101.9249 102.1329 102.5651 102.7564 103.0712 103.4431
   103.4777 103.5259 103.6062 103.8265 103.9225 104.0671 104.0703 104.2470
   104.5125 104.9712 105.2226 105.4949 105.6151 105.6848 105.8409 105.9574
   106.2540 106.3478 106.4915 106.7981 106.8475 106.9282 107.1717 107.3882
   107.5358 107.5762 107.6947 107.7054 108.0237 108.0919 108.2013 108.2994
   108.4630 108.7344 108.7351 108.8159 108.8695 109.0842 109.2182 109.3085
   109.3092 109.3112 109.7700 109.8672 110.0406 110.2346 110.3834 110.6491
   110.9609 111.0586 111.3161 111.3795 111.9341 112.2375 112.2887 112.4311
   112.5709 112.7556 112.8259 112.9491 113.4234 113.4641 113.4826 113.5625
   113.8685 113.9121 114.1761 114.2020 114.5182 114.5690 114.5815 114.7646
   114.8604 115.0071 115.0514 115.4728 115.4784 115.7539 115.7663 115.8697
   116.0433 116.0737 116.1288 116.3322 116.5584 116.6523 116.9080 117.1222
   117.3055 117.4363 117.5040 117.7096 117.8220 117.8376 117.9760 118.1270
   118.1666 118.4654 119.0661 119.0761 119.2196 119.2305 119.4239 119.7095
   119.8337 119.8411 120.1750 120.2421 120.3092 120.4655 120.4873 120.7114
   120.7919 120.8991 121.0616 121.1120 121.1419 121.2563 121.3754 121.4073
   121.4220 121.5697 121.6082 121.7482 121.8230 121.9840 122.0641 122.1093
   122.3560 122.3797 122.5738 122.5762 122.5954 122.6123 122.7529 122.9392
   122.9496 123.0638 123.0839 123.1112 123.1956 123.3425 123.3903 123.4405
   123.6344 123.6900 123.8919 123.9125 124.0156 124.1202 124.1408 124.2203
   124.3601 124.4559 124.6469 124.8589 124.9694 125.0160 125.2121 125.2294
   125.2820 125.3065 125.4743 125.5776 125.9706 125.9770 126.0761 126.0830
   126.1731 126.2902 126.4197 126.4576 126.5709 126.6433 126.6850 126.7270
   126.9785 127.1982 127.2921 127.6552 127.7141 127.9986 128.0235 128.1105
   128.2865 128.3689 128.5307 128.7322 128.7452 128.7980 129.0262 129.0849
   129.1076 129.3050 129.3724 129.5284 129.5791 129.6148 129.7344 129.7780
   129.8037 129.8910 129.9400 129.9976 130.2185 130.2828 130.4108 130.4548
   130.6133 130.7300 130.7605 130.8321 130.8690 130.9824 131.0376 131.2233
   131.4425 131.4867 131.5160 131.5186 131.7682 131.8483 131.9009 131.9852
   132.1300 132.2502 132.2569 132.3593 132.5261 132.6338 132.6362 132.6960
   132.7392 132.8525 132.9140 132.9365 133.0660 133.2627 133.3306 133.4910
   133.5075 133.7008 133.8320 134.0127 134.0628 134.2388 134.2814 134.3704
   134.5334 134.5352 134.5674 134.6469 134.6895 134.7737 134.9142 134.9813
   135.0522 135.2473 135.3303 135.4221 135.5240 135.6268 135.7358 135.7538
   135.8410 135.8894 136.0447 136.1167 136.2461 136.2538 136.3333 136.4625
   136.4767 136.5912 136.8168 136.9352 137.0625 137.1267 137.2545 137.2665
   137.2795 137.4182 137.6076 137.6468 137.7546 137.9266 138.0161 138.0364
   138.1485 138.1521 138.3408 138.3580 138.5246 138.6600 138.7599 138.9043
   139.0446 139.2397 139.3829 139.3854 139.4793 139.6076 139.6214 139.9549
   139.9632 139.9955 140.1361 140.2262 140.2430 140.2738 140.4141 140.5623
   140.5771 140.8190 140.8589 140.9324 141.0435 141.0866 141.1168 141.3198
   141.4088 141.4657 141.5538 141.6024 141.6946 141.7041 142.0744 142.0815
   142.1791 142.1849 142.2041 142.2263 142.2267 142.3452 142.3972 142.4853
   142.5643 142.5668 142.6796 142.7575 142.8648 142.9581 143.0140 143.1370
   143.1673 143.2062 143.4185 143.4557 143.5524 143.6631 143.7134 143.8042
   143.8480 143.8569 143.9780 144.0247 144.0873 144.1012 144.2407 144.3337
   144.5129 144.5480 144.7133 144.7214 144.8169 144.8632 144.9257 145.2048
   145.3473 145.4312 145.4674 145.4982 145.6577 145.7622 145.8091 145.9500
   145.9622 146.0594 146.0892 146.1602 146.2375 146.3073 146.3549 146.3813
   146.6193 146.7339 146.7758 146.7916 146.8922 146.9509 146.9517 147.0438
   147.0999 147.3135 147.5115 147.5857 147.6276 147.7606 148.0419 148.1858
   148.2004 148.2922 148.3159 148.3330 148.5499 148.5670 148.6893 148.7044
   148.7529 148.7590 148.8018 149.2778 149.2863 149.2924 149.4571 149.5949
   149.6158 149.7428 149.9700 150.0178 150.0915 150.2111 150.3074 150.4655
   150.7408 150.7588 150.8435 150.9867 151.1945 151.4216 151.4831 151.5292
   151.5995 151.6708 151.7190 151.7482 151.8583 152.0222 152.0974 152.2140
   152.2738 152.3192 152.3988 152.5720 152.6338 152.6554 152.8220 153.0052
   153.0863 153.1069 153.1958 153.2782 153.5129 153.5544 153.7712 153.8686
   153.9845 154.0675 154.2135 154.5553 154.5952 154.6177 154.6913 154.7955
   154.9285 155.0335 155.0800 155.0957 155.3108 155.4703 155.4855 155.6127
   155.6881 155.7434 155.7783 155.8641 155.9910 156.0296 156.1352 156.1472
   156.2253 156.4098 156.4109 156.5276 156.6485 156.8344 156.9225 156.9279
   156.9279 157.1802 157.2166 157.2235 157.2285 157.4709 157.5437 157.6514
   157.6583 157.7166 157.7433 157.9076 158.0890 158.1018 158.1215 158.3549
   158.4242 158.5384 158.6355 158.7891 158.8241 159.2721 159.2836 159.3515
   159.3675 159.4680 159.6780 159.8541 160.0054 160.0737 160.1008 160.2201
   160.2814 160.3816 160.5054 160.5205 160.5798 160.7461 160.7954 160.9107
   160.9167 160.9958 161.1483 161.1652 161.3983 161.4066 161.4694 161.5173
   161.8316 161.8749 161.9478 162.1771 162.1881 162.2555 162.4008 162.4969
   162.5441 162.5638 162.7661 162.9549 162.9616 163.0969 163.1350 163.1765
   163.3002 163.4036 163.4113 163.5911 163.6031 163.7159 163.7499 163.7838
   163.9538 164.0519 164.1486 164.2937 164.3478 164.3691 164.5240 164.5447
   164.6695 164.8562 164.8823 164.9116 164.9789 165.2140 165.3143 165.4611
   165.5991 165.6896 165.7897 165.8714 165.8730 166.0181 166.0685 166.2397
   166.3200 166.4950 166.6951 166.7476 166.7551 166.8850 166.9475 167.1061
   167.2250 167.2487 167.3262 167.3923 167.6663 167.7220 167.7496 167.8509
   167.9752 168.0219 168.2874 168.3377 168.3641 168.5800 168.7221 168.8991
   168.9225 169.2153 169.2788 169.3073 169.4057 169.5422 169.5453 169.6278
   169.8608 169.9594 170.0652 170.0785 170.1828 170.5681 170.5774 170.6594
   170.7852 170.8147 170.8385 170.9238 170.9968 171.2411 171.2852 171.4073
   171.6037 171.6145 171.6480 171.7449 171.8179 171.8414 171.8725 172.0581
   172.3782 172.4201 172.5836 172.6107 173.0450 173.1615 173.2495 173.2550

          k = 0.0000 0.2887 0.0000 (  8430 PWs)   bands (ev):

   -61.9201 -36.0457 -36.0320 -35.9383 -14.5010 -13.8530  -5.7192  -4.7121
    -4.3989  -3.1560  -2.4717  -2.4210  -1.8649   0.7375   1.1521   1.4321
     2.5363   4.7389   4.9921   5.5926   6.3239   6.5992   7.2980   7.6603
     7.9315   8.3513   9.3030  10.2939  10.9849  11.3394  11.5394  11.7629
    12.4387  12.9802  13.4443  13.5077  14.1681  14.2633  14.7838  14.8611
    15.5262  15.6397  16.2322  16.4409  16.8673  18.0257  18.0974  18.1005
    18.3981  18.5366  18.7656  18.9632  19.1820  19.2059  19.2668  19.9244
    20.0339  20.1587  20.2666  20.4264  20.7037  21.2280  21.2691  21.8846
    21.8909  21.9654  22.7217  22.7840  22.9172  23.0118  23.4742  23.6482
    24.0708  24.4174  24.5986  24.8261  25.7903  25.9419  26.0137  26.9427
    27.2693  27.3857  27.4267  27.6149  27.8600  27.9162  28.0388  28.2107
    28.4097  28.4468  28.6529  28.7134  28.8764  29.0866  29.2876  29.4461
    29.5559  29.9412  30.0065  30.0267  30.1665  31.0981  31.1847  31.4740
    31.5003  31.7540  31.8842  31.9510  32.1359  32.2394  32.6413  32.7597
    33.0088  33.0730  33.5052  33.5683  33.8013  33.8177  34.1208  34.4157
    34.5088  34.5680  35.0614  35.6008  35.7314  36.1523  36.3460  36.6569
    36.8202  36.8900  36.9901  37.7464  37.7578  37.9608  38.0793  38.1771
    38.4521  38.9350  39.3093  39.5538  39.8098  39.9556  40.0005  40.0956
    40.5062  41.1115  41.3325  41.3711  41.5539  41.8190  41.9685  42.1736
    42.4045  42.5244  42.8483  43.0163  43.3715  43.6761  43.8555  44.0481
    44.0703  44.8009  45.0301  45.3720  45.4285  45.5487  45.9486  46.1838
    46.3225  46.3584  46.4514  46.5544  46.7018  46.7291  46.9388  47.1705
    47.1727  47.2737  47.4077  47.7424  47.8093  47.8557  48.1499  48.5221
    48.6017  48.7032  49.0936  49.3898  49.4921  49.7251  49.8989  50.2597
    50.2791  50.6144  50.6926  50.9187  50.9942  51.4897  51.6258  51.9935
    52.3955  52.6269  52.6470  52.6879  52.7676  52.8612  53.2634  53.4495
    53.8309  53.8789  53.9970  54.3598  54.5051  54.5884  54.6603  54.8554
    55.2769  55.3876  55.7554  55.7809  55.9424  56.0406  56.0548  56.1629
    56.7805  56.9795  57.0710  57.3918  57.4505  57.6326  57.7708  58.4892
    58.9006  58.9906  59.1842  59.2057  59.4387  59.6326  59.7602  59.8751
    59.9445  60.0194  60.1996  60.2075  60.2410  60.3152  60.4041  60.6029
    60.8127  60.9215  60.9740  61.1013  61.2274  61.2892  61.7467  61.7708
    61.7999  61.8591  62.0226  62.0309  62.3811  62.5123  62.7320  62.9051
    62.9909  63.0898  63.1325  63.4637  63.5541  63.7063  63.9492  63.9912
    64.3885  64.5027  64.5317  64.5515  64.8516  64.9125  65.2709  65.3525
    65.6427  65.8434  65.9973  66.3564  66.4357  66.4839  66.5418  66.8632
    66.9065  66.9703  67.5741  67.8067  67.8964  68.0505  68.1644  68.2533
    68.4070  68.5423  68.7687  68.9211  69.0672  69.0952  69.1306  69.1462
    69.3176  69.3268  69.3729  69.4696  69.4704  69.8495  69.9137  69.9870
    70.0445  70.0486  70.1445  70.5502  70.5856  70.6645  70.8820  70.9889
    71.2844  71.4048  71.4401  71.5944  71.8191  71.9356  71.9535  72.1546
    72.2938  72.4080  72.6899  72.7723  72.7845  72.9831  73.2504  73.3625
    73.5283  73.5944  73.6325  73.8350  73.9131  73.9844  74.2133  74.2135
    74.3375  74.5041  74.5277  74.6676  74.7258  74.7612  74.8835  75.0317
    75.0942  75.3063  75.4777  75.5541  75.5614  75.7054  75.9702  76.1763
    76.2662  76.2954  76.6008  76.6845  76.7073  76.9064  76.9856  77.1619
    77.2383  77.4020  77.4864  77.5339  77.6550  78.0549  78.0750  78.1000
    78.4340  78.5211  78.6341  79.1222  79.2091  79.3382  79.4431  79.5578
    79.6866  79.8156  79.9390  80.1276  80.2127  80.2634  80.8587  80.9003
    81.0519  81.3472  81.4181  81.4803  81.5264  81.6722  82.1232  82.1542
    82.1654  82.2012  82.5690  82.5907  82.7251  82.9815  83.0932  83.4567
    83.5372  83.6674  83.9303  83.9315  83.9688  83.9969  84.5270  84.7278
    84.8644  84.9793  85.1968  85.3565  85.7694  85.8091  86.0348  86.1427
    86.1569  86.2041  86.5522  86.7269  86.8440  86.9449  87.0912  87.2299
    87.2588  87.2863  87.5269  87.5663  87.5974  87.6980  87.7842  87.9614
    88.0428  88.1512  88.1884  88.2150  88.3221  88.5903  88.6061  88.6345
    88.7824  89.0000  89.1111  89.1770  89.4461  89.5066  89.5239  90.0553
    90.0606  90.0620  90.3896  90.5159  90.5905  90.7318  90.8348  90.8532
    91.0496  91.5099  91.6887  91.7822  91.8298  92.0406  92.0515  92.1892
    92.4242  92.5239  92.6889  92.7916  93.0102  93.1086  93.3701  93.4269
    93.4272  93.5330  93.6821  94.1092  94.2251  94.2373  94.3577  94.5001
    94.5998  94.8539  94.8961  94.9933  95.0168  95.2321  95.4116  95.7333
    95.7334  96.0523  96.0893  96.0937  96.3685  96.3717  96.3979  96.6231
    96.6497  96.8055  96.9966  97.3341  97.3383  97.4583  97.4999  97.5222
    97.6576  97.8407  97.9067  98.0738  98.1973  98.4933  98.8343  98.8602
    99.1951  99.2194  99.3099  99.7285  99.8821  99.8987  99.9094 100.2426
   100.4092 100.4417 100.7203 100.7772 100.8501 101.1222 101.1957 101.1999
   101.3316 101.5788 101.6286 101.9572 101.9745 102.1975 102.2468 102.3686
   102.4692 102.5498 102.6733 102.7299 102.7447 102.8938 103.0963 103.1928
   103.2465 103.3853 103.7684 103.8219 103.8319 103.9062 104.0581 104.4673
   104.6468 104.7598 105.0373 105.0829 105.2020 105.5655 105.9259 106.1192
   106.3875 106.5498 106.8766 107.0082 107.0225 107.0608 107.2809 107.5503
   107.6172 107.6470 107.7411 107.7987 108.0500 108.3350 108.4509 108.5456
   108.6752 108.9117 109.0598 109.2203 109.2834 109.4444 109.5291 109.6547
   109.8212 109.8594 109.8905 110.1740 110.1853 110.1885 110.2095 110.4046
   110.5093 110.5967 110.6757 110.8386 110.9234 111.0507 111.0671 111.0769
   111.1726 111.3701 111.3752 111.5995 111.6235 111.9113 111.9958 112.1508
   112.2028 112.6251 112.6998 112.8909 112.9662 113.0131 113.2245 113.2887
   113.3011 113.5320 113.6847 113.9856 114.0053 114.2548 114.2964 114.3378
   114.3680 114.4420 114.7218 114.7237 114.7525 115.0353 115.0573 115.0968
   115.1973 115.2315 115.3860 115.5017 115.5161 115.6911 115.7588 115.8509
   115.9003 115.9930 116.0530 116.0730 116.1107 116.2171 116.3930 116.4906
   116.6599 116.8837 116.9724 117.0167 117.1111 117.3710 117.4597 117.5937
   117.6470 117.8328 117.9653 118.1312 118.2750 118.4109 118.4500 118.4980
   118.5033 118.8470 118.9485 119.0597 119.2432 119.3003 119.5635 119.7664
   119.8373 119.9119 119.9477 119.9923 120.1175 120.2533 120.2801 120.4042
   120.6380 120.7237 120.8793 121.0511 121.1505 121.3372 121.5194 121.5837
   121.8026 121.8172 122.1409 122.1712 122.1903 122.2646 122.4035 122.4131
   122.4519 122.6196 122.6453 122.8857 122.9998 123.3401 123.3424 123.4068
   123.4904 123.6510 123.7742 123.8061 123.8888 124.0333 124.1216 124.3283
   124.4490 124.4864 124.7107 124.7579 124.9884 125.1420 125.2603 125.3055
   125.4631 125.8079 125.8105 125.9607 126.1351 126.1519 126.2203 126.4278
   126.6037 126.7015 126.7617 127.0368 127.0589 127.3960 127.5180 127.6308
   127.6649 127.6766 127.8579 128.0203 128.1032 128.2381 128.2807 128.3952
   128.4732 128.4842 128.7270 128.7512 128.9256 129.0318 129.0994 129.1437
   129.1602 129.3078 129.3578 129.4078 129.6770 129.7489 129.7910 129.9016
   130.0227 130.1131 130.4373 130.7431 130.7474 130.7942 130.8065 131.1735
   131.2005 131.2456 131.4869 131.4921 131.5048 131.6372 131.7478 131.7800
   131.9515 131.9583 132.0868 132.2452 132.3931 132.3964 132.7430 132.7916
   132.8767 133.0394 133.0582 133.1198 133.2940 133.4113 133.6155 133.7191
   133.7646 133.8217 134.0381 134.0385 134.2108 134.4665 134.4761 134.6768
   134.8209 135.0387 135.0758 135.0984 135.2753 135.3086 135.3561 135.3998
   135.5265 135.5673 135.7449 135.9039 135.9178 136.2071 136.2993 136.4868
   136.5945 136.6453 136.6841 136.9321 136.9356 137.0633 137.1164 137.1750
   137.3364 137.4213 137.5057 137.6456 137.6593 137.6603 137.7837 137.8131
   137.9660 138.0644 138.2277 138.2536 138.2665 138.3223 138.5339 138.5648
   138.6104 138.6815 138.7936 138.9792 139.0441 139.2906 139.3052 139.3730
   139.7223 139.7842 139.8308 139.9607 140.2144 140.2873 140.2886 140.4939
   140.5472 140.7388 140.8625 141.1107 141.1865 141.2206 141.3867 141.4522
   141.6482 141.6749 141.7403 141.7932 141.8819 142.1326 142.1792 142.2166
   142.3114 142.4549 142.5987 142.6940 142.7238 142.7791 142.8992 143.0364
   143.0695 143.1008 143.1036 143.2088 143.2899 143.4293 143.4323 143.6686
   143.7222 143.8633 143.9014 143.9319 143.9368 144.2037 144.2044 144.2751
   144.3356 144.3981 144.5929 144.6345 144.8250 144.8934 145.0194 145.1002
   145.1953 145.3357 145.3714 145.6172 145.6744 145.8688 146.0972 146.2730
   146.2847 146.4440 146.5712 146.7513 146.7916 146.8400 146.8520 146.9544
   146.9834 147.1447 147.2709 147.3981 147.4352 147.4761 147.5135 147.5563
   147.8682 147.9859 148.3881 148.6422 148.7868 149.0050 149.0300 149.1401
   149.2267 149.5256 149.5304 149.6678 149.7582 149.9554 150.1347 150.2574
   150.3304 150.3538 150.4237 150.4671 150.6727 150.7013 150.7916 150.8632
   151.0482 151.1771 151.2439 151.2453 151.3614 151.4903 151.5044 151.5869
   151.7229 151.7984 151.9298 152.0028 152.0627 152.1119 152.1743 152.2197
   152.2686 152.3949 152.5622 152.6291 152.7321 152.9090 153.1534 153.2809
   153.3482 153.3832 153.4142 153.5662 153.6020 153.6071 153.7230 153.9991
   154.0559 154.0667 154.1953 154.2299 154.3490 154.4109 154.4495 154.5141
   154.5397 154.7096 154.8223 154.9281 154.9807 155.1674 155.1925 155.2895
   155.3465 155.5355 155.5765 155.6120 155.6426 155.7613 155.8168 155.8711
   155.8780 155.8941 155.9607 156.0101 156.0413 156.0591 156.1662 156.2706
   156.3306 156.3537 156.3965 156.5637 156.6625 156.6764 156.7500 156.7528
   156.8669 156.8849 156.8969 156.9236 157.0495 157.0617 157.1436 157.5375
   157.6313 157.9987 158.0005 158.0105 158.0240 158.1791 158.2651 158.2701
   158.3610 158.4331 158.5039 158.5389 158.6176 158.6425 158.8508 158.8777
   158.9175 158.9565 159.0439 159.1586 159.2154 159.3684 159.4933 159.5074
   159.7015 159.7568 159.7877 159.8195 159.9019 160.0908 160.1526 160.2877
   160.3078 160.3505 160.5541 160.6158 160.8339 160.9691 161.0443 161.0514
   161.1990 161.2707 161.2959 161.3591 161.4876 161.5111 161.5609 161.7210
   161.7857 161.7872 161.8441 162.3145 162.5364 162.6616 162.7548 162.7802
   162.8025 163.1301 163.1617 163.1905 163.2494 163.2608 163.3786 163.4063
   163.4802 163.6674 163.6738 163.7835 163.9686 164.0107 164.0940 164.1805
   164.2157 164.3883 164.4018 164.5392 164.5408 164.6059 164.6117 164.6596
   164.9289 164.9557 165.0013 165.2452 165.3948 165.4073 165.5500 165.7992
   165.8788 165.9468 166.1411 166.2315 166.2793 166.3472 166.3904 166.5679
   166.6239 166.7145 167.1096 167.3140 167.3348 167.5617 167.5829 167.6803
   167.7015 167.7461 167.7608 168.0935 168.1621 168.2207 168.3038 168.5524
   168.6007 168.6269 168.7415 168.8810 168.8927 168.9322 169.1035 169.1646
   169.3178 169.3732 169.4773 169.5297 169.6652 169.7116 169.9296 170.0726
   170.0968 170.2505 170.3727 170.4027 170.4764 170.5496 170.6641 170.9452
   171.1778 171.3120 171.5085 171.5125 171.6755 171.8453 171.9002 172.0380
   172.0540 172.1435 172.1532 172.3120 172.3725 172.5321 172.5342 172.6276
   172.6559 172.7671 172.7744 172.9363 172.9712 172.9944 173.1053 173.2620

          k = 0.0000 0.4330 0.0000 (  8452 PWs)   bands (ev):

   -61.9124 -36.1167 -36.0276 -35.9581 -13.8450 -13.5039  -6.2264  -5.3682
    -4.8806  -3.6417  -2.8421  -2.0247  -1.9422   0.8373   0.9587   2.1156
     2.8278   5.3329   5.8175   6.0280   6.7611   6.8768   7.5090   7.6156
     8.5724   8.7728   9.7899   9.9731  10.5779  10.8407  11.3866  11.4941
    11.8269  12.2497  12.7918  13.0725  13.8790  14.0363  14.3329  14.4154
    15.2789  15.5701  15.9509  15.9788  16.3792  16.6740  17.1025  17.2095
    17.8011  17.9151  18.3327  18.3840  18.4259  18.5725  18.7268  19.3593
    19.5814  19.6410  19.6727  19.9721  20.2150  21.1092  21.1397  21.2071
    21.5662  22.0573  22.1500  23.1161  23.3094  23.6053  23.8395  23.8525
    24.2245  24.4434  24.4851  24.6583  24.8287  25.0873  25.4160  26.3640
    26.4316  26.4336  26.8780  27.0676  27.5101  27.9407  28.3136  28.5374
    28.7545  28.9497  29.4739  30.2430  30.3539  30.6035  30.7192  30.9843
    31.2578  31.5805  31.8340  31.9985  32.0361  32.0972  32.3165  32.6951
    32.9069  32.9076  32.9838  33.5232  33.8272  34.0171  34.2687  34.3666
    34.4841  34.6159  34.9891  35.2172  35.4481  35.5036  35.7217  36.1407
    36.3374  36.3426  36.7374  36.9332  37.2294  37.2554  37.4722  37.9457
    38.0711  38.3374  38.5210  38.8009  39.1637  39.2511  39.3241  39.3429
    39.5392  39.9468  40.2012  40.2800  40.2991  40.5508  40.7615  40.8254
    40.9133  41.0343  41.0712  41.3093  41.3707  41.3771  41.5981  41.6552
    41.7852  42.0479  42.1203  42.2321  42.4305  42.6875  42.7483  42.9392
    43.0731  43.0916  43.4664  43.8019  43.8235  44.0565  44.0679  44.3435
    44.9368  44.9694  45.0945  45.1821  45.5294  45.9197  45.9910  46.2415
    46.3858  46.5970  46.7222  46.7310  47.0086  47.0646  47.2556  47.5295
    48.0171  48.2508  48.4915  48.7118  48.9345  49.0218  49.1164  49.3103
    49.4213  49.4389  49.6592  50.3571  50.5522  50.7268  50.9294  51.2010
    51.2887  51.3498  51.7634  51.8510  52.1297  52.4052  52.4497  52.5626
    52.6624  52.6634  52.9005  52.9376  53.2409  53.3741  53.6303  53.8807
    53.8967  53.9776  54.2928  54.3537  54.7899  54.8922  55.0156  55.0665
    55.4897  55.6500  55.7256  55.9545  56.0618  56.2349  56.8999  57.2236
    57.3618  57.7188  57.8711  57.9153  58.3867  58.4523  58.7848  58.7916
    58.9194  59.2768  59.2934  59.5000  59.7597  60.1056  60.2411  60.2938
    60.5559  60.6665  60.8461  60.9058  61.0802  61.2266  61.2581  61.3970
    61.5745  61.8520  61.8807  62.0871  62.1531  62.4575  62.4859  62.6614
    62.8372  62.8581  62.9824  63.1612  63.2798  63.3446  63.5972  63.7916
    63.8093  64.1693  64.2329  64.4196  64.7409  64.7489  64.8862  65.1011
    65.2959  65.2980  65.6622  65.7127  65.7549  65.8729  66.1610  66.1949
    66.1973  66.2126  66.4125  66.4173  66.7572  66.8687  66.9223  66.9713
    67.0321  67.2089  67.2646  67.3009  67.4775  67.6185  67.7532  68.0485
    68.3901  68.4330  68.7618  68.8361  68.8412  68.8526  69.1064  69.2199
    69.4149  69.5907  69.6339  69.8762  70.0343  70.1781  70.4728  70.5611
    70.8122  71.0497  71.0649  71.2648  71.6064  71.6739  71.7013  72.0784
    72.1871  72.3985  72.4680  72.6305  72.7292  72.8598  73.4009  73.4111
    73.5203  73.7589  74.0105  74.0779  74.1311  74.4749  74.5992  74.7256
    74.8866  74.9305  75.0679  75.0928  75.3636  75.3990  75.5001  75.5263
    76.0569  76.2548  76.3820  76.5542  76.8358  77.0317  77.0377  77.4242
    77.4950  77.6226  77.7008  77.8445  78.2396  78.4482  78.5381  78.8772
    79.0149  79.1399  79.5434  79.6765  79.7310  79.9181  80.1043  80.2024
    80.5157  80.6861  80.6985  80.8859  80.9887  81.0773  81.2160  81.3933
    81.5444  81.5788  81.6377  81.8104  81.8195  81.9439  82.1231  82.1526
    82.3193  82.5701  82.6236  82.8830  82.9555  82.9869  83.1483  83.2902
    83.3923  83.4896  83.6126  83.6689  83.9636  84.0305  84.1403  84.1920
    84.5550  84.6689  84.7448  84.8877  84.9605  85.2875  85.3455  85.6395
    85.7610  85.9967  86.0269  86.1234  86.7458  87.0311  87.0996  87.1082
    87.1084  87.4662  87.5589  87.6446  87.7793  87.9908  87.9913  88.1537
    88.3654  88.4937  88.5551  88.5805  88.6807  88.9457  89.1142  89.2942
    89.4540  89.4639  89.6436  89.7445  89.8148  90.1119  90.2646  90.4821
    90.6308  90.8053  90.8708  90.8965  91.1705  91.1729  91.3238  91.5077
    91.7756  91.9445  92.2933  92.3052  92.4029  92.6297  92.8380  92.9192
    92.9866  93.0550  93.4233  93.4318  93.4630  93.5276  93.7517  93.8174
    93.8646  93.9242  94.0667  94.2916  94.3053  94.5418  94.5858  94.6494
    94.8083  94.8389  94.8768  95.0744  95.1169  95.1718  95.4375  95.6024
    95.6532  95.8077  96.0643  96.1677  96.3243  96.5165  96.5267  96.6532
    96.6559  96.7296  96.8360  97.1113  97.1519  97.3675  97.4449  97.8335
    97.9896  98.0577  98.2242  98.4613  98.5540  98.7505  98.9920  99.1073
    99.1818  99.4141  99.4756  99.4902  99.5493  99.7263  99.9074  99.9779
    99.9892 100.1036 100.1525 100.3473 100.5323 100.5701 100.6609 100.8503
   101.0318 101.0548 101.1767 101.2280 101.2826 101.4097 101.5975 101.7610
   101.8791 101.9340 102.1017 102.2772 102.3117 102.4188 102.4733 102.6636
   102.7846 102.8138 102.9159 102.9507 102.9801 103.1596 103.2633 103.2828
   103.6962 103.7643 103.9732 104.2274 104.4218 104.5335 104.5415 104.7130
   104.8335 105.0896 105.1577 105.2924 105.3395 105.3939 105.4811 105.5022
   105.5758 105.7575 105.8512 105.9676 106.0620 106.1252 106.3295 106.4159
   106.5040 106.5364 106.7339 106.8461 106.8613 106.8634 106.9755 107.0254
   107.0916 107.2121 107.2664 107.3355 107.5197 107.6092 107.6225 107.8166
   108.0117 108.0383 108.1451 108.1752 108.1827 108.1965 108.7184 108.7301
   108.8991 108.9243 109.0290 109.2193 109.2293 109.2330 109.4921 109.5058
   109.7853 109.8452 109.9459 110.0309 110.0467 110.0951 110.2130 110.2154
   110.4049 110.4152 110.8022 110.8339 110.8723 110.9843 111.0873 111.1065
   111.4285 111.6217 111.8334 111.8646 112.0182 112.1217 112.2562 112.2665
   112.2702 112.4970 112.5644 112.6371 112.8826 112.9637 113.0448 113.0566
   113.4714 113.5493 113.6692 113.6963 113.8702 114.1715 114.2737 114.4702
   114.5007 114.7151 114.9155 114.9384 115.0241 115.1298 115.2731 115.3754
   115.6318 115.7096 115.7456 115.8084 115.9589 115.9946 116.0312 116.1104
   116.2181 116.3814 116.3876 116.4807 116.4999 116.6447 116.9175 117.0592
   117.1543 117.3029 117.3631 117.3644 117.5660 117.6376 117.7578 117.9150
   118.1096 118.3035 118.5880 118.7283 118.7502 119.3375 119.4292 119.4622
   119.5990 119.6509 119.8077 120.0844 120.2662 120.6621 120.6641 120.7249
   121.0056 121.0389 121.2156 121.3292 121.7649 121.7897 121.8466 121.9274
   122.0360 122.1175 122.1509 122.2063 122.5416 122.6079 122.8112 122.8611
   122.8832 122.9715 123.2006 123.3972 123.5419 123.5786 123.5946 123.7679
   123.9047 123.9126 123.9540 124.1241 124.1416 124.2234 124.4362 124.5524
   124.5672 124.7378 125.0411 125.1020 125.1510 125.4768 125.6668 125.6892
   125.7309 125.9352 126.2083 126.2954 126.3933 126.4086 126.7256 126.8895
   126.9350 127.0109 127.1085 127.1771 127.1863 127.4831 127.5205 127.5931
   127.7599 127.8173 127.8173 127.8208 128.0187 128.0694 128.1429 128.3084
   128.4344 128.4381 128.6646 128.7504 128.9490 128.9733 129.0623 129.1836
   129.4259 129.6245 129.6320 129.7938 129.8252 129.8495 129.8502 129.9829
   130.1824 130.1923 130.3250 130.3445 130.5191 130.5986 130.6750 130.6993
   131.0171 131.0524 131.2504 131.2788 131.5471 131.6607 131.8432 132.0698
   132.1666 132.1993 132.3420 132.3527 132.4568 132.4991 132.7503 132.8938
   133.0372 133.1879 133.2195 133.3024 133.3274 133.4347 133.5130 133.6627
   133.8641 133.9187 133.9635 134.1111 134.3175 134.4337 134.4392 134.4828
   134.8405 134.8696 134.9239 134.9803 135.0976 135.1531 135.2432 135.2748
   135.3422 135.4975 135.5623 135.5688 135.6117 135.9546 136.0263 136.1395
   136.2243 136.3942 136.4263 136.4621 136.5254 136.5846 136.7271 136.7657
   136.7995 136.9967 137.4276 137.4292 137.6550 137.8257 138.0690 138.1478
   138.1643 138.2605 138.6199 138.6955 138.9098 138.9119 139.0551 139.0975
   139.1026 139.1902 139.5785 139.6473 139.7074 140.0806 140.2367 140.3088
   140.3490 140.3899 140.5906 140.6224 140.6417 140.8525 140.9317 140.9757
   141.1596 141.2662 141.3383 141.4340 141.5318 141.5516 141.6732 141.9077
   142.1440 142.1456 142.1970 142.2668 142.3085 142.3203 142.5225 142.5543
   142.7984 142.9192 143.2071 143.3422 143.3583 143.4130 143.7010 143.7841
   143.8536 143.9642 144.0202 144.0971 144.1725 144.3822 144.4310 144.5490
   144.7571 144.7781 144.8362 144.9007 145.2151 145.3286 145.3304 145.5401
   145.5597 145.7174 145.8205 145.8210 145.8238 145.9640 146.1185 146.1234
   146.3762 146.5249 146.5980 146.6442 146.7980 146.8074 147.0510 147.0670
   147.2678 147.4083 147.4409 147.5174 147.6711 147.8171 147.9194 148.0302
   148.1603 148.2017 148.2517 148.3627 148.4184 148.5978 148.6128 148.8213
   148.8408 149.0116 149.0728 149.1488 149.2134 149.4709 149.4745 149.5348
   149.5969 149.8381 150.0016 150.1067 150.1311 150.1376 150.3927 150.3961
   150.4573 150.5511 150.5567 150.5832 150.6150 150.7283 151.0357 151.0934
   151.1429 151.3134 151.3922 151.3945 151.5087 151.6807 152.1302 152.2619
   152.5709 152.7106 152.7198 152.7867 152.8409 152.8897 153.2465 153.2556
   153.3468 153.3945 153.6342 153.7389 153.7851 153.8191 153.8965 154.0247
   154.0798 154.1625 154.2160 154.3653 154.4314 154.7111 154.7914 154.9395
   155.0192 155.0194 155.1875 155.4127 155.4417 155.4639 155.7138 155.8872
   155.9582 155.9997 156.0003 156.1805 156.2325 156.3453 156.3702 156.5707
   156.7067 156.7583 156.8903 156.9028 157.0212 157.2313 157.2481 157.3349
   157.4525 157.4657 157.4846 157.6181 157.7548 157.8344 157.9133 157.9380
   158.0921 158.2416 158.2489 158.4674 158.5843 158.5978 158.7947 158.8611
   158.9412 159.0240 159.1114 159.1911 159.2218 159.4133 159.4178 159.4570
   159.5185 159.8365 160.0561 160.0590 160.3181 160.5187 160.5199 160.5572
   160.7113 161.0573 161.2549 161.3447 161.3733 161.5333 161.5656 161.5704
   161.6114 161.8270 161.9087 161.9436 161.9689 162.0119 162.2492 162.4426
   162.4659 162.5396 162.6488 162.7426 162.7870 163.0079 163.0326 163.0753
   163.3316 163.4377 163.4909 163.4954 163.6177 163.6563 163.7684 163.7923
   163.9131 164.1704 164.2066 164.2084 164.2395 164.3182 164.3963 164.6452
   164.7305 164.8696 164.8881 165.0657 165.0814 165.1476 165.4936 165.5850
   165.7643 166.0247 166.1347 166.3837 166.4785 166.5036 166.5714 166.7965
   166.8198 166.8342 166.8552 166.8607 167.0305 167.2177 167.2557 167.3895
   167.5193 167.6571 167.6702 167.7661 167.7701 167.9568 168.0152 168.1796
   168.2350 168.3162 168.3546 168.4455 168.4629 168.6501 168.7446 168.9003
   168.9231 169.0795 169.1471 169.1520 169.1833 169.3582 169.5098 169.5509
   169.6328 169.6992 169.8384 169.8527 169.8677 169.9143 170.1188 170.1203
   170.1255 170.2142 170.2389 170.3867 170.4803 170.5939 170.6770 170.8181
   171.0712 171.1334 171.1555 171.2234 171.2936 171.3841 171.4672 171.5037
   171.6964 171.8289 172.0197 172.0213 172.2020 172.2407 172.3244 172.3652
   172.3774 172.4689 172.4697 172.4899 172.7633 172.9821 173.0255 173.1320
   173.1552 173.2357 173.2645 173.5356 173.6785 173.8048 173.9009 173.9378
   173.9952 174.1675 174.2009 174.2610 174.2992 174.4419 174.6569 174.6820

          k = 0.0000-0.5774 0.0000 (  8446 PWs)   bands (ev):

   -61.9092 -36.1514 -36.0201 -35.9663 -13.5222 -13.3389  -6.6875  -5.7956
    -4.8803  -3.8188  -2.9652  -1.7792  -1.7387   0.7935   1.2099   2.4385
     2.9095   4.3526   6.2920   6.3194   7.0243   7.8608   8.2292   8.6076
     8.8975   9.1420   9.2105   9.6724   9.7002   9.9412  10.5085  10.7146
    11.1391  11.5850  12.6456  12.8225  13.1430  14.1644  14.3827  15.1409
    15.2797  15.3735  15.6826  16.2039  17.2221  17.4977  17.5513  17.8029
    17.8888  17.9548  18.0933  18.2711  18.3024  18.4494  18.7661  19.0124
    19.2585  19.2809  19.5441  19.6049  20.1583  20.9739  20.9744  21.1364
    21.2159  21.6101  21.6307  21.6543  22.0565  22.6148  22.7090  23.3016
    23.5547  24.0949  24.1227  24.5197  24.7987  25.6288  26.4417  26.5663
    26.6020  27.2730  27.2882  27.5554  27.7523  28.1773  28.5155  29.4091
    29.4940  29.8935  30.0350  30.1143  30.4504  30.7861  30.8988  31.0362
    31.4779  31.9430  32.1096  32.3855  32.6238  32.9288  33.3255  33.6934
    33.8483  34.0508  34.5434  34.9222  35.4281  35.4357  35.4758  35.7853
    36.0393  36.0663  36.0837  36.1936  36.2055  36.2774  36.4214  36.4728
    36.5711  36.6500  36.8402  36.9532  37.0365  37.0818  37.3215  37.4022
    37.6764  37.8513  37.8543  38.1014  38.5355  38.5627  38.7631  38.9443
    39.0575  39.2714  39.5194  39.5438  39.6773  40.2679  40.4881  40.5807
    40.6897  41.0770  41.2345  41.3045  41.3670  41.5702  41.6137  42.1811
    42.2031  42.4755  42.4791  42.8484  43.0097  43.1828  43.1917  43.6432
    43.6992  43.7046  43.9382  44.2424  44.5260  44.5480  44.7518  45.0733
    45.1536  45.1622  45.4529  45.4833  45.5164  45.5538  45.7233  45.7295
    46.2168  46.2779  46.2974  46.4238  46.4816  46.6059  47.0544  47.3450
    47.4513  47.7265  47.8088  48.0835  48.1832  48.4228  48.5310  48.7709
    48.8867  48.9755  49.1581  49.5512  49.5630  49.7072  50.1029  50.1549
    50.2543  50.5799  50.7679  50.8347  51.0175  51.0403  51.1554  51.7269
    51.7569  51.9194  51.9867  52.0564  52.8690  52.9221  52.9721  53.2238
    53.3114  53.7119  53.8920  54.1148  54.2172  54.2224  54.4106  54.5824
    54.7595  55.2721  55.7285  55.7914  55.9240  56.1450  56.2724  56.8562
    57.1675  57.2677  57.4673  57.8417  57.9372  58.0360  58.2104  58.2372
    58.5953  58.6208  58.8456  59.0096  59.2942  59.4081  59.4371  59.5423
    59.5782  60.1450  60.2703  60.8969  60.9337  61.2718  61.5568  61.6207
    61.7919  62.1678  62.4585  62.5928  62.8761  63.0752  63.1646  63.2167
    63.4370  63.4471  63.5461  63.5660  63.6566  63.7295  63.7585  63.7869
    63.8139  64.2339  64.2711  64.2807  64.2826  64.3600  64.5160  64.5856
    64.7005  64.8016  64.8191  64.9883  65.0768  65.1773  65.5384  65.5571
    65.6639  65.8611  66.0650  66.1246  66.2757  66.3804  66.5647  66.5670
    66.6556  66.6981  66.7142  66.9727  67.1711  67.6531  67.7802  67.8955
    68.1279  68.1618  68.5310  68.5525  68.8146  68.9996  69.2834  69.2986
    69.4188  69.6796  69.7261  69.9650  70.0680  70.1067  70.3107  70.6473
    70.7196  70.8022  70.9308  71.2951  71.5782  71.7605  71.8770  71.9125
    72.1472  72.1663  72.3692  72.4384  72.5875  72.6467  72.6784  72.7952
    72.8528  73.3878  73.6386  73.6746  73.8047  73.9804  74.4339  74.5203
    74.6938  75.0668  75.0929  75.3054  75.4119  75.5592  75.6776  75.9945
    76.1752  76.3363  76.5239  76.6964  76.7100  76.9963  77.0686  77.1985
    77.3490  77.6062  77.6786  77.7691  78.0867  78.3877  79.0693  79.1453
    79.3724  79.3842  79.5286  79.6664  79.8811  79.9619  80.0938  80.3023
    80.5395  80.5598  80.7780  80.8944  80.9407  81.2467  81.7056  81.7547
    81.9158  81.9660  82.4655  82.5414  82.8708  82.8847  82.9004  82.9510
    83.2366  83.3150  83.5785  83.6406  83.9339  84.1674  84.1863  84.3359
    84.7489  84.8630  84.9459  84.9553  85.0301  85.0543  85.1684  85.5198
    85.6130  85.7673  85.8009  85.9605  86.2252  86.2318  86.3994  87.0347
    87.0956  87.1427  87.1597  87.7118  87.9871  88.0816  88.1836  88.8060
    89.0443  89.1496  89.1985  89.5270  89.5842  89.7112  90.1778  90.2946
    90.4711  90.4904  90.5226  90.5366  90.7170  90.7820  90.8489  90.9315
    90.9780  91.1964  91.2137  91.2513  91.4213  91.4547  91.5782  91.6715
    91.6861  91.7664  91.8205  91.8564  92.0873  92.0890  92.1470  92.2328
    92.2547  92.2679  92.3839  92.5920  92.6701  92.8093  92.8737  93.0775
    93.1949  93.2070  93.4751  93.4998  93.5335  93.7521  93.8609  93.9182
    93.9791  94.0093  94.0634  94.0983  94.1011  94.3661  94.4720  94.5125
    94.7037  94.8886  94.9982  95.0914  95.6453  95.9160  96.0177  96.0216
    96.1785  96.2001  96.3798  96.4189  96.6265  96.7257  96.7537  97.0506
    97.1928  97.5156  97.5995  97.6673  98.1242  98.2350  98.2813  98.3382
    98.5794  98.6545  98.8297  98.9826  99.0357  99.1464  99.1708  99.2666
    99.4250  99.6147  99.6801  99.7105  99.7541  99.7889  99.7930  99.8596
   100.0665 100.0827 100.2068 100.2291 100.2938 100.4984 100.5015 100.5642
   100.6495 100.7113 100.7230 100.7424 100.8477 100.9233 100.9535 100.9771
   101.0114 101.1259 101.1411 101.2927 101.4460 101.5627 101.7423 101.8506
   101.9262 102.0910 102.2650 102.2679 102.4443 102.5217 102.5693 102.6656
   102.6947 102.8593 102.9276 103.0373 103.0617 103.2978 103.4009 103.4329
   103.5151 103.5676 103.6177 103.6761 103.7214 103.7853 103.8132 103.8413
   103.8533 103.9079 104.0945 104.1921 104.3523 104.6047 104.6578 105.0182
   105.1282 105.2565 105.4546 105.4936 105.7292 105.8367 105.9780 106.0079
   106.0335 106.1796 106.2392 106.6276 106.6822 106.8045 106.9605 107.1422
   107.2629 107.3513 107.8379 107.9733 108.1192 108.2941 108.3120 108.5384
   108.5853 108.7213 108.7228 109.0593 109.1394 109.1436 109.2630 109.2633
   109.4172 109.4779 109.6194 109.8421 110.1672 110.1774 110.1855 110.1932
   110.3193 110.4745 110.6683 110.8099 110.9967 111.1484 111.4577 111.6526
   111.6643 111.7387 111.7440 111.9423 112.1788 112.4194 112.4249 112.4619
   112.5138 112.5412 112.6326 112.8282 112.8591 112.9251 113.0258 113.0512
   113.0812 113.3802 113.4392 113.4774 113.5459 113.6816 113.6917 113.9168
   113.9869 114.3241 114.3411 114.7773 114.8134 115.3452 115.5297 115.7991
   115.9273 116.4475 116.4860 116.5399 116.7987 116.8336 116.8718 117.0776
   117.1804 117.2040 117.5916 117.6515 117.7241 117.8232 117.9701 118.1119
   118.1665 118.1928 118.2338 118.2996 118.4129 118.4178 118.5492 118.6176
   118.8023 118.9546 119.0847 119.1978 119.2765 119.3235 119.3379 119.4679
   119.5202 119.6541 119.7496 119.7742 119.8203 119.9878 120.0295 120.2186
   120.2280 120.5147 120.6578 120.6730 120.7596 120.8112 120.8761 120.9527
   121.0368 121.0585 121.1417 121.2335 121.5416 121.5438 121.7976 121.8955
   122.1170 122.2293 122.3834 122.3987 122.4415 122.6860 122.7992 122.9633
   123.0440 123.2274 123.2536 123.4122 123.5735 123.6035 124.0244 124.2710
   124.3234 124.3574 124.4232 124.5051 124.5660 124.6728 124.8569 125.0016
   125.3327 125.5023 125.5107 125.5490 125.5746 125.7585 126.0889 126.1055
   126.2716 126.3982 126.7392 126.7563 126.8253 126.8689 126.9211 126.9328
   127.1689 127.1949 127.3547 127.3733 127.4316 127.4402 127.4846 127.8290
   127.8789 127.9163 127.9724 127.9807 128.0299 128.1643 128.2269 128.2847
   128.3354 128.5648 128.6028 128.8146 128.9806 129.0579 129.2360 129.3164
   129.3669 129.4432 129.4891 129.7398 129.8959 130.0246 130.0782 130.1067
   130.2847 130.3584 130.4935 130.5482 130.5760 130.6022 130.6584 130.8280
   130.8586 131.2800 131.3498 131.5573 131.6031 131.7662 131.7981 131.8177
   131.9068 132.0063 132.1009 132.3733 132.3828 132.4453 132.7643 132.8708
   132.8916 133.1090 133.1610 133.3871 133.6545 133.7254 133.7801 133.7960
   134.1394 134.1919 134.2408 134.4830 134.5320 134.5891 134.6783 135.0830
   135.1152 135.3008 135.3184 135.5474 135.5644 135.9669 136.1923 136.2293
   136.2865 136.5014 136.5265 136.5295 136.6328 136.6843 136.9049 136.9231
   137.1211 137.3039 137.5324 137.7602 137.9813 138.0210 138.2926 138.3578
   138.5581 138.5869 138.5991 138.7364 138.8204 139.0725 139.0741 139.1262
   139.5489 139.6591 139.7089 139.7770 139.8491 140.1233 140.1618 140.2135
   140.2942 140.2967 140.4110 140.4549 140.5714 140.6369 140.7686 140.7909
   140.8715 140.9223 141.1893 141.2072 141.3004 141.4321 141.5606 141.6753
   141.8446 142.4451 142.4864 142.8932 143.0333 143.3142 143.5387 143.5485
   143.5867 143.7542 143.9702 144.2004 144.3086 144.4830 144.5666 144.7216
   144.8482 144.8973 144.9393 145.0774 145.1057 145.1267 145.2581 145.3161
   145.4158 145.4169 145.4252 145.5592 145.6631 145.7155 145.7239 145.7948
   145.8777 145.9808 146.0033 146.0078 146.1937 146.2826 146.3419 146.4804
   146.4811 146.5096 146.5431 146.5984 146.6053 146.7453 146.7692 146.9991
   147.0911 147.1789 147.1805 147.2598 147.3295 147.6982 147.7105 147.7569
   147.8446 147.8678 147.9487 147.9604 148.1126 148.1664 148.2732 148.2853
   148.5106 148.5179 148.5184 148.5198 148.5348 148.6599 148.8789 148.9080
   148.9128 149.0800 149.1028 149.2896 149.3831 149.4061 149.5275 149.5593
   149.6056 149.7277 149.8384 149.8459 150.4097 150.5535 150.6374 150.6817
   150.7651 150.8120 150.9857 151.0415 151.1448 151.3056 151.3450 151.3597
   151.6202 151.7332 151.7621 151.7669 151.8072 151.9868 152.1213 152.2516
   152.3741 152.7048 152.8133 153.0177 153.0257 153.3412 153.6067 153.6826
   153.8701 154.0354 154.0960 154.1793 154.1925 154.2308 154.3007 154.5714
   154.6119 154.6600 154.6689 154.7506 154.8602 155.0244 155.0657 155.4223
   155.5059 155.5971 155.6817 155.9386 155.9438 156.2191 156.3400 156.4749
   156.5467 156.6194 156.9304 156.9596 156.9867 157.0047 157.0809 157.3248
   157.3271 157.7401 157.7451 157.9334 157.9450 157.9899 158.1406 158.2340
   158.2476 158.2666 158.2877 158.3007 158.6085 158.6320 158.6617 158.8323
   158.8606 159.4624 159.6487 159.8360 160.0056 160.1780 160.4402 160.5781
   160.6262 160.6515 160.8155 160.8559 160.8722 160.8912 161.2082 161.3140
   161.3796 161.4229 161.5083 161.5512 161.7900 162.0093 162.0446 162.1658
   162.1813 162.3159 162.3876 162.4977 162.5181 162.6109 162.9211 162.9460
   163.0558 163.2194 163.2267 163.5156 163.5279 163.8247 163.9993 164.1167
   164.1347 164.1742 164.2721 164.4595 164.4833 164.6096 164.6281 164.7796
   164.8036 164.9459 165.0407 165.1003 165.1206 165.2309 165.5635 165.6687
   165.9695 165.9841 166.0488 166.0567 166.2123 166.2539 166.2648 166.5109
   166.7145 166.7937 167.0355 167.2008 167.4310 167.4339 167.4758 167.6784
   167.8290 167.8723 167.9824 167.9962 168.1360 168.4099 168.4392 168.4439
   168.5611 168.8127 168.9313 168.9884 169.3268 169.3273 169.5176 169.8243
   169.9344 170.2566 170.3379 170.5560 170.6723 170.6775 170.7186 170.8473
   171.0978 171.3306 171.5634 171.6609 171.7750 171.7983 171.9096 171.9188
   171.9200 172.0847 172.3475 172.4222 172.4602 172.5603 172.6183 172.7379
   172.8194 172.8950 172.9289 172.9382 172.9782 173.0469 173.1487 173.1724
   173.2214 173.2755 173.2964 173.4129 173.4695 173.4993 173.5098 173.6239
   173.6393 173.6660 173.6708 173.7759 173.8447 173.8523 173.8669 174.0425
   174.1682 174.3461 174.3743 174.4942 174.5908 174.7593 174.8716 174.9222
   174.9477 175.0087 175.0119 175.0633 175.0938 175.1052 175.1876 175.2710
   175.4273 175.4858 175.5978 175.6641 175.7582 175.8366 175.8401 175.8766

          k = 0.1250 0.2165 0.0000 (  8393 PWs)   bands (ev):

   -61.9223 -36.0509 -36.0030 -35.9364 -14.6707 -13.9448  -5.8034  -4.4268
    -3.9774  -3.3937  -2.7249  -1.9412  -1.6899   0.7345   1.0812   1.2414
     2.4870   4.5407   4.7372   5.3397   6.0714   6.5848   7.3539   7.9986
     8.3440   8.8042   9.0170   9.9920  10.2132  10.6034  11.4552  11.6117
    11.6893  12.8528  13.6255  14.2613  14.3799  14.9688  15.8165  16.1162
    16.1559  16.2750  16.5913  16.7740  16.8182  17.5150  17.5518  18.0673
    18.0699  18.0983  18.2698  18.8490  18.8977  19.1720  19.7761  19.7875
    20.1631  20.4128  20.7221  20.9320  21.7535  22.1058  22.2228  22.6738
    22.7139  22.9896  23.0112  23.2077  23.2352  23.4317  23.7114  23.7841
    23.9291  24.2103  24.4056  24.9030  25.1269  25.1697  25.6739  25.9086
    26.0729  26.0759  26.3975  27.0817  27.3570  27.4135  27.5710  27.7066
    27.8849  28.0947  28.6251  28.9950  29.2852  29.3473  29.4017  29.6981
    29.8856  29.9621  30.0267  30.3160  30.3922  30.4381  30.7233  30.8581
    30.9566  30.9892  31.3258  31.5842  31.9780  32.2228  32.5174  32.6228
    32.8095  32.8836  33.0148  33.3477  33.4070  33.4868  33.9140  33.9464
    34.5295  34.6613  34.8667  34.8920  35.2895  35.4279  35.7892  36.1121
    36.2636  36.2643  36.6605  37.1146  37.1446  37.7691  37.8393  37.8518
    38.3823  38.3987  38.9405  39.2502  39.2839  39.5229  39.5553  39.9398
    40.3163  40.3571  40.5704  40.8662  41.2845  42.0014  42.0493  42.3215
    42.4386  42.4443  43.0823  43.4086  43.7676  44.0731  44.2440  44.4076
    44.7377  45.2220  45.3422  45.4996  45.6699  45.7024  45.7548  46.0034
    46.2803  46.3942  46.7260  46.7975  46.8440  46.9518  47.4449  47.6033
    47.7128  47.7935  47.9230  48.2553  48.7825  48.8581  49.2737  49.3697
    49.4971  49.5268  49.7886  50.2240  50.6311  50.6437  50.7323  50.8164
    50.9587  51.1030  51.7620  51.9472  52.1144  52.2674  52.3557  52.6477
    52.7029  52.7931  52.9106  52.9738  53.0504  53.1407  53.3324  53.6177
    53.6183  53.7039  53.8932  53.9351  54.2162  54.5122  54.6768  54.9839
    55.0128  55.1736  55.5012  55.7190  55.7737  55.9233  56.2785  56.4173
    56.6495  56.8786  57.1197  57.2918  57.5396  57.5541  57.7842  58.0154
    58.2815  58.4325  58.6623  58.7372  58.7771  58.7864  58.9787  59.0599
    59.3378  59.8044  60.0869  60.3571  60.5470  60.5777  60.8044  61.0521
    61.2018  61.3332  61.3940  61.5275  61.6119  61.8570  62.4507  62.6617
    62.6863  62.8362  62.9028  63.4817  63.5163  63.6742  63.8770  63.9435
    64.2379  64.3645  64.3721  64.4055  64.4953  64.6546  64.6771  64.7396
    64.8957  64.9937  65.2083  65.2119  65.5236  65.6227  65.6801  65.7486
    65.9192  65.9573  66.1098  66.1627  66.3221  66.4334  66.5499  66.7458
    66.7594  66.8205  66.9278  67.0036  67.0345  67.2190  67.2228  67.4910
    67.8010  67.8724  67.9616  68.1421  68.2695  68.3228  68.5890  68.6677
    68.7774  69.1405  69.3258  69.4571  69.4765  69.6479  69.7533  69.7728
    69.9726  69.9859  70.0189  70.3050  70.3415  70.7406  70.7755  71.1232
    71.2243  71.3889  71.5261  71.6205  71.9113  71.9613  72.0498  72.2206
    72.3215  72.4253  72.4758  72.5369  72.6440  72.6728  73.0867  73.1844
    73.2957  73.5109  73.5790  73.8066  73.8572  74.0049  74.0145  74.1470
    74.3767  74.4666  74.5434  74.7229  74.7311  74.9946  75.2047  75.4065
    75.5876  75.6313  75.7496  75.8995  75.9959  76.0975  76.1540  76.2002
    76.4914  76.7420  76.8975  76.9080  77.2011  77.2582  77.6330  77.7379
    77.9596  78.0052  78.0572  78.0847  78.1903  78.3333  78.4153  78.5917
    78.6018  78.7917  78.9083  79.0739  79.1870  79.1991  79.2714  79.3476
    79.4339  79.6171  79.7482  79.7662  79.8176  79.9296  80.2028  80.3655
    80.5111  80.7697  80.8849  80.9321  80.9621  81.0410  81.1442  81.2240
    81.4198  81.4426  81.6039  81.6455  81.6906  81.9855  82.0765  82.0917
    82.3376  82.6779  82.8447  83.0460  83.1368  83.1647  83.6066  83.6594
    83.8089  84.1079  84.1318  84.3182  84.5884  84.7937  85.1078  85.3433
    85.4032  85.6146  85.8778  86.2270  86.2506  86.4781  86.6295  86.7382
    86.8507  87.0255  87.0325  87.1536  87.1874  87.2349  87.3389  87.3930
    87.7347  87.8818  87.8974  87.9772  88.1643  88.3489  88.6167  88.9226
    88.9444  89.0057  89.1674  89.2959  89.4542  89.5873  89.6007  89.8331
    89.9965  90.1278  90.2192  90.4245  90.5279  90.8505  90.9156  91.0401
    91.0910  91.3218  91.4325  91.6639  91.7336  91.8214  91.8264  92.1773
    92.2030  92.2549  92.3465  92.5951  92.6449  92.6638  92.9273  93.0618
    93.1107  93.4936  93.4992  93.5605  93.6677  93.8174  93.8455  94.1311
    94.3010  94.4995  94.5257  94.6129  94.7684  94.8600  94.9682  95.1205
    95.1545  95.2862  95.3965  95.5534  95.6540  95.9135  96.1490  96.2130
    96.2187  96.3000  96.5727  96.7098  96.8887  96.8988  97.0050  97.1317
    97.4304  97.4804  97.7824  97.8683  97.8990  98.1720  98.2592  98.6644
    98.7170  98.8044  99.1392  99.2296  99.3064  99.5367  99.6720  99.8386
    99.8890 100.2412 100.3011 100.3824 100.4539 100.7405 100.7809 100.9448
   101.0320 101.0797 101.2137 101.2974 101.4078 101.5053 101.6085 101.6517
   101.6651 101.8565 101.8724 102.2781 102.6981 103.0887 103.1400 103.5089
   103.6180 103.8770 103.9253 104.0534 104.2323 104.7076 104.7639 104.8294
   104.9604 104.9947 105.2547 105.5560 105.5918 105.7831 105.8118 106.1246
   106.2326 106.2541 106.6322 106.6917 106.6981 106.8794 107.1651 107.3242
   107.4987 107.5927 107.6042 107.7249 107.9438 108.0209 108.0667 108.2242
   108.4942 108.7669 108.9192 108.9563 109.1266 109.2131 109.3443 109.4324
   109.5166 109.7205 109.7652 110.1056 110.3556 110.7166 110.8277 110.8966
   111.0700 111.1284 111.2986 111.3072 111.5226 111.6547 111.8040 111.9793
   112.0311 112.1637 112.2849 112.3007 112.3867 112.6174 112.6451 112.7069
   112.8066 112.9262 113.0855 113.1119 113.1870 113.4396 113.5028 113.5896
   113.7384 114.0578 114.1152 114.2287 114.3736 114.4208 114.4210 114.6249
   114.7396 114.9186 115.0235 115.0502 115.1446 115.2491 115.2599 115.5258
   115.6257 115.7576 116.0482 116.1019 116.4837 116.6180 116.6482 116.8242
   116.9749 117.0105 117.2171 117.2634 117.5687 117.6612 117.7448 118.1334
   118.1516 118.1901 118.3201 118.5153 118.7272 118.7842 118.8777 118.9151
   118.9781 119.1048 119.1754 119.1788 119.3134 119.4179 119.4299 119.6632
   119.7098 119.7338 119.8814 119.8953 120.0196 120.0884 120.1448 120.3042
   120.3476 120.4516 120.5923 120.6474 120.7234 120.7795 120.9949 121.0265
   121.0713 121.2753 121.4048 121.4400 121.5221 121.7572 121.8214 121.8857
   122.0446 122.2109 122.2907 122.3044 122.3777 122.5580 122.6066 122.8966
   123.1178 123.2664 123.4107 123.7059 123.7801 123.9246 124.0165 124.3131
   124.3749 124.3885 124.4538 124.6890 124.7005 124.8069 125.0317 125.0521
   125.1146 125.3307 125.4058 125.5331 125.5658 125.6392 125.7561 125.7951
   125.9283 125.9403 126.0706 126.0926 126.1953 126.3952 126.5130 126.5955
   126.6462 126.7415 126.7607 127.0820 127.1817 127.2369 127.2779 127.3553
   127.5028 127.5197 127.6429 127.6514 127.7109 127.7390 127.9120 127.9523
   128.2057 128.2755 128.4844 128.5248 128.6092 128.6845 128.8358 128.8681
   129.0448 129.2051 129.2152 129.3124 129.4865 129.5975 129.7190 129.7605
   129.9819 130.0399 130.1371 130.3351 130.4503 130.5174 130.7482 130.7840
   130.8836 130.9508 131.2335 131.2412 131.3401 131.4099 131.6385 131.6573
   131.6989 131.8369 131.9287 131.9946 132.0883 132.1668 132.1830 132.4380
   132.5110 132.5857 132.6031 133.0917 133.1492 133.2513 133.4170 133.4191
   133.5813 133.7465 133.7673 134.0522 134.0633 134.1682 134.2633 134.4286
   134.6296 134.7526 134.9344 134.9437 135.1113 135.1829 135.2675 135.3328
   135.3803 135.6623 135.7319 135.8732 136.1377 136.3127 136.3736 136.4462
   136.5532 136.7083 136.7630 136.9615 137.2274 137.4002 137.5486 137.5686
   137.7370 137.8305 138.0196 138.0830 138.1979 138.4640 138.6280 138.6993
   138.7286 138.8587 138.9238 138.9477 139.1120 139.1210 139.2069 139.2269
   139.3741 139.4424 139.4790 139.4950 139.6522 139.7117 139.8917 139.8932
   139.9800 140.2701 140.3280 140.4537 140.4771 140.5523 140.6218 140.6923
   140.8546 140.8894 140.9129 141.0451 141.1584 141.2511 141.4867 141.7414
   141.9219 141.9718 142.0180 142.1677 142.2131 142.2517 142.3959 142.5428
   142.5481 142.7040 142.9055 143.0119 143.1794 143.2804 143.4676 143.4881
   143.6038 143.7274 143.8812 144.0525 144.2395 144.3326 144.3375 144.4708
   144.6140 144.7465 144.7615 144.8424 144.8880 145.0766 145.1703 145.3018
   145.3176 145.4702 145.5965 145.6352 145.7790 145.8689 145.9634 145.9901
   146.2323 146.2347 146.3252 146.4407 146.5309 146.6642 146.6915 146.7870
   146.9317 146.9670 146.9683 147.1209 147.1868 147.2735 147.3042 147.3098
   147.3441 147.6632 147.6709 147.6961 147.7704 147.8416 147.9191 147.9373
   148.0103 148.1441 148.1745 148.2351 148.2488 148.3151 148.3957 148.5525
   148.5534 148.6003 148.7033 148.8036 148.9080 148.9986 149.0706 149.0878
   149.1064 149.2114 149.3367 149.3643 149.4498 149.4624 149.5723 149.6463
   149.6689 149.8812 149.8951 150.2471 150.4102 150.4487 150.5518 150.6689
   150.8280 150.8479 150.8963 150.9921 151.0133 151.0832 151.2675 151.3109
   151.3914 151.5910 151.6793 151.6880 151.7621 152.0208 152.0363 152.1232
   152.1243 152.3344 152.3631 152.3793 152.5350 152.6699 152.7359 152.8205
   152.8882 152.9176 152.9532 153.0697 153.2232 153.2375 153.3519 153.4636
   153.4659 153.6539 153.7272 153.9465 154.0109 154.0292 154.1142 154.1343
   154.2583 154.3686 154.3689 154.4056 154.4377 154.5283 154.6541 154.6631
   154.7356 154.8362 154.8989 155.0733 155.2703 155.3388 155.4671 155.5148
   155.6169 155.6343 155.8487 155.9569 156.0773 156.1706 156.2025 156.2258
   156.3486 156.4659 156.6709 156.7413 156.7554 156.8326 156.9542 156.9581
   157.0634 157.0882 157.2746 157.3666 157.4471 157.4975 157.5095 157.7170
   157.9469 158.0292 158.1661 158.2214 158.3681 158.4733 158.5185 158.5984
   158.6567 158.6825 158.8357 158.8949 159.0595 159.0727 159.1072 159.1301
   159.1398 159.2344 159.2560 159.4752 159.5398 159.5458 160.0608 160.1434
   160.1472 160.3557 160.5839 160.6354 160.7141 160.7440 160.8697 160.9638
   161.0828 161.1582 161.2528 161.4367 161.4479 161.5203 161.6297 161.6952
   161.8016 161.9529 161.9634 162.0603 162.0953 162.2362 162.3635 162.7482
   162.7686 162.9048 163.0473 163.0554 163.2362 163.2910 163.3675 163.4669
   163.6666 163.7847 164.0049 164.1810 164.3193 164.3251 164.5117 164.5211
   164.6201 165.0133 165.0440 165.0970 165.1713 165.5721 165.5943 165.6922
   165.7645 165.8127 166.1595 166.3295 166.3368 166.3979 166.4249 166.5276
   166.5625 166.6901 166.7786 166.8309 166.8720 167.0846 167.1555 167.3462
   167.3859 167.4941 167.6803 167.6867 167.8929 167.9977 168.0902 168.2272
   168.2957 168.3212 168.4299 168.5686 168.6434 168.7424 168.8075 168.9552
   168.9698 168.9935 169.0799 169.1137 169.2553 169.2891 169.3451 169.4180
   169.4486 169.4585 169.6264 169.6753 169.7187 169.7269 169.7762 169.9198
   169.9680 169.9825 170.0800 170.1095 170.2227 170.3080 170.5414 170.5787
   170.5891 170.6669 170.6806 170.7529 170.9290 171.0269 171.1137 171.2681
   171.3574 171.4769 171.6257 171.6821 171.7074 171.7765 171.8309 172.0393
   172.2861 172.3517 172.5353 172.6346 172.9156 172.9693 173.0819 173.0951

          k = 0.1250 0.3608 0.0000 (  8436 PWs)   bands (ev):

   -61.9147 -36.0796 -36.0329 -35.9650 -14.0578 -13.6115  -5.7692  -4.9164
    -4.8343  -3.9582  -2.8131  -2.3587  -1.7710   0.5906   1.0744   1.4915
     2.8064   5.4609   5.7394   6.4220   6.6057   7.0602   7.5513   7.9009
     8.5875   8.8794   9.4755  10.0159  10.1103  11.0032  11.5367  11.8891
    12.2087  12.8750  12.9171  13.3922  13.4264  14.1023  14.3871  14.6229
    15.0545  15.3550  15.5170  15.5567  15.9016  16.3305  16.6331  16.7843
    17.1406  17.4922  17.6137  18.6462  18.7078  18.7980  19.2005  19.4231
    19.9985  20.0463  20.3939  21.1431  21.2545  21.9571  22.0341  22.2377
    22.4549  22.6402  22.7834  22.9396  23.1421  23.4871  23.6399  23.9387
    23.9664  24.5360  24.9901  25.1224  25.4683  25.7127  25.7917  26.1471
    26.6202  26.6826  26.9950  27.0148  27.2661  27.6132  27.9052  27.9377
    28.5482  28.6077  28.7930  29.0376  29.3231  29.3462  29.9700  30.1586
    30.1850  30.5641  31.0133  31.1620  31.3691  32.0032  32.1956  32.5648
    32.5984  33.1880  33.4434  33.5814  33.6088  33.7796  33.8415  34.1974
    34.3869  34.4810  34.6161  34.7437  34.9755  35.3362  35.5425  35.7018
    35.9423  35.9879  36.1081  36.2371  36.5002  36.8503  36.8604  37.1177
    37.3866  37.4091  37.8359  37.9663  38.2961  38.4194  38.4206  39.0710
    39.1040  39.5338  39.6152  39.7761  39.9000  40.1912  40.2019  40.4001
    40.5747  40.7626  40.7723  41.0708  41.1396  41.4888  41.5269  41.7017
    42.0496  42.0918  42.1266  42.4559  42.7172  42.8383  43.3396  43.4344
    43.5841  43.9076  44.0318  44.2112  44.6797  44.6899  44.8585  45.1500
    45.4893  45.5185  46.0031  46.2104  46.3221  46.3332  46.8768  46.9160
    47.0319  47.1543  47.3754  47.4185  47.6016  47.8064  48.0653  48.2203
    48.4444  48.4936  48.7386  48.9027  49.1434  49.3336  49.6261  49.8795
    49.9474  50.1369  50.2834  50.3396  50.6039  51.0264  51.1711  51.2354
    51.6326  51.7803  52.1588  52.4419  52.5311  52.7630  53.1189  53.6399
    53.6872  53.7351  53.9315  54.0773  54.2090  54.2819  54.3329  54.5993
    54.6496  54.6823  54.9403  54.9938  55.2054  55.3627  55.7971  55.8168
    55.9828  56.2181  56.3180  56.3878  56.5461  56.5534  56.7967  56.8726
    56.9809  57.1424  57.3649  57.4037  57.6629  57.6921  58.0245  58.1047
    58.2630  58.5459  58.8992  58.9985  59.2609  59.4255  59.5614  59.7717
    59.8443  60.0363  60.4398  60.5523  60.7455  60.7720  60.9465  61.1244
    61.1683  61.4283  61.5012  61.6275  61.7002  61.8059  61.9521  62.1775
    62.2192  62.4201  62.5289  62.7316  62.7576  63.0138  63.1690  63.5742
    63.6336  63.7173  63.8047  63.8422  63.9093  64.3586  64.5234  64.6061
    64.6950  65.0329  65.3922  65.5174  65.8510  65.9449  65.9678  66.3055
    66.5052  66.5487  66.9110  66.9268  67.1626  67.3152  67.4411  67.7648
    67.8589  67.8661  68.1242  68.2706  68.4648  68.6409  68.7897  69.0092
    69.1414  69.1844  69.3528  69.4564  69.4944  69.6614  69.9340  69.9826
    70.2291  70.3145  70.4554  70.5397  70.8422  70.9318  71.2236  71.4212
    71.6358  71.6600  71.8441  72.1463  72.1593  72.3872  72.4435  72.6524
    72.7083  73.1468  73.2173  73.3712  73.6322  73.8964  73.9745  74.0383
    74.2236  74.3190  74.4933  74.6019  74.7044  74.7102  74.9179  74.9225
    74.9897  75.1858  75.4283  75.4291  75.4446  75.6607  75.8828  76.0257
    76.2769  76.3064  76.6429  76.7071  76.8192  76.8695  77.0698  77.1946
    77.4734  77.5108  77.7448  77.7939  77.9304  77.9427  78.2056  78.2939
    78.5813  78.6445  79.0467  79.0696  79.2491  79.5629  79.6546  79.8160
    79.8568  79.9516  80.1405  80.2275  80.3548  80.5803  80.6166  80.7239
    80.7321  81.0999  81.1578  81.2577  81.4080  81.4486  81.6543  81.6927
    81.9347  81.9940  82.0787  82.2076  82.2293  82.6130  82.6254  82.7442
    82.8576  82.9687  82.9775  83.3147  83.5238  83.5393  83.7652  83.7839
    83.9345  83.9485  84.1241  84.3418  84.4661  84.6201  84.6983  84.7884
    84.9023  84.9737  85.0623  85.1900  85.6674  85.7924  85.8864  86.0562
    86.2535  86.2941  86.6034  86.6492  86.7678  86.8731  87.1407  87.1726
    87.2840  87.4068  87.4506  87.5660  87.8776  87.9095  88.1630  88.3203
    88.3483  88.5288  88.7284  88.8198  88.8862  89.1206  89.1964  89.4422
    89.5456  89.6423  89.8399  89.9313  89.9824  90.1898  90.3842  90.6084
    90.6250  90.6793  90.7792  90.9878  91.2351  91.3353  91.4221  91.7289
    91.8624  92.0871  92.1039  92.4493  92.4932  92.8986  92.9147  92.9584
    93.0220  93.2989  93.3004  93.5490  93.7937  94.2063  94.3125  94.4437
    94.6700  94.8867  95.0545  95.2852  95.3232  95.5926  95.6676  95.9889
    96.0346  96.0770  96.3232  96.4131  96.5536  96.7479  96.7555  97.0204
    97.0540  97.2278  97.2460  97.3534  97.4757  97.5178  97.6522  97.7724
    97.8953  98.0688  98.2907  98.2974  98.4340  98.5695  98.6631  98.7540
    98.9586  99.0295  99.2456  99.3142  99.5373  99.6935  99.7655  99.9916
   100.2305 100.3832 100.4056 100.5590 100.5838 100.8143 101.0007 101.1295
   101.3490 101.3927 101.4913 101.5432 101.7113 101.7385 101.9898 101.9979
   102.1154 102.1915 102.2226 102.4197 102.5034 102.6582 102.6583 102.7979
   102.8097 102.9509 103.0248 103.1617 103.1658 103.4551 103.5203 103.6091
   103.7098 103.7616 103.8508 104.0058 104.1692 104.2626 104.4092 104.6072
   104.7309 104.8713 104.8834 104.9726 105.1867 105.2212 105.3221 105.4008
   105.6401 105.6461 105.8525 105.9269 106.0203 106.2070 106.2577 106.6271
   106.6909 106.6989 106.7935 107.1825 107.2369 107.2717 107.3659 107.4303
   107.5520 107.6443 107.6978 107.9996 108.1919 108.2312 108.3456 108.4553
   108.5523 108.5726 108.8084 108.8556 108.9573 109.1087 109.1276 109.3545
   109.4624 109.4856 109.5594 109.6766 109.8197 109.9651 110.0117 110.1349
   110.2020 110.2830 110.3452 110.4195 110.4433 110.6781 110.7401 110.7882
   110.8257 111.0225 111.0637 111.3221 111.3280 111.5755 111.5891 111.8294
   111.8777 111.8972 112.2203 112.5430 112.6679 112.7765 112.9586 113.1290
   113.2733 113.6151 113.6600 113.6641 113.7504 113.9309 114.0427 114.1326
   114.4611 114.5321 114.6657 114.6806 114.9066 115.0267 115.0652 115.1000
[...]
    93.5178  93.9766  94.0389  94.1162  94.1589  94.2502  94.3434  94.3614
    94.6658  94.7596  94.7625  95.0791  95.0972  95.2031  95.2141  95.4186
    95.5547  95.5724  95.6470  95.7635  95.8005  96.0941  96.2136  96.3511
    96.3656  96.6610  96.6683  96.8086  97.0090  97.0862  97.1446  97.3502
    97.3663  97.5050  97.6386  97.7061  97.7330  98.0897  98.1380  98.2339
    98.4322  98.4563  98.5980  98.6499  98.8028  99.1033  99.1978  99.4012
    99.5097  99.8386  99.8474  99.9499 100.0674 100.1574 100.3475 100.4621
   100.5972 100.9026 100.9828 101.1204 101.1517 101.3000 101.5129 101.6834
   101.7341 101.8983 102.2080 102.3830 102.4087 102.5442 102.7282 103.0199
   103.0849 103.1707 103.2006 103.3931 103.4835 103.6159 103.6220 103.8137
   104.0190 104.3420 104.4614 104.5006 104.6045 104.7141 105.0068 105.0263
   105.0613 105.1933 105.3781 105.4368 105.5024 105.6343 105.7664 105.9279
   106.1378 106.4371 106.5792 106.6931 106.7948 106.9201 106.9312 107.1760
   107.2564 107.3603 107.5254 107.5614 107.6584 107.6807 107.7757 107.9180
   107.9518 108.0017 108.0247 108.0434 108.2214 108.2836 108.3320 108.3838
   108.4410 108.5838 108.7006 108.7042 108.8639 108.9790 109.0129 109.0387
   109.1397 109.3177 109.3231 109.4693 109.5685 109.7181 109.7716 109.8003
   109.9343 110.0278 110.1399 110.3103 110.4320 110.5696 110.6897 110.8337
   110.8347 110.9119 110.9270 110.9851 111.0549 111.1456 111.1777 111.2672
   111.5943 111.6006 111.6349 111.7124 111.9378 112.0792 112.1360 112.4084
   112.6222 112.8286 112.8590 113.0464 113.1154 113.2488 113.2542 113.3583
   113.3663 113.4626 113.6620 113.7579 113.8402 113.9035 113.9870 114.1791
   114.3260 114.4554 114.6420 114.7424 115.1508 115.1929 115.4320 115.4322
   115.5330 115.6063 115.7799 115.8236 116.2476 116.2635 116.4099 116.5397
   116.6452 116.6768 116.8127 116.9181 116.9250 116.9851 117.1082 117.1872
   117.2780 117.2903 117.3313 117.4460 117.6364 117.7812 117.8266 117.9749
   118.3007 118.3905 118.6829 118.7832 118.8652 119.0925 119.1660 119.2667
   119.3528 119.7237 119.7335 119.9426 120.1198 120.2548 120.3683 120.4027
   120.4870 120.5352 120.7357 120.8173 120.9880 121.0448 121.2465 121.3196
   121.3937 121.4258 121.5325 121.7209 121.7997 121.8574 121.9436 121.9803
   122.1028 122.2287 122.2941 122.4219 122.4749 122.5592 122.6479 122.6809
   122.8137 122.9483 123.0085 123.2751 123.2931 123.5500 123.7105 123.7781
   123.8479 123.8960 124.0390 124.1342 124.2898 124.3381 124.5211 124.5447
   124.6139 124.7709 124.7771 124.8604 124.9333 125.1266 125.1453 125.2318
   125.3296 125.3346 125.5240 125.6937 126.0525 126.0615 126.2035 126.3644
   126.8306 126.8707 126.8935 126.9337 127.1349 127.1866 127.2432 127.5318
   127.6612 127.7578 127.9285 128.2309 128.2785 128.3826 128.6526 128.6621
   128.7387 128.8191 129.0121 129.0331 129.1512 129.2261 129.3939 129.4744
   129.6883 129.7354 129.8355 129.9251 129.9484 130.0863 130.2624 130.3293
   130.4131 130.4373 130.4717 130.5209 130.5546 130.6878 130.7667 130.7980
   130.8729 130.9005 130.9242 131.0520 131.3872 131.4481 131.5272 131.6163
   131.6434 131.8070 131.9202 132.0711 132.0799 132.1173 132.4856 132.4904
   132.6324 132.8924 133.0688 133.1445 133.1876 133.4152 133.4282 133.4887
   133.6191 133.6357 134.0270 134.0365 134.0891 134.3415 134.3495 134.6020
   134.7855 134.8273 134.9234 134.9525 135.2881 135.2937 135.5813 135.6984
   135.7918 135.8503 135.9002 135.9171 135.9596 136.0833 136.1693 136.2091
   136.3779 136.6283 136.7832 136.8831 136.9369 136.9928 137.1950 137.2638
   137.5842 137.7707 138.0381 138.0897 138.3357 138.3398 138.5590 138.6787
   138.7020 138.8570 138.8680 138.9271 139.0151 139.0721 139.1241 139.2283
   139.7452 139.7706 139.9538 140.1379 140.2032 140.2372 140.2458 140.5599
   140.5814 140.7275 140.7677 141.0571 141.1579 141.1743 141.4995 141.5524
   141.6593 141.7657 141.9071 142.0284 142.1027 142.3721 142.4327 142.5142
   142.5748 142.7078 142.8363 142.9309 143.0245 143.1417 143.1939 143.2915
   143.3941 143.4243 143.5465 143.5826 143.7665 143.8172 143.9908 144.1153
   144.4286 144.4617 144.6548 144.6638 145.0697 145.1499 145.1733 145.3718
   145.4193 145.6362 145.7028 145.9342 146.0763 146.2975 146.4997 146.5257
   146.6440 146.8113 146.9208 147.0985 147.2670 147.4602 147.5053 147.5974
   147.7079 147.7315 147.8866 148.0001 148.1041 148.3527 148.4226 148.4713
   148.4743 148.5835 148.5994 148.8107 148.9420 148.9898 149.0346 149.2805
   149.3171 149.3491 149.3764 149.4143 149.4342 149.4707 149.5126 149.6268
   149.7840 149.8297 149.9261 150.2425 150.2901 150.3758 150.6526 150.6582
   150.7055 150.9361 151.0550 151.0679 151.2700 151.4556 151.5559 151.6959
   151.7624 151.9471 151.9497 152.1569 152.2774 152.3625 152.4096 152.5133
   152.5195 152.6794 152.7579 152.7812 152.9930 153.0831 153.2198 153.3229
   153.5099 153.6772 153.7404 153.7468 154.0819 154.1325 154.2524 154.3266
   154.3714 154.4503 154.5589 154.7299 154.8064 154.8386 155.0905 155.2242
   155.2965 155.4730 155.4787 155.6314 155.6561 155.8097 155.8189 156.0029
   156.1071 156.3767 156.3949 156.5465 156.6043 156.7040 156.9379 157.0515
   157.3843 157.4587 157.6083 157.6304 157.6906 157.8768 157.8803 157.9312
   158.0744 158.1682 158.3401 158.4318 158.4531 158.6472 158.7775 158.8379
   158.9281 158.9710 159.3832 159.3857 159.6978 159.8023 160.0562 160.0670
   160.1355 160.4329 160.5730 160.8422 161.1486 161.1757 161.3774 161.4142
   161.4992 161.6116 161.6752 161.8185 161.9196 162.0500 162.2829 162.3374
   162.3793 162.6092 162.6445 162.6564 162.7888 162.8598 162.8743 162.9303
   163.0841 163.1105 163.2485 163.4536 163.4715 163.5581 163.5869 163.6315
   163.7859 163.7930 163.8733 164.0109 164.0265 164.1197 164.1412 164.3267
   164.3626 164.4323 164.6912 164.7304 164.8457 164.8474 164.9258 165.0736
   165.0827 165.1159 165.2028 165.3561 165.5590 165.5883 165.6697 165.8429
   165.8768 165.9457 166.0736 166.3104 166.3751 166.3853 166.5149 166.5681
   166.6042 166.8341 167.0110 167.0333 167.0902 167.3274 167.3281 167.4715
   167.5132 167.6333 167.8026 167.9371 168.0666 168.1513 168.3511 168.3636
   168.3961 168.4736 168.6542 168.6622 168.8233 168.8461 168.9543 169.1313
   169.2977 169.3585 169.4382 169.6098 169.6687 169.7407 169.9117 170.3578
   170.3638 170.4864 170.5616 170.6715 170.6735 170.8457 170.8935 170.9467
   171.0560 171.1416 171.2163 171.2675 171.3252 171.3555 171.4618 171.5593
   171.6843 171.7531 171.7936 171.8560 171.8694 171.9122 171.9206 171.9862
   172.0914 172.1346 172.1680 172.2739 172.3930 172.4273 172.5560 172.5611
   172.6763 172.6821 172.7983 172.8360 173.0719 173.0823 173.1284 173.2654
   173.3448 173.4051 173.5731 173.7041 173.9762 174.1279 174.1903 174.1924
   174.3568 174.4478 174.4591 174.5980 174.7218 174.7426 174.8587 174.9362
   175.1231 175.1808 175.2032 175.2762 175.4189 175.4866 175.4977 175.8519

          k = 0.2500 0.5774 0.0000 (  8461 PWs)   bands (ev):

   -61.9070 -36.1100 -36.0394 -36.0148 -13.3216 -13.2052  -5.9972  -5.9054
    -4.7566  -4.2174  -4.0430  -3.0981  -1.1830   0.5247   1.5938   1.7953
     3.1465   5.1028   6.4024   7.5818   8.1253   8.8050   9.2472   9.5983
     9.7166   9.9319  10.1075  10.1881  10.3571  10.5214  10.6561  11.2110
    11.4118  11.7765  12.0640  12.0956  12.3573  12.5347  12.8576  12.9582
    13.4519  13.7878  13.9284  14.3933  14.5545  14.8612  15.7308  15.8963
    16.4656  16.5846  16.7566  17.1155  17.3859  18.4230  18.4736  19.1051
    19.3974  19.8275  20.4220  20.9755  21.5986  21.7011  22.0016  22.9587
    22.9787  23.6385  23.6422  23.9900  24.5992  24.6393  24.9570  25.2000
    25.3865  25.7399  25.8680  25.9306  26.1305  26.4281  26.9537  26.9712
    27.0874  27.3226  27.8309  28.2175  28.4762  28.9658  29.0466  29.2934
    29.6072  29.8354  29.9499  30.0415  30.1542  30.2575  30.3417  30.5990
    30.8823  31.1318  31.2876  31.3450  31.4297  31.6576  31.7666  31.8919
    32.0366  32.8142  32.8164  32.9688  33.1153  33.2818  33.4033  33.8465
    33.9468  34.2772  34.3706  34.6695  34.7721  35.0925  35.2751  35.4364
    35.9721  36.2812  36.3655  36.4685  36.7147  36.9147  37.1973  37.8532
    37.9398  38.3377  38.5467  38.5989  38.6293  38.9658  39.2515  39.5777
    39.8077  39.9370  39.9913  40.4688  40.9152  40.9788  41.6041  41.7708
    42.2350  42.2525  42.8310  42.8711  43.2093  43.2174  43.4715  43.5519
    43.6423  43.8293  43.9329  44.0672  44.1608  44.3118  44.3752  44.5946
    44.6500  44.8263  44.8274  45.1268  45.3006  45.4520  45.5235  46.0899
    46.1283  46.1381  46.2379  46.3491  46.4871  46.5078  46.7128  46.8578
    47.0400  47.0496  47.2212  47.2217  47.4681  47.5870  47.5897  47.7867
    48.0876  48.2559  48.4297  48.6980  48.7135  49.0573  49.2469  49.3275
    49.3383  49.5672  49.6099  49.9210  50.0756  50.2155  50.2810  50.4908
    50.6219  50.8050  50.8364  50.9798  51.1159  51.1666  51.2300  51.5188
    51.5989  51.7077  51.7348  52.0231  52.1116  52.1504  52.2420  52.4289
    52.4559  52.4895  52.8756  53.0355  53.1905  53.3419  53.3806  53.5637
    53.7810  53.8043  54.0813  54.1990  54.3338  54.5005  54.6139  54.8824
    55.1767  55.4071  55.4954  55.9916  56.0671  56.1182  56.3377  56.5550
    56.5848  56.7259  56.9632  57.4042  57.4773  57.7411  57.8511  58.1455
    58.1953  58.3655  58.4735  58.5807  58.7002  58.8805  58.9598  59.2607
    59.5446  59.6811  59.8148  59.9954  60.4169  60.4526  60.5386  60.8612
    60.9896  61.1100  61.3020  61.4012  61.4433  62.1380  62.3327  62.3475
    62.5153  62.9208  63.0320  63.0870  63.6493  63.9282  64.0701  64.1851
    64.3302  64.4369  64.7719  64.8722  65.1702  65.1800  65.2213  65.7134
    65.8056  65.8967  65.9984  66.3184  66.4252  66.5211  66.8092  67.0343
    67.0584  67.4426  67.4448  67.9286  67.9419  68.1845  68.3672  68.4398
    68.7457  68.9120  69.2052  69.5143  69.6712  69.7229  70.1751  70.4941
    70.6387  70.6880  70.8526  71.0037  71.0958  71.1792  71.7097  72.0244
    72.2523  72.5579  72.7771  72.9325  73.0951  73.2541  73.4188  73.4789
    73.6218  73.6987  74.0884  74.1336  74.4342  74.8577  74.8915  75.0411
    75.1676  75.5635  75.7210  75.8508  75.9315  76.0639  76.3587  76.7478
    76.9050  77.1212  77.2236  77.2882  77.4764  77.4994  77.7774  77.9467
    78.0453  78.1344  78.3102  78.3892  78.4599  78.5818  78.8195  78.8234
    79.0028  79.1814  79.2179  79.2473  79.2972  79.4800  79.9427  80.0758
    80.0991  80.1855  80.3497  80.6543  80.8214  80.9858  81.1115  81.1525
    81.4549  81.5724  81.7409  82.1272  82.1378  82.4804  82.5197  82.5245
    82.9200  83.0669  83.0732  83.3035  83.5247  83.6653  83.7564  84.1268
    84.1760  84.3638  84.4544  84.6678  84.6851  84.7600  84.7878  84.9304
    84.9388  85.1394  85.1934  85.3188  85.3384  85.4792  85.6340  85.6353
    85.8216  85.9320  85.9447  86.1332  86.2567  86.2743  86.3300  86.6042
    86.7838  86.8545  86.8790  86.9058  87.1342  87.1389  87.2248  87.2948
    87.4677  87.5142  87.5468  87.6235  87.6832  87.9204  87.9623  88.0452
    88.1162  88.2239  88.2733  88.5839  88.7593  88.8393  89.0212  89.1570
    89.2535  89.3922  89.4764  89.6149  89.8551  89.9646  89.9989  90.3725
    90.3875  90.5384  90.5887  90.5992  90.6524  91.0771  91.1094  91.2272
    91.2606  91.4167  91.5846  91.7274  91.7502  91.9245  92.0550  92.4075
    92.4852  92.5783  92.6580  92.7894  92.9405  92.9972  93.2370  93.3483
    93.5187  93.6842  93.7090  93.9197  94.0316  94.1331  94.2235  94.3090
    94.4691  94.5009  94.5659  94.6057  94.8629  95.0047  95.2571  95.5253
    95.5281  95.6815  95.7303  95.9343  96.0082  96.1326  96.2662  96.3678
    96.5161  96.7085  96.8534  97.0448  97.1197  97.1517  97.5151  97.6237
    97.6565  97.9160  97.9663  98.1707  98.2973  98.3024  98.4574  98.6216
    98.6639  98.9014  98.9162  99.0302  99.0759  99.3388  99.4349  99.5022
    99.6367  99.6376  99.7521  99.8463  99.8850  99.9607  99.9622 100.1485
   100.2009 100.3643 100.5830 100.9074 100.9358 101.0719 101.2400 101.3515
   101.4200 101.4401 101.4980 101.6845 101.7127 101.9022 102.0532 102.1800
   102.2697 102.3152 102.5320 102.5724 102.8870 103.0144 103.1034 103.3709
   103.4947 103.5004 103.6244 103.6734 103.7627 103.8266 103.9838 104.0626
   104.2894 104.4262 104.4408 104.5559 104.6738 104.8264 104.9553 105.0124
   105.1546 105.4063 105.4942 105.6257 105.9670 106.1394 106.2559 106.2902
   106.5946 106.7791 106.8149 106.9052 106.9607 107.0559 107.1914 107.3379
   107.4190 107.4778 107.5553 107.5784 107.7474 108.0121 108.0481 108.0505
   108.0907 108.2961 108.3769 108.5004 108.5742 108.7279 108.8386 109.3234
   109.4359 109.5521 109.6113 109.9005 109.9466 110.1640 110.2557 110.3106
   110.4765 110.5809 110.6874 110.8977 110.9316 111.0685 111.0861 111.2934
   111.3795 111.4449 111.5476 111.7427 111.8284 111.9937 112.2316 112.2386
   112.5294 112.6444 112.7282 112.9811 113.0539 113.0760 113.2861 113.3068
   113.4639 113.5016 113.6910 113.9706 113.9829 114.1184 114.2281 114.3596
   114.4745 114.5371 114.5627 114.6405 114.6730 114.7844 114.8070 114.9375
   115.2658 115.3143 115.3381 115.3678 115.4604 115.5860 115.6676 115.7190
   115.7992 115.8157 116.0983 116.1041 116.3222 116.3906 116.4488 116.7554
   116.9061 116.9920 117.0030 117.0902 117.1799 117.2260 117.3219 117.4103
   117.4530 117.5202 117.5653 117.8392 117.9879 118.3196 118.3863 118.4685
   118.7221 118.7259 118.9349 119.1181 119.1433 119.1589 119.2404 119.3211
   119.3935 119.6120 119.7393 119.7710 119.8238 119.8482 119.9448 119.9946
   120.0296 120.0536 120.1523 120.2232 120.2967 120.3527 120.3812 120.6240
   120.7203 120.8440 120.9583 121.0140 121.1036 121.1152 121.2847 121.4990
   121.5659 121.6676 121.8990 121.9214 121.9747 122.6453 122.7165 122.7400
   122.7868 122.9037 123.1606 123.2772 123.3929 123.5231 123.6195 123.6414
   123.7515 123.7851 123.8760 124.1770 124.1900 124.2611 124.2946 124.4058
   124.6536 124.8641 124.9077 125.0608 125.0882 125.1466 125.2777 125.3045
   125.3534 125.4590 125.6326 125.6544 125.7164 125.7556 125.8619 125.9479
   126.0489 126.1200 126.1353 126.2123 126.4075 126.5289 126.5356 126.6824
   126.7432 126.7600 126.9438 126.9639 127.0611 127.0798 127.2117 127.3845
   127.4816 127.5835 127.6066 127.7818 127.7949 127.8394 127.8670 127.9745
   127.9994 128.1341 128.2673 128.4341 128.6068 128.6178 128.7989 129.0336
   129.2325 129.2632 129.3035 129.4260 129.4653 129.6454 129.8712 129.8954
   130.0604 130.3022 130.6298 130.7156 130.7922 130.9630 131.0693 131.0917
   131.2156 131.2875 131.3616 131.5192 131.6303 131.6455 131.8967 131.9472
   132.0111 132.2783 132.3238 132.3579 132.5748 132.6086 132.6261 132.7289
   132.8340 133.1710 133.4389 133.4486 133.4765 133.8008 134.0991 134.1914
   134.3224 134.3554 134.4430 134.6971 134.9509 134.9806 135.0441 135.1856
   135.2395 135.2979 135.3980 135.4499 135.6335 135.7734 135.8244 135.9197
   135.9840 135.9843 136.0941 136.1963 136.2106 136.3828 136.4507 136.5989
   136.7608 136.9417 136.9524 137.0311 137.0314 137.4375 137.7907 137.8491
   138.1916 138.1949 138.3407 138.3802 138.4119 138.6221 138.8910 138.9938
   139.1227 139.1655 139.5665 139.5875 139.6214 139.7133 139.8333 140.1390
   140.1797 140.2987 140.3852 140.4424 140.6738 140.8105 140.8716 140.9001
   141.0382 141.0624 141.1835 141.3675 141.4447 141.4788 141.6307 141.7718
   141.9394 142.4234 142.4547 142.5469 142.5872 142.7359 142.8237 142.8971
   142.9633 143.2672 143.4899 143.6972 143.7462 143.9122 144.0251 144.1326
   144.2894 144.6110 144.8792 145.1220 145.3191 145.3217 145.4089 145.5711
   145.5886 145.8574 145.9470 145.9543 146.2026 146.2035 146.5432 146.8007
   146.8778 147.1075 147.1502 147.2805 147.3788 147.3961 147.5683 147.7067
   147.7590 147.7777 147.8493 148.0201 148.0550 148.2292 148.3489 148.4439
   148.4700 148.7668 148.7858 148.7993 148.8855 149.0499 149.0730 149.2464
   149.3860 149.4662 149.5394 149.6571 149.8461 150.0517 150.0952 150.1166
   150.3280 150.5552 150.7996 150.8379 150.9820 151.0254 151.1215 151.2760
   151.5792 151.6214 151.7528 151.7582 151.8754 151.9352 152.1237 152.2091
   152.2700 152.5388 152.5976 152.6697 152.6995 152.7870 152.7988 153.1561
   153.1855 153.3557 153.3824 153.3965 153.6090 153.6390 153.7101 153.9365
   154.0143 154.0334 154.2969 154.2981 154.6833 154.7019 155.0216 155.0813
   155.2081 155.4333 155.5600 155.6322 155.7055 155.9526 156.0401 156.1841
   156.4734 156.5282 156.5602 156.7497 156.8354 157.0478 157.1552 157.4429
   157.4549 157.6916 157.8211 157.9269 157.9560 158.1532 158.2316 158.3031
   158.4705 158.5152 158.5715 158.6359 158.7890 158.9314 159.1616 159.1649
   159.2337 159.3211 159.3797 159.5336 159.6327 159.7534 159.7672 159.8679
   159.9470 159.9814 160.1576 160.1874 160.2250 160.3215 160.5207 160.5595
   160.6327 160.6727 160.8283 160.8538 160.9708 160.9712 161.0577 161.1739
   161.3030 161.3237 161.4010 161.5018 161.5059 161.6724 161.8079 161.9058
   161.9520 161.9888 162.2140 162.2320 162.3318 162.6030 162.7057 162.7365
   162.7839 162.8707 162.8788 162.9239 163.2403 163.2907 163.3667 163.3955
   163.4550 163.5020 163.8371 163.8908 164.1506 164.5645 164.5725 164.7326
   164.7864 164.9200 165.1132 165.1563 165.2333 165.3920 165.5051 165.5560
   165.5912 165.6049 165.7090 165.7885 165.8990 166.1005 166.1736 166.2164
   166.2396 166.3895 166.5168 166.5947 166.6127 166.7860 166.8916 167.0434
   167.1933 167.2655 167.3230 167.3665 167.3968 167.5772 167.6938 167.7546
   167.7769 167.8490 168.0238 168.3422 168.4510 168.5416 168.7291 168.7589
   168.8351 168.9433 169.0516 169.1156 169.2495 169.2704 169.3864 169.4989
   169.6790 169.6935 169.7200 169.8024 169.8943 170.0669 170.0721 170.2547
   170.2944 170.3852 170.5766 170.7803 170.8466 170.8663 170.9294 171.0589
   171.0732 171.0981 171.2242 171.4023 171.5632 171.5954 171.6519 171.7672
   171.8134 171.8597 171.9827 172.0751 172.1937 172.2482 172.2610 172.4012
   172.4728 172.5249 172.5816 172.6287 172.6765 172.8610 172.9013 172.9873
   173.0590 173.1340 173.2602 173.2963 173.3507 173.4058 173.8809 173.9759
   174.0430 174.1961 174.2721 174.3014 174.6141 174.8757 174.9152 174.9909
   175.2591 175.2732 175.3229 175.6708 175.7072 175.7372 175.7733 175.8715
   176.1011 176.1151 176.2325 176.2380 176.2812 176.4031 176.5050 176.5340

     the Fermi energy is    -0.4820 ev
     (compare with:    -0.9188 eV, computed in scf)

     Writing all to output data dir out/MoSe2.save/
 
     init_run     :      0.06s CPU      0.09s WALL (       1 calls)
     electrons    :    162.07s CPU    172.61s WALL (       1 calls)

     Called by init_run:
     wfcinit      :      0.00s CPU      0.00s WALL (       1 calls)
     potinit      :      0.01s CPU      0.01s WALL (       1 calls)
     hinit0       :      0.02s CPU      0.04s WALL (       1 calls)

     Called by electrons:
     c_bands      :    162.07s CPU    172.60s WALL (       1 calls)
     v_of_rho     :      0.01s CPU      0.01s WALL (       1 calls)

     Called by c_bands:
     init_us_2    :      0.00s CPU      0.00s WALL (      10 calls)
     init_us_2:cp :      0.00s CPU      0.00s WALL (      10 calls)
     paro_k       :    156.16s CPU    166.34s WALL (      10 calls)

     Called by paro_*:
     h_psi        :     20.94s CPU     21.40s WALL (    1740 calls)
     g_psi        :      0.15s CPU      0.17s WALL (  157333 calls)

     Called by h_psi:
     h_psi:calbec :      0.44s CPU      0.46s WALL (    1740 calls)
     vloc_psi     :     20.19s CPU     20.62s WALL (    1740 calls)
     add_vuspsi   :      0.22s CPU      0.23s WALL (    1740 calls)

     General routines
     calbec       :      0.44s CPU      0.45s WALL (    1740 calls)
     fft          :      0.01s CPU      0.02s WALL (      10 calls)
     fftw         :     19.51s CPU     19.91s WALL (  251968 calls)
 
     Parallel routines
 
     PWSCF        :   2m44.11s CPU   2m55.67s WALL

 
   This run was terminated on:  15:57:28   7Apr2024            

=------------------------------------------------------------------------------=
   JOB DONE.
=------------------------------------------------------------------------------=
