
     Program PWSCF v.7.1 starts on 17Nov2023 at  2:16:58 

     This program is part of the open-source Quantum ESPRESSO suite
     for quantum simulation of materials; please cite
         "P. Giannozzi et al., J. Phys.:Condens. Matter 21 395502 (2009);
         "P. Giannozzi et al., J. Phys.:Condens. Matter 29 465901 (2017);
         "P. Giannozzi et al., J. Chem. Phys. 152 154105 (2020);
          URL http://www.quantum-espresso.org", 
     in publications or presentations arising from this work. More details at
     http://www.quantum-espresso.org/quote

     Parallel version (MPI), running on    24 processors

     MPI processes distributed on     1 nodes
     123146 MiB available memory on the printing compute node when the environment starts
 
     Reading input from pw_mp-612118_nscf_k350_E87.in
Warning: card &IONS ignored
Warning: card / ignored
Warning: card &CELL ignored
Warning: card / ignored

     Current dimensions of program PWSCF are:
     Max number of different atomic species (ntypx) = 10
     Max number of k-points (npk) =  40000
     Max angular momentum in pseudopotentials (lmaxx) =  4

     Atomic positions and unit cell read from directory:
     out/mp-612118.save/
 
 
     R & G space division:  proc/nbgrp/npool/nimage =      24
     Subspace diagonalization in iterative solution of the eigenvalue problem:
     one sub-group per band group will be used
     scalapack distributed-memory algorithm (size of sub-group:  4*  4 procs)

 
     Parallelization info
     --------------------
     sticks:   dense  smooth     PW     G-vecs:    dense   smooth      PW
     Min          59      59     17                 1493     1493     235
     Max          60      60     18                 1498     1498     238
     Sum        1417    1417    421                35845    35845    5673
 
     Using Slab Decomposition
 


     bravais-lattice index     =            2
     lattice parameter (alat)  =      10.9472  a.u.
     unit-cell volume          =     327.9847 (a.u.)^3
     number of atoms/cell      =            1
     number of atomic types    =            1
     number of electrons       =         8.00
     number of Kohn-Sham states=         1688
     kinetic-energy cutoff     =      87.0000  Ry
     charge density cutoff     =     348.0000  Ry
     Exchange-correlation= PBE
                           (   1   4   3   4   0   0   0)

     celldm(1)=  10.947237  celldm(2)=   0.000000  celldm(3)=   0.000000
     celldm(4)=   0.000000  celldm(5)=   0.000000  celldm(6)=   0.000000

     crystal axes: (cart. coord. in units of alat)
               a(1) = (  -0.500000   0.000000   0.500000 )  
               a(2) = (   0.000000   0.500000   0.500000 )  
               a(3) = (  -0.500000   0.500000   0.000000 )  

     reciprocal axes: (cart. coord. in units 2 pi/alat)
               b(1) = ( -1.000000 -1.000000  1.000000 )  
               b(2) = (  1.000000  1.000000  1.000000 )  
               b(3) = ( -1.000000  1.000000 -1.000000 )  


     PseudoPot. # 1 for Kr read from file:
     /usr/scratch4/magr4985/MG/HTDF/pseudo/SG15/Kr.upf
     MD5 check sum: 4a275f71d3bc7366299250ec96e82e35
     Pseudo is Norm-conserving, Zval =  8.0
     Generated using ONCVPSP code by D. R. Hamann
     Using radial grid of  602 points,  6 beta functions with: 
                l(1) =   0
                l(2) =   0
                l(3) =   1
                l(4) =   1
                l(5) =   2
                l(6) =   2

     atomic species   valence    mass     pseudopotential
        Kr             8.00    83.79800     Kr( 1.00)

     48 Sym. Ops., with inversion, found



   Cartesian axes

     site n.     atom                  positions (alat units)
         1           Kr  tau(   1) = (   0.0000000   0.0000000   0.0000000  )

     number of k points=    29  Gaussian smearing, width (Ry)=  0.0005
                       cart. coord. in units 2pi/alat
        k(    1) = (   0.0000000   0.0000000   0.0000000), wk =   0.0039062
        k(    2) = (  -0.1250000   0.1250000  -0.1250000), wk =   0.0312500
        k(    3) = (  -0.2500000   0.2500000  -0.2500000), wk =   0.0312500
        k(    4) = (  -0.3750000   0.3750000  -0.3750000), wk =   0.0312500
        k(    5) = (   0.5000000  -0.5000000   0.5000000), wk =   0.0156250
        k(    6) = (   0.0000000   0.2500000   0.0000000), wk =   0.0234375
        k(    7) = (  -0.1250000   0.3750000  -0.1250000), wk =   0.0937500
        k(    8) = (  -0.2500000   0.5000000  -0.2500000), wk =   0.0937500
        k(    9) = (   0.6250000  -0.3750000   0.6250000), wk =   0.0937500
        k(   10) = (   0.5000000  -0.2500000   0.5000000), wk =   0.0937500
        k(   11) = (   0.3750000  -0.1250000   0.3750000), wk =   0.0937500
        k(   12) = (   0.2500000   0.0000000   0.2500000), wk =   0.0468750
        k(   13) = (   0.0000000   0.5000000   0.0000000), wk =   0.0234375
        k(   14) = (  -0.1250000   0.6250000  -0.1250000), wk =   0.0937500
        k(   15) = (   0.7500000  -0.2500000   0.7500000), wk =   0.0937500
        k(   16) = (   0.6250000  -0.1250000   0.6250000), wk =   0.0937500
        k(   17) = (   0.5000000   0.0000000   0.5000000), wk =   0.0468750
        k(   18) = (   0.0000000   0.7500000   0.0000000), wk =   0.0234375
        k(   19) = (   0.8750000  -0.1250000   0.8750000), wk =   0.0937500
        k(   20) = (   0.7500000   0.0000000   0.7500000), wk =   0.0468750
        k(   21) = (   0.0000000  -1.0000000   0.0000000), wk =   0.0117188
        k(   22) = (  -0.2500000   0.5000000   0.0000000), wk =   0.0937500
        k(   23) = (   0.6250000  -0.3750000   0.8750000), wk =   0.1875000
        k(   24) = (   0.5000000  -0.2500000   0.7500000), wk =   0.0937500
        k(   25) = (   0.7500000  -0.2500000   1.0000000), wk =   0.0937500
        k(   26) = (   0.6250000  -0.1250000   0.8750000), wk =   0.1875000
        k(   27) = (   0.5000000  -0.0000000   0.7500000), wk =   0.0937500
        k(   28) = (  -0.2500000  -1.0000000   0.0000000), wk =   0.0468750
        k(   29) = (  -0.5000000  -1.0000000   0.0000000), wk =   0.0234375

     Dense  grid:    35845 G-vectors     FFT dimensions: (  45,  45,  45)

     Estimated max dynamical RAM per process >     221.39 MB

     Estimated total dynamical RAM >       5.19 GB

     The potential is recalculated from file :
     out/mp-612118.save/charge-density

     Starting wfcs are random

     Band Structure Calculation
     Davidson diagonalization with overlap

     ethr =  5.00E-06,  avg # of iterations =  7.6

     total cpu time spent up to now is     3993.7 secs

     End of band structure calculation

          k = 0.0000 0.0000 0.0000 (  4573 PWs)   bands (ev):

   -17.6027  -3.1441  -3.1441  -3.1441   4.0774  10.4512  10.4512  10.4512
    12.8071  12.8071  14.1186  16.5310  16.5310  16.5310  18.3862  26.1964
    26.1964  26.1964  27.3615  27.3615  27.3615  30.2419  30.2419  32.2306
    32.2306  32.2306  32.8299  39.9139  39.9139  41.9702  41.9702  41.9702
    42.7777  42.7777  42.7777  44.4112  44.6553  44.6553  44.6553  46.6612
    46.6612  46.6612  46.9874  46.9874  46.9874  47.1385  48.8428  48.8428
    48.8428  49.4386  49.4386  52.5558  52.5558  52.5558  52.6058  52.9064
    52.9064  52.9064  53.3613  65.7144  65.7144  67.8857  67.8857  67.8857
    69.6900  71.0275  71.0275  71.0275  75.0898  75.0898  75.6960  75.6960
    75.6960  75.7845  75.7845  75.7845  80.9853  82.2743  82.2743  82.2743
    83.0427  83.0427  83.0427  83.7139  83.7139  83.7139  83.9271  83.9271
    84.4191  84.4191  84.5825  85.5081  85.5081  85.5081  86.0047  86.0047
    86.0047  86.8473  86.8473  86.8473  87.6823  88.4927  88.4927  88.4927
    88.5263  88.5263  88.5263  88.9419  88.9419  88.9419  89.0284  89.0284
    90.1789 100.3797 100.3797 100.3797 101.8685 102.8603 102.8603 102.9506
   102.9506 102.9506 104.3326 104.3326 104.3326 104.3459 104.3459 104.3459
   104.3792 104.3792 104.3792 104.4337 104.4337 104.6197 104.6197 104.6197
   107.2938 111.6426 111.6426 113.7257 113.7257 113.7257 115.6549 117.8319
   117.8319 117.8319 118.1572 118.1572 118.1572 118.2254 118.2254 118.2254
   118.2388 118.2388 118.2388 118.3731 118.3731 118.3731 118.4741 118.9191
   118.9191 118.9191 120.3771 121.0572 121.0572 121.1041 121.1041 121.1041
   121.2161 132.2104 132.2104 132.2104 133.9244 133.9244 136.0896 136.0896
   136.0896 137.4042 137.4042 137.4042 140.4637 145.7441 145.7441 146.5675
   146.5675 146.5675 150.0546 150.0900 150.0900 150.0900 150.6083 150.6083
   150.6083 150.6349 150.6349 150.6349 150.7092 150.7092 150.7092 151.6605
   151.6605 151.6605 151.7689 151.7689 151.9591 151.9591 151.9591 152.1585
   152.6078 152.6078 152.7867 152.7867 152.7867 153.1072 153.1463 153.1463
   153.1463 155.4871 155.4871 155.4871 155.6259 155.6259 155.7875 155.7875
   155.7875 156.0425 156.0425 156.0425 156.1477 156.4772 156.4772 156.9135
   157.0647 157.0647 157.0647 158.8251 158.8251 158.8251 158.9111 158.9111
   158.9111 159.0726 159.5592 159.9370 159.9370 159.9370 159.9796 159.9796
   160.2508 160.2508 160.2508 160.3311 160.3311 160.3311 160.3360 160.3360
   160.3360 160.3424 160.3424 170.8542 170.8542 173.9536 173.9536 173.9536
   174.6761 174.6761 174.6761 175.1651 175.5441 175.5441 175.5441 175.5957
   175.5957 175.5957 175.6786 175.6786 175.6786 177.0478 177.1991 177.1991
   177.1991 177.2539 177.2539 181.7412 181.7412 181.7412 186.3555 186.5095
   186.5095 186.5324 186.5324 186.5324 186.9665 188.2938 188.2938 188.2938
   188.3147 188.3147 188.5062 188.5062 188.5062 188.5257 188.5257 188.5257
   188.6323 188.6323 188.6323 193.8667 193.8667 194.5914 194.5914 194.5914
   194.8940 194.9132 194.9132 194.9132 195.0004 195.0004 195.0004 195.0045
   195.0045 195.0045 195.0427 195.0560 195.0560 195.0560 195.1082 195.1082
   195.1511 195.1511 195.1511 205.4525 205.4525 205.4525 207.1247 207.1247
   211.9507 211.9507 211.9507 211.9671 212.0096 213.2669 213.2669 213.2669
   217.6157 217.6157 217.6157 217.7301 217.7301 217.7301 217.7957 218.7549
   218.7549 219.8634 219.8634 219.8634 220.0093 225.1047 225.1047 225.1047
   225.3351 225.3351 225.3351 225.4725 225.4725 225.4725 225.4857 225.4857
   225.4857 226.1472 226.1472 226.1472 226.2069 226.2069 226.2069 226.2125
   226.2125 226.2879 226.2879 226.2879 226.3687 228.4819 228.4819 228.5024
   228.5024 228.5043 228.5043 228.5043 228.5122 229.0357 229.2046 229.2046
   229.2046 229.3201 229.3201 229.3201 229.3308 229.3308 229.3308 231.5106
   231.5106 231.5106 231.6470 231.6470 231.8618 231.8618 231.8618 232.0092
   232.0233 232.0233 232.0233 237.4753 237.4753 237.4753 240.9850 240.9850
   244.6647 244.7044 245.0066 245.0066 245.0066 245.6273 245.6273 245.6273
   245.7131 245.7131 245.7586 245.7586 245.7586 245.8746 245.8746 245.8746
   245.9440 245.9440 245.9440 247.6352 247.6352 247.6352 247.6605 247.6605
   247.6679 247.6679 247.6679 247.6743 247.6743 247.6743 247.6940 247.6940
   247.6940 247.6981 247.6981 248.2824 248.4013 248.4013 248.4013 248.4483
   248.4561 248.4561 248.4561 254.3562 254.3562 257.3905 257.3905 257.3905
   258.4338 258.7210 258.7210 258.7210 259.0656 259.0656 259.0656 259.1403
   259.1403 259.1403 259.1660 259.1660 259.1660 259.4716 259.4716 259.4716
   259.8720 259.9655 259.9655 259.9655 259.9989 259.9989 260.2692 260.5017
   260.7504 260.7504 260.7504 262.1298 262.1298 262.1298 262.1414 262.1414
   262.1874 262.1874 262.1874 262.1885 262.1885 262.2239 262.2239 262.2239
   262.2552 262.2552 262.2552 262.6985 262.6985 262.6985 262.7034 262.7034
   262.7767 263.3024 263.3024 263.3024 263.3117 263.3117 263.3117 263.3655
   263.3655 263.3655 263.3892 263.3892 263.3892 263.6058 263.7352 263.7352
   263.7352 263.7864 263.7864 277.8097 277.8097 282.2460 282.3823 282.3823
   282.3823 285.4257 285.4257 285.4257 289.6993 289.6993 294.7227 294.7392
   295.0667 295.0667 295.0667 295.1896 295.1896 295.1896 295.1915 295.1915
   295.1915 295.2108 295.2108 295.2108 295.2681 295.2681 295.7322 295.7322
   295.7322 298.1992 298.1992 299.8192 300.1175 300.1175 300.1175 300.5167
   300.5167 300.5167 300.7316 300.7316 300.7316 300.7976 300.7976 300.7976
   300.8811 300.8811 300.8811 300.8999 300.8999 300.8999 301.2992 301.3773
   301.7420 301.7420 301.7420 302.4377 302.4952 302.4952 302.4952 302.5127
   302.5127 302.9793 302.9793 302.9793 303.0095 303.0095 303.0112 303.0112
   303.0165 303.0165 303.0165 303.0185 303.0185 303.0185 303.0382 303.0382
   303.0382 308.9822 308.9822 308.9822 311.4145 311.4145 315.0641 315.0641
   315.0641 315.0787 316.2160 316.2160 316.2160 318.3401 318.3401 319.1862
   319.1862 319.1862 319.4572 319.4572 319.4572 319.4659 319.4659 319.4727
   319.4978 319.4978 319.4978 319.5020 319.5020 319.5020 319.5544 319.5544
   319.5544 319.7999 320.1780 320.1780 320.1780 326.2336 326.2336 326.2336
   327.7784 327.7784 329.8292 329.8292 329.8292 329.9666 330.1240 330.1240
   330.2238 330.2677 330.2677 330.2677 330.2769 330.2769 330.2769 330.3160
   330.3160 330.3160 330.7977 330.7977 330.7977 330.7988 330.7988 330.7988
   331.0127 331.0701 331.0701 331.0936 331.0936 331.0936 331.4037 331.4037
   331.4037 332.7637 332.7637 332.7637 332.7661 332.9179 332.9696 332.9696
   332.9696 334.7224 334.8067 334.8067 334.8067 334.8845 334.8845 334.8845
   334.9185 334.9185 334.9185 334.9647 334.9647 338.5423 338.5423 338.5423
   338.5894 338.5894 338.6286 338.6286 338.6286 338.7642 338.8029 338.8029
   338.8029 339.2326 339.2326 339.2326 339.2353 339.2353 339.3234 339.3234
   339.3234 339.3238 339.3238 339.3238 339.4370 349.2476 349.2476 352.3502
   352.3502 352.3502 354.6637 354.7026 354.7026 354.7026 354.7481 354.7481
   354.7481 354.7623 354.7623 354.7623 354.8126 354.8126 354.8462 354.8754
   354.8754 354.8754 355.6067 355.6067 355.6067 359.7043 359.7043 360.0902
   360.0902 360.0902 363.1086 363.4579 363.4579 363.4579 365.0186 365.2379
   365.2658 365.2658 365.7988 365.7988 365.7988 365.8049 365.8049 365.8049
   365.8558 365.8558 365.9261 365.9261 365.9261 365.9827 365.9827 365.9827
   367.4404 367.4404 367.4404 367.8212 367.8212 367.8212 367.8218 367.8218
   367.8953 367.8953 367.8953 367.9217 367.9217 367.9217 367.9557 367.9557
   367.9557 368.0178 368.0178 368.5977 368.6611 368.6611 368.6611 368.7179
   368.7179 368.7179 368.7766 368.8571 368.8571 368.8571 368.8911 368.8911
   368.8911 368.9086 368.9086 368.9086 368.9123 368.9123 368.9123 371.7671
   371.8127 371.8127 371.8127 371.8359 371.8359 373.3141 373.3141 373.5456
   373.5456 373.5456 373.6109 373.6569 373.7231 373.7231 373.7231 373.7755
   373.7755 373.7755 373.8040 373.8040 373.8040 373.8266 373.8266 373.8266
   373.8305 373.8305 374.0613 374.0613 374.0613 374.5950 374.6224 374.6338
   374.6338 374.6338 374.6539 374.6539 374.6539 374.6560 374.6560 374.6560
   374.6714 374.6714 374.6856 374.6856 374.7065 374.7065 374.7065 374.7158
   374.7158 374.7158 374.7203 374.7203 374.7203 388.3357 388.3357 388.3357
   389.7840 389.8134 390.2022 390.2022 390.2022 391.7202 391.7202 391.8367
   391.8367 391.8367 391.8729 391.8729 391.8794 391.8794 391.8794 391.8820
   391.8820 391.8820 391.8890 391.8890 391.8890 397.6422 397.6422 401.0162
   401.0162 401.0162 401.5692 401.9622 401.9622 401.9622 402.0827 402.0827
   402.0827 402.1119 402.1119 402.1119 402.6463 402.6463 402.6463 402.9426
   402.9978 402.9978 402.9978 403.0109 403.0109 405.7648 405.7842 405.7842
   405.7842 405.8147 405.8147 406.4978 406.4978 406.4978 406.5333 406.5333
   406.5333 406.5429 406.5429 406.5429 406.5440 406.5440 406.5440 406.9523
   406.9891 406.9891 406.9891 407.0055 407.0055 421.5668 421.5668 421.5668
   424.0378 424.0378 425.5162 425.5769 425.5769 425.5769 425.5865 425.5930
   425.5930 425.5930 425.5966 425.5966 425.5966 425.6108 425.6108 425.6108
   425.6161 425.6161 426.2411 426.2411 426.2411 429.8964 429.8964 429.8964
   430.7006 430.7006 432.5595 432.6236 432.6236 432.6236 433.7605 433.7605
   433.7605 438.4677 438.4677 438.4677 438.9478 438.9622 439.1179 439.1179
   439.1218 439.1218 439.1218 440.2304 440.2304 440.2304 440.4489 440.4489
   440.4489 440.4554 440.4554 440.4554 440.4597 440.4597 440.4597 440.4895
   440.4895 440.4997 440.4997 440.4997 440.6428 440.6688 441.0390 441.0390
   441.0390 441.1682 441.1682 441.1836 441.1836 441.1930 441.1930 441.1930
   441.2550 441.2550 441.2550 441.2694 441.2694 441.2694 441.3131 441.3131
   441.3131 441.4144 441.4418 441.4418 441.4418 441.4564 441.4564 441.4564
   441.4565 441.4565 441.4659 441.4659 441.4659 442.9095 442.9095 443.4722
   443.6462 443.6462 443.6462 444.1566 444.1566 444.1732 444.1848 444.1848
   444.1848 444.2312 444.2312 444.2312 444.2466 444.2466 444.2466 446.8843
   446.8843 446.8843 446.9246 446.9246 447.0044 447.0044 447.0044 447.0434
   447.1253 447.1253 447.1253 458.4406 458.4406 458.8213 458.8213 458.8213
   460.7628 460.7628 460.7892 460.7892 460.7892 460.7940 460.7940 460.7940
   460.8608 460.8608 460.8608 460.9273 460.9391 461.0091 461.0091 461.0091
   461.0778 461.0778 461.1685 461.1685 461.1685 461.1945 461.9510 461.9510
   461.9510 462.0650 462.0650 462.0650 462.0902 462.0902 462.0902 462.0977
   462.0977 462.0977 462.1042 462.1042 462.1042 462.4907 462.5460 462.5460
   462.5460 462.5861 462.5861 462.5861 462.5919 462.5919 462.5929 462.6906
   462.6906 462.6906 462.7160 462.7160 462.7160 462.7258 462.7258 462.7258
   462.7424 462.7424 462.7424 462.7461 462.7461 463.7663 463.7663 463.7683
   463.7683 463.7683 463.7693 473.4579 473.4579 473.8269 473.8269 473.8269
   474.2979 474.3190 474.3190 474.3190 474.3194 474.3319 474.3319 474.3356
   474.3356 474.3356 474.3421 474.3421 474.3421 474.3551 474.3551 474.3551
   474.5455 474.5455 474.5455 476.1328 476.1328 476.1328 476.6003 476.6124
   476.6124 476.6124 476.6179 476.6179 476.6183 476.6183 476.6273 476.6273
   476.6273 476.6483 476.6483 476.6483 476.7329 476.7452 476.7452 476.7452
   476.9975 476.9975 476.9975 478.1558 478.1972 478.1972 478.1972 478.2496
   478.2496 478.2496 478.2519 478.2519 478.2519 478.2712 478.2712 478.3243
   478.3243 478.3243 478.3386 478.3386 478.3386 478.3492 478.3492 478.3492
   478.3493 478.3493 478.3508 480.4886 480.4886 480.4886 480.6433 480.6530
   480.6530 480.6554 480.7157 480.7293 480.7293 480.7293 480.7340 480.7340
   480.7340 480.7491 480.7491 480.8080 480.8080 480.8080 480.8190 480.8190
   480.8190 480.8231 480.8231 480.8231 480.8345 480.8345 480.8345 481.0806
   481.2368 481.2368 481.2368 506.8426 506.8426 506.8426 507.8328 507.8328
   508.8720 508.8778 509.0119 509.0119 509.0119 509.1047 509.1047 509.1047
   509.1156 509.1156 509.1156 509.1207 509.1207 509.1207 509.1405 509.1405
   509.4318 509.4318 509.4318 511.1637 511.1637 511.1637 511.1680 511.1680
   511.2164 511.2164 511.2164 511.2320 511.2320 511.2320 511.2329 511.2329
   511.2652 511.2652 511.2652 511.3758 511.3758 511.3758 511.3814 511.3814
   511.3814 511.3885 511.4157 515.4737 515.4737 515.8130 515.8470 515.8470
   515.8470 515.8969 515.8969 515.8969 515.9295 515.9316 515.9316 515.9316
   515.9389 515.9389 515.9563 515.9563 515.9563 515.9975 515.9975 515.9975
   516.0121 516.0121 516.0121 516.3141 516.3141 516.3141 516.4565 516.6520
   516.7036 516.7036 516.7036 516.9505 516.9505 516.9848 516.9848 516.9848
   516.9928 516.9928 516.9928 517.0311 517.0311 517.0419 517.0419 517.0419
   517.0915 517.0915 517.0915 518.1091 518.1091 518.1091 518.1328 518.1328
   518.1446 518.1446 518.1446 518.1595 518.1595 518.1595 518.1643 518.1643
   518.1643 518.1756 518.1756 518.5057 518.5114 518.5114 518.5114 518.5179
   518.5179 518.5179 518.5274 533.3278 533.3278 533.6479 533.6479 533.6479
   533.8133 533.8160 533.8160 533.8160 533.8293 533.8293 533.8966 533.8966
   533.8966 533.9012 533.9012 533.9012 533.9060 533.9060 533.9060 534.0271
   534.1458 534.1458 534.1458 535.1636 535.1839 535.1839 535.1839 535.2133
   535.2133 535.2675 535.2675 535.2675 535.2755 535.2755 535.2755 535.2965
   535.2965 535.2965 535.3019 535.3146 535.3146 535.3146 535.3277 535.3277
   535.3520 535.3520 535.3520 541.6825 541.6825 542.2655 542.3321 542.3321
   542.3321 546.1073 546.1073 546.1073 546.4166 546.4329 546.5116 546.5116
   546.5116 548.1403 548.1403 548.1403 548.1692 548.1692 548.1692 548.1793
   548.1793 548.1793 548.1914 548.1914 548.1914 548.5643 548.5643 548.5643
   548.5648 548.5648 548.5738 548.5738 548.5738 548.5817 548.5817 548.6116
   548.6116 548.6116 548.6129 548.6129 548.6129 551.0955 551.1517 551.1517
   551.1517 551.1799 551.1799 565.2271 565.2271 565.2271 565.5640 565.5640
   565.8941 565.9544 565.9544 565.9544 566.0363 566.0363 566.0363 579.5478
   579.5478 579.9417 579.9417 579.9417 580.4343 580.5994 580.5994 580.5994
   580.7503 580.7503 580.7503 580.8139 580.8139 580.8139 580.8184 580.8184
   580.9241 580.9822 580.9822 580.9822 581.0470 581.0470 581.0470 581.1038
   581.1038 581.1038 581.1790 581.2105 581.2105 581.2242 581.2242 581.2242
   581.3091 581.3091 581.3091 581.3219 581.3219 581.3219 581.3659 581.3659
   581.3659 581.5310 581.5385 581.5385 581.5385 581.6780 581.6780 581.7132
   581.7132 581.7132 581.7751 581.7751 581.7751 581.7802 581.7802 581.7802
   581.8764 581.8764 581.8764 581.8857 581.8857 581.9178 581.9178 581.9178
   581.9277 582.1006 582.1006 582.1425 582.1425 582.1425 582.1468 582.1570
   582.1570 582.1570 582.1609 582.1609 582.1862 582.1862 582.1862 582.2126
   582.2429 582.2429 582.2429 584.9078 584.9510 584.9510 584.9510 584.9726
   584.9726 585.6939 585.6939 585.6939 585.7160 585.7160 585.7160 585.7223
   585.7223 585.7223 585.7350 585.7350 585.7350 585.7835 585.8363 585.8363
   585.8363 585.8734 585.8734 585.8734 585.8794 585.8794 585.8794 585.8804
   585.8804 586.2172 586.2172 586.2263 586.2263 586.2263 586.2443 589.1561
   589.1561 589.1739 589.1739 589.1739 589.1945 589.1945 589.1945 589.1998
   589.1998 589.1998 589.2036 589.2096 589.2096 589.2096 589.2427 589.2427
   589.2648 589.2648 589.2648 589.2676 589.2888 589.2888 589.2888 589.6225
   589.6225 589.6225 589.6280 589.6280 589.6462 589.6482 589.6482 589.6482
   589.6667 589.6667 589.6667 590.2643 590.2643 590.2697 590.2697 590.2697
   590.2830 590.2830 590.2830 590.3014 590.3014 590.3014 590.3131 604.5059
   604.5059 604.5059 604.6232 604.6360 604.6798 604.6798 604.6798 605.6865
   605.6865 605.6983 605.6994 605.6994 605.6994 605.7347 605.7347 605.7347
   605.7423 605.7423 605.7423 605.7670 605.7670 605.7670 605.8113 605.8113
   605.8470 605.8895 605.8895 605.8895 605.8909 605.8909 605.8909 606.8423
   606.8423 606.8423 606.8434 606.8434 606.8434 606.8485 606.8485 606.8566
   606.8566 606.8841 606.8841 606.8841 606.8842 606.8842 606.8842 617.0435

          k =-0.1250 0.1250-0.1250 (  4507 PWs)   bands (ev):

   -17.5823  -3.3631  -3.1660  -3.1660   4.4828   9.8994  10.6045  10.6045
    12.4447  12.4447  14.8767  15.7537  17.4783  17.4783  19.9635  23.5268
    24.5079  24.5079  27.6654  27.6654  29.1540  29.6550  29.6550  32.3899
    33.9783  34.4132  34.4132  37.9792  37.9792  38.5102  41.3477  41.3477
    41.5627  43.0465  43.0465  43.8027  43.9781  43.9781  44.1887  45.5007
    45.5007  46.6589  47.0516  48.5558  48.5558  48.8211  48.8211  49.3111
    50.0283  50.3108  51.3646  51.3646  51.5850  53.5617  53.5617  55.3080
    55.3080  55.4522  59.3536  62.5246  62.5246  64.6916  67.5329  67.6983
    67.6983  70.9266  70.9266  73.1123  73.5769  73.5769  75.4675  75.4675
    75.6347  76.1303  77.2801  77.2801  77.4513  78.7315  78.7315  80.4235
    80.8669  80.8669  82.0422  82.2226  82.2226  82.2306  83.0554  83.0554
    83.8725  83.8725  84.1099  84.9155  85.0961  85.0961  85.8599  85.8599
    85.9895  86.8260  88.8625  89.2760  89.2760  90.1616  90.2371  90.2371
    90.5262  90.5262  90.5913  92.5816  92.5816  93.6842  93.8850  95.5127
    95.5819  95.5819  95.7717  95.7717  97.9370  97.9370  99.8277  99.8277
   100.0824 100.2739 102.8874 102.8874 103.8442 104.2101 104.2101 104.7098
   106.2621 106.2621 107.6135 107.9372 107.9372 108.2578 109.0346 109.0346
   109.0373 110.1886 112.0482 112.6435 112.6435 112.9319 112.9319 112.9644
   113.2291 113.2519 113.2519 115.1756 115.1756 115.6941 116.5217 116.5217
   116.5943 117.9200 117.9200 119.8422 121.7756 121.7756 122.3087 123.6481
   123.6481 123.9501 123.9501 124.0572 124.1232 126.5250 126.5250 127.4481
   127.6685 127.6685 127.8712 128.9099 133.0776 133.0776 135.7725 136.1838
   137.1807 137.1807 139.3830 139.3830 140.6882 141.8585 141.8585 142.7587
   142.8758 142.8758 144.1886 144.7680 144.7680 145.8011 146.1247 146.1247
   147.0483 147.5489 147.5489 148.2920 148.7373 148.7373 149.2102 149.3630
   149.4797 149.4797 149.9462 150.0206 150.0206 150.8060 150.8060 151.0828
   151.6869 151.6869 152.5814 152.5879 152.5879 152.7600 152.8962 152.8962
   153.1358 153.2013 153.2013 153.2492 155.6223 155.6223 156.0927 156.3282
   156.3282 156.6067 157.9729 158.1502 158.1502 158.4962 158.4962 158.6850
   158.6850 158.8162 159.5523 159.6129 159.6129 159.9366 160.4551 161.5437
   161.5437 161.7400 162.3973 162.3973 162.5192 162.5651 162.5651 163.5308
   163.5308 164.1618 165.0280 165.0280 165.5996 165.6009 165.6009 166.5225
   167.0205 167.0205 167.1159 167.3924 167.3924 167.4798 169.7549 170.2235
   170.2235 170.6819 171.3557 171.3557 172.1262 172.1262 172.2487 173.3662
   176.2648 176.2648 177.8694 177.8694 178.5636 178.5636 179.5915 180.9229
   181.0305 181.0305 181.2736 182.3690 182.3690 182.8870 183.4413 183.4413
   183.6123 184.0365 184.0365 184.0441 185.4212 185.4212 185.5703 186.3989
   186.3989 186.6937 187.5002 187.5002 187.7868 188.6550 188.6550 188.7238
   188.7238 188.7601 188.8097 191.4398 191.4398 192.7800 193.8207 193.8207
   194.0287 194.2088 194.2088 194.5199 195.2936 196.7206 196.7206 197.2422
   198.7769 199.4613 199.4613 201.2382 201.2382 201.3166 201.3166 201.7381
   201.7973 202.8503 202.8503 204.0367 205.2769 205.2769 206.4511 206.8565
   206.8565 207.5573 208.2531 208.2531 211.8209 212.0492 212.0492 212.5930
   215.2600 215.2600 215.4691 216.4658 216.4658 216.8045 217.2270 217.2270
   217.2675 217.6877 217.8328 217.9128 217.9128 217.9619 217.9619 218.1925
   218.1925 218.6414 220.6548 220.6548 220.9429 221.5914 221.5914 221.6465
   222.4562 222.4562 224.2516 225.6658 225.6658 226.3950 226.4558 226.4558
   226.4634 227.0426 227.2969 227.3061 227.3061 228.5381 228.5665 228.5665
   228.6989 228.6989 228.7352 230.4271 232.1888 232.1888 232.3987 232.3987
   232.8180 232.9111 232.9484 232.9484 233.3141 233.3141 233.5664 233.8044
   233.8626 233.8626 234.4905 234.4905 234.9818 234.9818 235.2450 236.8624
   237.0035 237.1620 237.1620 237.6064 237.6064 237.6459 237.7924 237.7924
   238.4801 240.1080 240.1080 240.5424 240.8194 240.8194 241.1817 242.3010
   242.3010 242.5874 243.2180 243.2180 243.3956 243.9356 243.9356 244.1363
   245.7139 245.7139 245.8636 246.0204 246.2839 246.2839 247.4095 247.5029
   247.5029 247.5925 247.8247 247.8247 247.9701 247.9701 247.9977 248.3623
   248.3623 248.4360 249.9255 249.9255 250.7327 250.7327 250.9857 251.3216
   252.1863 252.1863 252.2496 252.4925 252.4925 252.4994 253.3125 253.3125
   253.7856 254.0235 254.0235 254.3262 254.7027 254.7027 255.0735 255.1462
   255.1462 255.3095 256.1198 256.8396 256.8396 256.9101 257.9265 257.9265
   258.1287 258.5957 258.5957 258.9321 258.9321 258.9581 259.1292 259.1495
   259.1495 259.7557 259.7734 259.7734 261.1571 261.1571 261.7014 261.7014
   261.9912 262.8091 263.8535 263.8535 263.9649 263.9649 264.0602 264.0922
   265.7293 265.7293 265.7790 267.2624 267.2624 268.0120 268.0270 268.0270
   268.1608 269.1561 269.1561 269.5843 269.6449 269.6449 270.3348 270.4950
   270.4950 270.5922 272.4628 272.4628 273.5462 273.7108 274.3580 274.5016
   274.5016 275.3199 275.4000 275.4000 276.9119 276.9119 278.3365 279.9032
   279.9032 283.1134 283.1134 284.5241 284.5241 285.9236 287.3654 287.6537
   287.6778 287.6778 288.6957 288.6957 289.2261 290.3161 290.3161 290.6196
   290.6196 290.6422 291.4689 291.6621 291.8143 291.8143 293.7853 293.7853
   294.0202 294.9521 294.9521 294.9957 295.2836 295.2846 295.2846 295.7752
   295.8940 295.8940 296.3521 296.3547 296.3547 297.7725 297.7725 299.3932
   301.2612 301.2612 301.3686 301.4550 301.4550 302.4437 302.7902 302.7902
   303.0648 304.3872 304.3872 304.4319 305.4781 305.4781 305.6889 306.6209
   306.6209 306.9930 308.0301 308.3052 308.3052 308.4741 308.9174 308.9174
   309.1565 309.1565 309.2522 309.9368 309.9368 310.1267 310.1890 310.1890
   310.7312 310.7312 310.7620 310.9271 311.6783 311.6783 311.9477 311.9716
   311.9716 312.4742 313.1980 313.2390 313.2390 315.0913 315.0913 315.1652
   315.3762 315.4704 315.4704 315.7005 316.1409 316.1409 316.5583 316.7313
   316.7313 316.7741 317.0050 318.0560 318.0560 318.6956 318.7396 318.7396
   321.8461 321.9113 321.9113 323.7213 323.7213 323.8140 323.8442 323.8442
   324.1383 324.8904 324.8904 326.4052 326.5120 326.5120 327.4385 327.6230
   327.6230 327.9703 327.9703 327.9962 328.0209 328.4565 328.4565 328.4586
   328.6390 328.6390 328.6497 328.8711 328.8711 328.9265 330.3419 330.3419
   330.6397 330.6943 330.6943 330.7796 331.3350 331.3350 331.5087 331.8962
   332.2465 332.2465 332.9581 332.9581 333.2341 335.4875 335.4875 335.6296
   335.6322 335.6322 335.7063 337.5352 337.5352 337.6569 337.7328 337.8274
   337.8274 338.1489 338.1489 338.5126 340.0020 340.0020 340.8523 341.2704
   341.2704 341.3019 341.3440 341.3440 341.4795 341.4959 341.4959 341.5178
   342.4682 342.4682 343.0342 343.4789 343.4789 343.6636 344.1066 345.2532
   345.2532 347.7783 348.0919 348.0919 348.7008 348.8417 348.8417 349.3687
   349.3687 349.8407 350.4235 350.4235 350.5565 350.5655 350.7632 350.7632
   350.8002 351.5029 351.5029 351.9455 351.9455 352.2841 353.1255 354.1094
   354.1094 354.5967 354.5967 354.7140 356.1844 356.5864 356.5864 357.1057
   357.7219 357.9324 357.9324 358.2941 358.2941 358.8476 358.8476 358.8706
   358.9318 359.0765 359.0926 359.0926 359.1497 359.1849 359.1849 359.4279
   359.6236 359.6236 360.8669 360.8669 361.1815 361.5339 361.5339 361.6138
   362.5611 362.6889 362.6889 363.2470 363.2470 363.3358 363.4748 363.4748
   363.5013 364.3999 364.3999 364.6085 365.7820 366.1984 366.1984 367.3278
   367.3278 367.3702 367.5456 367.5456 368.0054 368.0054 368.0189 368.0978
   368.2150 368.2150 368.3213 368.3213 368.3297 368.4943 368.5105 368.5105
   368.5852 371.5466 371.5466 371.6793 371.6793 371.7631 372.2088 372.5642
   372.6515 372.6515 373.0072 373.0072 373.0599 373.1436 373.6202 373.6202
   373.6410 374.1874 374.1874 375.5746 375.6890 375.6890 376.4874 376.4874
   376.7914 376.7914 376.8030 377.1035 378.2294 378.2294 378.2873 378.8333
   378.8333 378.9554 379.0703 379.0703 379.1310 380.4158 380.8082 380.8082
   380.9481 380.9481 380.9770 381.1150 381.8311 381.8311 382.1845 382.3636
   382.3636 382.9467 383.0265 383.0265 384.6765 384.6765 385.3695 385.3695
   385.3943 385.4841 385.5038 385.5038 385.5768 386.3085 386.3085 386.3674
   387.4951 387.4951 387.6134 387.6134 387.6357 388.5102 389.0904 389.0904
   389.1965 389.7418 389.9052 389.9052 390.7551 390.7551 390.7613 393.0151
   393.0151 393.1768 393.3074 393.3074 393.4528 394.5555 394.5555 394.7337
   394.9324 394.9324 395.3358 395.7717 395.7955 395.7955 396.5468 396.5468
   396.5674 399.6981 399.7015 399.7015 400.4184 400.4184 400.5760 400.6922
   400.6922 400.7066 406.0279 407.0434 407.0434 407.9982 407.9982 408.1483
   408.4101 409.1459 409.1459 409.3898 409.9656 409.9656 412.6108 412.6108
   413.3875 413.3992 413.3992 413.6219 414.2814 414.2814 415.0029 415.3765
   415.3765 415.8808 416.1483 416.1483 416.5493 416.7281 416.7281 416.8475
   417.0662 417.0662 417.4117 419.7736 419.8839 419.8839 420.1607 420.8317
   420.8634 420.8634 422.4154 422.4154 423.6986 423.6986 423.7610 424.2579
   424.2579 425.1257 425.7368 425.8603 425.8603 425.9510 426.0211 426.0211
   428.5329 428.5329 428.6966 429.3225 429.3225 430.2975 430.2975 430.5578
   430.6482 430.6811 430.7872 430.7872 431.5218 431.5218 431.7144 431.7689
   431.7689 432.1912 432.3811 432.3811 432.5433 432.5540 433.3154 433.3154
   433.6024 433.6024 433.6161 434.6141 434.6141 434.7647 434.7647 434.7742
   434.8286 437.4557 437.4720 437.4720 437.6651 437.7021 437.7021 441.4554
   441.4554 441.4582 441.5335 441.5388 441.5388 441.9842 442.6188 442.6188
   443.4203 443.4203 443.5843 443.5843 443.6064 443.6441 443.6509 443.6509
   443.6853 443.6853 443.7490 443.9713 444.0681 444.0778 444.0778 444.9245
   444.9957 444.9957 446.1897 446.1897 447.5195 447.6861 447.6861 448.0233
   448.0233 448.0556 448.1112 448.1713 448.1713 448.2003 448.2816 448.2956
   448.2956 448.5310 448.5310 448.8923 449.2861 449.2865 449.2865 449.3127
   449.3141 449.3141 449.5742 449.5742 449.6023 450.6559 450.6559 450.8088
   450.8088 450.8173 450.9462 452.5803 452.5803 452.8156 454.2716 454.2716
   454.3117 454.5529 454.5529 454.9195 456.6979 456.9502 456.9502 457.2602
   457.2602 457.3380 457.4212 457.4212 457.4460 457.4502 457.6141 457.6141
   457.6849 457.7193 457.7193 458.2140 458.4463 458.4463 458.5551 458.6739
   458.6739 459.0672 460.0627 460.0627 460.0731 460.4839 460.4839 460.7365
   461.1861 461.1861 461.5502 461.6642 461.7530 461.7530 462.0151 462.0151
   462.0887 462.1233 462.3989 462.3989 462.9094 462.9094 463.0058 463.0664
   463.0874 463.0874 463.0956 463.1314 463.1314 464.4511 464.4511 464.5960
   465.3493 465.3493 465.4324 466.3470 466.3470 466.4797 466.5364 466.5364
   466.5536 469.0794 469.0794 469.4203 469.4203 469.5098 469.5449 470.1949
   470.2132 470.2132 470.2474 470.2695 470.2695 470.6023 470.6023 470.7329
   471.8920 471.8920 471.9590 473.0641 473.0641 473.1651 473.5527 473.5527
   473.6036 473.9263 473.9263 473.9554 474.3010 474.3010 474.3872 474.3872
   474.3888 474.4365 474.4991 474.4991 474.6680 474.7869 474.7953 474.7953
   475.1028 475.1028 475.2853 476.3595 476.3706 476.3706 476.6957 476.6957
   476.7098 478.3390 478.4462 478.4462 478.6822 478.6868 478.6868 478.8656
   478.8656 478.9502 480.0989 480.0989 480.1818 480.2071 480.2604 480.2604
   480.6045 480.7217 480.7217 483.2053 483.2053 483.2316 483.2792 483.2792
   483.2814 487.3201 487.3201 487.3987 487.7608 487.7608 487.7749 489.0261
   489.1965 489.1965 489.2397 489.4944 489.4944 489.8808 489.8840 489.8840
   490.1322 490.1322 490.3177 492.1682 492.1682 492.2075 492.2075 492.2397
   492.2722 492.2722 492.3192 492.4240 494.4318 494.4484 494.4564 494.4564
   494.4601 494.4601 495.8301 495.8684 495.8684 496.6707 496.6707 496.7143
   496.7952 497.2496 497.2496 497.3286 497.3286 497.8431 497.8431 497.9290
   498.0152 498.3547 498.3547 498.6902 500.5090 500.5090 500.5515 500.5779
   500.5805 500.5805 500.9971 502.7097 502.7097 502.8835 502.9583 502.9583
   502.9764 505.6261 505.6261 505.6737 506.9072 506.9072 506.9191 507.8207
   507.8207 508.0609 509.0302 509.2143 509.2143 509.2617 509.2617 509.3019
   509.6740 509.6740 509.7063 510.6107 510.6107 510.6236 510.8631 510.8631
   510.9387 511.0191 511.0510 511.0510 511.9803 511.9803 512.0327 516.0073
   516.0073 516.0327 516.1124 516.1124 516.1753 516.8381 516.8381 516.8601
   517.1525 517.1525 517.5036 517.5036 517.5192 517.5461 517.6033 517.6033
   517.6697 518.9872 519.0122 519.0122 520.0627 520.0627 520.0947 521.1300
   521.1300 521.1844 521.1844 521.2344 521.3002 522.3894 522.3894 522.5393
   522.7789 522.7789 522.8058 522.8910 522.8910 522.9238 522.9238 522.9512
   523.0230 524.6971 524.6971 524.7059 524.7299 524.7720 524.7720 525.2131
   525.9049 525.9049 525.9662 525.9713 525.9713 525.9830 527.5179 527.5179
   527.9659 528.2941 528.2941 528.6518 528.6612 528.6612 529.1973 529.1973
   529.4852 529.7257 529.7257 529.7258 529.8776 529.8776 529.9082 530.5100
   530.5100 530.6236 531.0051 531.0051 531.0426 531.8931 531.8931 531.9967
   532.0007 532.0007 532.0034 535.7407 535.7556 535.7556 536.0518 536.0518
   536.0767 536.5238 537.1142 537.1142 537.6473 537.6473 537.7120 538.3555
   538.3555 538.5423 538.5423 538.5555 538.7599 539.7496 539.7877 539.7877
   539.9538 539.9538 539.9904 541.9921 541.9937 541.9937 543.1874 543.1874
   543.2280 543.5538 543.5538 543.5925 543.5925 543.6298 543.6467 547.8332
   547.8332 548.0252 548.3220 548.3220 548.3333 548.3810 548.3810 548.3910
   551.9284 551.9284 551.9881 552.6728 552.6728 552.7255 553.3683 553.4139
   553.4139 554.1586 554.1586 554.3846 554.3846 554.3880 554.4201 558.3461
   558.3461 558.3522 560.3733 560.3881 560.3881 560.6095 560.6915 560.6915
   560.7154 560.7809 560.7809 562.2770 562.2770 562.3738 563.1983 563.1983
   563.2081 564.3957 564.4313 564.4313 564.7816 564.7816 564.9104 564.9396
   564.9396 565.1002 565.5224 565.5224 565.6761 566.0454 566.1080 566.1080
   566.1215 566.1422 566.1422 567.8649 568.3439 568.3552 568.3552 569.0150
   569.0150 569.0460 570.0696 570.0696 570.1364 570.1364 570.1730 570.2914
   570.2914 570.3763 570.3927 570.3927 570.3953 571.5832 571.5832 571.6535
   571.6535 571.6872 571.7258 572.2512 572.2512 572.2944 572.6743 572.6743
   572.6906 574.2157 574.2224 574.2224 576.6299 576.6536 576.6536 577.6219
   577.6219 577.6526 578.4256 578.4256 578.4599 578.4839 578.5122 578.5122
   578.8630 578.8630 578.8806 578.9895 578.9895 578.9896 581.0733 581.0733
   581.0995 581.5310 581.5310 581.5491 581.6320 581.6749 581.6749 582.1384
   582.2183 582.2183 582.4316 582.7844 582.7844 582.8713 582.8941 582.9393
   582.9393 583.8478 583.8478 583.9454 584.6802 584.6802 586.5785 586.5785
   586.5997 586.6040 586.6137 586.6137 587.9864 587.9928 587.9928 588.0874
   588.0874 588.0943 588.1140 588.1177 588.1177 588.7105 588.7110 588.7110
   588.7323 588.7323 588.7337 589.4649 589.4649 589.5435 590.7407 590.7407
   590.7849 591.3004 591.3323 591.3323 592.1196 592.1196 592.1711 592.1711
   592.2087 592.2146 592.3534 592.3534 592.3724 592.3783 592.3893 592.3893
   594.7945 594.7945 594.8018 595.0476 595.0476 595.0785 596.2407 596.2407
   596.2817 596.3666 596.3666 596.4228 596.8463 596.8463 596.9190 597.2723
   597.2766 597.2766 597.6527 597.7884 597.7884 598.0844 598.0844 598.1206
   598.1783 598.1783 598.2138 599.0722 599.0722 599.0866 600.3823 600.3823
   600.3860 600.4233 600.4574 600.4574 600.6753 600.6923 600.6923 600.7498
   600.8099 600.8099 601.3510 601.3576 601.3576 601.5214 601.5214 601.5500
   601.5888 601.5923 601.5923 602.0602 602.0906 602.0906 602.3372 602.3372
   602.3410 602.6508 602.6508 602.7120 603.0458 603.0458 603.1076 603.9073
   603.9073 603.9408 604.2061 604.2786 604.2786 604.9893 604.9893 605.0397
   605.0975 605.1870 605.1870 606.1989 606.2072 606.2072 607.3890 607.3890
   607.4199 607.4200 607.4200 607.4256 609.7669 609.7669 609.8113 609.8213

          k =-0.2500 0.2500-0.2500 (  4510 PWs)   bands (ev):

   -17.5323  -3.8330  -3.2178  -3.2178   5.4178   9.1605  10.6012  10.6012
    12.5185  12.5185  14.1416  17.6631  19.5588  19.5588  19.9382  21.6574
    21.6574  23.2510  27.8304  27.8304  29.6460  29.6460  29.7744  32.8349
    33.7340  33.8922  33.8922  36.8963  38.5640  38.5640  40.1557  40.1557
    40.2697  40.7785  40.7785  41.3085  42.0262  43.8631  44.3049  44.3049
    46.0428  46.0428  47.6223  48.9610  48.9610  50.0383  51.7110  51.7110
    53.1921  53.4707  53.4707  54.2321  55.3111  58.1004  58.1004  58.6441
    58.6441  58.7717  59.5412  59.5412  61.1133  62.2194  62.2348  62.2348
    66.3949  70.0486  70.0486  70.7626  71.9111  71.9111  73.7947  73.9785
    73.9785  75.3142  75.3997  75.3997  76.1168  76.4097  76.4097  77.1863
    77.2498  77.2498  79.7040  82.2927  82.5699  82.5699  83.9258  83.9258
    84.0162  84.0162  84.2094  85.1770  85.8448  85.8448  85.8691  86.1214
    87.4273  87.4273  88.6526  88.6526  90.5583  91.6184  91.6184  92.7996
    92.8526  92.9558  92.9558  94.5648  94.5648  95.9190  95.9778  95.9778
    96.2765  97.4877  97.8352  97.8352  99.1918  99.7652  99.7652 100.7886
   100.7886 101.0955 102.4433 102.8549 103.2115 103.2115 103.5881 103.5881
   104.2635 104.7005 104.7005 106.3877 107.5151 107.5151 107.8246 108.0410
   108.0410 108.0578 111.8325 111.8325 112.8020 112.9169 112.9169 113.3739
   113.4181 113.4181 113.9931 114.0478 114.0478 114.1742 118.2055 118.2055
   120.2108 121.0984 121.8197 121.8197 123.4395 123.4395 124.3129 125.8423
   125.8423 126.6033 129.2153 129.3746 129.3746 129.9697 129.9697 130.1868
   130.2260 131.2646 131.2646 132.6036 132.6036 133.9270 133.9405 133.9405
   135.4804 135.4847 135.4847 136.2307 136.2307 136.4220 136.4673 137.5162
   137.5162 138.0256 138.9953 139.3475 139.3475 139.4123 139.4123 139.4632
   140.0152 143.2444 143.2444 144.6847 145.7381 145.7381 146.4165 146.9870
   146.9870 147.0686 147.3068 147.3068 147.3717 149.4015 149.4015 150.1095
   151.4202 151.6057 151.6057 152.2228 152.2228 152.3602 152.9419 152.9419
   154.0826 154.0826 154.1186 155.5837 156.4899 156.4899 157.2081 157.4265
   157.4265 157.6307 157.6487 157.6487 158.4244 159.1666 159.1666 159.2509
   159.8758 159.8758 159.9072 160.1660 160.1660 160.4799 162.0480 164.5541
   164.5541 164.6877 164.8952 164.8952 165.5079 165.5156 165.5156 165.8673
   165.8673 166.8438 166.8438 166.9521 167.9669 168.1455 168.1455 168.3409
   168.3409 168.3608 169.1421 169.6853 170.9750 170.9750 171.4369 172.5915
   172.5915 173.1537 173.1537 173.2006 174.3814 174.3814 174.9194 175.0278
   175.0278 175.4664 175.4664 175.9596 176.4843 177.0873 177.0873 177.6173
   181.1653 182.0558 182.0558 182.7202 182.8242 182.8242 182.9947 182.9947
   183.0285 183.4759 183.4759 183.9885 185.4410 185.4410 185.4878 186.0908
   186.7283 186.7283 186.9833 187.5901 187.5901 187.7796 190.0777 190.0777
   192.7253 193.4549 193.4549 193.9150 194.2251 194.2251 194.4525 195.0199
   195.1854 195.1854 198.0473 198.0473 198.9756 198.9756 199.5240 199.7171
   200.1708 200.1708 200.9224 201.5207 201.5207 203.0717 203.0717 203.1782
   203.4702 204.9200 204.9200 205.0810 206.5522 207.4073 207.4073 207.4396
   208.1012 208.1012 208.6574 208.6574 208.9516 209.0415 209.4281 209.4281
   210.0195 210.0195 210.2332 210.7307 210.7976 210.8242 210.8242 212.2276
   212.2276 212.8575 212.8575 213.9415 216.0455 216.0455 216.1200 217.4527
   217.5664 217.5664 218.3311 218.3362 218.3362 218.4732 219.1641 219.1641
   221.2221 221.2221 221.7639 221.7639 221.7726 222.5026 224.7785 224.7785
   225.9004 225.9004 226.3650 226.4453 226.4453 226.5125 228.3500 228.3500
   228.4062 228.6151 228.6516 228.6516 228.8072 229.4432 229.4432 230.2106
   231.3331 231.3405 231.3405 233.8238 234.0003 234.0003 234.3609 234.3609
   234.7497 235.4713 235.5614 235.5614 235.9950 235.9950 236.0900 236.4245
   236.4245 237.2496 237.3463 237.5724 237.5724 238.3369 238.3369 238.7670
   239.0112 239.1358 239.1358 240.1174 241.0509 241.0509 241.5143 242.0513
   242.0929 242.0929 242.4485 242.4485 242.6737 242.6737 242.6822 242.6825
   243.5848 243.5848 244.4551 246.0969 246.2018 246.2018 246.6706 246.6706
   246.8449 247.2574 247.2574 247.3013 247.9141 247.9141 247.9717 248.4140
   248.4140 248.4710 249.3688 249.5499 249.5499 249.9014 249.9014 250.4360
   250.5118 250.5118 250.6113 252.1625 252.1625 252.3122 254.0207 254.0207
   255.2250 255.2387 255.2387 255.4888 255.5367 255.5367 255.8069 255.8305
   255.8305 256.1725 256.2318 256.2318 256.3137 256.5678 256.5678 256.5728
   256.9215 256.9215 256.9382 261.5856 261.5856 262.1076 263.5068 263.5068
   264.7863 265.1685 266.1585 266.1585 266.5005 266.5149 266.5149 266.7972
   266.7972 267.0898 268.1285 268.1285 268.1620 268.3492 268.3492 268.4912
   269.7400 269.7400 269.7766 270.5708 271.6199 271.9004 271.9004 272.9001
   272.9001 273.6281 273.6281 273.8368 273.8368 273.9428 273.9592 275.1835
   275.1835 275.9720 276.5333 276.5333 277.3027 277.3027 278.3057 278.5639
   278.5639 278.8777 279.7352 280.2227 280.3060 280.3060 280.5137 280.5137
   280.9819 281.2202 281.2202 281.4094 281.5393 281.5600 281.5600 285.2973
   285.9349 285.9349 286.2724 286.2724 287.1148 287.3099 287.3099 287.9827
   288.0249 288.0865 288.0865 288.7524 288.7524 288.8187 289.0940 289.0940
   289.1019 290.1100 290.1100 290.1484 290.1906 292.0721 292.0721 292.6755
   292.6755 293.3758 293.5329 293.5329 293.9806 295.1657 295.2695 295.2695
   298.6618 298.6618 299.0716 300.7905 300.7905 300.9577 301.4132 301.6253
   301.6253 301.7068 302.0621 302.0621 302.3801 302.3801 302.4019 302.6723
   303.3645 303.4130 303.4130 304.4675 304.4675 306.5417 306.7314 306.7314
   306.7776 308.1847 308.1847 309.2068 309.2068 309.3225 309.7028 309.7598
   309.7598 310.1032 310.1032 310.1941 311.2822 311.3516 311.5342 311.5342
   312.4006 312.6948 312.6948 314.5533 314.5533 314.8354 315.3731 315.8520
   315.8520 315.9315 316.3337 316.3337 316.7841 316.7841 316.8249 316.9273
   316.9844 316.9844 317.7365 317.7463 317.7463 321.3544 321.3544 321.6614
   322.2554 322.2554 322.7135 324.4248 324.7966 324.7966 324.9124 325.5192
   325.5192 325.5808 325.5808 326.0423 326.1661 326.1725 326.1725 327.5178
   327.5178 328.3238 328.3238 328.6471 328.6708 329.0819 329.0819 329.2693
   330.1913 330.1913 330.3054 330.3241 330.3663 330.3663 330.8192 331.6151
   331.6151 332.4219 332.7648 332.7849 332.7849 333.2382 333.2382 333.2526
   334.9014 334.9014 335.4981 335.4981 335.8526 335.8526 336.1855 336.1855
   336.2720 336.5092 336.5182 337.5344 337.5344 338.0401 338.0401 338.2901
   338.4651 339.1280 339.1280 339.3571 339.4614 339.4614 339.5163 340.0132
   340.0132 341.5840 341.6015 341.6015 342.8225 343.0737 343.0737 343.1626
   343.8272 343.8272 343.8760 343.9666 343.9666 344.1295 344.3107 344.3399
   344.3399 344.8951 344.8951 345.0983 345.5305 345.5305 346.1110 346.1110
   346.3062 346.6484 346.6739 346.8274 346.8274 347.3147 347.3298 347.3298
   347.4714 347.4714 347.4974 348.9639 348.9639 349.0440 349.6393 349.6393
   349.6656 352.9075 352.9075 352.9261 353.2601 353.2601 353.2950 353.9162
   354.5342 354.5342 354.8253 354.8253 354.8878 355.7580 355.7580 355.9190
   356.1230 356.3220 356.5021 356.5021 356.8955 356.8955 357.0337 357.0337
   357.0775 359.5485 360.1794 360.1794 361.6448 361.6448 362.0809 362.1042
   362.1042 362.1176 362.5529 362.5529 363.0120 363.1506 363.1506 363.4134
   363.5256 363.5256 363.6706 364.4125 364.4125 364.4232 365.2567 365.2567
   365.3289 365.7155 366.3605 366.3605 367.0584 367.2317 367.2317 367.2554
   368.3723 368.3723 368.4306 370.6240 370.6240 370.8052 372.1586 372.1586
   372.7690 373.1356 373.1356 373.6060 373.6060 373.6391 373.8012 373.8012
   373.8963 374.7423 375.6943 375.6943 375.8145 377.6299 377.6299 378.1252
   378.4162 378.4162 378.7363 378.7363 379.0356 379.1444 379.5054 379.5054
   379.5595 380.4463 380.4463 381.2341 381.2341 381.3093 381.3244 381.6762
   381.6762 382.1380 382.1380 382.1583 382.3565 382.6089 382.6480 382.6480
   382.7987 382.8232 382.8232 383.8066 383.8066 383.8292 386.8261 386.8261
   387.5121 387.5121 387.7141 387.8598 387.9870 388.1153 388.1153 388.2503
   388.4537 388.4537 388.8059 388.8533 388.8533 389.1733 389.2317 389.2317
   389.2542 389.2701 389.2701 390.0273 390.0273 390.0284 390.0836 390.5195
   390.5195 394.1414 394.1601 394.1601 395.0943 395.1250 395.1250 395.4016
   395.4016 395.4203 396.9060 397.0178 397.0178 397.2030 397.2030 397.2066
   397.2134 398.6442 398.6442 399.7157 399.7157 400.1972 401.1559 401.1559
   401.6407 401.6407 401.6781 401.8144 401.8144 401.9448 402.2865 402.5282
   404.0710 404.0710 406.2909 406.4794 406.4794 407.3212 407.3212 407.3893
   407.5158 407.5158 407.6986 407.7127 407.7127 408.3246 408.3246 408.4960
   408.5951 410.0436 410.0436 410.1282 410.9579 410.9579 411.0654 413.3465
   413.3465 413.6276 414.1533 414.1533 414.7140 416.0383 416.0383 416.1596
   416.6544 416.6544 416.6850 420.1953 420.1953 421.0222 421.0222 421.2722
   421.2771 421.5406 421.5406 421.5752 421.5752 421.6159 421.6496 421.8482
   421.8482 421.9679 423.4176 423.6023 423.6023 425.0547 425.6025 425.6025
   425.7429 425.7429 426.1540 426.2694 426.3410 426.3410 426.3647 426.4716
   426.4716 426.6478 427.7189 427.7524 427.7524 428.4388 428.4388 428.5331
   428.5331 428.9319 428.9319 429.0529 429.1056 430.2871 430.2871 431.0678
   432.4331 433.1690 433.1690 434.1013 434.1013 434.4757 434.6555 434.6555
   434.9289 435.0340 435.0340 435.0402 435.1666 435.1666 435.1908 435.3214
   435.3214 435.6903 435.7277 435.7277 435.7508 436.3750 436.4150 436.4150
   436.8225 436.8225 436.8633 439.2543 439.5020 439.5020 441.3061 441.4321
   441.4321 441.5073 441.5352 441.5464 441.5464 442.3543 442.3543 442.7858
   442.7955 442.7955 442.8307 443.4377 443.4377 443.4979 443.4979 443.6448
   443.6704 444.1034 444.1034 444.1847 444.1847 444.3128 444.4182 444.5514
   444.5514 444.5947 445.8466 445.8466 445.8832 447.6522 447.6522 447.7085
   447.9259 447.9907 447.9907 448.7940 448.8026 448.8026 448.8362 448.8362
   448.8566 450.3185 450.3185 450.4050 450.5221 450.5221 450.6081 450.6304
   450.7097 450.7097 452.6302 452.6302 452.8066 453.3636 453.3636 453.5337
   453.7957 453.8402 453.8402 456.4037 456.4037 456.5043 457.8120 457.8120
   457.8378 458.9995 458.9995 459.1335 459.1335 459.2249 459.3351 460.8527
   461.0403 461.0403 461.2349 461.2349 461.4725 461.6029 461.7248 461.7248
   462.0098 462.0619 462.0619 462.1266 462.1266 462.2418 462.3648 462.3648
   462.4842 462.5546 462.8397 462.8397 463.6436 463.6436 464.2046 465.5055
   465.5055 465.6005 465.6473 465.6494 465.6494 466.3505 466.3505 466.6726
   467.8030 467.8030 467.8030 468.0999 468.1151 468.1151 470.3929 471.0048
   471.0048 471.0721 471.0721 471.0989 471.1518 471.1518 471.2469 471.2631
   471.2631 471.2962 471.3479 471.4303 471.4303 471.6152 471.6152 471.7485
   471.7714 471.8854 471.8854 473.4810 473.4810 473.7055 473.7055 473.7155
   473.8175 474.9537 474.9537 475.0571 476.3562 476.3675 476.3675 477.5839
   477.8824 478.0979 478.0979 479.0908 479.0908 479.3853 479.3875 479.3875
   479.4876 479.8902 479.8902 480.1230 480.1230 480.2877 481.3704 481.3704
   481.4564 482.9483 482.9483 483.0013 483.1281 483.1281 483.1440 484.0088
   484.0088 484.1380 484.1718 484.1718 484.1867 484.8807 484.8807 485.1463
   485.1463 485.2451 485.4016 486.4036 486.4036 486.6551 486.7338 486.7338
   486.7791 488.4608 488.4608 488.7404 488.9728 488.9728 489.0490 489.0496
   489.0496 489.0904 489.1554 489.1554 489.3108 490.5012 490.5223 490.5223
   490.6681 490.6681 490.6923 494.5424 494.5424 494.7688 494.8859 494.9337
   494.9337 495.1278 495.1278 495.1867 495.5035 495.5035 495.6237 495.7532
   495.8333 495.8333 496.3834 496.3834 496.4172 497.2728 497.3688 497.3688
   498.8460 498.8460 498.9763 499.0489 499.1784 499.1784 500.2817 500.3215
   500.3215 502.2863 502.2863 502.3013 503.0042 503.0042 503.2339 503.2865
   503.2865 503.3087 503.8792 503.8792 503.9389 503.9389 503.9553 504.0718
   504.4053 504.4830 504.4830 504.5548 504.5979 504.5979 504.6999 505.5846
   505.5846 505.6092 505.6376 505.6376 505.7239 506.8756 506.8756 508.0611
   508.0611 508.1675 508.4035 508.4035 508.4727 508.4873 508.4873 508.5520
   509.2143 509.3363 509.3363 510.3920 510.3920 510.4439 511.4455 511.4455
   511.4689 511.5062 511.5505 511.5505 511.7222 511.7222 511.7833 513.0670
   513.0670 513.0984 515.4522 515.4626 515.4626 516.1812 516.1812 516.2129
   516.5045 516.5045 516.8829 517.0678 517.0678 517.0923 517.5847 517.5847
   517.6378 517.6841 517.7109 517.7109 521.3830 521.3830 521.4084 521.7529
   522.6583 522.6583 522.7074 523.5164 523.5164 523.5623 524.3521 524.3521
   524.3811 525.6401 525.6401 525.8141 525.8535 525.8535 526.0159 526.0159
   526.0437 526.0683 527.2028 527.2028 527.2386 528.3282 528.3282 528.3841
   529.6760 529.7076 529.7076 530.1102 530.1102 530.1809 530.1809 530.2017
   530.2136 530.4666 530.4666 530.6242 532.3165 532.3165 532.3243 532.3662
   532.3838 532.3838 534.8739 534.8739 535.0923 535.5045 535.5045 535.5570
   536.9089 536.9189 536.9189 538.2291 538.2291 538.2691 540.1212 540.2852
   540.2852 540.8259 540.8472 540.8472 541.8044 541.8044 541.8079 543.6486
   543.6534 543.6534 543.8143 543.8143 543.8510 545.0832 545.0832 545.1206
   545.2522 545.2522 545.2637 547.4942 547.5224 547.5224 548.0228 548.0232
   548.0232 548.4363 548.4363 548.5337 548.6473 548.6906 548.6906 548.7500
   548.7500 548.8309 549.8224 549.8224 549.9021 550.5086 550.5183 550.5183
   550.5440 550.5440 550.6100 551.4165 551.4165 551.4572 551.7013 551.7175
   551.7175 553.1816 553.1816 553.2339 553.2339 553.2465 553.2631 555.9427
   555.9427 555.9667 556.0169 556.0169 556.0483 557.1184 557.7327 557.7327
   558.8737 558.8737 558.9094 559.0043 559.0043 559.0262 559.0290 559.0290
   559.4602 560.6098 560.6098 560.6354 560.6502 561.7159 561.7159 561.8214
   561.8214 561.9037 561.9309 562.3747 562.3747 562.3883 562.4093 562.4093
   562.4371 562.9217 562.9217 563.2010 563.2010 563.2873 563.4540 563.4540
   563.4718 565.6668 565.6668 565.8979 566.0677 566.0677 566.1474 566.2843
   566.3510 566.3510 568.1224 568.1224 568.1483 568.1684 568.2122 568.2122
   568.9306 568.9432 568.9432 568.9893 568.9893 568.9936 570.1191 570.1191
   570.1538 570.4881 570.4881 570.5201 570.6574 570.6728 570.6728 570.7550
   570.7550 570.7875 571.9120 571.9595 571.9595 572.9395 572.9395 572.9438
   573.6478 573.6478 573.6686 575.7471 575.7471 575.7943 577.0460 577.0460
   577.0679 577.1211 577.1211 577.1271 577.2085 577.3467 577.3467 578.9403
   578.9676 578.9676 580.7776 580.7776 580.8058 581.2197 581.2197 581.2234
   581.3213 581.3401 581.3401 582.0838 582.1457 582.1457 582.2443 582.2443
   582.2712 583.3755 583.3755 583.4634 583.4850 583.5489 583.5489 585.3601
   585.3601 585.3647 585.4921 585.5443 585.5443 587.4767 587.4767 587.4918
   587.4958 587.4958 587.5331 587.7491 587.7491 587.8617 588.3160 588.3362
   588.3362 588.7877 588.8054 588.8054 589.4188 589.4188 589.4659 589.7757
   589.9245 589.9245 589.9563 590.3881 590.3881 590.4033 590.4344 590.4344
   590.4371 591.9810 591.9810 593.7260 593.7412 593.7412 594.8536 594.8637
   594.8637 595.1516 595.1516 595.1637 595.3235 595.3235 595.3312 595.3485
   595.3607 595.3607 595.8568 595.8568 595.8782 595.8986 595.8986 595.9083
   597.7585 597.7585 597.7759 597.8267 597.8267 597.8271 598.1965 598.1965
   598.2175 598.2449 598.2449 598.2875 598.5664 598.5664 598.6006 599.7820
   599.7820 599.8199 602.3034 602.3034 602.3904 603.0249 603.0249 603.0632
   603.0632 603.0831 603.0925 605.2561 605.2626 605.2626 605.3222 605.3222
   605.3506 607.0662 607.0662 607.0924 607.1462 607.1462 607.1617 609.1007
   609.1850 609.2005 609.2005 611.8893 611.8893 611.9298 611.9335 611.9363
   611.9363 612.7267 612.7267 612.7583 612.8842 612.9066 612.9066 613.0620
   613.0620 613.0704 613.0831 613.0954 613.0954 614.3986 614.3986 614.4438

          k =-0.3750 0.3750-0.3750 (  4501 PWs)   bands (ev):

   -17.4814  -4.2441  -3.2682  -3.2682   6.2273   8.9396  10.2415  10.2415
    13.6636  13.6636  13.7007  17.2210  18.9035  18.9035  20.7775  22.2354
    22.2354  26.4495  27.2612  27.2612  27.9868  29.9213  29.9213  31.5003
    31.5003  32.0699  33.4189  35.1047  37.4955  37.4955  37.9178  38.9853
    38.9853  39.4912  43.6578  43.6964  43.6964  43.9927  44.5496  44.5496
    46.1953  46.1953  47.2919  50.4887  50.4887  51.3471  54.3202  54.3202
    55.4293  55.8575  55.8575  56.8127  57.1617  57.1617  57.5062  57.5062
    58.5820  58.9370  60.7197  61.9553  61.9553  63.5050  64.9364  64.9364
    65.6747  65.6747  66.1080  67.0352  67.0352  68.5085  70.4144  71.0439
    71.0439  73.0448  73.0448  73.7712  75.3566  75.3566  75.6506  75.7084
    79.6510  79.6510  80.3091  81.4962  81.5287  81.5287  82.6901  82.6901
    83.4117  83.4117  83.6380  84.8444  85.6310  85.6310  86.6850  87.4971
    87.5552  87.5552  90.2457  91.2970  91.2970  92.1911  92.1911  92.7023
    92.9310  94.4439  94.4439  94.6838  94.8631  94.8631  95.5175  95.5175
    95.9458  95.9528  96.4965  96.4965  99.4870 101.9997 101.9997 102.7153
   103.5218 103.5218 103.5829 103.6519 104.8017 104.8017 105.3244 105.3244
   105.4205 105.8082 105.8082 106.8537 107.6470 107.6470 108.7564 109.8928
   109.8928 110.8366 111.0590 111.1398 111.1398 111.2472 111.2615 111.2615
   111.4611 111.4611 113.9123 117.7033 117.7033 119.4132 119.4888 119.4888
   119.7527 121.0027 122.3621 122.3621 124.2928 124.2928 125.2346 126.9951
   126.9951 128.0865 128.2258 128.2258 128.7905 129.5867 129.8552 129.8552
   130.7245 130.7245 130.8591 131.8015 131.8109 131.8109 132.2639 132.5950
   132.5950 134.1913 134.1913 135.9912 135.9912 135.9936 136.3752 137.0335
   137.0335 137.3066 137.8551 137.8551 138.2965 138.3497 138.3497 139.6738
   140.6351 140.6351 141.0058 144.1151 144.1151 144.3542 145.4731 145.4731
   145.6252 145.6252 145.6648 145.7747 148.9508 148.9508 149.2462 149.3003
   149.3003 149.9560 150.4764 151.2887 151.2887 151.3889 151.5159 151.5629
   151.5629 152.2195 152.9546 152.9546 153.0775 153.6165 153.6165 153.7541
   154.1143 154.1143 157.6456 157.6456 158.5383 158.6950 158.6950 159.4319
   160.5834 160.5834 162.5450 162.7380 162.7380 163.0895 163.0895 163.1793
   163.5455 163.9048 163.9048 163.9567 164.3719 164.3719 164.8903 164.8903
   164.9004 164.9412 168.2838 168.2838 168.3912 169.0811 169.1285 169.1285
   170.2185 170.2185 171.5712 171.9751 171.9751 172.6949 173.3299 174.8663
   174.8663 176.2724 176.2724 176.4755 177.4207 177.4212 177.4212 177.8301
   177.9025 177.9025 178.1681 178.3833 179.1281 179.1281 179.2895 182.0927
   182.0927 182.6543 182.6543 183.0565 184.3495 184.4813 184.4813 184.7654
   184.7654 186.2234 186.2234 186.7585 186.8910 187.2542 187.2542 187.5042
   189.7234 189.7234 190.6324 191.3904 191.3904 191.6366 192.7439 192.7439
   193.2180 194.1588 194.1588 194.7484 195.0639 195.1000 195.1000 195.2698
   195.2698 195.5186 197.3142 197.5797 197.5797 199.4125 199.6902 199.6902
   200.4923 200.4923 200.8530 201.2094 201.2094 201.7579 202.2223 202.2223
   203.1124 203.1255 203.1255 203.5710 203.6188 203.6188 203.9719 204.2753
   204.2753 204.5219 204.8406 205.8349 205.8349 206.3459 207.0908 207.0908
   207.5244 207.5244 207.7916 209.4173 209.4173 210.1895 210.2470 210.2470
   210.9237 211.9818 211.9818 213.3330 215.8343 215.8343 216.6066 216.7440
   216.7684 216.7684 217.3428 217.3547 217.3547 218.6121 218.6121 218.7657
   220.6169 220.6169 220.6902 221.7319 221.7319 222.1647 222.7716 223.9899
   223.9899 225.0652 225.5128 225.5128 225.8012 225.8012 225.9239 226.0005
   226.0005 226.0544 226.2772 226.3153 226.3153 226.8969 226.8969 227.2602
   229.7037 229.7037 229.8913 229.8913 230.1176 230.1273 230.9495 231.4293
   231.4293 232.4956 232.4956 232.9920 232.9920 233.4190 233.4744 234.3448
   234.3448 234.5818 235.2315 235.2315 235.5917 236.6360 236.6360 237.8775
   238.2682 238.2682 238.5137 239.2231 239.2231 239.7733 240.4064 240.4064
   241.9869 242.2277 243.1792 243.1792 244.9131 244.9131 245.7983 245.8707
   245.9478 245.9478 247.0994 247.0994 247.5769 247.8175 247.8175 248.8699
   249.0514 249.0514 249.0899 249.1877 249.1877 249.1953 250.1574 250.1574
   250.2142 250.9150 251.2281 251.2281 252.2793 252.5898 252.5898 253.7153
   253.7153 253.7650 253.7651 253.7651 253.9341 254.0421 254.6624 254.6624
   254.6794 254.8265 254.8284 254.8284 256.0884 256.0884 257.0673 257.6133
   257.9819 258.0316 258.0316 258.6262 258.6262 259.9118 259.9118 260.8484
   261.0742 261.0742 261.8049 261.9973 261.9973 262.2315 264.3712 264.3712
   264.5305 266.5186 266.5186 267.6591 267.6591 267.9625 268.4592 268.4592
   268.6976 269.8697 270.4274 270.4274 270.8030 270.8738 270.8738 272.2686
   272.8735 272.8735 273.1043 273.4756 273.4876 273.4876 273.5904 273.5904
   274.0383 274.1855 274.1855 274.1937 274.4298 274.6458 274.6458 275.2641
   275.7160 275.7160 276.5091 276.5091 276.5796 279.5669 279.5669 280.2427
   280.2496 280.2496 280.3646 280.6493 281.0258 281.0258 281.2685 281.2685
   281.8739 282.4094 282.6396 282.6396 283.3131 283.3131 283.3713 283.4650
   284.3602 284.3602 284.3916 285.2104 286.5554 286.5554 287.1623 287.1623
   287.3110 288.1472 288.1472 288.5029 289.3744 289.3744 289.8034 289.8034
   290.0188 290.2872 291.6116 291.6116 291.9067 291.9067 292.8493 292.8952
   293.1688 293.1688 293.7544 293.8819 293.8819 294.2080 294.4160 294.4160
   294.6176 294.7084 294.7807 294.7807 294.9192 295.1358 295.1358 296.1591
   296.1591 296.5987 298.1968 298.2044 298.2044 299.9309 299.9309 299.9699
   301.2299 301.3210 301.3210 302.5213 302.5213 302.7944 304.3720 305.6060
   305.6060 306.4957 306.4957 306.5922 307.6011 307.6011 307.8526 308.4353
   308.4353 309.3276 309.3276 309.4255 310.8976 311.4157 311.5176 311.5176
   313.9698 313.9698 315.6463 316.1979 316.2231 316.2231 316.2822 316.6335
   316.6335 317.2485 317.5535 317.5535 317.9349 318.1425 318.1425 318.9008
   318.9008 319.5238 319.5304 319.5304 319.8718 319.9350 319.9350 320.6759
   321.8877 321.8877 322.4929 323.6162 323.6162 323.6872 324.6664 324.6664
   324.8070 324.8380 324.8380 324.8786 325.0491 325.1126 325.1126 325.8343
   325.8454 325.8454 327.5125 327.5125 327.8662 329.1122 329.1122 329.1964
   329.2876 329.2876 330.1555 330.1950 330.1950 330.2334 330.3116 330.3116
   331.1738 331.4231 331.4231 331.7556 332.1344 332.6644 332.6644 334.0304
   334.0304 334.7320 334.9274 334.9274 335.6438 335.7491 335.7491 336.9038
   337.0759 337.1656 337.1656 337.4573 337.4573 337.5008 337.9135 338.0142
   338.0142 338.2010 338.2536 338.4626 338.4626 339.3305 339.3305 339.5009
   340.0476 340.0476 340.3656 340.3656 340.4548 340.4720 341.1135 341.1135
   342.3607 342.3607 342.6742 342.6742 342.8170 342.8335 343.1260 343.1594
   343.1594 343.1913 343.1913 343.3342 343.5940 343.6331 343.6331 343.6341
   343.9190 343.9190 347.6021 347.6021 347.7336 347.8397 347.8397 347.8524
   347.8615 347.8683 347.8683 348.0752 348.0752 348.3745 348.3745 348.4357
   348.6128 349.1810 350.2329 350.2329 351.0358 351.2018 351.2018 351.4634
   351.5569 351.5569 351.5833 351.8155 351.8155 355.1907 355.1907 355.8737
   356.8050 356.8050 356.8205 356.8647 356.8647 356.9109 360.0438 360.0438
   361.0556 361.7005 361.7005 361.9682 362.2865 362.2865 362.5776 363.0878
   363.0878 363.7912 365.3497 365.8554 365.8554 366.0632 366.0632 366.1567
   366.9118 366.9118 366.9690 367.7780 367.7780 367.8445 368.2094 368.2094
   368.9730 369.2891 369.2891 369.7482 369.7482 369.8204 369.8250 369.9888
   369.9888 370.0965 370.1059 370.3027 370.3027 370.6640 370.6640 370.6995
   372.3650 373.4591 373.4591 374.0509 374.0509 374.1490 374.7515 374.7515
   374.9448 375.1774 375.1774 375.2122 376.8358 376.8358 376.9010 378.7541
   378.8064 378.8064 378.9182 378.9182 379.0765 380.2980 380.2980 380.4333
   380.7007 380.7007 381.2590 381.8828 381.8828 381.9831 382.0286 382.0286
   382.1824 382.7896 382.7896 382.8133 383.6809 383.6917 383.6917 384.6725
   385.4450 385.4450 385.9030 385.9311 386.1426 386.1426 386.4854 386.5781
   386.5781 387.1977 387.1977 387.5586 389.1250 389.1250 389.4079 390.6904
   390.6904 390.7182 390.9128 390.9128 391.8927 392.0669 392.0669 392.2088
   394.8426 394.8426 395.3886 395.3886 395.5804 395.7645 396.0848 396.0848
   396.5331 396.6728 396.6728 396.7800 396.8233 396.8233 397.0810 398.5654
   398.5654 398.8115 398.8115 398.9141 399.0296 399.9086 399.9086 400.1686
   400.1686 400.2299 400.4745 400.4745 400.4989 400.5268 400.5861 400.7380
   400.7380 401.1132 401.1298 401.1298 402.3124 402.3124 402.3503 405.4802
   405.4802 405.4990 407.1699 407.1699 407.2174 407.9075 408.0610 408.0610
   408.6242 408.8083 408.8083 409.3262 409.3262 409.3628 409.3628 409.3820
   409.4612 410.5877 410.5877 410.9438 411.1088 411.1088 411.6265 412.1951
   412.1951 412.3027 412.4237 412.4237 412.4496 415.2355 416.6772 416.6772
   417.4130 417.4130 417.8972 419.2555 419.2555 419.4615 419.4615 419.5455
   419.9151 419.9568 419.9568 420.1370 420.4894 420.4894 421.0768 421.6119
   421.6281 421.6281 421.8418 421.8418 422.5006 422.6305 422.9613 422.9613
   423.0348 423.0348 423.0757 423.3216 423.4210 423.6943 423.6943 423.8038
   423.8889 423.8889 424.4124 424.4124 424.4430 424.4430 424.4905 424.5610
   425.6791 425.6791 425.9002 426.7090 426.9803 426.9803 427.2353 427.2353
   427.3346 427.3708 427.3708 427.4383 429.6958 429.6958 430.2448 430.2448
   430.2947 430.3037 430.7267 430.7267 430.9774 432.3115 433.0818 433.0818
   433.2467 433.3057 433.3057 433.3756 433.4015 433.4015 435.1268 435.1268
   435.1482 435.1628 435.1628 435.2151 435.8123 435.8123 435.8247 436.3601
   436.3601 436.6491 437.8352 437.8352 437.8834 441.0535 441.0535 441.0778
   441.1008 441.1008 441.1220 441.2403 441.2403 441.4823 442.2108 442.2108
   442.5229 442.5229 442.5669 442.6269 444.8320 445.0127 445.0127 445.1065
   445.1065 445.1779 445.2923 447.4634 447.4634 448.8424 448.8424 448.9794
   448.9794 449.1117 449.1509 449.5529 449.8098 449.8098 450.1307 450.1307
   450.3461 450.6075 450.6675 450.6675 451.1248 451.1637 451.1637 451.8392
   451.8392 451.8774 452.1887 452.2337 452.2337 452.3872 452.7611 452.7611
   453.4370 453.4370 453.6255 453.6414 453.7453 453.7453 454.1383 454.1383
   454.2784 454.2784 454.3510 454.4475 455.1094 455.1094 455.5472 459.0094
   459.4441 459.4441 460.0931 460.0931 460.3360 460.3360 460.4450 460.5734
   460.6915 460.7313 460.7313 461.9445 461.9445 461.9583 462.4366 462.4366
   462.4533 462.9147 462.9147 463.0509 463.0990 463.2391 463.2391 463.2961
   463.3494 463.3494 463.4913 463.5553 463.5553 465.3430 465.3430 465.4502
   466.7724 466.7724 466.7916 469.2814 469.2814 469.3102 469.3713 469.3713
   469.3727 469.4676 469.4676 469.4801 469.5439 469.5439 469.5559 470.2119
   470.2119 470.6299 470.6299 470.6843 470.7922 472.4208 472.4208 472.4451
   472.4451 472.5596 472.6612 474.9242 474.9242 475.3873 475.3873 475.4595
   475.5197 476.7560 476.7560 476.7985 477.0162 477.0599 477.0599 478.3712
   478.3712 478.7790 479.8601 479.8601 479.9282 481.0732 481.1299 481.1299
   482.0692 482.0692 482.2192 483.4507 483.4871 483.4871 484.3785 484.5632
   484.5632 484.6742 485.9248 485.9248 485.9518 486.6480 486.6480 487.0094
   487.0094 487.2899 487.3792 487.3792 487.3952 488.4451 488.4451 488.5534
   488.6121 488.6160 488.6160 488.9344 488.9344 489.0269 489.1310 489.1349
   489.1349 490.4793 490.4793 490.5421 490.6277 490.6277 490.6575 491.7564
   491.7564 491.7903 492.7397 492.7397 492.9683 493.0355 493.1652 493.1652
   495.4172 495.4172 495.4807 495.4807 495.4916 495.5022 495.9819 495.9819
   496.0287 496.0287 496.0867 496.1655 496.4366 496.4366 496.4882 497.4842
   497.4842 497.5462 497.6474 497.6523 497.6523 497.9040 498.7237 498.7237
   498.7948 498.8026 498.8432 498.8432 500.1788 500.1788 502.3007 502.3007
   502.5433 502.9486 502.9486 502.9807 503.0467 503.0467 503.2886 503.3945
   503.3945 503.7689 503.9429 503.9429 504.0283 505.0167 505.0438 505.0438
   505.1505 505.1505 505.1745 507.9745 507.9745 508.0311 508.7587 508.8984
   508.8984 509.6929 509.6929 509.7387 509.7688 509.7728 509.7728 510.3400
   510.3400 510.3973 511.1303 511.1303 511.1887 512.0377 512.0377 512.1006
   513.0896 513.0896 513.1285 513.2322 513.2322 513.4808 515.7566 515.7763
   515.7763 516.1996 516.1996 516.2656 516.2656 516.2786 516.3059 516.3839
   516.3839 516.4171 517.5696 517.5696 517.5780 517.8543 517.9763 517.9763
   518.6114 518.6114 518.6429 519.3451 519.3451 519.3845 519.9986 520.1062
   520.1062 520.1660 520.1748 520.1748 521.3818 521.3818 521.4184 521.4184
   521.4189 521.4815 522.6183 522.6310 522.6310 523.7984 523.7984 523.8352
   524.6523 524.6523 524.6677 525.6825 525.6825 525.6907 525.9453 525.9453
   525.9863 527.5074 527.5074 527.5250 528.9199 528.9199 528.9672 529.2186
   529.2602 529.2602 529.9604 529.9604 530.0081 530.0226 530.0226 530.0504
   531.5874 531.5874 531.7079 532.3311 532.3311 532.3567 533.5554 533.5554
   533.6953 533.6953 533.7374 533.8250 533.8428 533.8428 533.9602 534.3318
   534.3318 534.5060 534.5119 534.5119 534.5666 535.0348 535.0539 535.0539
   535.5117 535.5117 535.5362 535.6796 535.6858 535.6858 537.8431 537.8431
   537.9345 537.9388 537.9388 537.9444 539.2979 540.4842 540.4842 540.4885
   540.5413 540.5655 540.5655 541.5845 541.5845 542.2498 542.2498 542.2632
   542.2632 542.2919 542.2980 542.9542 544.0802 544.0802 544.0926 547.7066
   547.7066 547.9403 548.5203 548.5203 548.5784 549.2533 549.2533 549.2642
   550.6511 550.6511 550.6888 552.2535 552.2535 552.3800 552.3800 552.4551
   552.4965 553.5420 553.5721 553.5721 553.6542 553.6542 553.6611 553.6715
   553.6975 553.6975 554.3797 554.3797 554.3868 554.4372 554.4372 554.5283
   554.5794 554.5794 554.5959 555.7688 555.7688 555.7953 557.2023 557.3350
   557.3350 558.4002 558.4002 558.4069 558.4540 558.4824 558.4824 561.8204
   561.8204 561.8263 563.1254 563.1254 563.1736 563.1736 563.1741 563.2024
   563.2024 563.2380 563.2554 564.1926 564.1926 564.2098 564.7556 564.7556
   564.7713 564.7907 564.7910 564.7910 565.5822 565.5822 565.6766 566.0796
   566.0796 566.1524 566.1749 566.1964 566.1964 566.3936 566.4077 566.4077
   566.5482 566.6169 566.6169 567.2721 567.2721 567.3070 568.3740 568.5699
   568.5699 570.6703 570.6703 570.7127 574.4453 574.4453 574.6102 575.5756
   575.5756 575.6270 575.7995 575.7995 575.8000 575.8259 575.8259 575.8358
   576.8596 576.8596 576.8932 576.8932 576.9111 576.9217 576.9235 576.9235
   576.9604 577.7864 577.7864 577.8826 578.1984 578.8110 578.8110 579.9512
   579.9512 579.9865 580.1098 580.1223 580.1223 580.1479 580.1479 580.6020
   580.6646 580.6646 580.6751 580.9669 580.9729 580.9729 581.0425 581.0425
   581.0764 581.0891 581.0954 581.0954 581.1489 581.2152 581.2152 581.6434
   581.6888 581.6888 581.8705 581.8705 581.9015 583.1270 583.1270 583.1913
   583.2243 583.2761 583.2761 584.4940 584.4940 584.5245 584.5245 584.5294
   584.5446 585.9608 585.9608 585.9892 586.6336 587.0036 587.0036 587.0236
   589.0909 589.0909 589.1045 589.1432 589.1432 589.1499 589.5432 589.5432
   589.5590 589.7559 589.7746 589.7746 590.8969 590.9474 590.9474 593.7180
   593.7180 593.7261 593.7461 593.7461 593.7671 594.2324 594.2526 594.2526
   594.4341 594.4341 594.4711 594.5334 594.5469 594.5469 594.8195 594.8423
   594.8423 596.9793 596.9985 596.9985 598.9484 598.9484 598.9555 598.9693
   598.9811 598.9811 599.3019 599.3118 599.3118 599.3404 599.3404 599.3897
   601.8735 601.8735 601.9313 602.2598 602.2598 602.2840 602.3395 602.3395
   602.3547 603.6462 603.6510 603.6510 604.6779 604.7040 604.7040 607.3319
   607.3319 607.3321 607.3738 607.3738 607.3741 607.6158 607.6158 607.6426
   607.8297 607.8297 607.8364 607.8533 607.8656 607.8656 608.9513 608.9513
   608.9874 610.0070 610.1243 610.1243 612.1183 612.2117 612.2117 612.2140
   613.7446 613.7446 613.7672 614.2397 614.2397 614.2796 614.2796 614.3035

          k = 0.5000-0.5000 0.5000 (  4476 PWs)   bands (ev):

   -17.4599  -4.4017  -3.2888  -3.2888   6.4686   9.0431  10.0767  10.0767
    13.8276  14.7034  14.7034  15.9272  17.3784  17.3784  23.8196  24.5799
    24.7024  24.7024  25.4243  25.4243  30.1138  30.1138  30.3287  30.5087
    30.6978  30.6978  32.7437  33.7367  36.9291  36.9291  37.2657  38.4134
    38.4134  38.7618  43.6277  43.8716  43.8716  45.7995  45.7995  45.9698
    48.0716  48.0716  48.1815  51.0311  51.0311  51.1568  53.3063  53.3063
    53.5244  53.5244  54.0860  55.6207  59.5983  59.5983  60.4564  60.5297
    60.5297  61.7513  61.7513  62.2750  62.2750  62.5848  63.2139  63.4878
    65.2120  65.7621  66.1990  66.1990  66.2827  66.2827  69.0547  70.3433
    72.3083  72.3083  72.4753  72.4753  72.9359  72.9359  75.3579  75.3579
    75.5629  79.3121  81.3888  81.8751  81.8751  82.0478  82.0580  83.1548
    83.1548  83.4077  85.3277  85.3277  87.5948  88.1255  88.1255  88.4672
    88.4672  89.2859  89.4428  89.4428  89.6655  89.7402  90.6249  90.6373
    90.6373  90.6714  90.6714  92.5933  97.6588  97.6588  98.3471  98.5813
    98.8081  98.8081  99.0695  99.0695  99.4568  99.6305  99.6603  99.6603
   101.6091 101.6091 103.6170 103.8816 103.8816 104.8827 105.0576 105.0576
   105.7009 105.8663 105.8663 109.5854 110.2322 110.2322 110.3068 110.3137
   110.3137 110.3638 112.7710 113.0580 113.4992 113.4992 114.2379 114.2379
   115.7193 115.7193 115.9470 115.9470 116.7825 116.8492 119.2427 119.5433
   119.6234 119.6234 119.9761 119.9761 122.6816 122.6816 124.4286 124.4286
   124.4323 125.0117 125.0117 125.7688 125.7947 125.9076 125.9259 125.9259
   130.5807 130.5807 133.3856 133.4340 133.4340 133.7864 134.1405 134.1405
   134.9474 135.4729 135.4729 135.4784 135.8903 135.8903 136.1787 136.8817
   137.9917 137.9917 140.7986 140.7986 141.3896 142.1630 142.2708 142.2708
   143.3519 143.7331 143.7528 143.7528 143.8550 143.8550 143.9255 143.9515
   143.9515 144.1138 144.1138 144.1672 145.2947 145.2947 145.3510 145.4008
   145.4135 145.4135 148.9691 148.9691 149.8680 151.3294 151.3294 151.8008
   152.1929 153.0786 153.0786 153.1011 153.1011 153.1563 153.1563 153.4101
   153.4101 153.4809 153.5014 153.5925 159.1436 159.1436 160.1279 160.7641
   160.7641 160.8890 160.9685 160.9685 161.7147 161.8357 161.8455 161.9529
   161.9529 162.0190 163.8490 163.8490 167.0647 167.1366 167.1366 167.3426
   167.4308 167.4308 168.1351 168.1356 168.1394 168.1394 171.4000 171.4000
   171.9631 172.5924 172.5924 172.6116 172.6116 172.6828 172.8340 173.1656
   173.1925 173.2339 173.2339 173.2629 173.2629 174.6921 174.6921 174.9960
   180.8575 180.8575 183.6911 183.6911 185.0183 185.4276 185.4276 185.4425
   185.5585 186.1186 186.1186 186.6430 186.7142 186.7142 186.8046 187.1559
   187.1559 187.3095 187.5310 187.5735 188.0872 188.0872 188.0962 188.0962
   189.7374 191.2403 191.2403 191.3210 191.3248 191.3248 192.3911 194.4894
   194.4894 194.5040 195.0593 195.0593 195.7373 195.7373 196.4918 196.4918
   196.5052 196.5052 196.5278 196.5743 197.5285 197.5833 197.5833 197.5936
   197.5936 197.6393 197.6570 197.7000 197.7000 197.7017 197.7017 197.7721
   197.7721 197.7869 198.3207 198.3232 204.9190 205.0972 205.0972 205.9832
   206.6582 206.8611 206.8611 206.8797 207.0794 207.0794 207.6480 207.6480
   207.7244 207.7244 209.5188 209.5188 211.6811 212.9544 213.0121 213.0141
   213.0141 213.8044 213.8044 214.1865 214.2186 214.5369 214.8103 214.8103
   215.0235 215.0235 215.3286 215.3286 215.6389 215.8310 215.8310 215.8521
   215.8748 215.8748 215.9214 217.3773 217.4337 217.4337 223.6815 223.6815
   224.4967 224.4967 224.7676 224.7996 224.8156 224.8156 224.8840 224.9006
   224.9105 224.9105 225.6656 225.6656 225.7597 225.8226 225.8226 225.9123
   229.4748 229.4748 229.8969 231.4996 231.5270 231.5270 231.6246 231.6246
   231.6669 233.0461 233.0461 233.4712 233.4820 233.4820 233.5530 233.6420
   233.8956 233.8956 234.6073 236.2282 236.2282 238.1130 239.3298 239.3298
   239.3567 239.3567 241.4379 241.6272 241.6272 241.7431 241.9086 241.9086
   241.9504 242.0308 242.1052 242.1052 243.9576 243.9620 244.5618 244.5618
   244.8167 244.8167 245.1266 245.1266 245.6727 246.1228 246.1228 247.3510
   247.3510 247.4144 249.4142 249.4252 249.4403 249.4403 249.4701 249.4701
   249.4845 249.4845 249.5349 249.5400 252.7576 252.7576 253.2066 253.2536
   253.2536 253.2588 253.8959 253.8959 253.9192 253.9481 253.9481 253.9538
   254.2668 254.2668 257.6343 258.4444 258.4444 259.1978 259.1978 259.2907
   260.1784 260.1810 260.2127 260.2560 260.2560 260.9221 260.9221 264.2025
   264.2025 264.6605 265.4362 265.4362 266.6539 267.0576 267.0576 267.6910
   267.6984 267.6984 267.6991 267.7231 267.8904 267.8904 268.5168 269.0270
   269.1431 269.1431 269.4420 269.4872 269.4872 269.6300 273.4063 273.5831
   273.5831 274.5416 274.5416 274.9848 274.9848 275.3971 276.4107 276.4839
   276.4839 276.7896 276.8370 276.8370 277.0849 277.0897 277.1396 277.1396
   277.2283 277.2283 277.4640 277.6904 277.7324 277.7324 277.9100 277.9100
   278.0027 278.0931 278.2318 278.2318 279.0298 279.0298 279.0704 279.0832
   279.0904 279.0904 280.5027 280.5027 280.9222 280.9222 281.0087 281.0257
   283.4399 283.4399 285.1912 285.3948 285.3948 285.4782 285.7511 285.7511
   286.7973 286.8188 286.8676 286.8676 287.2275 287.2275 287.3144 287.4168
   287.4168 287.4438 287.5761 287.5761 287.5902 287.5938 287.6705 287.6705
   291.3063 292.4492 292.4492 294.5236 294.8033 294.8033 296.2747 296.2747
   296.4712 296.7305 296.7305 296.7311 296.8930 298.8911 298.8911 302.5265
   302.5265 302.5740 302.6042 302.6042 303.7948 303.7948 303.9549 303.9580
   304.1210 304.1210 304.6142 304.6142 304.6262 304.7715 304.7715 304.8510
   305.1457 305.1683 305.1683 305.1686 305.1686 305.2992 305.3829 305.3829
   305.6708 305.6752 308.6237 308.6237 311.5908 312.7450 312.7450 313.7998
   313.8163 313.9017 313.9017 314.0253 314.0253 314.0677 314.2253 314.2253
   314.5793 314.9774 314.9779 315.0614 315.0614 315.0806 315.0806 315.7796
   316.8081 316.8081 318.1455 318.1455 320.7302 321.0607 321.2680 321.3527
   321.3527 322.0343 323.2249 323.2249 323.6614 323.6614 323.8180 323.8180
   324.3616 324.3616 324.3679 324.4251 325.0216 325.0216 327.0869 327.0869
   327.8790 328.4680 328.4680 328.5237 328.7478 328.7692 328.9247 328.9247
   329.5558 329.5558 330.1072 330.1719 330.1719 330.1912 330.3739 330.5390
   330.5390 330.9713 331.0436 331.0436 331.4954 331.4954 331.5187 331.8396
   331.9025 331.9025 331.9059 331.9059 331.9440 331.9443 332.5093 332.5093
   333.8201 333.8217 333.8666 333.8666 333.8821 333.8821 334.4592 334.4636
   334.4636 334.4648 334.4791 334.4791 339.0956 339.0956 339.3871 340.1473
   340.1473 340.3521 340.4374 340.4374 340.4592 340.6549 340.8289 340.8289
   341.4008 341.4202 341.4202 341.4364 341.4525 341.4525 344.9417 344.9417
   345.4770 345.5705 345.5705 346.9872 346.9872 346.9920 346.9958 347.0436
   347.3325 347.3325 347.4260 347.4260 347.8506 348.6110 348.6110 348.8865
   349.5393 349.5393 349.6414 349.6430 349.7297 349.7297 352.0792 352.0792
   352.0858 352.0972 352.1004 352.1035 352.1035 352.1275 352.1275 352.1709
   352.1830 352.1830 354.0872 356.3372 356.3372 357.2527 357.2527 357.4232
   357.4232 357.5768 358.2237 358.2237 358.5161 358.6028 358.6858 358.6858
   358.7927 358.7927 358.8485 358.8551 358.8822 358.8822 358.9360 359.1918
   359.1918 359.2735 363.2210 363.2406 363.2406 365.2109 365.8753 365.8753
   366.1655 366.7633 367.1214 367.1214 367.2933 367.2948 367.2948 367.2983
   367.5443 367.5443 368.6330 368.6330 368.7203 368.7203 369.8872 371.8694
   371.8694 372.9131 374.2347 374.2347 375.4469 375.4469 375.5500 375.8470
   375.9436 375.9436 375.9719 375.9907 376.0018 376.0018 376.1444 376.1943
   376.1943 376.4687 376.4687 376.5054 376.6141 376.6141 376.6145 377.0350
   377.0435 377.0435 377.5140 377.5140 377.5694 377.5715 377.5715 377.5727
   381.5653 381.5653 382.5085 382.6911 382.6911 382.8017 384.0900 384.0900
   384.6251 384.6411 384.6987 384.6987 384.8999 384.8999 384.9129 385.2684
   385.4580 385.4580 386.4898 386.4898 386.5031 386.5031 386.5150 386.5275
   388.0698 388.3268 388.3268 388.4727 388.4727 388.5879 390.8603 390.8603
   391.1531 392.0463 392.0463 392.7561 392.7561 392.8544 392.8544 392.9965
   393.0052 393.0052 393.0127 393.0295 393.0356 393.6383 393.6383 393.7730
   394.6168 394.6169 394.6547 394.6547 394.7695 394.7695 399.2272 399.2272
   401.5579 401.8705 401.9293 401.9293 402.3008 403.2011 403.3215 403.3215
   403.6425 403.6425 403.7495 403.7548 403.7813 403.7813 403.8495 403.9462
   403.9814 403.9814 404.1854 404.1854 404.2002 404.2002 404.5955 404.6557
   407.3044 407.3044 409.5681 409.5681 409.7830 410.4108 410.4108 410.5677
   410.5744 410.9926 410.9997 411.0201 411.0201 411.4446 411.4446 411.5137
   411.5137 411.6205 411.6477 411.6819 411.6819 411.8817 411.9209 411.9209
   412.0471 412.0471 412.2411 412.2411 412.3675 412.3865 412.4647 412.6524
   412.6903 412.6903 412.7070 412.7070 412.9239 412.9239 412.9279 412.9279
   412.9283 412.9371 413.2068 413.2068 413.2387 413.2387 413.2393 413.2450
   421.5193 421.5193 421.5705 421.8059 421.8059 421.8545 421.8545 421.8637
   421.9514 421.9514 422.0228 422.0242 422.0363 422.0488 422.0488 422.1394
   422.1394 422.1755 424.4863 424.4863 425.0881 426.8567 427.2616 427.2616
   428.2482 428.2482 428.7269 429.0615 429.1465 429.1465 429.6377 429.6377
   429.9871 430.2629 430.3040 430.3040 430.3205 430.3744 430.3744 430.5752
   430.6182 430.6366 430.6366 431.0119 431.0119 432.2732 432.7056 432.7249
   432.7249 432.7256 432.7377 432.7377 433.1589 433.1589 433.2453 434.3191
   434.3191 435.0515 435.0515 435.4180 437.0113 437.0113 437.0491 437.0491
   437.5864 437.5867 439.1273 439.1273 439.3135 439.3135 439.4698 439.4719
[...]
   553.6180 553.6386 553.6844 553.7009 554.3063 554.3360 556.1933 556.2871
   556.3252 556.4208 556.4583 556.5037 556.5756 556.6335 557.3029 557.3550
   557.3564 557.3588 558.1259 558.1269 558.4444 558.4490 558.5863 558.5943
   558.6501 558.6571 558.6900 558.8153 560.0833 560.1096 560.1607 560.1647
   560.1669 560.1736 561.2275 561.2691 562.3547 562.4038 562.4175 562.4583
   564.3429 564.3545 564.4207 564.4735 564.5863 564.5961 564.6088 564.6105
   564.7676 564.7768 564.8295 566.2910 566.2932 566.3141 566.3529 566.4115
   566.4161 566.4171 566.4401 567.2036 567.2557 567.2606 567.2611 569.9053
   570.6308 570.6312 570.6387 570.6500 570.6707 570.6779 570.7161 570.7338
   570.8289 570.8741 570.9331 570.9409 570.9680 570.9699 572.2462 572.3018
   572.7280 572.7581 572.8659 572.9453 574.8007 574.8032 575.3807 575.3863
   575.4132 575.4206 576.0599 576.1370 576.1403 576.1639 577.5956 577.6425
   577.6623 577.7087 578.4780 578.4949 579.5012 579.5151 579.5342 579.5461
   579.6630 579.7079 579.7293 579.7586 579.9162 579.9268 579.9441 579.9460
   580.7320 580.7367 580.8575 580.8628 580.8738 580.9155 580.9506 580.9795
   581.6242 581.6270 581.6276 581.6670 582.6741 582.6984 582.7246 582.7281
   583.9597 584.2014 584.2113 584.2193 584.2335 584.3677 584.7881 584.9608
   585.6680 585.7099 586.8250 586.8434 586.8646 586.8717 586.8729 586.8794
   588.1504 588.1770 588.3759 588.4190 590.6681 590.6748 590.6840 590.6869
   590.7968 590.8550 591.4627 591.4687 591.4787 591.4799 592.6383 592.6432
   593.2584 593.2790 593.2801 593.2865 593.4402 593.4540 593.5437 593.5439
   593.9800 593.9803 595.6286 595.6409 596.0143 596.0226 597.6996 597.7022
   597.8548 597.8587 599.1522 599.1957 599.2005 599.2503 599.5537 599.5543
   599.6386 599.6518 599.6550 599.6681 600.6239 600.6279 601.3533 601.3785
   603.6209 603.6282 604.0926 604.1016 604.2487 604.2808 604.2918 604.3134
   604.3323 604.3386 604.3458 604.3528 604.3542 604.3551 604.7422 604.7675
   604.7681 604.7974 605.6408 605.6500 605.6525 605.6534 610.2029 610.2049
   610.2247 610.2254 610.2769 610.3247 610.3502 610.3521 611.9419 611.9673
   611.9701 611.9764 612.0336 612.0476 612.0783 612.0854 612.9903 612.9921

          k =-0.5000-1.0000 0.0000 (  4488 PWs)   bands (ev):

   -17.4133  -3.9510  -3.9510  -3.6106   7.4444   8.9068   8.9068  10.4523
    14.9256  14.9256  15.3944  15.5787  18.6524  21.2137  21.5190  21.5190
    23.9329  24.0795  24.0795  25.1718  29.3878  30.1748  30.3402  30.3402
    30.5488  30.7923  32.5446  32.5446  36.2755  37.3918  37.3918  38.4326
    39.8125  39.8125  41.1656  44.1129  45.0848  47.3535  47.5876  47.5876
    48.3476  48.5805  49.2660  49.2660  50.1350  51.2379  51.2379  52.4733
    54.7493  56.4692  56.6470  57.2443  57.2443  58.0653  58.3981  58.3981
    60.4565  60.4565  61.8919  63.3201  63.6369  63.9871  63.9871  64.0639
    65.0521  65.7822  65.7822  67.6850  70.6426  70.8839  71.8334  71.8334
    72.5069  72.5069  72.9420  74.4004  74.5501  74.5501  74.5694  75.5735
    75.8191  76.0914  76.0914  76.1880  79.6264  79.6264  79.7481  81.0068
    81.2136  81.7989  81.8508  81.8508  84.9758  85.0177  85.0177  85.0298
    86.3049  86.3049  86.5073  86.5984  87.6496  87.6496  88.3545  89.2844
    90.0209  91.1288  93.7597  93.7597  98.3664  98.4711  99.0295  99.0295
   100.2159 101.2600 101.2600 101.3102 102.9389 103.3902 104.6147 104.6147
   105.4854 105.4854 106.9806 107.4205 107.9082 108.1799 108.1799 108.3038
   108.3927 109.1399 109.1399 111.3312 111.4534 111.4751 111.4751 111.6617
   112.0462 112.0462 112.0953 112.1166 113.3630 113.3681 113.3861 113.3861
   116.5696 116.5696 117.0411 117.4204 118.4331 118.5292 118.5292 118.6923
   118.7010 119.5936 119.5936 119.6188 120.0750 120.0750 120.6046 123.8038
   127.0945 127.1306 127.5569 127.7061 127.7356 127.7356 128.2242 128.2242
   128.8056 128.8056 128.8143 128.9075 129.5773 129.6052 129.6468 129.6468
   132.8701 133.0732 133.4638 133.4638 133.9703 134.1971 134.5103 134.5189
   134.5189 136.0908 136.9965 137.3213 137.3213 137.7822 138.2759 138.2759
   139.1294 139.2414 139.2414 139.2493 139.2883 139.3150 139.3150 139.3583
   143.2599 143.2599 144.3914 144.7910 144.9173 144.9173 144.9606 145.2187
   150.8091 151.4862 151.8371 151.8371 152.1643 153.1997 153.1997 153.5973
   153.6699 153.7176 153.7176 154.4354 154.7912 154.7912 155.2132 156.5439
   156.9125 156.9294 157.0588 157.0588 158.8473 159.8759 160.5429 160.5429
   161.6856 163.3972 163.3972 163.9195 164.2189 164.2189 164.2536 164.4180
   164.7606 164.9740 164.9744 164.9744 165.0185 165.1576 165.2531 165.2531
   165.3199 165.4690 165.4756 165.4756 169.0739 170.1500 170.2047 170.7997
   170.7997 171.8852 172.8667 172.8667 173.0906 174.1363 174.5364 174.5364
   174.7189 174.8906 175.1913 175.1913 177.7625 177.7625 178.6084 180.1681
   180.4469 180.5667 180.5667 180.5895 182.9806 183.2175 183.2175 183.2515
   183.3188 185.9951 185.9951 186.8770 187.1992 188.4659 188.8354 188.8794
   188.8794 189.1357 189.2279 189.2279 189.3782 189.3923 189.5747 189.5747
   189.8260 189.9244 189.9721 190.8201 190.9367 190.9367 192.1006 192.1006
   192.7854 192.8000 192.8030 192.8030 192.9128 192.9224 192.9224 194.8669
   197.3959 198.0882 198.5019 199.1298 199.1298 199.3612 199.5379 199.5379
   199.5921 199.5921 199.8147 199.9605 200.0108 200.0108 200.0202 200.0451
   202.9997 203.6994 204.2510 204.2510 204.6524 205.6772 205.6772 205.7137
   205.9646 206.1814 206.1814 206.3298 206.5278 206.5278 207.0656 207.1007
   208.8233 208.9019 208.9237 208.9237 209.1932 210.5090 210.5105 210.5361
   210.5361 210.8954 210.9476 210.9476 210.9703 210.9703 210.9830 211.0261
   211.6285 212.5167 212.5167 213.4594 215.1847 215.2844 215.5621 215.9047
   215.9047 216.0443 216.1144 216.1144 219.3022 219.3022 219.3535 219.3551
   220.8706 220.8706 220.8767 220.9185 221.8098 222.3608 222.3608 222.5143
   222.7319 225.0799 225.0799 225.1300 225.4614 225.9803 225.9803 226.2125
   226.4162 226.5294 226.5343 226.5343 231.4344 231.4344 232.2629 232.4182
   232.6412 234.7449 234.7449 234.7878 235.0471 235.1328 235.1328 235.7097
   235.7282 235.7795 235.7795 235.7839 236.7785 236.7785 237.1572 238.3107
   240.2385 240.5730 240.9372 240.9372 241.1365 241.2897 241.2897 241.3816
   242.9346 243.7213 243.7293 243.7293 243.9548 244.3017 244.4021 244.7107
   244.7107 244.7422 244.8756 244.8756 245.8916 246.3608 246.5695 246.6949
   246.6949 246.7195 246.7322 246.7322 248.2629 248.4270 250.0954 250.0954
   250.1790 250.2926 251.4863 251.7836 251.7836 251.9781 252.0057 252.0328
   252.1675 252.1675 253.3804 253.5747 253.5747 253.6694 254.6510 254.6510
   256.6643 256.8132 257.3608 257.3608 258.3603 260.6035 260.6035 260.7676
   260.8977 261.2163 261.2658 262.6738 262.6738 262.7249 262.7400 262.7400
   262.8471 263.2233 264.0624 264.0624 264.0939 264.1192 264.6209 264.6209
   265.7119 265.7119 265.7124 265.7183 267.8083 267.8083 267.8311 268.5526
   269.5808 269.7037 269.7037 270.6900 270.8991 271.1081 271.1081 271.2924
   271.3116 271.3972 271.4132 271.4132 272.5285 272.8542 272.8542 272.8841
   273.1032 273.1054 273.1054 273.1104 276.5405 277.9542 277.9542 278.3258
   278.7057 279.2226 279.3801 280.6289 280.6289 281.1352 281.1352 282.5185
   283.8334 285.7665 285.7857 285.7857 285.9516 285.9516 286.1664 286.3289
   287.3859 287.6563 287.6563 288.0081 288.5736 288.8095 288.8380 288.8380
   288.9529 288.9741 288.9741 289.0649 289.3111 289.3111 289.5916 289.8906
   290.7681 290.7721 290.7721 290.7766 291.4972 291.5125 291.5145 291.5167
   291.5167 291.5663 291.5685 291.5685 293.8120 294.4979 294.9064 294.9064
   295.2734 295.5527 295.6697 295.6697 295.6933 295.9247 296.0044 296.0044
   296.4954 296.4954 296.5421 296.6421 296.7438 297.0173 297.0173 297.3149
   298.9304 299.0474 299.0474 299.0690 299.6252 299.7244 299.7866 299.7866
   300.0148 300.0903 300.0903 300.1047 300.5373 300.6036 300.6120 300.6120
   300.6232 300.6321 300.6321 300.6503 305.8493 306.6924 306.6924 306.8890
   307.4505 307.4698 307.4950 307.5373 307.5373 307.6136 307.6136 307.7963
   310.5361 310.8599 310.8599 310.8605 312.1871 314.0611 314.0611 314.1786
   314.4658 314.4972 314.5269 314.8557 314.8557 314.9632 314.9632 314.9748
   314.9771 315.1221 315.1221 315.2592 316.1734 316.1734 316.1918 316.2230
   316.2257 316.2571 316.2867 316.2867 317.7613 317.8553 317.8667 317.8667
   318.9506 321.9291 322.0830 322.7134 322.7847 322.7847 323.2889 323.2889
   323.4017 323.5949 323.8643 323.9521 323.9521 324.0521 324.0662 324.2317
   324.4492 324.4492 324.4749 324.4959 324.7069 324.7069 325.2047 325.4517
   325.4517 325.4858 325.5356 325.5548 325.6597 325.6597 326.6843 326.6843
   327.2017 327.2017 327.2092 327.2168 333.1900 333.4939 333.4939 333.7171
   333.7518 334.3029 334.3029 334.3099 334.3420 334.3420 334.4129 334.5306
   334.5493 334.5969 334.6642 334.6642 338.0614 338.0614 338.2115 338.6736
   339.5619 340.6768 340.6768 340.9679 341.1276 341.3033 341.3033 341.4674
   341.5365 341.7649 341.9827 341.9827 342.6628 342.6628 343.2990 343.6082
   344.7451 344.7500 344.7984 344.7984 344.8813 344.9271 344.9271 344.9311
   351.2408 351.5625 351.6075 352.1700 352.1700 352.2983 352.3397 352.3397
   352.6976 352.7497 352.7497 352.7982 353.3319 353.5263 353.5263 353.5785
   356.1494 356.7174 356.7174 357.0638 357.3127 359.2171 359.2568 359.2568
   359.3659 359.7137 359.7137 359.9454 360.1265 360.5118 360.5437 360.5437
   360.6430 360.7742 360.7742 360.8735 360.8795 360.9301 361.0268 361.0268
   361.2125 361.2593 361.2593 361.5283 365.3155 366.9035 367.1843 367.1843
   368.5386 368.6925 368.7525 368.8044 368.8044 368.9601 369.3738 369.5397
   369.5397 369.9659 369.9659 370.0495 370.1852 370.2415 370.2415 370.2875
   370.3074 370.3199 372.5295 372.5295 373.8981 374.5395 374.5395 374.9515
   375.0314 375.4404 375.7429 375.7429 376.4275 376.8741 377.0958 377.0958
   377.1976 377.1976 377.4454 377.4738 377.5322 377.6223 377.7782 377.7782
   377.8647 377.9833 377.9858 377.9858 378.1372 378.4006 378.6780 378.6780
   378.9011 378.9571 378.9573 379.0001 379.0001 379.1447 379.1447 379.3933
   380.4249 380.4346 380.4346 380.4388 380.9580 380.9806 380.9815 380.9815
   381.1393 381.1710 381.1710 381.1739 381.1812 381.1866 381.1866 381.1955
   385.8918 385.9322 385.9322 386.1825 386.6866 386.8674 387.1101 387.1238
   387.1238 387.4154 387.7484 387.9296 387.9296 387.9790 388.0072 388.0072
   388.0435 388.2153 388.2153 388.2420 388.2428 388.2428 388.2745 388.2775
   388.3124 388.3170 388.5572 388.5572 393.3686 394.1707 394.1707 394.8562
   395.7103 396.0656 396.3782 396.4999 396.5127 396.5127 396.8443 396.8443
   398.5878 398.5878 398.6749 398.6820 399.0630 399.0630 400.2147 400.4771
   401.2615 401.3953 402.6718 402.7052 402.7052 402.7907 402.8722 402.9383
   403.2544 403.2544 405.1152 405.1152 405.1888 405.2900 405.5332 405.5405
   405.5897 405.5897 405.6236 405.6629 405.6629 405.6954 405.7366 405.7802
   405.9995 405.9995 407.2120 407.2120 408.2056 408.2058 408.2141 408.2141
   408.2142 408.2236 408.2236 408.2402 411.5829 411.6175 411.6175 412.1369
   412.3710 412.7747 412.9228 412.9228 413.0707 413.1032 413.3384 413.3384
   414.4164 414.4429 414.4532 414.4532 414.8463 414.8876 414.8876 414.9350
   419.1137 419.1137 419.1834 419.6484 420.0003 420.8785 420.9939 420.9939
   421.8359 422.0027 422.0027 422.0481 422.0613 422.1544 422.1544 422.1894
   422.2753 422.3242 422.6311 422.6311 423.7218 423.7218 423.9073 423.9198
   423.9512 424.0066 424.0066 424.0598 425.3578 425.3587 425.3587 425.3631
   425.4230 425.4382 425.4382 425.4493 427.0530 427.0530 427.0564 427.0651
   428.3079 428.3335 428.3335 428.9922 429.2637 429.3559 429.3559 429.7717
   430.6323 431.1730 431.3379 431.8724 431.8724 431.8967 432.0420 432.0420
   432.1667 432.1667 432.2101 432.4155 432.6332 432.6332 432.6337 432.6376
   432.7376 432.7461 432.7609 432.7609 432.7936 432.9750 432.9750 433.0030
   433.0667 433.0896 433.2466 433.2466 434.8537 434.9056 434.9131 434.9131
   434.9227 434.9345 434.9348 434.9348 440.4305 440.8978 440.8978 441.1588
   441.5111 441.7077 441.8164 441.8949 441.8949 441.9359 441.9855 441.9855
   444.8792 446.1149 446.3361 446.3361 446.8684 447.0299 447.0299 447.2759
   447.3124 447.4735 447.4735 447.8462 448.1452 448.6794 448.6794 448.7348
   448.7763 448.9628 449.2301 449.2301 449.7820 449.8726 449.8726 449.9153
   451.9047 451.9349 451.9413 451.9413 452.7821 452.8212 452.8216 452.8241
   452.8241 452.8443 452.8451 452.8451 456.9794 457.3119 457.3119 457.3650
   457.7507 457.8113 457.8113 458.1406 458.2282 458.2322 458.2322 458.3116
   458.9837 459.0633 459.0633 459.1385 459.2873 459.3008 459.3234 459.3306
   459.3306 459.3788 459.3849 459.4111 459.4111 459.5900 459.5900 459.7059
   459.8160 459.8209 459.8334 459.8334 459.9390 459.9439 460.0015 460.0015
   461.4764 461.4973 461.4973 461.5156 462.9860 462.9860 463.5018 463.5914
   468.0694 468.3005 468.3005 468.4452 468.4700 468.4939 468.5098 468.5098
   468.8570 468.8609 468.8865 468.8865 468.8945 468.9930 469.0158 469.0158
   474.0248 474.2161 474.6489 474.6489 474.9897 475.1408 475.1408 475.2702
   475.4669 475.4669 475.5262 475.5494 477.3012 477.3470 477.3470 477.5312
   477.5462 477.5573 477.5711 477.5711 477.6058 477.6445 477.6445 477.6450
   479.0016 479.0790 479.0876 479.0876 479.2499 479.2499 479.2551 479.2590
   481.9425 481.9425 482.0027 482.0459 482.4048 482.6659 482.7507 482.8229
   482.8229 482.9671 483.0800 483.0800 484.7289 484.7567 484.7567 484.7798
   485.2713 485.4004 485.4663 485.6385 485.6385 485.6416 485.7244 485.7244
   488.1650 488.1659 488.1659 488.1710 488.7146 488.7165 488.7205 488.7205
   488.7214 488.7333 488.7333 488.7417 489.8173 489.8185 489.8186 489.8186
   491.1446 491.9938 494.7545 494.9014 494.9275 494.9275 495.0263 495.2844
   495.3033 495.4547 495.4547 495.4807 495.5043 495.5043 495.8995 496.7338
   496.8109 496.8109 497.3880 497.3880 501.6503 501.8008 501.8008 501.8926
   502.3441 502.3441 502.4525 502.6485 502.7485 502.7890 502.7890 502.9072
   505.8617 505.8853 505.8853 505.8914 506.1078 506.1226 506.1226 506.1228
   509.5951 509.5951 509.6819 509.9033 509.9422 510.0329 510.0329 510.0644
   510.2155 510.4423 510.4423 511.0611 511.5698 511.5698 511.6057 511.6331
   512.5005 512.7472 512.7472 512.8720 512.9040 512.9621 512.9621 512.9724
   512.9733 512.9834 512.9901 512.9901 513.1094 513.1098 513.1143 513.1833
   513.1833 513.2109 513.2572 513.2572 513.3711 513.4332 513.4559 513.4559
   513.5010 513.5022 513.5890 513.5890 513.6100 513.6557 513.6557 513.7023
   515.1681 515.1681 515.1806 515.1807 515.6215 515.6244 515.6267 515.6267
   515.6599 515.6618 515.6618 515.6641 520.1722 520.1722 520.2014 520.4109
   520.6033 520.6417 520.7047 520.7047 520.8416 520.8478 520.8482 520.8482
   520.8522 520.9556 520.9556 521.0478 521.8811 521.9604 521.9677 521.9784
   521.9784 522.0666 522.1710 522.1710 522.3030 522.3030 522.3341 522.3528
   522.3532 522.3532 522.3568 522.3583 528.0274 528.2883 528.3758 528.3758
   528.4322 528.4606 528.4757 528.4757 530.3085 530.4619 530.4619 530.6156
   531.0464 531.0464 531.3753 531.4795 531.5095 531.5531 531.5558 531.5558
   531.5722 531.5777 531.5777 531.5867 531.5924 531.5926 531.6168 531.6168
   531.6894 531.7363 531.7363 531.7719 533.6624 533.6624 533.6649 533.6663
   533.6674 533.6724 533.6724 533.6822 537.2272 537.7101 537.7524 537.7524
   538.2480 538.3418 538.4773 538.4773 539.9986 540.0550 540.0550 540.0651
   540.1263 540.1263 540.1317 540.1342 540.2153 540.2153 540.2162 540.2384
   540.2514 540.2548 540.2663 540.2663 541.0006 541.0130 541.0130 541.0248
   541.7238 541.7395 541.7457 541.7457 541.9827 541.9890 541.9902 541.9902
   547.4629 547.6683 547.7496 547.7709 547.7709 547.8128 547.8275 547.8275
   548.6397 548.6807 548.7580 548.7580 548.9338 548.9365 548.9515 548.9578
   548.9578 549.1476 549.1476 549.1848 549.4373 549.4510 549.4510 549.4724
   556.4240 556.4536 556.5628 556.6321 556.6321 556.6739 556.6739 556.7004
   556.8498 556.8845 556.9138 556.9138 556.9177 556.9329 556.9436 556.9436
   557.8386 557.8534 557.8534 557.8687 557.9752 557.9945 557.9945 558.0031
   558.3536 558.4598 558.4598 558.4710 558.4923 558.4923 558.5018 558.5030
   564.4365 564.5782 564.5782 564.6668 565.1611 565.1611 565.1655 565.2161
   565.2680 565.3320 565.3402 565.3402 565.3888 565.3898 565.4113 565.4113
   565.7873 565.7914 565.7914 565.7977 566.0270 566.0270 566.0346 566.1320
   566.4234 566.4316 566.4440 566.4440 566.7896 566.8046 566.8046 566.8438
   566.8468 566.8468 566.8672 566.8705 567.1454 567.1597 567.1597 567.1707
   567.2963 567.3380 567.3446 567.3446 567.3451 567.3684 567.3718 567.4075
   567.4075 567.4106 567.4443 567.4443 568.8361 568.8367 568.8390 568.8390
   569.2192 569.2192 569.2254 569.2272 574.4418 574.5680 574.5736 574.5736
   574.5736 574.6169 574.6436 574.6436 576.3371 576.3658 576.3658 576.3741
   576.3783 576.3791 576.3811 576.3811 576.4555 576.4555 576.4805 576.4814
   576.5200 576.5356 576.5356 576.5457 582.6896 582.7364 582.7364 582.7991
   583.1925 583.1925 583.2279 583.3059 583.3596 583.3600 583.3600 583.3734
   584.7527 584.7791 584.7791 584.7814 584.9087 584.9087 584.9162 584.9298
   584.9376 584.9378 584.9393 584.9393 585.0571 585.1139 585.1224 585.1224
   585.3584 585.3706 585.3869 585.4036 585.4036 585.4097 585.4130 585.4130
   586.9395 586.9419 586.9419 586.9433 590.2330 590.4288 593.1923 593.2539
   593.2539 593.2540 593.9228 593.9539 593.9539 593.9835 593.9835 593.9849
   593.9942 593.9946 594.2338 594.2338 594.2652 594.2783 594.2783 594.2850
   594.2851 594.2911 595.3927 595.3927 600.8370 600.8881 600.8881 601.0162
   601.3809 601.3811 601.3811 601.4017 602.6519 602.6582 602.6582 602.6617
   602.9119 602.9445 602.9445 602.9561 602.9563 602.9654 602.9660 602.9660
   603.1859 603.1859 603.2565 603.3193 608.0577 608.1885 608.1986 608.2072
   608.2072 608.2571 608.2571 608.2729 609.3984 609.3984 609.7777 609.8791
   610.8796 610.9279 610.9414 610.9613 610.9613 610.9976 611.0146 611.0146
   611.7011 611.7036 611.7039 611.7039 611.8884 611.9041 611.9041 611.9084
   612.1318 612.1318 612.1445 612.1533 612.1552 612.1573 612.1621 612.1621

     the Fermi energy is     2.1714 ev
     (compare with:     2.1714 eV, computed in scf)

     Writing all to output data dir out/mp-612118.save/
 
     init_run     :      0.03s CPU      0.15s WALL (       1 calls)
     electrons    :   3710.80s CPU   3992.07s WALL (       1 calls)

     Called by init_run:
     wfcinit      :      0.00s CPU      0.00s WALL (       1 calls)
     potinit      :      0.01s CPU      0.02s WALL (       1 calls)
     hinit0       :      0.01s CPU      0.12s WALL (       1 calls)

     Called by electrons:
     c_bands      :   3710.79s CPU   3992.02s WALL (       1 calls)
     v_of_rho     :      0.00s CPU      0.00s WALL (       1 calls)

     Called by c_bands:
     init_us_2    :      0.00s CPU      0.00s WALL (      29 calls)
     init_us_2:cp :      0.00s CPU      0.00s WALL (      29 calls)
     cegterg      :   3636.55s CPU   3911.83s WALL (      29 calls)

     Called by *egterg:
     cdiaghg      :   3492.85s CPU   3761.89s WALL (     249 calls)
     h_psi        :     40.71s CPU     42.71s WALL (     278 calls)
     g_psi        :      0.24s CPU      0.24s WALL (     220 calls)

     Called by h_psi:
     h_psi:calbec :      0.50s CPU      0.53s WALL (     278 calls)
     vloc_psi     :     39.30s CPU     41.26s WALL (     278 calls)
     add_vuspsi   :      0.40s CPU      0.41s WALL (     278 calls)

     General routines
     calbec       :      0.49s CPU      0.53s WALL (     278 calls)
     fft          :      0.00s CPU      0.12s WALL (      10 calls)
     fftw         :     36.69s CPU     38.53s WALL (  552980 calls)
 
     Parallel routines
 
     PWSCF        :      1h 1m CPU      1h 6m WALL

 
   This run was terminated on:   3:23:39  17Nov2023            

=------------------------------------------------------------------------------=
   JOB DONE.
=------------------------------------------------------------------------------=
