
     Program PWSCF v.7.1 starts on  6Apr2024 at  7:43:44 

     This program is part of the open-source Quantum ESPRESSO suite
     for quantum simulation of materials; please cite
         "P. Giannozzi et al., J. Phys.:Condens. Matter 21 395502 (2009);
         "P. Giannozzi et al., J. Phys.:Condens. Matter 29 465901 (2017);
         "P. Giannozzi et al., J. Chem. Phys. 152 154105 (2020);
          URL http://www.quantum-espresso.org", 
     in publications or presentations arising from this work. More details at
     http://www.quantum-espresso.org/quote

     Parallel version (MPI), running on     8 processors

     MPI processes distributed on     1 nodes
     219836 MiB available memory on the printing compute node when the environment starts
 
     Reading input from pw_BN_nscf_k37_E62.in
Warning: card &IONS ignored
Warning: card / ignored
Warning: card &CELL ignored
Warning: card / ignored

     Current dimensions of program PWSCF are:
     Max number of different atomic species (ntypx) = 10
     Max number of k-points (npk) =  40000
     Max angular momentum in pseudopotentials (lmaxx) =  4

     Atomic positions and unit cell read from directory:
     out/BN.save/
     Atomic positions from file used, from input discarded
 
 
     R & G space division:  proc/nbgrp/npool/nimage =       8
     Subspace diagonalization in iterative solution of the eigenvalue problem:
     one sub-group per band group will be used
     scalapack distributed-memory algorithm (size of sub-group:  2*  2 procs)

 
     Parallelization info
     --------------------
     sticks:   dense  smooth     PW     G-vecs:    dense   smooth      PW
     Min          47      47     15                 5093     5093     877
     Max          48      48     16                 5114     5114     896
     Sum         379     379    121                40811    40811    7097
 
     Using Slab Decomposition
 


     bravais-lattice index     =            4
     lattice parameter (alat)  =       4.7160  a.u.
     unit-cell volume          =     618.7652 (a.u.)^3
     number of atoms/cell      =            2
     number of atomic types    =            2
     number of electrons       =         8.00
     number of Kohn-Sham states=         1200
     kinetic-energy cutoff     =      62.0000  Ry
     charge density cutoff     =     248.0000  Ry
     Exchange-correlation= PBE
                           (   1   4   3   4   0   0   0)

     celldm(1)=   4.716000  celldm(2)=   0.000000  celldm(3)=   6.811990
     celldm(4)=   0.000000  celldm(5)=   0.000000  celldm(6)=   0.000000

     crystal axes: (cart. coord. in units of alat)
               a(1) = (   1.000000   0.000000   0.000000 )  
               a(2) = (  -0.500000   0.866025   0.000000 )  
               a(3) = (   0.000000   0.000000   6.811990 )  

     reciprocal axes: (cart. coord. in units 2 pi/alat)
               b(1) = (  1.000000  0.577350  0.000000 )  
               b(2) = (  0.000000  1.154701  0.000000 )  
               b(3) = (  0.000000  0.000000  0.146800 )  


     PseudoPot. # 1 for B  read from file:
     /usr/scratch4/magr4985/FGWC/FGWC/pseudo/SG15/B.upf
     MD5 check sum: eb3cbeacc2d324d57d903df00f564d27
     Pseudo is Norm-conserving, Zval =  3.0
     Generated using ONCVPSP code by D. R. Hamann
     Using radial grid of  602 points,  4 beta functions with: 
                l(1) =   0
                l(2) =   0
                l(3) =   1
                l(4) =   1

     PseudoPot. # 2 for N  read from file:
     /usr/scratch4/magr4985/FGWC/FGWC/pseudo/SG15/N.upf
     MD5 check sum: c233fa8df51455e992258b7c3dee8a9f
     Pseudo is Norm-conserving, Zval =  5.0
     Generated using ONCVPSP code by D. R. Hamann
     Using radial grid of  602 points,  4 beta functions with: 
                l(1) =   0
                l(2) =   0
                l(3) =   1
                l(4) =   1

     atomic species   valence    mass     pseudopotential
        B              3.00    10.81100     B ( 1.00)
        N              5.00    14.00670     N ( 1.00)

     12 Sym. Ops. (no inversion) found



   Cartesian axes

     site n.     atom                  positions (alat units)
         1           B   tau(   1) = (   0.0000000   0.5773502   0.0000000  )
         2           N   tau(   2) = (   0.5000000   0.2886752   0.0000000  )

     number of k points=     7  Gaussian smearing, width (Ry)=  0.0005
                       cart. coord. in units 2pi/alat
        k(    1) = (   0.0000000   0.0000000   0.0000000), wk =   0.0555556
        k(    2) = (   0.0000000   0.1924501   0.0000000), wk =   0.3333333
        k(    3) = (   0.0000000   0.3849002   0.0000000), wk =   0.3333333
        k(    4) = (   0.0000000  -0.5773503   0.0000000), wk =   0.1666667
        k(    5) = (   0.1666667   0.2886751   0.0000000), wk =   0.3333333
        k(    6) = (   0.1666667   0.4811252   0.0000000), wk =   0.6666667
        k(    7) = (   0.3333333   0.5773503   0.0000000), wk =   0.1111111

     Dense  grid:    40811 G-vectors     FFT dimensions: (  24,  24, 162)

     Estimated max dynamical RAM per process >     208.75 MB

     Estimated total dynamical RAM >       1.63 GB

     The potential is recalculated from file :
     out/BN.save/charge-density

     Starting wfcs are random

     Band Structure Calculation
     Davidson diagonalization with overlap

     ethr =  5.00E-06,  avg # of iterations = 10.1

     total cpu time spent up to now is      412.5 secs

     End of band structure calculation

          k = 0.0000 0.0000 0.0000 (  5055 PWs)   bands (ev):

   -21.4317  -9.0300  -5.0945  -5.0945   0.9668   1.9002   2.3095   3.6625
     4.2112   6.4787   7.1441   7.9537   7.9537   9.2346  10.0376  11.7318
    12.8396  16.4755  17.8816  22.0185  22.4148  24.4763  26.4629  26.4629
    28.1984  29.3598  29.3599  31.8342  31.9292  32.2780  32.2780  33.0366
    33.0366  33.4295  33.5888  33.9369  34.4164  34.4164  34.4205  34.4205
    34.4916  34.4916  34.5623  34.6330  34.6330  34.6456  34.7921  35.5256
    36.0550  36.0550  36.2733  36.2733  36.3646  36.3704  36.3704  36.5840
    36.5840  36.6048  37.1204  38.1983  38.7624  38.9633  38.9633  39.4746
    39.4746  39.5053  39.5053  39.7571  39.9166  39.9166  40.5852  40.6586
    40.8531  42.3542  42.8298  42.8298  43.7413  43.7413  43.9018  43.9018
    44.2242  44.3066  44.4076  44.4076  45.1227  47.0268  47.0268  47.2842
    48.2027  49.1443  49.1443  49.3978  49.3978  49.6540  49.9757  49.9757
    50.5411  50.8426  50.8617  51.4860  51.4860  53.7717  55.6254  55.6254
    55.7723  55.9952  55.9952  56.4181  56.6201  56.6201  57.3550  57.3623
    57.3623  59.6800  61.1681  61.3585  63.1396  63.1396  63.6703  63.6703
    64.0672  64.1286  64.3285  64.3285  64.7263  64.7263  65.0410  69.0299
    70.4037  70.7669  70.7669  72.2659  72.3272  72.3272  72.4100  72.4100
    72.6582  73.0812  73.0812  73.3555  73.3555  74.0464  74.1080  76.9888
    78.5112  80.1741  80.9550  80.9550  81.3275  82.2027  82.2027  82.3355
    82.8425  82.8425  83.0319  83.0319  85.0385  85.2976  87.6272  87.9176
    87.9645  87.9645  90.1074  90.3505  90.3505  92.4825  92.4825  92.8090
    93.1697  93.1697  93.2321  93.6417  93.6417  94.0693  94.0856  94.0856
    94.2751  94.2751  94.7734  96.3680  96.3680  97.7647  97.7647  97.7777
    98.0648  98.1932  98.7790  98.7790  98.8004  98.8004  98.9361  98.9361
    98.9502  98.9502  98.9596  98.9962  99.0564  99.2660 100.2299 100.2299
   100.3579 100.5974 100.6261 100.6261 100.8326 100.8326 100.9282 100.9631
   100.9631 101.0150 101.4720 101.6633 102.8555 102.8555 103.2097 103.7595
   103.7595 103.8857 104.1133 104.1133 104.1343 104.1343 104.2507 104.2796
   104.8635 105.0157 105.0157 105.3192 105.3192 105.4634 105.5977 105.5977
   105.8377 105.8377 105.8794 105.8794 106.3444 107.8827 108.2592 108.2592
   108.5637 108.5637 108.5799 108.5799 108.7066 108.7353 108.8520 108.8520
   109.3069 109.6449 111.6526 113.5231 113.5231 113.5804 113.5942 113.5942
   113.8581 114.0823 114.0823 114.1327 114.1327 114.2755 114.3034 114.6670
   114.8309 116.3636 117.8801 117.8801 117.8887 117.8887 118.0986 118.4731
   118.4731 118.6983 118.6983 119.4028 120.0813 120.1938 120.1938 120.2146
   120.2146 120.4871 120.6218 120.6218 120.7638 120.7638 120.9324 120.9555
   122.2682 123.3512 123.8658 123.8658 124.6095 124.6935 124.6935 126.7269
   127.0189 127.0189 128.1153 128.1153 128.2910 128.2910 128.5036 128.5036
   128.6605 128.6777 128.7059 128.8630 128.8630 129.5819 129.9053 129.9053
   130.0125 130.0680 130.1519 130.9601 130.9601 131.0364 131.0364 131.1182
   131.1315 131.1315 131.1349 131.1508 131.1509 131.1509 131.1880 131.6005
   131.7426 131.7426 132.0105 132.0105 132.6087 132.7336 132.7336 132.8316
   132.8316 132.9050 132.9300 132.9300 132.9962 132.9962 133.0337 133.0388
   133.0388 133.0612 133.0612 133.2247 133.2652 133.6393 134.4258 135.5330
   135.5330 135.5549 135.8282 135.8282 136.0115 136.0350 136.0350 136.1609
   136.1609 136.5713 136.7792 136.8202 136.8202 137.0598 137.0598 137.0840
   137.2732 137.2732 137.2986 137.2986 137.4520 137.4587 139.1588 139.8907
   139.8907 139.9434 140.6023 140.6023 140.7059 140.7059 140.7950 140.7950
   140.8312 140.9822 141.6084 142.6759 143.8032 144.6088 144.6088 145.3147
   145.3147 145.6839 145.6839 146.0086 146.0086 146.2544 146.3269 146.4633
   146.4916 146.5881 146.5881 146.7972 146.7972 146.8292 146.8292 146.9367
   146.9367 147.2905 147.3029 147.4066 147.4066 147.4346 147.4346 147.5914
   147.6556 147.7327 148.2047 148.2047 148.2073 148.2073 149.3230 149.3394
   149.9500 151.6666 151.6666 152.1745 152.7035 152.7035 152.7413 152.7413
   152.8492 152.9003 152.9003 153.2436 154.0207 155.5645 156.3237 156.3237
   157.3425 157.3425 157.9148 157.9148 157.9278 157.9278 158.1767 158.1839
   158.1940 158.6977 158.6977 159.3968 160.3653 160.3653 160.6407 160.6407
   160.7062 160.7062 160.8213 160.9117 161.2446 161.2469 162.4330 162.9904
   162.9904 163.1199 163.2639 163.2639 163.9210 163.9210 164.0689 164.0689
   164.7360 166.5297 166.5297 166.6190 167.1007 167.9206 168.0290 168.0290
   168.5361 168.6516 168.6516 169.0090 169.0090 169.7183 169.7957 169.7957
   169.9271 169.9271 170.0425 170.0711 170.0711 170.0850 170.0850 170.1248
   170.1335 170.1818 171.3082 173.3855 173.3855 175.2532 177.6919 178.5635
   178.5635 178.7095 178.7095 179.0868 179.0868 179.2995 179.4464 179.4734
   179.7626 179.8758 180.0069 180.0069 180.3485 180.3485 180.4838 180.4838
   180.9640 180.9640 181.0351 181.0351 181.6088 182.1250 182.1250 182.5987
   182.7473 182.7473 182.9283 182.9283 182.9543 182.9543 183.1086 183.1203
   183.7640 185.7568 186.1474 187.7651 187.7651 188.3577 189.7516 189.7516
   189.8087 189.8087 189.9406 190.0458 190.0458 190.2963 190.3518 190.4257
   190.4257 193.4313 194.8973 195.8664 195.8664 196.0216 196.1561 196.1561
   196.6762 196.8665 196.8665 196.9042 196.9042 197.1472 197.1509 197.2579
   198.5175 198.5175 198.5433 198.5433 199.3334 199.5458 199.5746 199.5746
   199.5839 199.5839 199.8808 199.8808 201.0671 201.6658 201.7602 201.7602
   201.9244 201.9244 202.0345 202.0345 202.0485 202.0657 202.2523 202.2523
   205.4268 205.7797 207.1360 207.1360 208.2597 208.3330 208.8676 209.8508
   210.5109 211.0183 211.0183 211.1686 211.1686 211.9088 211.9088 211.9540
   211.9540 212.2210 212.2534 214.3250 214.3250 214.3288 214.3288 214.3621
   214.9813 214.9813 215.0534 215.0534 215.2200 215.7490 216.0441 216.0494
   217.5028 217.8125 217.8564 217.8564 217.8658 217.8658 218.2552 218.2552
   218.6925 218.6925 218.6939 218.6939 219.0830 219.0830 219.2769 219.6808
   219.7124 221.1003 222.1520 222.1520 222.7034 222.7034 222.9060 224.5359
   224.5359 224.5954 225.3403 225.3403 226.0760 226.0760 226.1177 226.5770
   226.6900 226.6900 226.7398 226.7443 226.7505 226.9480 226.9480 227.0864
   227.0864 227.5135 227.5135 227.5281 227.5281 227.5564 227.5565 227.6113
   227.6314 227.6567 227.6568 227.6897 227.7041 227.7603 227.7603 227.7609
   227.7609 227.7735 227.7939 227.7939 227.8003 227.8190 227.8243 227.8243
   227.8446 227.8651 227.8747 227.8747 227.9377 227.9578 227.9578 228.3500
   228.3571 228.5168 228.5168 228.7971 228.8547 228.8547 229.1939 229.1939
   229.2091 229.2091 229.4243 229.4401 229.4583 229.4884 229.4970 229.4970
   229.5033 229.5258 229.5258 229.5632 229.5632 229.5702 229.5702 229.5730
   229.6818 229.6818 229.7274 229.7624 229.7624 229.8260 229.8261 229.8554
   229.8978 229.8978 229.9328 230.3381 230.7279 232.2260 232.2260 232.2868
   232.4478 232.4478 232.5503 232.5503 232.6445 232.6445 232.7239 232.7322
   232.8186 232.8186 232.8853 233.0583 233.0583 233.1634 233.1634 233.1824
   233.1824 233.2052 233.2362 233.3132 233.4681 234.4085 236.1795 236.1795
   236.5811 236.5812 236.7988 236.8353 236.8353 236.8582 236.9225 236.9998
   236.9998 237.0930 237.1257 237.1382 237.1382 237.5270 237.5270 237.6170
   237.6171 237.6627 237.6627 237.6855 237.7158 237.7256 237.9541 238.0248
   238.0248 238.1119 238.1119 238.8721 238.8721 238.9640 238.9640 239.0740
   239.3428 241.0519 241.0519 241.3741 241.7544 241.7544 242.0035 242.1641
   242.1641 242.4328 242.4328 242.4824 242.4824 242.6091 242.6270 243.0437
   243.0437 243.1021 243.1103 243.1659 243.1659 243.2246 243.2246 243.2371
   243.2641 243.2972 243.4100 243.4100 243.5535 243.5535 243.5563 243.6699
   243.6699 243.8310 243.8310 244.5615 245.1023 245.2029 245.2029 245.3313
   245.3313 245.4008 245.4008 245.4200 245.4200 245.4606 245.5178 245.5190
   245.8654 247.9785 247.9785 248.4444 248.5166 248.5166 248.9171 248.9171
   249.0870 249.0870 249.2211 249.2330 249.2362 249.2515 249.2515 249.6361
   249.6764 249.7408 249.7408 249.8552 249.8552 249.9104 249.9104 249.9497
   249.9771 250.0010 250.5677 253.0996 253.0996 253.8134 255.6736 255.6736
   256.4094 256.4094 256.4125 256.7006 256.7006 256.7940 256.7940 256.9105
   256.9164 256.9987 257.0353 257.4255 257.4255 257.5357 257.5357 257.6247
   257.6247 257.6316 257.6818 257.7027 258.1855 258.5117 258.5117 258.8045
   258.8045 259.0570 259.0570 259.3756 259.9732 259.9732 260.0637 260.0997
   260.0997 260.1601 260.1601 260.1985 260.2185 260.2185 260.2938 260.2938
   260.3615 260.3807 260.4705 260.4705 261.1458 262.6992 263.2667 263.2667
   263.3615 263.3615 263.3908 263.4344 263.4344 263.5199 263.5199 263.7066
   263.7136 263.8100 263.8100 263.8589 264.7876 264.7876 264.8173 265.3112
   265.3112 265.5025 265.5025 265.6600 265.6600 265.6708 265.6722 265.9134
   266.2302 266.2302 266.4287 266.4287 266.4988 266.5075 266.5420 266.5656
   266.5656 266.6480 266.6480 267.1853 271.6138 271.8266 272.9677 273.8105
   273.8105 273.9687 274.8183 274.8183 275.1123 275.1947 275.1947 275.2522
   275.2522 275.4827 275.4898 275.9917 275.9917 275.9952 275.9952 276.0645
   276.2389 276.2389 276.2748 276.2748 276.3269 276.3288 276.3417 276.3556
   276.7660 277.0339 277.0339 277.1026 277.1026 277.1870 277.1870 277.2780
   277.2780 277.7211 278.6076 279.4300 279.9204 281.3058 281.3058 281.3954
   281.5697 281.5697 281.7508 281.7508 281.8577 281.8577 282.8315 282.8315
   282.8412 282.8412 282.9640 282.9644 283.0650 283.2703 283.2703 283.2967
   283.2967 283.4517 283.7109 284.3698 284.8478 284.8478 284.9508 284.9852
   284.9852 285.1192 285.1192 285.6907 286.0577 286.0577 286.1956 286.1956
   286.2856 286.2856 286.3578 286.3624 286.6815 286.6815 286.9116 287.0833
   287.1629 287.1629 287.1707 287.1707 287.2321 287.2321 287.2414 287.2527
   287.9779 290.2901 290.2901 290.7339 290.7339 290.7687 291.1978 291.9919
   292.0467 292.0467 292.1041 292.1042 292.1066 292.1085 292.1085 292.1181
   292.1181 292.1236 292.2102 292.9904 293.6612 293.6612 293.8012 293.9646
   293.9647 293.9794 293.9794 293.9927 294.0375 294.0376 294.0737 294.2664
   294.4435 294.4435 294.6874 295.0900 295.0900 295.3067 295.3067 295.4328
   295.4328 295.7267 296.1187 296.5856 296.5884 296.5884 297.1563 297.1564
   297.1642 297.1642 297.1714 297.1897 297.1898 297.2340 297.2546 297.3585
   297.5383 297.5383 297.7073 297.8830 298.0244 298.0244 298.1017 298.1017
   298.1429 298.1429 298.2798 298.2854 298.4525 298.6537 298.6537 298.7431
   298.8808 298.8808 299.0889 299.0889 299.0894 299.0894 299.1643 299.1749
   299.7151 300.8832 301.2362 301.2362 301.6568 301.6568 301.6823 301.7016
   301.7134 301.7134 301.7244 301.7244 301.7609 301.8108 302.2289 302.2289
   302.3181 302.3757 302.3757 303.0097 303.0097 303.0114 303.0114 303.2669
   303.2774 303.4176 304.7314 305.1568 305.1568 305.2973 305.2973 306.2825
   306.2825 306.2972 306.2972 306.3040 306.4774 306.5437 306.5437 307.0032
   307.1585 307.1585 307.1757 307.1757 307.1818 307.1973 307.1973 307.2105
   307.9100 309.5309 309.5464 309.5464 310.6780 310.6781 310.8470 310.8471
   310.9908 310.9908 311.1674 311.2527 311.2614 311.4345 311.4345 311.5865
   311.8426 311.8426 312.0729 312.0729 312.0786 312.0787 312.1680 312.1811

          k = 0.0000 0.1925 0.0000 (  5062 PWs)   bands (ev):

   -20.9029  -8.3130  -7.0658  -5.9986   1.8645   2.7397   3.2038   4.4685
     5.0966   6.8170   7.4734   8.3468   8.5984  10.1756  11.3173  12.1041
    13.8655  16.9681  18.7911  20.8047  22.5774  23.2881  23.5619  24.2163
    24.8372  24.9391  25.3007  26.6146  26.8605  27.9979  28.3076  29.1951
    29.8453  29.9446  29.9894  30.0167  30.3389  30.3520  31.1500  31.7840
    31.8655  32.3245  32.7173  32.8896  34.1752  34.2392  34.2567  34.8175
    35.2654  35.4232  35.7168  37.7715  38.2741  38.7566  38.9841  39.2377
    39.6487  39.6607  39.7700  40.3955  40.5533  40.6633  40.8117  40.8301
    41.1778  41.3824  42.0726  42.6076  42.6733  42.6876  43.0863  43.7462
    43.9522  45.1345  45.1485  45.1889  45.5591  45.6215  46.0370  46.0428
    46.0750  46.3287  46.7427  47.1282  47.3442  47.8224  48.5991  49.0021
    49.7009  50.3754  50.3806  50.4150  51.3427  51.4249  51.6417  51.8576
    51.8620  52.1639  52.5956  53.6879  54.3763  54.9328  55.5162  55.9287
    55.9492  56.0035  56.7211  57.7300  59.2149  59.5056  59.8468  59.8540
    60.9308  61.0045  62.1144  62.3218  62.5895  62.7079  62.7467  62.7996
    63.4941  64.7288  66.0224  67.5162  67.9093  67.9266  68.2176  68.5291
    68.5415  69.9340  70.2994  70.4564  71.2909  72.5615  72.8395  73.5016
    74.4522  74.9185  75.2290  75.3411  76.7051  76.9771  77.0500  78.0195
    78.1138  78.4817  78.6948  79.1699  79.1786  79.7482  81.9707  82.0471
    82.2327  83.1662  83.1824  83.2603  83.7192  83.7773  83.8087  83.8494
    84.5506  85.0090  85.4577  85.5994  85.7549  85.8160  86.2646  87.0133
    87.6371  88.3684  88.4596  88.6037  88.7403  88.7631  89.2230  89.2884
    89.2921  89.4007  89.6338  90.5597  90.7122  91.3557  92.4096  93.0964
    93.4354  93.5067  93.5575  93.9002  94.5815  94.7532  95.5149  97.1519
    97.3767  98.0096  98.0735  98.5248  98.8398  98.9056  99.2128  99.3133
    99.5397  99.6545  99.7650  99.8395  99.8714  99.8884 100.4602 100.9313
   101.0019 101.5164 101.5737 101.6176 101.6907 101.7063 101.7503 102.5432
   103.1798 104.0286 104.4919 104.5381 104.7863 105.0058 105.2238 105.2774
   105.5510 105.5546 106.4717 106.7353 107.6211 107.7916 108.2546 108.9042
   109.0651 109.2808 109.7263 109.8186 110.1349 110.1783 110.4918 110.5508
   111.3900 111.4723 111.5911 111.9689 112.1375 112.4903 112.8876 112.9110
   112.9722 113.1303 113.3348 113.7918 114.1012 114.1626 114.4063 114.4175
   114.8531 114.9415 115.0982 115.2699 115.4113 115.4518 115.5123 115.7717
   115.8731 115.9432 115.9541 115.9556 116.5499 116.8209 117.0681 117.3784
   117.6604 117.8244 117.9493 118.3765 119.4950 119.6527 119.8253 120.0298
   120.4440 120.8604 120.8611 120.9369 121.0669 121.1555 121.2486 121.3728
   121.3930 121.4134 121.5113 121.5433 121.6096 121.9043 122.0705 122.0887
   122.5542 123.0333 123.1387 123.1833 123.1836 123.6005 123.6172 124.5277
   124.5885 124.6107 124.7635 125.0642 125.5361 125.5526 125.6040 125.7935
   126.2048 126.2661 126.2817 126.3904 126.4334 127.4412 127.6665 127.8839
   128.7336 128.8186 128.8494 129.1287 129.5329 129.5566 129.9543 130.2950
   130.5710 130.7621 130.8034 130.9956 131.0804 131.0907 131.0926 131.3851
   131.8387 131.8762 131.9473 132.0849 132.4572 132.6810 133.8485 134.4208
   135.5558 135.6433 135.6470 136.2991 136.6808 136.6854 136.9603 137.2703
   137.2737 137.7495 137.8386 137.8877 137.9593 138.0533 138.3653 138.3971
   138.5418 138.9034 139.0702 139.5041 140.0656 140.8411 140.9959 141.5042
   142.0564 142.1189 142.3895 142.4261 142.4737 142.6898 142.7449 142.7751
   142.7839 142.8577 143.2434 143.2899 143.4792 143.5227 143.6347 143.6656
   144.3062 144.4360 144.4458 144.5536 144.6180 144.7829 145.3645 145.5010
   145.5864 146.7929 146.9888 147.0143 147.4690 147.5717 147.7019 147.9174
   148.0377 148.3530 148.4126 148.7322 148.9770 149.6281 149.8002 150.2352
   150.5624 150.6549 151.5884 151.6753 151.8471 152.2467 152.2517 152.2566
   152.7402 153.2489 153.3741 153.4135 153.5002 153.6233 153.6276 153.6729
   154.0470 154.1884 154.2635 154.3564 154.4520 154.6609 155.1109 155.3643
   155.4661 156.3306 156.7217 156.8981 157.6893 157.8986 158.0061 158.1490
   158.2914 158.4976 158.5144 158.5707 158.6948 158.7952 158.9887 159.0413
   159.1691 159.1903 159.5502 159.7116 159.7619 159.8575 160.1934 161.1271
   162.4258 162.5884 163.2092 163.3583 163.7952 163.8540 163.9762 164.3033
   164.6505 165.0831 165.3359 165.6693 167.1083 167.1694 167.3647 167.5126
   167.6309 167.8485 168.6045 168.7685 169.0041 169.0950 169.4174 169.4519
   169.5299 169.6583 169.8845 169.9182 170.1592 170.6333 170.7713 170.8748
   170.8842 170.9992 171.1850 172.0727 172.0733 172.2160 172.2733 173.5875
   173.7325 174.5029 174.8169 175.0015 175.4836 175.5418 175.7390 175.8319
   176.1983 176.2765 176.3307 178.1085 178.6813 179.0867 179.4514 179.8924
   180.0426 180.4469 180.7613 180.8268 180.9012 181.0106 181.5649 181.7856
   181.9996 182.0888 182.5074 182.5104 183.0706 183.1085 183.2878 183.5518
   184.3457 184.7294 185.5395 185.9720 186.4575 186.7317 186.7898 186.9232
   187.1321 187.2429 187.5368 188.2791 188.3654 188.8502 190.0880 190.7084
   191.0353 191.0704 191.1492 191.3059 191.5883 191.8193 191.9089 192.1091
   192.2687 192.5009 192.7480 193.3139 193.5860 194.1771 194.4404 194.4803
   194.6126 194.9047 195.5249 195.9858 196.1809 196.7645 196.8031 197.0499
   197.2352 197.5653 198.1170 198.8947 199.1006 199.1884 199.7201 199.8177
   200.0271 200.1492 200.2742 200.6200 200.8164 201.5953 201.6183 201.7664
   201.7752 201.8180 201.8231 201.8648 201.9120 202.3105 202.8880 203.1830
   203.6360 203.7532 203.7655 204.2238 204.8364 204.8510 204.8794 205.0123
   205.4203 205.4211 205.5111 205.7330 205.8168 206.2595 206.5950 206.9030
   206.9869 207.0024 207.0729 207.1804 207.2259 207.2434 207.4481 207.4676
   208.1964 208.4464 208.9843 208.9903 209.0256 209.0423 209.6553 209.9217
   210.7530 210.8035 210.9224 211.2060 211.3062 211.3988 211.4116 211.4588
   211.8102 211.8811 212.3503 212.3516 212.3558 212.3640 212.6189 212.8590
   212.9164 212.9390 213.0823 213.0981 213.4355 213.4764 213.4983 213.8838
   213.9374 213.9770 213.9801 214.0061 214.1497 214.1533 214.6011 215.2577
   215.4199 215.7082 216.2856 216.3943 216.6120 216.8372 217.0154 217.1234
   217.2436 218.0065 218.0295 218.5556 218.9520 219.0900 219.7712 221.0988
   221.1671 221.3811 221.9890 221.9926 222.1532 222.1917 222.7151 223.0055
   223.0958 223.1607 223.1867 223.1953 223.3586 223.3954 223.6381 223.7288
   224.2863 224.3700 224.3795 224.4053 224.5829 224.6198 224.7793 224.9443
   225.1407 225.1701 225.7936 225.9412 226.1577 226.3160 226.7593 227.0874
   227.2762 227.6203 227.8325 227.9424 228.3273 228.3649 228.3867 228.3937
   228.6776 228.6886 228.7860 228.8132 228.8659 228.8745 228.9242 228.9546
   229.0747 229.1252 229.1352 229.6496 229.7007 230.0004 230.0305 230.0597
   230.0705 230.3882 230.9100 231.2163 231.4154 231.5515 231.7508 232.0833
   232.3744 232.7258 232.7370 232.9041 233.0630 233.1673 233.5303 233.7265
   233.9025 233.9526 233.9854 233.9969 234.1000 234.3212 234.4719 234.5637
   234.9373 235.5405 235.7542 235.7799 235.8219 236.1047 236.1340 236.3164
   236.5209 236.7052 236.9755 237.3787 237.7839 238.0842 238.2255 238.5302
   238.6509 238.7747 239.0880 239.1267 239.2004 239.6213 239.6296 239.9211
   240.0115 240.1545 240.1697 240.1748 240.3122 241.2857 241.4628 241.5789
   242.4202 242.5767 243.4120 243.5377 243.5628 243.5695 243.8025 243.9864
   244.3902 244.4272 244.7638 244.7737 244.8045 245.2239 245.3087 245.3177
   245.3339 245.3491 245.3662 245.6089 245.6287 245.7228 246.0450 246.4072
   246.4613 246.9146 247.5104 247.5768 248.0399 248.1765 248.2387 248.5418
   248.5535 249.0329 249.0873 249.1090 249.1252 249.2499 249.3248 249.4236
   249.6560 249.6566 249.8505 249.9278 249.9588 250.0687 250.1320 250.2280
   250.2349 250.2577 250.3456 250.3514 250.5063 250.8711 250.9067 251.2863
   251.4092 251.8248 251.9103 251.9776 251.9823 252.4144 252.4422 252.4829
   252.5842 253.1419 253.6478 253.8863 254.0845 254.2351 254.7026 254.8957
   254.9542 254.9594 255.0711 255.0870 255.2060 255.2827 255.3177 255.3411
   255.4041 255.4657 255.4754 255.5425 255.5605 255.5879 255.6297 255.6534
   255.8155 255.8204 255.9025 256.0768 256.3665 256.6602 256.8814 257.2105
   257.4017 257.4700 257.7007 258.8390 259.1246 259.3769 259.5668 259.5686
   259.8004 260.3437 260.3809 260.5435 260.6394 260.7441 260.7504 260.7564
   260.8349 260.8649 260.8664 260.9705 261.1196 261.2370 261.6802 261.9249
   262.1112 262.1844 262.6881 262.7735 262.7764 262.8794 263.3114 263.6201
   263.6669 263.9208 264.0284 264.0787 264.2096 264.5151 264.7465 264.8441
   264.9034 265.0776 265.3374 265.3374 265.4709 265.5086 265.6071 265.6675
   265.8149 265.9789 266.0086 266.2061 266.2469 266.3379 266.3639 266.4623
   266.4893 266.9652 267.0617 267.2871 267.5276 267.8999 267.9610 268.0695
   269.4539 269.8110 269.8702 269.8887 269.9400 270.2395 270.3037 270.5325
   270.5628 270.6800 270.8710 271.0120 271.0616 271.0684 271.1336 271.4507
   271.6422 271.6790 271.7279 271.7421 271.9865 271.9879 272.0005 272.1889
   272.2712 272.3615 272.3979 272.4119 272.4420 272.7471 272.7944 273.2705
   273.6428 274.2651 274.6271 274.7347 274.8588 275.3596 275.7776 275.9412
   276.1981 276.5847 276.6418 276.8606 276.8790 276.9233 276.9557 277.0868
   277.2897 277.3506 277.6025 277.6624 277.7424 277.9170 277.9424 277.9772
   277.9895 278.4264 278.6870 278.8080 278.8487 278.8996 279.4027 279.4709
   279.7191 279.7476 279.8587 280.4678 280.4986 280.8591 281.0595 281.1485
   281.4998 281.6685 281.9492 281.9713 281.9837 282.1700 282.2790 282.3102
   282.3930 282.4561 282.4631 282.5743 282.6251 282.9110 283.0320 283.1956
   283.2848 284.0512 284.3570 284.3748 284.6210 284.9648 285.0162 285.1777
   285.3910 285.4298 285.6490 285.9244 285.9363 285.9714 286.3445 286.3943
   286.5031 286.6052 286.7775 287.0551 287.6170 287.7399 287.8723 287.8766
   288.0026 288.1741 288.2162 288.4761 288.5176 288.6385 288.8756 289.0768
   289.1431 289.1660 290.0512 290.1049 290.6296 290.6836 290.8629 290.9605
   291.7353 291.8346 291.9463 292.0380 292.3810 292.4420 292.6842 292.6893
   292.7450 293.0695 293.4841 293.6374 293.7778 293.7833 293.8041 294.0130
   294.0909 294.0913 294.1745 294.5301 294.9421 295.1477 295.9637 296.8228
   297.7468 297.8513 297.9245 297.9570 298.2552 298.3303 298.4180 298.6121
   298.6520 298.6652 298.8714 298.9467 299.3978 299.4561 299.6122 299.6877
   299.6930 299.7668 299.8842 299.8849 300.2163 300.5152 300.9512 301.1004
   301.3751 301.8253 302.1407 302.6246 302.7996 303.0854 303.1072 303.3304
   303.4853 303.6681 303.7891 303.8839 303.9637 304.4694 304.5430 304.6545
   304.7171 304.7730 305.0630 305.1332 305.1680 305.2467 305.5196 305.9362
   306.2408 306.3043 306.4656 306.7452 306.7899 307.0689 307.1715 307.2751
   307.2861 307.2884 307.3086 307.5880 307.6209 307.9364 308.6330 308.7615
   308.8176 308.8213 308.8649 308.8797 309.1229 309.1378 309.1713 309.1794
   309.1928 309.2086 309.3862 310.6211 310.9458 310.9806 310.9979 311.0730
   311.4635 311.9428 312.0108 313.0790 313.1802 313.6446 313.6613 313.9843
   314.2245 314.2272 314.3221 314.4370 314.5500 314.5581 314.6643 314.8124
   314.9085 314.9224 315.0330 315.0759 315.3149 316.1944 316.7290 316.8601

          k = 0.0000 0.3849 0.0000 (  5104 PWs)   bands (ev):

   -19.4796 -10.6462  -7.3784  -6.3485   3.3850   4.3655   5.6884   5.8307
     6.8787   7.3823   8.0704  10.2824  10.9272  13.4183  13.8451  15.0052
    15.4471  15.5908  16.4316  17.1502  17.2413  18.6343  19.0905  20.2991
    20.7071  21.1986  22.1875  22.3668  25.1784  25.2007  25.6801  26.3091
    26.4541  27.1274  27.3112  27.3556  27.4799  27.6263  28.4605  28.6392
    29.1181  29.2406  29.8294  30.5675  32.0008  32.1106  32.1502  32.5096
    33.1069  33.8078  35.1631  35.5553  36.0911  36.9249  37.3212  37.8737
    38.6597  38.7672  39.1925  41.1857  41.9859  42.0775  42.4658  42.9439
    43.2443  43.7706  44.9601  45.4947  46.6231  47.3649  47.5700  47.8315
    48.6783  48.6790  48.7818  48.8291  49.0279  49.1708  49.6608  50.1490
    50.7573  50.7685  50.8451  51.3826  52.3968  53.6419  53.7439  54.0159
    54.1497  54.2388  54.5005  55.3282  55.9562  56.2039  56.7797  56.9438
    57.4254  57.8134  57.8157  58.4954  58.8348  59.4472  59.6039  59.9292
    61.0021  61.1248  61.2833  62.4430  62.5703  63.6831  63.8745  64.0528
    64.0866  64.2954  64.3919  64.6137  64.9816  64.9980  65.6829  65.7238
    65.7613  66.1077  66.5253  68.6980  68.7695  69.2593  69.6349  69.6808
    70.1792  70.1939  70.2964  70.3384  70.6359  70.7303  71.0482  71.6039
    72.2027  72.3202  72.4095  72.7940  73.9029  74.1055  74.5603  74.7596
    74.7962  75.2458  75.5320  75.5997  75.6286  75.6395  75.6635  76.6548
    76.7895  77.9694  78.0980  78.1177  78.3306  79.1066  79.2357  79.3982
    79.9421  80.2428  80.6349  80.9889  81.6262  82.6777  83.8991  83.9918
    85.3640  85.3923  85.4644  86.1523  86.2135  86.2585  86.6601  86.7838
    87.1717  87.2543  87.3717  87.6498  88.5377  88.9732  89.6569  89.7465
    90.1141  90.9293  91.1715  91.7975  91.8138  91.9957  92.0584  92.6960
    93.3572  93.6720  93.8191  94.8023  94.8149  95.8375  96.6882  96.7410
    96.9700  97.0729  97.5298  97.6686  97.7710  97.8850  98.3447  98.3544
    98.6151  98.9926  99.6591  99.8259 100.3281 100.4471 100.5791 101.2786
   101.3737 101.4410 102.2171 102.3577 102.4071 102.4732 102.9168 102.9456
   103.6775 104.1408 104.1782 104.1956 104.8059 104.8855 105.7177 106.1007
   106.2412 106.3088 106.6564 107.3864 107.5430 107.5614 107.7027 107.9408
   107.9572 108.0142 108.1790 108.2873 108.4220 108.4973 108.6711 110.0394
   110.2417 110.7575 111.2307 111.3619 111.4748 111.7884 112.0735 112.1433
   112.2648 112.5342 112.8602 113.0341 113.1675 113.2443 113.2991 113.3644
   113.6451 114.7947 114.8946 115.0735 115.0823 115.3348 115.9529 116.9054
   117.3188 117.3297 117.3371 117.5809 117.7307 117.8508 118.2246 118.2497
   118.2778 118.4310 118.4721 118.6435 118.8889 119.3826 119.7346 119.7426
   119.7638 120.1284 120.7998 120.9988 121.4197 122.5200 122.7170 122.8247
   122.8726 122.9872 123.9328 124.0494 124.3804 124.6471 124.8209 125.3433
   125.6989 125.7347 126.1761 127.1597 128.0587 128.1642 128.2546 128.4960
   128.6601 128.9438 128.9808 129.3244 129.4166 129.9247 129.9355 130.2955
   130.4412 130.9807 131.2098 131.3726 131.7317 132.2910 132.3117 132.7863
   132.8430 132.9089 133.1257 133.5501 134.1598 134.5564 134.6056 134.6413
   134.7101 134.7559 134.7597 134.9280 135.1775 135.5098 136.1337 136.3732
   136.5985 136.7297 137.5945 138.3106 139.1699 139.2889 139.6357 139.7223
   139.7322 139.9064 139.9689 140.0630 140.3193 140.3740 140.7085 140.8961
   140.9132 141.2287 141.3103 141.3675 142.0337 142.0945 142.4968 142.7688
   142.8456 142.8820 143.4097 143.7704 144.2851 144.2952 144.7629 144.8417
   145.7376 145.7468 146.2257 146.7014 146.7357 147.0129 147.7478 148.7495
   149.2790 149.3017 149.6986 149.8884 150.1070 150.1458 150.1652 150.2366
   150.4612 151.0187 151.3821 151.4738 151.5031 151.5054 151.7391 151.9785
   153.5004 153.7339 153.8119 154.2095 154.4831 154.6131 154.8016 155.0823
   155.5658 155.7536 155.9676 156.0538 156.2094 156.2258 156.3510 156.4978
   156.5014 156.6150 157.1622 157.2797 157.6223 157.7000 158.0321 158.0492
   158.1959 158.6051 159.0049 160.0137 160.5791 160.6304 160.8438 161.1993
   161.2614 161.3284 161.3904 161.6303 161.6467 161.8459 161.8662 162.1407
   162.1621 162.2122 162.2164 162.7338 162.7735 162.9701 163.5922 164.0306
   164.1849 164.2419 165.5518 165.6015 165.6015 165.7934 166.3911 167.0957
   168.0910 168.1237 168.1773 168.4530 169.2645 170.1583 170.3800 170.5251
   170.8385 170.9433 171.1134 171.2287 171.4621 171.6404 171.9766 171.9908
   172.1867 172.4878 172.6368 172.8124 172.9176 172.9417 173.1817 173.2646
   173.3301 173.6410 173.8419 173.9248 173.9625 174.6293 175.0308 175.3500
   176.2337 176.3329 176.5480 176.6515 176.7832 177.4975 177.5239 177.6015
   177.6383 177.6404 177.6422 177.6960 177.8354 178.0810 178.0960 178.1841
   178.6252 179.1380 179.2903 179.4079 179.4775 179.5917 179.7762 179.9559
   180.7102 180.8243 180.9007 181.2762 181.6937 181.7906 182.3417 182.4085
   182.5674 182.8135 182.8570 182.8802 182.9014 182.9097 183.0148 183.0676
   183.2354 183.8157 183.8226 184.1916 184.3143 184.4088 184.9500 185.4432
   185.6226 185.9348 186.0871 186.3348 186.3767 186.4102 186.6853 186.7864
   187.1255 187.2241 187.2742 187.3103 187.4935 187.5235 187.5401 188.0759
   188.3554 188.3742 188.4270 188.5234 189.0089 189.1889 189.2721 189.6455
   190.2132 190.2258 190.3921 190.4016 190.7368 191.3869 191.4727 191.7818
   191.8256 192.0729 192.4314 192.6089 192.6474 192.7682 192.7874 193.1100
   193.1787 193.5150 193.5190 193.5798 193.5820 193.7892 193.8654 194.2654
   194.3752 194.3754 194.7713 195.0489 195.0713 195.2711 196.1384 196.2117
   196.2551 196.7807 197.4607 197.4610 197.7332 197.8835 197.9402 198.2069
   198.3253 198.9842 199.1181 199.1778 199.2898 199.3926 199.5230 199.6116
   199.6665 199.8760 199.8872 200.1645 200.3017 200.3858 200.7838 201.6200
   202.7676 202.9325 203.4075 203.4133 203.4181 203.5302 204.0171 204.3011
   204.3275 204.4472 204.6448 204.9938 205.4462 205.7811 205.9244 206.1504
   206.4732 206.5836 206.8752 207.1796 207.2123 207.3027 207.6757 208.0561
   208.8465 209.6437 209.6711 209.8207 210.1217 210.2400 210.6381 210.8026
   210.8691 211.0807 211.3049 211.4376 211.5084 212.5473 212.8454 213.1466
   213.1884 213.3618 213.3911 214.1648 214.1862 214.4796 214.8423 214.8522
   215.1984 215.4915 215.5096 215.6820 215.7012 215.7821 215.8631 215.8818
   215.8935 216.0041 216.4571 216.5762 216.6793 217.5193 217.5267 217.7081
   217.8771 218.0716 218.6196 218.6833 218.7220 218.8919 218.9856 219.4126
   219.7455 220.5007 220.5052 220.5184 220.5918 220.8856 221.0121 221.3268
   222.1888 222.2577 222.3698 222.5621 223.0219 223.6776 223.8070 224.4829
   224.5825 224.7292 225.2171 225.2671 225.4694 225.6069 225.6541 225.7262
   225.9404 225.9404 226.0206 226.1178 226.1369 226.4177 226.4273 226.7343
   226.7425 226.7520 226.8521 227.0029 227.7267 228.2192 228.9428 229.3897
   229.6291 229.9791 229.9918 230.1191 230.4678 230.5651 230.7558 230.9125
   231.2181 231.2715 231.3350 231.4890 231.5255 231.6047 231.9120 232.1645
   232.1993 232.6441 232.6546 232.9192 232.9339 233.0314 233.0482 233.0863
   233.2345 233.5685 233.7693 234.3761 234.3930 234.6927 234.8439 234.9075
   235.2210 235.3655 235.7286 235.8685 235.9116 236.0479 236.0729 236.1638
   236.3054 236.4370 236.4505 236.8633 236.9606 237.0269 237.1082 237.4461
   237.8699 237.8880 238.5767 239.3997 239.8716 240.2488 240.3772 240.4448
   240.6494 240.6888 240.9216 240.9485 241.5113 241.8120 241.8819 241.9496
   242.0093 242.1089 242.1321 242.1499 242.3049 242.3345 242.4045 242.4949
   242.5763 242.6760 243.2186 243.8702 243.9146 243.9279 244.1975 244.2114
   245.4259 245.6849 246.3510 246.5520 246.7799 246.9976 247.1278 247.1481
   247.1722 247.1869 247.4250 247.5567 247.6570 247.7629 247.8793 248.2261
   248.3889 248.5360 248.5732 248.6285 248.7484 248.7496 248.7588 249.2943
   249.5868 249.6543 249.8790 250.2611 250.3627 251.0358 251.1433 251.5253
   251.5978 251.6849 251.7549 252.1540 252.2833 252.4461 252.8349 252.9459
   253.1556 253.1824 253.5498 253.5688 253.7875 253.8906 253.9988 254.0391
   254.1472 254.1773 254.2327 254.3633 255.7026 255.7993 256.1638 256.3841
   256.5839 256.7057 256.9657 257.0705 257.3083 257.7408 258.1615 258.5656
   258.9392 258.9677 259.0121 259.0804 259.3682 259.4283 259.6696 259.7770
   259.8758 260.2602 260.4806 260.7442 260.9311 261.2423 261.4554 261.6342
   261.7064 261.8804 261.9716 262.0464 262.3238 263.1324 263.2166 263.3236
   263.4645 263.5013 263.5441 263.5581 263.5877 263.8028 263.8268 263.8573
   263.8825 264.1091 264.1544 264.6872 265.2187 265.2856 265.3559 265.6036
   265.9885 266.2588 266.3998 266.6016 266.8285 267.0698 267.8228 268.0474
   268.3076 268.4320 268.5868 268.6182 268.7604 268.8668 268.9794 269.0404
   269.0838 269.1607 269.2714 269.5917 270.7991 270.9266 271.2961 271.4485
   271.4972 271.6684 271.9477 272.0177 272.2396 272.4564 272.6851 272.6852
   272.9132 273.0731 273.1072 273.1236 273.4188 273.9110 274.0078 274.0619
   274.0770 274.1144 274.1642 274.1998 274.2120 274.2271 274.3594 274.7621
   274.9041 275.0448 275.1266 275.2708 275.3303 275.7215 275.7782 275.7790
   275.9286 275.9686 275.9876 275.9991 276.0680 276.2717 276.8588 277.2100
   277.2218 277.2292 277.5299 277.5980 277.8663 277.9525 278.2774 278.3814
   278.4966 278.5675 278.7971 278.8658 279.1919 279.2385 279.2614 279.3290
   279.3689 279.4056 279.6282 279.7088 280.0837 280.1121 280.3691 280.3995
   280.4096 280.7826 280.9358 281.0232 282.6154 283.2710 283.4021 283.5577
   283.5962 283.7344 283.9109 284.1048 284.3053 284.7856 284.9044 284.9078
   284.9195 284.9363 285.0062 285.0378 285.1136 285.1275 285.1998 285.4060
   285.6351 285.9251 285.9639 286.0544 286.0880 286.1932 286.2588 286.4045
   286.7233 286.7959 286.9159 286.9752 287.0988 287.4564 287.8547 288.3771
   288.8923 289.1240 289.1822 289.3493 289.5808 289.8202 289.8970 289.9279
   289.9772 289.9840 290.1170 290.2926 290.4256 290.4395 290.5099 290.6128
   290.7209 290.7517 290.8801 291.1320 291.3742 291.5697 291.9209 292.0841
   292.6897 292.9620 293.2681 293.2688 293.9142 294.1475 294.4101 294.4274
   294.5832 294.6094 294.6397 295.4815 295.5308 295.7253 295.8864 295.9071
   295.9268 296.0099 296.1044 296.1671 296.3040 296.4710 296.6773 296.9061
   296.9742 297.0625 297.4399 297.9454 298.2226 298.6613 298.7077 298.7484
   298.9073 299.2296 299.3146 299.6830 299.8213 300.0985 300.2228 300.4355
   300.4590 300.7001 300.7229 300.7919 301.0017 301.1221 301.1458 301.3210
   301.4729 301.7259 301.7471 301.7609 301.8027 301.9590 302.1133 302.1340
   302.3063 302.3154 302.3330 303.4733 303.5138 303.6121 303.6904 304.0671
   304.2220 304.2520 304.3791 304.9797 305.5461 305.5622 305.9589 306.2725
   306.3238 306.4063 306.4551 306.6838 306.7326 306.8216 306.8517 306.8831
   306.8849 307.2240 307.2457 307.9418 310.7060 310.9818 311.1743 311.3690
   311.4199 311.6474 311.8230 312.0293 312.0501 312.1268 312.7236 312.8155
   312.8694 312.8883 313.5205 313.5325 314.3437 314.5893 314.6112 314.9982
   315.3181 315.6494 315.7657 315.8382 316.4457 316.4793 316.9329 317.0126
   317.0729 317.2406 317.5131 317.5713 318.0087 318.0626 318.0966 318.2219
   318.3507 318.3754 318.3847 318.3993 318.4408 318.4942 318.8234 318.8308
   319.6310 319.7706 320.0331 320.2389 320.5241 320.5592 320.6419 320.6693

          k = 0.0000-0.5774 0.0000 (  5116 PWs)   bands (ev):

   -18.3258 -12.6755  -7.9408  -4.6474   1.1231   6.1973   8.8175   9.2553
     9.4918  10.0513  10.3165  10.3942  11.3101  11.8203  12.0427  12.3752
    13.7016  14.7794  14.8223  15.5401  16.8060  18.1083  18.1735  18.9079
    19.8222  19.8333  20.7555  21.6845  23.9678  24.3610  24.8106  25.2149
    25.2480  26.1203  26.4162  26.4638  26.4764  26.6142  27.4773  27.8521
    28.2052  28.3509  28.7667  29.9378  30.7625  31.1486  31.6247  31.7611
    32.4753  32.5416  33.2532  34.2627  34.8694  36.0565  36.3792  36.5400
    37.2819  39.1201  39.8524  40.5575  41.0306  41.4582  41.5678  41.9227
    44.0979  45.9330  47.2217  47.8350  48.1188  48.1240  48.7574  48.9112
    49.3786  49.8178  50.5974  51.8112  52.6637  53.7860  54.5240  54.7169
    55.7939  55.9942  56.6556  56.7109  56.9688  57.4890  57.9401  58.4402
    58.5113  58.5223  58.5482  58.5823  58.6311  58.6486  58.6912  58.7272
    58.8887  59.3100  59.5318  60.1553  60.2536  60.4738  60.5266  60.6329
    60.6775  61.1449  61.8062  62.1542  63.1006  63.4257  63.5795  63.7768
    63.8586  64.2040  64.2297  64.3443  64.7828  65.1905  65.4313  66.2266
    66.9648  67.3452  67.5521  68.2157  68.3348  68.4149  68.4224  68.4815
    69.0647  69.0806  69.3076  69.7774  69.9270  72.1881  72.3722  72.5932
    72.9860  73.0262  73.6735  73.6883  73.8112  74.0966  74.2012  74.2887
    74.3292  74.7002  74.7513  74.7672  74.8101  74.8131  75.1243  76.5189
    76.5604  76.6173  76.9569  77.5321  77.6739  78.6282  79.0270  79.2002
    79.7440  79.7949  80.2238  80.3122  80.3847  80.5112  80.5892  80.6597
    80.9548  81.0502  81.0749  81.6279  83.2261  83.6836  83.8720  84.3056
    84.4870  84.7976  85.0246  85.3499  85.7218  86.3570  86.8045  87.8459
    87.9469  88.1332  88.2839  88.3148  88.3497  89.4230  89.6479  89.7488
    89.9548  91.5123  91.5130  93.0517  94.1521  94.3777  95.2321  95.3899
    95.5232  96.0454  96.2813  96.3836  96.4549  96.6784  96.7834  96.9086
    96.9914  97.5017  97.5878  97.6788  97.7102  98.3624  98.5228  98.7489
   101.2752 101.6445 102.4714 103.2485 103.9284 103.9920 104.0780 104.3327
   104.7095 105.1621 105.5873 106.1434 106.1991 106.4406 106.4967 106.6479
   106.8537 106.8862 106.9007 106.9109 106.9340 106.9955 107.0178 107.0730
   107.0735 107.1832 107.4218 107.8251 107.9899 108.4443 108.5996 108.6475
   108.6702 108.6809 108.9693 108.9940 109.0048 109.4159 110.0505 110.0927
   110.1671 110.3836 111.3152 111.4519 111.6763 111.8410 111.9438 112.0836
   112.2678 112.3047 112.3597 112.6107 112.6802 112.8349 113.6468 114.8877
   115.1255 115.8222 116.0582 116.4940 116.6469 116.6995 116.7946 116.8529
   116.9934 117.0665 117.5448 117.5811 117.6686 117.7988 119.0531 119.7792
   120.0952 120.7967 120.9774 121.1663 121.6787 121.9596 122.2293 122.3119
   122.4809 122.5326 122.5410 122.7987 123.3120 123.3247 123.3927 123.7018
   124.3934 124.6116 124.9907 125.0230 125.2350 126.1225 127.0137 128.0345
   128.5100 128.6149 128.8145 128.9585 128.9857 129.0429 129.0608 129.4463
   129.5792 129.6803 129.7491 129.7788 130.1230 131.1987 132.5283 133.3835
   133.6418 134.0209 134.8924 135.1665 135.7115 135.8615 136.0002 136.0003
   136.6463 136.9552 137.3054 137.6847 138.1167 138.2066 138.7082 139.4192
   139.8748 140.2010 140.3148 141.2823 141.6003 142.1096 142.1564 142.3477
   142.5034 142.7488 142.8750 143.4765 143.9566 144.1053 144.2366 144.4882
   144.7233 145.3738 145.4436 145.5783 145.6279 145.7120 145.7133 145.8931
   146.9085 146.9588 147.3465 148.7735 148.7866 151.2756 151.8408 152.5295
   152.6574 153.1651 153.9541 154.0526 154.1735 154.2105 154.8487 154.8929
   154.9827 155.0223 155.1056 155.1114 155.2024 155.2868 155.2909 155.2966
   155.3027 155.3029 155.3849 155.4341 155.6985 155.7061 156.0091 156.1579
   156.3375 156.5563 156.6246 156.6316 156.6465 156.8330 156.9164 156.9643
   156.9662 156.9847 157.1680 157.1874 157.1885 157.3000 157.3391 157.4085
   157.8063 158.4537 158.6150 158.6181 158.6967 159.7719 160.0932 160.1548
   160.1958 160.3938 160.3955 160.4429 160.5276 161.2325 162.7454 163.6102
   163.7103 163.8346 164.0065 164.0800 164.6600 164.7760 164.8457 164.9248
   165.1143 165.1684 165.2373 165.3595 165.4866 165.6720 165.8198 166.3082
   166.3809 166.3977 168.2448 168.4762 168.7958 169.0154 169.1059 169.8321
   169.9702 170.2306 170.3306 170.3400 170.4523 170.4586 170.5067 170.5164
   171.0923 171.2136 171.2867 171.2925 171.3110 171.3452 171.3923 171.3989
   171.5058 171.5729 171.6012 171.6618 171.6857 171.7661 171.9417 172.0828
   172.2373 172.3511 172.6703 172.8675 172.9293 172.9769 173.1229 173.2210
   173.2445 173.2502 173.2605 173.3176 173.3508 173.5349 174.1973 174.4132
   174.4947 175.1963 175.5219 175.5641 175.6131 176.0652 176.1794 176.1915
   176.3132 176.3606 176.5089 176.6833 176.7149 176.8895 177.0946 177.1391
   177.1850 177.2065 177.2232 177.2696 177.3268 177.3965 177.8288 177.9136
   178.0709 178.2342 178.9686 179.7652 180.3063 180.6684 180.8448 180.8685
   180.9185 180.9313 180.9413 181.7239 182.8425 183.0535 183.8828 184.2720
   184.5412 184.5750 184.7326 184.7674 184.7758 184.8115 185.4494 186.2446
   186.3689 186.4110 186.4809 186.5656 186.6180 186.7051 187.0724 187.0990
   187.3341 187.3648 187.5958 187.6009 187.8764 187.9048 188.0694 188.1357
   188.8951 189.3749 189.6840 190.0595 190.1703 190.2280 190.5783 190.7243
   191.1681 191.4045 191.4982 191.6138 191.6897 192.3333 192.3648 192.4684
   192.6439 192.8629 192.8993 192.9554 192.9915 193.0748 193.2925 193.4359
   193.4795 193.5280 193.5504 193.8009 193.8130 193.8487 194.5891 194.5970
   194.6074 196.6327 196.6736 197.1356 199.3765 199.8001 200.0435 200.5391
   200.5883 200.6379 200.6862 200.9639 201.0009 201.0900 201.6031 202.1432
   202.1664 202.6819 202.7331 202.8117 203.0993 203.2777 203.4039 203.4328
   203.5310 203.5396 203.6153 203.6535 203.7457 203.8647 203.9385 203.9833
   204.5709 204.8632 204.9231 204.9890 204.9902 205.0293 205.0483 205.0775
   205.2010 205.2107 205.2882 205.2989 205.3070 205.4530 205.4707 205.4728
   205.7742 206.4069 208.1151 208.2487 208.5302 208.6545 208.6614 208.7368
   209.1052 209.1817 209.3803 209.5107 209.5282 209.6412 209.6970 209.9706
   210.3061 210.3213 211.3880 211.8328 212.0916 212.3071 212.4924 212.9587
   213.0005 213.1717 213.7466 213.7938 213.9227 214.0077 214.0586 214.2860
   214.3227 214.3280 214.5438 214.8088 214.9265 216.8587 217.4900 217.8837
   218.1812 218.2443 218.5843 218.6629 218.7979 218.8293 218.8758 218.9262
   219.0523 219.1673 219.2864 219.4890 219.6455 219.6660 219.6705 219.6897
   219.8879 219.9553 220.1022 220.1970 220.2367 220.3879 220.4185 220.4339
   220.5329 220.6526 221.1050 221.3206 221.5090 221.5216 222.0189 222.1692
   222.7181 222.7566 222.8311 223.1428 223.1917 223.2047 223.2793 223.7095
   223.8598 224.6779 224.7175 224.7482 224.8879 225.0130 225.0383 225.3915
   225.7157 225.7938 225.9629 226.0193 226.2025 226.2497 226.2547 226.2915
   227.1584 228.0375 229.0543 229.2907 229.3121 229.3641 229.6542 229.9087
   230.1250 230.1484 230.1969 230.2141 230.2937 230.3156 230.3702 230.6311
   230.6367 231.5770 232.0559 232.6578 232.9161 232.9297 233.1803 234.4311
   234.5185 234.5674 234.9781 235.0596 235.2950 235.4933 235.5158 235.5821
   236.1766 236.3232 236.4236 236.4419 236.5163 236.6017 237.3029 237.7584
   238.1474 238.1788 238.6653 239.0136 239.1094 239.1470 239.1938 239.2020
   239.5247 240.0155 240.6189 240.6383 240.9683 241.2022 241.3628 241.4450
   241.6042 241.8581 241.8697 241.8877 241.9322 241.9475 242.0016 242.0703
   242.0903 242.3382 242.4163 242.5435 242.5862 242.6101 242.7387 242.7447
   242.9783 243.2668 244.2870 244.6040 245.3989 245.4584 248.1899 248.3929
   248.7405 249.0617 249.1681 249.1755 249.5350 250.2504 250.3305 250.5949
   250.6328 250.8376 251.2899 251.3127 251.5627 251.6270 251.6365 251.6444
   251.8129 251.8200 251.8749 251.8754 251.8920 251.8932 251.9225 252.0845
   252.3260 252.4013 252.5556 252.9148 252.9164 252.9887 253.0736 253.1257
   253.2782 253.2955 253.5548 253.6175 253.6277 253.6800 253.6912 253.7276
   253.7605 253.7626 253.7884 253.8208 253.9624 254.0793 254.8999 254.9035
   254.9477 255.1058 255.1275 255.2116 255.2669 255.8389 256.3876 256.4903
   256.8229 256.8570 256.9105 256.9255 256.9372 256.9724 257.0013 257.2548
   257.4117 257.7689 257.8712 257.9184 257.9354 257.9644 258.1493 258.3056
   258.7586 258.8741 259.1864 260.2150 260.9568 261.2623 261.3341 261.3485
   261.4859 261.5313 261.5436 261.6298 261.8798 261.9901 262.4631 262.5198
   262.5354 262.5911 262.6154 262.7687 262.8205 262.8340 263.2153 264.3895
   264.8345 265.6557 265.9097 266.6049 266.6518 266.8703 266.9783 267.0929
   267.1107 267.2444 267.3793 267.6481 267.7414 267.8228 267.8636 268.0719
   268.0865 268.1465 268.2835 268.5546 268.6222 268.9456 269.2591 269.2624
   269.3282 269.3456 269.4726 269.4989 269.8982 270.0010 270.1336 270.7429
   270.7852 271.2734 271.4542 271.6877 271.7567 272.1512 273.0274 273.3903
   273.4546 273.5040 273.6596 273.6664 273.6832 273.7143 273.7267 274.0480
   274.1643 274.2784 274.3270 274.3493 274.4435 274.4594 277.4701 277.9107
   278.2180 278.3655 278.4219 278.4246 278.4360 278.5818 278.7811 280.1592
   280.5788 281.0258 281.0557 281.1014 281.2997 281.3354 281.3930 281.3955
   281.7334 281.7750 282.5389 282.6122 282.9764 282.9947 283.1368 283.2934
   283.5877 283.6419 283.7372 283.7504 283.8114 283.9472 284.0164 284.0485
   284.0550 284.1491 284.6497 284.7616 284.7653 284.7879 284.9812 284.9986
   285.0021 285.0066 285.1551 287.2502 287.2627 287.3509 287.8030 288.3491
   288.4620 288.7400 289.1553 289.4060 289.4279 289.8180 290.1109 290.2479
   290.2858 290.2914 290.2947 290.3540 290.3556 290.5556 290.6499 291.1951
   291.2518 291.2869 291.2877 291.7671 292.2870 292.5874 292.6580 292.7885
   292.8760 292.8797 295.1332 297.3813 297.4858 297.6279 297.6425 297.7117
   298.2613 298.7123 298.7989 298.8728 299.0468 299.1252 299.1429 299.3562
   299.4776 299.6010 299.6330 299.7403 299.8323 300.0139 300.0434 300.0818
   300.1225 300.1429 300.1536 300.1735 300.1824 300.1885 300.2097 300.2896
   300.2935 300.2944 300.3488 300.4056 300.4762 300.5763 300.6166 300.7157
   300.8856 301.6371 301.6918 301.7347 301.7349 301.7466 301.8637 301.9241
   302.0218 302.0300 302.0318 302.0384 302.0418 302.0653 302.0943 302.0996
   302.1473 302.4065 303.0841 303.2196 303.3752 303.4697 303.8017 304.8567
   304.8587 304.9506 305.1025 305.1498 305.2065 305.2080 305.2738 305.7346
   305.7928 305.8171 306.0416 306.2581 306.3448 306.5635 306.5739 306.5873
   306.7208 306.8550 307.9577 307.9656 308.3062 308.9613 309.2986 309.3030
   309.3236 309.5526 309.7073 309.8529 309.9325 310.0541 310.0705 310.4734
   310.5087 310.6464 310.7020 310.7218 310.7506 310.7603 310.8446 310.8555
   310.8755 310.9783 310.9842 310.9865 311.2899 311.5117 313.2574 313.6914
   314.0962 314.3205 314.7028 314.8016 314.9332 314.9716 315.0486 315.1738
   315.1768 315.4745 315.5192 315.5975 315.9580 316.0946 316.1056 316.1664
   316.2080 316.2711 316.2779 316.3300 316.3380 316.3382 316.3888 316.3934
   316.5436 317.0028 317.0472 317.2860 317.3714 317.4360 317.5054 317.6481
   317.7395 317.7398 317.7753 318.0336 318.0536 318.0706 318.1441 318.2346
   318.2355 318.3063 318.3503 318.7730 318.8380 318.8396 319.2331 319.4903

          k = 0.1667 0.2887 0.0000 (  5102 PWs)   bands (ev):

   -19.9133  -9.2823  -7.7083  -6.9567   3.6086   3.9711   4.9841   5.2357
     6.6709   6.8437   8.8155   9.5113   9.5358  11.3072  13.2475  14.2630
    15.8545  15.8848  18.9875  19.7992  19.9177  20.2726  20.7106  21.1117
    21.2131  21.2730  22.0183  22.9801  23.0400  23.2502  24.2285  25.3153
    25.3293  26.2708  26.5652  27.0173  27.4743  27.6864  30.0232  30.6598
    30.6912  30.8568  31.1095  33.5046  34.4962  35.0291  35.1484  35.6210
    36.1978  36.4561  36.7877  37.0423  37.1775  37.1810  37.3103  38.4314
    38.7712  38.9729  39.0981  40.2143  40.6708  41.1596  41.1955  42.2703
    42.3312  42.6151  42.7543  43.4607  43.5860  43.9569  44.0292  44.5650
    46.6376  46.6816  46.9204  47.3253  47.5188  49.1704  49.9527  50.3921
    50.7483  51.5407  51.5523  51.9226  52.0068  52.6383  52.7686  52.9158
    53.1958  53.2632  53.3394  53.4456  53.5354  54.8330  55.0290  55.3466
    55.4331  56.5091  57.6317  57.7826  58.1463  58.4556  58.5077  58.5655
    59.0193  59.0615  59.2860  59.3795  59.9001  60.5256  61.4854  62.2966
    62.3341  62.8116  63.4540  63.6857  64.4599  65.1925  65.7933  66.1047
    66.5255  67.4297  67.8160  67.8414  68.2329  68.4401  68.9091  68.9375
    69.1587  69.3372  69.4714  69.5701  70.6392  71.1227  72.1618  72.3432
    72.4680  73.5516  74.4412  74.6134  75.0966  75.2030  75.2503  75.5889
    75.7457  76.1592  76.2504  77.2609  77.5828  78.0091  78.5371  78.6634
    79.1752  79.6827  80.1695  80.4064  80.4844  81.7718  82.7836  82.8026
    83.2954  83.6549  83.8041  84.4247  84.5738  84.7712  84.8598  85.0960
    85.4856  85.4863  85.5439  85.6425  86.1196  86.9748  87.0443  87.3013
    87.6697  87.7868  88.1399  89.1203  89.3732  90.1368  90.4556  90.7172
    90.9160  90.9778  91.1230  91.2563  91.7479  91.7790  91.9903  92.3006
    92.3681  93.7641  93.8332  94.0575  94.1160  94.8952  95.3200  95.5816
    95.7202  95.9653  96.0997  96.7640  97.6937  98.2692  99.3377  99.3998
    99.5355 100.1284 100.1768 100.4841 100.5572 101.0160 101.0687 101.0829
   101.5086 101.6433 101.6503 101.6796 102.1182 102.4343 102.9074 103.1585
   103.3709 103.4761 103.5037 103.7846 104.2737 104.8293 105.0042 105.6657
   106.0403 106.1201 106.3941 106.7857 106.9235 107.0694 107.1640 107.5825
   107.5828 107.6950 108.0589 108.2877 108.3462 109.3186 109.3390 110.1665
   110.4422 110.9406 110.9819 111.2417 111.4903 111.5488 112.5980 112.6542
   113.2590 113.9678 114.4960 114.7647 115.6065 115.6192 115.7610 116.2497
   116.3240 116.6730 116.7695 116.8737 117.4165 117.5192 117.5791 117.6438
   117.6652 117.7516 117.7733 118.3597 118.8665 119.3763 119.4224 119.4404
   119.5254 119.6332 119.9430 120.3752 120.8511 120.9640 121.5502 121.6161
   122.1313 122.4237 122.5116 122.7772 122.9002 123.0504 123.3058 123.3764
   123.4922 123.7139 123.8709 124.1995 124.2491 124.4420 125.1450 126.1738
   126.3378 126.4042 126.7480 126.9871 127.4945 127.7265 127.7296 127.8370
   128.7462 129.8771 130.2091 130.7814 131.2264 131.2852 131.3324 131.9964
   132.2199 132.5302 132.5962 132.8369 132.9445 132.9588 133.2845 133.4098
   133.5312 133.6436 133.6521 133.7642 133.8016 133.8279 133.8448 133.9047
   133.9323 134.1859 134.4137 134.8424 134.9363 135.2140 135.2667 135.4729
   135.5670 135.5834 135.7174 135.7609 135.8327 136.0310 136.5939 136.8679
   137.3022 137.3595 137.4894 138.5253 138.6778 138.6822 138.7631 138.8935
   139.0766 139.3381 139.3580 139.5215 139.5417 139.5718 139.8110 140.3766
   140.4924 140.5096 141.0332 142.8211 143.1209 143.1237 143.2120 143.2606
   143.6257 143.8704 143.8966 144.3192 145.0945 145.6414 146.5175 146.5882
   146.7711 146.9595 147.2425 147.6383 148.3335 148.6690 148.7990 148.9366
   148.9656 149.0352 149.4579 149.5094 149.6507 149.7645 149.8955 150.0351
   150.1782 150.2885 150.2953 150.8911 150.9506 151.0362 151.1906 152.2097
   152.2220 152.6251 153.0702 153.5691 154.1618 154.5482 154.5790 154.9445
   155.0065 155.2741 155.7169 155.7848 156.0561 156.2190 156.2569 156.3397
   156.4065 156.6458 158.1212 158.2367 159.5386 159.5959 160.3146 160.4600
   160.7595 161.6232 162.0453 162.5865 163.1015 163.1715 163.3087 163.6975
   164.1949 164.2311 164.6663 164.8835 164.9834 165.2880 165.4419 165.8278
   165.8460 165.9389 165.9965 166.0249 166.0356 166.1329 166.2851 166.4090
   166.4360 166.8312 166.8612 167.0225 167.0357 167.6347 167.7491 167.8420
   167.8991 167.9387 168.0068 168.1602 168.5836 169.1370 169.2110 169.5547
   169.6782 169.9289 170.3112 170.6780 171.0157 171.1646 171.2460 171.7533
   171.8001 171.8701 172.0000 172.0170 172.0989 172.1394 172.5388 172.7866
   173.1491 173.5556 175.2481 175.4608 175.5797 175.7495 176.0547 176.1795
   176.5443 176.5955 176.6258 178.4956 179.8222 179.9576 179.9788 180.2492
   180.5843 180.9271 181.0808 181.1482 181.1764 181.5830 181.7071 181.7639
   181.8009 181.8299 181.9278 181.9958 182.1603 182.2086 182.2841 182.6419
   182.7936 182.7958 182.8181 183.0554 183.2999 183.3304 183.4835 183.7384
   183.7801 183.8040 183.8281 184.1251 184.2402 184.5187 184.6149 185.1708
   185.3537 185.7031 185.7598 185.8609 185.9539 186.1072 186.8979 186.9904
   186.9983 187.2794 187.3245 187.4138 187.5343 187.7948 187.9941 188.1899
   188.5359 188.8258 188.8339 189.3781 189.9831 190.1346 190.5907 191.1388
   191.5019 191.6958 192.0253 192.3412 192.3829 192.5193 192.6730 193.0972
   193.4270 194.8071 195.0655 195.3558 195.4551 195.7704 196.5154 196.5945
   196.7483 196.8883 197.2629 197.2830 197.5293 197.6705 197.9159 197.9897
   198.1592 198.1813 198.2034 198.2236 198.5893 198.7760 198.9173 199.1859
   199.4459 199.5803 199.7121 199.8172 199.9418 200.0474 200.0937 200.1059
   200.2239 200.7933 200.8533 200.9265 201.2751 201.5922 201.7715 201.8884
   201.8932 202.6919 202.9722 203.1360 203.1501 203.4313 203.4625 203.6859
   203.7340 203.8012 203.8736 204.1013 204.1113 204.1846 204.4046 204.5593
   204.6152 204.6491 204.8995 204.9171 205.0119 205.2973 205.5637 206.8868
   206.9700 207.3101 207.3991 207.9390 208.1684 208.5192 208.8363 209.3970
   209.8951 210.6575 210.9123 211.1255 211.5640 212.2648 212.4603 212.7822
   212.8113 213.1197 213.1658 213.3226 213.3674 213.4170 213.7397 213.9343
   214.0003 214.2217 214.2859 214.3168 214.3213 214.4353 214.5639 214.6532
   214.6764 214.7036 215.0829 215.1579 215.2981 215.4266 215.7540 215.8681
   215.9810 216.0508 216.1535 216.3036 216.4359 216.5557 216.7141 216.9845
   217.2724 217.5668 217.6187 217.6288 217.6992 218.3373 218.4260 218.4302
   219.0578 219.2007 219.3305 219.3603 219.5271 219.5876 219.8428 220.0691
   220.1190 220.1824 220.3282 220.5137 220.5994 220.7445 220.9535 221.0098
   221.4893 223.5463 223.5567 223.7896 223.8558 223.9864 224.1519 224.5022
   224.5975 224.9344 224.9994 225.3739 225.4018 226.8219 227.1272 227.3352
   227.3408 227.9311 228.3022 228.9803 229.1935 229.3062 229.3367 229.4208
   229.8132 230.0823 230.0978 230.2971 230.3088 230.3698 230.4318 230.4562
   230.5520 230.6074 230.9216 231.2135 231.2249 231.3809 231.4219 231.6495
   231.9184 232.0523 232.0565 232.0912 232.1013 233.6277 233.7267 233.7685
   234.4960 235.3321 235.6793 235.7194 235.7511 236.0091 236.2434 236.2860
   236.4413 236.6417 236.7908 236.9207 236.9755 237.2874 237.2897 237.6096
   238.0462 238.8725 239.0605 239.2632 239.6171 240.0824 240.2929 240.6651
   240.8364 240.9220 241.5308 241.5323 241.6423 242.9956 243.1971 243.3635
   243.5774 243.6334 244.1166 244.4821 244.6286 244.6991 245.0681 245.1672
   245.7678 245.9014 245.9933 246.0873 246.1146 246.1922 246.2185 246.3671
   246.4089 246.4202 246.4357 246.4905 246.5057 246.5181 246.5423 246.5471
   246.6331 246.6986 246.8575 246.9328 247.0458 247.2279 247.2455 247.2579
   247.4408 247.5363 247.9884 248.2425 248.2887 248.3145 248.3457 248.3926
   248.4033 248.4649 248.6129 249.0562 249.3067 249.6985 249.7131 249.9215
   249.9488 249.9662 249.9875 250.3614 251.1762 251.2731 251.4372 251.4802
   251.5223 251.6050 251.6176 251.6422 252.0242 252.2485 252.3025 252.3614
   252.4654 252.4767 252.5970 252.6081 252.8235 253.2540 253.5922 253.6170
   254.6884 254.8043 255.1882 255.2008 255.7829 255.8480 255.9564 255.9761
   256.0239 256.3727 256.4618 256.4649 256.6350 257.0112 257.0411 257.0429
   257.4875 257.6099 257.7967 258.4687 260.0857 260.5659 260.6954 260.9373
   261.2049 261.4656 261.5428 261.5836 261.5897 261.6529 261.6672 261.8422
   262.0246 262.0586 262.1913 262.2838 262.3187 262.4482 262.5391 262.6090
   262.6273 262.6397 262.6470 262.7121 262.7473 262.8030 263.2033 263.3075
   263.3514 263.7517 263.9336 263.9583 264.1467 264.2938 264.3434 264.3713
   264.4030 264.5611 264.6029 264.6275 264.6934 265.6260 265.6355 265.7993
   265.9680 265.9713 266.0659 266.1897 267.4306 267.4727 267.5289 267.5706
   267.6012 267.6896 267.7422 268.0217 268.1673 268.1734 268.2507 268.2617
   268.3326 268.3653 268.5340 268.6822 268.9607 268.9677 269.1029 269.1317
   269.3686 269.5983 269.6053 269.6990 269.6994 271.0093 271.9434 272.0022
   272.1387 272.1802 272.8262 272.9904 273.0170 273.1916 273.3769 273.3813
   273.5443 274.8772 274.9362 275.4922 275.5607 275.7531 275.7685 275.8300
   275.8676 275.8980 276.2119 276.4461 276.5589 277.4460 277.5675 277.6039
   277.7526 277.7607 277.7853 278.1233 278.4043 278.5355 278.5779 278.6882
   278.7661 278.7775 278.8272 278.8647 278.9255 278.9835 279.5132 279.6419
   279.6551 279.7091 280.0876 280.2396 280.2542 280.3729 280.4274 280.4643
   280.5703 280.7836 280.8238 281.5900 281.6271 281.7208 281.8131 281.8679
   282.0555 282.0683 282.3265 283.2555 283.3508 283.4589 283.6665 283.8333
   283.9316 283.9746 284.0302 284.1437 284.2208 284.4081 284.5323 284.6335
   284.7034 284.7175 284.7394 284.8162 284.8194 284.8457 285.1721 285.2258
   285.2464 285.2681 285.2960 285.3039 285.4401 285.4442 285.8370 287.7219
   287.7387 287.8974 288.0155 288.1450 288.5045 288.7060 289.1049 289.2057
   289.5708 290.2890 290.8590 291.4166 291.7335 291.8150 291.8383 292.0889
   292.2015 292.4348 292.6588 293.1298 293.2265 293.4894 293.5782 293.9079
   293.9146 294.0197 294.0802 294.2072 294.2697 294.2990 294.4608 294.6396
   294.6630 294.7306 294.7393 294.7561 294.7866 294.8256 294.8696 294.8920
   294.9868 294.9926 295.1855 295.2847 295.5918 295.6717 295.7523 295.9500
   295.9990 296.3561 296.4909 296.5995 296.6690 296.8368 297.1453 297.5057
   297.5216 297.8540 297.9477 298.0466 298.3161 298.3650 298.3820 298.7961
   299.5235 299.5759 299.7244 299.8074 299.9183 299.9528 299.9630 300.0959
   300.1440 300.3408 300.5306 300.6866 300.7872 300.8803 300.9497 301.0098
   301.3142 301.3237 301.3508 301.5258 301.8698 301.9909 303.6358 304.0899
   304.2758 304.3663 304.3881 304.7814 304.8004 304.8792 305.1003 305.2853
   305.2958 305.3856 305.4389 305.5972 305.6130 305.7142 307.1977 307.3154
   307.7257 307.8499 307.9139 307.9309 308.3194 308.4163 308.7170 309.4037
   309.7105 309.7204 309.8355 309.9156 310.0061 310.0437 310.2139 310.4677
   310.4914 310.5558 310.6943 310.7200 310.9859 311.0020 311.0309 311.1414
   311.4034 311.5214 311.8140 311.8304 312.0765 312.0967 312.1858 312.2955
   312.3190 312.4392 313.3860 313.4431 315.0240 315.5132 315.6982 316.0021
   316.0757 316.3155 316.3473 316.3758 316.3926 316.4349 316.6812 316.8384
   316.8904 316.9251 317.0491 317.1510 317.1938 317.2672 317.2938 317.4607

          k = 0.1667 0.4811 0.0000 (  5123 PWs)   bands (ev):

   -18.4189 -11.8510  -9.1036  -4.8125   1.8114   6.8721   8.0287   8.4372
     8.9816   9.6760  10.4688  11.4260  11.8190  13.1893  13.4509  13.8964
    14.1706  14.8202  15.5804  16.2260  17.2748  17.3854  18.1787  18.3429
    18.9773  19.3813  19.4789  20.4951  20.6993  21.4966  22.0276  22.8346
    23.2558  24.0970  24.4699  24.7678  25.6215  26.0607  28.1354  28.8675
    28.9496  29.5308  30.2680  30.9931  32.9739  33.4982  34.5597  34.6549
    35.3040  35.3752  35.9186  36.5885  37.0253  37.1669  38.2532  38.2598
    38.9680  40.2772  40.8387  41.0523  41.2604  42.3455  43.1814  44.0503
    44.1334  45.1674  45.5044  45.8518  46.1006  46.4785  47.1757  47.2950
    48.1043  48.1452  48.9732  49.1401  49.8538  50.4611  51.1433  51.4143
    51.8238  52.4934  53.5205  54.4880  54.6123  55.2955  55.7295  56.0360
    56.5819  56.8209  56.8401  57.2967  57.3106  57.3846  57.7176  58.5748
    58.8369  59.6065  59.9127  60.6959  61.1773  61.4530  61.5497  61.9471
    62.1475  62.2900  62.3247  62.5870  63.2857  63.6697  64.0353  64.7413
    65.3849  66.0225  66.1833  66.1879  66.5291  66.7336  67.2356  67.4326
    67.4494  67.6338  67.6918  67.8243  68.2686  68.2815  69.2403  69.4652
    69.9345  70.6893  71.4204  71.5413  71.7473  72.0950  72.1850  72.6891
    72.7940  72.8502  72.9933  73.4279  73.5097  74.4583  74.6672  74.8329
    74.8602  75.6273  75.7912  76.8590  76.8979  77.0453  77.4637  77.7096
    77.9780  78.1759  78.4196  78.4534  78.6930  79.1394  79.7920  80.9093
    81.4880  81.6825  82.1270  82.2938  82.8088  82.9909  83.0267  83.6376
    83.6957  83.8447  83.9707  84.1302  84.2172  84.6094  84.8874  85.3886
    85.5720  85.7081  86.1019  86.6908  87.2329  87.8353  87.8777  88.5047
    88.5740  88.7465  88.9600  89.1999  89.2153  89.5216  89.7638  89.9721
    90.5286  91.0459  91.1499  91.3947  91.9069  92.4348  92.6809  92.8505
    92.9138  93.4787  93.4856  93.9637  93.9809  94.3332  94.4245  94.4512
    94.5696  94.6054  95.0438  95.0635  95.3383  96.1367  96.2769  96.7181
    96.9126  97.1807  97.4802  97.9791  98.4366  98.6022  98.7533  98.9075
    99.5728  99.6027  99.9786 100.7306 101.0278 101.0948 102.3273 102.8679
   103.0756 103.6779 103.9265 104.2751 104.3360 104.4718 104.6964 105.0179
   105.0944 105.4683 105.5597 105.8072 106.1382 106.2525 106.5146 106.7336
   107.8027 108.9001 109.1905 109.5671 110.2919 110.4695 110.7008 110.7923
   111.2278 111.4869 111.9319 112.6104 112.9387 113.2535 114.3123 114.4320
   115.0541 115.0981 115.9268 116.1865 116.5898 116.6170 116.9681 117.0493
   117.3208 118.2599 118.3781 118.5880 118.9738 119.1934 119.7066 120.4637
   120.5014 120.8392 120.9833 121.2517 121.3562 121.6224 121.7022 121.8691
   121.9656 122.8730 123.1647 123.2988 123.4734 123.7100 124.6962 125.1507
   125.6896 125.7251 126.3524 126.3745 126.6014 126.7090 126.7929 126.9343
   127.1001 127.5569 127.6960 128.4345 128.4530 128.9554 129.0208 129.6483
   129.8976 130.4307 130.6052 130.8547 131.3744 131.5363 131.8992 131.9385
   132.0784 132.2120 132.3476 132.5017 132.6110 132.6258 133.4075 133.4189
   133.8292 135.3307 135.5890 135.7138 136.1329 136.4525 136.5981 136.8092
   137.2810 137.2846 137.3241 137.3915 137.9592 138.3503 138.9512 139.1404
   139.6299 139.6576 140.3885 140.8011 140.9774 141.2206 141.6700 141.7782
   142.2923 142.3028 142.5327 142.6158 142.7167 142.9523 143.0337 143.2478
   143.7359 143.7687 143.9646 144.3478 144.6385 145.2928 145.7571 145.9615
   146.3379 146.8999 147.0879 147.1781 147.6223 147.8794 148.1379 148.1412
   148.1945 148.3287 148.3755 148.5531 148.8354 149.8072 149.9244 150.2170
   150.5767 150.7098 151.0335 151.0948 151.4330 151.9341 152.2516 152.4401
   152.6947 153.1315 153.2324 153.4054 153.4215 153.5094 153.9601 154.1825
   154.7503 154.9714 155.0159 155.1745 155.2982 155.4344 155.6241 155.7987
   156.6363 156.7588 157.0617 157.2532 157.5160 157.6665 157.7852 158.3559
   158.4420 158.6903 158.8522 158.9083 159.0268 159.1299 159.2493 159.5109
   159.5338 159.7096 159.8950 160.0838 160.2463 160.2485 160.6740 160.7232
   161.4837 162.4645 162.5431 162.7239 162.9959 163.3770 163.4632 163.7324
   163.7694 164.1358 164.2253 164.2705 164.4720 164.5272 164.7332 164.8546
   165.1675 165.1944 165.5959 165.5965 166.0659 166.2515 166.4570 166.5790
   166.7924 166.8929 167.4462 167.4922 168.1533 168.2105 168.4785 168.5988
   168.9546 169.1397 169.2981 169.5327 169.5802 169.7016 169.9549 170.2144
   170.6278 170.7362 171.6069 172.1871 172.5399 172.7321 172.9565 173.2516
   173.4300 173.4608 173.9502 174.0035 174.0539 174.1612 174.5207 174.6588
   174.9027 174.9399 175.0206 175.0628 175.3044 175.4652 175.5566 175.6486
   176.4901 176.6807 176.8904 177.0467 177.5110 177.6010 178.1473 178.2922
   178.3379 178.8145 178.9957 179.3649 179.3878 179.8898 179.9148 179.9771
   180.2810 180.3188 180.3395 180.4554 180.5714 180.6640 180.9123 181.6488
   181.7542 182.0000 182.1291 182.3710 182.5166 182.6910 183.0289 183.3144
   183.8476 183.9503 184.2516 184.7950 184.8169 184.8664 185.1110 185.2995
   185.4752 185.5356 185.8066 185.8475 186.0422 186.1047 186.2637 186.2694
   186.5771 186.8409 187.0489 187.8214 188.1224 188.6557 188.7656 189.1669
   189.1767 189.4399 189.5899 189.7949 189.9145 190.3897 190.7186 191.0232
   191.0277 191.3844 191.6532 191.7383 191.8799 191.8934 192.0052 192.1811
   192.3242 192.5223 192.6995 192.9438 193.0099 193.2823 193.5374 193.8329
   194.7396 194.9278 195.1450 195.2589 195.3853 195.4756 195.8431 196.0748
   196.1968 196.3370 196.3517 196.3721 196.3906 196.4578 196.5235 196.6279
   196.7622 196.8006 196.9494 197.0389 197.0866 197.0965 197.3334 197.6058
   197.6357 198.0255 198.2027 198.3024 198.5274 199.0301 199.0940 199.7330
   200.3787 200.4043 200.6835 200.6868 201.2462 201.2772 201.4663 201.5240
   201.6800 201.8713 201.9403 201.9771 202.0872 202.2297 202.4131 202.7003
   202.7479 203.0393 203.0869 203.4876 203.8023 204.1394 204.3428 204.7376
   205.4607 205.5580 205.6101 205.9540 205.9783 206.0900 206.4423 206.4762
   206.6821 206.8272 207.1115 207.1823 207.4308 207.6731 208.1964 208.3160
   208.9555 209.4532 209.6780 209.9175 209.9488 210.2458 210.4112 210.8467
   211.0729 211.1569 211.4250 211.5327 211.5899 211.7729 212.0276 212.2103
   212.2824 212.3525 212.5253 212.5522 212.8416 212.8804 213.3193 213.6381
   213.8773 213.9172 214.9554 215.5759 216.2881 216.4554 216.7829 217.1811
   217.5914 217.6214 217.6800 217.7862 217.8653 217.9492 218.0311 218.1925
   218.2628 218.3180 218.5381 218.6072 218.7498 218.9630 219.2431 219.2881
   219.5100 219.6273 219.6378 219.7662 220.0259 220.1493 220.4603 220.7387
   220.9737 221.2784 221.4620 221.8139 221.9519 222.6247 222.6325 222.8917
   223.0723 223.0973 223.1756 223.2258 223.2373 223.4437 223.7774 223.8572
   224.0247 224.2621 224.3725 224.5570 225.0364 225.1561 225.5367 225.6272
   225.8274 226.0382 226.0559 226.7275 227.1883 227.2160 227.4115 227.9865
   228.0713 228.0811 228.3598 228.5896 228.6837 229.1202 229.4426 229.4873
   229.7543 229.8119 229.9207 230.6920 231.2690 231.6737 231.8868 231.8954
   232.5481 232.5730 232.7768 232.8156 233.1046 233.4578 233.4943 233.5682
   233.8442 233.8945 234.0307 234.0780 234.3077 234.3878 234.4884 234.6514
   234.8935 234.9270 235.0208 235.0659 235.3377 235.3760 235.7378 235.8722
   236.4615 236.4991 236.6994 236.9053 237.1186 237.5073 237.7039 237.7700
   238.3368 238.5886 238.9436 239.0365 239.0393 239.1933 239.2600 239.3445
   239.4323 239.4811 239.5593 239.8008 239.8241 239.9937 240.2398 240.2659
   240.6206 240.9086 241.6450 242.4348 242.5748 243.2723 243.3412 243.6872
   243.6902 243.9776 244.2018 244.4204 244.5381 244.6920 244.7149 244.9267
   245.0761 245.2137 245.2502 245.4858 245.7081 245.7349 245.7965 246.3361
   246.5197 246.6110 247.0015 247.0092 247.7104 247.7618 248.1775 248.2241
   248.3368 248.7621 248.9761 249.1120 249.2596 249.7180 249.8174 249.9308
   249.9820 250.2228 250.2370 250.4414 250.9205 250.9291 251.4186 251.4431
   251.7102 251.7998 251.8508 252.3992 252.7444 253.0291 253.7506 253.8950
   254.2134 254.3947 254.6260 254.8661 254.9774 255.0899 255.5592 255.6950
   255.7370 255.8461 255.9008 255.9486 256.1274 256.5377 256.7112 256.7518
   256.8904 257.9628 258.0908 258.6467 258.7624 259.0756 259.3490 259.7599
   259.7886 260.1966 260.2439 260.5502 260.7347 260.9992 261.4104 261.4633
   261.5455 261.6696 261.7345 262.0750 262.1039 262.4927 263.2439 263.3421
   263.4232 263.7619 264.1418 264.4488 264.6193 265.1541 265.5297 265.9145
   265.9329 266.0913 266.2722 266.3112 266.5095 266.6190 266.7237 266.7790
   266.8974 267.0567 267.0582 267.1890 267.4179 267.4505 267.5175 267.5398
   268.2720 269.3564 269.9185 270.3259 270.5609 270.8119 270.9767 271.1412
   271.3110 271.4695 271.5257 271.5550 271.5807 271.5891 271.9002 272.0585
   272.1057 272.1288 272.2364 272.7525 272.7640 272.9295 272.9411 273.1167
   273.3393 273.3610 273.4979 273.6597 273.7858 274.2076 274.6274 274.9023
   275.3848 275.8070 276.0663 276.4182 276.5413 276.6417 276.7076 276.7148
   276.8510 276.8558 277.0156 277.0908 277.2686 277.8146 277.8568 278.0564
   278.2327 278.9781 279.2061 279.5080 279.8905 280.0381 280.1022 280.3130
   280.8314 280.9234 281.0254 281.0802 281.4868 281.4884 281.8091 281.8752
   282.0612 282.1703 282.1714 282.2443 282.2485 282.3236 282.5770 282.7075
   282.8963 282.9036 283.2156 283.4287 283.5976 283.8671 284.1437 284.4107
   284.5363 285.1397 285.3713 285.4957 285.5766 286.3197 286.5167 286.6135
   286.6966 286.9372 287.1043 287.2680 287.3819 287.4537 287.5546 287.6376
   287.9239 287.9964 288.2295 288.7324 288.7909 288.9513 289.1429 289.4980
   290.0236 290.5277 290.6208 290.8801 291.2685 291.4732 291.6152 291.8058
   291.8769 292.0885 292.1199 292.3645 292.5160 292.6975 292.7192 292.8684
   292.9178 293.0979 293.1008 293.1626 293.2048 293.3095 293.3198 293.4577
   293.4899 293.5556 293.5744 294.0502 294.0551 294.1378 294.2324 294.5812
   294.5826 294.7299 294.7496 294.8983 294.9684 295.9434 296.2274 296.6450
   297.1405 297.3564 297.5310 297.9264 298.0729 298.1411 298.1901 298.3374
   298.3511 298.3559 298.5538 299.1800 299.7764 300.1603 300.2397 300.4855
   300.5823 300.8544 301.1404 301.1462 301.5468 301.5674 301.9172 301.9316
   302.1650 302.5542 302.5748 302.8069 302.8693 303.1136 303.2167 303.4194
   303.4899 303.5421 303.7325 303.8303 303.9299 303.9617 303.9916 304.1645
   304.1654 304.2741 304.3632 304.6548 304.6902 304.8128 304.8483 305.0130
   305.2709 305.4234 305.5533 305.6693 305.8583 306.5112 306.7626 306.9356
   307.4869 307.6015 307.8249 308.0100 308.0111 308.1449 308.1935 308.5790
   308.6207 308.8743 308.9888 309.0337 309.1085 309.1390 309.1712 309.2039
   309.2061 309.4611 309.4826 309.6634 309.7182 309.8002 309.8070 310.0090
   310.0380 310.2996 310.3458 310.4037 310.4125 310.6592 310.9736 311.1181
   311.5948 311.6470 311.8863 312.2582 312.9849 313.1073 313.1523 313.2407
   313.3979 313.6289 313.6407 314.0984 314.1390 314.2931 314.4316 314.4512
   314.4612 314.7086 314.7577 315.1117 315.1436 315.2830 315.3593 315.4457
   315.4811 315.8985 316.3140 316.4085 316.7021 317.0739 317.4313 317.5371
   317.7181 318.0211 318.0338 318.3565 318.3794 318.6974 318.9300 318.9808
   319.0461 319.3653 319.4014 319.5782 319.6255 319.6969 319.8013 319.8318

          k = 0.3333 0.5774 0.0000 (  5136 PWs)   bands (ev):

   -17.7346 -11.7415 -10.9237  -3.7333   1.0074   8.7529   9.7474  10.9996
    11.5049  12.3148  12.6973  12.8011  12.9101  13.0203  13.2415  13.8265
    14.1749  14.1874  14.4456  14.4923  15.0309  15.2381  16.0986  16.3380
    17.0049  17.5464  18.1395  18.5953  19.3163  19.3553  20.9207  21.7269
    22.5001  23.0994  23.4428  23.5173  24.1472  25.8212  26.9501  28.0101
    28.6527  28.8172  28.8757  31.3708  32.9240  34.5935  35.1236  35.1487
    35.3538  36.5004  36.9220  38.9256  40.0772  41.3360  41.5875  42.1067
    42.5935  43.0200  43.1585  43.2278  44.0611  44.8260  45.0030  45.0969
    45.1200  45.2482  45.2949  45.6036  46.4169  46.5424  46.8353  47.1376
    47.1685  47.6862  48.2659  48.4769  49.2975  50.0913  50.3555  50.5179
    50.5727  50.6821  50.7144  51.5148  51.5767  51.6318  52.0126  54.0516
    54.3433  54.4110  54.7148  54.7601  54.9394  55.2370  56.3916  57.2912
    58.5423  58.8798  59.9202  60.2596  60.6060  60.7127  60.7775  60.9902
    60.9903  61.9431  62.0689  64.2198  64.3634  65.2721  66.6643  66.9816
    67.1322  67.7523  67.9727  68.1814  68.5803  70.4961  70.6385  71.7310
    72.1561  72.2756  72.3246  72.4005  72.5071  72.8454  74.1668  74.3471
    74.3556  74.4211  74.5136  74.7960  74.9336  75.8954  76.0172  76.3514
    76.4888  76.9081  77.1644  77.2539  77.2798  77.3124  77.3836  77.4197
    77.4957  77.5148  77.5275  77.5307  77.5859  77.7111  78.6796  78.8196
    78.9869  79.0345  79.0770  79.2451  79.4041  79.4330  79.5323  79.5392
    79.6379  79.8860  80.4795  81.1748  81.6345  81.6397  82.1251  82.2446
    82.4390  82.5046  82.6048  82.8396  82.8644  82.8750  82.8784  82.9048
    82.9182  83.2695  83.4546  83.7529  83.8271  83.8681  83.9186  84.6663
    84.9436  84.9502  85.8935  86.4351  86.5265  86.5955  86.6588  86.7533
    87.2086  87.2344  87.2813  87.4061  87.4213  87.9728  90.3215  90.6801
    90.7942  91.1569  91.6396  92.0358  92.1695  92.6079  92.7223  92.8133
    92.8621  92.8962  92.9519  93.1272  93.1686  93.3615  93.5962  93.9443
    95.3515  95.6775  96.4596  96.6254  96.9768  97.4823  97.5576  97.6990
    98.3911  98.5005  98.6126  98.6133  99.2163  99.4188  99.4971  99.6419
    99.6525 100.0656 100.7819 101.4295 102.6339 102.7119 103.2177 103.2807
   104.1950 105.8081 105.8878 105.9118 105.9987 106.2208 106.2528 106.9112
   107.0621 107.1058 107.3274 107.3513 107.7205 107.9375 108.2893 108.2992
   109.1392 109.5947 110.3887 110.8257 111.6865 111.9010 113.6627 114.1563
   114.9460 114.9493 115.3577 115.5350 115.6460 115.8208 115.8711 115.8731
   116.0998 116.1262 116.2982 116.3120 116.4389 116.6483 116.8696 116.9400
   121.4082 121.4347 122.7626 123.1723 124.3687 124.6861 124.7807 125.0462
   125.0555 125.3328 125.8174 125.8366 126.0403 126.0673 126.1096 126.1252
   126.6110 126.7023 126.7314 128.3801 128.5335 128.7024 129.2653 129.2669
   129.3468 130.7676 131.5510 131.7293 132.6899 134.4793 134.6110 135.1745
   135.3838 135.7180 135.7229 135.7414 136.2826 136.2921 136.3012 136.7496
   136.8928 136.9252 136.9943 137.3495 137.4343 139.1912 139.5253 139.7483
   139.8763 140.1900 140.7828 140.9196 141.2749 141.3067 141.3504 141.6889
   141.6906 141.7189 141.7476 141.7733 141.8120 141.8907 141.9408 141.9450
   141.9743 141.9919 142.0718 142.3131 142.3518 142.5737 142.6211 142.9239
   142.9911 143.4678 143.4837 143.5071 143.5193 143.7143 143.7282 143.7814
   143.7908 143.9227 143.9236 143.9525 144.0439 144.0756 144.3063 144.8731
   145.3327 146.1223 146.2048 146.4296 146.6411 146.7542 146.8805 147.1620
   147.1672 147.1851 147.2819 147.3332 147.3777 147.4211 147.5081 147.5178
   147.6604 148.4571 148.5935 148.6980 148.7081 148.7855 148.9035 149.1265
   149.7575 150.9539 150.9987 151.0159 151.0487 151.0802 151.1192 151.6202
   151.6280 151.6683 151.7344 151.9660 152.2579 154.0977 155.2696 156.0471
   156.1264 156.2967 156.5203 156.5888 156.7624 156.8568 157.0637 157.3013
   157.3570 157.4013 157.4177 158.0191 158.0780 158.2430 158.6865 158.7325
   158.7442 158.8502 158.8565 159.3077 160.2149 160.2488 160.5144 160.5492
   160.7037 161.2554 161.3222 161.3713 161.5510 161.5702 161.7274 161.8052
   161.8760 162.9621 163.0074 163.0474 163.1595 163.1734 163.2017 163.4565
   163.8043 163.8173 163.8323 164.2639 164.4240 166.4249 166.5353 166.8578
   167.9397 169.0686 169.5495 169.6074 169.6904 170.3279 170.7610 170.9060
   171.2097 171.3130 171.5701 171.7171 171.8643 172.0834 172.2254 172.3684
   172.3933 172.4466 173.3059 173.7770 173.8085 173.9480 173.9629 173.9775
   174.0060 174.0177 174.1145 174.1870 174.5168 174.5426 174.5916 174.8801
   174.9620 175.1336 175.2971 175.3149 175.3967 175.4338 175.4461 175.6238
   175.8483 175.8632 175.9075 175.9332 175.9499 176.0340 176.9083 176.9703
   177.0463 177.1218 177.1323 177.9784 177.9921 178.5213 178.5353 178.9293
   178.9811 179.0957 179.2866 179.3376 179.4024 179.5664 179.5748 179.5816
   179.7436 180.2864 180.3030 180.3304 180.4159 180.6030 181.0533 181.0800
   181.1699 183.0757 183.3798 183.4496 183.4822 183.5337 183.8415 184.1903
   185.4965 185.8252 187.1596 188.4191 188.6742 188.7559 188.8446 188.8808
   188.9115 189.0858 189.0979 189.3145 189.4152 189.5014 189.5854 189.9352
   189.9970 190.0650 190.1214 190.1506 190.1569 190.1701 190.1746 190.7581
   190.7776 190.7925 190.7947 190.8037 190.8180 191.4330 191.5617 191.5877
   191.6212 191.6569 191.7022 192.6177 193.6820 194.9090 195.1723 195.5086
   195.5184 195.7613 195.8154 195.8891 195.9718 196.7485 197.4603 197.6431
   197.6688 198.0937 198.3306 198.8446 199.4719 199.4858 199.5724 199.6848
   199.8869 200.1003 200.2827 200.2970 200.3348 200.4972 201.2585 201.2607
   201.3060 201.5498 201.6907 202.9715 202.9971 203.2251 203.2472 203.3539
   203.4623 204.0659 204.3785 204.7641 204.8604 204.9828 205.0007 205.0208
   205.0857 205.5150 205.6974 206.1331 206.2179 206.2205 206.2406 206.2427
   206.2500 206.2514 206.2596 206.2685 206.2764 206.2764 206.2778 206.2825
   206.3238 206.6179 206.7729 206.9668 206.9771 207.1319 207.3222 207.9143
   208.0401 208.0494 208.0618 208.0845 208.1374 208.1493 208.1567 208.1700
   208.1919 208.3944 208.4572 208.9543 209.1497 209.3054 209.6216 209.8095
   209.8624 210.6725 210.7546 210.9518 210.9926 211.1064 211.1108 211.2377
   211.2540 211.3195 211.3370 211.4479 211.5281 211.7687 211.8156 211.8462
   212.1528 212.1816 212.2630 212.4385 212.4402 212.4416 212.4585 212.6785
   212.6853 213.0711 213.0901 213.1108 213.2001 213.5326 213.6461 215.1855
   215.3362 215.5247 215.6403 215.6484 215.6901 215.7454 215.8281 215.8822
   215.8926 215.8992 215.9347 215.9424 216.0054 216.9786 217.2294 217.8670
   217.9116 219.9798 220.1162 220.1167 220.6278 220.7157 220.7730 221.0352
   221.0590 221.2650 221.2695 221.3727 221.4899 221.8340 221.9064 222.0751
   222.1485 222.1925 222.2005 222.3410 222.4521 222.4639 222.8277 223.3360
   223.4688 223.6946 223.8834 224.0819 224.1155 224.1962 224.2026 224.8373
   224.9982 225.1930 225.2493 225.2611 225.3001 225.3052 225.6853 225.7931
   225.9511 226.4777 226.4883 227.3901 227.6602 227.7772 227.8013 227.8905
   227.9041 227.9942 228.0349 228.0630 228.0960 228.1706 228.2284 228.3925
   228.5789 228.9749 229.0354 229.1824 229.2428 231.8239 231.9667 232.4191
   232.4630 232.5520 232.7979 233.9641 234.3872 234.7107 234.7949 235.1356
   235.2888 235.5238 235.7330 235.7725 235.7870 235.7940 235.8005 236.1097
   236.4814 236.9171 237.1049 237.1559 238.1932 238.2930 238.4460 238.8652
   238.9119 238.9361 239.1796 239.1865 239.8962 239.9806 240.0522 240.2019
   240.2431 240.3870 240.6071 240.7785 240.8473 240.8488 241.0310 241.2181
   241.5202 241.7428 242.2451 242.3173 242.3710 242.3812 242.6619 243.1565
   243.6757 243.9140 243.9886 244.0998 244.1046 244.1495 244.2318 244.3331
   244.3423 244.3732 244.6779 244.7647 245.2343 245.2462 245.2507 245.2739
   245.5409 246.0263 248.0917 248.4781 249.1321 249.1553 249.1627 249.2323
   250.7328 252.3342 253.0526 253.0957 253.4687 253.6810 253.7217 253.8291
   253.8935 253.9346 254.0369 254.2086 254.3136 254.3377 254.4266 254.4568
   254.9761 255.2318 255.2783 255.3049 255.3166 255.3374 255.3710 255.4516
   257.1476 257.4808 257.4926 257.7410 257.7893 257.7902 258.0692 258.4161
   258.7688 259.8840 260.0731 260.3598 260.4577 260.4998 260.5368 260.6304
   261.1075 261.2432 261.2488 261.7421 261.7546 261.7990 261.8202 262.0200
   262.0269 262.9738 263.0078 263.2438 263.4132 264.3378 264.7028 264.9294
   264.9780 264.9894 265.0960 265.1661 265.1753 265.2081 265.2942 265.5912
   267.2576 268.0631 268.4117 268.8022 269.1266 269.6604 269.7214 269.8520
   269.9887 270.0644 270.3510 270.4255 270.4912 270.5114 270.5354 270.6147
   270.6154 270.6214 270.6261 270.6934 270.7125 271.1395 271.2328 271.4122
   271.4224 271.4368 271.4502 271.4765 271.5673 271.8531 271.8671 271.9148
   271.9625 271.9773 272.0106 272.3970 272.4786 272.4842 272.4951 273.0659
   273.2043 275.0938 275.5213 275.5874 275.6980 276.0136 276.0630 276.3163
   276.5195 276.6021 276.7539 276.8342 276.9602 277.0693 277.1410 277.1804
   277.1841 277.4526 277.4573 277.4639 277.9074 278.7767 278.8783 279.6267
   280.1392 280.1620 280.1728 280.1924 280.4336 280.4578 280.5050 280.6431
   281.0100 281.2174 281.3608 281.4717 281.6788 281.7963 281.8264 282.8850
   283.4075 283.5613 283.9023 284.0456 284.7596 285.0315 285.2860 285.2875
   285.4741 285.5578 285.7605 285.8067 286.1741 286.2694 286.3665 286.4755
   286.6930 287.1046 287.3154 287.4000 287.4296 287.4546 287.5002 287.5431
   288.0270 288.1465 288.2625 288.4113 288.5171 288.7958 289.3378 289.6934
   289.7244 289.8653 289.8677 290.1327 290.1944 290.2241 290.2316 290.2406
   290.3086 290.8349 291.9872 292.0844 292.1610 292.1688 292.3129 292.3453
   292.3818 292.4595 292.8551 293.0003 293.0212 293.0484 294.3429 295.1478
   295.2409 295.4858 296.0371 296.3106 296.3678 296.3693 298.9282 299.0340
   299.3693 299.8033 299.8931 299.9961 300.0520 300.2615 300.6306 301.2959
   301.3822 301.4023 301.6556 301.6728 301.7540 301.7611 301.7672 301.9225
   301.9387 302.1042 302.1244 302.4406 302.4418 302.7402 302.7855 302.7924
   302.7989 302.8113 302.8400 302.8532 302.8738 302.8744 302.8761 302.8789
   302.8919 302.9193 303.2165 303.2580 303.2626 303.2906 303.3005 303.4027
   303.7874 303.8276 303.9035 303.9927 304.0093 304.0512 304.0561 304.3122
   304.3689 304.3724 304.3813 304.3821 304.3912 304.6611 304.6682 304.6807
   304.7539 304.7859 304.7956 304.8065 304.8468 304.8536 304.8913 304.9236
   305.2577 305.6190 305.6364 305.7327 305.7919 305.8557 306.4620 306.4761
   306.5807 306.6131 306.7272 306.7556 306.9592 307.5717 307.6930 307.7232
   307.7868 307.8340 307.8718 307.8838 307.8999 307.9021 307.9627 307.9666
   307.9780 307.9848 308.0407 308.2089 308.4367 308.6650 308.9010 308.9053
   308.9148 308.9256 309.0520 309.4615 309.4849 310.3790 311.4796 312.1747
   312.2161 312.2472 312.2716 312.3273 312.4816 312.4858 312.5056 312.5087
   312.6394 312.6450 312.9115 313.6817 314.7228 315.3418 316.1365 316.1876
   316.3733 316.5984 317.1710 317.2849 317.4226 317.5017 317.5822 317.6323
   317.6982 317.7332 317.7917 317.8396 317.9090 318.2157 318.3510 318.3697
   318.4500 318.5904 318.6312 318.6893 318.7427 318.8444 318.8665 318.8969
   318.9032 319.0024 319.0348 319.0551 319.0576 319.1083 319.2310 319.9593

     the Fermi energy is    -0.1051 ev
     (compare with:    -1.2161 eV, computed in scf)

     Writing all to output data dir out/BN.save/
 
     init_run     :      0.11s CPU      0.15s WALL (       1 calls)
     electrons    :    399.95s CPU    412.13s WALL (       1 calls)

     Called by init_run:
     wfcinit      :      0.00s CPU      0.00s WALL (       1 calls)
     potinit      :      0.01s CPU      0.01s WALL (       1 calls)
     hinit0       :      0.04s CPU      0.07s WALL (       1 calls)

     Called by electrons:
     c_bands      :    399.95s CPU    412.13s WALL (       1 calls)
     v_of_rho     :      0.01s CPU      0.01s WALL (       1 calls)

     Called by c_bands:
     init_us_2    :      0.00s CPU      0.00s WALL (       7 calls)
     init_us_2:cp :      0.00s CPU      0.00s WALL (       7 calls)
     cegterg      :    389.44s CPU    401.29s WALL (       7 calls)

     Called by *egterg:
     cdiaghg      :    361.22s CPU    372.51s WALL (      78 calls)
     h_psi        :      6.76s CPU      6.90s WALL (      85 calls)
     g_psi        :      0.05s CPU      0.05s WALL (      71 calls)

     Called by h_psi:
     h_psi:calbec :      0.10s CPU      0.11s WALL (      85 calls)
     vloc_psi     :      6.51s CPU      6.65s WALL (      85 calls)
     add_vuspsi   :      0.08s CPU      0.08s WALL (      85 calls)

     General routines
     calbec       :      0.10s CPU      0.11s WALL (      85 calls)
     fft          :      0.01s CPU      0.04s WALL (      10 calls)
     fftw         :      5.87s CPU      5.99s WALL (  108848 calls)
 
     Parallel routines
 
     PWSCF        :   6m40.94s CPU   6m53.61s WALL

 
   This run was terminated on:   7:50:38   6Apr2024            

=------------------------------------------------------------------------------=
   JOB DONE.
=------------------------------------------------------------------------------=
