
     Program PWSCF v.7.1 starts on  6Apr2024 at  6: 7:15 

     This program is part of the open-source Quantum ESPRESSO suite
     for quantum simulation of materials; please cite
         "P. Giannozzi et al., J. Phys.:Condens. Matter 21 395502 (2009);
         "P. Giannozzi et al., J. Phys.:Condens. Matter 29 465901 (2017);
         "P. Giannozzi et al., J. Chem. Phys. 152 154105 (2020);
          URL http://www.quantum-espresso.org", 
     in publications or presentations arising from this work. More details at
     http://www.quantum-espresso.org/quote

     Parallel version (MPI), running on     8 processors

     MPI processes distributed on     1 nodes
     219762 MiB available memory on the printing compute node when the environment starts
 
     Reading input from pw_BN_nscf_k1_E62.in
Warning: card &IONS ignored
Warning: card / ignored
Warning: card &CELL ignored
Warning: card / ignored

     Current dimensions of program PWSCF are:
     Max number of different atomic species (ntypx) = 10
     Max number of k-points (npk) =  40000
     Max angular momentum in pseudopotentials (lmaxx) =  4

     Atomic positions and unit cell read from directory:
     out/BN.save/
     Atomic positions from file used, from input discarded
 
 
     R & G space division:  proc/nbgrp/npool/nimage =       8
     Subspace diagonalization in iterative solution of the eigenvalue problem:
     one sub-group per band group will be used
     scalapack distributed-memory algorithm (size of sub-group:  2*  2 procs)

 
     Parallelization info
     --------------------
     sticks:   dense  smooth     PW     G-vecs:    dense   smooth      PW
     Min          47      47     14                 5093     5093     842
     Max          48      48     16                 5114     5114     853
     Sum         379     379    121                40811    40811    6785
 
     Using Slab Decomposition
 


     bravais-lattice index     =            4
     lattice parameter (alat)  =       4.7160  a.u.
     unit-cell volume          =     618.7652 (a.u.)^3
     number of atoms/cell      =            2
     number of atomic types    =            2
     number of electrons       =         8.00
     number of Kohn-Sham states=         1200
     kinetic-energy cutoff     =      62.0000  Ry
     charge density cutoff     =     248.0000  Ry
     Exchange-correlation= PBE
                           (   1   4   3   4   0   0   0)

     celldm(1)=   4.716000  celldm(2)=   0.000000  celldm(3)=   6.811990
     celldm(4)=   0.000000  celldm(5)=   0.000000  celldm(6)=   0.000000

     crystal axes: (cart. coord. in units of alat)
               a(1) = (   1.000000   0.000000   0.000000 )  
               a(2) = (  -0.500000   0.866025   0.000000 )  
               a(3) = (   0.000000   0.000000   6.811990 )  

     reciprocal axes: (cart. coord. in units 2 pi/alat)
               b(1) = (  1.000000  0.577350  0.000000 )  
               b(2) = (  0.000000  1.154701  0.000000 )  
               b(3) = (  0.000000  0.000000  0.146800 )  


     PseudoPot. # 1 for B  read from file:
     /usr/scratch4/magr4985/FGWC/FGWC/pseudo/SG15/B.upf
     MD5 check sum: eb3cbeacc2d324d57d903df00f564d27
     Pseudo is Norm-conserving, Zval =  3.0
     Generated using ONCVPSP code by D. R. Hamann
     Using radial grid of  602 points,  4 beta functions with: 
                l(1) =   0
                l(2) =   0
                l(3) =   1
                l(4) =   1

     PseudoPot. # 2 for N  read from file:
     /usr/scratch4/magr4985/FGWC/FGWC/pseudo/SG15/N.upf
     MD5 check sum: c233fa8df51455e992258b7c3dee8a9f
     Pseudo is Norm-conserving, Zval =  5.0
     Generated using ONCVPSP code by D. R. Hamann
     Using radial grid of  602 points,  4 beta functions with: 
                l(1) =   0
                l(2) =   0
                l(3) =   1
                l(4) =   1

     atomic species   valence    mass     pseudopotential
        B              3.00    10.81100     B ( 1.00)
        N              5.00    14.00670     N ( 1.00)

     12 Sym. Ops. (no inversion) found



   Cartesian axes

     site n.     atom                  positions (alat units)
         1           B   tau(   1) = (   0.0000000   0.5773502   0.0000000  )
         2           N   tau(   2) = (   0.5000000   0.2886752   0.0000000  )

     number of k points=     2  Gaussian smearing, width (Ry)=  0.0005
                       cart. coord. in units 2pi/alat
        k(    1) = (   0.0000000   0.0000000   0.0000000), wk =   0.5000000
        k(    2) = (   0.0000000  -0.5773503   0.0000000), wk =   1.5000000

     Dense  grid:    40811 G-vectors     FFT dimensions: (  24,  24, 162)

     Estimated max dynamical RAM per process >     150.43 MB

     Estimated total dynamical RAM >       1.18 GB

     The potential is recalculated from file :
     out/BN.save/charge-density

     Starting wfcs are random

     Band Structure Calculation
     Davidson diagonalization with overlap

     ethr =  5.00E-06,  avg # of iterations = 10.0

     total cpu time spent up to now is      121.8 secs

     End of band structure calculation

          k = 0.0000 0.0000 0.0000 (  5055 PWs)   bands (ev):

   -21.4317  -9.0300  -5.0945  -5.0945   0.9668   1.9002   2.3095   3.6625
     4.2112   6.4787   7.1441   7.9537   7.9537   9.2346  10.0376  11.7318
    12.8396  16.4755  17.8816  22.0185  22.4148  24.4763  26.4629  26.4629
    28.1984  29.3598  29.3599  31.8342  31.9292  32.2780  32.2780  33.0366
    33.0366  33.4295  33.5888  33.9369  34.4164  34.4164  34.4205  34.4205
    34.4916  34.4916  34.5623  34.6330  34.6330  34.6456  34.7921  35.5256
    36.0550  36.0550  36.2733  36.2733  36.3646  36.3704  36.3704  36.5840
    36.5840  36.6048  37.1204  38.1983  38.7624  38.9633  38.9633  39.4746
    39.4746  39.5053  39.5053  39.7571  39.9166  39.9166  40.5852  40.6586
    40.8531  42.3542  42.8298  42.8298  43.7413  43.7413  43.9018  43.9018
    44.2242  44.3066  44.4076  44.4076  45.1227  47.0268  47.0268  47.2842
    48.2027  49.1443  49.1443  49.3978  49.3978  49.6540  49.9757  49.9757
    50.5411  50.8426  50.8617  51.4860  51.4860  53.7717  55.6254  55.6254
    55.7723  55.9952  55.9952  56.4181  56.6201  56.6201  57.3550  57.3623
    57.3623  59.6800  61.1681  61.3585  63.1396  63.1396  63.6703  63.6703
    64.0672  64.1286  64.3285  64.3285  64.7263  64.7263  65.0410  69.0299
    70.4037  70.7669  70.7669  72.2659  72.3272  72.3272  72.4100  72.4100
    72.6582  73.0812  73.0812  73.3555  73.3555  74.0464  74.1080  76.9888
    78.5112  80.1741  80.9550  80.9550  81.3275  82.2027  82.2027  82.3355
    82.8425  82.8425  83.0319  83.0319  85.0385  85.2976  87.6272  87.9176
    87.9645  87.9645  90.1074  90.3505  90.3505  92.4825  92.4825  92.8090
    93.1697  93.1697  93.2321  93.6417  93.6417  94.0693  94.0856  94.0856
    94.2751  94.2751  94.7734  96.3680  96.3680  97.7647  97.7647  97.7777
    98.0648  98.1932  98.7790  98.7790  98.8004  98.8004  98.9361  98.9361
    98.9502  98.9502  98.9596  98.9962  99.0564  99.2660 100.2299 100.2299
   100.3579 100.5974 100.6261 100.6261 100.8326 100.8326 100.9282 100.9631
   100.9631 101.0150 101.4720 101.6633 102.8555 102.8555 103.2097 103.7595
   103.7595 103.8857 104.1133 104.1133 104.1343 104.1343 104.2507 104.2796
   104.8635 105.0157 105.0157 105.3192 105.3192 105.4634 105.5977 105.5977
   105.8377 105.8377 105.8794 105.8794 106.3444 107.8827 108.2592 108.2592
   108.5637 108.5637 108.5799 108.5799 108.7066 108.7353 108.8520 108.8520
   109.3069 109.6449 111.6526 113.5231 113.5231 113.5804 113.5942 113.5942
   113.8581 114.0823 114.0823 114.1327 114.1327 114.2755 114.3034 114.6670
   114.8309 116.3636 117.8801 117.8801 117.8887 117.8887 118.0986 118.4731
   118.4731 118.6983 118.6983 119.4028 120.0813 120.1938 120.1938 120.2146
   120.2146 120.4871 120.6218 120.6218 120.7638 120.7638 120.9324 120.9555
   122.2682 123.3512 123.8658 123.8658 124.6095 124.6935 124.6935 126.7269
   127.0189 127.0189 128.1153 128.1153 128.2910 128.2910 128.5036 128.5036
   128.6605 128.6777 128.7059 128.8630 128.8630 129.5819 129.9053 129.9053
   130.0125 130.0680 130.1519 130.9601 130.9601 131.0364 131.0364 131.1182
   131.1315 131.1315 131.1349 131.1508 131.1509 131.1509 131.1880 131.6005
   131.7426 131.7426 132.0105 132.0105 132.6087 132.7336 132.7336 132.8316
   132.8316 132.9050 132.9300 132.9300 132.9962 132.9962 133.0337 133.0388
   133.0388 133.0612 133.0612 133.2247 133.2652 133.6393 134.4258 135.5330
   135.5330 135.5549 135.8282 135.8282 136.0115 136.0350 136.0350 136.1609
   136.1609 136.5713 136.7792 136.8202 136.8202 137.0598 137.0598 137.0840
   137.2732 137.2732 137.2986 137.2986 137.4520 137.4587 139.1588 139.8907
   139.8907 139.9434 140.6023 140.6023 140.7059 140.7059 140.7950 140.7950
   140.8312 140.9822 141.6084 142.6759 143.8032 144.6088 144.6088 145.3147
   145.3147 145.6839 145.6839 146.0086 146.0086 146.2544 146.3269 146.4633
   146.4916 146.5881 146.5881 146.7972 146.7972 146.8292 146.8292 146.9367
   146.9367 147.2905 147.3029 147.4066 147.4066 147.4346 147.4346 147.5914
   147.6556 147.7327 148.2047 148.2047 148.2073 148.2073 149.3230 149.3394
   149.9500 151.6666 151.6666 152.1745 152.7035 152.7035 152.7413 152.7413
   152.8492 152.9003 152.9003 153.2436 154.0207 155.5645 156.3237 156.3237
   157.3425 157.3425 157.9148 157.9148 157.9278 157.9278 158.1767 158.1839
   158.1940 158.6977 158.6977 159.3968 160.3653 160.3653 160.6407 160.6407
   160.7062 160.7062 160.8213 160.9117 161.2446 161.2469 162.4330 162.9904
   162.9904 163.1199 163.2639 163.2639 163.9210 163.9210 164.0689 164.0689
   164.7360 166.5297 166.5297 166.6190 167.1007 167.9206 168.0290 168.0290
   168.5361 168.6516 168.6516 169.0090 169.0090 169.7183 169.7957 169.7957
   169.9271 169.9271 170.0425 170.0711 170.0711 170.0850 170.0850 170.1248
   170.1335 170.1818 171.3082 173.3855 173.3855 175.2532 177.6919 178.5635
   178.5635 178.7095 178.7095 179.0868 179.0868 179.2995 179.4464 179.4734
   179.7626 179.8758 180.0069 180.0069 180.3485 180.3485 180.4838 180.4838
   180.9640 180.9640 181.0351 181.0351 181.6088 182.1250 182.1250 182.5987
   182.7473 182.7473 182.9283 182.9283 182.9543 182.9543 183.1086 183.1203
   183.7640 185.7568 186.1474 187.7651 187.7651 188.3577 189.7516 189.7516
   189.8087 189.8087 189.9406 190.0458 190.0458 190.2963 190.3518 190.4257
   190.4257 193.4313 194.8973 195.8664 195.8664 196.0216 196.1561 196.1561
   196.6762 196.8665 196.8665 196.9042 196.9042 197.1472 197.1509 197.2579
   198.5175 198.5175 198.5433 198.5433 199.3334 199.5458 199.5746 199.5746
   199.5839 199.5839 199.8808 199.8808 201.0671 201.6658 201.7602 201.7602
   201.9244 201.9244 202.0345 202.0345 202.0485 202.0657 202.2523 202.2523
   205.4268 205.7797 207.1360 207.1360 208.2597 208.3330 208.8676 209.8508
   210.5109 211.0183 211.0183 211.1686 211.1686 211.9088 211.9088 211.9540
   211.9540 212.2210 212.2534 214.3250 214.3250 214.3288 214.3288 214.3621
   214.9813 214.9813 215.0534 215.0534 215.2200 215.7490 216.0441 216.0494
   217.5028 217.8125 217.8564 217.8564 217.8658 217.8658 218.2552 218.2552
   218.6925 218.6925 218.6939 218.6939 219.0830 219.0830 219.2769 219.6808
   219.7124 221.1003 222.1520 222.1520 222.7034 222.7034 222.9060 224.5359
   224.5359 224.5954 225.3403 225.3403 226.0760 226.0760 226.1177 226.5770
   226.6900 226.6900 226.7398 226.7443 226.7505 226.9480 226.9480 227.0864
   227.0864 227.5135 227.5135 227.5281 227.5281 227.5564 227.5565 227.6113
   227.6314 227.6567 227.6568 227.6897 227.7041 227.7603 227.7603 227.7609
   227.7609 227.7735 227.7939 227.7939 227.8003 227.8190 227.8243 227.8243
   227.8446 227.8650 227.8747 227.8747 227.9377 227.9578 227.9578 228.3500
   228.3571 228.5167 228.5168 228.7971 228.8547 228.8547 229.1939 229.1939
   229.2091 229.2091 229.4243 229.4401 229.4583 229.4884 229.4970 229.4970
   229.5033 229.5258 229.5258 229.5632 229.5632 229.5702 229.5702 229.5730
   229.6818 229.6818 229.7274 229.7624 229.7624 229.8260 229.8260 229.8554
   229.8978 229.8978 229.9328 230.3381 230.7279 232.2260 232.2260 232.2868
   232.4478 232.4478 232.5503 232.5503 232.6445 232.6445 232.7238 232.7322
   232.8186 232.8186 232.8853 233.0583 233.0583 233.1634 233.1634 233.1824
   233.1824 233.2052 233.2362 233.3132 233.4681 234.4085 236.1795 236.1795
   236.5812 236.5812 236.7988 236.8353 236.8353 236.8582 236.9225 236.9998
   236.9998 237.0930 237.1257 237.1382 237.1382 237.5270 237.5270 237.6171
   237.6171 237.6627 237.6627 237.6855 237.7158 237.7256 237.9541 238.0248
   238.0248 238.1119 238.1119 238.8721 238.8721 238.9640 238.9640 239.0740
   239.3428 241.0519 241.0519 241.3741 241.7544 241.7544 242.0035 242.1641
   242.1641 242.4328 242.4328 242.4824 242.4824 242.6091 242.6270 243.0437
   243.0437 243.1021 243.1103 243.1659 243.1659 243.2246 243.2246 243.2371
   243.2641 243.2972 243.4100 243.4100 243.5535 243.5535 243.5563 243.6699
   243.6699 243.8310 243.8310 244.5615 245.1023 245.2029 245.2029 245.3313
   245.3313 245.4008 245.4008 245.4200 245.4200 245.4606 245.5178 245.5190
   245.8654 247.9785 247.9785 248.4444 248.5166 248.5166 248.9171 248.9171
   249.0870 249.0870 249.2211 249.2330 249.2362 249.2515 249.2515 249.6361
   249.6764 249.7408 249.7408 249.8552 249.8552 249.9104 249.9104 249.9497
   249.9771 250.0010 250.5677 253.0996 253.0996 253.8134 255.6736 255.6736
   256.4094 256.4094 256.4125 256.7006 256.7006 256.7940 256.7940 256.9105
   256.9164 256.9987 257.0353 257.4255 257.4255 257.5357 257.5357 257.6247
   257.6247 257.6316 257.6818 257.7027 258.1855 258.5117 258.5117 258.8045
   258.8045 259.0570 259.0570 259.3756 259.9732 259.9732 260.0637 260.0997
   260.0997 260.1601 260.1601 260.1985 260.2185 260.2185 260.2938 260.2938
   260.3615 260.3807 260.4705 260.4705 261.1458 262.6992 263.2667 263.2667
   263.3615 263.3615 263.3908 263.4344 263.4344 263.5199 263.5199 263.7066
   263.7136 263.8100 263.8100 263.8589 264.7876 264.7876 264.8173 265.3112
   265.3112 265.5025 265.5025 265.6600 265.6600 265.6708 265.6722 265.9134
   266.2302 266.2302 266.4287 266.4287 266.4988 266.5075 266.5420 266.5656
   266.5656 266.6480 266.6480 267.1853 271.6138 271.8266 272.9677 273.8105
   273.8105 273.9687 274.8183 274.8183 275.1123 275.1947 275.1947 275.2522
   275.2522 275.4827 275.4898 275.9917 275.9917 275.9952 275.9952 276.0645
   276.2389 276.2389 276.2748 276.2748 276.3269 276.3288 276.3417 276.3556
   276.7660 277.0339 277.0339 277.1026 277.1026 277.1870 277.1870 277.2780
   277.2780 277.7211 278.6076 279.4300 279.9204 281.3058 281.3058 281.3954
   281.5697 281.5697 281.7508 281.7508 281.8577 281.8577 282.8315 282.8315
   282.8412 282.8412 282.9640 282.9644 283.0650 283.2703 283.2703 283.2967
   283.2967 283.4517 283.7109 284.3698 284.8478 284.8478 284.9508 284.9852
   284.9852 285.1192 285.1192 285.6907 286.0577 286.0577 286.1956 286.1956
   286.2856 286.2856 286.3578 286.3624 286.6815 286.6815 286.9116 287.0833
   287.1629 287.1629 287.1707 287.1707 287.2321 287.2321 287.2414 287.2527
   287.9779 290.2901 290.2901 290.7339 290.7339 290.7687 291.1978 291.9919
   292.0467 292.0467 292.1041 292.1042 292.1066 292.1084 292.1085 292.1180
   292.1181 292.1235 292.2102 292.9904 293.6612 293.6612 293.8012 293.9646
   293.9647 293.9794 293.9794 293.9927 294.0376 294.0376 294.0737 294.2664
   294.4435 294.4435 294.6874 295.0900 295.0900 295.3067 295.3067 295.4328
   295.4328 295.7267 296.1187 296.5856 296.5884 296.5884 297.1564 297.1564
   297.1642 297.1642 297.1714 297.1897 297.1898 297.2340 297.2546 297.3585
   297.5383 297.5383 297.7073 297.8830 298.0244 298.0244 298.1017 298.1017
   298.1429 298.1429 298.2798 298.2854 298.4525 298.6537 298.6537 298.7431
   298.8808 298.8808 299.0889 299.0889 299.0894 299.0894 299.1643 299.1749
   299.7151 300.8832 301.2362 301.2362 301.6568 301.6568 301.6823 301.7016
   301.7133 301.7134 301.7244 301.7244 301.7609 301.8108 302.2289 302.2289
   302.3181 302.3757 302.3757 303.0097 303.0097 303.0114 303.0114 303.2669
   303.2774 303.4176 304.7314 305.1568 305.1568 305.2973 305.2973 306.2825
   306.2825 306.2972 306.2972 306.3040 306.4774 306.5437 306.5437 307.0032
   307.1585 307.1586 307.1757 307.1757 307.1818 307.1973 307.1973 307.2105
   307.9100 309.5309 309.5464 309.5464 310.6781 310.6781 310.8471 310.8471
   310.9908 310.9908 311.1674 311.2527 311.2613 311.4345 311.4345 311.5865
   311.8426 311.8426 312.0729 312.0729 312.0786 312.0786 312.1680 312.1811

          k = 0.0000-0.5774 0.0000 (  5116 PWs)   bands (ev):

   -18.3258 -12.6755  -7.9408  -4.6474   1.1231   6.1973   8.8175   9.2553
     9.4918  10.0513  10.3165  10.3942  11.3101  11.8203  12.0427  12.3752
    13.7016  14.7794  14.8223  15.5401  16.8060  18.1083  18.1735  18.9079
    19.8222  19.8333  20.7555  21.6845  23.9678  24.3610  24.8106  25.2149
    25.2480  26.1203  26.4162  26.4638  26.4764  26.6142  27.4773  27.8521
    28.2052  28.3509  28.7667  29.9378  30.7625  31.1486  31.6247  31.7611
    32.4753  32.5416  33.2532  34.2627  34.8694  36.0565  36.3792  36.5400
    37.2819  39.1201  39.8524  40.5575  41.0306  41.4582  41.5678  41.9227
    44.0979  45.9330  47.2217  47.8350  48.1188  48.1240  48.7574  48.9112
    49.3786  49.8178  50.5974  51.8112  52.6637  53.7860  54.5240  54.7169
    55.7939  55.9942  56.6556  56.7109  56.9688  57.4890  57.9401  58.4402
    58.5113  58.5223  58.5482  58.5823  58.6311  58.6486  58.6912  58.7272
    58.8887  59.3100  59.5318  60.1553  60.2536  60.4738  60.5266  60.6329
    60.6775  61.1449  61.8062  62.1542  63.1006  63.4257  63.5795  63.7768
    63.8586  64.2040  64.2297  64.3443  64.7828  65.1905  65.4313  66.2266
    66.9648  67.3452  67.5521  68.2157  68.3348  68.4149  68.4224  68.4815
    69.0647  69.0806  69.3076  69.7774  69.9270  72.1881  72.3722  72.5932
    72.9860  73.0262  73.6735  73.6883  73.8112  74.0966  74.2012  74.2887
    74.3292  74.7002  74.7513  74.7672  74.8101  74.8131  75.1243  76.5189
    76.5604  76.6173  76.9569  77.5321  77.6739  78.6282  79.0270  79.2002
    79.7440  79.7949  80.2238  80.3122  80.3847  80.5112  80.5892  80.6597
    80.9548  81.0502  81.0749  81.6279  83.2261  83.6836  83.8720  84.3056
    84.4870  84.7976  85.0246  85.3499  85.7218  86.3570  86.8045  87.8459
    87.9469  88.1332  88.2839  88.3148  88.3497  89.4230  89.6479  89.7488
    89.9548  91.5123  91.5130  93.0517  94.1521  94.3777  95.2321  95.3899
    95.5232  96.0454  96.2813  96.3836  96.4549  96.6784  96.7834  96.9086
    96.9914  97.5017  97.5878  97.6788  97.7102  98.3624  98.5228  98.7489
   101.2752 101.6445 102.4714 103.2485 103.9284 103.9920 104.0780 104.3327
   104.7095 105.1621 105.5873 106.1434 106.1991 106.4406 106.4967 106.6479
   106.8537 106.8862 106.9007 106.9109 106.9340 106.9955 107.0178 107.0730
   107.0735 107.1832 107.4218 107.8251 107.9899 108.4443 108.5996 108.6475
   108.6702 108.6809 108.9693 108.9940 109.0048 109.4159 110.0505 110.0927
   110.1671 110.3836 111.3152 111.4519 111.6763 111.8410 111.9438 112.0836
   112.2678 112.3047 112.3597 112.6107 112.6802 112.8349 113.6468 114.8877
   115.1255 115.8222 116.0582 116.4940 116.6469 116.6995 116.7946 116.8529
   116.9934 117.0665 117.5448 117.5811 117.6686 117.7988 119.0531 119.7792
   120.0952 120.7967 120.9774 121.1663 121.6787 121.9596 122.2293 122.3119
   122.4809 122.5326 122.5410 122.7987 123.3120 123.3247 123.3927 123.7018
   124.3934 124.6116 124.9907 125.0230 125.2350 126.1225 127.0137 128.0345
   128.5100 128.6149 128.8145 128.9585 128.9857 129.0429 129.0608 129.4463
   129.5792 129.6803 129.7491 129.7788 130.1230 131.1987 132.5283 133.3835
   133.6418 134.0209 134.8924 135.1665 135.7115 135.8615 136.0002 136.0003
   136.6463 136.9552 137.3054 137.6847 138.1167 138.2066 138.7082 139.4192
   139.8748 140.2010 140.3148 141.2823 141.6003 142.1096 142.1564 142.3477
   142.5034 142.7488 142.8750 143.4765 143.9566 144.1053 144.2366 144.4882
   144.7233 145.3738 145.4436 145.5783 145.6279 145.7120 145.7133 145.8931
   146.9085 146.9588 147.3465 148.7735 148.7866 151.2756 151.8408 152.5295
   152.6574 153.1651 153.9541 154.0526 154.1735 154.2105 154.8487 154.8929
   154.9827 155.0223 155.1056 155.1114 155.2024 155.2868 155.2909 155.2966
   155.3027 155.3029 155.3849 155.4341 155.6985 155.7061 156.0091 156.1579
   156.3375 156.5563 156.6246 156.6316 156.6465 156.8330 156.9164 156.9643
   156.9662 156.9847 157.1680 157.1874 157.1885 157.3000 157.3391 157.4085
   157.8063 158.4537 158.6150 158.6181 158.6967 159.7719 160.0932 160.1548
   160.1958 160.3938 160.3955 160.4429 160.5276 161.2325 162.7454 163.6102
   163.7103 163.8346 164.0065 164.0800 164.6600 164.7760 164.8457 164.9248
   165.1143 165.1684 165.2373 165.3595 165.4866 165.6720 165.8198 166.3082
   166.3809 166.3977 168.2448 168.4762 168.7958 169.0154 169.1059 169.8321
   169.9702 170.2306 170.3306 170.3400 170.4523 170.4586 170.5067 170.5164
   171.0923 171.2136 171.2867 171.2925 171.3110 171.3452 171.3923 171.3989
   171.5058 171.5729 171.6012 171.6618 171.6857 171.7661 171.9417 172.0828
   172.2373 172.3511 172.6703 172.8675 172.9293 172.9769 173.1229 173.2210
   173.2445 173.2502 173.2605 173.3176 173.3508 173.5349 174.1973 174.4132
   174.4947 175.1963 175.5219 175.5641 175.6131 176.0652 176.1794 176.1915
   176.3132 176.3606 176.5089 176.6833 176.7149 176.8895 177.0946 177.1391
   177.1850 177.2065 177.2232 177.2696 177.3268 177.3965 177.8288 177.9136
   178.0709 178.2342 178.9686 179.7652 180.3063 180.6684 180.8448 180.8685
   180.9185 180.9313 180.9413 181.7239 182.8425 183.0535 183.8828 184.2720
   184.5412 184.5750 184.7326 184.7674 184.7758 184.8115 185.4494 186.2446
   186.3689 186.4110 186.4809 186.5656 186.6180 186.7051 187.0724 187.0990
   187.3341 187.3648 187.5958 187.6009 187.8764 187.9048 188.0694 188.1357
   188.8951 189.3749 189.6840 190.0595 190.1703 190.2280 190.5783 190.7243
   191.1681 191.4045 191.4982 191.6138 191.6897 192.3333 192.3648 192.4684
   192.6439 192.8629 192.8993 192.9554 192.9915 193.0748 193.2925 193.4359
   193.4795 193.5280 193.5504 193.8009 193.8130 193.8487 194.5891 194.5970
   194.6074 196.6327 196.6736 197.1356 199.3765 199.8001 200.0435 200.5391
   200.5883 200.6379 200.6862 200.9639 201.0009 201.0900 201.6031 202.1432
   202.1664 202.6819 202.7331 202.8117 203.0993 203.2777 203.4039 203.4328
   203.5310 203.5396 203.6153 203.6535 203.7457 203.8647 203.9385 203.9833
   204.5709 204.8632 204.9231 204.9890 204.9902 205.0293 205.0483 205.0775
   205.2010 205.2107 205.2882 205.2989 205.3070 205.4530 205.4707 205.4728
   205.7742 206.4069 208.1151 208.2487 208.5302 208.6545 208.6614 208.7368
   209.1052 209.1817 209.3803 209.5107 209.5282 209.6412 209.6970 209.9706
   210.3061 210.3213 211.3880 211.8328 212.0916 212.3071 212.4924 212.9587
   213.0005 213.1717 213.7466 213.7938 213.9227 214.0077 214.0586 214.2860
   214.3227 214.3280 214.5438 214.8088 214.9265 216.8587 217.4900 217.8837
   218.1812 218.2443 218.5843 218.6629 218.7979 218.8293 218.8758 218.9262
   219.0523 219.1673 219.2864 219.4890 219.6455 219.6660 219.6705 219.6897
   219.8879 219.9553 220.1022 220.1970 220.2367 220.3879 220.4185 220.4339
   220.5329 220.6526 221.1050 221.3206 221.5090 221.5216 222.0189 222.1692
   222.7181 222.7566 222.8311 223.1428 223.1917 223.2047 223.2793 223.7095
   223.8598 224.6779 224.7175 224.7482 224.8879 225.0130 225.0383 225.3915
   225.7157 225.7938 225.9629 226.0193 226.2025 226.2497 226.2547 226.2915
   227.1584 228.0375 229.0543 229.2907 229.3121 229.3641 229.6542 229.9087
   230.1250 230.1484 230.1969 230.2141 230.2937 230.3156 230.3702 230.6311
   230.6367 231.5770 232.0559 232.6578 232.9161 232.9297 233.1803 234.4311
   234.5185 234.5674 234.9781 235.0596 235.2950 235.4933 235.5158 235.5821
   236.1766 236.3232 236.4236 236.4419 236.5163 236.6017 237.3029 237.7584
   238.1474 238.1788 238.6653 239.0136 239.1094 239.1470 239.1938 239.2020
   239.5247 240.0155 240.6189 240.6383 240.9683 241.2022 241.3628 241.4450
   241.6042 241.8581 241.8697 241.8877 241.9322 241.9475 242.0016 242.0703
   242.0903 242.3382 242.4163 242.5435 242.5862 242.6101 242.7387 242.7447
   242.9783 243.2668 244.2870 244.6040 245.3989 245.4584 248.1899 248.3929
   248.7405 249.0617 249.1681 249.1755 249.5350 250.2504 250.3305 250.5949
   250.6328 250.8376 251.2899 251.3127 251.5627 251.6270 251.6365 251.6444
   251.8129 251.8200 251.8749 251.8754 251.8920 251.8932 251.9225 252.0845
   252.3260 252.4013 252.5556 252.9148 252.9164 252.9887 253.0736 253.1257
   253.2782 253.2955 253.5548 253.6175 253.6277 253.6800 253.6912 253.7276
   253.7605 253.7626 253.7884 253.8208 253.9624 254.0793 254.8999 254.9035
   254.9477 255.1058 255.1275 255.2116 255.2669 255.8389 256.3876 256.4903
   256.8229 256.8570 256.9105 256.9255 256.9372 256.9724 257.0013 257.2548
   257.4117 257.7689 257.8712 257.9184 257.9354 257.9644 258.1493 258.3056
   258.7586 258.8741 259.1864 260.2150 260.9568 261.2623 261.3341 261.3485
   261.4859 261.5313 261.5436 261.6298 261.8798 261.9901 262.4631 262.5198
   262.5354 262.5911 262.6154 262.7687 262.8205 262.8340 263.2153 264.3895
   264.8345 265.6557 265.9097 266.6049 266.6518 266.8703 266.9783 267.0929
   267.1107 267.2444 267.3793 267.6481 267.7414 267.8228 267.8636 268.0719
   268.0865 268.1465 268.2835 268.5546 268.6222 268.9456 269.2591 269.2624
   269.3282 269.3456 269.4726 269.4989 269.8982 270.0010 270.1336 270.7429
   270.7852 271.2734 271.4542 271.6877 271.7567 272.1512 273.0274 273.3903
   273.4546 273.5040 273.6596 273.6664 273.6832 273.7143 273.7267 274.0480
   274.1643 274.2784 274.3270 274.3493 274.4435 274.4594 277.4701 277.9107
   278.2180 278.3655 278.4219 278.4246 278.4360 278.5818 278.7811 280.1592
   280.5788 281.0258 281.0557 281.1014 281.2997 281.3354 281.3930 281.3955
   281.7334 281.7750 282.5389 282.6122 282.9764 282.9947 283.1368 283.2934
   283.5877 283.6419 283.7372 283.7504 283.8114 283.9472 284.0164 284.0485
   284.0550 284.1491 284.6497 284.7616 284.7653 284.7879 284.9812 284.9986
   285.0021 285.0066 285.1551 287.2502 287.2627 287.3509 287.8030 288.3491
   288.4620 288.7400 289.1553 289.4060 289.4279 289.8180 290.1109 290.2479
   290.2858 290.2914 290.2947 290.3540 290.3556 290.5556 290.6499 291.1951
   291.2518 291.2869 291.2877 291.7671 292.2870 292.5874 292.6580 292.7885
   292.8760 292.8797 295.1332 297.3813 297.4858 297.6279 297.6425 297.7117
   298.2613 298.7123 298.7989 298.8728 299.0468 299.1252 299.1429 299.3562
   299.4776 299.6010 299.6330 299.7403 299.8323 300.0139 300.0434 300.0818
   300.1225 300.1429 300.1536 300.1735 300.1824 300.1885 300.2097 300.2896
   300.2935 300.2944 300.3488 300.4056 300.4762 300.5763 300.6166 300.7157
   300.8856 301.6371 301.6918 301.7347 301.7349 301.7466 301.8637 301.9241
   302.0218 302.0300 302.0318 302.0384 302.0418 302.0653 302.0943 302.0996
   302.1473 302.4065 303.0841 303.2196 303.3752 303.4697 303.8017 304.8567
   304.8587 304.9506 305.1025 305.1498 305.2065 305.2080 305.2738 305.7346
   305.7928 305.8171 306.0416 306.2581 306.3448 306.5635 306.5739 306.5873
   306.7208 306.8550 307.9577 307.9656 308.3062 308.9613 309.2986 309.3030
   309.3236 309.5526 309.7073 309.8529 309.9325 310.0541 310.0705 310.4734
   310.5087 310.6464 310.7020 310.7218 310.7506 310.7603 310.8446 310.8555
   310.8755 310.9783 310.9842 310.9865 311.2899 311.5117 313.2574 313.6914
   314.0962 314.3205 314.7028 314.8016 314.9332 314.9716 315.0486 315.1738
   315.1768 315.4745 315.5192 315.5975 315.9580 316.0946 316.1056 316.1664
   316.2080 316.2711 316.2779 316.3300 316.3380 316.3382 316.3888 316.3934
   316.5436 317.0028 317.0472 317.2860 317.3714 317.4360 317.5054 317.6481
   317.7395 317.7398 317.7753 318.0336 318.0536 318.0706 318.1441 318.2346
   318.2355 318.3063 318.3503 318.7730 318.8380 318.8396 319.2331 319.4903

     the Fermi energy is    -0.1787 ev
     (compare with:    -1.2161 eV, computed in scf)

     Writing all to output data dir out/BN.save/
 
     init_run     :      0.10s CPU      0.14s WALL (       1 calls)
     electrons    :    117.87s CPU    121.46s WALL (       1 calls)

     Called by init_run:
     wfcinit      :      0.00s CPU      0.00s WALL (       1 calls)
     potinit      :      0.01s CPU      0.01s WALL (       1 calls)
     hinit0       :      0.03s CPU      0.07s WALL (       1 calls)

     Called by electrons:
     c_bands      :    117.87s CPU    121.46s WALL (       1 calls)
     v_of_rho     :      0.01s CPU      0.01s WALL (       1 calls)

     Called by c_bands:
     init_us_2    :      0.00s CPU      0.00s WALL (       2 calls)
     init_us_2:cp :      0.00s CPU      0.00s WALL (       2 calls)
     cegterg      :    114.51s CPU    117.98s WALL (       2 calls)

     Called by *egterg:
     cdiaghg      :    105.93s CPU    109.24s WALL (      22 calls)
     h_psi        :      2.21s CPU      2.27s WALL (      24 calls)
     g_psi        :      0.02s CPU      0.02s WALL (      20 calls)

     Called by h_psi:
     h_psi:calbec :      0.03s CPU      0.03s WALL (      24 calls)
     vloc_psi     :      2.14s CPU      2.19s WALL (      24 calls)
     add_vuspsi   :      0.02s CPU      0.02s WALL (      24 calls)

     General routines
     calbec       :      0.03s CPU      0.03s WALL (      24 calls)
     fft          :      0.01s CPU      0.04s WALL (      10 calls)
     fftw         :      1.94s CPU      1.99s WALL (   32440 calls)
 
     Parallel routines
 
     PWSCF        :   1m58.38s CPU   2m 2.17s WALL

 
   This run was terminated on:   6: 9:17   6Apr2024            

=------------------------------------------------------------------------------=
   JOB DONE.
=------------------------------------------------------------------------------=
