
     Program PWSCF v.7.1 starts on 17Nov2023 at  7:47: 6 

     This program is part of the open-source Quantum ESPRESSO suite
     for quantum simulation of materials; please cite
         "P. Giannozzi et al., J. Phys.:Condens. Matter 21 395502 (2009);
         "P. Giannozzi et al., J. Phys.:Condens. Matter 29 465901 (2017);
         "P. Giannozzi et al., J. Chem. Phys. 152 154105 (2020);
          URL http://www.quantum-espresso.org", 
     in publications or presentations arising from this work. More details at
     http://www.quantum-espresso.org/quote

     Parallel version (MPI), running on    24 processors

     MPI processes distributed on     1 nodes
     123361 MiB available memory on the printing compute node when the environment starts
 
     Reading input from pw_mp-1500_scf_k3000_E31.in
Warning: card &CELL ignored
Warning: card / ignored

     Current dimensions of program PWSCF are:
     Max number of different atomic species (ntypx) = 10
     Max number of k-points (npk) =  40000
     Max angular momentum in pseudopotentials (lmaxx) =  4
 
     K-points division:     npool     =       2
     R & G space division:  proc/nbgrp/npool/nimage =      12
     Subspace diagonalization in iterative solution of the eigenvalue problem:
     a serial algorithm will be used

 
     Parallelization info
     --------------------
     sticks:   dense  smooth     PW     G-vecs:    dense   smooth      PW
     Min          53      53     16                  873      873     151
     Max          54      54     17                  876      876     154
     Sum         637     637    199                10489    10489    1837
 
     Using Slab Decomposition
 


     bravais-lattice index     =            2
     lattice parameter (alat)  =      12.1913  a.u.
     unit-cell volume          =     452.9900 (a.u.)^3
     number of atoms/cell      =            2
     number of atomic types    =            2
     number of electrons       =        16.00
     number of Kohn-Sham states=           16
     kinetic-energy cutoff     =      31.0000  Ry
     charge density cutoff     =     124.0000  Ry
     scf convergence threshold =      1.0E-10
     mixing beta               =       0.7000
     number of iterations used =            8  plain     mixing
     Exchange-correlation= PBE
                           (   1   4   3   4   0   0   0)

     celldm(1)=  12.191286  celldm(2)=   0.000000  celldm(3)=   0.000000
     celldm(4)=   0.000000  celldm(5)=   0.000000  celldm(6)=   0.000000

     crystal axes: (cart. coord. in units of alat)
               a(1) = (  -0.500000   0.000000   0.500000 )  
               a(2) = (   0.000000   0.500000   0.500000 )  
               a(3) = (  -0.500000   0.500000   0.000000 )  

     reciprocal axes: (cart. coord. in units 2 pi/alat)
               b(1) = ( -1.000000 -1.000000  1.000000 )  
               b(2) = (  1.000000  1.000000  1.000000 )  
               b(3) = ( -1.000000  1.000000 -1.000000 )  


     PseudoPot. # 1 for Ba read from file:
     /usr/scratch4/magr4985/MG/HTDF/pseudo/SG15/Ba.upf
     MD5 check sum: ac4691792522964bb0504809e83fae44
     Pseudo is Norm-conserving, Zval = 10.0
     Generated using ONCVPSP code by D. R. Hamann
     Using radial grid of  602 points,  8 beta functions with: 
                l(1) =   0
                l(2) =   0
                l(3) =   1
                l(4) =   1
                l(5) =   2
                l(6) =   2
                l(7) =   3
                l(8) =   3

     PseudoPot. # 2 for S  read from file:
     /usr/scratch4/magr4985/MG/HTDF/pseudo/SG15/S.upf
     MD5 check sum: f9d020296ee6110346977bfd66d424f6
     Pseudo is Norm-conserving, Zval =  6.0
     Generated using ONCVPSP code by D. R. Hamann
     Using radial grid of  602 points,  4 beta functions with: 
                l(1) =   0
                l(2) =   0
                l(3) =   1
                l(4) =   1

     atomic species   valence    mass     pseudopotential
        Ba            10.00   137.32700     Ba( 1.00)
        S              6.00    32.06500     S ( 1.00)

     48 Sym. Ops., with inversion, found



   Cartesian axes

     site n.     atom                  positions (alat units)
         1           Ba  tau(   1) = (   0.0000000   0.0000000   0.0000000  )
         2           S   tau(   2) = (  -0.5000000   0.5000000   0.5000000  )

     number of k points=    72  Gaussian smearing, width (Ry)=  0.0005
                       cart. coord. in units 2pi/alat
        k(    1) = (   0.0000000   0.0000000   0.0000000), wk =   0.0011574
        k(    2) = (  -0.0833333   0.0833333  -0.0833333), wk =   0.0092593
        k(    3) = (  -0.1666667   0.1666667  -0.1666667), wk =   0.0092593
        k(    4) = (  -0.2500000   0.2500000  -0.2500000), wk =   0.0092593
        k(    5) = (  -0.3333333   0.3333333  -0.3333333), wk =   0.0092593
        k(    6) = (  -0.4166667   0.4166667  -0.4166667), wk =   0.0092593
        k(    7) = (   0.5000000  -0.5000000   0.5000000), wk =   0.0046296
        k(    8) = (   0.0000000   0.1666667   0.0000000), wk =   0.0069444
        k(    9) = (  -0.0833333   0.2500000  -0.0833333), wk =   0.0277778
        k(   10) = (  -0.1666667   0.3333333  -0.1666667), wk =   0.0277778
        k(   11) = (  -0.2500000   0.4166667  -0.2500000), wk =   0.0277778
        k(   12) = (  -0.3333333   0.5000000  -0.3333333), wk =   0.0277778
        k(   13) = (   0.5833333  -0.4166667   0.5833333), wk =   0.0277778
        k(   14) = (   0.5000000  -0.3333333   0.5000000), wk =   0.0277778
        k(   15) = (   0.4166667  -0.2500000   0.4166667), wk =   0.0277778
        k(   16) = (   0.3333333  -0.1666667   0.3333333), wk =   0.0277778
        k(   17) = (   0.2500000  -0.0833333   0.2500000), wk =   0.0277778
        k(   18) = (   0.1666667  -0.0000000   0.1666667), wk =   0.0138889
        k(   19) = (   0.0000000   0.3333333   0.0000000), wk =   0.0069444
        k(   20) = (  -0.0833333   0.4166667  -0.0833333), wk =   0.0277778
        k(   21) = (  -0.1666667   0.5000000  -0.1666667), wk =   0.0277778
        k(   22) = (  -0.2500000   0.5833333  -0.2500000), wk =   0.0277778
        k(   23) = (   0.6666667  -0.3333333   0.6666667), wk =   0.0277778
        k(   24) = (   0.5833333  -0.2500000   0.5833333), wk =   0.0277778
        k(   25) = (   0.5000000  -0.1666667   0.5000000), wk =   0.0277778
        k(   26) = (   0.4166667  -0.0833333   0.4166667), wk =   0.0277778
        k(   27) = (   0.3333333   0.0000000   0.3333333), wk =   0.0138889
        k(   28) = (   0.0000000   0.5000000   0.0000000), wk =   0.0069444
        k(   29) = (  -0.0833333   0.5833333  -0.0833333), wk =   0.0277778
        k(   30) = (  -0.1666667   0.6666667  -0.1666667), wk =   0.0277778
        k(   31) = (   0.7500000  -0.2500000   0.7500000), wk =   0.0277778
        k(   32) = (   0.6666667  -0.1666667   0.6666667), wk =   0.0277778
        k(   33) = (   0.5833333  -0.0833333   0.5833333), wk =   0.0277778
        k(   34) = (   0.5000000   0.0000000   0.5000000), wk =   0.0138889
        k(   35) = (   0.0000000   0.6666667   0.0000000), wk =   0.0069444
        k(   36) = (  -0.0833333   0.7500000  -0.0833333), wk =   0.0277778
        k(   37) = (   0.8333333  -0.1666667   0.8333333), wk =   0.0277778
        k(   38) = (   0.7500000  -0.0833333   0.7500000), wk =   0.0277778
        k(   39) = (   0.6666667  -0.0000000   0.6666667), wk =   0.0138889
        k(   40) = (   0.0000000   0.8333333   0.0000000), wk =   0.0069444
        k(   41) = (   0.9166667  -0.0833333   0.9166667), wk =   0.0277778
        k(   42) = (   0.8333333   0.0000000   0.8333333), wk =   0.0138889
        k(   43) = (   0.0000000  -1.0000000   0.0000000), wk =   0.0034722
        k(   44) = (  -0.1666667   0.3333333   0.0000000), wk =   0.0277778
        k(   45) = (  -0.2500000   0.4166667  -0.0833333), wk =   0.0555556
        k(   46) = (  -0.3333333   0.5000000  -0.1666667), wk =   0.0555556
        k(   47) = (   0.5833333  -0.4166667   0.7500000), wk =   0.0555556
        k(   48) = (   0.5000000  -0.3333333   0.6666667), wk =   0.0277778
        k(   49) = (  -0.1666667   0.5000000   0.0000000), wk =   0.0277778
        k(   50) = (  -0.2500000   0.5833333  -0.0833333), wk =   0.0555556
        k(   51) = (   0.6666667  -0.3333333   0.8333333), wk =   0.0555556
        k(   52) = (   0.5833333  -0.2500000   0.7500000), wk =   0.0555556
        k(   53) = (   0.5000000  -0.1666667   0.6666667), wk =   0.0555556
        k(   54) = (   0.4166667  -0.0833333   0.5833333), wk =   0.0555556
        k(   55) = (   0.3333333   0.0000000   0.5000000), wk =   0.0277778
        k(   56) = (  -0.1666667   0.6666667  -0.0000000), wk =   0.0277778
        k(   57) = (   0.7500000  -0.2500000   0.9166667), wk =   0.0555556
        k(   58) = (   0.6666667  -0.1666667   0.8333333), wk =   0.0555556
        k(   59) = (   0.5833333  -0.0833333   0.7500000), wk =   0.0555556
        k(   60) = (   0.5000000   0.0000000   0.6666667), wk =   0.0277778
        k(   61) = (   0.8333333  -0.1666667   1.0000000), wk =   0.0277778
        k(   62) = (   0.7500000  -0.0833333   0.9166667), wk =   0.0555556
        k(   63) = (   0.6666667   0.0000000   0.8333333), wk =   0.0277778
        k(   64) = (  -0.1666667  -1.0000000  -0.0000000), wk =   0.0138889
        k(   65) = (   0.6666667  -0.3333333   1.0000000), wk =   0.0277778
        k(   66) = (   0.5833333  -0.2500000   0.9166667), wk =   0.0555556
        k(   67) = (   0.5000000  -0.1666667   0.8333333), wk =   0.0277778
        k(   68) = (   0.6666667  -0.1666667   1.0000000), wk =   0.0277778
        k(   69) = (   0.5833333  -0.0833333   0.9166667), wk =   0.0555556
        k(   70) = (   0.5000000   0.0000000   0.8333333), wk =   0.0277778
        k(   71) = (  -0.3333333  -1.0000000   0.0000000), wk =   0.0138889
        k(   72) = (  -0.5000000  -1.0000000   0.0000000), wk =   0.0069444

     Dense  grid:    10489 G-vectors     FFT dimensions: (  32,  32,  32)

     Estimated max dynamical RAM per process >       6.12 MB

     Estimated total dynamical RAM >     144.34 MB

     Initial potential from superposition of free atoms

     starting charge      15.5979, renormalised to      16.0000
     Starting wfcs are random

     total cpu time spent up to now is        0.3 secs

     Self-consistent Calculation

     iteration #  1     ecut=    31.00 Ry     beta= 0.70
     Davidson diagonalization with overlap
     ethr =  1.00E-02,  avg # of iterations =  8.3

     total cpu time spent up to now is        0.7 secs

     total energy              =     -72.13651751 Ry
     estimated scf accuracy    <       0.20997933 Ry

     iteration #  2     ecut=    31.00 Ry     beta= 0.70
     Davidson diagonalization with overlap
     ethr =  1.31E-03,  avg # of iterations =  5.0

     total cpu time spent up to now is        1.0 secs

     total energy              =     -72.19544718 Ry
     estimated scf accuracy    <       0.13753786 Ry

     iteration #  3     ecut=    31.00 Ry     beta= 0.70
     Davidson diagonalization with overlap
     ethr =  8.60E-04,  avg # of iterations =  2.0

     total cpu time spent up to now is        1.2 secs

     total energy              =     -72.22635716 Ry
     estimated scf accuracy    <       0.00158584 Ry

     iteration #  4     ecut=    31.00 Ry     beta= 0.70
     Davidson diagonalization with overlap
     c_bands:  1 eigenvalues not converged
     c_bands:  1 eigenvalues not converged
     c_bands:  1 eigenvalues not converged
     c_bands:  1 eigenvalues not converged
     c_bands:  1 eigenvalues not converged
     c_bands:  1 eigenvalues not converged
     c_bands:  1 eigenvalues not converged
     ethr =  9.91E-06,  avg # of iterations = 13.2

     total cpu time spent up to now is        1.8 secs

     total energy              =     -72.22743128 Ry
     estimated scf accuracy    <       0.00002455 Ry

     iteration #  5     ecut=    31.00 Ry     beta= 0.70
     Davidson diagonalization with overlap
     c_bands:  1 eigenvalues not converged
     c_bands:  1 eigenvalues not converged
     c_bands:  1 eigenvalues not converged
     c_bands:  1 eigenvalues not converged
     ethr =  1.53E-07,  avg # of iterations =  8.2

     total cpu time spent up to now is        2.1 secs

     total energy              =     -72.22745395 Ry
     estimated scf accuracy    <       0.00000060 Ry

     iteration #  6     ecut=    31.00 Ry     beta= 0.70
     Davidson diagonalization with overlap
     ethr =  3.72E-09,  avg # of iterations =  4.1

     total cpu time spent up to now is        2.4 secs

     total energy              =     -72.22745456 Ry
     estimated scf accuracy    <       0.00000001 Ry

     iteration #  7     ecut=    31.00 Ry     beta= 0.70
     Davidson diagonalization with overlap
     ethr =  6.49E-11,  avg # of iterations =  4.4

     total cpu time spent up to now is        2.7 secs

     total energy              =     -72.22745457 Ry
     estimated scf accuracy    <          3.9E-10 Ry

     iteration #  8     ecut=    31.00 Ry     beta= 0.70
     Davidson diagonalization with overlap
     ethr =  2.41E-12,  avg # of iterations =  4.2

     total cpu time spent up to now is        2.9 secs

     End of self-consistent calculation

          k = 0.0000 0.0000 0.0000 (  1363 PWs)   bands (ev):

   -20.5686  -5.6363  -5.6363  -5.6363  -4.7716   5.4808   5.4808   5.4808
     9.0165   9.4467   9.4467   9.4467  10.3518  10.3518  13.1424  16.5655

          k =-0.0833 0.0833-0.0833 (  1321 PWs)   bands (ev):

   -20.5661  -5.7695  -5.6387  -5.6387  -4.6316   5.2977   5.3956   5.3956
     9.2578   9.4631   9.5434   9.5434  10.5396  10.5396  13.4169  16.6622

          k =-0.1667 0.1667-0.1667 (  1321 PWs)   bands (ev):

   -20.5591  -6.0280  -5.6452  -5.6452  -4.3576   4.8781   5.1832   5.1832
     9.4353   9.8224   9.8224   9.9703  11.0568  11.0568  14.0281  16.3438

          k =-0.2500 0.2500-0.2500 (  1332 PWs)   bands (ev):

   -20.5494  -6.2829  -5.6540  -5.6540  -4.0808   4.4161   4.9319   4.9319
     9.5957  10.2633  10.2633  10.7672  11.8029  11.8029  14.7038  15.7774

          k =-0.3333 0.3333-0.3333 (  1326 PWs)   bands (ev):

   -20.5398  -6.4864  -5.6627  -5.6627  -3.8536   4.0264   4.7126   4.7126
     9.9248  10.8325  10.8325  11.4098  12.6681  12.6681  14.9372  15.0554

          k =-0.4167 0.4167-0.4167 (  1320 PWs)   bands (ev):

   -20.5327  -6.6162  -5.6690  -5.6690  -3.7055   3.7708   4.5672   4.5672
    10.4188  11.4374  11.4374  11.4725  13.4701  13.4701  14.3606  14.3607

          k = 0.5000-0.5000 0.5000 (  1308 PWs)   bands (ev):

   -20.5301  -6.6606  -5.6713  -5.6713  -3.6539   3.6819   4.5167   4.5167
    11.0053  11.0093  11.7660  11.7660  13.6502  13.6502  14.2679  14.2679

          k = 0.0000 0.1667 0.0000 (  1331 PWs)   bands (ev):

   -20.5652  -5.7863  -5.6480  -5.6480  -4.5993   5.1259   5.4478   5.4478
     9.2573   9.2852   9.6732   9.6732  10.4089  10.8202  13.4894  16.5873

          k =-0.0833 0.2500-0.0833 (  1325 PWs)   bands (ev):

   -20.5597  -5.9732  -5.6604  -5.6524  -4.4017   4.7956   5.3029   5.3416
     9.1622   9.6540   9.9569   9.9754  10.6501  11.4277  13.9517  16.3354

          k =-0.1667 0.3333-0.1667 (  1332 PWs)   bands (ev):

   -20.5510  -6.2055  -5.6726  -5.6575  -4.1604   4.4462   5.0277   5.1296
     9.2374  10.1980  10.4238  10.4522  11.2081  12.2040  14.5958  15.7908

          k =-0.2500 0.4167-0.2500 (  1327 PWs)   bands (ev):

   -20.5414  -6.4104  -5.6813  -5.6679  -3.9437   4.1322   4.7673   4.8927
     9.5003  10.7393  10.9893  11.1245  11.9689  12.9660  14.9378  15.0561

          k =-0.3333 0.5000-0.3333 (  1320 PWs)   bands (ev):

   -20.5334  -6.5558  -5.6843  -5.6812  -3.7865   3.8947   4.6013   4.6929
     9.9476  11.2907  11.4956  11.5689  12.8153  13.5136  14.3406  14.8579

          k = 0.5833-0.4167 0.5833 (  1327 PWs)   bands (ev):

   -20.5293  -6.6254  -5.6936  -5.6807  -3.7089   3.7711   4.5536   4.5672
    10.5310  11.0842  11.8145  11.9219  13.5649  13.8698  14.0804  14.1567

          k = 0.5000-0.3333 0.5000 (  1325 PWs)   bands (ev):

   -20.5302  -6.6124  -5.7015  -5.6716  -3.7199   3.7860   4.5342   4.6215
    10.4842  11.1407  11.4295  12.0317  13.2309  14.0169  14.1426  14.4052

          k = 0.4167-0.2500 0.4167 (  1317 PWs)   bands (ev):

   -20.5358  -6.5186  -5.7023  -5.6593  -3.8191   3.9438   4.5987   4.7885
     9.9590  10.8240  11.3289  11.5388  12.5623  13.4478  14.5523  15.1391

          k = 0.3333-0.1667 0.3333 (  1327 PWs)   bands (ev):

   -20.5446  -6.3540  -5.6952  -5.6471  -3.9960   4.2281   4.7525   5.0218
     9.5890  10.2695  10.7859  10.9259  11.9763  12.5665  14.8781  15.1779

          k = 0.2500-0.0833 0.2500 (  1328 PWs)   bands (ev):

   -20.5542  -6.1397  -5.6808  -5.6382  -4.2266   4.6020   4.9718   5.2611
     9.4047   9.8517  10.0784  10.3738  11.2778  11.7129  14.3805  15.7592

          k = 0.1667-0.0000 0.1667 (  1319 PWs)   bands (ev):

   -20.5620  -5.9171  -5.6601  -5.6352  -4.4677   5.0010   5.2106   5.4102
     9.3815   9.5480   9.6040   9.9019  10.7133  11.0040  13.7753  16.3678

          k = 0.0000 0.3333 0.0000 (  1319 PWs)   bands (ev):

   -20.5560  -6.0169  -5.6796  -5.6796  -4.3413   4.5581   5.3817   5.3817
     8.8375   9.6872  10.2946  10.2946  10.5724  12.0985  14.2368  16.2563

          k =-0.0833 0.4167-0.0833 (  1325 PWs)   bands (ev):

   -20.5488  -6.1526  -5.6978  -5.6920  -4.2170   4.3529   5.2437   5.2848
     8.7298  10.0638  10.7118  10.7267  10.8695  12.8642  14.7373  15.8018

          k =-0.1667 0.5000-0.1667 (  1319 PWs)   bands (ev):

   -20.5401  -6.3112  -5.7100  -5.7049  -4.0760   4.2110   4.9796   5.0969
     8.8602  10.7079  11.1643  11.2629  11.4462  13.4343  15.0953  15.1372

          k =-0.2500 0.5833-0.2500 (  1317 PWs)   bands (ev):

   -20.5322  -6.4429  -5.7268  -5.7131  -3.9511   4.1143   4.7435   4.8866
     9.2101  11.3157  11.6185  11.8057  12.1896  13.4928  14.4617  14.8385

          k = 0.6667-0.3333 0.6667 (  1324 PWs)   bands (ev):

   -20.5273  -6.5230  -5.7527  -5.7063  -3.8629   4.0209   4.6565   4.7088
     9.7495  11.1759  11.9575  12.1811  13.0914  13.7342  14.1183  14.1648

          k = 0.5833-0.2500 0.5833 (  1317 PWs)   bands (ev):

   -20.5266  -6.5413  -5.7734  -5.6914  -3.8250   3.9483   4.5975   4.7306
    10.3778  10.6652  11.5534  12.2481  13.4969  14.0133  14.1845  14.4552

          k = 0.5000-0.1667 0.5000 (  1323 PWs)   bands (ev):

   -20.5304  -6.4982  -5.7796  -5.6722  -3.8474   3.9570   4.5702   4.8989
    10.0703  10.9713  10.9911  11.7739  12.8722  14.1291  14.5659  15.2267

          k = 0.4167-0.0833 0.4167 (  1326 PWs)   bands (ev):

   -20.5376  -6.4033  -5.7652  -5.6539  -3.9318   4.0757   4.6315   5.0931
     9.6907  10.4478  10.7270  11.5743  12.3118  13.4085  14.6096  15.2934

          k = 0.3333 0.0000 0.3333 (  1341 PWs)   bands (ev):

   -20.5463  -6.2750  -5.7293  -5.6414  -4.0680   4.3008   4.7732   5.2382
     9.4750  10.0639  10.2848  11.0069  11.8529  12.5271  14.8999  14.9853

          k = 0.0000 0.5000 0.0000 (  1331 PWs)   bands (ev):

   -20.5434  -6.1598  -5.7227  -5.7227  -4.2417   4.2945   5.3362   5.3362
     8.3960  10.1266  10.8201  11.1759  11.1759  13.5463  15.0592  15.7253

          k =-0.0833 0.5833-0.0833 (  1315 PWs)   bands (ev):

   -20.5363  -6.2233  -5.7440  -5.7408  -4.2270   4.3057   5.2208   5.2633
     8.3338  10.5300  11.1181  11.6397  11.6767  13.8981  15.2269  15.2839

          k =-0.1667 0.6667-0.1667 (  1313 PWs)   bands (ev):

   -20.5293  -6.3024  -5.7789  -5.7474  -4.1721   4.3656   4.9809   5.1019
     8.5404  11.1366  11.6907  11.9960  12.1209  13.6965  14.4495  14.7219

          k = 0.7500-0.2500 0.7500 (  1318 PWs)   bands (ev):

   -20.5244  -6.3670  -5.8276  -5.7408  -4.0896   4.3763   4.8072   4.9112
     8.9764  11.3617  12.1702  12.2580  12.5020  13.6300  13.8548  14.5051

          k = 0.6667-0.1667 0.6667 (  1316 PWs)   bands (ev):

   -20.5229  -6.4077  -5.8670  -5.7227  -4.0022   4.2324   4.7420   4.8543
     9.5987  10.9018  11.8048  12.1702  13.3462  13.7231  14.2287  14.8453

          k = 0.5833-0.0833 0.5833 (  1322 PWs)   bands (ev):

   -20.5251  -6.4268  -5.8720  -5.6977  -3.9357   4.0850   4.6281   4.9790
    10.2880  10.4085  11.2698  11.6422  13.6948  14.0929  14.7612  15.3399

          k = 0.5000 0.0000 0.5000 (  1320 PWs)   bands (ev):

   -20.5305  -6.4264  -5.8336  -5.6725  -3.9093   4.0254   4.5886   5.0750
     9.9612  10.7659  10.7915  11.4890  12.9617  14.1297  14.8081  15.3708

          k = 0.0000 0.6667 0.0000 (  1311 PWs)   bands (ev):

   -20.5310  -6.1819  -5.7655  -5.7655  -4.3538   4.4417   5.3305   5.3305
     8.0402  10.6425  11.1069  12.1095  12.1095  14.0375  15.1142  15.3601

          k =-0.0833 0.7500-0.0833 (  1319 PWs)   bands (ev):

   -20.5256  -6.1807  -5.8015  -5.7779  -4.4028   4.6021   5.2297   5.2754
     8.0471  11.0466  11.3940  12.3970  12.4654  13.7995  14.1573  15.0714

          k = 0.8333-0.1667 0.8333 (  1314 PWs)   bands (ev):

   -20.5216  -6.1911  -5.8841  -5.7747  -4.3483   4.7305   5.0007   5.1264
     8.3363  11.5369  11.9274  12.2154  12.5129  13.3657  13.9995  14.9501

          k = 0.7500-0.0833 0.7500 (  1316 PWs)   bands (ev):

   -20.5200  -6.2257  -5.9604  -5.7568  -4.2205   4.5888   4.9374   4.9517
     8.8541  11.3378  12.0757  12.1555  12.6495  13.2676  14.5107  15.2342

          k = 0.6667-0.0000 0.6667 (  1316 PWs)   bands (ev):

   -20.5213  -6.3205  -5.9478  -5.7287  -4.0692   4.3104   4.7588   4.9961
     9.5468  10.8096  11.6915  11.7945  13.4155  13.7731  15.0095  15.3087

          k = 0.0000 0.8333 0.0000 (  1330 PWs)   bands (ev):

   -20.5220  -6.1183  -5.7967  -5.7967  -4.5675   4.7999   5.3473   5.3473
     7.8145  11.1594  11.3524  12.7415  12.7415  13.4333  13.9170  15.3350

          k = 0.9167-0.0833 0.9167 (  1321 PWs)   bands (ev):

   -20.5195  -6.0842  -5.8599  -5.7992  -4.5780   4.9350   5.2395   5.2938
     7.8988  11.4793  11.5787  12.5292  12.7855  13.1444  13.8619  15.3425

          k = 0.8333 0.0000 0.8333 (  1316 PWs)   bands (ev):

   -20.5187  -6.0371  -6.0229  -5.7847  -4.4352   4.9513   4.9872   5.1395
     8.2670  11.8648  11.9153  12.0323  12.5371  12.9882  14.3323  15.4730

          k = 0.0000-1.0000 0.0000 (  1298 PWs)   bands (ev):

   -20.5187  -6.0708  -5.8081  -5.8081  -4.6779   4.9934   5.3578   5.3578
     7.7378  11.4148  11.4538  12.9105  12.9105  13.0709  13.4842  15.6126

          k =-0.1667 0.3333 0.0000 (  1329 PWs)   bands (ev):

   -20.5534  -6.1157  -5.6930  -5.6536  -4.2461   4.5077   5.1079   5.3340
     9.0596   9.9422  10.1647  10.4820  10.9664  12.1527  14.4290  15.7316

          k =-0.2500 0.4167-0.0833 (  1329 PWs)   bands (ev):

   -20.5447  -6.2865  -5.7210  -5.6593  -4.0706   4.2565   4.8641   5.1872
     9.1572  10.4040  10.5428  11.0606  11.5851  12.9146  14.9399  15.1251

          k =-0.3333 0.5000-0.1667 (  1319 PWs)   bands (ev):

   -20.5359  -6.4363  -5.7369  -5.6724  -3.9214   4.0655   4.6739   4.9695
     9.4517  10.9390  11.0824  11.6161  12.2225  13.4577  14.6721  15.1509

          k = 0.5833-0.4167 0.7500 (  1320 PWs)   bands (ev):

   -20.5295  -6.5362  -5.7418  -5.6875  -3.8241   3.9433   4.5888   4.7658
     9.9286  11.1326  11.5023  12.0476  12.8827  13.9319  14.2562  14.6683

          k = 0.5000-0.3333 0.6667 (  1318 PWs)   bands (ev):

   -20.5272  -6.5710  -5.7417  -5.6948  -3.7904   3.9006   4.6041   4.6484
    10.4475  10.6594  11.8420  12.2450  13.5858  13.7977  14.0993  14.2607

          k =-0.1667 0.5000 0.0000 (  1325 PWs)   bands (ev):

   -20.5416  -6.2363  -5.7377  -5.6972  -4.1550   4.2569   5.0784   5.2781
     8.6448  10.3556  11.0615  11.1780  11.3424  13.4867  15.1485  15.1953

          k =-0.2500 0.5833-0.0833 (  1317 PWs)   bands (ev):

   -20.5338  -6.3319  -5.7694  -5.7107  -4.0787   4.2256   4.8601   5.1502
     8.8094  10.8158  11.4741  11.7430  11.9000  13.6253  14.7779  15.1597

          k = 0.6667-0.3333 0.8333 (  1318 PWs)   bands (ev):

   -20.5275  -6.4100  -5.7916  -5.7282  -4.0053   4.2100   4.7156   4.9604
     9.1914  11.1677  11.8302  11.9415  12.6822  13.7436  14.2488  14.5646

          k = 0.5833-0.2500 0.7500 (  1320 PWs)   bands (ev):

   -20.5242  -6.4537  -5.8131  -5.7303  -3.9494   4.1501   4.7223   4.7919
     9.7561  10.7210  12.0623  12.2581  13.1076  13.8557  14.2022  14.5297

          k = 0.5000-0.1667 0.6667 (  1315 PWs)   bands (ev):

   -20.5251  -6.4574  -5.8266  -5.7138  -3.9233   4.0877   4.6499   4.8784
    10.0852  10.4661  11.7230  11.9548  13.3910  14.0496  14.4535  14.8017

          k = 0.4167-0.0833 0.5833 (  1322 PWs)   bands (ev):

   -20.5297  -6.4246  -5.8168  -5.6898  -3.9360   4.0755   4.6242   5.0405
     9.6108  10.8851  11.2394  11.5876  12.8993  13.9630  14.6486  15.1576

          k = 0.3333 0.0000 0.5000 (  1324 PWs)   bands (ev):

   -20.5369  -6.3638  -5.7785  -5.6691  -3.9882   4.1297   4.7023   5.1636
     9.2908  10.6205  10.8134  11.6357  12.1508  13.4713  14.7368  15.3046

          k =-0.1667 0.6667-0.0000 (  1316 PWs)   bands (ev):

   -20.5300  -6.2390  -5.7822  -5.7566  -4.2578   4.4087   5.0892   5.2628
     8.3059  10.8207  11.4781  12.0300  12.1101  13.8681  14.5332  15.2472

          k = 0.7500-0.2500 0.9167 (  1320 PWs)   bands (ev):

   -20.5246  -6.2625  -5.8275  -5.7792  -4.2310   4.5175   4.9010   5.1497
     8.5483  11.1954  11.7998  12.3429  12.3921  13.8031  13.9230  14.8740

          k = 0.6667-0.1667 0.8333 (  1315 PWs)   bands (ev):

   -20.5214  -6.2878  -5.8894  -5.7760  -4.1580   4.4745   4.8604   4.9760
     9.0137  11.0349  11.9684  12.4062  12.6985  13.6484  14.2051  14.9093

          k = 0.5833-0.0833 0.7500 (  1316 PWs)   bands (ev):

   -20.5213  -6.3272  -5.9185  -5.7526  -4.0678   4.3055   4.7928   4.9645
     9.6571  10.4569  11.8835  12.0698  13.0106  14.2264  14.6234  15.3583

          k = 0.5000 0.0000 0.6667 (  1325 PWs)   bands (ev):

   -20.5243  -6.3812  -5.8880  -5.7200  -3.9877   4.1606   4.6671   5.0369
     9.9582  10.3881  11.5306  11.6250  13.4907  14.2257  14.7478  15.1391

          k = 0.8333-0.1667 1.0000 (  1315 PWs)   bands (ev):

   -20.5217  -6.1439  -5.8331  -5.8145  -4.4487   4.7755   5.1127   5.2723
     8.0913  11.2689  11.7398  12.3075  12.7196  13.4305  14.0041  15.2809

          k = 0.7500-0.0833 0.9167 (  1315 PWs)   bands (ev):

   -20.5193  -6.1113  -5.9448  -5.8155  -4.3768   4.8129   4.9662   5.1603
     8.4124  11.4700  11.7113  12.3351  12.7474  13.1781  14.3316  15.2791

          k = 0.6667 0.0000 0.8333 (  1318 PWs)   bands (ev):

   -20.5192  -6.1717  -5.9911  -5.7907  -4.2319   4.5666   4.9808   4.9914
     8.9525  10.9582  11.8968  12.4585  12.5051  13.6421  14.7254  15.4716

          k =-0.1667-1.0000-0.0000 (  1320 PWs)   bands (ev):

   -20.5186  -6.0537  -5.8996  -5.8263  -4.5447   4.9902   5.1072   5.2798
     8.0183  11.4823  11.9204  12.1168  12.9158  13.0174  14.0227  15.4841

          k = 0.6667-0.3333 1.0000 (  1329 PWs)   bands (ev):

   -20.5276  -6.3394  -5.8272  -5.7366  -4.0757   4.2785   4.7455   5.1336
     9.0056  10.9323  11.6196  11.8331  12.7125  13.8490  14.3093  15.1685

          k = 0.5833-0.2500 0.9167 (  1320 PWs)   bands (ev):

   -20.5230  -6.3365  -5.8649  -5.7719  -4.0695   4.3043   4.7539   5.0295
     9.4071  10.6397  11.6658  12.2091  13.0677  14.1701  14.3410  14.8597

          k = 0.5000-0.1667 0.8333 (  1312 PWs)   bands (ev):

   -20.5213  -6.3335  -5.8768  -5.7893  -4.0664   4.3009   4.8517   4.9076
     9.9294  10.0321  12.0125  12.3759  12.7552  14.2674  14.6585  15.1111

          k = 0.6667-0.1667 1.0000 (  1314 PWs)   bands (ev):

   -20.5209  -6.2105  -5.8626  -5.8537  -4.2352   4.5650   4.8737   5.1335
     8.8156  10.9945  11.5752  12.6530  12.6958  13.6411  14.4621  15.1307

          k = 0.5833-0.0833 0.9167 (  1317 PWs)   bands (ev):

   -20.5191  -6.1805  -5.9352  -5.8607  -4.1960   4.4743   4.9646   5.0345
     9.2912  10.3864  11.7654  12.4395  12.7650  14.2982  14.7133  15.2658

          k = 0.5000 0.0000 0.8333 (  1323 PWs)   bands (ev):

   -20.5199  -6.2395  -5.9274  -5.8265  -4.1357   4.3813   4.8852   5.0326
     9.8204   9.9294  11.7388  12.5516  12.6354  14.6996  14.9511  14.9822

          k =-0.3333-1.0000 0.0000 (  1312 PWs)   bands (ev):

   -20.5184  -6.0436  -6.0068  -5.8755  -4.3126   4.6644   4.9941   5.1375
     8.7499  10.9411  11.6112  12.3924  12.9263  13.6299  14.5978  15.3145

          k =-0.5000-1.0000 0.0000 (  1316 PWs)   bands (ev):

   -20.5183  -6.1038  -5.9418  -5.9418  -4.2070   4.4633   5.0354   5.0354
     9.7673   9.7673  11.7031  12.3162  12.9317  14.7550  15.0214  15.0215

     the Fermi energy is     7.3857 ev

!    total energy              =     -72.22745458 Ry
     estimated scf accuracy    <          3.6E-11 Ry
     smearing contrib. (-TS)   =      -0.00000000 Ry
     internal energy E=F+TS    =     -72.22745458 Ry

     The total energy is F=E-TS. E is the sum of the following terms:
     one-electron contribution =      -8.14423446 Ry
     hartree contribution      =       9.77795807 Ry
     xc contribution           =     -11.98836322 Ry
     ewald contribution        =     -61.87281497 Ry

     convergence has been achieved in   8 iterations

     Writing all to output data dir out/mp-1500.save/
 
     init_run     :      0.06s CPU      0.16s WALL (       1 calls)
     electrons    :      2.46s CPU      2.66s WALL (       1 calls)

     Called by init_run:
     wfcinit      :      0.05s CPU      0.10s WALL (       1 calls)
     potinit      :      0.00s CPU      0.01s WALL (       1 calls)
     hinit0       :      0.00s CPU      0.04s WALL (       1 calls)

     Called by electrons:
     c_bands      :      2.27s CPU      2.44s WALL (       8 calls)
     sum_band     :      0.18s CPU      0.19s WALL (       8 calls)
     v_of_rho     :      0.01s CPU      0.01s WALL (       9 calls)
     mix_rho      :      0.00s CPU      0.00s WALL (       8 calls)

     Called by c_bands:
     init_us_2    :      0.03s CPU      0.03s WALL (     612 calls)
     init_us_2:cp :      0.03s CPU      0.03s WALL (     612 calls)
     cegterg      :      1.98s CPU      2.13s WALL (     288 calls)

     Called by *egterg:
     cdiaghg      :      0.61s CPU      0.68s WALL (    2115 calls)
     h_psi        :      1.22s CPU      1.33s WALL (    2151 calls)
     g_psi        :      0.01s CPU      0.01s WALL (    1827 calls)

     Called by h_psi:
     h_psi:calbec :      0.07s CPU      0.08s WALL (    2151 calls)
     vloc_psi     :      1.09s CPU      1.19s WALL (    2151 calls)
     add_vuspsi   :      0.04s CPU      0.05s WALL (    2151 calls)

     General routines
     calbec       :      0.06s CPU      0.08s WALL (    2151 calls)
     fft          :      0.00s CPU      0.04s WALL (      89 calls)
     ffts         :      0.00s CPU      0.00s WALL (       8 calls)
     fftw         :      1.10s CPU      1.19s WALL (   39610 calls)
 
     Parallel routines
 
     PWSCF        :      2.59s CPU      3.01s WALL

 
   This run was terminated on:   7:47: 9  17Nov2023            

=------------------------------------------------------------------------------=
   JOB DONE.
=------------------------------------------------------------------------------=
