
     Program PWSCF v.7.1 starts on 24Nov2023 at  8:28:52 

     This program is part of the open-source Quantum ESPRESSO suite
     for quantum simulation of materials; please cite
         "P. Giannozzi et al., J. Phys.:Condens. Matter 21 395502 (2009);
         "P. Giannozzi et al., J. Phys.:Condens. Matter 29 465901 (2017);
         "P. Giannozzi et al., J. Chem. Phys. 152 154105 (2020);
          URL http://www.quantum-espresso.org", 
     in publications or presentations arising from this work. More details at
     http://www.quantum-espresso.org/quote

     Parallel version (MPI), running on    24 processors

     MPI processes distributed on     1 nodes
     123373 MiB available memory on the printing compute node when the environment starts
 
     Reading input from pw_mp-22922_scf_k3000_E83.in
Warning: card &CELL ignored
Warning: card / ignored

     Current dimensions of program PWSCF are:
     Max number of different atomic species (ntypx) = 10
     Max number of k-points (npk) =  40000
     Max angular momentum in pseudopotentials (lmaxx) =  4
 
     K-points division:     npool     =       2
     R & G space division:  proc/nbgrp/npool/nimage =      12
     Subspace diagonalization in iterative solution of the eigenvalue problem:
     a serial algorithm will be used

 
     Parallelization info
     --------------------
     sticks:   dense  smooth     PW     G-vecs:    dense   smooth      PW
     Min         105     105     30                 2466     2466     389
     Max         106     106     31                 2470     2470     393
     Sum        1261    1261    367                29603    29603    4693
 
     Using Slab Decomposition
 


     bravais-lattice index     =            2
     lattice parameter (alat)  =      10.4791  a.u.
     unit-cell volume          =     287.6854 (a.u.)^3
     number of atoms/cell      =            2
     number of atomic types    =            2
     number of electrons       =        26.00
     number of Kohn-Sham states=           26
     kinetic-energy cutoff     =      83.0000  Ry
     charge density cutoff     =     332.0000  Ry
     scf convergence threshold =      1.0E-10
     mixing beta               =       0.7000
     number of iterations used =            8  plain     mixing
     Exchange-correlation= PBE
                           (   1   4   3   4   0   0   0)

     celldm(1)=  10.479147  celldm(2)=   0.000000  celldm(3)=   0.000000
     celldm(4)=   0.000000  celldm(5)=   0.000000  celldm(6)=   0.000000

     crystal axes: (cart. coord. in units of alat)
               a(1) = (  -0.500000   0.000000   0.500000 )  
               a(2) = (   0.000000   0.500000   0.500000 )  
               a(3) = (  -0.500000   0.500000   0.000000 )  

     reciprocal axes: (cart. coord. in units 2 pi/alat)
               b(1) = ( -1.000000 -1.000000  1.000000 )  
               b(2) = (  1.000000  1.000000  1.000000 )  
               b(3) = ( -1.000000  1.000000 -1.000000 )  


     PseudoPot. # 1 for Ag read from file:
     /usr/scratch4/magr4985/MG/HTDF/pseudo/SG15/Ag.upf
     MD5 check sum: 2fe2fe769560ddf16f28d1c82859634b
     Pseudo is Norm-conserving, Zval = 19.0
     Generated using ONCVPSP code by D. R. Hamann
     Using radial grid of  602 points,  6 beta functions with: 
                l(1) =   0
                l(2) =   0
                l(3) =   1
                l(4) =   1
                l(5) =   2
                l(6) =   2

     PseudoPot. # 2 for Cl read from file:
     /usr/scratch4/magr4985/MG/HTDF/pseudo/SG15/Cl.upf
     MD5 check sum: 0f993535b366f580ecbcdacce103c843
     Pseudo is Norm-conserving, Zval =  7.0
     Generated using ONCVPSP code by D. R. Hamann
     Using radial grid of  602 points,  4 beta functions with: 
                l(1) =   0
                l(2) =   0
                l(3) =   1
                l(4) =   1

     atomic species   valence    mass     pseudopotential
        Ag            19.00   107.86820     Ag( 1.00)
        Cl             7.00    35.45300     Cl( 1.00)

     48 Sym. Ops., with inversion, found



   Cartesian axes

     site n.     atom                  positions (alat units)
         1           Ag  tau(   1) = (   0.0000000   0.0000000   0.0000000  )
         2           Cl  tau(   2) = (  -0.5000000   0.5000000   0.5000000  )

     number of k points=    72  Gaussian smearing, width (Ry)=  0.0005
                       cart. coord. in units 2pi/alat
        k(    1) = (   0.0000000   0.0000000   0.0000000), wk =   0.0011574
        k(    2) = (  -0.0833333   0.0833333  -0.0833333), wk =   0.0092593
        k(    3) = (  -0.1666667   0.1666667  -0.1666667), wk =   0.0092593
        k(    4) = (  -0.2500000   0.2500000  -0.2500000), wk =   0.0092593
        k(    5) = (  -0.3333333   0.3333333  -0.3333333), wk =   0.0092593
        k(    6) = (  -0.4166667   0.4166667  -0.4166667), wk =   0.0092593
        k(    7) = (   0.5000000  -0.5000000   0.5000000), wk =   0.0046296
        k(    8) = (   0.0000000   0.1666667   0.0000000), wk =   0.0069444
        k(    9) = (  -0.0833333   0.2500000  -0.0833333), wk =   0.0277778
        k(   10) = (  -0.1666667   0.3333333  -0.1666667), wk =   0.0277778
        k(   11) = (  -0.2500000   0.4166667  -0.2500000), wk =   0.0277778
        k(   12) = (  -0.3333333   0.5000000  -0.3333333), wk =   0.0277778
        k(   13) = (   0.5833333  -0.4166667   0.5833333), wk =   0.0277778
        k(   14) = (   0.5000000  -0.3333333   0.5000000), wk =   0.0277778
        k(   15) = (   0.4166667  -0.2500000   0.4166667), wk =   0.0277778
        k(   16) = (   0.3333333  -0.1666667   0.3333333), wk =   0.0277778
        k(   17) = (   0.2500000  -0.0833333   0.2500000), wk =   0.0277778
        k(   18) = (   0.1666667  -0.0000000   0.1666667), wk =   0.0138889
        k(   19) = (   0.0000000   0.3333333   0.0000000), wk =   0.0069444
        k(   20) = (  -0.0833333   0.4166667  -0.0833333), wk =   0.0277778
        k(   21) = (  -0.1666667   0.5000000  -0.1666667), wk =   0.0277778
        k(   22) = (  -0.2500000   0.5833333  -0.2500000), wk =   0.0277778
        k(   23) = (   0.6666667  -0.3333333   0.6666667), wk =   0.0277778
        k(   24) = (   0.5833333  -0.2500000   0.5833333), wk =   0.0277778
        k(   25) = (   0.5000000  -0.1666667   0.5000000), wk =   0.0277778
        k(   26) = (   0.4166667  -0.0833333   0.4166667), wk =   0.0277778
        k(   27) = (   0.3333333   0.0000000   0.3333333), wk =   0.0138889
        k(   28) = (   0.0000000   0.5000000   0.0000000), wk =   0.0069444
        k(   29) = (  -0.0833333   0.5833333  -0.0833333), wk =   0.0277778
        k(   30) = (  -0.1666667   0.6666667  -0.1666667), wk =   0.0277778
        k(   31) = (   0.7500000  -0.2500000   0.7500000), wk =   0.0277778
        k(   32) = (   0.6666667  -0.1666667   0.6666667), wk =   0.0277778
        k(   33) = (   0.5833333  -0.0833333   0.5833333), wk =   0.0277778
        k(   34) = (   0.5000000   0.0000000   0.5000000), wk =   0.0138889
        k(   35) = (   0.0000000   0.6666667   0.0000000), wk =   0.0069444
        k(   36) = (  -0.0833333   0.7500000  -0.0833333), wk =   0.0277778
        k(   37) = (   0.8333333  -0.1666667   0.8333333), wk =   0.0277778
        k(   38) = (   0.7500000  -0.0833333   0.7500000), wk =   0.0277778
        k(   39) = (   0.6666667  -0.0000000   0.6666667), wk =   0.0138889
        k(   40) = (   0.0000000   0.8333333   0.0000000), wk =   0.0069444
        k(   41) = (   0.9166667  -0.0833333   0.9166667), wk =   0.0277778
        k(   42) = (   0.8333333   0.0000000   0.8333333), wk =   0.0138889
        k(   43) = (   0.0000000  -1.0000000   0.0000000), wk =   0.0034722
        k(   44) = (  -0.1666667   0.3333333   0.0000000), wk =   0.0277778
        k(   45) = (  -0.2500000   0.4166667  -0.0833333), wk =   0.0555556
        k(   46) = (  -0.3333333   0.5000000  -0.1666667), wk =   0.0555556
        k(   47) = (   0.5833333  -0.4166667   0.7500000), wk =   0.0555556
        k(   48) = (   0.5000000  -0.3333333   0.6666667), wk =   0.0277778
        k(   49) = (  -0.1666667   0.5000000   0.0000000), wk =   0.0277778
        k(   50) = (  -0.2500000   0.5833333  -0.0833333), wk =   0.0555556
        k(   51) = (   0.6666667  -0.3333333   0.8333333), wk =   0.0555556
        k(   52) = (   0.5833333  -0.2500000   0.7500000), wk =   0.0555556
        k(   53) = (   0.5000000  -0.1666667   0.6666667), wk =   0.0555556
        k(   54) = (   0.4166667  -0.0833333   0.5833333), wk =   0.0555556
        k(   55) = (   0.3333333   0.0000000   0.5000000), wk =   0.0277778
        k(   56) = (  -0.1666667   0.6666667  -0.0000000), wk =   0.0277778
        k(   57) = (   0.7500000  -0.2500000   0.9166667), wk =   0.0555556
        k(   58) = (   0.6666667  -0.1666667   0.8333333), wk =   0.0555556
        k(   59) = (   0.5833333  -0.0833333   0.7500000), wk =   0.0555556
        k(   60) = (   0.5000000   0.0000000   0.6666667), wk =   0.0277778
        k(   61) = (   0.8333333  -0.1666667   1.0000000), wk =   0.0277778
        k(   62) = (   0.7500000  -0.0833333   0.9166667), wk =   0.0555556
        k(   63) = (   0.6666667   0.0000000   0.8333333), wk =   0.0277778
        k(   64) = (  -0.1666667  -1.0000000  -0.0000000), wk =   0.0138889
        k(   65) = (   0.6666667  -0.3333333   1.0000000), wk =   0.0277778
        k(   66) = (   0.5833333  -0.2500000   0.9166667), wk =   0.0555556
        k(   67) = (   0.5000000  -0.1666667   0.8333333), wk =   0.0277778
        k(   68) = (   0.6666667  -0.1666667   1.0000000), wk =   0.0277778
        k(   69) = (   0.5833333  -0.0833333   0.9166667), wk =   0.0555556
        k(   70) = (   0.5000000   0.0000000   0.8333333), wk =   0.0277778
        k(   71) = (  -0.3333333  -1.0000000   0.0000000), wk =   0.0138889
        k(   72) = (  -0.5000000  -1.0000000   0.0000000), wk =   0.0069444

     Dense  grid:    29603 G-vectors     FFT dimensions: (  45,  45,  45)

     Estimated max dynamical RAM per process >       5.45 MB

     Estimated total dynamical RAM >     123.46 MB

     Initial potential from superposition of free atoms

     starting charge      25.9563, renormalised to      26.0000
     Starting wfcs are random

     total cpu time spent up to now is        0.6 secs

     Self-consistent Calculation

     iteration #  1     ecut=    83.00 Ry     beta= 0.70
     Davidson diagonalization with overlap
     ethr =  1.00E-02,  avg # of iterations =  8.4

     Threshold (ethr) on eigenvalues was too large:
     Diagonalizing with lowered threshold

     Davidson diagonalization with overlap
     ethr =  3.79E-04,  avg # of iterations =  2.2

     total cpu time spent up to now is        3.5 secs

     total energy              =    -317.85767783 Ry
     estimated scf accuracy    <       0.10823899 Ry

     iteration #  2     ecut=    83.00 Ry     beta= 0.70
     Davidson diagonalization with overlap
     ethr =  4.16E-04,  avg # of iterations =  2.0

     total cpu time spent up to now is        4.2 secs

     total energy              =    -317.88125220 Ry
     estimated scf accuracy    <       0.04842116 Ry

     iteration #  3     ecut=    83.00 Ry     beta= 0.70
     Davidson diagonalization with overlap
     ethr =  1.86E-04,  avg # of iterations =  2.0

     total cpu time spent up to now is        5.0 secs

     total energy              =    -317.89413615 Ry
     estimated scf accuracy    <       0.00188655 Ry

     iteration #  4     ecut=    83.00 Ry     beta= 0.70
     Davidson diagonalization with overlap
     ethr =  7.26E-06,  avg # of iterations =  4.0

     total cpu time spent up to now is        5.9 secs

     total energy              =    -317.89456122 Ry
     estimated scf accuracy    <       0.00013770 Ry

     iteration #  5     ecut=    83.00 Ry     beta= 0.70
     Davidson diagonalization with overlap
     ethr =  5.30E-07,  avg # of iterations =  2.1

     total cpu time spent up to now is        6.7 secs

     total energy              =    -317.89458448 Ry
     estimated scf accuracy    <       0.00000168 Ry

     iteration #  6     ecut=    83.00 Ry     beta= 0.70
     Davidson diagonalization with overlap
     ethr =  6.45E-09,  avg # of iterations =  2.2

     total cpu time spent up to now is        7.6 secs

     total energy              =    -317.89458507 Ry
     estimated scf accuracy    <       0.00000011 Ry

     iteration #  7     ecut=    83.00 Ry     beta= 0.70
     Davidson diagonalization with overlap
     ethr =  4.42E-10,  avg # of iterations =  2.0

     total cpu time spent up to now is        8.4 secs

     total energy              =    -317.89458509 Ry
     estimated scf accuracy    <       0.00000003 Ry

     iteration #  8     ecut=    83.00 Ry     beta= 0.70
     Davidson diagonalization with overlap
     ethr =  1.06E-10,  avg # of iterations =  1.3

     total cpu time spent up to now is        9.1 secs

     total energy              =    -317.89458510 Ry
     estimated scf accuracy    <          1.8E-10 Ry

     iteration #  9     ecut=    83.00 Ry     beta= 0.70
     Davidson diagonalization with overlap
     ethr =  6.89E-13,  avg # of iterations =  3.5

     total cpu time spent up to now is       10.0 secs

     End of self-consistent calculation

          k = 0.0000 0.0000 0.0000 (  3695 PWs)   bands (ev):

   -81.5876 -45.0787 -45.0787 -45.0787  -6.8241   5.8213   5.8213   5.8213
     5.8675   5.8675   5.9884   5.9884   5.9884   9.2376  19.2505  19.2505
    19.2505  20.7528  21.6675  21.6675  21.6675  22.2166  22.2166  28.0825
    33.4746  33.4746

          k =-0.0833 0.0833-0.0833 (  3695 PWs)   bands (ev):

   -81.5876 -45.0789 -45.0787 -45.0787  -6.7967   5.4244   5.4244   5.4624
     5.8482   5.8482   6.0774   6.4588   6.4588   9.5836  18.4615  19.1446
    19.1446  20.7299  20.7299  21.1166  22.0610  23.4920  23.4920  28.5267
    32.4113  32.8639

          k =-0.1667 0.1667-0.1667 (  3680 PWs)   bands (ev):

   -81.5875 -45.0794 -45.0788 -45.0788  -6.7204   4.8068   4.9864   4.9864
     5.9107   5.9107   6.1630   6.9865   6.9865  10.3707  17.2670  18.5215
    18.5215  20.3837  20.3837  21.0295  23.4510  25.1537  25.1537  28.9731
    31.3730  31.3730

          k =-0.2500 0.2500-0.2500 (  3675 PWs)   bands (ev):

   -81.5875 -45.0801 -45.0789 -45.0789  -6.6125   4.1291   4.6247   4.6247
     5.9981   5.9981   6.2631   7.4787   7.4787  11.2621  16.1838  17.5956
    17.5956  20.6985  20.6985  20.9549  25.1842  26.8925  26.8925  27.6869
    29.6516  29.6516

          k =-0.3333 0.3333-0.3333 (  3675 PWs)   bands (ev):

   -81.5875 -45.0808 -45.0790 -45.0790  -6.4998   3.5669   4.3557   4.3557
     6.0879   6.0879   6.3726   7.8900   7.8900  12.0240  15.3793  16.7953
    16.7953  21.1022  21.2709  21.2709  25.7980  27.3435  27.9499  27.9499
    28.7015  28.7015

          k =-0.4167 0.4167-0.4167 (  3681 PWs)   bands (ev):

   -81.5875 -45.0813 -45.0791 -45.0791  -6.4139   3.1984   4.1902   4.1902
     6.1552   6.1552   6.4628   8.1693   8.1693  12.4731  14.9593  16.2650
    16.2650  21.5178  21.8938  21.8938  24.3452  26.7353  26.7353  29.4143
    30.1145  30.1145

          k = 0.5000-0.5000 0.5000 (  3708 PWs)   bands (ev):

   -81.5875 -45.0815 -45.0791 -45.0791  -6.3817   3.0701   4.1343   4.1343
     6.1802   6.1802   6.4983   8.2693   8.2693  12.5961  14.8579  16.0788
    16.0788  21.8972  22.2074  22.2074  23.5794  26.2072  26.2072  30.7588
    30.7588  30.8319

          k = 0.0000 0.1667 0.0000 (  3691 PWs)   bands (ev):

   -81.5876 -45.0789 -45.0788 -45.0788  -6.7880   5.0692   5.6050   5.6050
     5.7997   5.8797   6.2059   6.2059   6.5577   9.7135  18.6223  18.9634
    18.9634  19.4897  21.6569  22.2359  22.2359  22.2858  24.0079  28.7564
    32.5132  32.5325

          k =-0.0833 0.2500-0.0833 (  3679 PWs)   bands (ev):

   -81.5875 -45.0792 -45.0788 -45.0788  -6.7294   4.6285   5.2585   5.2711
     5.8295   5.9278   6.2373   6.5546   6.9637  10.3609  17.6376  18.2330
    18.6265  19.3142  21.5318  21.8542  23.2322  23.8947  25.1763  29.3905
    31.3415  31.3433

          k =-0.1667 0.3333-0.1667 (  3671 PWs)   bands (ev):

   -81.5875 -45.0799 -45.0790 -45.0789  -6.6338   4.1695   4.7748   4.8727
     5.9024   6.0158   6.2816   7.0173   7.4471  11.1981  16.4283  17.3906
    18.0016  19.7580  21.4359  21.6796  24.7607  25.5755  26.6262  28.4073
    29.7272  30.8232

          k =-0.2500 0.4167-0.2500 (  3680 PWs)   bands (ev):

   -81.5875 -45.0806 -45.0791 -45.0790  -6.5245   3.7088   4.4120   4.5426
     5.9957   6.1044   6.3613   7.4680   7.8401  11.9943  15.4180  16.7690
    17.2731  20.3200  21.6940  21.7754  26.0098  26.6754  26.9124  28.5313
    28.9068  29.3574

          k =-0.3333 0.5000-0.3333 (  3676 PWs)   bands (ev):

   -81.5875 -45.0811 -45.0792 -45.0791  -6.4308   3.3389   4.2073   4.3066
     6.0887   6.1676   6.4396   7.8588   8.0704  12.5763  14.7344  16.4116
    16.6594  20.9442  22.0607  22.2148  24.5695  26.4505  27.7000  28.8351
    29.4135  30.3723

          k = 0.5833-0.4167 0.5833 (  3684 PWs)   bands (ev):

   -81.5875 -45.0814 -45.0792 -45.0792  -6.3810   3.1505   4.1399   4.1750
     6.1544   6.1867   6.4836   8.0994   8.1380  12.8466  14.4400  16.2898
    16.2980  21.5949  22.2760  22.6255  23.4603  26.1154  26.6858  30.5870
    30.6581  30.8725

          k = 0.5000-0.3333 0.5000 (  3675 PWs)   bands (ev):

   -81.5875 -45.0814 -45.0793 -45.0791  -6.3911   3.1850   4.1517   4.1998
     6.1566   6.1707   6.4745   7.9342   8.2504  12.8096  14.5270  16.2444
    16.3557  21.7250  21.8465  22.5904  23.7376  26.3827  26.7647  29.6504
    30.7621  30.8327

          k = 0.4167-0.2500 0.4167 (  3678 PWs)   bands (ev):

   -81.5875 -45.0810 -45.0792 -45.0790  -6.4578   3.4380   4.2357   4.3840
     6.0869   6.1340   6.4176   7.6191   8.1628  12.4380  14.9832  16.5585
    16.5944  20.9602  21.5925  22.2510  24.9383  26.9439  27.7250  28.0029
    29.4276  29.9383

          k = 0.3333-0.1667 0.3333 (  3673 PWs)   bands (ev):

   -81.5875 -45.0803 -45.0791 -45.0789  -6.5600   3.8664   4.4211   4.6879
     5.9981   6.0633   6.3379   7.2078   7.8856  11.7470  15.7939  17.0299
    17.2158  20.2672  21.5474  21.6972  25.7274  26.3829  26.8480  28.2527
    29.3576  29.7161

          k = 0.2500-0.0833 0.2500 (  3678 PWs)   bands (ev):

   -81.5875 -45.0797 -45.0790 -45.0788  -6.6679   4.3986   4.6971   5.0838
     5.9146   5.9864   6.2765   6.7499   7.4662  10.8911  16.8712  17.5952
    18.1661  19.7335  21.2447  21.7023  24.1583  24.9213  26.6283  28.3455
    30.6985  31.2767

          k = 0.1667-0.0000 0.1667 (  3691 PWs)   bands (ev):

   -81.5876 -45.0791 -45.0788 -45.0787  -6.7535   4.9568   5.0454   5.4369
     5.8586   5.9162   6.2955   6.3263   6.9660  10.0763  17.9256  18.3156
    19.3513  19.3720  21.0284  21.6034  23.1298  23.4089  24.9908  29.0435
    31.3665  32.0440

          k = 0.0000 0.3333 0.0000 (  3667 PWs)   bands (ev):

   -81.5875 -45.0793 -45.0790 -45.0790  -6.6927   4.3083   5.3816   5.3816
     5.7408   5.9132   6.4185   6.4185   6.8538  10.8165  17.2500  17.7996
    18.6041  18.6041  22.4946  23.2963  23.3918  23.3918  25.2043  30.2182
    30.9798  30.9798

          k =-0.0833 0.4167-0.0833 (  3666 PWs)   bands (ev):

   -81.5875 -45.0798 -45.0791 -45.0791  -6.6189   4.0067   5.0912   5.1274
     5.7747   6.0054   6.3975   6.6343   7.1503  11.4570  16.2398  17.2078
    18.3644  18.9228  22.3074  23.1915  24.6121  24.7793  26.0576  29.0863
    29.8326  30.7069

          k =-0.1667 0.5000-0.1667 (  3664 PWs)   bands (ev):

   -81.5875 -45.0804 -45.0792 -45.0792  -6.5255   3.7467   4.6564   4.7859
     5.8641   6.1174   6.3956   6.9982   7.5081  12.0792  15.3373  16.7304
    17.8882  19.5369  22.3975  22.9659  25.7830  26.0186  26.3389  28.7336
    29.1479  30.0823

          k =-0.2500 0.5833-0.2500 (  3669 PWs)   bands (ev):

   -81.5875 -45.0809 -45.0794 -45.0793  -6.4371   3.5309   4.3174   4.4975
     5.9716   6.1868   6.4269   7.4044   7.7090  12.5996  14.6362  16.5335
    17.3353  20.2337  22.6531  23.0013  24.7885  25.8580  27.8695  29.0757
    29.2994  30.6656

          k = 0.6667-0.3333 0.6667 (  3676 PWs)   bands (ev):

   -81.5875 -45.0812 -45.0795 -45.0793  -6.3788   3.3744   4.1679   4.2961
     6.0756   6.2045   6.4521   7.6972   7.7871  13.0563  14.1302  16.5005
    16.8732  20.9583  22.4739  23.3739  23.7491  25.8331  27.4779  30.2352
    30.4941  31.1491

          k = 0.5833-0.2500 0.5833 (  3674 PWs)   bands (ev):

   -81.5875 -45.0813 -45.0796 -45.0792  -6.3685   3.3242   4.1924   4.2068
     6.1443   6.1735   6.4586   7.5049   8.0800  13.4897  13.7980  16.4323
    16.6125  21.7248  21.7841  23.0346  24.0462  26.6029  26.6060  29.6111
    31.0565  31.7807

          k = 0.5000-0.1667 0.5000 (  3678 PWs)   bands (ev):

   -81.5875 -45.0810 -45.0796 -45.0791  -6.4097   3.4141   4.1879   4.3983
     6.1075   6.1579   6.4533   7.2027   8.2143  13.1726  14.2952  16.3414
    16.6260  20.8821  22.6209  22.8576  24.2789  26.3823  27.7763  27.8376
    30.8979  31.1498

          k = 0.4167-0.0833 0.4167 (  3681 PWs)   bands (ev):

   -81.5875 -45.0806 -45.0795 -45.0790  -6.4893   3.6412   4.2780   4.6894
     6.0276   6.1326   6.4525   6.8557   8.1453  12.4935  15.1689  16.3971
    16.9429  20.1934  22.6060  22.9001  25.1018  25.4226  27.0578  28.7501
    30.1161  30.6130

          k = 0.3333 0.0000 0.3333 (  3665 PWs)   bands (ev):

   -81.5875 -45.0801 -45.0793 -45.0789  -6.5839   3.9809   4.4529   4.9725
     5.9568   6.0779   6.5181   6.5301   7.8785  11.6750  16.2229  16.6724
    17.5198  19.7607  21.9465  22.7415  24.3155  25.9257  26.7317  28.1034
    30.4840  30.8896

          k = 0.0000 0.5000 0.0000 (  3655 PWs)   bands (ev):

   -81.5875 -45.0800 -45.0792 -45.0792  -6.5712   3.8387   5.2465   5.2465
     5.6609   5.9593   6.5055   6.5055   6.9421  11.7479  15.7886  17.1593
    18.5763  18.5763  22.8418  24.4712  24.4712  25.2605  25.9578  29.0233
    29.7534  29.7534

          k =-0.0833 0.5833-0.0833 (  3659 PWs)   bands (ev):

   -81.5875 -45.0804 -45.0794 -45.0794  -6.5027   3.7225   4.9977   5.0526
     5.7133   6.0784   6.4510   6.6140   7.0947  11.9149  15.5100  16.7725
    18.5066  18.9894  22.9718  24.2987  25.0080  26.1682  26.5685  28.6960
    29.0759  29.7052

          k =-0.1667 0.6667-0.1667 (  3671 PWs)   bands (ev):

   -81.5875 -45.0808 -45.0796 -45.0795  -6.4309   3.6748   4.5921   4.7541
     5.8291   6.1978   6.4191   6.9072   7.2494  12.0587  15.2675  16.5427
    18.1657  19.6695  23.1392  23.8857  25.1182  25.5377  27.8795  29.0110
    29.0694  30.7368

          k = 0.7500-0.2500 0.7500 (  3667 PWs)   bands (ev):

   -81.5875 -45.0810 -45.0798 -45.0795  -6.3754   3.6689   4.2703   4.4948
     5.9551   6.2288   6.4173   7.2295   7.3086  12.3490  14.9317  16.5403
    17.7122  20.2711  22.7783  23.6682  25.1454  25.3708  27.8093  29.8311
    30.2521  31.4061

          k = 0.6667-0.1667 0.6667 (  3666 PWs)   bands (ev):

   -81.5875 -45.0810 -45.0801 -45.0794  -6.3522   3.6084   4.2003   4.3122
     6.0703   6.2031   6.4316   7.0598   7.7135  12.8281  14.5689  16.4361
    17.2877  20.8236  21.9035  23.8470  25.2398  26.2567  26.8749  29.5483
    30.5814  32.1023

          k = 0.5833-0.0833 0.5833 (  3680 PWs)   bands (ev):

   -81.5875 -45.0809 -45.0801 -45.0793  -6.3682   3.5213   4.2162   4.3549
     6.1469   6.1470   6.4809   6.8299   8.0359  13.4233  14.1468  16.2046
    16.9814  21.0648  21.6639  24.1442  25.2760  26.0347  27.3393  27.7990
    31.1879  32.1242

          k = 0.5000 0.0000 0.5000 (  3669 PWs)   bands (ev):

   -81.5875 -45.0807 -45.0799 -45.0791  -6.4189   3.5222   4.2067   4.5604
     6.0819   6.1723   6.5809   6.6359   8.1970  13.2836  14.3729  16.1420
    16.8559  20.4703  22.6808  24.1613  24.5530  25.2942  27.3080  28.2748
    31.3755  31.8899

          k = 0.0000 0.6667 0.0000 (  3655 PWs)   bands (ev):

   -81.5875 -45.0807 -45.0795 -45.0795  -6.4620   3.7178   5.2063   5.2063
     5.5816   6.0058   6.4614   6.4614   6.8426  11.5848  15.8565  16.7189
    18.9357  18.9357  23.3074  24.7062  24.7062  26.5849  27.4684  27.9794
    29.5182  29.6180

          k =-0.0833 0.7500-0.0833 (  3667 PWs)   bands (ev):

   -81.5875 -45.0809 -45.0797 -45.0796  -6.4140   3.7688   4.9700   5.0458
     5.6710   6.1515   6.3992   6.4985   6.8273  11.4046  16.0839  16.5171
    18.9818  19.3847  23.5483  24.2241  24.4823  26.5636  27.9679  28.6339
    28.9112  30.3665

          k = 0.8333-0.1667 0.8333 (  3680 PWs)   bands (ev):

   -81.5875 -45.0810 -45.0800 -45.0796  -6.3716   3.8784   4.5555   4.7622
     5.8156   6.2515   6.3749   6.7927   6.8055  11.5552  15.8775  16.5590
    18.6568  19.8077  23.1457  23.8612  24.8005  26.6005  27.6553  29.0928
    30.0038  31.4056

          k = 0.7500-0.0833 0.7500 (  3675 PWs)   bands (ev):

   -81.5874 -45.0809 -45.0803 -45.0796  -6.3462   3.9787   4.2001   4.5085
     5.9543   6.2389   6.4028   6.7157   7.2393  12.0177  15.5115  16.4955
    18.1250  20.0680  22.2719  24.1717  25.6999  26.6551  27.1378  29.4246
    29.6538  31.3347

          k = 0.6667-0.0000 0.6667 (  3685 PWs)   bands (ev):

   -81.5875 -45.0806 -45.0806 -45.0794  -6.3449   3.7502   4.2470   4.3234
     6.0734   6.1957   6.4838   6.6484   7.6833  12.6777  14.9625  16.2648
    17.5252  20.6545  21.5318  24.6339  26.1695  26.6253  26.6805  27.9013
    30.3934  31.8219

          k = 0.0000 0.8333 0.0000 (  3656 PWs)   bands (ev):

   -81.5875 -45.0811 -45.0797 -45.0797  -6.3911   3.8617   5.2308   5.2308
     5.5240   6.0400   6.3545   6.3545   6.5692  10.9853  16.4642  16.6093
    19.5161  19.5161  23.7994  24.0575  24.0575  26.4098  28.2632  28.5535
    29.7924  30.6454

          k = 0.9167-0.0833 0.9167 (  3669 PWs)   bands (ev):

   -81.5874 -45.0812 -45.0799 -45.0798  -6.3685   3.9651   4.9706   5.0671
     5.6574   6.2359   6.3243   6.3531   6.5010  10.9670  16.3289  16.7946
    19.4888  19.7410  23.4856  23.7837  24.2711  26.4039  28.1691  28.9091
    30.4840  31.1220

          k = 0.8333 0.0000 0.8333 (  3678 PWs)   bands (ev):

   -81.5874 -45.0811 -45.0801 -45.0797  -6.3521   4.0544   4.5250   4.7721
     5.8161   6.2713   6.3538   6.5411   6.7395  11.3524  16.0805  16.7084
    18.9382  19.7629  22.8281  23.9824  24.9781  26.5941  28.5680  28.7281
    29.6473  31.0516

          k = 0.0000-1.0000 0.0000 (  3692 PWs)   bands (ev):

   -81.5874 -45.0813 -45.0798 -45.0798  -6.3674   3.9897   5.2538   5.2538
     5.5030   6.0525   6.2974   6.2974   6.3865  10.7464  16.3810  16.9589
    19.8507  19.8507  23.6231  23.6231  24.0463  26.1703  27.7593  29.9576
    30.6323  31.4666

          k =-0.1667 0.3333 0.0000 (  3674 PWs)   bands (ev):

   -81.5875 -45.0796 -45.0790 -45.0789  -6.6625   4.2495   4.9006   5.2157
     5.8550   5.9948   6.4437   6.4524   7.3258  11.0266  16.9525  17.2507
    18.3724  19.2212  21.7222  22.5960  23.9229  24.5529  26.2595  28.7826
    30.8678  31.2648

          k =-0.2500 0.4167-0.0833 (  3673 PWs)   bands (ev):

   -81.5875 -45.0802 -45.0792 -45.0790  -6.5683   3.8889   4.5536   4.9040
     5.9221   6.0791   6.3920   6.8049   7.7308  11.8043  15.8333  16.7752
    17.7128  19.6544  22.0664  22.6365  24.9656  26.0432  26.4848  28.4034
    29.7303  30.5209

          k =-0.3333 0.5000-0.1667 (  3675 PWs)   bands (ev):

   -81.5875 -45.0807 -45.0794 -45.0791  -6.4708   3.5722   4.3042   4.5627
     6.0070   6.1482   6.4186   7.1983   8.0003  12.5170  14.8996  16.5004
    17.0971  20.2852  22.4558  22.6059  25.0380  26.2596  27.2129  28.5778
    29.7514  30.2020

          k = 0.5833-0.4167 0.7500 (  3678 PWs)   bands (ev):

   -81.5875 -45.0812 -45.0795 -45.0792  -6.3971   3.3469   4.1779   4.3116
     6.0941   6.1843   6.4530   7.5517   8.0820  13.0602  14.2246  16.4317
    16.6742  21.0266  22.4424  22.8751  23.9787  26.1624  27.5520  28.8943
    30.6723  31.1299

          k = 0.5000-0.3333 0.6667 (  3684 PWs)   bands (ev):

   -81.5875 -45.0813 -45.0795 -45.0792  -6.3695   3.2646   4.1697   4.1924
     6.1436   6.1828   6.4664   7.7347   8.0486  13.3351  13.9005  16.4466
    16.5203  21.8186  21.8263  23.2426  23.4280  26.3655  26.6882  30.4765
    30.6799  31.4479

          k =-0.1667 0.5000 0.0000 (  3658 PWs)   bands (ev):

   -81.5875 -45.0802 -45.0793 -45.0791  -6.5475   3.8008   4.8170   5.0582
     5.8157   6.0709   6.5232   6.5250   7.3689  11.9353  15.5882  16.7951
    18.2333  19.0990  22.5780  23.9672  24.5447  26.0340  26.1799  28.7237
    29.7044  29.8436

          k =-0.2500 0.5833-0.0833 (  3666 PWs)   bands (ev):

   -81.5875 -45.0806 -45.0795 -45.0793  -6.4663   3.6568   4.5052   4.7871
     5.9027   6.1602   6.4473   6.7766   7.6112  12.3397  15.0714  16.4723
    17.8363  19.6816  22.9327  23.7823  25.0100  25.6422  27.0953  28.7402
    29.9417  30.1437

          k = 0.6667-0.3333 0.8333 (  3670 PWs)   bands (ev):

   -81.5875 -45.0810 -45.0797 -45.0794  -6.3970   3.5703   4.2706   4.4993
     5.9953   6.2061   6.4337   7.0961   7.6925  12.7002  14.6282  16.4337
    17.3875  20.3904  22.8689  23.5075  24.6485  25.6695  27.9712  28.5616
    30.7502  31.4605

          k = 0.5833-0.2500 0.7500 (  3671 PWs)   bands (ev):

   -81.5875 -45.0811 -45.0798 -45.0794  -6.3597   3.5136   4.1919   4.3007
     6.0858   6.1985   6.4341   7.2773   7.7308  13.0873  14.2469  16.4743
    17.0461  21.0504  22.1663  23.4418  24.6078  26.1509  27.1259  30.0430
    30.7518  31.6746

          k = 0.5000-0.1667 0.6667 (  3670 PWs)   bands (ev):

   -81.5875 -45.0811 -45.0799 -45.0793  -6.3656   3.4864   4.2077   4.3056
     6.1196   6.1750   6.4447   7.1139   7.9261  13.4000  14.0278  16.3566
    16.9292  21.1911  21.9288  23.5371  24.7690  26.2365  27.1687  28.7940
    31.2542  31.9579

          k = 0.4167-0.0833 0.5833 (  3674 PWs)   bands (ev):

   -81.5875 -45.0808 -45.0798 -45.0792  -6.4130   3.5302   4.2306   4.5369
     6.0625   6.1759   6.4775   6.8347   8.0525  13.1183  14.4149  16.2319
    17.0356  20.4653  22.7520  23.7315  24.5547  25.7890  27.4292  28.1764
    31.1415  31.5893

          k = 0.3333 0.0000 0.5000 (  3675 PWs)   bands (ev):

   -81.5875 -45.0805 -45.0796 -45.0791  -6.4876   3.6666   4.3510   4.7824
     5.9906   6.1449   6.5654   6.5843   7.9868  12.5007  15.1065  16.3480
    17.3243  19.9068  22.7520  23.7336  24.7272  25.2369  26.9678  28.8481
    30.2672  30.5918

          k =-0.1667 0.6667-0.0000 (  3654 PWs)   bands (ev):

   -81.5875 -45.0807 -45.0796 -45.0795  -6.4455   3.7037   4.7910   4.9778
     5.7845   6.1404   6.4729   6.5146   7.1559  11.8406  15.6118  16.5070
    18.5247  19.3429  23.2976  24.4806  24.5955  26.1811  27.4574  28.3369
    29.5235  30.0753

          k = 0.7500-0.2500 0.9167 (  3669 PWs)   bands (ev):

   -81.5875 -45.0809 -45.0799 -45.0796  -6.3909   3.7552   4.4928   4.7359
     5.8972   6.2188   6.4095   6.6675   7.2229  11.9426  15.5654  16.3824
    18.1675  19.9781  23.1952  23.9564  24.7526  26.1837  27.8637  28.4575
    30.1283  31.3831

          k = 0.6667-0.1667 0.8333 (  3673 PWs)   bands (ev):

   -81.5875 -45.0809 -45.0801 -45.0796  -6.3539   3.8303   4.2457   4.4871
     5.9962   6.2305   6.3965   6.8392   7.2975  12.2878  15.2691  16.4516
    17.6738  20.4801  22.5054  23.7459  25.5140  26.1381  27.3956  29.6624
    30.5586  30.9857

          k = 0.5833-0.0833 0.7500 (  3675 PWs)   bands (ev):

   -81.5875 -45.0808 -45.0803 -45.0795  -6.3449   3.7480   4.2522   4.3151
     6.0907   6.1953   6.4336   6.7536   7.5913  12.7816  14.8854  16.3115
    17.3308  20.9469  21.6528  24.1865  25.9683  26.2401  27.0151  28.6625
    30.6510  31.9176

          k = 0.5000 0.0000 0.6667 (  3675 PWs)   bands (ev):

   -81.5875 -45.0808 -45.0802 -45.0793  -6.3667   3.5977   4.2303   4.4152
     6.1344   6.1593   6.5221   6.6383   7.8944  13.2392  14.4236  16.1411
    17.1449  20.9094  21.7851  24.5865  25.2301  26.0215  27.4850  27.5609
    31.3523  31.9987

          k = 0.8333-0.1667 1.0000 (  3676 PWs)   bands (ev):

   -81.5875 -45.0811 -45.0798 -45.0797  -6.3803   3.8757   4.7999   4.9535
     5.7830   6.2039   6.3599   6.4192   6.7864  11.2930  16.3403  16.4044
    18.8593  19.8629  23.4891  24.0481  24.2469  26.6906  28.0637  28.9276
    29.1638  31.5096

          k = 0.7500-0.0833 0.9167 (  3676 PWs)   bands (ev):

   -81.5874 -45.0810 -45.0801 -45.0797  -6.3534   4.0145   4.4682   4.7254
     5.9108   6.2656   6.3457   6.4769   6.8819  11.5664  16.0813  16.5614
    18.2451  20.3092  22.9232  23.8073  24.8277  26.8742  28.1508  29.1278
    29.9625  30.4879

          k = 0.6667 0.0000 0.8333 (  3674 PWs)   bands (ev):

   -81.5874 -45.0808 -45.0804 -45.0796  -6.3405   4.0921   4.1558   4.4902
     6.0028   6.2447   6.4003   6.5610   7.1892  12.1135  15.6732  16.4409
    17.7057  20.5193  22.1904  24.1518  25.4123  26.9763  27.8130  28.8272
    29.8165  31.1052

          k =-0.1667-1.0000-0.0000 (  3670 PWs)   bands (ev):

   -81.5874 -45.0812 -45.0799 -45.0798  -6.3587   4.0227   4.8046   4.9510
     5.7932   6.2593   6.2974   6.3115   6.5911  11.0750  16.2846  16.8251
    18.9419  20.1885  23.3497  23.6154  24.4395  26.5154  28.3181  29.4558
    30.1855  30.2732

          k = 0.6667-0.3333 1.0000 (  3663 PWs)   bands (ev):

   -81.5875 -45.0808 -45.0799 -45.0794  -6.4061   3.6460   4.3439   4.6658
     6.0112   6.1877   6.5039   6.5869   7.6758  12.5707  14.9851  16.2188
    17.6277  20.1518  22.9512  24.4387  24.4758  25.8192  27.4342  28.1493
    31.2039  31.3125

          k = 0.5833-0.2500 0.9167 (  3671 PWs)   bands (ev):

   -81.5875 -45.0809 -45.0801 -45.0795  -6.3614   3.7012   4.2509   4.4551
     6.0846   6.1947   6.4294   6.7368   7.5790  12.7904  14.8754  16.2449
    17.3306  20.8047  22.2316  24.0050  25.3153  26.0468  27.5800  28.3597
    31.5612  31.6594

          k = 0.5000-0.1667 0.8333 (  3670 PWs)   bands (ev):

   -81.5875 -45.0809 -45.0802 -45.0795  -6.3449   3.7459   4.2592   4.3051
     6.1134   6.1876   6.4037   6.8597   7.4807  12.8936  14.7991  16.3698
    17.1445  21.1636  21.9430  23.6454  25.9220  25.9663  27.1956  29.6845
    30.5619  31.4348

          k = 0.6667-0.1667 1.0000 (  3690 PWs)   bands (ev):

   -81.5875 -45.0809 -45.0801 -45.0797  -6.3569   3.8948   4.3454   4.6114
     6.0546   6.2169   6.3794   6.4977   7.1876  12.1121  15.8339  16.1792
    17.6703  20.6446  22.6635  24.0497  24.7647  26.8993  27.8390  28.5796
    30.4079  31.3243

          k = 0.5833-0.0833 0.9167 (  3678 PWs)   bands (ev):

   -81.5874 -45.0808 -45.0804 -45.0797  -6.3382   4.0135   4.2420   4.4279
     6.1175   6.2357   6.3570   6.5149   7.1743  12.4449  15.6997  16.3106
    17.0760  21.2100  22.2065  23.7638  25.1158  27.1781  27.9394  29.3753
    30.2310  30.7327

          k = 0.5000 0.0000 0.8333 (  3676 PWs)   bands (ev):

   -81.5874 -45.0807 -45.0805 -45.0796  -6.3399   3.8918   4.2957   4.3398
     6.1500   6.1939   6.4072   6.5451   7.3454  12.7221  15.3192  16.2118
    17.1097  21.4815  21.6193  24.1074  25.2187  27.0151  27.8028  28.4314
    31.1978  31.3164

          k =-0.3333-1.0000 0.0000 (  3680 PWs)   bands (ev):

   -81.5874 -45.0809 -45.0802 -45.0798  -6.3413   4.1279   4.2925   4.5970
     6.0973   6.2968   6.2976   6.3260   6.9687  11.9293  16.1701  16.5188
    17.3035  20.9889  22.7282  23.5996  24.7658  27.2847  29.1844  29.3617
    29.4531  29.7621

          k =-0.5000-1.0000 0.0000 (  3676 PWs)   bands (ev):

   -81.5874 -45.0806 -45.0806 -45.0798  -6.3325   4.0999   4.3176   4.3176
     6.2741   6.2741   6.2977   6.3023   7.0993  12.5487  16.2465  16.2465
    16.3900  21.9109  21.9109  23.5918  24.8350  27.5801  29.1504  29.1504
    29.3742  31.2468

     the Fermi energy is     8.3399 ev

!    total energy              =    -317.89458510 Ry
     estimated scf accuracy    <          1.7E-11 Ry
     smearing contrib. (-TS)   =      -0.00000000 Ry
     internal energy E=F+TS    =    -317.89458510 Ry

     The total energy is F=E-TS. E is the sum of the following terms:
     one-electron contribution =    -172.60680680 Ry
     hartree contribution      =      94.78892540 Ry
     xc contribution           =     -33.03098985 Ry
     ewald contribution        =    -207.04571385 Ry

     convergence has been achieved in   9 iterations

     Writing all to output data dir out/mp-22922.save/
 
     init_run     :      0.44s CPU      0.52s WALL (       1 calls)
     electrons    :      8.62s CPU      9.48s WALL (       1 calls)

     Called by init_run:
     wfcinit      :      0.41s CPU      0.46s WALL (       1 calls)
     potinit      :      0.01s CPU      0.01s WALL (       1 calls)
     hinit0       :      0.01s CPU      0.03s WALL (       1 calls)

     Called by electrons:
     c_bands      :      7.43s CPU      8.06s WALL (      10 calls)
     sum_band     :      1.14s CPU      1.32s WALL (      10 calls)
     v_of_rho     :      0.04s CPU      0.04s WALL (      10 calls)
     mix_rho      :      0.01s CPU      0.01s WALL (      10 calls)

     Called by c_bands:
     init_us_2    :      0.07s CPU      0.07s WALL (     756 calls)
     init_us_2:cp :      0.06s CPU      0.07s WALL (     756 calls)
     cegterg      :      6.77s CPU      7.02s WALL (     360 calls)

     Called by *egterg:
     cdiaghg      :      1.02s CPU      1.06s WALL (    1384 calls)
     h_psi        :      5.50s CPU      5.73s WALL (    1456 calls)
     g_psi        :      0.03s CPU      0.03s WALL (    1060 calls)

     Called by h_psi:
     h_psi:calbec :      0.11s CPU      0.12s WALL (    1456 calls)
     vloc_psi     :      5.30s CPU      5.52s WALL (    1456 calls)
     add_vuspsi   :      0.07s CPU      0.08s WALL (    1456 calls)

     General routines
     calbec       :      0.11s CPU      0.11s WALL (    1456 calls)
     fft          :      0.02s CPU      0.04s WALL (     100 calls)
     ffts         :      0.00s CPU      0.00s WALL (      10 calls)
     fftw         :      5.79s CPU      6.04s WALL (   61488 calls)
     davcio       :      0.09s CPU      0.49s WALL (    1238 calls)
 
     Parallel routines
 
     PWSCF        :      9.19s CPU     10.82s WALL

 
   This run was terminated on:   8:29: 3  24Nov2023            

=------------------------------------------------------------------------------=
   JOB DONE.
=------------------------------------------------------------------------------=
