
     Program PWSCF v.7.1 starts on 23Nov2023 at 14:43:25 

     This program is part of the open-source Quantum ESPRESSO suite
     for quantum simulation of materials; please cite
         "P. Giannozzi et al., J. Phys.:Condens. Matter 21 395502 (2009);
         "P. Giannozzi et al., J. Phys.:Condens. Matter 29 465901 (2017);
         "P. Giannozzi et al., J. Chem. Phys. 152 154105 (2020);
          URL http://www.quantum-espresso.org", 
     in publications or presentations arising from this work. More details at
     http://www.quantum-espresso.org/quote

     Parallel version (MPI), running on     8 processors

     MPI processes distributed on     1 nodes
     123622 MiB available memory on the printing compute node when the environment starts
 
     Reading input from pw_mp-22922_nscf_k60_E83.in
Warning: card &IONS ignored
Warning: card / ignored
Warning: card &CELL ignored
Warning: card / ignored

     Current dimensions of program PWSCF are:
     Max number of different atomic species (ntypx) = 10
     Max number of k-points (npk) =  40000
     Max angular momentum in pseudopotentials (lmaxx) =  4

     Atomic positions and unit cell read from directory:
     out/mp-22922.save/
     Atomic positions from file used, from input discarded
 
 
     R & G space division:  proc/nbgrp/npool/nimage =       8
     Subspace diagonalization in iterative solution of the eigenvalue problem:
     one sub-group per band group will be used
     scalapack distributed-memory algorithm (size of sub-group:  2*  2 procs)

 
     Parallelization info
     --------------------
     sticks:   dense  smooth     PW     G-vecs:    dense   smooth      PW
     Min         157     157     45                 3698     3698     570
     Max         158     158     46                 3702     3702     573
     Sum        1261    1261    361                29603    29603    4573
 
     Using Slab Decomposition
 


     bravais-lattice index     =            2
     lattice parameter (alat)  =      10.4791  a.u.
     unit-cell volume          =     287.6854 (a.u.)^3
     number of atoms/cell      =            2
     number of atomic types    =            2
     number of electrons       =        26.00
     number of Kohn-Sham states=         1200
     kinetic-energy cutoff     =      83.0000  Ry
     charge density cutoff     =     332.0000  Ry
     Exchange-correlation= PBE
                           (   1   4   3   4   0   0   0)

     celldm(1)=  10.479147  celldm(2)=   0.000000  celldm(3)=   0.000000
     celldm(4)=   0.000000  celldm(5)=   0.000000  celldm(6)=   0.000000

     crystal axes: (cart. coord. in units of alat)
               a(1) = (  -0.500000   0.000000   0.500000 )  
               a(2) = (   0.000000   0.500000   0.500000 )  
               a(3) = (  -0.500000   0.500000   0.000000 )  

     reciprocal axes: (cart. coord. in units 2 pi/alat)
               b(1) = ( -1.000000 -1.000000  1.000000 )  
               b(2) = (  1.000000  1.000000  1.000000 )  
               b(3) = ( -1.000000  1.000000 -1.000000 )  


     PseudoPot. # 1 for Ag read from file:
     /usr/scratch4/magr4985/MG/HTDF/pseudo/SG15/Ag.upf
     MD5 check sum: 2fe2fe769560ddf16f28d1c82859634b
     Pseudo is Norm-conserving, Zval = 19.0
     Generated using ONCVPSP code by D. R. Hamann
     Using radial grid of  602 points,  6 beta functions with: 
                l(1) =   0
                l(2) =   0
                l(3) =   1
                l(4) =   1
                l(5) =   2
                l(6) =   2

     PseudoPot. # 2 for Cl read from file:
     /usr/scratch4/magr4985/MG/HTDF/pseudo/SG15/Cl.upf
     MD5 check sum: 0f993535b366f580ecbcdacce103c843
     Pseudo is Norm-conserving, Zval =  7.0
     Generated using ONCVPSP code by D. R. Hamann
     Using radial grid of  602 points,  4 beta functions with: 
                l(1) =   0
                l(2) =   0
                l(3) =   1
                l(4) =   1

     atomic species   valence    mass     pseudopotential
        Ag            19.00   107.86820     Ag( 1.00)
        Cl             7.00    35.45300     Cl( 1.00)

     48 Sym. Ops., with inversion, found



   Cartesian axes

     site n.     atom                  positions (alat units)
         1           Ag  tau(   1) = (   0.0000000   0.0000000   0.0000000  )
         2           Cl  tau(   2) = (  -0.5000000   0.5000000   0.5000000  )

     number of k points=     8  Gaussian smearing, width (Ry)=  0.0005
                       cart. coord. in units 2pi/alat
        k(    1) = (   0.0000000   0.0000000   0.0000000), wk =   0.0312500
        k(    2) = (  -0.2500000   0.2500000  -0.2500000), wk =   0.2500000
        k(    3) = (   0.5000000  -0.5000000   0.5000000), wk =   0.1250000
        k(    4) = (   0.0000000   0.5000000   0.0000000), wk =   0.1875000
        k(    5) = (   0.7500000  -0.2500000   0.7500000), wk =   0.7500000
        k(    6) = (   0.5000000   0.0000000   0.5000000), wk =   0.3750000
        k(    7) = (   0.0000000  -1.0000000   0.0000000), wk =   0.0937500
        k(    8) = (  -0.5000000  -1.0000000   0.0000000), wk =   0.1875000

     Dense  grid:    29603 G-vectors     FFT dimensions: (  45,  45,  45)

     Estimated max dynamical RAM per process >     180.19 MB

     Estimated total dynamical RAM >       1.41 GB

     The potential is recalculated from file :
     out/mp-22922.save/charge-density

     Starting wfcs are random

     Band Structure Calculation
     Davidson diagonalization with overlap

     ethr =  5.00E-06,  avg # of iterations = 10.2

     total cpu time spent up to now is     1112.1 secs

     End of band structure calculation

          k = 0.0000 0.0000 0.0000 (  3695 PWs)   bands (ev):

   -81.5876 -45.0787 -45.0787 -45.0787  -6.8240   5.8212   5.8212   5.8212
     5.8674   5.8674   5.9884   5.9884   5.9884   9.2376  19.2505  19.2505
    19.2505  20.7528  21.6675  21.6675  21.6675  22.2166  22.2166  28.0825
    33.4746  33.4746  33.4746  35.2766  35.2766  35.2766  37.2879  37.2879
    38.8955  38.8955  38.8955  44.1447  49.8957  49.8957  49.8957  50.2570
    50.2570  51.6237  51.6237  51.6237  51.9323  51.9323  51.9323  52.5473
    53.8556  53.8556  53.8556  55.0973  55.0973  55.0973  55.7754  58.4622
    58.4622  58.4622  59.2974  59.2974  60.2991  62.0010  62.0010  62.0010
    65.4262  65.4262  65.4262  72.9160  74.1615  74.1615  74.1615  75.2521
    75.2521  77.2622  77.2622  77.2622  80.8311  82.0004  82.0004  82.0004
    85.9734  86.2827  87.4657  87.4657  87.6791  87.6791  87.6791  88.0685
    88.0685  88.0685  92.3540  92.3540  92.3540  92.7433  92.7433  92.7433
    94.6709  94.6709  94.6709  94.8835  94.8835  94.8835  95.4609  95.4609
    96.4876  96.4876  96.5091  96.5091  96.5091  98.1653  98.1653  99.2562
    99.2562  99.2562 100.4112 102.7862 102.8361 102.8361 102.8361 103.4727
   104.3799 104.3799 104.3799 110.5589 110.5589 110.5589 113.6490 113.6490
   113.6490 114.7087 115.0657 115.0657 116.4511 116.4511 116.4511 116.5875
   116.5875 116.5875 116.6650 116.6650 116.9285 116.9285 116.9285 117.2535
   117.2535 117.2535 121.0016 121.0016 121.0016 124.4138 125.8094 126.5177
   126.5177 126.5177 128.1312 128.1312 128.1312 130.3425 130.3425 130.3425
   131.0653 131.0653 131.0653 133.8694 133.8694 134.0900 134.0900 134.0900
   136.2081 136.2081 136.2081 136.3402 136.3402 136.5199 136.5199 136.5199
   136.7019 137.7774 144.8279 144.8279 144.8279 147.0529 147.0529 147.0529
   149.1667 149.1667 152.1516 152.1516 152.9575 152.9575 152.9575 153.0103
   153.0103 153.0103 153.4406 158.8572 159.0737 159.0737 159.0737 160.3974
   160.3974 160.3974 162.6361 162.6361 162.6361 162.6550 163.0964 163.0964
   163.0964 164.1470 164.1470 164.8551 166.6931 166.6931 166.6931 166.7951
   166.7951 166.7951 167.4590 167.4590 167.4590 167.9809 168.5292 170.0767
   170.0767 171.9706 171.9706 171.9706 172.5011 172.5011 172.5011 173.6473
   173.6473 173.6473 174.0715 174.0715 174.0715 174.2433 174.2433 174.2433
   174.4936 174.4936 174.4936 174.5400 174.5400 174.8599 174.8599 174.8599
   175.0337 175.0337 175.1027 175.1027 175.1027 175.2658 175.2658 175.4062
   175.4062 175.4062 175.7694 180.6975 180.6975 180.6975 184.4948 184.4948
   185.2961 185.2961 185.2961 186.0852 186.1022 186.1022 186.1022 186.2907
   186.2907 186.2907 186.4671 186.4671 186.4671 192.1456 192.1456 192.1456
   195.0046 195.0046 195.0046 195.5563 195.5563 195.7773 195.7773 195.7773
   195.8671 195.9933 196.7018 198.9638 198.9638 203.0675 203.0675 203.0675
   207.1505 207.1505 207.1505 207.6415 207.6415 207.6415 207.8425 207.8425
   207.8425 208.3514 208.3514 208.3514 208.5186 208.5186 208.5829 208.9456
   209.9314 209.9314 209.9314 211.0377 211.0377 211.3995 211.3995 211.3995
   211.5576 211.5576 211.6978 211.6978 211.6978 211.9773 211.9773 211.9773
   212.1531 212.1531 212.1531 213.4770 213.4770 215.9700 217.6778 217.6778
   217.6778 223.4846 223.4846 223.4846 226.2385 226.2385 226.2385 226.8189
   226.9239 226.9239 226.9239 227.3227 230.2901 230.2901 230.2901 230.7390
   230.7390 231.6432 231.6432 231.6432 234.7544 236.5467 236.5467 236.5467
   236.7027 236.7027 237.3292 237.3292 237.3292 238.2059 243.4796 243.4796
   243.4796 244.6797 244.6797 244.6797 245.0336 245.0336 245.0336 245.6580
   245.6580 245.6580 246.1117 246.1117 246.1117 247.5343 248.5632 248.5632
   248.5632 248.6840 248.6840 249.0490 249.0490 249.0490 250.1087 250.1087
   250.1087 250.1637 250.1637 250.3157 250.3157 250.3157 250.4898 250.4898
   250.4898 251.0418 251.0418 251.0418 251.5097 253.6359 253.6359 253.6917
   253.6917 253.6917 253.7455 257.9634 257.9634 257.9634 258.9081 259.3994
   259.3994 259.3994 263.7532 264.9750 264.9750 264.9750 265.6253 265.6253
   265.8660 265.9467 265.9467 266.0200 266.0200 266.0200 266.1820 266.1820
   266.1820 267.1653 267.1653 267.1653 267.6296 267.6296 267.6296 268.3273
   268.3273 270.6390 271.5701 271.5701 271.5701 272.5722 272.5722 272.5722
   272.9926 272.9926 272.9926 273.0485 273.0485 273.0485 273.0823 273.0823
   273.2646 273.2646 273.2885 273.2885 273.2885 273.5938 273.5938 273.5938
   273.8105 273.8105 273.8105 274.4616 274.4616 274.4616 275.4027 275.5090
   275.5090 275.5090 275.5236 275.5415 275.5415 275.5415 277.2555 277.2555
   277.2555 278.7901 279.3392 279.3392 279.3392 279.9870 279.9870 280.4397
   280.4397 280.4397 281.1898 283.6568 283.6568 284.4022 284.4022 285.9054
   285.9054 285.9054 286.5579 286.5579 286.5579 286.5677 286.7102 286.7102
   286.7102 287.8650 287.8650 287.8650 287.9275 287.9275 288.1217 288.5852
   288.5852 288.5852 288.6659 288.6659 289.6394 289.6394 289.6394 290.4970
   290.4970 290.4970 290.7070 290.7070 290.7070 290.9226 290.9226 290.9226
   291.1448 291.1448 291.1448 292.2674 292.3739 292.3739 292.3739 292.3855
   292.3855 307.4311 307.4311 307.4311 309.9779 309.9779 309.9779 312.6305
   315.1329 318.2531 318.9010 318.9010 318.9010 319.4121 319.4121 319.4121
   319.5123 319.5123 320.2594 320.2594 320.2594 320.5168 320.5168 320.5168
   320.7587 320.7587 321.2715 321.3832 321.3832 321.3832 321.9161 321.9161
   321.9161 322.0552 322.0552 322.0552 322.6199 322.6199 322.9141 322.9141
   322.9141 322.9528 322.9528 322.9528 322.9658 322.9658 322.9658 323.0994
   324.3036 324.3036 324.3036 329.5537 329.5537 330.2089 330.2089 330.2089
   330.2667 330.2667 330.2667 330.3658 330.3658 330.5826 330.5826 330.5826
   330.9272 330.9272 330.9272 332.0979 332.0979 332.2513 332.2513 332.2513
   332.5480 335.9354 335.9354 335.9354 337.9512 337.9512 337.9512 338.0817
   338.0817 338.5889 338.5889 338.5889 339.1345 341.2766 341.8544 341.8544
   341.8544 342.8990 342.8990 343.5349 343.5349 343.5349 345.9097 345.9097
   345.9097 347.7167 347.8316 347.8316 347.8316 347.9338 347.9338 348.5320
   348.5320 348.5320 348.5575 348.5575 348.5575 348.8810 348.8810 348.9379
   348.9379 348.9379 349.1681 349.1681 349.1681 349.5178 349.5178 349.5178
   349.9211 355.2399 356.5052 356.5052 356.7876 356.7876 356.7876 357.3074
   357.3074 357.3074 358.4577 358.4577 358.4577 359.1053 359.1053 359.1053
   359.5125 359.5125 359.5125 359.8980 360.0843 364.4999 364.4999 364.5556
   364.5556 364.5556 364.7721 364.7721 364.7721 364.8007 364.8007 364.8007
   364.9986 365.3181 365.8089 365.8089 365.8089 366.1439 366.1439 366.1439
   366.8049 366.8049 366.8329 367.0743 367.0743 367.0743 367.4149 367.4149
   367.4149 367.4915 367.4915 367.4915 367.6242 367.6242 367.6242 367.6517
   367.6517 369.1670 369.1670 369.2511 369.2511 369.2532 369.2532 369.2532
   369.4292 369.4292 369.4292 369.5572 369.5572 369.5572 369.5614 369.5614
   369.5614 369.6560 369.6880 379.4158 379.4158 379.8850 379.8850 379.8850
   381.0774 381.3777 381.3777 381.3777 381.7526 381.7526 381.7526 381.9593
   381.9593 381.9593 382.1485 382.1485 382.1485 383.1781 383.6258 383.6258
   383.6258 383.6886 383.6886 389.8439 389.8439 389.8439 389.9724 389.9724
   389.9724 391.0038 391.2631 395.3522 395.3522 395.3522 395.9098 395.9098
   395.9098 396.0720 396.0720 396.0720 396.7574 396.7574 396.7585 396.7585
   396.7585 396.8634 396.8634 398.6826 399.4771 399.4771 399.4771 400.3545
   400.3545 400.3545 400.8006 400.8006 400.8006 400.9264 400.9264 400.9264
   401.0784 401.0784 401.0784 401.2705 401.2705 401.2705 401.4951 402.1025
   402.1025 402.3006 402.3006 402.3006 402.9220 402.9220 402.9220 403.2078
   403.2078 403.2078 403.6297 403.6297 403.6835 403.6835 403.6835 404.7315
   404.7315 404.8769 404.8769 404.8992 404.8992 404.8992 404.9300 404.9300
   404.9300 405.0069 405.0069 405.0069 405.0504 405.0504 405.0504 407.0842
   407.1463 407.1463 407.1463 407.1768 407.1768 407.1768 407.1815 410.0291
   410.0291 410.0688 410.0688 410.0688 410.0738 410.0738 410.0738 410.1189
   410.1311 410.1311 410.1311 410.1521 410.1521 410.1521 410.1610 410.1610
   410.1610 410.1730 410.1730 410.2260 410.2260 410.3542 410.4993 410.4993
   410.4993 410.6068 410.6068 410.6068 410.6890 415.8539 415.8638 415.8638
   415.8638 415.9121 415.9121 415.9121 416.0990 425.6248 425.6248 425.6248
   425.9607 425.9607 426.2127 428.3590 428.3590 428.3590 428.4658 428.4658
   428.4758 428.4758 428.4758 428.5746 428.5746 428.5746 428.6731 428.6731
   428.6731 428.7279 428.7279 429.5601 429.5601 429.5601 429.9527 429.9527
   429.9527 430.0959 430.0959 430.0959 430.4075 430.4075 430.4075 436.5295
   436.5295 436.6554 436.6554 436.6554 436.9402 442.5245 442.6591 442.6591
   442.6591 442.7073 442.7073 446.8141 446.8141 446.8141 446.8146 446.8146
   446.8146 446.8523 446.8523 446.8523 446.8648 446.8648 446.8648 448.7071
   448.7071 448.7193 448.7193 448.7193 448.7283 453.0300 453.0300 453.0300
   453.2724 454.8825 454.8825 458.0753 458.0753 458.0753 459.0035 459.0828
   459.0828 459.0828 459.9156 459.9156 459.9156 461.1755 461.1755 461.1755
   461.3483 461.3483 461.3483 462.1097 462.9706 462.9706 463.0895 463.0895
   463.0895 463.1213 463.1213 463.1213 463.5611 463.5611 463.9477 463.9998
   463.9998 463.9998 464.5180 464.9572 464.9572 464.9572 465.6437 465.6437
   467.2868 467.2868 467.2868 468.4418 468.4418 468.4418 469.7238 469.7238
   469.7238 469.8006 470.0498 470.0498 471.3161 471.3161 471.3161 472.9193
   472.9193 472.9193 474.1939 476.4525 476.4525 476.4525 476.5295 476.5295
   476.5295 476.9798 476.9798 476.9950 476.9950 477.7232 477.7232 477.7232
   477.7357 477.7357 477.7357 479.7189 479.7189 479.7189 479.7450 479.8523
   479.8523 479.8523 479.9662 482.9334 482.9334 482.9334 483.0986 483.0986
   483.1690 483.1690 483.1690 483.4539 483.4539 483.4539 483.5340 483.5340
   483.5370 483.5370 483.5370 484.3259 484.3259 484.3259 484.4678 484.4678
   484.4678 484.5942 484.6065 484.6065 484.6065 484.8294 484.8294 485.0213
   485.0213 485.0537 485.0537 485.0537 485.1216 485.1216 485.1216 485.1254
   485.1254 485.1254 485.1669 496.9397 496.9397 496.9397 497.0037 497.0037
   497.0037 497.6396 497.6396 497.6396 497.6553 497.6553 497.6553 497.7948
   497.8755 497.8819 497.8819 497.8819 497.8903 497.8903 498.9270 498.9270
   498.9270 499.6113 499.6113 499.6113 499.8535 499.8535 500.0163 500.0163
   500.0163 501.7179 502.2102 502.2102 502.2102 502.6948 502.6948 502.6948
   502.7216 502.7216 502.8609 502.8609 502.8609 506.6023 506.6023 506.6023
   506.8947 506.8996 507.0374 507.0374 507.0374 507.1400 507.1400 507.1482
   507.1482 507.1482 507.1810 507.1810 507.3010 507.3010 507.3010 507.3503
   507.3503 507.3753 507.3753 507.3753 507.4920 507.4920 507.4920 507.5050
   507.5050 507.5050 507.7120 507.7136 507.7136 507.7136 507.7281 507.7281
   507.7281 508.8660 508.8660 509.0222 509.0222 509.0222 509.1814 509.2599
   509.2599 509.2599 509.5097 509.5097 509.6572 509.6572 509.6572 510.0853
   510.0853 510.0853 510.3407 515.1118 515.7659 515.7659 515.7659 516.4074
   516.4074 516.4074 516.9093 516.9093 516.9634 516.9634 516.9634 518.9492
   519.1779 519.1779 519.1779 519.3831 519.3831 519.3831 519.7033 519.7731
   519.7731 519.7731 519.7848 519.7848 519.7848 519.7906 519.7906 519.7906
   519.8113 519.8113 519.8646 523.4505 523.4505 523.5009 523.5009 523.5009

          k =-0.2500 0.2500-0.2500 (  3675 PWs)   bands (ev):

   -81.5876 -45.0802 -45.0790 -45.0790  -6.6125   4.1291   4.6247   4.6247
     5.9980   5.9980   6.2631   7.4786   7.4786  11.2621  16.1838  17.5956
    17.5956  20.6985  20.6985  20.9549  25.1842  26.8925  26.8925  27.6869
    29.6516  29.6516  32.9518  35.6013  35.6013  36.6425  36.6425  37.2711
    39.7629  41.9193  41.9193  42.4495  45.7894  45.7894  47.0862  47.0910
    48.1996  48.1996  49.8528  49.8848  49.8848  51.6672  51.6672  51.7557
    53.0359  54.9630  55.5826  55.5826  58.7340  58.7340  59.3809  60.9050
    60.9050  61.4266  61.4266  61.6947  63.0536  65.0047  66.3595  66.3595
    68.7030  68.9638  68.9638  70.2425  70.2425  71.4971  72.8018  72.8018
    74.3679  76.1128  76.1128  77.8907  80.4117  80.4117  80.4436  80.5566
    81.6110  81.6435  81.6435  83.4889  83.4889  84.4434  85.3494  85.3494
    87.4507  88.2328  88.2328  89.6613  90.6327  90.7749  92.1841  92.2101
    92.2101  94.6663  94.6663  95.7253  96.3428  96.3428  97.0346  97.0346
    97.7560  97.9986  97.9986  99.1981  99.1981 100.0785 100.3419 100.4507
   100.4507 102.6001 103.3486 103.4374 103.4374 106.4444 107.6594 107.6594
   108.2188 108.8675 108.8675 109.0001 109.5791 109.5791 109.9096 109.9096
   111.7119 111.7119 111.9777 113.1724 113.1724 113.6893 115.3358 115.3358
   115.4478 116.0963 116.3977 117.2898 117.2898 118.3846 120.9111 120.9111
   122.1770 122.1770 122.2917 122.6296 122.6296 124.4741 124.7983 125.8063
   125.8063 126.6660 126.6660 126.7888 127.1894 128.6650 128.6650 129.9628
   131.8806 131.8806 133.4167 133.8614 133.8614 136.0341 136.3163 136.3163
   137.9897 137.9897 139.3234 139.8425 140.5717 140.5717 141.0931 141.4182
   141.4182 143.4121 143.4121 144.1416 144.1416 145.0967 145.1882 147.0889
   147.6016 148.9537 149.1672 149.1672 150.6618 150.6618 151.3136 151.3136
   151.5699 152.3930 152.4589 152.4589 152.6575 153.0462 153.0462 153.7995
   155.0505 155.0505 156.1918 156.1918 157.2421 157.9337 158.3595 158.3595
   162.4283 162.4283 162.6815 164.9197 165.5461 165.6898 165.6898 166.2861
   166.2861 166.5214 167.2382 167.2382 167.4871 167.5967 167.9744 167.9744
   168.4104 168.4104 169.0592 169.7486 169.7486 169.8337 169.8337 170.4125
   170.4125 171.3486 171.4058 171.8436 171.8436 172.1247 172.1247 172.8055
   173.1391 175.8039 177.0729 177.0729 177.3726 177.5318 177.5318 178.2770
   178.6202 179.6704 179.6704 180.1571 180.4706 180.4706 181.7624 181.7624
   183.1497 183.1497 183.3517 184.0502 184.0730 184.0730 185.1417 185.1417
   185.4158 186.2436 187.3711 187.9975 187.9975 188.7020 188.7020 189.1692
   189.8553 190.2771 190.2771 191.5777 191.5777 193.4946 195.1934 195.1934
   195.7867 195.7867 196.2189 196.6314 196.6314 196.7079 196.7883 197.5696
   197.5696 198.4280 198.4280 198.7256 198.7496 199.2756 199.2756 199.5129
   199.9349 199.9349 200.3856 201.7629 201.7629 202.8242 204.0677 204.0677
   204.6815 205.3148 205.3148 205.8018 207.0327 207.0327 207.8262 207.8262
   208.4303 208.8987 211.1180 211.9100 211.9100 212.3166 212.3166 213.0315
   215.2077 215.2077 215.6503 216.4448 216.4448 217.8847 218.4009 218.4009
   220.6413 220.7940 221.1353 221.1353 221.6070 221.7573 221.7573 224.6086
   224.9078 224.9078 225.1121 225.6480 225.6480 225.9520 226.1779 226.1779
   226.4857 226.4857 227.0132 227.1403 227.8863 228.1103 228.1103 228.9647
   229.0241 229.0241 231.2514 231.2514 231.8977 232.4752 232.9086 232.9927
   232.9927 234.4072 235.0587 235.0587 236.4791 236.4791 237.1467 237.2256
   237.6804 237.6804 238.4688 238.5019 238.5019 239.0944 239.0969 239.0969
   239.4494 239.4494 242.2546 242.2546 242.3640 244.8354 244.8354 245.6505
   245.6505 246.6373 247.2355 247.7897 247.7897 249.0524 249.2248 249.2248
   250.2659 250.2659 250.4136 251.1490 251.2418 251.7754 251.7754 252.2097
   252.2097 252.4593 252.6881 252.6992 252.6992 252.9313 252.9313 253.4812
   253.8702 253.8702 254.8804 256.1247 256.1247 257.2564 258.8459 258.8459
   258.9145 259.8643 259.8643 260.9147 260.9147 260.9404 261.3172 261.3172
   261.8214 262.0542 262.0542 262.2500 262.4806 262.4806 263.1849 263.4392
   264.1795 264.1795 265.0339 265.1968 265.4384 265.4384 266.1459 267.1928
   267.1928 267.6531 267.9423 267.9423 268.5592 268.5592 269.1071 269.6890
   269.6890 270.0432 270.2353 270.4950 270.4950 271.5714 272.2186 272.2186
   272.5985 272.7402 272.7402 274.4284 274.4284 274.6964 274.8639 274.8639
   274.8928 274.9032 275.1385 275.1385 275.7074 275.7074 275.7993 277.7205
   277.7205 277.8415 278.7202 278.8692 278.8692 279.8066 280.5475 280.5475
   280.5817 280.8971 280.9235 280.9235 283.0489 283.0489 283.2271 283.3829
   283.5703 283.5703 283.9661 283.9661 285.9653 287.4891 287.5180 288.7841
   289.1176 289.1176 289.6599 289.6599 290.5204 290.5204 290.7360 293.4344
   293.4344 294.0852 294.0929 294.0929 294.7570 294.7570 295.0555 295.3453
   295.3453 295.4576 296.6201 296.6201 297.0581 297.0581 298.8639 298.8639
   298.9038 299.9281 300.4169 300.6251 300.6251 300.9433 301.2196 301.2196
   301.5595 301.5595 302.0367 302.3149 302.7879 302.8063 302.8063 303.1836
   303.1836 304.5310 304.9387 304.9387 305.4281 305.4281 305.6384 305.6384
   305.7309 305.9867 305.9867 306.2737 306.8927 307.4233 307.8013 308.2432
   308.2432 310.4950 310.5625 310.5625 313.2311 313.2311 314.2462 314.9887
   314.9887 315.2870 316.0983 316.0983 316.6924 316.8971 316.8971 317.1742
   317.1742 317.4412 317.7136 318.4279 318.4279 319.4351 320.4861 320.4861
   320.9942 320.9942 321.1854 322.0561 322.0561 322.8848 323.6908 323.6908
   323.9221 324.3339 325.2460 326.0934 326.0934 328.9597 328.9597 329.7428
   329.8953 329.8953 329.9504 330.0023 330.0023 330.9026 332.7562 334.0211
   334.0211 334.1416 334.1416 334.8848 335.1464 335.1464 335.8678 336.1539
   336.6471 336.6471 336.6853 337.5221 337.5221 338.0854 338.0854 338.0927
   338.8502 339.2147 339.2147 339.6518 340.6005 340.6005 341.0527 341.0527
   341.2021 341.5253 341.5253 341.5586 341.6782 342.1694 342.1694 342.6413
   342.6492 342.6492 342.9726 343.5229 343.5229 343.5937 344.1541 344.1541
   344.4501 345.2175 345.2175 346.8744 347.1909 347.2395 347.2395 348.1003
   348.1003 349.1568 349.1568 349.4455 350.6004 351.5259 351.9761 351.9761
   353.8884 353.8884 354.1453 354.2333 354.2333 354.2770 354.5060 354.9724
   354.9724 355.9156 359.1765 359.1765 359.4530 360.2307 360.3715 360.3715
   360.8556 360.8556 361.1018 361.5136 361.5136 362.0675 362.2001 362.2001
   362.6609 362.6609 362.7982 363.2042 363.4899 363.4899 363.9869 363.9869
   364.1825 364.1825 364.2960 366.0295 366.6943 366.6943 366.9691 368.1689
   368.4247 368.4247 368.7628 368.7628 368.8112 368.8592 368.8592 369.0877
   369.0877 370.1138 370.6393 370.6972 370.6972 370.9543 370.9543 371.2101
   371.2101 371.3075 371.4568 372.7904 372.7904 373.6088 373.8270 373.8270
   373.9076 374.0166 374.0166 374.0334 374.7432 374.9113 374.9113 375.0589
   375.0589 375.1204 375.2236 375.3280 375.3280 377.1082 377.1082 377.4846
   377.6225 378.3063 378.3624 378.3624 378.6058 378.6058 378.7574 379.0762
   379.0762 379.4863 380.9670 380.9670 380.9841 381.2403 381.2403 381.9728
   382.9624 382.9624 383.2225 385.3082 385.3082 387.7181 387.9539 387.9539
   388.8532 389.8896 389.8896 389.9033 390.0755 390.0755 390.1991 390.2947
   390.3693 390.3693 390.5650 390.5650 390.8111 391.2037 391.8121 391.8121
   392.1863 392.1863 392.7350 393.2432 393.3865 393.3865 393.9672 393.9741
   393.9741 394.3911 394.3911 394.5388 395.7532 395.7532 396.8041 396.8041
   397.3689 397.5501 397.5633 397.5633 398.0606 398.5517 398.9181 398.9181
   399.1961 399.2578 399.2578 399.9120 400.1158 400.1158 400.4443 400.6713
   400.6713 400.8480 401.3473 401.3473 403.6615 403.6771 403.6771 404.8818
   404.8818 405.3068 405.4901 405.4901 405.6050 406.5235 406.5838 406.5838
   408.9996 408.9996 409.0035 410.2819 410.2819 411.1798 411.1798 411.2370
   411.4104 411.9585 412.0149 412.0149 413.3081 413.3081 413.3869 413.7664
   414.1302 414.1302 415.9608 415.9681 415.9681 416.0793 416.0793 416.0926
   416.5533 416.5533 416.6210 418.6131 418.8022 418.8022 419.1936 419.1936
   419.2406 419.9438 419.9858 419.9858 420.3443 420.8271 420.8271 421.0253
   421.5862 421.6137 421.6137 421.6682 421.7122 421.7122 422.1079 422.4076
   422.4076 422.7086 423.1352 423.4979 423.4979 423.8455 423.8455 427.9360
   427.9874 427.9874 428.0429 428.0429 428.1301 428.1428 429.8114 429.8114
   430.8283 430.8589 430.8589 431.6313 432.3466 432.3466 432.8307 432.8307
   433.1823 433.6051 433.6051 433.6596 433.7633 433.7633 433.8186 434.2850
   434.9672 434.9672 434.9736 435.1140 435.1140 435.2259 436.1704 436.1704
   437.7113 437.7113 439.3120 439.3120 439.3156 439.5007 439.9092 439.9092
   441.9589 441.9589 442.2153 442.2153 442.3930 444.1126 444.1348 444.4023
   444.4023 444.4469 444.8845 444.9164 444.9164 445.0763 445.0763 445.1846
   445.1846 445.6542 447.0724 447.0724 447.1167 448.1845 448.1845 448.3152
   448.5267 448.5267 448.6610 451.4799 451.6019 451.6019 452.9753 452.9753
   453.0333 454.6949 455.6192 455.6192 455.8220 456.6831 456.7792 456.7792
   459.2275 459.2865 459.2865 460.0502 460.0502 460.2968 460.2968 460.4307
   460.5140 461.6022 461.9659 461.9659 462.3838 462.6283 462.6283 463.4081
   463.5308 463.5308 463.8343 463.8343 464.0733 464.2228 464.9209 464.9209
   465.5201 465.5201 465.7286 466.3832 466.8471 466.8471 468.0752 468.0752
   468.4232 468.4675 468.4675 468.7094 468.7094 468.9204 468.9204 469.1410
   469.7923 470.6206 471.1897 471.1897 471.3368 471.6370 471.9634 471.9634
   472.1365 472.1365 472.8437 473.0353 473.0511 473.0511 473.5726 473.5726
   474.0607 474.1574 474.1574 474.6775 474.7753 474.7753 475.6510 475.6510
   476.3062 477.0914 477.8962 478.2125 478.2125 478.8546 478.8546 478.9882
   479.2309 479.2309 479.3407 479.3585 479.6401 479.6401 479.7170 479.7744
   479.7744 480.0791 480.0791 480.3036 482.1984 482.1984 482.9087 485.1681
   485.1681 485.3311 485.6611 486.0704 486.0704 486.3223 486.4137 486.4137
   486.6029 486.6077 486.6077 487.4041 487.4041 487.4843 487.4846 487.4846
   487.7092 488.0317 488.2452 488.2452 489.1157 489.2812 489.2812 491.1822
   491.1822 491.4892 491.9146 492.0043 492.0043 492.8104 492.9184 492.9184
   494.0230 494.1001 494.1001 494.2847 494.3040 494.3040 494.9994 494.9994
   495.1169 497.4566 497.7719 497.7719 497.8035 498.6101 499.0016 499.0016
   499.3571 499.3571 499.3675 499.7450 499.7450 499.8400 500.8926 500.8926
   500.8950 501.2522 501.2522 501.2900 501.3807 501.3807 502.4575 502.7790
   502.7790 502.9154 503.0404 503.0404 503.3338 503.3338 503.3504 504.1789
   504.1789 504.2932 504.5345 504.5868 504.5868 505.4048 505.4048 505.5804
   506.8829 506.8829 506.9203 507.6353 507.6696 507.6696 507.8117 509.5348
   510.1870 510.2264 510.2264 510.3480 510.3480 510.3792 510.5529 511.2359
   511.2359 511.3053 511.8283 511.8283 514.3056 514.3056 514.6853 514.6853
   515.0116 515.0587 515.0587 515.3309 515.3309 515.3324 515.4914 515.5328
   515.5328 515.7606 515.7606 515.8134 517.7856 518.6855 518.7542 518.7542
   519.5978 519.6246 519.6246 519.9104 519.9104 520.0673 520.1066 520.1066
   520.1543 520.1543 520.1543 520.1924 520.1924 520.7202 520.7902 522.0214
   522.0214 522.0491 522.0491 522.4559 522.5811 523.4397 523.4397 524.3003
   524.8749 524.8749 525.4112 525.4112 525.9727 526.0458 526.1454 526.1454

          k = 0.5000-0.5000 0.5000 (  3708 PWs)   bands (ev):

   -81.5875 -45.0816 -45.0792 -45.0792  -6.3817   3.0701   4.1343   4.1343
     6.1801   6.1801   6.4983   8.2692   8.2692  12.5961  14.8579  16.0788
    16.0788  21.8972  22.2074  22.2074  23.5794  26.2072  26.2072  30.7588
    30.7588  30.8319  33.8865  35.8966  35.8966  36.7336  36.7336  38.3708
    39.0740  39.1931  39.1931  41.7178  43.2822  43.2822  43.3981  43.9196
    47.9851  47.9851  49.2501  50.5589  50.8645  50.8645  54.2066  54.2066
    54.3113  54.9586  54.9586  57.9948  58.5969  59.6708  61.5003  61.5003
    61.6257  61.6257  65.9375  65.9375  66.4847  66.4847  68.5927  70.0508
    70.0508  70.1387  70.1387  70.7053  70.7287  71.6181  72.4404  72.4404
    72.7038  72.7963  72.7963  75.4056  78.1811  79.1321  79.1321  79.7261
    79.7261  80.8211  81.8665  82.6793  82.6793  82.6973  82.6973  83.5946
    85.5820  85.5820  86.6467  86.6467  86.9782  87.6887  87.7521  90.4282
    91.0529  93.2047  93.2047  94.7785  94.7785  95.8371  99.9395 100.2714
   100.7296 100.7296 101.1329 101.1329 101.1689 101.1689 101.7061 101.7866
   102.1152 102.1152 103.9140 104.3714 104.3714 104.7267 104.7267 105.8731
   107.0514 107.5138 108.3164 108.3164 109.4990 110.2231 110.2231 113.8353
   113.8353 113.9839 114.4676 114.4676 116.3620 116.4723 116.4723 116.8991
   116.8991 118.7917 118.8635 119.7638 119.7638 120.2101 120.2101 121.3073
   121.3073 121.3726 122.4613 123.5888 123.9495 123.9675 123.9675 126.8877
   126.8877 128.0101 128.0101 129.9746 130.0375 130.1097 130.1097 130.9544
   130.9544 132.4905 132.4905 132.7801 132.9290 132.9290 134.4751 136.7780
   136.7780 137.6091 138.8450 139.9431 139.9431 139.9870 140.0975 140.0975
   140.1329 140.4917 141.1867 141.1867 141.8923 144.7805 144.7805 146.0836
   146.1502 147.1766 147.2501 147.2501 150.3551 150.3551 150.4377 151.5373
   151.9913 151.9913 152.6490 153.0348 153.0348 155.0741 155.0741 155.6469
   155.6469 155.7115 155.9335 155.9335 156.3053 156.5392 157.8903 157.8903
   158.9612 158.9612 161.1773 162.3031 162.3031 162.8180 162.8180 162.9637
   163.6979 164.5456 165.5474 165.5474 165.9664 165.9664 166.0613 166.7528
   167.9003 167.9003 168.2935 168.2935 169.2512 169.4281 169.4281 169.7104
   169.9950 169.9950 171.3343 171.4107 171.4107 172.4576 172.4576 173.9724
   174.4379 174.4379 174.9691 175.0137 175.6725 176.7934 176.7934 178.9507
   178.9507 180.1918 180.1918 180.3521 181.0881 181.6162 182.1512 182.1512
   185.1230 185.6981 185.6981 186.5429 186.6964 186.6964 187.1554 187.1867
   187.5711 187.5711 187.6263 187.6263 188.3258 188.4603 188.9731 189.2260
   189.2260 189.5190 189.5190 190.2846 190.2846 190.2849 191.3395 192.4792
   192.4792 195.1944 195.1944 199.9498 199.9498 200.0883 203.2686 203.2686
   203.8928 203.8928 203.9891 204.0097 204.2271 204.2271 205.2370 205.2696
   205.6954 205.6954 205.7157 205.8449 205.8449 205.9228 205.9249 206.6387
   206.6387 207.2427 207.8818 210.5550 210.5550 211.3986 212.1735 212.3661
   212.3661 212.5583 212.6071 212.6071 212.6544 212.9293 213.0481 213.1264
   213.1264 213.5968 213.5968 214.3631 214.3631 214.8308 214.8308 218.1629
   218.8922 218.8922 219.1656 219.1656 219.3911 219.3911 220.9606 220.9630
   222.7819 222.7819 223.6704 223.6704 223.8023 225.5106 225.5106 226.2062
   226.8405 227.1048 227.1048 227.2774 227.2774 227.3066 228.5943 228.5943
   228.9648 228.9648 229.5580 229.6334 229.6334 229.8062 230.4902 231.5463
   231.5463 232.5959 232.5959 232.8565 233.0003 233.3775 233.3775 233.4662
   233.5656 233.6228 234.5768 234.5768 237.0583 237.0583 237.8237 237.8916
   237.8916 238.4987 238.8473 242.0977 242.0977 242.7796 242.7796 243.1762
   243.1762 243.8472 244.0602 245.0567 245.0567 245.3279 245.3279 245.7612
   245.7612 245.8190 246.0259 249.4654 249.4654 250.4781 250.5344 250.5344
   250.8346 250.9588 250.9588 251.6724 252.5939 252.7292 252.7292 253.4000
   253.6082 254.8154 255.0269 255.1623 255.1623 255.5260 255.5260 255.7417
   256.0912 256.0912 257.9481 258.0713 258.0713 258.3275 259.3374 259.4377
   260.0185 260.0185 260.1963 260.1963 260.9984 261.1452 261.1452 262.4688
   262.4688 263.2802 263.2802 264.6273 265.4956 265.4956 265.5641 265.5641
   267.7405 268.4838 268.4838 268.5844 268.5844 269.1786 271.3530 271.3530
   271.9936 272.8784 272.9061 273.2871 273.2871 273.9473 273.9473 275.5230
   275.5457 275.5457 276.1305 276.1305 276.2154 276.2257 276.2257 277.5741
   277.9920 278.0201 278.0201 278.1546 278.1546 278.2005 278.8412 279.8913
   279.8913 280.1265 280.1265 280.8763 281.1150 281.8489 281.8489 283.8934
   284.0062 284.0062 284.9575 285.9199 285.9199 288.0238 288.0238 288.6699
   289.3080 289.3080 289.6168 290.1036 290.6754 291.0681 291.0681 291.7448
   291.7448 291.9004 292.0572 292.4568 292.4568 292.8794 293.1094 293.1094
   294.3826 294.3826 294.4578 294.4578 294.5061 294.9697 295.2877 295.2877
   295.8475 295.8475 295.8627 295.8785 296.2470 297.1728 297.5781 297.5781
   299.7562 300.3543 301.1951 301.1951 301.3140 301.3140 301.8296 301.8296
   302.1197 302.1197 302.4260 302.9997 303.0150 303.6233 304.0890 304.0890
   304.1994 304.1994 304.8248 304.8248 305.0033 305.0033 305.4725 305.5607
   310.8079 310.9336 310.9336 311.1188 311.5202 311.5202 312.4977 312.8804
   312.8804 313.3509 313.3509 313.4965 313.9719 313.9719 314.0045 314.0045
   314.2074 314.2491 314.7672 314.7672 316.4859 316.5057 316.5057 316.6523
   316.6634 316.8938 316.8938 319.4441 319.6955 319.6955 319.9122 320.4210
   320.5209 320.5209 320.9741 321.3505 321.3505 322.8319 323.6452 323.6452
   324.3218 324.3218 324.5590 324.8119 324.8119 325.7585 326.0113 326.0113
   326.4230 326.4301 326.4301 328.0551 328.0683 328.3200 328.7829 328.7829
   328.8612 328.8918 328.8918 329.0224 329.0224 329.1228 329.1228 330.3229
   331.2922 331.2922 335.1064 335.1064 335.3869 335.3869 335.5120 335.6740
   335.6740 335.9750 335.9750 336.2826 336.6944 337.1443 337.1646 337.6218
   337.6294 338.8079 338.8079 339.0909 339.0909 340.6136 340.6136 340.6443
   340.6443 340.9078 341.1141 342.4730 342.4730 343.3655 345.2197 345.2197
   345.3091 345.4092 346.1032 346.1032 346.1324 346.1324 346.5045 346.5097
   354.1462 354.3021 354.3021 354.3496 354.3496 354.4200 354.4200 354.4493
   354.4493 356.0727 356.6073 356.6073 357.0222 357.4834 357.6747 357.6747
   357.7391 357.7391 357.8158 357.9130 357.9843 357.9843 358.3748 358.4015
   358.4039 358.4039 358.9116 358.9116 359.6042 359.7947 360.1197 360.1197
   360.1899 360.1899 362.0713 362.0815 362.0815 362.1113 362.1113 362.4859
   362.9055 362.9055 362.9118 363.0629 363.0843 363.0843 363.4432 363.4432
   363.8607 363.9372 363.9372 364.2686 365.1359 365.6168 365.6168 365.6864
   365.6864 366.3232 366.5224 367.0040 367.0040 367.7533 367.7533 368.0493
   368.4221 370.9429 370.9429 371.1211 371.1211 371.2024 374.0502 374.1464
   374.1464 374.4748 374.5458 374.5458 378.2451 378.2451 378.4909 378.4909
   378.5660 378.9451 378.9930 378.9930 379.1752 379.5250 379.5250 379.7738
   380.1130 380.1130 380.1634 380.7404 380.7404 381.0328 381.1133 381.1133
   381.5140 381.6696 382.3060 382.3060 382.9711 383.1509 383.1509 383.1894
   383.1894 383.3398 383.4888 385.2184 385.2429 385.7781 385.7781 386.3695
   386.4530 386.4530 386.7019 387.4457 388.3221 388.3221 388.4219 388.4219
   390.8457 390.9575 390.9575 391.2063 391.3059 391.3059 392.0894 392.0894
   392.1161 392.1161 392.2823 392.3333 395.0680 395.0680 395.8181 395.8605
   395.9436 395.9436 397.4681 397.4681 397.5132 397.5132 398.4796 399.5993
   400.3154 400.3154 400.3490 400.8767 400.8767 401.3784 401.3784 401.4005
   402.0188 402.0188 402.5551 403.7044 403.7044 403.7177 403.7471 403.7471
   403.7798 403.8896 403.8896 404.4121 404.4121 404.5375 405.3897 405.4701
   405.4701 405.9388 405.9388 406.1212 406.8286 406.9177 406.9177 406.9707
   406.9902 406.9902 410.2349 410.2349 410.2762 410.2762 410.3156 410.4705
   410.6188 410.6188 411.4094 411.4094 412.1839 412.3974 412.5089 412.5089
   412.7524 412.7524 414.0718 414.4183 419.0610 419.0702 419.2375 419.3871
   419.3871 419.5625 419.5826 419.5826 420.0830 420.0830 420.1754 420.1754
   420.2032 420.2032 420.2887 420.2969 420.2969 420.4848 424.6676 424.6724
   424.6740 424.6740 424.6757 424.6757 425.1434 425.2155 426.4008 426.4008
   426.5981 426.5981 428.1880 428.2956 428.3749 428.4820 428.4820 428.5508
   428.5508 428.5957 429.2842 429.2842 429.4120 429.4120 432.8925 432.9869
   432.9869 433.6041 433.6041 433.6159 433.6159 433.9070 433.9070 434.0376
   434.0378 434.1211 435.4348 435.7352 436.1522 436.1522 436.3760 436.3760
   436.4166 436.7291 436.7660 436.8489 437.3139 437.3139 437.4509 437.4509
   442.0946 442.0946 442.1200 442.2300 442.2300 442.2978 443.6693 443.6693
   443.6708 443.6708 444.4100 444.4380 444.5049 444.8483 444.8529 444.8529
   444.9499 444.9499 445.4378 445.5637 445.6752 445.6752 445.7050 445.7050
   445.8936 445.8936 445.9216 445.9216 446.4353 446.5471 446.9113 447.1034
   447.7907 447.7907 447.8268 447.8268 451.7771 451.7771 451.7813 451.8137
   451.8137 451.8455 452.5328 452.5328 452.5400 452.5400 452.7210 452.7506
   456.3524 456.3524 456.7450 457.0475 457.0475 457.0975 459.9828 460.0137
   460.1079 460.1079 460.1835 460.1835 461.0888 461.0888 461.1200 461.1200
   461.2575 461.2575 461.3230 461.3506 461.5382 461.7115 461.8820 461.8820
   462.1437 462.1437 462.3014 462.3014 463.0911 463.7445 464.2622 464.4690
   465.6346 465.6346 465.8779 465.8779 466.8207 466.8223 466.8223 467.1833
   467.1833 467.3316 467.4368 467.8588 468.6650 468.6650 468.7212 468.7259
   468.7259 468.9061 469.1050 469.1385 469.1603 469.1603 469.2097 469.2097
   470.7571 471.2941 471.2941 471.6441 472.0345 472.0486 472.0486 472.2945
   472.6500 472.6500 472.6601 472.6601 474.5577 474.5577 474.5609 474.5609
   478.9623 478.9775 478.9775 478.9800 479.0754 479.0754 479.9198 479.9198
   479.9641 479.9641 480.0543 480.0977 481.0661 481.0661 481.0673 481.0673
   482.0085 482.0086 482.2732 482.2732 482.2734 482.2734 484.2721 484.2731
   486.7779 486.8171 486.8171 486.9605 486.9605 487.6622 487.9750 488.6315
   488.6315 489.3205 489.3205 489.5817 490.2600 490.4129 490.6946 490.6946
   490.7429 490.7429 490.8396 491.2283 491.2283 491.2801 491.2801 491.2975
   492.5595 492.5595 492.6521 492.7677 492.7677 493.4006 493.4006 493.4814
   493.6975 493.6975 493.8564 494.0255 494.0497 494.1011 494.2829 494.2829
   494.3426 494.3426 496.1661 496.3016 497.1770 497.1770 497.2133 497.2133
   497.2401 497.2476 503.7587 503.8461 503.8461 503.9401 503.9401 503.9806
   504.7038 504.7038 504.7678 505.0781 505.0781 505.5563 506.5734 506.6885
   506.6885 506.7315 506.9296 506.9296 507.1046 507.1451 507.2690 507.2690
   507.2789 507.2789 507.3770 507.3770 507.6187 507.7747 507.7747 508.1141
   509.0029 509.0507 509.0507 509.3082 509.3082 509.4144 510.1725 510.1814
   510.1814 510.2116 510.2116 510.2837 510.2837 510.4570 510.4570 510.5409
   510.8795 510.9099 511.1407 511.1407 511.2023 511.2023 511.6617 511.6617
   511.8508 511.8508 512.2044 512.6171 512.6171 512.6206 512.6206 512.6367
   512.6372 512.6719 518.1956 518.2915 518.2915 518.3306 518.3307 518.3547
   525.2365 525.3818 525.3818 525.4442 525.4442 525.5350 525.9753 525.9753
   526.0392 526.0392 526.0807 526.2880 527.4644 527.4644 527.4704 527.4704
   527.5962 527.5991 527.6605 527.7766 527.8132 527.8132 527.8394 527.8394

          k = 0.0000 0.5000 0.0000 (  3655 PWs)   bands (ev):

   -81.5876 -45.0801 -45.0793 -45.0793  -6.5712   3.8387   5.2465   5.2465
     5.6609   5.9593   6.5054   6.5054   6.9421  11.7479  15.7886  17.1593
    18.5763  18.5763  22.8418  24.4712  24.4712  25.2605  25.9578  29.0233
    29.7534  29.7534  31.2259  33.3181  35.2741  36.8960  36.8960  39.3283
    39.8454  39.8454  43.0804  44.2937  45.2068  46.5560  46.5560  46.9623
    46.9623  46.9820  47.7654  49.9813  49.9813  51.5433  53.0643  53.1229
    53.4054  54.3226  55.5694  56.4083  56.4083  60.2157  60.2157  60.9069
    61.7669  62.1307  62.1307  63.7596  64.0457  66.4100  66.4100  66.9155
    67.3687  67.3687  68.2457  68.8449  70.3684  70.3684  73.9492  74.8268
    75.8061  75.8347  77.0984  77.0984  77.9627  79.0349  80.4433  80.4433
    81.4625  81.9336  81.9336  82.8381  83.0508  84.1889  85.6714  85.6767
    86.2319  86.2319  88.2907  88.2907  89.0021  89.6842  92.6440  92.7899
    92.7899  94.1585  94.2320  94.2320  94.7625  95.5127  97.0662  97.1358
    98.1601  98.1601  99.7924  99.7924  99.8192 100.9996 101.5155 101.5155
   103.4542 103.4542 103.4598 103.7678 104.2676 106.5408 106.5941 106.9446
   106.9446 108.0380 108.4393 108.9547 109.4348 109.4348 110.2242 110.2242
   110.5078 111.3055 111.3055 111.8210 112.3110 112.4072 112.4072 113.3313
   114.5826 115.3989 118.1947 118.1947 119.0268 119.4233 121.9280 121.9280
   122.8174 123.9623 124.3579 124.3579 124.8937 126.5102 126.6819 126.9836
   126.9836 127.8092 127.8241 127.8241 128.1928 129.4151 130.0891 132.8785
   132.8785 133.2215 133.2948 134.5927 134.5927 135.0249 135.6333 135.6333
   135.6498 136.5665 138.0862 139.8527 140.0811 140.0811 140.3765 141.7376
   141.7376 141.9510 142.9787 143.7118 143.9627 145.2893 145.2893 146.4319
   147.5335 148.2537 148.2537 148.3268 149.4541 149.7763 149.7763 150.1703
   151.1850 151.3374 151.3374 152.4605 152.4605 152.6697 155.3311 155.8646
   155.8646 156.3124 156.4218 156.7656 156.7656 157.0563 158.1763 158.9161
   158.9161 159.7480 159.8429 160.3920 160.3920 161.0210 161.0210 161.7229
   161.9648 164.6770 164.8743 164.8743 165.2657 165.3822 165.6160 165.6160
   165.7393 167.8242 168.2917 168.2917 169.6957 169.8360 169.8998 172.7215
   172.7215 173.0586 173.1157 173.5570 173.5570 174.9786 176.5712 177.1690
   177.3122 177.3122 177.7772 177.7772 177.9785 178.6933 180.3768 180.5752
   181.5731 181.5731 181.7927 182.4774 182.7865 183.4236 183.6869 183.6869
   185.0214 185.0214 185.8431 186.2102 186.4909 186.4909 186.6166 187.2996
   187.2996 188.0961 188.3903 188.3903 188.4125 189.0175 190.0956 190.3055
   190.5439 190.5439 190.6925 190.8270 191.5345 191.9563 191.9563 192.5075
   193.8310 193.9012 193.9012 195.0596 195.3467 195.5826 195.5893 195.5893
   195.8712 196.9960 196.9960 198.2174 198.8004 198.8004 200.5493 200.5493
   200.5828 200.9740 201.1935 201.4994 202.6018 203.8538 203.8538 204.4107
   204.7844 204.7844 204.8235 205.1155 207.5122 207.5122 208.3344 209.0788
   210.3175 210.3175 210.3225 211.2628 212.4160 212.9812 212.9812 214.2206
   214.3227 214.3227 215.0678 215.7988 216.4924 216.4924 216.8158 216.8158
   218.6878 218.7297 220.3833 221.5033 221.5033 221.6053 221.7663 221.9584
   224.0786 224.1779 224.1779 224.4850 224.4850 224.8310 224.8607 225.9623
   225.9623 226.2178 227.1016 227.1043 227.5703 228.4112 228.8347 228.8370
   228.8370 229.9065 229.9065 231.1206 231.1206 232.0632 232.0659 233.2086
   233.2097 236.2583 236.2583 236.4520 236.6627 238.2217 239.2379 239.2379
   239.7531 239.7531 240.3507 240.3866 241.7394 241.7394 242.5892 243.6321
   243.7508 243.7508 244.0080 244.0080 244.5001 244.5638 244.9570 245.0078
   245.0983 245.0983 246.2196 247.4533 247.4533 247.6393 247.8083 248.2147
   248.2423 248.3442 248.5628 248.5628 249.8240 250.0502 250.0502 251.1338
   251.1672 251.6747 252.0761 252.0761 252.1053 253.0922 253.1393 253.1795
   253.1795 253.2979 254.3060 254.3060 254.5251 254.5251 255.3980 255.7120
   255.9226 256.7779 257.0111 257.0111 257.1904 257.3395 257.3395 258.4408
   258.7171 259.0351 260.4139 260.4139 260.5424 260.9674 260.9674 261.1401
   261.2278 263.1037 263.4380 263.7039 263.7039 265.2322 265.2322 265.3544
   265.5860 265.8100 265.8100 265.8343 265.9014 268.3756 269.3097 269.3097
   270.3333 272.4377 272.7193 272.7193 273.0300 273.5783 273.5783 273.8977
   274.4379 274.9284 275.1860 275.1860 275.2069 275.4245 275.7881 276.5426
   276.5426 276.8488 276.9795 276.9795 278.1393 278.4646 278.7223 278.7223
   278.8119 279.5204 279.8217 279.8217 280.5856 281.5823 281.5823 281.8140
   281.9526 281.9526 284.3500 284.6222 284.6222 285.4075 286.7732 287.2503
   287.2503 287.5020 287.5627 287.7143 288.3020 289.0911 289.2349 289.2848
   289.2848 290.3279 290.3279 290.7295 291.0103 291.0103 291.4872 291.6059
   291.7272 291.8270 291.8270 292.1268 292.6732 292.8699 292.8699 294.3875
   295.4870 295.7153 295.7153 295.7644 295.9734 296.1300 296.1300 296.2135
   297.6612 298.1654 298.1654 298.2276 303.4714 303.9557 303.9557 304.0938
   304.2588 304.2588 304.3143 304.5836 304.9156 305.1032 305.1032 305.4245
   305.5164 305.5591 305.8590 305.8590 306.7700 306.7700 306.7719 307.7171
   307.7892 307.8929 308.6683 308.8894 309.1006 309.1006 309.5933 309.5933
   310.4894 310.8033 311.2829 311.2829 311.6803 311.6803 311.7462 312.0736
   312.5050 312.9284 312.9284 312.9646 313.2444 313.3958 313.3958 315.0194
   315.3994 315.3994 316.0949 316.8625 318.3107 318.5211 318.5211 318.6725
   319.6544 321.1345 321.1345 322.3541 322.5269 324.0789 324.1833 324.1833
   324.8193 325.4541 325.9593 325.9593 326.8546 327.7069 329.4761 330.9480
   330.9480 332.3848 332.3848 332.5151 332.8085 332.9027 332.9027 333.4732
   333.6449 334.0781 334.9593 334.9593 335.1729 335.2341 335.8868 335.9240
   335.9942 336.4839 336.4839 336.9237 336.9237 336.9712 337.0440 337.3611
   337.8567 337.8567 338.0736 338.1540 338.3628 338.4324 338.4324 338.6131
   339.2035 339.2035 339.9004 340.3148 340.3148 340.8884 341.4852 341.6637
   341.6673 341.6673 341.6826 342.1671 342.1671 342.2646 344.4415 344.6019
   344.7958 344.7958 344.8216 345.2004 345.2514 345.3432 345.3432 345.8939
   345.8939 346.6884 350.2412 350.4724 350.4724 350.6178 353.5091 354.6427
   354.6427 356.2474 356.2474 356.4194 356.6793 357.0405 357.0405 357.2929
   357.4366 357.4366 358.1073 358.6153 358.7743 358.7743 359.1026 359.1244
   359.2438 359.2903 359.3109 359.3109 359.3577 359.4609 359.4609 359.6426
   361.3948 361.4432 362.2682 362.2682 362.9325 362.9325 363.0992 363.1650
   363.1650 363.3414 363.5874 364.1309 364.8990 364.8990 365.4331 365.5281
   366.3357 366.3357 366.6261 367.0456 367.2761 367.3806 367.3806 367.4843
   367.5385 368.7076 369.2616 369.2616 369.6420 369.9709 370.0470 370.0470
   372.3809 372.4127 372.4127 372.4668 372.6545 372.7783 372.7956 372.7956
   372.9149 372.9149 373.1164 373.3445 374.0133 375.3857 375.6940 375.6940
   375.7388 375.8648 376.3861 376.3861 376.6745 377.8325 378.1406 378.1406
   378.4341 380.6625 380.8654 380.8654 380.9880 381.0243 381.4165 381.4165
   381.5891 382.2657 383.8048 383.8244 383.8244 385.3229 385.8296 385.9751
   385.9751 386.0624 386.2397 386.2397 386.2693 386.4885 387.7124 387.7124
   387.7553 387.7773 388.0933 388.0933 388.3400 388.6269 388.6269 388.8420
   389.8796 391.0131 391.0131 391.4420 391.4513 391.4554 391.5137 391.5137
   391.6622 391.6622 391.6834 391.8040 392.0572 392.6364 392.6364 393.0415
   394.0790 395.7865 395.7865 395.8241 396.3143 396.3246 396.9354 396.9354
   397.2563 399.2379 399.4034 399.4034 399.5126 399.7849 399.8599 399.8599
   399.8921 400.0417 400.1828 400.2417 400.2417 400.2836 400.8465 400.9848
   400.9848 401.1368 401.7897 401.8843 401.8843 402.0856 402.7796 403.2260
   403.2260 403.5864 403.6124 403.7989 403.7989 403.8069 404.0817 404.0817
   405.9273 408.4412 408.6699 408.6699 408.7009 409.2292 409.6910 409.8238
   409.8238 410.8884 412.6850 412.9249 413.2484 413.2484 413.8129 414.1995
   414.5912 414.5912 415.1441 415.5125 415.7893 415.7893 416.0092 416.4638
   416.4638 416.4893 416.6459 418.4917 418.5816 418.5816 418.7261 419.3803
   421.3833 421.3833 423.3966 423.3966 423.3977 424.0642 424.3960 424.3960
   424.8324 424.8552 425.4524 426.7443 426.8118 426.8118 426.8770 427.0882
   427.1797 427.3119 427.3119 427.9343 428.0967 428.1044 428.1044 428.5517
   428.5896 428.5896 428.6824 428.8372 428.8663 428.8663 430.5953 431.3674
   431.7055 431.7055 432.2741 432.8050 432.8050 433.3231 433.4724 433.4724
   433.7907 433.9560 434.4187 434.4663 434.9239 435.0691 435.0691 435.1760
   437.1080 437.1080 437.5970 437.7724 438.1853 438.1853 438.8149 439.9071
   440.3290 440.3290 440.4460 440.5486 440.5486 440.6867 441.4500 443.2301
   443.2828 443.2828 443.4422 443.7630 443.8359 443.9266 443.9266 444.1848
   444.1848 444.2581 444.6659 444.7152 444.7361 444.7361 444.9474 445.8031
   445.8031 447.9656 448.0416 448.0416 448.0982 450.2959 450.3231 450.3231
   450.4039 450.4039 450.4138 450.5213 450.9363 451.5054 451.5054 451.9522
   451.9707 451.9767 451.9767 452.0100 452.7048 452.8301 452.8301 452.8905
   453.1278 453.5389 453.5389 453.6003 454.7216 454.8100 454.8100 454.8659
   455.3885 457.6245 457.8988 457.8988 458.1610 458.7633 458.7892 458.7892
   459.1547 459.3690 459.3690 459.3834 459.9329 460.9215 462.2807 462.3075
   462.3075 462.3179 463.2690 463.3619 463.3619 463.6543 463.6953 463.9658
   463.9658 464.8328 465.4226 465.6561 465.8415 465.8415 465.9482 466.2686
   466.2783 466.2783 466.3457 466.4178 466.4959 466.4959 466.6329 467.0868
   467.0868 467.8455 468.5669 469.4023 469.4023 470.3177 470.6347 474.6652
   474.6652 476.0043 476.5085 476.5085 476.8104 476.8373 476.8979 477.0307
   477.0307 477.5037 477.5037 477.5307 477.5717 479.4542 480.1837 480.1837
   480.9116 481.5885 482.4278 482.4474 482.4474 482.6377 482.7231 482.7231
   482.7937 482.7952 482.8864 483.2459 483.2459 483.5222 484.7167 484.8258
   484.8258 485.0460 485.3671 485.6126 485.6126 485.8077 485.9860 486.1154
   486.1154 486.2097 487.7108 488.6141 488.8299 488.8299 489.0612 489.6001
   489.6001 489.8104 489.9289 490.3743 490.6113 490.6113 491.6124 491.7491
   492.0185 492.0185 492.9688 492.9688 493.3271 493.3383 493.3778 493.3778
   493.4607 493.9567 495.4789 495.5243 495.5243 495.5362 496.4152 497.1689
   497.4049 497.4049 497.6772 497.9942 498.2130 498.2130 498.4274 498.4274
   498.7028 499.3288 499.6954 500.0829 500.0829 500.3977 500.8781 500.9941
   500.9941 501.1116 501.2272 501.3000 501.4861 501.4861 502.1202 502.1969
   502.1969 502.3797 502.3841 502.4403 502.4403 503.1915 504.4391 505.3582
   505.8500 505.8500 506.5349 506.8541 507.9609 508.2626 508.2626 508.3390
   508.3390 508.4688 508.9243 508.9243 508.9765 508.9867 509.7311 509.7311
   510.0078 510.3317 510.8185 510.8185 510.8356 510.8433 510.8814 511.1224
   511.1887 511.1887 511.2855 512.7693 512.7771 512.7771 512.9409 513.8449
   513.9924 514.5425 514.5425 515.1875 516.6379 516.8270 516.8270 516.9370
   517.1099 517.1099 517.1216 517.1847 517.4855 517.9994 517.9994 518.2509
   518.2632 518.2832 518.2832 518.3057 518.4918 518.5315 518.5315 518.7333
   519.8813 520.1956 520.1956 520.4167 521.3615 521.3615 521.3887 522.2757
   523.9223 524.4878 524.4878 524.9402 525.4776 525.6531 525.6531 525.6845
   525.7070 525.7071 525.7252 525.8679 526.9675 526.9743 526.9743 526.9838

          k = 0.7500-0.2500 0.7500 (  3667 PWs)   bands (ev):

   -81.5875 -45.0811 -45.0799 -45.0795  -6.3754   3.6689   4.2703   4.4948
     5.9550   6.2288   6.4172   7.2295   7.3086  12.3490  14.9317  16.5403
    17.7122  20.2711  22.7783  23.6682  25.1454  25.3708  27.8093  29.8311
    30.2521  31.4059  32.2099  32.7165  33.4386  37.2168  37.2656  37.6177
    37.9861  39.1994  41.4778  42.0626  42.7743  44.7285  45.3638  45.9753
    46.5755  46.8782  47.9122  49.7517  50.9775  53.2366  54.0121  55.1163
    55.1944  56.7604  57.3446  58.3274  58.7714  59.1701  59.9920  60.7235
    61.3440  62.2770  63.2533  63.5394  64.5771  66.0705  68.0710  68.5046
    69.4226  69.5614  69.9750  71.7250  71.9835  72.6355  73.6531  74.0022
    74.4437  74.8153  75.2356  75.7658  75.8948  76.9856  78.0647  78.1370
    79.9005  81.2024  82.0749  82.4850  83.3279  83.4441  84.2943  84.5472
    85.1226  85.4242  87.3636  88.2344  88.3486  89.4980  89.9210  90.4869
    91.7105  92.2268  92.6478  93.1144  94.0523  94.1227  95.5141  96.6460
    96.7169  97.0275  98.4418  98.6848  99.0000 100.0069 100.5996 101.8180
   101.8332 102.4349 103.6603 104.2929 104.4846 105.1143 106.0917 108.7108
   108.7338 109.4662 109.9046 110.6150 110.7055 111.0149 112.1588 112.4860
   113.5783 114.3512 114.7603 115.2341 116.1423 116.3898 116.8502 117.0919
   117.2812 118.1676 118.8307 120.2853 120.5042 120.7289 121.0102 121.3475
   121.3572 123.7052 123.9264 125.1378 125.8159 125.8263 127.1003 127.9642
   128.1436 128.3669 129.0838 129.2970 129.9644 130.9913 131.0817 131.7283
   132.4507 132.8468 133.4483 134.2751 134.3302 135.1228 135.1274 135.8172
   135.9055 137.6646 138.0285 138.4452 138.9744 139.5189 139.5392 140.5813
   140.8656 141.0799 141.9478 142.6491 143.7469 144.0423 144.1017 144.7484
   145.3283 145.4620 145.8869 146.1220 146.2071 147.0644 148.4018 148.6294
   148.8439 149.5861 149.9018 150.6475 151.8102 152.4596 153.0551 153.1554
   154.2504 154.5824 155.3218 155.6232 156.2391 156.4598 157.2541 157.6247
   158.0124 159.6308 160.3108 161.3830 161.6236 161.9216 162.8483 162.8725
   163.4898 163.9127 163.9916 164.6385 164.8045 165.0648 165.9371 165.9631
   166.7356 167.3039 168.0202 168.3165 169.1020 169.3162 169.7155 170.3570
   170.5104 171.0753 171.4306 172.3572 172.7301 172.8904 172.9788 173.6490
   174.4727 175.5138 176.3288 177.1774 177.6616 178.1694 178.2297 179.7885
   181.6916 181.7338 181.8530 182.8883 183.2567 183.3982 183.6074 184.1388
   184.4683 184.9662 185.2407 185.5748 185.6860 186.1643 186.9919 187.1522
   187.3538 188.6001 189.3001 190.0369 190.2130 191.2859 191.4459 192.1881
   192.7506 193.1488 193.5909 193.8585 194.2628 194.4052 195.0477 195.1105
   195.7162 195.7802 195.9583 196.7389 197.2939 198.6439 199.2715 200.2731
   200.3747 201.0771 201.2870 201.5855 201.7786 202.3354 202.9885 203.5227
   204.5012 204.5153 204.9763 205.1257 205.5756 206.1059 206.4589 206.5612
   206.9062 208.1795 208.6149 208.8847 209.5611 209.7859 209.9699 210.0345
   210.1857 210.6026 210.9012 211.0283 211.0753 212.9105 212.9339 213.1582
   214.2031 214.3719 214.5232 215.4934 216.4313 216.5633 217.4004 217.5382
   218.4248 218.5050 218.7094 219.9123 220.5374 221.1640 221.6129 222.0743
   222.0750 222.6466 222.6720 223.3267 223.4859 223.9025 224.3295 224.5132
   224.9726 225.2995 226.1061 226.4597 227.1584 228.2364 228.8030 229.0848
   229.2380 229.9628 230.1598 230.3779 230.6615 230.7716 231.6418 232.3698
   232.6436 232.9151 232.9448 233.2614 233.9805 234.3537 234.4789 234.7532
   234.9907 235.6776 235.8272 236.0338 236.5067 236.7183 236.9690 238.4182
   238.8894 239.2023 239.3138 239.5215 240.1230 240.2536 240.5315 241.1103
   241.7861 242.1259 242.8171 243.3338 243.6413 244.4549 244.5492 244.9803
   245.4264 246.7153 246.7302 247.4202 247.9524 249.0308 249.5205 250.4222
   251.0023 251.0409 251.3962 251.6223 251.9255 252.0215 252.9014 253.8951
   254.1578 254.4190 254.5289 255.4634 255.7839 256.1678 256.2729 256.3475
   256.4405 256.4894 256.7621 257.0181 257.7629 258.8483 260.2744 260.3910
   260.8884 260.9892 261.2762 261.9730 262.0457 262.0730 262.5290 262.6319
   263.2293 263.7495 264.3682 264.4446 264.7755 265.6077 265.7649 265.8759
   266.4885 266.6637 266.9124 266.9530 267.4914 268.2383 268.4160 268.6474
   269.2689 270.9799 271.1238 271.7632 273.0039 273.1456 274.4481 274.6654
   274.8357 276.0501 276.1899 276.6155 276.7138 277.0666 277.3586 278.1604
   278.1914 278.4046 278.8863 279.2398 279.6866 279.7636 279.9217 280.3743
   280.8954 280.9849 281.6321 282.3480 282.5416 282.6709 282.9475 283.1986
   283.8523 284.3133 284.4536 284.8666 285.0702 285.3072 285.4132 286.4391
   286.5065 287.4327 287.5717 287.7191 287.8140 288.2909 288.5216 289.6853
   290.5818 291.4591 292.1154 292.3029 292.9255 293.0123 293.2828 293.3688
   293.8042 294.1162 294.9895 295.8230 296.5741 297.1985 297.5783 297.7581
   297.9271 297.9524 298.5267 298.5823 299.3264 299.4037 299.5682 299.9548
   300.3209 300.7585 301.0898 301.5718 301.7819 301.9626 302.7867 303.2769
   303.4793 303.6258 304.4509 305.0743 305.1057 305.2702 305.8950 306.2132
   306.4779 306.6973 307.1528 307.2337 307.5276 307.6579 307.9027 308.0592
   308.4443 308.5996 309.0344 309.3994 310.0066 310.5027 310.5746 310.6230
   311.0209 312.8391 312.8867 312.9150 313.4728 313.6928 314.1516 314.2223
   314.3915 314.9698 315.1353 315.3610 315.5107 316.2467 316.8672 317.4868
   317.7976 317.8673 317.9817 318.6343 319.7953 320.3758 320.5033 320.8791
   321.4123 321.4491 321.4721 321.5227 322.3894 322.6066 323.2469 323.8275
   323.9087 324.5963 324.6473 325.1373 325.5215 325.7418 326.5310 327.0642
   327.1647 327.2614 327.4656 328.6196 328.8836 329.1066 329.2199 329.3065
   329.8867 331.3501 331.4262 332.1899 332.7964 332.9391 333.2254 333.5111
   333.7836 334.4270 334.4310 335.4050 335.4203 335.4584 335.8900 335.9945
   336.3896 336.4137 336.5083 337.0654 337.1941 337.3505 337.4793 337.6109
   337.8877 338.5597 338.5904 339.1856 340.1886 340.6319 341.0249 341.1431
   341.4697 341.7806 342.2719 342.4783 342.6236 342.7095 342.7728 343.3869
   344.4001 344.4703 344.6942 345.6979 345.9209 346.1409 346.3364 346.5466
   346.6173 347.1701 347.2911 347.6822 347.9159 348.3886 348.5098 348.7808
   349.4186 349.7451 350.6722 351.9002 351.9307 352.0908 352.5513 352.5795
   352.6877 352.8351 354.1571 354.1578 354.4020 354.4895 355.5559 355.5611
   356.8692 357.0701 357.1831 357.3283 357.3984 357.5456 357.9691 358.0259
   358.4260 358.4644 358.8976 358.9256 359.2326 359.5146 360.0933 360.3927
   360.6295 360.6892 361.8041 363.4313 363.4505 363.7237 363.7555 364.0414
   364.1482 364.6631 365.5175 365.6443 365.8243 366.3926 366.8940 367.9663
   368.0745 368.2726 368.7346 369.4123 369.5826 369.8384 370.4109 371.0840
   372.6326 372.7385 372.8009 373.0123 373.6264 373.7805 373.8793 374.2299
   374.5143 374.6407 374.8773 374.9991 375.4070 375.7121 375.8612 376.1430
   376.2200 376.9338 377.0942 377.2990 377.4382 377.7989 378.8636 378.9401
   379.3574 379.4981 380.2818 380.3039 380.4310 381.0264 382.6629 382.6945
   382.9880 384.4787 384.7978 384.8440 385.0785 385.3936 385.7814 387.0767
   387.4610 387.5406 387.8292 388.6464 388.8430 388.8781 389.0573 389.1873
   389.3113 389.3914 389.5426 389.6314 389.6609 390.2467 390.3935 390.6366
   390.7665 391.2020 391.3314 392.0763 392.1969 392.5069 392.8719 392.9057
   393.4371 394.3583 394.6593 394.8883 395.1834 395.2410 395.4518 395.6842
   395.7752 396.0782 396.3595 396.7198 396.9709 397.2192 397.5199 397.6302
   397.7314 398.0317 399.3571 399.5821 399.9355 399.9894 400.1336 400.3596
   400.4082 401.3584 401.5261 401.8681 402.3769 402.7623 403.5106 403.7969
   404.0164 404.3807 404.5912 404.7805 405.8518 406.0876 406.1233 406.2434
   407.1174 407.5637 408.8675 408.8745 409.0597 409.1372 409.3220 410.0193
   410.1643 410.6059 410.6124 411.0104 412.2340 412.4479 412.7935 413.1317
   413.7485 413.8501 414.1996 414.8102 415.1855 415.4352 415.5342 415.7216
   416.0170 416.4687 416.8577 418.3943 419.2589 419.4005 419.5063 419.5756
   419.9032 419.9390 420.0486 420.1823 420.9724 421.4897 421.5834 421.8724
   421.9746 422.4587 422.9622 423.2279 423.4681 423.7424 424.4229 424.5005
   424.6457 425.3178 425.4252 425.4260 425.8498 425.9723 426.1973 426.2131
   426.2969 426.9060 427.1935 427.8717 427.9012 429.0248 429.3517 429.4437
   429.5627 429.8520 430.0405 430.0625 430.4512 430.8766 430.9750 431.3130
   431.4155 431.4336 431.5119 431.5880 432.2903 432.3583 432.7247 432.7994
   433.0839 433.4268 434.1087 434.3618 434.4607 434.5000 434.7326 434.8328
   434.9566 435.2917 435.6037 436.4865 437.0379 437.1684 437.3265 437.8617
   438.0318 438.1000 438.5327 438.8030 438.8310 439.1949 439.4876 439.6403
   439.7226 440.0711 440.5082 440.5625 440.8638 443.2750 444.5531 445.0697
   445.1841 445.3997 445.5762 446.0424 446.2123 446.4419 446.4753 447.4032
   447.9351 448.3393 449.0569 449.3685 449.5299 449.6738 449.8503 449.8649
   449.9124 449.9645 450.0474 450.2918 450.3058 450.3074 450.6887 450.7625
   451.0600 451.2655 451.3305 451.5654 451.7439 452.2929 452.5228 452.8155
   453.5463 453.7918 454.0409 454.5479 454.7446 454.7735 455.2489 455.2662
   455.5665 455.5836 456.3726 456.6899 456.7515 458.1750 458.4468 458.9215
   459.1659 459.6533 460.1577 460.8276 460.8853 460.9209 461.5174 461.7285
   461.7778 462.2054 462.3086 462.7862 462.8836 463.4987 463.5995 463.8892
   463.9874 464.3265 464.4158 465.5731 465.6682 465.7985 466.1390 466.2407
   466.5036 466.8190 467.6845 467.7716 468.0656 468.1664 468.3883 468.4640
   468.5005 468.5550 468.7742 469.6871 469.7136 469.7394 470.2276 470.3364
   470.9595 471.5417 472.6417 472.9155 473.3030 473.3581 473.4323 473.9786
   474.2646 474.4190 474.9694 475.0611 476.5266 476.6043 476.7193 476.8665
   476.9702 477.0802 477.4628 477.5232 478.1013 478.7575 478.9748 478.9835
   479.1004 479.3314 479.5461 479.6114 480.2365 480.2952 480.5907 480.9628
   480.9910 481.4763 482.2995 482.7126 482.7948 483.5722 483.6638 483.8859
   483.8896 484.1870 485.4104 485.5161 485.7244 486.0811 486.6011 486.8237
   486.8460 487.9065 487.9957 488.2241 488.5369 488.5856 488.8105 489.1800
   489.3317 489.5170 489.8355 489.9726 490.0224 491.0310 491.3834 491.4202
   491.7495 492.0403 492.3791 492.6153 492.7736 493.3765 493.5420 494.1935
   494.2095 494.3772 494.5191 494.5227 495.4798 495.6160 495.9302 496.1303
   496.1978 496.2181 496.4196 496.5347 497.0093 498.5717 498.8618 499.1577
   499.1712 499.3306 499.4817 499.9329 500.1042 500.3546 500.7066 500.7126
   500.9766 501.0620 501.8444 502.0459 502.0957 502.1301 502.4594 502.7850
   503.5226 505.1208 505.2103 505.2984 505.4261 505.9471 506.2982 506.5351
   506.7262 507.0293 507.3985 507.5437 507.7459 507.7850 508.0453 508.1281
   508.2854 508.8521 509.7077 509.8009 510.3632 510.3866 511.2291 511.2536
   511.9199 512.2709 512.3184 512.4470 512.4731 513.4871 513.4925 515.0727
   515.0741 515.7180 515.7841 516.6108 516.6291 517.8357 517.9116 518.4886
   518.7497 519.3186 519.6620 520.1788 520.1990 520.8324 520.8668 521.0541
   521.2323 521.5338 521.8331 521.8434 522.0143 522.0731 522.0787 522.2430
   522.2723 522.6723 522.7099 523.1664 523.5315 523.8457 524.3393 524.3592
   525.1038 525.2947 525.3983 525.9838 526.7022 526.7347 527.5781 527.6237
   527.7401 528.0092 528.0109 528.7610 529.0435 529.0571 529.0810 529.2233

          k = 0.5000 0.0000 0.5000 (  3669 PWs)   bands (ev):

   -81.5875 -45.0808 -45.0800 -45.0792  -6.4188   3.5222   4.2067   4.5604
     6.0819   6.1723   6.5808   6.6359   8.1970  13.2836  14.3729  16.1420
    16.8559  20.4703  22.6808  24.1613  24.5530  25.2942  27.3080  28.2748
    31.3755  31.8895  32.1663  32.4481  35.7230  36.4124  37.7607  37.9888
    39.5240  39.8109  40.0252  41.0103  43.9009  44.1460  45.0388  45.1417
    47.3230  48.7619  48.9200  50.5405  51.3370  51.7405  51.7798  53.5247
    53.8109  55.1872  58.2712  58.3290  58.4565  59.1990  60.1604  60.6905
    63.2624  63.6087  63.6754  64.6174  65.2013  65.5440  66.4157  66.4326
    68.3483  69.4761  70.4549  70.6946  70.8913  71.2742  72.3065  73.8775
    73.8976  74.6871  76.8410  77.0766  77.8737  78.3296  79.1910  79.4143
    79.8772  80.7423  82.1464  82.5645  83.0530  83.5251  83.8984  85.3441
    86.1765  86.2211  86.7330  86.7753  87.5250  88.2465  90.5479  90.8607
    91.0074  91.2675  92.5323  95.1682  95.3500  95.6505  95.8061  96.0647
    97.7858  98.6545  98.8184  99.1611 100.4560 101.2789 102.0464 102.1881
   102.3651 103.5114 104.1509 104.5278 105.3511 105.6172 105.7230 106.3271
   107.3285 107.7468 108.5550 109.0624 110.4448 111.2411 112.3738 112.9552
   113.2255 114.0986 114.1423 114.9745 115.0749 115.0918 115.9351 116.7514
   117.1319 117.2689 117.6998 118.5215 118.7866 119.9380 120.2265 120.7946
   123.7478 124.3516 125.0979 125.1093 125.9703 126.7257 127.0126 127.0743
   127.2276 127.2295 127.5001 127.5167 128.9176 129.8066 130.8288 131.5375
   131.9455 132.0521 132.5696 132.6572 132.7730 132.9428 133.3190 135.2537
   135.5060 135.8900 136.7407 138.2985 140.0739 140.1740 140.3267 141.8019
   142.5681 143.0653 143.3355 144.0583 144.7097 145.4647 145.7460 145.7580
   146.6787 147.2689 147.7102 147.9568 148.8105 148.8145 149.2377 149.9325
   149.9999 150.3386 151.3623 151.8699 152.5565 153.4297 153.4902 153.7036
   154.2844 154.8281 155.3482 155.3799 155.4389 156.6649 156.8292 159.1281
   159.2337 159.3237 159.6269 160.5704 161.2570 161.2707 161.4674 162.6102
   164.0551 164.3813 164.4173 164.7345 164.8205 165.1285 165.1992 166.1123
   166.8762 167.4106 167.6671 168.4341 170.3874 170.4443 170.9062 171.0853
   171.7632 172.0188 172.2802 172.3040 173.6767 174.1325 174.1732 175.2390
   175.4234 175.6027 176.2879 176.4514 176.4646 177.4040 177.5638 178.2553
   180.6780 180.8890 181.1520 181.6381 182.0302 182.1983 182.2825 183.9096
   184.0940 184.8103 185.0570 185.1474 186.2978 186.4156 186.4433 186.6554
   187.0021 187.4781 187.4995 188.2410 188.6066 189.0041 189.3678 189.5923
   190.6193 192.4360 192.9023 192.9665 193.3605 193.3776 193.6909 193.9669
   195.3687 196.3236 196.8774 197.5111 197.5731 197.7349 198.0086 199.2660
   199.7464 199.9820 200.4955 201.0743 201.1358 202.2760 202.7180 203.1280
   203.2596 203.5476 204.3325 204.8504 206.1523 206.2798 206.6166 206.7003
   207.2941 207.8307 208.7568 209.2346 209.3149 209.6617 210.7163 210.8088
   211.5862 211.8327 212.4608 213.0958 213.2671 213.4228 214.0341 214.0437
   214.4899 214.8556 215.5525 215.5729 215.8124 215.8239 216.2412 216.3804
   217.1627 218.1737 218.6191 218.8332 219.1288 219.2468 220.6401 220.6539
   221.2965 223.2387 223.2407 223.7467 223.7876 225.2399 225.3363 225.9057
   226.8912 227.0983 227.5324 227.6174 227.9718 228.1226 228.9035 229.0552
   229.2012 229.4500 229.7580 230.3558 230.5570 230.6004 230.7527 230.9068
   232.2407 232.8757 233.2617 234.3366 234.4803 235.0461 235.3150 235.4116
   235.5135 235.6019 235.7712 235.8859 235.9775 236.5771 238.7053 239.3052
   240.1167 240.7847 241.0935 241.6364 241.7814 242.0110 242.4500 242.7515
   243.1144 243.5841 244.1553 244.8153 245.5586 245.6030 246.0043 246.6738
   247.3015 247.4154 247.7513 247.8997 248.3089 248.8366 249.1048 249.3051
   249.3994 250.7720 250.8353 251.0020 251.2155 251.5082 251.9463 252.1256
   252.3051 252.6928 252.8658 254.5699 255.0503 255.0527 255.2339 256.2559
   256.8946 256.9609 257.2750 257.7741 257.9326 258.5582 258.8390 258.9830
   259.1376 261.1099 261.5295 261.8038 261.9255 262.0309 262.7744 262.8192
   262.9088 263.3039 263.6951 263.9040 264.3962 264.6077 265.3410 265.4858
   266.1718 266.4640 268.4942 268.5960 269.6983 270.1828 270.4667 271.6382
   271.6400 273.5011 273.5286 274.0335 275.1098 275.1920 275.5653 276.0657
   276.1575 276.3775 276.5994 277.3533 277.7364 277.7885 278.0133 278.0990
   278.2981 278.6770 278.8415 278.9256 278.9634 279.3704 279.5384 279.7390
   281.0900 281.2466 281.4751 281.7180 281.9279 282.1054 282.4681 283.0784
   283.3702 283.6200 283.7263 284.1320 284.1796 284.2588 284.6000 284.9978
   285.5683 285.7551 285.9473 286.2476 286.4307 287.3401 287.8520 288.2371
   289.3550 290.2010 291.0179 291.7491 291.8878 291.9165 291.9649 292.2384
   292.2396 293.9953 294.0397 294.0514 294.1408 295.1082 295.3610 296.1281
   296.4726 296.6798 296.6876 297.0004 297.4279 297.4505 298.1088 298.3938
   298.5090 299.3693 300.3468 300.6388 302.1172 302.2992 302.9142 303.1270
   303.1827 303.2142 303.5483 303.6108 303.8614 304.0186 304.3560 304.9470
   305.8502 306.2144 306.8696 307.1277 307.5800 307.8275 308.1029 308.5627
   308.6205 309.5444 309.8924 310.5666 310.7490 310.7929 310.8825 311.0573
   311.4606 311.8848 312.3006 312.7539 313.2958 313.7195 313.8679 314.0583
   314.0761 314.5915 315.6406 316.0237 316.1817 316.7014 316.7297 317.8191
   318.8238 318.8714 318.9373 318.9765 319.0559 320.2325 321.3245 321.4124
   321.7966 321.8777 322.0919 322.3924 322.8220 323.5051 323.7411 323.8120
   324.0183 324.5109 324.9424 325.1260 325.5076 325.6970 325.9498 327.8258
   327.8653 327.9177 328.2034 328.5200 329.0482 329.1099 329.7638 329.9580
   330.4303 330.4371 330.8161 331.4350 331.5332 331.6475 331.8574 331.9416
   332.1176 332.4253 332.4924 332.7930 334.2969 334.4295 334.7689 335.2057
   335.4090 336.1185 336.2390 336.5587 336.7285 337.2939 338.3392 338.8416
   338.9040 339.0479 339.2827 339.4562 339.5433 340.3728 341.3784 342.0896
   342.0955 342.3254 342.7959 342.8369 343.5207 343.5411 343.8403 343.9253
   345.4059 345.5738 345.9177 346.4884 347.0190 347.1877 347.5347 347.5660
   348.0139 348.3016 349.0833 349.4099 349.8426 349.9438 350.9340 351.3759
   351.4133 352.0952 352.1341 352.2762 352.6708 352.6938 352.9120 353.1678
   354.8464 355.4378 356.0206 356.7216 356.7263 357.1030 357.6512 357.8059
   357.8593 357.9864 359.1669 359.3658 359.4389 359.5649 359.8695 360.0428
   360.2752 361.2611 361.4240 361.4913 361.8388 362.3001 362.4258 362.8140
   362.9082 363.0383 363.3369 363.3945 363.7612 365.2020 365.4319 365.5521
   365.6827 365.7539 366.5119 366.5208 366.7581 367.1904 367.9158 368.2056
   368.2424 368.4115 368.5158 368.6850 368.7167 369.6097 369.6325 370.1936
   370.2748 370.3571 371.1753 371.1996 371.3271 371.5573 371.6108 372.1039
   373.8398 374.5773 374.6715 374.9268 375.0456 375.2771 375.4105 375.8506
   375.9239 376.5021 377.2713 377.4454 377.4601 377.5742 378.0026 378.5457
   379.5110 379.5617 380.4945 380.5253 380.6861 380.7514 380.7850 380.8188
   381.0213 381.5121 381.6039 381.6781 381.8082 381.8424 382.2341 382.2411
   384.7276 384.7445 385.5325 385.7152 389.1307 389.1832 389.3148 389.4225
   389.4575 389.5473 389.5525 389.7953 389.9504 389.9836 390.2631 390.2784
   390.8071 390.8224 392.1879 392.2610 392.2949 392.4507 392.7296 392.8473
   393.2640 393.6324 393.8386 394.2841 394.5327 394.5645 395.3880 395.5881
   395.5970 396.4445 396.7289 396.8472 396.8587 396.9810 398.5208 398.6893
   398.7309 399.3508 400.4603 400.7706 400.8371 401.9028 401.9501 401.9535
   401.9879 402.3185 402.3512 402.7094 403.0575 403.3898 403.6648 403.6861
   404.5801 405.1746 405.2693 405.3444 405.8413 405.9671 405.9999 406.0360
   407.3519 408.0823 408.5998 408.6545 408.7642 408.7841 409.2219 409.2547
   409.2800 409.3292 409.3475 409.6381 410.5213 410.5807 411.0762 411.2268
   411.5870 411.8265 411.9037 411.9661 412.7250 413.0310 413.2578 413.4368
   413.4599 414.0289 414.1486 414.5076 414.7469 415.7544 416.9405 417.0990
   419.1263 419.2155 419.5708 419.5725 419.6789 420.1545 420.5943 420.6957
   420.6971 420.8081 420.8856 420.9035 421.0048 421.1779 421.1796 421.5736
   421.7239 423.2907 423.8163 424.3593 424.8011 424.8641 424.9294 425.1156
   425.1381 425.2881 426.0405 426.0865 426.0923 426.1157 427.1633 427.2594
   427.3372 427.9562 430.0482 430.3260 430.3463 430.4455 430.4475 430.6709
   430.7135 430.9300 431.1614 432.2593 432.9706 432.9848 433.0639 433.7029
   433.8278 433.8802 434.1484 434.5786 435.3466 435.3982 435.7457 435.9173
   436.2065 436.4300 436.6914 437.4353 437.4676 437.4928 437.5181 440.9899
   441.2250 441.4061 441.4513 441.4950 441.5246 441.6074 441.6260 441.8673
   441.9199 442.8875 443.3540 443.7596 444.0524 444.2033 444.6480 444.8656
   444.8958 445.6498 446.0415 446.1714 446.2559 446.6237 446.6291 446.6791
   446.9462 448.5683 448.5932 448.7406 448.8709 449.7213 449.9778 449.9990
   450.2844 450.6759 450.7735 450.8260 451.7492 451.9446 452.3633 452.4994
   452.5198 452.6966 453.0724 453.6966 453.8503 453.8588 453.8965 453.9373
   454.1114 454.1287 454.9372 454.9480 455.1971 455.6740 456.4325 456.9544
   457.0729 458.1860 458.5800 458.5974 458.6255 458.6955 459.1684 459.5324
   459.8801 459.9383 460.2185 460.3487 460.5284 461.9943 462.0307 462.8936
   462.9022 463.7455 463.7459 464.9003 465.0102 465.0243 465.2177 465.2672
   465.3034 465.3446 465.4752 465.5608 465.7090 465.8637 466.0370 466.0540
   466.0776 466.5074 466.7050 466.8987 466.9253 467.4185 467.4369 468.8751
   469.2984 469.3701 469.4812 469.5514 469.6406 469.6514 469.8937 469.9022
   469.9390 469.9431 470.0021 470.7214 470.7797 471.7026 471.7070 472.5399
   472.5441 472.8140 472.8348 475.7956 475.8021 475.8316 475.8343 476.5368
   476.6980 477.3847 477.5293 477.7389 477.8235 479.7619 479.7654 480.1669
   480.2250 482.7945 482.8385 482.9854 483.0966 483.2731 483.2764 483.8788
   483.9004 483.9541 483.9667 484.1605 484.1933 486.3030 486.4006 486.4043
   486.4813 486.6146 486.6639 486.9033 487.0173 487.1629 487.2737 487.4210
   487.4712 487.6121 487.9131 487.9599 487.9668 488.0550 488.0966 488.6034
   488.8161 489.0487 489.2257 489.9257 490.0782 490.8630 490.9907 490.9930
   491.4620 491.4787 491.7884 491.8039 492.9510 492.9799 493.0280 493.1527
   493.1590 493.1914 493.6084 494.7929 494.8051 495.5403 495.5417 496.8621
   497.0319 497.0709 497.5556 497.9355 498.1639 498.3758 498.3856 499.2129
   499.2286 499.7916 499.8309 500.1146 500.2149 500.2219 500.2836 502.0734
   502.1334 502.3220 502.4754 502.5647 502.9133 503.4373 503.4741 504.7361
   504.7735 504.9251 504.9559 505.7660 505.8000 505.8660 506.0767 506.6028
   506.6075 507.4484 507.5058 507.5320 507.9104 508.6661 509.1101 509.1776
   509.2693 509.4968 509.8632 509.8633 510.0209 510.1854 510.3715 510.3977
   510.6220 510.7918 510.9722 511.1400 511.2985 513.4289 513.4512 515.0814
   515.2273 515.5164 515.5611 515.8829 515.9031 516.5119 516.5377 516.8133
   516.9147 517.0802 517.3449 519.2412 519.2583 519.4985 519.7207 519.8059
   519.8357 519.8716 519.8861 520.4180 520.5091 520.6138 520.6146 520.8776
   521.2115 521.5649 521.7907 522.0042 522.2953 523.6449 523.8353 524.2827
   524.5003 524.6666 524.6783 524.8848 524.9357 525.1341 525.3709 526.2562
   526.3664 527.0879 527.1415 528.0751 528.1894 528.2477 528.2617 528.3058

          k = 0.0000-1.0000 0.0000 (  3692 PWs)   bands (ev):

   -81.5875 -45.0814 -45.0799 -45.0799  -6.3673   3.9897   5.2538   5.2538
     5.5030   6.0525   6.2973   6.2973   6.3865  10.7464  16.3810  16.9589
    19.8507  19.8507  23.6231  23.6231  24.0463  26.1703  27.7593  29.9575
    30.6321  31.4077  31.4719  31.4719  33.3885  34.9217  34.9217  37.5175
    37.5175  38.6635  41.9937  43.5935  44.6952  45.4805  46.0460  46.0460
    47.6184  48.9139  48.9139  50.5782  50.5782  50.9061  51.9771  53.6380
    53.6380  56.6042  58.0823  58.8450  59.9277  59.9277  60.1501  61.0859
    61.2536  63.3261  65.1508  65.1508  65.2729  65.7738  66.3238  67.1097
    69.1543  69.1543  69.9545  69.9545  70.9138  72.1002  72.1393  72.6191
    72.6191  77.0257  77.0257  77.2691  77.3704  78.1557  80.8514  80.9809
    80.9809  81.3191  81.3191  81.9381  82.0179  83.8596  83.8596  84.3151
    84.3151  84.4743  84.6412  85.6073  88.2201  88.6344  88.6344  90.9611
    91.9487  92.0001  92.6687  92.6687  92.7555  94.8034  94.8034  96.5653
    97.3027  98.9417  99.9174  99.9578  99.9578 101.0018 101.0018 101.1872
   102.8285 103.3550 103.7665 104.4490 104.4490 104.8477 105.0814 105.5249
   105.9096 105.9096 107.7595 107.7595 109.7130 111.3116 111.4407 111.4407
   112.1848 112.4525 112.4525 112.9325 116.5789 117.0293 117.4398 117.5606
   117.5606 119.3346 119.3573 123.1598 123.1598 124.3129 124.8942 125.9083
   125.9698 126.9556 126.9556 128.4818 128.4818 128.9831 128.9831 129.1989
   129.2856 129.2856 129.7475 130.2808 130.6530 130.7132 130.9359 132.7337
   132.7337 132.7556 132.7556 133.7777 133.9799 134.7685 136.6183 136.6183
   136.8898 137.5303 137.5303 137.6435 137.7345 138.3736 140.0107 140.6733
   140.9527 141.1008 141.1008 142.0025 142.0025 142.3748 142.4206 142.5836
   142.5836 143.0597 145.6810 145.9258 146.3756 146.9524 146.9524 147.3144
   147.5191 148.0823 148.2600 148.2600 148.9163 151.4139 152.2850 152.2850
   152.8768 153.4533 153.4533 157.0028 157.1135 157.2161 157.3257 157.3257
   157.8130 157.8130 157.9506 157.9506 159.2510 160.5021 161.1511 161.3958
   161.7903 161.8102 161.8102 161.9636 161.9636 162.3023 162.3741 163.0116
   163.3385 163.4146 164.5284 164.5284 171.0694 171.2498 171.2498 171.6805
   171.6805 176.2932 176.6963 176.6963 176.8737 177.1019 177.2787 177.8850
   179.1222 179.1222 179.9175 179.9175 180.0193 180.3331 181.7412 182.0270
   183.0510 183.0510 183.5346 183.5346 183.6484 183.6484 184.1525 184.4630
   184.9741 185.9722 185.9722 186.4610 186.8787 186.8787 187.0156 187.4345
   188.1251 189.8518 189.8518 189.9745 189.9746 190.2095 190.5466 191.6297
   191.6297 191.9378 192.0915 192.9491 194.2020 194.3108 194.3108 194.9283
   195.9722 195.9722 196.6117 196.6117 197.2166 198.1721 200.5482 200.6193
   200.6193 201.4268 201.4942 202.2368 202.2368 202.4674 202.9902 203.6479
   204.0400 204.6074 204.6074 204.9540 205.3910 205.3910 206.0380 206.0380
   206.4387 206.5045 208.6273 208.8939 210.1138 210.1138 211.0341 211.1100
   211.1100 211.1107 211.1168 211.1271 211.1271 211.5147 212.1361 212.3909
   213.8264 213.8264 214.0166 214.0166 214.9411 217.0310 217.0310 217.0988
   217.4821 217.6650 217.7579 218.6748 218.7046 218.7294 219.6426 219.6426
   219.6828 219.6828 220.0053 220.4146 220.4492 221.7603 222.7365 223.8250
   223.8250 226.0785 226.0785 226.9436 226.9436 227.5098 228.5960 228.6287
   229.3086 229.3086 229.4571 229.9201 230.2440 231.8255 234.2676 234.3019
   234.3019 234.4031 234.4328 234.4328 234.6634 235.3717 235.6054 235.6054
   236.0144 236.1408 236.1408 236.5036 236.6065 237.7284 239.1102 239.1102
   240.8547 240.9944 241.0918 241.2402 241.2402 241.4361 241.9618 241.9618
   242.3128 243.0190 243.1827 243.1827 243.8604 244.2094 244.2094 244.2490
   245.2222 247.0469 247.0469 247.8494 247.9583 247.9583 250.1236 250.1236
   250.8288 250.8797 251.5902 252.0161 252.0161 252.6747 254.0824 254.5125
   254.8062 254.8062 255.0503 256.4692 256.5768 256.5768 256.8838 258.0286
   258.1939 258.2349 258.2349 258.3003 258.3003 259.0639 259.0811 259.1794
   259.1794 259.3127 259.4111 259.7856 259.9920 259.9920 260.3136 260.6372
   261.9196 261.9487 261.9487 261.9815 263.2990 264.1891 264.1891 264.7933
   265.0925 265.2691 265.2691 265.3786 265.9994 265.9994 266.1838 266.5606
   267.2599 267.6205 267.6205 268.2682 273.4375 273.4375 273.6730 275.2792
   275.3777 275.7570 275.7873 275.8354 275.8746 275.9040 276.1207 276.1207
   276.1868 276.2395 276.2395 276.2910 276.2910 277.8004 278.7277 278.7277
   279.4058 279.5026 279.5026 280.6007 280.9649 283.0111 283.9843 283.9843
   285.6821 287.0539 287.4216 288.2484 288.2484 289.4162 289.4830 289.7171
   289.9116 289.9116 289.9576 289.9576 290.3125 290.4763 290.7960 290.7960
   291.8108 292.9346 295.2598 295.4727 295.7871 295.9167 295.9167 296.0700
   296.2665 296.5280 296.5280 296.5811 296.5811 297.3062 297.3990 297.7733
   298.4024 298.4650 298.4650 298.5923 298.7767 298.9998 298.9998 299.5116
   299.9591 299.9591 302.6502 302.6872 303.3061 303.3061 303.3484 303.3484
   304.0711 304.1034 305.3946 306.9077 306.9156 306.9156 307.5535 307.5535
   309.2521 309.2980 310.6166 310.6166 310.7896 310.7896 310.9235 310.9262
   311.3011 311.3426 311.4742 311.8612 312.7215 312.7215 312.7374 312.7374
   313.2383 313.2812 313.3038 313.6703 313.6703 314.1429 314.3317 314.4362
   314.4362 314.4710 314.7123 314.7123 315.0223 315.3035 315.5920 315.7548
   316.1481 316.1481 316.9540 316.9540 317.1355 317.2295 317.3864 317.3864
   317.6138 317.6138 320.3458 321.9092 321.9092 323.0299 323.6930 323.7064
   323.8999 323.8999 323.9334 323.9334 324.0210 324.0830 326.2294 326.6945
   326.7093 326.7107 326.7107 327.6416 328.2574 328.8065 328.8353 329.4988
   329.4988 329.5326 329.5326 330.1892 331.7195 332.6090 332.6090 333.3797
   333.3797 333.5612 333.6528 334.2200 335.8818 335.8818 336.2498 336.2498
   336.4154 336.4172 336.7841 336.8057 336.9205 336.9205 337.0056 337.0263
   337.0263 337.0761 337.0795 337.6723 338.2326 338.2737 338.2737 338.3477
   339.8904 340.0703 340.3138 340.3138 340.3456 340.3456 340.4724 340.6126
   340.6659 340.7336 343.9222 343.9222 344.4996 344.5658 347.8518 347.9628
   347.9628 347.9666 347.9666 348.3517 348.4909 348.4909 348.6344 348.6344
   348.7195 348.9335 351.5602 353.5167 353.5167 353.7947 353.9977 354.0261
   354.4028 354.4028 354.6963 354.7304 355.8521 355.8521 356.2081 356.2841
   356.3927 356.3927 356.4148 356.6233 356.7268 356.7268 356.7467 356.8807
   359.3292 359.3610 359.3610 359.3877 359.8551 359.8982 360.9558 361.4241
   361.6920 361.6920 361.9416 361.9416 362.2935 362.3243 363.7741 363.7741
   363.7859 363.7859 365.5829 365.5929 365.9021 366.6644 367.4057 368.6448
   368.6687 368.6687 368.7891 368.9445 368.9445 369.4990 370.0904 370.3002
   370.3002 370.6434 371.8110 372.3839 372.3839 372.4998 372.8783 373.2101
   373.2101 373.3728 373.3728 373.3977 373.4184 373.5924 375.3427 375.7642
   375.7642 375.9452 375.9818 375.9818 376.0033 376.1104 376.1211 376.1279
   376.1279 376.1402 380.4187 380.4561 380.4713 380.4713 380.4874 380.7465
   380.7465 381.0485 382.1694 382.1976 382.3015 382.3015 384.0145 384.1428
   384.1428 384.2470 386.7527 388.3590 388.3590 388.3668 388.3668 389.3234
   390.0009 390.2897 390.3145 390.3145 390.4169 390.7755 391.0862 391.9023
   391.9647 391.9647 392.6701 392.6701 392.8702 392.9057 392.9665 392.9665
   395.0441 395.0865 397.2258 397.2601 397.2601 397.2909 397.4907 397.7474
   397.9956 397.9956 398.0695 398.0919 398.0919 398.1744 398.3167 398.3167
   398.4130 398.5679 398.7544 398.7775 398.7775 399.9405 399.9405 400.0319
   400.4346 401.6941 401.6941 401.8744 401.8870 401.9551 406.0951 406.4011
   406.4011 406.4316 407.0393 407.0393 408.0054 408.0749 408.0749 408.0783
   409.3063 409.7237 410.8574 410.8574 411.3347 411.3347 411.5144 411.5144
   411.5398 411.6565 412.7062 412.7326 415.8163 415.8194 418.7179 418.8383
   418.8744 418.8744 419.9301 420.4714 420.4714 420.8225 420.9172 421.2038
   421.2038 421.4742 421.7952 421.8376 421.8376 421.8926 421.9180 421.9180
   422.1413 422.3632 422.6002 422.7569 422.7569 423.1263 425.5166 425.8726
   426.0706 426.1813 426.6727 426.6727 427.1524 427.1524 427.1979 427.1979
   427.3401 427.3401 427.8038 427.8077 427.8077 427.8883 427.8999 427.9856
   428.1037 428.3151 429.2550 429.4013 429.5497 429.5497 429.6303 429.6749
   429.7433 429.7433 430.1639 430.2113 430.4122 430.4122 430.5035 430.6874
   430.6874 430.9388 430.9966 431.0167 431.2232 431.2232 431.2690 431.3702
   431.4028 431.6486 431.6486 431.7205 431.7205 431.7976 431.7976 431.9596
   432.1609 432.2483 432.9410 432.9593 433.3591 433.3591 433.3694 433.3694
   433.4704 433.5540 433.5540 433.6102 433.6477 433.6520 437.3737 437.3851
   437.3851 437.4070 437.9710 437.9821 437.9821 438.0008 440.1871 440.2038
   440.7832 440.7832 440.7944 440.7944 441.2862 441.2961 450.3235 450.3235
   450.3863 450.4182 450.4899 450.4899 450.6645 450.6969 450.7129 450.8540
   450.8540 450.9932 451.1268 451.1518 451.1518 451.3864 451.6228 451.7393
   451.7393 451.7821 452.0173 452.0173 452.0951 452.1979 453.2469 453.3929
   453.7078 453.7078 453.9844 453.9844 454.0303 454.4335 455.1225 455.2136
   455.4149 455.4149 455.4882 455.4882 455.6390 455.7125 455.9635 456.0994
   456.0994 456.1710 456.3370 456.4885 456.4885 456.5998 458.7146 458.8136
   459.0506 459.0506 459.6568 460.0610 460.8464 461.7651 462.0484 462.1628
   462.1628 462.7894 462.7894 463.6666 464.1881 464.1881 464.3055 464.8547
   464.9578 465.0656 465.0656 465.1952 465.2581 465.2581 465.8342 465.8673
   467.1041 467.1041 467.1838 467.2813 467.2813 467.3189 467.3381 467.3733
   469.9226 469.9226 469.9394 469.9394 470.0671 470.3171 470.6224 471.0535
   471.0535 471.3349 471.3942 471.8087 478.0374 478.0522 478.1264 478.1264
   478.1394 478.1394 478.2907 478.3084 480.3120 480.3120 480.3553 480.3553
   480.3605 480.3779 480.3779 480.3919 480.9688 481.0111 481.8594 481.8594
   481.9168 481.9168 482.4673 482.7349 485.1600 485.6022 485.6022 486.0107
   488.7838 488.8235 489.0264 489.0264 489.1001 489.1001 489.3917 489.4762
   490.2749 490.4528 490.4528 490.4958 490.7042 490.8408 490.8408 490.8418
   490.8418 490.8886 490.9068 490.9441 491.4787 491.4983 491.4983 491.4999
   492.8152 492.8276 492.8276 493.0383 493.1511 493.1511 493.1651 493.1651
   493.6105 493.6890 493.6890 493.7606 493.9521 493.9792 494.0900 494.0900
   494.1073 494.1073 494.1879 494.2010 496.4467 496.4536 496.4536 496.4608
   498.3803 498.6036 498.6036 498.8634 503.0214 503.0242 503.0946 503.0946
   503.1622 503.2482 505.5565 505.6773 505.8468 505.8468 505.9171 505.9171
   506.2664 506.5388 506.5534 507.0543 507.0716 507.0716 507.0889 507.0889
   507.1446 507.2530 507.2530 507.3294 507.3295 507.3709 508.0135 508.0864
   508.0864 508.1702 509.9485 510.2835 510.2835 511.0087 511.3574 512.0284
   512.0284 512.3335 512.8619 512.9017 512.9112 512.9112 512.9411 513.0253
   513.0253 513.4209 513.4948 513.8966 513.8966 514.0644 514.5403 514.5543
   514.5543 514.5812 517.5760 517.7221 521.1831 521.1831 521.2349 521.2349
   523.3514 523.4585 523.6783 523.6955 523.7455 523.7455 523.8291 524.0445
   524.0445 524.2195 524.2814 524.2814 524.2969 524.4800 524.4800 524.5885
   524.6098 524.6100 524.6100 524.6636 524.7409 524.9471 524.9471 525.0425
   528.5694 528.6085 531.3539 531.3742 531.3743 531.3904 531.5073 531.5273

          k =-0.5000-1.0000 0.0000 (  3676 PWs)   bands (ev):

   -81.5875 -45.0806 -45.0806 -45.0799  -6.3325   4.0999   4.3176   4.3176
     6.2741   6.2741   6.2976   6.3023   7.0993  12.5486  16.2465  16.2465
    16.3900  21.9109  21.9109  23.5918  24.8350  27.5801  29.1504  29.1504
    29.3742  31.2468  31.2468  32.7593  33.1722  36.1035  38.0955  38.7630
    38.7630  39.0578  39.0578  39.3852  40.7651  44.9707  44.9707  47.6029
    48.5954  48.5954  49.3989  49.8072  50.3546  50.7638  55.2379  56.0378
    56.0378  57.0127  57.5085  57.7385  58.9869  58.9869  61.2010  61.2010
    61.6881  62.7076  62.7076  63.6211  65.7898  65.7898  66.4889  67.6199
    67.6199  69.4934  69.6246  69.6730  72.6337  72.6337  72.7259  73.7253
    74.9029  74.9029  75.1689  75.5882  77.8276  78.3899  79.9763  79.9763
    80.9618  81.4511  81.9091  81.9091  84.0758  84.8185  84.8185  85.0393
    85.5705  86.6940  86.9278  86.9278  87.0467  88.2415  88.5572  89.2593
    89.2593  90.8247  92.0256  93.0122  93.0122  94.4583  95.2849  95.6714
    95.6714  96.2260  97.5632  98.4407  98.7180  99.2507  99.2507 100.0805
   100.3732 100.3732 102.2289 102.2289 103.3049 107.1229 107.6328 109.4647
   109.4647 111.5211 111.5211 111.6372 112.8203 112.8203 112.8543 114.3461
   114.4970 115.0388 115.0388 115.1365 117.1184 117.1184 118.2000 118.2888
   118.5521 118.5521 119.3511 121.3079 121.4643 121.4643 122.7941 124.3307
   124.3577 124.4610 124.5604 125.6711 125.6711 127.0866 127.0956 127.4210
   127.4210 128.8656 129.4361 129.8913 130.2052 130.2052 131.1885 131.1885
   131.6527 131.6527 132.0868 132.1224 133.7373 133.8082 134.5563 135.0986
   135.5572 135.5572 136.4666 136.4666 136.7134 138.9190 139.2709 139.8113
   139.8113 142.9436 143.5994 144.4206 144.6060 144.6060 144.8546 144.8546
   144.9839 145.9450 147.1626 147.1626 147.2426 148.1344 148.4337 148.4337
   148.8271 149.8845 150.0013 150.4059 150.5634 150.8851 150.8851 151.1396
   151.1396 152.4526 153.0947 154.6976 154.6976 155.9456 155.9456 156.7193
   156.7193 157.9696 158.1936 158.8969 159.6597 159.6597 161.3471 163.6542
   163.7142 163.7142 163.7724 164.6137 166.6944 166.6944 166.9006 167.3297
   168.0540 168.0540 168.1786 168.7591 169.3174 169.6647 169.6647 169.9690
   171.0376 172.7826 172.7826 173.7402 174.4353 174.4353 174.5081 174.7240
   175.0331 176.5104 176.5104 177.1124 177.2082 178.9742 179.2163 179.5872
   179.6907 179.6907 182.1622 182.1622 182.8671 182.9143 182.9143 183.0914
   183.3510 183.3788 183.3788 183.9213 184.3906 185.1087 185.7137 185.7137
   186.7539 188.3468 188.3486 190.7319 192.9110 192.9110 193.0226 193.5365
   193.5365 193.5392 193.6582 194.4087 194.4087 195.4309 195.4309 195.8863
   196.1245 196.5618 196.5618 196.5784 198.2256 198.9884 199.5809 200.5508
   200.5508 204.5951 205.6362 205.9545 206.0969 206.0969 206.2587 206.2587
   206.3965 207.4061 207.4503 207.4503 207.5972 207.7848 207.8780 207.8780
   207.9537 208.2390 208.2390 209.0402 209.4822 209.7630 209.7630 209.7838
   210.0229 211.1983 211.1983 211.9194 212.7764 213.2800 213.2800 213.6223
   213.7822 214.5328 214.5379 214.5379 214.5864 215.3992 215.5487 215.5798
   215.5798 215.6525 216.5963 216.5963 217.1189 219.0638 219.0638 219.7227
   221.4369 221.4369 221.6988 223.1571 224.9395 224.9395 225.0063 225.3341
   225.3589 225.8619 226.4473 226.4473 226.8005 226.8005 227.0455 227.2980
   227.5736 227.8695 229.5577 229.5577 230.3680 230.3680 231.4597 231.4601
   231.5125 231.5125 231.8884 232.2467 232.2668 232.8663 232.9139 233.0512
   233.0512 236.3075 236.3075 236.6994 236.6994 236.7817 237.0408 237.0599
   237.1163 237.1395 237.1395 241.7767 242.0599 242.3603 242.3603 242.9076
   242.9445 243.2455 243.5364 243.6426 244.0551 244.0551 244.4987 244.4987
   244.5268 245.2386 245.3062 245.3062 245.3876 246.0464 247.4210 247.4210
   247.5539 250.1045 250.1045 250.3561 250.4702 251.2163 251.2163 251.8517
   252.2556 252.4821 252.7840 252.9775 253.0772 253.0772 255.4370 256.5413
   256.5413 259.2322 260.1988 260.6459 260.6459 262.1005 262.1005 263.0212
   263.2187 263.6439 263.6439 263.7367 263.9817 264.3017 264.3202 264.6043
   264.6043 265.7316 265.8323 265.8582 266.1292 266.1292 266.8383 266.9611
   266.9611 267.6556 267.6556 267.8869 267.9898 268.2125 268.2125 268.4057
   268.4266 269.2088 271.0510 271.0510 271.8718 272.7270 273.0683 274.6342
   275.3195 275.3195 277.6389 277.6389 278.0064 278.0064 278.0870 278.4706
   278.7405 278.9960 279.4473 279.6348 279.6348 280.0121 280.0121 280.7277
   281.2563 281.4124 283.0530 283.0530 283.3039 283.5692 283.6864 283.6864
   283.7495 284.1584 284.1584 284.8050 285.0098 285.6586 286.1028 286.1028
   286.2045 286.2059 286.2059 287.3673 287.9917 288.7758 289.5615 289.5615
   290.0905 290.0905 290.0937 290.1263 290.4700 290.6987 290.7112 290.7112
   291.1831 292.1614 292.1614 292.5294 292.6480 292.6480 292.6829 293.0820
   293.4193 293.6206 293.9275 293.9275 298.9044 298.9044 300.4938 300.4974
   302.2194 304.0014 304.0014 304.0616 304.8013 305.0819 305.0819 305.2495
   305.8909 307.0919 307.0919 307.9975 308.1720 308.3792 308.7051 308.7051
   309.0829 309.0829 309.6590 309.6915 310.2558 310.6284 310.8781 310.9155
   310.9155 311.1534 311.2821 311.2821 311.5345 311.8184 311.8184 311.8357
   312.0389 314.0258 314.0258 314.4060 314.8651 314.8813 314.8813 315.1390
   315.3479 316.0158 316.0158 316.7226 316.7992 317.1762 317.1762 317.4694
   320.1100 320.1834 320.1834 320.2422 321.3833 322.4079 322.9441 322.9441
   323.3416 323.5178 323.9255 323.9255 323.9546 324.4250 324.4250 324.4776
   324.9277 325.1551 325.1551 325.3638 326.5801 326.6810 326.6810 326.8406
   326.9583 327.2984 327.6453 327.6453 327.6858 327.8708 327.8708 327.8881
   328.0479 328.1662 330.1750 330.1750 330.2939 330.3049 330.3049 330.3079
   330.4380 330.5410 331.0246 331.0246 331.3959 332.8254 332.8667 333.1468
   333.1468 334.0780 334.3598 334.9646 334.9646 335.0837 338.4682 338.4682
   338.9816 339.1314 339.3003 339.5895 339.5895 339.7267 340.4789 340.4835
   340.7204 340.7204 342.4792 342.8454 342.8454 343.0077 344.4322 344.4530
   344.4530 344.4545 344.7186 344.7186 344.9264 344.9559 345.0057 345.1149
   345.1149 345.2215 346.1175 346.3703 346.3703 346.8036 347.4912 347.9977
   348.2146 348.2146 350.8112 350.9231 350.9264 350.9264 353.0547 353.1361
   353.1361 353.1974 353.6647 353.6647 353.6756 353.7169 355.3503 355.3755
   355.3755 355.3822 355.5102 355.5102 355.5961 355.7777 356.2846 356.2846
   358.6562 358.6562 358.7271 358.7363 359.1958 359.1958 359.8162 359.8817
   360.0069 360.0069 361.1736 363.5377 363.5377 363.8029 363.8606 363.9564
   364.0666 364.0666 364.1142 364.9355 364.9884 365.0200 365.0200 365.5496
   365.6894 365.6894 365.7045 365.7197 369.2469 369.2530 369.2530 369.3484
   369.3689 369.3941 369.3941 369.9460 371.1864 371.1864 371.5252 371.6264
   371.7636 371.8455 371.8455 372.8054 374.5928 374.6504 374.6504 374.8960
   376.1151 376.1151 378.0841 378.1404 379.2168 379.3183 379.3183 379.3261
   379.4549 379.4590 379.4590 379.6449 380.3368 380.7961 380.7961 381.0160
   385.1433 385.8451 385.8451 386.2032 386.2698 386.3974 386.7592 387.2295
   387.2295 387.7569 387.8241 387.8241 388.8683 388.8683 389.1374 389.1918
   389.2227 389.3122 389.7502 389.7502 390.3544 390.3544 390.9910 391.0120
   392.9082 393.0869 393.3036 393.3036 396.2913 396.2913 396.6610 398.0089
   398.3886 399.3788 399.6249 399.6249 400.0001 400.4425 400.4425 400.6601
   400.7304 400.7304 400.8401 400.9540 400.9540 401.0023 401.1132 401.1591
   401.3498 401.5617 401.6460 401.6460 403.1671 403.2353 403.2353 403.4901
   404.0162 404.0200 404.0912 404.0912 406.4891 406.9337 406.9337 407.1537
   407.4968 407.9994 407.9994 408.2127 409.8159 409.8274 409.8274 410.0992
   410.3115 410.3280 410.3280 410.4275 410.8590 411.1219 411.1219 411.3553
   411.7305 411.8581 411.9186 412.2972 412.4852 412.4852 412.8338 412.9578
   412.9771 413.0063 413.0063 413.2861 413.2861 413.3165 413.5286 413.5504
   413.5669 413.5669 414.0487 414.0487 415.5820 415.7598 416.9164 416.9203
   416.9203 416.9598 419.3180 419.3641 419.3641 419.4773 420.1896 420.3159
   420.3159 420.4374 421.8664 421.8868 421.9738 421.9738 422.3533 422.3533
   422.3724 422.4536 422.7758 422.7758 422.8668 423.2610 424.3132 424.3987
   424.3987 424.6089 424.6209 424.6374 424.6798 424.6798 425.5348 425.7866
   425.7866 425.8077 425.9975 426.0624 426.1324 426.1324 427.6449 427.6449
   427.7067 427.9401 429.7723 429.9056 429.9056 431.0370 432.6368 432.6368
   433.1692 433.5124 436.0316 436.0316 436.0780 436.4055 437.6949 437.6949
   437.7278 437.7303 438.5980 438.7068 438.7068 438.9001 439.0651 439.3532
   439.3532 439.8655 439.8659 440.1520 440.1520 440.5813 442.4058 442.4356
   442.4356 442.4572 443.0662 443.0662 443.0845 443.0882 443.7085 443.7085
   443.9707 444.0091 444.0091 444.0148 444.4137 444.4648 444.4648 444.4672
   445.6878 445.6878 445.7369 445.9156 448.3733 448.3733 448.5491 448.5934
   449.5650 449.5975 449.5975 449.6500 450.5549 450.5549 453.1438 453.2016
   454.3866 454.3866 455.5186 455.5186 455.5845 455.5973 456.0726 456.5711
   456.7179 456.8101 456.8799 456.8799 457.1524 457.1524 457.5323 457.5530
   458.4456 458.8645 458.8645 459.0748 459.8528 459.8528 459.8556 459.9347
   460.4061 460.4061 460.6072 460.7741 462.1794 462.2072 462.2072 462.2830
   462.7708 462.7898 462.7898 462.9136 463.7733 463.7733 463.8216 464.1915
   464.1949 464.1949 464.3808 464.5924 464.5924 464.7370 465.6498 465.8594
   466.2577 466.2664 466.3000 466.3000 466.5728 466.5730 466.5730 466.6075
   468.4931 468.4931 468.9367 468.9638 468.9940 469.0427 469.4699 469.4699
   470.0996 470.0996 470.4926 470.5496 470.8326 470.9686 471.1291 471.1291
   471.2979 471.3012 471.3134 471.3134 471.4248 471.4399 471.6206 471.6206
   471.7584 471.8067 471.8420 471.8420 472.2813 472.3092 472.3092 472.3491
   477.0258 477.1018 477.5726 477.5726 483.3900 483.3900 483.4110 483.4976
   483.6322 483.7135 483.7135 483.7516 484.3400 484.3400 484.3821 484.4834
   486.2603 486.2883 486.2883 486.5133 486.5257 486.5257 486.5520 486.6135
   489.4709 489.4709 489.5072 489.6632 490.0318 490.0659 490.0731 490.0731
   490.4763 490.4763 490.5052 490.5628 490.7950 490.8182 490.9123 490.9123
   492.3508 492.3614 492.3614 492.5246 492.9872 492.9872 493.2426 493.3324
   493.4801 493.6482 493.9624 493.9624 494.8249 495.1130 495.1130 495.3570
   497.6023 497.7953 497.7953 498.0995 498.3954 498.3954 498.6878 498.7060
   498.7249 498.7249 498.8202 498.8755 499.4086 499.4086 500.1383 500.1442
   500.7625 500.7990 501.4374 501.4374 501.7447 501.7806 501.7806 501.8312
   501.8467 501.8632 501.9463 501.9463 503.1899 503.3163 503.6177 503.6177
   506.1939 506.2083 506.2083 506.2216 508.8624 508.9468 509.3216 509.3216
   509.3656 509.3982 509.4050 509.4050 509.4261 509.6015 511.0691 511.0691
   511.2778 511.2813 511.6072 511.6072 511.7300 511.7640 511.7640 511.7882
   511.8975 511.9347 512.1683 512.1683 512.1722 512.3618 519.3433 519.3444
   519.3444 519.3550 520.1862 520.1885 520.2674 520.2674 520.3335 520.3335
   520.3813 520.4888 522.4306 522.4306 522.8982 523.1113 523.4496 523.4496
   523.5928 523.6423 523.7531 523.8257 523.8257 523.9191 524.4003 524.4003
   524.6866 524.8480 525.4229 525.4553 525.5332 525.5332 525.9397 525.9784
   526.0422 526.0422 527.6362 527.6362 527.6602 527.6836 528.4762 528.5236

     the Fermi energy is     8.7788 ev
     (compare with:     8.3399 eV, computed in scf)

     Writing all to output data dir out/mp-22922.save/
 
     init_run     :      0.06s CPU      0.11s WALL (       1 calls)
     electrons    :   1031.88s CPU   1111.70s WALL (       1 calls)

     Called by init_run:
     wfcinit      :      0.00s CPU      0.00s WALL (       1 calls)
     potinit      :      0.01s CPU      0.02s WALL (       1 calls)
     hinit0       :      0.02s CPU      0.06s WALL (       1 calls)

     Called by electrons:
     c_bands      :   1031.88s CPU   1111.69s WALL (       1 calls)
     v_of_rho     :      0.01s CPU      0.01s WALL (       1 calls)

     Called by c_bands:
     init_us_2    :      0.00s CPU      0.00s WALL (       8 calls)
     init_us_2:cp :      0.00s CPU      0.00s WALL (       8 calls)
     cegterg      :   1011.20s CPU   1089.81s WALL (       8 calls)

     Called by *egterg:
     cdiaghg      :    951.11s CPU   1028.64s WALL (      90 calls)
     h_psi        :     17.57s CPU     18.04s WALL (      98 calls)
     g_psi        :      0.12s CPU      0.12s WALL (      82 calls)

     Called by h_psi:
     h_psi:calbec :      0.26s CPU      0.27s WALL (      98 calls)
     vloc_psi     :     17.01s CPU     17.46s WALL (      98 calls)
     add_vuspsi   :      0.19s CPU      0.19s WALL (      98 calls)

     General routines
     calbec       :      0.26s CPU      0.27s WALL (      98 calls)
     fft          :      0.01s CPU      0.05s WALL (      10 calls)
     fftw         :     15.35s CPU     15.74s WALL (  122386 calls)
 
     Parallel routines
 
     PWSCF        :  17m12.79s CPU  18m33.15s WALL

 
   This run was terminated on:  15: 1:58  23Nov2023            

=------------------------------------------------------------------------------=
   JOB DONE.
=------------------------------------------------------------------------------=
