
     Program PWSCF v.7.1 starts on 20Dec2023 at 13:24:20 

     This program is part of the open-source Quantum ESPRESSO suite
     for quantum simulation of materials; please cite
         "P. Giannozzi et al., J. Phys.:Condens. Matter 21 395502 (2009);
         "P. Giannozzi et al., J. Phys.:Condens. Matter 29 465901 (2017);
         "P. Giannozzi et al., J. Chem. Phys. 152 154105 (2020);
          URL http://www.quantum-espresso.org", 
     in publications or presentations arising from this work. More details at
     http://www.quantum-espresso.org/quote

     Parallel version (MPI), running on     8 processors

     MPI processes distributed on     1 nodes
     123266 MiB available memory on the printing compute node when the environment starts
 
     Reading input from pw_mp-24084_nscf_k60_E60.in
Warning: card &IONS ignored
Warning: card / ignored
Warning: card &CELL ignored
Warning: card / ignored

     Current dimensions of program PWSCF are:
     Max number of different atomic species (ntypx) = 10
     Max number of k-points (npk) =  40000
     Max angular momentum in pseudopotentials (lmaxx) =  4

     Atomic positions and unit cell read from directory:
     out/mp-24084.save/
     Atomic positions from file used, from input discarded
 
 
     R & G space division:  proc/nbgrp/npool/nimage =       8
     Subspace diagonalization in iterative solution of the eigenvalue problem:
     one sub-group per band group will be used
     scalapack distributed-memory algorithm (size of sub-group:  2*  2 procs)

 
     Parallelization info
     --------------------
     sticks:   dense  smooth     PW     G-vecs:    dense   smooth      PW
     Min         119     119     35                 2416     2416     389
     Max         120     120     36                 2419     2419     391
     Sum         955     955    283                19339    19339    3119
 
     Using Slab Decomposition
 


     bravais-lattice index     =            2
     lattice parameter (alat)  =      10.7195  a.u.
     unit-cell volume          =     307.9353 (a.u.)^3
     number of atoms/cell      =            2
     number of atomic types    =            2
     number of electrons       =        10.00
     number of Kohn-Sham states=         1200
     kinetic-energy cutoff     =      60.0000  Ry
     charge density cutoff     =     240.0000  Ry
     Exchange-correlation= PBE
                           (   1   4   3   4   0   0   0)

     celldm(1)=  10.719466  celldm(2)=   0.000000  celldm(3)=   0.000000
     celldm(4)=   0.000000  celldm(5)=   0.000000  celldm(6)=   0.000000

     crystal axes: (cart. coord. in units of alat)
               a(1) = (  -0.500000   0.000000   0.500000 )  
               a(2) = (   0.000000   0.500000   0.500000 )  
               a(3) = (  -0.500000   0.500000   0.000000 )  

     reciprocal axes: (cart. coord. in units 2 pi/alat)
               b(1) = ( -1.000000 -1.000000  1.000000 )  
               b(2) = (  1.000000  1.000000  1.000000 )  
               b(3) = ( -1.000000  1.000000 -1.000000 )  


     PseudoPot. # 1 for H  read from file:
     /usr/scratch4/magr4985/MG/HTDF/pseudo/SG15/H.upf
     MD5 check sum: bf21e08b90ac4ce7d0149ac4e8138190
     Pseudo is Norm-conserving, Zval =  1.0
     Generated using ONCVPSP code by D. R. Hamann
     Using radial grid of  602 points,  2 beta functions with: 
                l(1) =   0
                l(2) =   0

     PseudoPot. # 2 for K  read from file:
     /usr/scratch4/magr4985/MG/HTDF/pseudo/SG15/K.upf
     MD5 check sum: 254690d02b26e0029262a4c77e854448
     Pseudo is Norm-conserving, Zval =  9.0
     Generated using ONCVPSP code by D. R. Hamann
     Using radial grid of  602 points,  6 beta functions with: 
                l(1) =   0
                l(2) =   0
                l(3) =   1
                l(4) =   1
                l(5) =   2
                l(6) =   2

     atomic species   valence    mass     pseudopotential
        H              1.00     1.00790     H ( 1.00)
        K              9.00    39.09830     K ( 1.00)

     48 Sym. Ops., with inversion, found



   Cartesian axes

     site n.     atom                  positions (alat units)
         1           K   tau(   1) = (   0.0000000   0.0000000   0.0000000  )
         2           H   tau(   2) = (  -0.5000000   0.5000000   0.5000000  )

     number of k points=     8  Gaussian smearing, width (Ry)=  0.0005
                       cart. coord. in units 2pi/alat
        k(    1) = (   0.0000000   0.0000000   0.0000000), wk =   0.0312500
        k(    2) = (  -0.2500000   0.2500000  -0.2500000), wk =   0.2500000
        k(    3) = (   0.5000000  -0.5000000   0.5000000), wk =   0.1250000
        k(    4) = (   0.0000000   0.5000000   0.0000000), wk =   0.1875000
        k(    5) = (   0.7500000  -0.2500000   0.7500000), wk =   0.7500000
        k(    6) = (   0.5000000   0.0000000   0.5000000), wk =   0.3750000
        k(    7) = (   0.0000000  -1.0000000   0.0000000), wk =   0.0937500
        k(    8) = (  -0.5000000  -1.0000000   0.0000000), wk =   0.1875000

     Dense  grid:    19339 G-vectors     FFT dimensions: (  40,  40,  40)

     Estimated max dynamical RAM per process >      97.32 MB

     Estimated total dynamical RAM >     778.53 MB

     The potential is recalculated from file :
     out/mp-24084.save/charge-density

     Starting wfcs are random

     Band Structure Calculation
     ParO style diagonalization

     ethr =  5.00E-06,  avg # of iterations =  5.5

     total cpu time spent up to now is      583.0 secs

     End of band structure calculation

          k = 0.0000 0.0000 0.0000 (  2421 PWs)   bands (ev):

   -27.5148 -10.8665 -10.8665 -10.8665  -0.3917   9.2253   9.2253   9.2253
     9.4465  10.7337  10.7337  14.4017  14.6328  14.6328  14.6328  21.2791
    21.2791  21.2791  22.5077  22.5077  22.5077  25.1810  25.1810  29.0820
    34.1358  34.1358  34.1358  37.3203  38.0069  38.0069  38.9255  38.9255
    38.9255  40.1270  40.1270  40.1270  46.4392  46.4392  46.4392  46.8463
    48.4296  48.4296  48.4296  49.1096  49.1096  49.1096  50.6722  50.6722
    50.6722  51.4902  51.4902  52.4384  52.7304  52.7304  52.7304  52.9678
    52.9678  52.9678  53.7174  57.2163  57.2163  60.8000  60.8000  60.8000
    65.3425  65.3425  65.3425  68.8702  73.6540  73.6540  73.6540  74.9178
    74.9178  79.2976  79.2976  79.2976  81.3528  83.4969  85.5060  85.5060
    85.5204  85.5204  85.5204  86.0961  86.0961  86.0961  87.3237  87.4558
    87.4558  87.4558  87.6806  87.6806  87.6806  87.6944  87.6944  89.0173
    89.0173  89.0173  89.1840  89.1840  89.1840  89.5907  89.5907  89.5907
    89.9413  89.9413  89.9413  91.5570  91.5570  91.6960  91.6960  91.6960
    91.9203  97.2598  97.2598  97.2598  98.3461  98.3461 103.8535 103.8535
   103.8535 104.5946 106.5110 107.9899 107.9899 107.9899 108.4749 108.4749
   108.4749 108.6827 108.6827 108.6827 108.7037 108.7037 108.7533 108.7533
   108.7533 111.7671 111.7671 113.6139 113.6139 113.6139 115.5990 115.5990
   115.5990 117.4423 121.3171 121.3171 121.3171 122.1130 122.2398 122.6322
   122.6322 122.6322 122.7623 122.7623 122.7623 122.9075 122.9075 122.9075
   122.9970 122.9970 122.9970 125.8172 125.8573 125.8573 125.8573 125.8599
   125.8599 128.3525 128.3525 128.3525 130.2323 130.2323 139.4424 139.4424
   139.4424 141.5753 141.5753 141.5753 146.0368 146.5787 146.5787 148.7107
   148.7107 148.7107 152.2402 152.2402 152.2402 154.7856 155.3743 155.3743
   155.3743 155.7087 155.7087 155.7087 155.8305 156.7195 156.7195 156.7195
   157.2038 157.2038 157.2957 157.2957 157.2957 158.3208 158.3208 158.3208
   158.8786 159.2585 159.2585 159.2585 159.4416 159.4416 160.4708 160.4708
   160.4708 160.5986 160.5986 161.3625 161.3625 161.3625 161.7804 161.7804
   161.7804 162.0317 162.2070 162.2070 162.3929 162.3929 162.3929 162.7692
   162.7692 162.7692 162.8934 162.8934 162.8934 162.9517 162.9517 162.9517
   163.1987 163.9687 165.7738 165.7738 165.9154 165.9570 165.9570 165.9570
   165.9818 165.9818 165.9818 166.0846 166.0846 166.0846 166.1606 166.1606
   166.1922 166.1922 166.1922 173.2282 173.2282 176.3141 176.3141 176.3141
   179.1747 179.1747 179.1747 181.0822 181.7964 181.7964 181.7964 181.8588
   181.8588 181.8588 181.8957 181.8957 181.8957 184.5158 184.5158 184.6025
   184.6025 184.6025 184.6735 185.6585 185.6585 185.6585 191.9020 191.9020
   192.1101 192.1101 192.1101 192.8029 195.8124 196.2370 196.2370 196.2370
   196.4486 196.4486 196.5903 196.5903 196.5903 196.5923 196.5923 196.5923
   196.6324 196.6324 196.6324 200.4175 200.4175 200.8224 200.8224 200.8224
   201.4262 201.4262 201.4262 201.9048 202.3124 202.3124 202.3124 202.3320
   202.3320 202.3320 202.3522 202.3522 202.3938 202.3938 202.3938 202.3988
   202.3988 202.3988 202.4560 209.9940 209.9940 209.9940 210.1779 210.1779
   219.0409 219.2730 219.2730 219.2730 219.7648 221.1873 221.1873 221.1873
   223.3065 223.3065 223.3065 226.1297 226.2640 226.2640 226.2640 226.5643
   226.5643 226.8025 226.8025 226.8025 230.6731 234.0786 234.0786 234.0786
   234.3480 234.3480 234.3480 234.4247 234.4247 234.4247 234.4713 234.4713
   234.4713 235.5200 235.5200 235.5200 235.6875 235.9103 235.9103 235.9103
   235.9444 235.9444 235.9608 235.9608 235.9608 237.3397 237.3397 237.7555
   237.9172 237.9172 237.9228 237.9228 237.9228 237.9229 238.2165 238.2165
   238.2165 238.4011 238.4011 238.4011 238.8892 238.8892 238.8892 238.9109
   238.9109 238.9109 238.9177 238.9177 238.9177 238.9187 239.1705 239.1705
   239.2258 239.2258 239.2258 246.0274 246.0274 246.0274 249.7139 249.7139
   252.5674 252.5674 252.5674 253.3642 254.9663 255.2793 255.2793 255.2793
   255.2850 255.2850 255.2850 255.3673 255.3673 255.3673 255.3871 255.3871
   255.6513 255.6513 255.6513 258.0851 258.0851 258.1195 258.1195 258.1195
   258.1787 258.1787 258.1787 258.2529 258.2529 258.2715 258.2715 258.2715
   258.2972 258.2972 258.2972 259.2778 259.2997 259.2997 259.2997 259.3112
   259.3117 259.3117 259.3117 262.7006 262.7006 264.5944 264.5944 264.5944
   265.4646 265.4646 265.4646 265.5923 268.1880 268.1880 268.1880 268.4124
   268.4124 268.4124 268.6275 268.6275 268.6275 268.9763 268.9922 269.1460
   269.1460 269.1460 269.2145 269.2145 269.2145 270.0494 270.0494 270.1305
   270.1305 270.1305 270.1451 272.5954 272.5954 272.5954 272.6130 272.6130
   272.7443 272.7443 272.7669 272.7669 272.7669 272.7778 272.7778 272.7778
   272.8130 272.8130 272.8130 272.9935 273.0817 273.0817 273.0817 273.1582
   273.1582 274.1899 274.1899 274.1899 274.2160 274.2160 274.2160 274.2555
   274.2555 274.2555 274.2615 274.2615 274.2615 274.9582 274.9582 274.9972
   274.9972 274.9972 275.0263 286.1756 286.1756 291.4234 291.4234 291.4234
   291.6412 295.9764 295.9764 295.9764 301.3008 301.3008 304.8017 304.8017
   304.8017 306.7033 306.9900 307.2814 307.2814 307.2814 307.4117 307.4117
   307.4117 307.4333 307.4333 307.4333 307.4866 307.4866 307.4866 307.5808
   307.5808 309.2408 309.7468 309.7468 310.2592 310.2592 310.2592 311.0308
   311.2564 311.2564 311.2564 311.3987 311.3987 311.3987 311.8556 312.3119
   312.3119 312.3119 312.6400 312.6400 312.6400 312.6886 312.6886 312.6886
   312.7041 312.7041 312.7041 315.0623 315.0623 315.1331 315.1331 315.1331
   315.1456 315.1456 315.1456 315.1651 315.1651 315.1651 315.1674 315.1674
   315.1674 315.1815 315.1815 315.3064 315.3064 315.3453 315.3453 315.3453
   315.3714 321.8274 321.8274 321.8274 324.1348 324.1348 326.3730 326.3730
   326.3730 327.9000 327.9000 327.9000 328.0876 331.2590 331.2590 332.0902
   332.0954 332.0954 332.0954 332.1947 332.1947 332.1947 332.2114 332.2695
   332.2695 332.3031 332.3031 332.3031 332.3685 332.3685 332.3685 332.3722
   332.3722 332.3722 332.4035 332.4035 332.4035 338.4275 338.4275 338.4275
   339.9991 339.9991 340.1970 340.1970 340.1970 340.2121 341.7444 341.7444
   341.7444 343.5978 343.5978 344.0805 344.1565 344.1565 344.1565 344.1633
   344.1633 344.1633 344.2447 344.2447 344.2447 344.3546 344.3546 344.3546
   344.8056 345.1198 345.1198 345.1198 345.5934 345.5934 345.5934 345.5984
   345.5984 345.8464 346.2553 346.2553 346.2553 346.4720 346.4720 346.4720
   346.6445 349.0541 349.0541 349.0541 349.0543 349.0543 349.1316 349.1316
   349.1316 349.1862 349.1862 349.1862 349.2356 350.3877 351.0856 351.0856
   351.0856 351.0926 351.0926 351.0926 351.5221 351.5221 351.7056 351.7056
   351.7056 352.2562 352.3020 352.3020 352.3020 352.3765 352.3765 352.3765
   352.4010 352.4010 352.4126 352.4126 352.4126 362.5841 362.5841 366.1911
   366.1911 366.1911 367.1222 367.1222 367.1222 367.6665 368.6271 368.6271
   368.6271 368.6354 368.6354 368.6354 368.6634 368.6634 368.6634 368.8640
   368.8640 368.8640 368.8755 368.8755 368.9154 372.1887 372.1887 373.7743
   373.7743 373.7743 373.7751 374.4928 374.4928 374.4928 378.0814 378.0814
   378.0814 379.0538 379.0739 379.9826 379.9826 380.5467 380.5467 380.5467
   380.6503 380.6503 380.7715 380.7715 380.7715 380.7801 380.7801 380.7801
   380.8232 380.8232 380.8232 383.6616 383.6616 383.6616 383.6675 383.6675
   383.6675 383.6680 383.6680 383.6680 383.6978 383.6978 383.7660 383.7660
   383.7660 383.8415 383.8415 384.0417 384.0417 384.0417 384.1383 384.1383
   384.1383 384.1910 384.1910 384.1910 384.2333 384.2333 384.2333 384.9484
   384.9777 384.9777 384.9777 385.0019 385.0019 385.0019 385.0205 386.3601
   387.0239 387.0264 387.0264 387.0264 387.0822 387.0822 387.0822 387.2816
   387.2816 387.4567 387.4567 387.4865 387.4865 387.4865 388.0818 388.1746
   388.1746 388.1746 388.2917 388.2917 388.2917 388.3038 388.3038 388.3038
   388.4232 388.4232 388.4232 388.4664 388.4664 389.9463 389.9463 389.9463
   389.9909 389.9909 389.9909 389.9911 389.9911 389.9911 389.9936 389.9936
   389.9936 389.9966 389.9966 390.0027 390.0027 390.1153 390.1619 390.1619
   390.1619 390.1926 390.1926 390.1926 390.2090 402.6446 402.6446 402.6446
   403.2573 403.4585 403.4585 403.4585 404.0946 408.0007 408.0007 408.0914
   408.0914 408.0914 408.0933 408.0933 408.0933 408.1112 408.1112 408.1112
   408.1240 408.1240 408.1331 408.1331 408.1331 412.5137 412.5137 414.8251
   414.8251 414.8251 415.1252 416.2773 416.2773 416.2773 417.4544 417.4544
   417.4544 417.5287 417.5287 417.5287 417.6221 417.6221 417.6221 419.3394
   419.3394 419.3777 419.3777 419.3777 419.3917 422.2494 422.2494 422.2494
   422.2732 422.2732 422.2758 423.6282 423.6282 423.6282 423.6443 423.6443
   423.6443 423.6514 423.6514 423.6514 423.6628 423.6628 423.6628 424.4648
   424.4706 424.4706 424.4776 424.4776 424.4776 439.4171 439.4171 439.4171
   441.3738 441.3738 441.3738 441.6921 441.6921 442.7556 443.1124 443.2909
   443.2909 443.2909 443.2973 443.2973 443.2973 443.2990 443.2990 443.2990
   443.3092 443.3092 443.3092 443.3166 443.3166 447.7558 447.7558 447.7558
   448.6459 448.6459 448.6459 448.6466 448.6466 450.2434 450.4134 450.4134
   450.4134 453.8133 454.7079 454.7079 454.7079 454.8675 454.8675 454.8675
   455.3049 456.6933 456.6933 457.8702 457.8702 457.8702 457.8973 458.1841
   458.1841 458.1841 458.2798 458.2798 458.2798 458.2802 458.2802 458.2802
   458.2819 458.2819 458.2819 458.3439 458.3439 458.3439 458.3444 458.3444
   458.3984 459.2133 459.2133 459.4087 459.4087 459.4087 459.5510 459.6061
   459.6061 459.6061 459.6112 459.6112 459.6273 459.6273 459.6273 459.6313
   459.6313 459.6313 459.7428 459.7428 459.7923 459.7923 459.7923 460.2371
   460.2371 460.2371 460.2437 460.2573 460.2573 460.2691 460.2691 460.2691
   460.2750 460.2750 460.2750 462.6664 462.9007 462.9007 462.9007 462.9070
   462.9070 462.9854 462.9854 462.9854 462.9905 462.9905 462.9905 463.0050
   463.0050 463.0050 463.0273 463.0803 463.0803 463.0803 463.2701 463.2701
   463.3095 463.3095 463.3095 476.6965 476.6965 477.2958 477.2958 477.2958
   477.7493 477.9642 477.9642 477.9642 479.4453 479.4453 479.4453 479.6417
   479.6417 479.6417 479.6550 479.6550 479.6639 479.7116 479.7116 479.7116
   479.7138 479.7138 479.7138 479.8458 479.8458 479.9142 479.9142 479.9142
   479.9597 480.6534 480.6534 480.6534 480.7453 480.7453 480.7453 480.7612
   480.7612 480.7612 480.8261 480.8261 480.8261 482.1526 482.1526 482.2653
   482.3024 482.3024 482.3024 482.3134 482.3134 482.3134 482.3624 482.3624
   482.3624 482.4322 482.4386 482.4386 482.4500 482.4500 482.4500 482.4517
   482.4517 482.4517 482.4673 482.4673 482.4673 483.5818 483.5818 483.6030
   483.6030 483.6030 483.6223 490.8437 491.3947 491.3947 491.3947 491.7122
   491.7122 491.7488 491.7488 491.7488 492.6752 492.6752 492.6752 492.9796
   492.9796 493.0113 493.0113 493.0113 493.1060 493.1060 493.1060 493.1383
   493.1383 493.1383 493.1455 495.3705 495.3705 495.3705 495.5429 495.5429
   495.5429 495.5578 495.6459 495.9353 495.9353 495.9642 495.9642 495.9642
   495.9725 495.9725 495.9725 495.9781 495.9781 495.9781 495.9829 495.9829
   495.9848 495.9848 495.9848 498.1143 498.1143 498.1166 498.1166 498.1166
   498.1297 498.2645 498.2645 498.2645 498.2694 498.2694 498.2694 498.2801

          k =-0.2500 0.2500-0.2500 (  2427 PWs)   bands (ev):

   -27.4987 -11.0382 -10.8855 -10.8855   0.3995   6.9146   9.1680   9.1680
     9.4712  10.5831  10.5831  15.1332  16.5052  16.5052  16.5152  18.7649
    18.7649  20.0494  22.6645  22.6645  24.8156  27.5189  27.5189  29.5636
    30.6254  30.6254  34.0845  34.8649  37.0066  38.0731  38.0731  39.2873
    39.2873  40.6592  40.6592  41.8886  42.8616  43.9943  44.3617  44.3617
    46.1700  46.1780  46.1780  47.3677  48.0297  48.0297  51.5593  51.5593
    51.5848  53.5763  53.5763  53.8691  55.7582  55.7582  56.5511  57.9517
    58.3596  58.3596  59.2683  59.9563  59.9563  60.7922  61.7134  61.7134
    65.8011  65.8011  66.1573  70.7775  71.0121  71.0121  72.1629  72.1629
    72.7590  75.6941  75.6941  75.9446  76.8610  77.7448  77.7448  78.0218
    78.0218  78.6834  79.8595  83.0607  83.0607  83.6514  84.9884  84.9884
    85.8434  86.8515  86.8515  87.2245  87.4214  88.4251  88.4775  88.4775
    89.4322  89.5636  89.5636  91.0850  91.0850  91.5452  91.5452  92.5796
    95.1004  95.1004  95.6027  95.6027  95.8662  96.6740  96.6740  97.8011
    98.7550 100.3171 100.7264 101.0055 101.0055 101.9763 101.9763 102.3350
   103.6708 103.6708 103.7099 103.9054 103.9054 105.6029 106.1068 106.1068
   107.0095 107.8457 107.8457 108.3321 109.8760 109.8760 110.2898 110.9010
   110.9010 111.9886 112.9326 112.9326 113.9242 114.6681 114.6681 115.9790
   116.4575 116.4575 117.1311 117.3982 117.3982 118.9545 119.4419 119.4419
   119.4883 121.5953 121.5953 122.2227 125.9323 126.5647 126.5647 128.2092
   128.2092 129.8189 130.1835 131.1735 131.1735 132.1755 132.1755 133.6924
   134.5311 134.5311 135.1172 135.4536 135.4536 138.4340 138.9426 138.9426
   139.3093 139.3093 139.5089 139.6947 140.7613 140.7613 141.4368 141.4368
   141.9808 142.1996 143.3039 143.5756 143.5756 144.8644 144.8644 145.1479
   145.3639 146.1107 146.1107 148.3600 148.7871 148.7871 149.4990 150.7296
   151.5401 151.5401 151.9244 151.9244 152.4611 152.5617 152.5617 154.5603
   154.5603 155.1652 156.0881 157.5151 157.5151 158.8101 158.8101 159.1634
   160.1340 160.1340 160.6835 160.7355 161.2125 161.2125 161.3897 162.2008
   162.2008 163.0048 163.0048 163.0960 163.1757 164.6409 164.6409 165.1004
   165.3830 165.6201 165.6201 166.1912 166.1912 167.2949 167.8612 168.9657
   168.9657 169.2431 169.9212 169.9212 171.3483 171.4923 171.4923 171.7138
   171.7660 171.7660 172.4888 172.4888 173.3399 173.3399 174.2468 174.7035
   174.7035 174.9378 175.2380 176.3563 176.3603 176.8356 176.8356 178.3818
   178.3818 178.7186 179.0694 179.0694 179.5907 179.5907 180.3534 181.3140
   181.3140 182.8488 182.8488 183.5333 183.5333 183.6879 184.2196 185.2907
   185.5925 187.3650 187.3650 188.4539 188.6193 188.6193 189.3131 189.8105
   189.8105 189.8760 189.8809 189.8809 191.0275 191.0275 191.7878 193.2875
   193.7713 193.7713 193.9723 194.5573 194.5573 195.1341 195.1341 195.1933
   199.4301 199.6598 199.6598 200.1043 200.8702 200.8702 201.3363 202.3634
   202.3634 202.8554 203.5275 203.5275 206.2468 206.2468 206.8859 207.4283
   207.4283 207.8014 209.0932 209.0932 209.1444 209.4920 210.2829 210.2829
   210.6025 212.5848 213.2318 213.2318 213.4474 214.7068 214.7068 215.8437
   215.8437 216.1482 216.2053 216.3075 216.3075 216.7205 216.8661 216.8661
   217.0084 217.3344 217.3344 218.3477 218.3477 218.5510 219.2206 220.1488
   220.1488 221.5378 221.5378 222.1994 224.5649 224.5649 224.7800 225.4788
   225.4788 225.8666 226.2052 226.3223 226.3223 227.4310 227.4310 228.4817
   229.3326 229.3326 229.7476 231.1676 231.1676 231.9048 231.9048 232.2634
   234.3800 234.5918 234.5918 235.3156 235.3156 235.4400 236.6050 236.6050
   236.7968 237.3964 237.7169 237.7169 237.8805 238.1854 238.1854 238.5400
   239.8361 239.8361 239.8511 241.6568 242.0534 242.2499 242.2499 243.2320
   243.2320 243.6491 243.6491 243.8711 243.8711 243.9368 244.0320 244.8010
   245.1294 245.1294 246.5475 246.7138 246.7138 247.8854 247.8854 248.2842
   248.2842 248.5938 248.6728 249.4736 250.5306 250.5306 251.1640 251.5148
   251.5148 251.7804 251.9400 251.9805 251.9805 252.0904 252.0904 252.5057
   252.9301 252.9301 254.7628 254.9979 254.9979 255.1543 256.1280 256.1280
   256.2154 257.3225 257.3227 257.3227 258.1235 258.1235 258.4082 258.5408
   258.6401 258.6401 259.1785 259.1785 259.2518 259.9239 260.0110 260.0110
   260.1263 260.1263 260.2269 262.3342 262.3342 262.7843 262.9784 263.0677
   263.0677 264.3341 264.3341 264.4330 265.2840 265.2840 265.5178 265.5635
   265.5635 266.1344 266.1738 266.1738 266.8032 266.8032 266.8066 266.8847
   267.4610 267.4610 267.5271 270.1240 270.1240 271.5452 273.5968 273.6243
   273.6243 275.3280 275.3280 275.3282 276.5842 277.0821 277.0821 277.4258
   277.4258 277.6658 277.8181 277.8181 277.8438 278.8936 278.8936 279.0026
   279.7965 280.6490 280.6490 280.6608 280.6946 282.4894 282.4894 283.6671
   283.6671 284.5275 284.6157 284.6157 284.7110 284.7110 285.0850 286.3549
   286.3549 286.8422 286.8422 287.9003 287.9003 288.0484 288.3937 288.7936
   289.1999 289.1999 290.2751 290.9229 291.0491 291.0491 291.7807 291.7807
   291.9335 292.0347 292.0347 292.4516 292.4516 292.5407 292.6809 295.2746
   296.4858 296.4858 297.0765 297.0765 297.9935 298.1858 298.1858 298.5149
   298.7781 299.5903 299.5903 299.9895 300.0401 300.0401 300.1274 300.8247
   300.8247 300.9424 301.7874 301.7874 301.8404 303.9804 303.9804 304.3485
   304.3485 305.0647 305.3966 305.3966 305.9294 306.6095 306.6095 307.4278
   309.1561 309.1561 309.7186 310.9073 312.1846 312.1846 312.9444 312.9789
   312.9789 313.2085 313.7009 313.7009 314.2786 314.2786 314.3923 314.5600
   316.0467 316.0467 316.0818 316.0818 316.1683 317.8030 318.1828 318.4964
   318.4964 320.6296 320.6296 321.1666 321.1666 321.2109 322.0307 322.0307
   322.8581 322.8959 322.8959 322.9484 323.4907 323.6886 323.6886 324.2794
   325.0655 325.4310 325.4310 326.4316 326.6925 326.6925 327.4956 327.4956
   328.1586 328.2972 328.4324 328.4324 328.8348 328.8348 328.8920 328.9096
   328.9431 328.9431 330.4000 330.4000 330.4345 333.0401 333.7635 333.7635
   334.4005 334.4005 334.9195 337.0992 337.8371 337.8371 338.0486 338.0486
   338.3184 338.3549 338.5071 338.5071 338.8643 338.9260 338.9260 339.8235
   339.9743 339.9743 341.2607 341.2607 341.6364 342.1790 342.1790 342.3127
   343.2501 343.8226 343.8226 344.1652 344.4315 344.4592 344.4722 344.4722
   345.3778 345.3778 345.7747 345.7747 346.0236 346.1723 346.4438 346.4438
   348.3870 348.3870 348.6551 348.6551 348.7031 349.1789 349.1789 349.3134
   349.9025 349.9025 350.2618 350.2618 351.0905 351.2377 351.2377 351.4440
   351.9479 351.9695 351.9695 352.8197 353.2190 353.2190 353.4405 353.8788
   353.8788 353.9726 354.7774 354.8149 354.8149 355.2228 356.0734 356.0734
   357.1121 357.1121 357.1541 357.6230 357.6230 357.7160 358.0526 358.0526
   358.1271 358.1271 358.1919 358.1928 358.5772 358.5772 359.2456 359.2456
   359.5631 360.1948 360.2594 360.4248 360.4248 360.9923 361.0179 361.0179
   362.0829 362.0829 362.2061 362.9840 362.9941 362.9941 364.0017 364.0017
   364.0974 365.9448 366.2952 366.2952 366.8185 367.2041 367.2041 367.3013
   368.4803 368.5916 368.5916 369.4790 369.4790 369.5650 370.3194 370.3194
   370.8715 371.1496 371.1496 371.4449 371.6395 371.6395 371.9781 371.9781
   372.1181 373.7212 374.6278 374.6278 375.9338 375.9338 376.0450 376.3104
   376.3104 376.4409 376.5980 376.5980 377.0013 377.3871 377.3871 377.5892
   378.4434 378.4434 378.8549 378.9099 378.9099 379.0178 379.7219 379.7219
   379.8521 380.0591 380.0591 380.4994 381.5241 383.0015 383.0015 383.0068
   384.4121 384.4121 384.4958 384.6153 385.1288 385.1288 386.1985 386.1985
   386.3444 386.9001 386.9001 387.2176 387.9402 387.9402 388.3454 388.6257
   388.6257 388.6514 390.6813 390.6813 390.9913 391.5834 391.5834 392.7074
   392.8397 392.8397 393.9215 393.9518 393.9518 394.9100 395.2020 395.2990
   395.2990 395.3539 395.3539 395.3710 396.1208 396.4341 396.4341 396.7806
   396.8890 396.8890 397.1031 397.1167 397.1167 397.1903 397.1903 397.3436
   397.5397 397.5397 397.5915 399.6531 399.6531 399.6778 402.4621 402.4621
   402.5922 402.5922 402.9163 402.9687 403.2920 403.2920 403.3799 403.4342
   403.5754 403.5754 404.1404 404.1404 404.3004 404.7819 404.9198 404.9198
   405.0494 405.9557 405.9858 405.9858 406.1101 406.1101 406.1798 406.6229
   406.6229 410.0542 410.0542 410.0659 411.1475 411.5363 411.5363 412.1366
   412.1422 412.1422 412.6786 412.7326 412.7326 412.8660 413.3084 413.3084
   413.3742 414.4393 414.4393 414.4651 415.4364 415.5461 415.5461 416.4995
   416.4995 417.5279 418.3174 418.3174 418.3377 419.1742 419.1742 420.3718
   420.7669 420.7669 420.9927 422.3055 422.3055 423.8786 423.8786 423.9027
   423.9370 423.9370 424.2207 424.3113 424.3113 424.9997 425.0706 425.0706
   425.4686 426.5486 426.5486 426.6287 428.2631 428.2829 428.2829 429.0750
   429.0750 429.7668 431.0318 431.0318 431.1316 431.2156 431.6787 431.6787
   432.7473 432.7473 432.9733 435.8284 435.8284 436.9382 437.5409 437.5409
   437.7387 438.1455 438.1455 438.2683 438.5014 438.5014 438.6195 439.0094
   439.0094 439.1402 440.0694 440.0694 440.1956 441.4371 442.2949 442.9322
   442.9322 443.2540 443.2540 443.4724 443.4850 443.4850 443.9852 444.0620
   444.0620 444.0621 444.8505 444.9609 444.9609 445.9561 445.9561 446.0546
   446.1701 446.1701 446.3373 446.3373 446.3587 448.2216 448.2216 448.9633
   449.0373 449.0373 450.2749 451.4232 451.4232 451.6297 452.1034 452.1910
   452.1910 452.3746 452.3746 452.3833 452.5297 452.5297 452.6260 452.6731
   452.6731 452.8755 454.1845 454.1845 454.2066 454.5751 454.6989 454.6989
   455.0888 455.0888 455.2411 455.9089 457.0633 457.0633 458.4640 459.1030
   459.2431 459.2431 459.5075 459.5075 459.5704 459.7467 459.7606 459.7606
   460.3317 460.3317 460.4748 461.1192 461.1192 461.4180 461.4430 461.4430
   461.9880 461.9880 462.0613 462.0675 462.4721 462.4721 462.5494 462.8022
   462.8022 462.9372 464.4038 464.4038 464.4445 465.3107 465.3362 465.3362
   465.8872 465.8872 466.0738 467.0984 467.1500 467.1500 467.3725 467.3725
   467.4358 467.7628 467.7931 467.7931 468.0620 468.0620 468.1662 468.8315
   468.8610 468.8610 470.8963 470.8963 470.9712 472.2669 472.2669 472.3795
   472.4785 472.4785 472.6870 474.1352 474.1352 474.2897 476.7846 476.7846
   476.8189 477.7662 477.7662 477.8657 478.0408 478.0408 478.1320 479.1822
   479.4991 479.4991 479.9672 479.9988 479.9988 480.2657 480.6475 480.6475
   481.0748 481.0748 481.1463 481.2398 481.2398 481.2511 481.6592 481.6592
   481.7974 482.0443 482.0443 482.1259 482.7688 482.7688 482.9240 483.2911
   483.5756 483.5756 483.8349 483.8349 483.9385 483.9385 483.9956 484.0138
   486.4814 486.4814 486.6445 487.1287 487.1287 487.2117 488.5233 489.8083
   489.8315 489.8315 490.0642 490.0642 490.0831 490.4805 490.4805 490.6784
   490.7301 490.7301 490.8316 490.8316 490.8455 491.1890 491.1890 491.3470
   491.3470 491.4018 491.5067 493.1565 493.6934 493.6934 493.8911 493.9809
   493.9809 494.2266 494.2266 494.5156 495.0245 495.6052 496.4953 496.4953
   496.5518 496.9171 496.9171 497.0287 497.1101 497.1101 498.6880 498.6880
   498.7468 498.7468 499.0955 499.5092 500.1599 500.1599 501.0432 501.0432
   501.1645 501.5365 501.7407 501.7407 502.4428 502.4428 502.5318 503.4631
   503.4631 503.5295 503.8144 503.8144 503.8330 503.9489 503.9489 504.1813

          k = 0.5000-0.5000 0.5000 (  2392 PWs)   bands (ev):

   -27.4824 -11.2006 -10.9043 -10.9043   1.5253   4.9622   8.6462   8.6462
    10.4029  11.7590  11.7590  12.5887  15.8058  15.8058  18.9359  18.9359
    20.4089  20.8904  23.5660  23.5660  26.1695  26.7190  26.7190  28.2456
    30.5748  30.5748  31.3646  35.0263  35.0263  36.1114  36.3705  39.0910
    39.0910  39.8888  41.2466  41.5157  41.5157  41.9133  43.5720  43.5720
    45.5751  45.5751  45.6657  48.8007  50.8330  50.8330  51.0736  51.0736
    51.1494  54.7453  54.7453  55.5304  58.8073  58.8073  60.4248  61.3439
    61.5610  61.5610  61.6907  61.6907  63.7373  64.3748  64.5265  64.5265
    65.9547  66.1695  67.1143  67.1143  67.2582  67.2582  68.1501  68.8666
    68.8666  71.4471  73.5556  73.5556  73.8858  73.8858  75.3560  75.3560
    77.2024  78.3319  78.3319  79.2537  82.1967  83.2447  83.8677  84.4767
    84.4767  85.7901  85.7901  86.3155  86.9684  87.2715  87.2715  89.2231
    89.2377  89.2377  90.5901  91.3495  91.3495  92.7841  93.4761  93.6841
    93.6841  94.0167  94.0167  94.1021  96.1049  97.7274  97.7274  98.4947
    98.4947  99.8227 100.9666 100.9666 102.5037 102.5037 102.8847 103.2007
   103.6384 103.6384 104.1275 104.3551 106.9818 106.9818 107.0289 107.0289
   109.1006 109.5241 109.5241 112.4924 113.0231 113.2010 113.2010 113.5419
   113.6408 113.6408 113.9985 114.4382 114.4382 115.3666 118.0661 118.0661
   118.1021 118.1021 119.8715 120.7086 120.7619 120.7619 121.7883 121.7883
   121.9537 121.9566 123.2932 123.2932 123.4261 123.4261 124.7853 124.7853
   128.0773 128.0773 128.1965 130.1749 130.6566 130.7430 130.7430 130.9915
   131.0732 132.2346 132.2346 133.8787 134.3841 134.3841 135.3996 135.3996
   138.1806 139.1198 139.1198 139.2274 140.4496 140.6628 140.6628 142.2805
   142.2805 142.4420 143.7054 143.7054 144.3699 146.9302 146.9538 146.9538
   146.9544 148.8230 148.8230 149.1639 149.1934 149.1934 149.5888 149.6200
   149.7182 149.7182 149.7843 149.7843 149.9394 149.9394 150.5133 150.5133
   150.5619 150.6989 152.8239 152.8239 155.4351 155.4697 156.6419 156.6419
   157.2047 157.2047 158.6760 158.9556 159.0812 159.0812 159.1454 159.1454
   159.1901 159.1901 159.5732 159.8299 160.5595 160.5595 163.0171 163.0171
   163.6237 164.0832 165.6579 165.6579 167.1497 167.6433 167.7672 167.7672
   167.8452 168.1779 168.1779 168.3079 172.3140 172.4870 172.4870 172.5018
   173.1301 173.1301 175.2027 175.2027 175.3067 175.4832 176.8480 176.8480
   177.6370 178.2874 178.2903 178.2903 178.3538 178.3538 179.5580 179.5580
   179.5787 179.5787 179.6137 179.6767 180.1357 180.2723 181.4138 181.4138
   182.9415 182.9415 189.5929 189.5929 189.8756 190.7311 191.1802 191.1802
   191.8971 192.6380 192.7795 192.7795 193.8381 193.8381 194.5165 194.5165
   194.5828 194.6171 195.4671 195.4671 195.4868 195.4896 195.5826 195.5826
   196.1441 196.9983 197.2229 197.2229 197.2718 197.2718 198.5562 200.6296
   200.6296 201.2446 201.7944 201.7944 202.9372 203.2043 203.2043 203.5885
   203.5885 203.6401 203.6401 204.1107 204.5395 204.6540 204.6540 204.9592
   204.9592 205.2955 205.2955 205.3326 205.4119 206.0149 206.0149 206.0325
   206.0325 206.1467 207.0240 207.0241 210.0181 211.5189 211.5189 211.6231
   213.6292 213.6292 214.8191 214.8785 214.8785 214.9018 215.7399 215.7399
   215.7973 215.7973 216.4071 216.4071 218.7643 220.1162 220.2704 220.2704
   221.2615 221.4771 221.4771 222.3927 222.5066 222.5066 222.8568 222.9567
   223.4918 223.4918 223.8952 223.8952 224.3603 224.3603 224.6460 224.7284
   224.7284 224.8326 225.6400 225.6400 225.6600 226.3434 231.6615 231.6615
   232.6725 232.9438 232.9438 233.3378 233.3378 233.5275 233.5275 233.5415
   233.6116 233.6740 233.8453 233.8711 233.8711 234.3439 234.3439 234.4551
   237.8373 238.1405 238.1405 240.2617 240.2617 240.7587 241.0611 241.0611
   241.4509 241.7907 241.7907 241.8092 242.2615 242.2615 242.5233 242.8598
   242.9236 242.9236 244.2570 244.2570 244.3126 246.1165 248.6893 248.6893
   249.2329 249.3751 249.3751 250.1631 250.1631 250.3597 250.3597 250.5753
   250.9328 250.9328 251.1911 251.4979 252.1518 252.2749 253.3135 253.3135
   254.2446 254.2446 254.2797 254.2797 254.7410 254.7410 255.7301 256.1023
   256.3749 256.3749 257.3792 257.7624 257.7624 257.9152 260.4070 260.4070
   260.4223 260.4736 260.4736 260.6645 261.7207 261.7337 261.7337 262.1526
   262.1526 262.2285 263.4085 263.4085 263.8574 263.8574 263.8577 263.8745
   263.8745 263.8820 267.8882 267.9718 268.2872 268.2872 268.6109 268.6109
   270.2565 270.4853 270.4853 270.6586 270.6823 271.5152 271.5152 273.3749
   274.3064 274.3064 276.1756 276.1756 277.7417 277.9216 277.9216 278.1636
   278.1636 278.2119 278.6620 278.6620 278.6988 278.7811 278.9333 278.9613
   280.0328 280.0328 280.2661 280.2883 280.3148 280.3148 283.7171 283.7171
   283.9436 284.9447 285.2365 285.2365 285.9461 285.9921 285.9921 286.0509
   286.0509 286.2838 286.2838 286.8886 287.2155 287.2155 287.3964 287.6814
   288.5217 288.5217 288.7752 288.7752 288.8176 288.8224 289.1173 289.1173
   289.1756 289.1899 289.1899 289.2937 289.9451 290.0713 290.2712 290.2712
   290.3357 290.3357 290.3459 290.3511 290.4666 290.4666 290.6267 290.6267
   295.1889 295.1889 296.6544 296.7284 296.7284 296.9513 297.3143 297.3143
   298.4204 298.4204 298.4607 298.5273 298.5606 298.6282 298.6282 298.6837
   298.7595 298.7595 299.6006 299.6006 299.6062 299.6062 299.6635 299.6776
   302.9219 304.3064 304.3064 306.2799 306.2799 306.5799 307.3730 307.3730
   307.8008 308.0486 308.0555 308.0555 308.5425 310.5890 310.5890 311.3728
   314.0442 314.0442 314.4838 314.4838 315.0192 315.5261 315.8498 315.8498
   315.9379 315.9379 316.0173 316.0294 316.1832 316.1832 316.4921 316.4921
   317.0409 317.0409 317.0634 317.0660 317.9727 317.9727 317.9815 317.9815
   318.9694 318.9702 320.9339 320.9339 323.3587 324.4053 324.4053 325.0938
   325.0938 325.2325 325.4514 325.8521 325.9925 325.9925 326.2753 326.2753
   327.4082 327.6931 327.6931 328.0243 328.0243 328.0669 328.0669 328.1579
   328.1594 328.6503 329.2336 329.2336 330.6191 331.7210 331.7333 331.7333
   332.5564 332.6190 336.3844 336.3844 336.7422 336.9306 336.9306 336.9343
   336.9343 337.0396 337.0396 337.0844 338.0103 338.0103 340.6719 340.6719
   340.6982 340.6982 340.9124 341.3526 342.4936 342.4936 342.5924 342.6232
   343.0540 343.1121 343.1121 343.2914 343.3975 343.3975 344.0364 344.1736
   344.1736 344.2310 344.2310 344.2328 344.9160 345.1078 345.1078 345.2706
   345.2706 345.5043 345.5058 345.5058 345.5397 345.5397 345.5969 345.6731
   345.7937 346.2386 346.2731 346.2731 346.4042 346.4042 347.6700 347.6700
   347.6752 347.6752 347.7066 347.7430 351.9835 351.9835 352.3362 352.8284
   352.9491 352.9491 353.1472 353.4263 353.4263 353.6903 353.6903 354.2318
   355.0933 355.1321 355.1321 355.2284 355.2284 355.2600 358.6117 358.6117
   359.5351 359.8966 360.1952 360.1952 360.8221 360.8221 361.4954 361.5381
   361.5381 361.5444 361.6022 361.6414 361.6414 361.6914 361.6914 361.9196
   363.7465 363.7465 363.8770 363.8770 363.9593 363.9593 365.4160 365.5988
   365.5988 365.7033 365.7405 365.7405 365.8812 365.8812 365.8853 365.9184
   365.9184 365.9598 368.6406 370.7337 370.8195 370.8195 371.8742 371.8742
   371.9690 371.9690 372.3017 372.3256 372.3256 372.4332 372.6558 372.6558
   373.0868 373.2249 373.2249 373.2368 373.2368 373.4155 373.4972 373.4972
   373.5034 373.5216 377.4741 378.1289 378.1289 379.0760 379.2377 379.2377
   379.7439 379.8425 382.5356 382.5356 383.0197 383.0397 383.0397 383.0445
   383.0445 383.1151 383.7241 383.7241 384.0538 384.0538 385.0861 385.2149
   386.3754 386.3754 388.5170 388.5170 389.3053 389.8567 389.8567 390.1147
   390.3819 390.3819 390.6421 390.6421 390.6841 390.6841 390.6983 390.7468
   390.7994 390.8340 390.8340 390.9008 391.5852 391.5896 391.6251 391.6251
   391.7737 391.7737 393.0036 393.0036 393.0057 393.0232 393.0232 393.0793
   397.1059 397.1059 397.4299 397.8818 397.9698 397.9698 399.8563 399.8563
   400.2475 400.3068 400.3251 400.3251 400.6918 400.6918 400.8472 400.8472
   400.8690 400.8694 402.0296 402.1524 402.5698 402.5698 402.6322 402.6322
   402.7273 402.7273 402.7359 402.7388 402.7466 402.7466 407.4107 407.4107
   407.4297 408.1002 408.2369 408.2369 408.5742 408.5742 409.0022 409.0022
   409.0662 409.0662 409.1082 409.2421 409.3679 409.3679 409.3733 409.3912
   411.3308 411.3308 411.4595 411.4595 411.5387 411.5388 413.7266 413.7266
   415.1345 415.5327 415.5327 416.0250 418.2096 418.5035 418.9616 418.9616
   419.2057 419.5706 419.5706 419.5742 419.5742 419.7444 419.8897 419.8897
   419.9237 419.9549 420.1876 420.2290 420.2657 420.2657 420.2835 420.2835
   424.1197 424.1197 425.4364 425.6735 425.6735 426.0693 426.0693 426.1961
   426.6293 426.7993 427.0993 427.0993 427.4555 427.4555 427.4832 427.4832
   427.6069 427.6270 427.6302 427.8884 428.1285 428.1285 428.1297 428.1297
   428.1513 428.1819 428.3415 428.3415 428.3663 428.3663 429.7115 429.7167
   429.7604 429.7604 429.7693 429.7693 429.9148 429.9148 429.9538 429.9538
   430.0140 430.0212 430.4581 430.4682 430.4682 430.4865 430.4865 430.5308
   438.7674 438.8193 438.8771 438.8771 438.9848 438.9848 439.0478 439.0478
   439.1450 439.1539 439.1539 439.1548 439.1769 439.1769 439.3346 439.3351
   439.3711 439.3711 441.8745 441.8745 442.6886 443.1145 443.1145 444.2279
   445.5085 445.5085 445.5087 445.8371 445.8371 445.8622 447.3134 447.3134
   447.7345 447.7829 447.7829 447.8281 447.8281 447.8895 447.9045 447.9045
   447.9434 447.9731 448.0290 449.0419 449.0419 449.3192 449.3192 449.5006
   449.6827 449.6827 449.7754 449.7754 449.7981 450.1996 450.4673 450.9392
   452.2555 452.2555 452.7643 452.7643 455.9374 455.9374 455.9675 455.9675
   456.6273 456.8919 456.8920 457.0314 457.0314 457.0334 457.2840 457.3325
   457.3325 457.4399 457.4399 457.4891 457.5160 457.5160 457.5347 457.5878
   458.4826 458.5538 458.5538 458.5945 458.5945 458.6047 458.6047 458.6321
   458.6321 458.6540 460.0764 460.0764 460.0781 460.0781 460.6598 460.6598
   465.2638 465.2638 465.3449 465.5120 465.5120 465.5435 466.6106 466.6106
   466.7191 466.7191 466.7713 467.0822 472.8871 473.3003 473.3003 473.6085
   473.6085 473.8989 473.8989 473.9558 473.9688 474.3114 474.3114 474.4349
   474.4667 474.4667 474.8486 474.8486 474.9045 474.9186 474.9681 474.9991
   474.9991 475.0202 475.0202 475.3002 475.3002 475.3131 475.3155 475.3193
   475.3193 475.6396 475.7838 475.8498 475.8498 475.9262 475.9262 475.9529
   481.4579 481.4859 482.3314 482.3314 482.7999 482.7999 482.9470 482.9772
   483.0203 483.0203 483.0777 483.0777 483.1448 483.3239 483.4021 483.4021
   483.6940 483.7835 483.7835 483.8050 483.9909 483.9909 484.0858 484.0858
   484.1335 484.1603 484.1644 484.3441 484.3441 484.4604 484.5343 484.5343
   486.3316 486.3316 486.3475 486.3475 486.8115 486.8115 486.8263 486.8263
   486.8554 486.8555 486.8804 487.1219 487.1219 487.2305 487.2305 487.2903
   487.4144 487.4421 487.4421 487.4661 487.4661 487.4729 492.9618 492.9618
   492.9980 493.1814 493.1814 493.3124 495.8500 495.8500 495.8718 495.8811
   495.8811 495.8865 502.2888 502.2888 502.2916 502.2916 502.3337 502.3337
   502.6141 502.7552 502.9185 502.9185 502.9436 502.9733 503.5890 503.8630
   503.8630 503.9431 504.0108 504.0108 504.0535 504.0535 504.0847 504.0847
   504.0849 504.1185 508.3047 508.3530 508.3530 509.0228 509.0228 509.4909

          k = 0.0000 0.5000 0.0000 (  2429 PWs)   bands (ev):

   -27.4934 -11.0264 -10.9213 -10.9213   0.5081   7.2334   7.8463   9.6845
     9.6845  10.8896  11.2035  14.4874  14.4874  16.8156  16.8918  19.6705
    19.6705  20.0437  22.4615  23.7963  25.9046  26.3604  26.3604  30.9206
    31.0321  31.5027  31.5027  34.4910  36.9909  36.9909  37.3487  38.0331
    38.7339  38.7339  40.7536  43.6097  43.9937  43.9937  44.4829  46.2266
    46.2266  46.3945  46.6363  47.1246  49.0484  49.0484  49.7532  49.9485
    50.5318  51.9868  54.3856  54.3856  55.3813  55.3813  56.2924  57.3346
    59.1463  59.6786  60.4871  60.4871  63.0229  63.5122  64.4521  64.4521
    66.7460  67.7019  67.8167  67.8167  69.1849  69.8348  72.7523  72.7523
    73.5394  73.5394  73.8359  74.8055  74.8665  74.9356  76.0306  76.0306
    77.4359  77.4359  78.6822  80.2789  81.7506  81.7506  83.8933  84.2568
    85.1614  85.5410  87.6961  87.6961  89.2175  89.2654  89.8268  89.8268
    90.3266  90.5974  90.9880  90.9880  92.1973  92.4336  92.4336  92.5448
    93.3301  93.5788  96.1510  97.3496  97.3496  97.9450  99.7507 100.0081
   100.0510 100.0510 100.5349 100.6400 100.6400 100.7659 100.7659 100.8037
   101.6974 102.1269 102.1269 102.1569 102.8728 103.6340 104.9308 106.0737
   106.0737 106.6375 108.9401 108.9401 109.1447 110.8836 111.2202 111.2585
   111.2982 111.2982 112.4563 112.4563 115.4521 117.8542 117.8542 118.8128
   118.8384 119.4184 119.4184 119.4932 120.5329 120.5329 120.7103 121.8229
   122.1838 124.1427 124.3073 125.4997 125.9262 125.9262 126.7233 126.7233
   126.8990 127.5453 129.2765 130.3315 130.3315 130.4873 130.9907 131.8393
   131.8393 134.2919 134.6823 134.7798 136.0662 136.0662 136.8830 137.0635
   137.5171 138.1806 138.2473 138.2473 139.5684 139.5684 139.9485 141.8032
   141.8032 142.8274 143.7075 144.4104 144.4104 144.7149 145.8934 146.1233
   146.3806 146.3806 147.5152 147.5152 147.8583 148.6881 149.3025 149.8313
   149.8313 150.0065 150.0956 150.3262 150.5013 150.5013 151.5404 153.1086
   153.1086 153.7098 155.3099 155.3099 155.7642 155.7642 155.8571 157.0995
   157.2339 157.2794 157.6726 157.6726 157.8098 157.8278 160.2891 161.9085
   161.9085 161.9662 163.1749 163.4115 163.4115 164.1151 165.9919 166.0406
   166.0406 166.0921 167.6739 167.6739 169.2227 169.7531 170.5942 171.3210
   171.7804 171.7804 172.5350 172.6668 173.1718 173.6198 173.6198 173.6645
   173.6645 174.4679 175.2057 175.8564 176.0720 176.0720 176.1412 176.1412
   176.1902 176.2477 176.8251 177.9602 177.9602 178.0297 179.3863 180.9573
   180.9573 181.4649 181.7159 182.1041 182.4172 182.5679 182.5679 182.6528
   182.6528 183.1966 183.3209 183.3209 183.3451 183.9241 184.4336 184.4810
   184.4812 184.4812 184.7467 185.0890 185.0890 186.0237 186.5312 187.4320
   187.4320 187.9229 188.1229 190.2389 190.2389 190.5728 191.0668 192.5825
   192.7797 193.1926 193.2156 193.2156 193.9522 193.9522 193.9574 194.7623
   195.4128 195.4128 197.5153 199.3098 201.1286 202.4469 202.4469 202.7823
   203.6120 203.6120 203.6161 205.4444 206.0649 206.0649 206.3806 207.2777
   209.7669 209.7669 209.8193 210.1878 210.6616 210.6616 211.9086 212.2377
   212.8076 212.9022 212.9022 213.0035 213.0599 213.0599 213.1574 213.5522
   213.5522 213.7349 213.7622 214.2799 214.5655 214.5655 214.6481 215.5577
   215.9443 216.8186 218.5359 218.5359 220.4873 220.4873 220.5701 220.5953
   221.6226 221.8255 223.4380 223.4380 224.6621 224.6621 225.5765 225.8552
   225.8552 227.9333 228.7575 230.4950 230.4950 230.7301 230.9363 230.9490
   231.1234 231.1234 231.2100 232.1512 232.3146 232.3573 232.3573 232.9709
   233.8166 233.8166 234.7929 235.0101 236.8668 236.8668 237.0053 237.0053
   237.0826 237.2924 237.9812 237.9812 238.1353 238.2956 238.7618 238.8377
   238.9150 238.9548 238.9548 239.3410 239.3410 239.6103 239.8753 239.9964
   239.9964 240.1082 240.1247 241.2951 241.4572 241.5473 241.5473 241.6192
   242.3051 242.4609 242.4609 242.5245 242.6974 242.6974 243.4614 244.4742
   244.4742 245.6633 245.7490 246.6695 247.6176 247.6176 247.7285 248.4885
   248.4885 248.5347 249.8042 250.2200 250.2217 250.2217 250.2238 250.6991
   250.7793 250.7793 250.8712 252.2702 253.9873 255.0564 255.0564 255.8322
   256.5672 257.2492 259.0082 259.0151 259.0151 259.6550 259.6550 259.6792
   259.7585 260.0630 260.0942 260.0942 260.4205 260.6149 260.8385 260.8385
   260.8762 262.1853 263.2958 263.2958 263.5572 263.9772 265.9695 266.4403
   266.4403 266.5589 266.5589 266.6699 267.1696 267.1696 267.1796 267.3802
   267.7272 268.5993 268.5993 268.6078 268.6468 268.8719 268.8719 271.4113
   271.6061 271.6061 271.7767 273.9384 274.9900 275.4785 275.4785 276.1119
   276.2984 276.5466 276.5466 276.5746 276.5922 277.1578 277.1578 277.2077
   277.6792 277.6792 277.6941 277.8433 278.0475 278.0475 278.0954 279.1256
   281.8749 281.8749 282.1351 282.4048 282.9098 283.9276 283.9856 283.9856
   284.9788 285.1318 285.1318 285.7081 286.1619 286.1642 286.1642 286.2051
   286.6335 287.4468 287.4552 287.4552 287.9143 289.1652 289.2474 289.2875
   289.2875 289.3177 290.2290 290.2290 290.3736 292.5608 292.5608 292.8384
   293.6207 293.6207 293.7530 293.7682 294.6094 294.6094 294.6837 295.1406
   295.2254 295.8907 295.8907 296.0986 296.9840 297.1883 297.2175 297.2175
   297.3223 297.3223 297.3713 297.4293 298.4085 298.4085 298.5492 298.6359
   298.6359 298.6691 298.8156 299.5204 300.2334 301.9137 301.9137 303.8516
   304.1910 304.3661 304.6938 304.6938 306.6912 308.0324 308.0324 308.8279
   309.1194 309.8227 310.7679 310.7679 310.9999 312.1968 312.9983 312.9983
   313.0079 313.4662 313.5342 313.5342 315.3353 315.6555 315.6555 316.0427
   317.5111 317.9902 317.9902 318.5847 319.3458 320.5048 320.5048 320.8056
   321.6076 322.5356 322.5356 322.6301 322.8788 322.8788 322.9548 323.0849
   323.1034 323.3276 323.6167 323.6167 323.7287 323.8244 323.8244 323.8493
   323.9291 324.0926 324.1725 324.2466 324.2955 324.2955 324.5238 324.5452
   324.5452 324.9234 324.9234 325.1350 325.8544 325.8882 327.4006 327.4396
   327.4396 327.5067 327.8307 327.8307 329.2003 330.2396 330.2396 330.4829
   331.3437 331.5627 332.2418 332.2418 332.7556 333.5962 334.5943 334.6805
   334.6805 334.7079 338.1814 338.4468 338.4572 338.4572 339.4502 339.4502
   339.6439 340.0183 340.2462 342.2154 342.2154 342.3677 342.3955 342.3955
   342.3974 342.4773 342.8000 342.8766 342.8766 342.9452 342.9916 342.9916
   343.7528 344.0216 344.0216 344.1501 344.4186 344.6740 344.6740 344.7657
   345.6134 345.6134 346.1868 346.4083 347.2832 347.6212 349.2398 349.7238
   350.0284 350.0284 350.4737 350.5166 350.5166 350.7696 350.9986 350.9986
   351.1605 351.2092 351.2092 351.3023 352.2668 352.8730 352.8730 352.9082
   353.0529 353.0911 353.0911 353.1124 353.8064 354.3062 354.3062 354.6869
   354.8233 354.8233 354.8897 355.3704 355.7605 358.5051 359.1519 359.1519
   359.5970 359.9321 360.3617 360.3617 360.3664 361.4817 361.4819 361.6188
   361.6188 365.3080 365.9921 366.1887 366.6770 366.6770 366.9426 367.4730
   367.4730 368.2392 369.0546 369.0546 369.1223 369.3411 369.6299 369.6299
   369.7286 369.8223 369.8223 369.8649 370.0924 370.2426 370.6487 370.6487
   370.7329 370.9294 370.9294 370.9400 370.9494 371.0620 371.0659 371.0841
   371.0841 371.7191 371.8032 371.8032 371.8268 372.0321 372.1481 372.1481
   372.2050 372.4471 372.4711 373.5700 373.5700 373.7683 375.4564 375.4564
   375.5554 376.1155 376.5236 376.5236 377.4958 377.4958 377.7249 377.7717
   378.5064 379.0402 379.0402 379.0898 379.1469 380.3827 380.4902 380.6651
   380.6651 380.6977 380.8085 380.8529 380.8529 380.8535 380.8948 380.8948
   381.1664 381.2692 381.2788 381.2788 381.2872 381.3986 382.0515 382.1017
   382.1017 382.1242 382.7651 382.7651 383.4148 383.5331 383.5331 383.5787
   383.5833 385.9751 386.2972 386.2972 386.6147 388.7155 388.7155 388.7283
   388.8373 389.2770 389.5255 389.5255 389.5599 391.4120 391.8149 391.8149
   391.8571 393.3483 393.7178 393.7178 394.3403 395.5951 396.3135 396.3135
   396.3677 399.5870 399.8956 399.8956 399.9560 401.3532 401.3981 401.3981
   401.4230 403.0692 403.1823 403.2537 403.2537 404.6372 404.6372 405.1864
   405.2971 405.5944 405.7586 405.7616 405.7778 405.7778 406.2711 406.3826
   406.3826 406.8550 406.9565 406.9565 407.3139 409.3100 409.7717 409.7717
   409.9150 410.0249 410.1074 410.2006 410.2006 410.2341 410.2341 410.2494
   410.2669 412.7650 413.9030 413.9030 413.9708 414.6556 415.0258 415.3088
   415.3088 415.7861 415.7867 416.2109 416.3725 416.3725 416.5255 416.5255
   416.5727 417.3792 417.6200 417.6592 417.7764 417.7764 418.0911 418.2053
   418.2053 418.2149 418.2342 423.3379 424.2282 424.2282 424.5275 425.0994
   425.2249 425.2249 425.2885 425.6832 425.6832 425.7097 425.7695 425.8313
   425.9930 425.9930 426.0355 426.1224 426.2536 426.2536 426.3655 426.4291
   426.6152 426.6152 426.6188 426.9627 427.1675 427.1675 427.1939 427.5610
   427.5610 427.6838 427.9857 427.9857 428.0067 428.2812 428.3244 428.3244
   428.3658 428.6091 428.6446 428.6446 428.6565 430.7983 432.0455 432.7826
   432.9500 432.9500 433.1442 434.5930 434.5930 434.6579 434.6661 434.9503
   434.9503 434.9784 435.1214 435.1214 435.1451 435.5323 435.5323 435.5442
   435.6581 437.2803 437.3055 437.3055 437.3078 437.4547 437.4882 437.4882
   437.5181 437.9915 438.6464 438.6752 438.6752 438.6764 443.7011 443.7556
   443.7556 444.1675 444.4045 444.6674 444.6674 444.6760 444.9493 444.9926
   444.9957 445.0705 445.0705 445.4955 445.4955 445.5333 447.3948 448.7608
   449.0701 449.0701 451.0491 451.9874 451.9874 452.2921 453.8352 453.8352
   453.9661 454.1457 454.1575 454.2692 454.2825 454.2825 454.7834 454.8035
   455.0064 455.0064 457.2323 457.4744 457.5311 457.5311 457.5486 458.9008
   459.4459 459.4459 459.7948 460.1710 460.5163 460.5163 461.1622 461.1622
   461.2690 462.5420 462.5420 462.5631 462.7515 462.8718 462.8974 462.9705
   462.9981 462.9981 463.8866 463.8866 463.8984 464.0281 464.0490 464.0490
   464.0522 464.3371 464.3513 464.5525 464.5525 464.6024 465.4421 465.4710
   465.5892 465.5892 465.6354 466.8708 466.8708 467.7039 469.8134 469.9868
   469.9868 470.0800 471.2449 471.5206 471.5206 471.5925 472.7733 472.8850
   472.9442 472.9442 473.1089 473.1089 473.1683 473.1943 473.2221 473.2221
   473.2916 473.3337 473.4878 473.6799 473.6799 473.7225 474.5425 474.5746
   474.5751 474.5751 476.0233 476.0424 476.0424 476.0461 479.1117 479.1117
   479.6991 480.1716 481.0342 481.1661 481.4274 481.4274 481.4347 481.5820
   481.6676 481.7134 481.7134 481.8612 481.8612 481.9062 482.9132 482.9132
   483.1020 483.1326 483.1695 483.1695 483.1828 483.2947 484.0670 484.0899
   484.0899 484.1536 487.6056 488.6316 488.6316 488.9038 489.5381 489.5381
   489.6117 489.7409 490.4485 490.4570 490.7574 490.7574 490.8561 491.0530
   491.0780 491.0780 491.1447 491.2262 491.2303 491.2303 491.3355 491.5203
   491.5203 491.6310 492.1749 492.3927 492.3927 492.5130 492.5535 492.6376
   492.6380 492.6380 492.6701 492.6760 492.6760 492.7030 492.8764 493.0110
   493.0110 493.1655 493.1853 493.2053 493.2053 493.2206 493.4917 493.4917
   493.4976 493.5323 494.0408 494.0653 494.0653 494.0711 499.7445 499.9064
   499.9064 500.2586 500.3054 500.9900 500.9900 501.1062 501.1739 501.4814
   501.4814 501.5679 502.0583 502.0628 502.0830 502.0830 502.3007 502.3742
   502.3742 502.3816 502.6835 502.6999 502.6999 502.7151 506.9916 506.9916

          k = 0.7500-0.2500 0.7500 (  2408 PWs)   bands (ev):

   -27.4773 -11.1334 -10.9878 -10.9402   1.2920   6.0659   7.3823   9.4207
    10.4231  11.8791  12.1018  12.4806  14.2135  15.2932  18.5044  20.0129
    20.1154  22.8916  23.5003  24.4474  25.8203  25.8926  27.9389  29.8733
    29.9295  30.9518  31.7818  31.9926  34.5102  35.0436  35.1671  36.9377
    38.3486  39.1310  40.5912  40.9081  42.1652  42.7804  43.1595  44.7178
    47.2172  47.5136  48.5617  49.1196  49.5612  51.5031  51.8237  52.0737
    52.7015  53.7897  54.5087  55.8075  56.3925  58.4591  59.3899  59.6646
    59.8895  60.7690  61.8873  62.2071  63.0144  63.9824  64.0337  64.8814
    66.7410  67.7419  67.9410  68.9210  69.0911  69.4609  70.1396  71.3468
    71.3882  72.1727  72.8872  73.5302  73.9832  74.7874  75.1834  75.7778
    76.9721  77.5002  77.9499  79.0875  79.1558  80.0232  81.0413  82.0528
    83.1417  83.5778  84.2797  84.5902  85.3527  86.5437  86.7498  87.8398
    88.5598  89.3755  89.7984  90.5432  91.0170  91.2640  91.7375  92.3513
    93.1133  94.7484  95.6211  96.5762  96.7113  96.9212  98.2989  98.9839
    99.3394 100.4443 100.7167 100.8569 102.0424 102.4298 103.4225 104.1817
   104.6228 104.9455 106.0265 106.0910 106.9554 107.8040 108.5837 108.5943
   109.4319 110.0865 110.0899 111.0752 112.0794 112.9385 113.5939 114.5212
   115.4564 116.0139 116.2538 116.3646 117.3357 117.3633 117.5317 118.3617
   118.6495 119.0215 119.8280 120.0742 120.6266 121.7513 122.9982 123.3345
   123.6012 124.3155 124.3825 124.6383 124.7215 125.4288 125.9893 126.9301
   127.0785 127.5835 128.6079 128.9626 129.9362 130.6776 131.1663 132.0812
   132.2395 132.5872 132.6178 133.2927 133.7739 134.4294 134.4317 134.8738
   135.2984 135.8232 136.6205 137.2182 137.7742 137.9588 138.4115 139.1268
   139.5824 140.1131 140.2897 140.7849 141.2560 142.0534 142.8671 144.1273
   144.3584 145.4710 146.0382 147.0953 147.5130 147.5459 148.2059 148.4457
   148.8278 149.0204 149.0609 150.3000 150.5966 151.2811 151.6978 152.1895
   152.4142 153.2632 153.2833 153.9962 154.2221 154.3866 155.9415 156.7158
   157.1611 157.5516 158.0372 158.3176 158.9049 159.1568 160.0565 160.0691
   160.5791 160.7013 161.0644 161.5884 162.8236 163.6268 163.8099 164.2025
   165.2650 165.4567 165.5419 166.4263 166.9528 167.5020 168.3011 169.8085
   169.8531 170.7380 171.3701 172.3708 172.8293 172.8301 173.0025 173.7076
   174.0193 174.0920 174.3707 174.5837 175.2849 175.5577 175.8089 176.4046
   176.4749 178.4302 178.6759 179.6723 180.3540 180.6798 181.5030 181.5279
   181.6913 182.1863 182.2126 182.5283 182.5883 183.4530 184.4470 184.7729
   185.9147 185.9356 186.5905 187.0637 187.5976 188.2342 188.4394 188.5498
   189.8031 189.9457 190.1934 190.8106 190.8660 191.4953 192.4397 192.9819
   193.0762 193.2050 193.5496 194.4465 194.4472 194.5928 194.6788 195.4568
   195.6930 195.8342 197.3703 197.6220 197.9488 198.0312 198.1403 199.2609
   199.3548 199.7603 199.8500 200.1342 201.1125 201.4006 201.4078 201.6470
   202.1416 202.3323 202.6135 202.8209 204.2393 204.2862 204.5720 205.4327
   205.6926 207.1924 207.6580 208.0413 208.2785 209.2175 209.4915 210.1524
   210.2940 210.7469 210.9250 211.3094 211.7116 211.7583 211.7935 212.6912
   213.2648 213.3291 213.5645 214.2621 215.2147 215.5608 216.0508 216.1829
   216.3261 216.5655 216.6048 217.2428 217.8049 218.2670 219.8651 220.4466
   220.6551 221.0923 221.1343 221.5844 222.1244 222.4708 222.6111 222.6671
   222.7018 223.3554 223.6201 223.7042 223.7381 224.6867 224.7917 225.4071
   225.9671 226.3533 226.3984 228.6065 228.7701 228.8977 228.9560 230.2340
   230.5119 230.7047 230.8175 231.1881 231.4557 232.0236 232.1945 233.1105
   233.2290 233.3830 234.0627 234.3349 234.5000 234.7271 235.1700 235.7007
   235.7879 235.8450 236.9822 237.4484 237.5544 238.8534 239.0968 239.3127
   240.0983 240.3652 240.4741 241.3096 241.6282 241.8084 241.8957 242.8937
   242.9409 243.1808 243.2880 244.3753 244.7699 245.2622 245.3570 246.3587
   246.4285 247.0488 247.3171 247.7140 248.0473 248.5947 249.0656 249.6159
   250.2122 250.4213 250.4707 250.8035 250.9405 251.1472 251.6055 252.8341
   253.8567 254.2727 254.8867 254.9409 255.9229 255.9906 256.0296 256.9234
   257.1294 257.1498 257.8009 258.0930 258.5511 258.7651 259.4490 259.5297
   259.8711 261.5546 261.6308 261.8564 262.7226 262.9444 263.0138 263.7539
   263.8643 264.3281 264.5804 265.0908 265.8007 266.1550 266.2259 266.2461
   267.2859 267.5928 268.0438 269.1866 269.1896 269.2718 269.5471 270.0568
   270.5198 271.3171 271.3938 272.1323 272.1554 272.9122 272.9973 273.2605
   273.5159 273.5426 273.7356 274.0215 274.1223 274.2921 274.8491 275.1724
   275.5604 275.9158 276.0399 276.1724 276.3965 277.4562 278.2456 278.4379
   278.6179 278.6731 279.0907 279.4244 279.4561 279.5616 283.0925 283.3487
   283.3562 283.6722 283.8728 284.1594 284.2716 284.4033 284.6933 284.8662
   285.0155 285.4403 286.3247 286.4914 287.0150 287.3595 288.3225 288.3271
   289.0848 289.4919 289.7391 290.4044 290.6979 290.7892 290.7959 290.9600
   291.2004 291.4419 291.5237 291.9967 292.2175 292.2929 292.5914 292.7626
   292.7810 292.9831 293.7737 293.9321 294.7614 295.1692 295.3626 296.2839
   296.4148 296.8216 297.2610 297.7985 298.0732 298.1793 298.7051 298.9725
   299.2456 299.5177 299.7076 300.2303 300.6821 300.6834 300.8735 303.3902
   303.6890 304.1379 304.2625 304.2873 304.8861 304.9627 305.9628 306.2866
   306.5837 306.7528 306.9377 306.9974 307.5890 307.6485 308.0956 308.2620
   308.5056 308.5462 308.8623 309.6579 310.0771 310.1141 310.6925 311.1805
   311.4031 311.7160 311.7445 312.6859 313.0714 313.0931 313.5130 313.8329
   314.2486 314.3749 314.4999 314.6810 314.7423 314.7817 314.9514 315.0841
   315.6083 315.6866 315.8303 317.4772 318.0350 318.3537 318.9253 319.3507
   319.3810 320.0635 320.3171 321.0162 321.3058 321.5615 321.6126 321.8861
   322.3760 322.6029 323.1057 323.4725 323.9779 324.0143 324.1667 324.6632
   324.9742 325.4771 325.8562 326.1788 326.5272 326.5428 326.8482 326.9748
   327.2389 327.4621 327.5287 327.6461 328.0597 328.2030 329.1973 329.4180
   329.5421 329.6657 329.6965 329.8870 330.0549 333.0713 333.5513 333.6141
   334.5070 334.6334 334.6977 334.8708 335.0798 335.3159 336.2140 336.3019
   336.3798 336.6029 337.0153 337.5538 337.6830 338.1226 338.1385 338.2299
   338.6839 338.9811 339.0145 339.5117 340.0513 340.1910 340.4393 340.4972
   340.6727 340.7897 341.0312 341.2153 342.2854 342.9391 343.3018 343.4116
   343.4808 345.1677 345.2695 345.4472 345.9655 346.2027 346.4152 346.9270
   347.3377 347.6504 348.2973 348.6032 348.7791 349.1988 349.2422 349.8328
   349.8979 350.2086 350.3273 350.6704 350.7431 351.0495 351.4363 351.7389
   352.5034 353.6933 354.3233 354.4651 355.2703 355.3560 355.9545 356.8309
   356.9536 357.1336 357.3015 357.7987 358.1834 358.3160 359.4059 359.8173
   360.1554 360.3609 360.3663 361.2045 361.2121 361.7277 362.0609 362.2287
   362.2578 362.4510 362.5115 362.5663 362.7726 363.0790 363.4425 363.5890
   364.4951 364.7023 365.4934 365.8106 366.1314 367.2360 368.2081 368.3101
   368.4746 368.5664 368.6651 369.1966 369.2921 369.3292 369.4875 369.6779
   370.2120 370.2998 370.5298 370.5378 370.6522 370.7330 371.9273 372.4289
   372.4416 372.4621 372.5299 372.6144 373.2418 373.9281 373.9957 375.1413
   375.2966 375.9266 375.9716 376.2156 376.5142 376.8844 377.1315 377.2654
   377.5673 377.8975 378.5010 379.4949 380.1939 380.2331 380.8901 380.9734
   381.1049 381.4095 381.8251 382.0998 382.3441 382.3963 382.6967 383.0267
   383.3175 383.5859 384.2789 384.8450 385.1034 385.2189 385.3369 385.5700
   385.9309 386.0163 386.3550 386.4007 386.6744 386.9669 387.8614 387.8812
   388.0939 388.4818 388.8643 389.5497 389.8087 390.0212 390.4179 390.6402
   390.7619 391.1297 391.6502 391.7251 392.1369 392.4233 392.6746 393.6579
   393.9853 394.1484 394.3753 394.4032 394.7947 395.9448 396.3009 396.4352
   396.8467 396.9070 397.5141 398.2741 398.4824 398.8609 398.9867 399.0079
   399.2461 399.4125 399.6210 399.9453 400.4359 401.6337 401.6767 402.3948
   402.5522 402.7839 402.8249 402.9477 403.1951 403.4142 403.4466 403.9150
   404.0927 404.5346 404.5358 404.7297 404.8129 406.3732 406.6661 406.7227
   406.8112 407.5560 407.5762 407.6299 408.2858 408.3885 409.1808 409.2966
   409.3482 409.6126 410.0280 410.2301 410.4231 411.0353 411.1998 411.3664
   411.4560 411.9130 412.0401 412.2073 412.3194 412.6984 412.7209 413.2561
   413.7178 415.3437 415.4053 415.4997 415.7738 415.9013 416.1045 416.4761
   416.8233 416.8967 417.3313 417.4960 417.7567 417.8540 417.9206 418.0904
   418.0962 418.7019 418.7865 418.8178 418.9042 418.9496 419.6871 419.7868
   420.0588 420.1440 420.1540 420.3083 420.9122 421.4357 421.4841 424.4384
   425.9400 425.9888 426.2046 426.2250 426.5559 426.6254 426.8125 426.9847
   427.1829 427.3809 427.3856 427.5299 427.5717 427.6183 427.6978 428.0571
   428.3758 428.6008 428.6291 429.5516 429.7848 429.9707 430.0393 430.0641
   430.2831 430.3025 431.1075 431.3941 431.5348 432.1926 432.2354 432.3343
   432.7145 432.7297 433.3823 433.6409 434.5634 434.6564 434.8900 435.0082
   435.2832 435.5940 435.7953 436.5080 436.9166 437.0312 437.3279 437.3649
   437.5157 437.8081 437.9854 438.2202 438.6887 438.9073 439.1032 439.7083
   440.0247 440.1552 440.5539 440.5556 440.9627 441.2959 441.6343 441.7723
   442.2293 442.7140 442.8692 443.3544 443.5739 443.7636 443.9743 444.8558
   445.1221 445.4195 445.6764 445.8557 445.8811 446.0806 446.2181 446.2501
   446.2908 446.3767 446.8079 446.9491 447.2297 447.2873 447.7800 447.7906
   447.9150 448.9513 449.2278 450.3493 450.9401 451.4530 451.5975 451.6872
   452.5589 452.7201 453.3058 453.7798 453.9802 454.2429 454.3750 454.9835
   455.1777 455.4470 455.4946 455.6219 455.6452 455.9973 456.0273 456.8694
   456.9124 457.9534 458.3951 458.7642 458.9758 459.5027 459.6245 459.7292
   460.0083 460.0598 460.4182 460.5006 460.7153 460.9764 461.0276 462.0254
   462.1687 462.4714 462.4921 462.8103 463.1121 463.1709 463.4820 463.6193
   464.5553 464.6071 464.9646 465.0927 465.1675 465.9284 465.9566 466.3232
   466.5815 467.0316 467.0417 467.2646 467.3841 468.1645 468.3282 468.4958
   468.7788 469.3999 469.4399 469.5928 469.6196 469.7512 470.5877 470.6171
   471.6653 471.6801 473.1708 473.5707 473.6124 473.8946 474.0096 474.0488
   474.2047 474.2529 474.3326 474.5286 474.6377 475.2238 475.2343 476.5540
   476.6531 476.7127 477.0442 477.2593 477.4557 478.7146 478.9843 479.0371
   479.4005 479.6439 479.7784 479.7854 480.4967 480.6312 481.2395 481.4663
   481.5166 482.0973 482.3486 482.7639 483.1799 483.2850 483.4711 483.5368
   483.5944 484.2305 484.5509 484.7389 484.8054 484.8170 484.9518 485.0985
   485.9652 487.1694 488.1951 488.2472 488.2777 488.3684 488.5016 488.5105
   489.3406 489.3991 489.5623 489.5770 489.6348 489.7129 490.4181 490.6070
   490.6396 490.8139 490.8447 492.1042 492.2289 492.6118 492.6250 492.6765
   494.1097 494.4827 494.5019 494.5682 494.6673 495.1869 496.0557 496.1685
   496.2663 496.5166 496.8043 496.8184 497.1896 497.6575 497.6672 497.7361
   498.1927 498.5806 498.8141 498.8595 499.6923 499.7053 500.6249 500.7765
   500.9103 501.7403 501.9969 502.0839 502.0841 502.2954 502.4639 502.5034
   502.7693 502.9572 503.1281 503.1906 503.2303 503.2623 503.3780 503.6677
   504.0617 504.1317 505.0168 505.1345 505.9464 506.3649 506.3840 506.5856

          k = 0.5000 0.0000 0.5000 (  2421 PWs)   bands (ev):

   -27.4826 -11.1050 -10.9945 -10.9046   1.1875   6.1941   7.2072   9.1841
    10.5769  11.4115  12.0078  13.3935  14.0818  16.9028  17.3943  20.3519
    20.5104  20.8451  23.1130  23.2397  24.8003  26.4277  28.7979  29.1096
    31.4058  31.9552  32.2909  32.9049  34.8432  35.8313  35.8465  37.1322
    37.4968  39.2525  39.8396  40.7265  41.9920  43.2418  43.4985  46.3114
    47.0510  47.8045  48.3506  48.7266  49.6006  49.7695  51.0813  51.7560
    53.2004  53.4145  54.1819  55.4324  55.9427  58.0043  58.3421  58.9990
    60.4394  60.8872  61.1650  61.3638  62.0176  62.1129  63.7322  65.2423
    65.9896  66.4736  66.5609  69.4076  70.3330  70.7903  71.2906  71.6611
    71.9845  72.6451  73.2765  73.8290  73.8663  74.7680  76.0463  76.1552
    77.6856  77.6943  78.2198  79.8176  80.9932  81.7986  81.8100  83.1103
    83.1226  83.5558  83.6183  84.4493  85.2718  85.9536  86.4815  87.2918
    88.6123  89.7659  90.1887  90.4180  91.2082  91.6206  92.4110  94.8976
    95.6213  96.5102  96.8772  97.1277  98.0397  98.7335  98.8302  99.1184
    99.7708  99.9273 100.3210 101.1224 101.6880 101.7111 102.6074 103.3060
   104.1525 104.4314 105.1002 105.5574 106.3901 106.8082 107.6712 108.3694
   108.4382 108.5955 108.7185 109.0009 110.1050 110.6250 110.8842 111.3149
   111.3497 112.6240 113.7928 114.8039 115.2200 117.0696 118.4798 118.8511
   119.0643 119.6562 120.0308 120.0648 121.7732 122.1735 122.7625 123.2232
   124.2567 124.3435 124.8028 125.0821 125.1081 125.2456 125.3352 126.4182
   126.5884 127.1243 128.4696 128.7354 130.0302 130.9385 132.1111 132.3360
   133.1095 133.1190 133.5899 134.5714 134.9377 135.0286 135.0827 135.2422
   136.2098 136.5678 137.7046 139.1674 139.1893 139.2780 139.4595 139.4903
   140.7569 140.9201 141.7564 142.6137 143.0750 143.3539 143.8955 144.0088
   144.0565 144.5310 145.0540 146.0648 146.8147 146.9324 147.8649 149.3977
   150.5056 150.7555 151.3239 151.5578 151.5695 152.2240 153.2409 153.3091
   153.3741 153.9296 154.5633 154.6684 154.7132 154.9776 155.2320 156.2370
   156.6062 156.7166 157.4694 157.5819 158.4919 158.5836 158.7840 159.1515
   161.6697 161.8244 162.5357 162.6872 163.9339 164.3788 165.2333 165.3348
   165.5557 165.7221 166.8979 167.0585 167.1092 167.5251 168.5065 168.5930
   168.9024 169.0394 169.6525 170.3057 170.3915 170.6445 172.3889 173.1951
   173.4010 173.5642 173.7939 173.8629 174.4387 175.4595 175.6212 176.0554
   176.1621 176.2150 176.8127 177.8697 178.9861 179.6705 180.2415 180.6535
   180.9729 181.0946 181.6085 181.7019 182.0624 182.8705 183.9093 184.9444
   185.1447 185.8733 185.9013 186.6817 186.9848 187.1355 188.3409 189.2616
   189.4299 189.5326 189.7552 189.8612 190.6776 191.0918 191.5487 191.6477
   192.0141 193.0308 193.4578 193.7474 194.1302 194.3809 194.4657 194.7469
   195.6081 195.8017 196.1173 196.1599 197.2331 197.6882 197.8847 198.1729
   198.7073 199.0418 199.9367 200.0344 201.2928 201.5279 201.9778 202.7387
   203.5981 203.9267 204.4486 204.5870 204.6109 204.6546 205.2046 205.6966
   205.9867 206.6688 206.9051 207.1523 207.2403 209.0714 209.5458 210.4984
   210.5850 210.6332 210.7858 211.7234 211.7724 211.8235 212.2700 212.3940
   212.5579 213.3534 213.5593 213.8280 216.1869 216.2445 216.3571 217.3459
   217.4427 218.6817 220.0471 220.1155 220.4222 220.8912 221.3624 221.5115
   221.8583 221.8753 221.9716 222.0110 222.3001 222.3248 222.6794 222.8746
   222.8985 223.0772 223.0866 223.3509 223.4519 223.5487 223.9217 224.9869
   225.4288 225.7368 226.6922 226.8124 227.2940 229.0451 229.1664 229.3561
   229.7454 230.8551 230.8747 232.1344 232.5388 232.7341 232.8226 233.7783
   234.6972 234.8147 234.8648 234.8732 235.2573 235.8896 235.9347 236.2930
   236.3375 236.3803 236.7896 237.4194 238.0062 238.1186 238.1200 238.7807
   238.9555 239.0224 239.5794 240.9582 241.0474 241.1863 241.9452 243.4982
   243.5278 243.7728 243.8601 246.0682 246.5007 246.5894 246.6153 246.6652
   247.0131 247.1288 248.7557 249.1059 249.3652 249.6197 249.8162 249.8239
   249.8691 250.1073 250.1548 251.5929 252.3789 252.9728 253.1446 253.8844
   255.2983 255.4343 255.7413 256.0742 256.9607 257.1677 257.1824 257.9024
   257.9347 259.1677 259.1689 259.3090 259.7527 259.9871 260.6854 260.7143
   262.4121 263.3152 263.3837 263.5395 263.5824 263.7573 263.9468 264.0780
   264.1426 264.1457 264.9593 265.0541 265.0557 265.6772 265.8187 266.0057
   266.3829 267.1275 267.3306 267.6258 267.6503 267.6652 268.3010 268.3696
   268.5488 268.6192 268.7218 268.8877 269.3698 269.4150 269.4206 270.0523
   270.7365 270.7877 271.2682 272.3774 273.6021 273.8928 274.0242 274.3200
   274.5222 274.8009 275.6043 275.6899 276.2465 276.3117 276.6503 277.2731
   277.3595 277.8593 277.9566 278.0344 278.1185 279.7206 279.9003 281.3415
   282.0741 283.0696 283.1109 283.5248 283.8169 283.8190 283.9027 284.1544
   284.5314 284.9366 285.3675 285.4774 286.5336 287.0832 287.6527 287.7798
   287.8236 287.8830 288.0171 288.2334 288.2537 288.2547 288.6973 289.3579
   290.4850 290.5714 290.6636 291.0611 291.1710 291.7121 292.1791 292.4566
   292.9653 293.5968 294.1473 294.3831 294.4030 294.7700 295.0599 295.0764
   295.3037 295.4204 296.8716 297.1811 297.4792 298.4413 298.6465 299.5847
   300.4815 300.5658 300.9375 301.0190 301.0668 301.5240 302.8887 303.7292
   304.2880 304.8211 304.8444 305.0159 305.3068 305.7818 306.1523 306.6156
   306.6475 306.7251 306.8017 306.8187 306.9783 307.2452 308.3819 308.6164
   308.9337 308.9831 309.5894 309.7200 310.0864 310.3244 310.4109 310.6192
   311.0958 311.1940 311.5602 311.6273 312.5376 312.5422 313.5602 314.3417
   314.4430 314.6762 315.5346 315.5666 315.7129 315.8501 316.0693 316.1312
   316.5472 316.6352 316.9739 317.5469 318.6646 318.8429 319.0093 319.1851
   319.3529 320.5562 320.6333 320.6827 320.7346 320.7414 320.8726 321.8350
   321.9011 322.0099 322.8993 323.1332 323.1446 323.7122 325.2150 325.2262
   325.3591 325.6892 325.8899 326.3244 327.8669 328.5691 328.9223 329.2094
   329.2263 329.4078 329.7446 330.1517 330.3828 330.4114 330.4454 330.5209
   331.5244 331.6552 332.1624 332.6100 332.9279 333.5472 334.4944 334.7007
   334.7196 334.7672 334.9726 335.0395 335.1902 335.2466 335.2889 335.2947
   335.4563 335.4847 336.1680 337.3495 337.6627 337.8353 337.8878 337.9818
   338.2681 338.3285 340.5278 340.8269 341.1346 341.1405 342.5886 342.7460
   344.3714 344.4662 344.7884 344.8424 344.9263 345.0370 345.7692 345.7913
   345.9998 346.9344 347.5062 347.6550 348.8476 349.1343 349.1859 349.8181
   349.9685 350.0032 350.7266 351.0007 351.2001 351.2696 351.4583 351.5274
   351.9665 352.1326 352.2010 352.2158 352.3029 352.4543 352.4630 352.5170
   352.5206 352.5419 353.2269 353.3663 354.5691 354.7818 355.2211 355.2384
   356.1051 356.2953 356.4674 356.7228 356.7672 356.9632 359.8886 360.2288
   360.2677 360.2789 360.6371 360.6632 360.9500 361.1119 361.2460 361.9175
   361.9234 362.0776 362.1021 362.2109 362.6469 362.7945 362.8980 362.9981
   363.0326 363.5477 363.6563 363.6845 364.2007 364.2342 364.3242 364.3270
   365.8516 366.1163 366.3177 366.6312 367.1565 367.2723 367.3160 367.3861
   369.2701 369.3596 369.5433 370.7349 370.8491 370.9514 370.9814 371.2864
   371.2982 371.4941 371.5518 372.1571 373.9854 374.3141 374.4006 374.6200
   375.0265 375.0507 375.0793 375.3176 375.3984 375.5269 375.5672 375.7258
   376.4478 376.7018 376.7336 376.7788 376.8637 377.0268 377.2588 377.3153
   380.0569 380.8288 381.0137 381.1855 381.2640 381.5448 381.5567 381.7237
   383.0746 383.9377 384.0755 384.9788 385.1641 385.2291 385.4464 385.6171
   385.6827 385.8234 386.0118 386.2272 386.2804 386.3030 388.0393 388.4833
   388.5588 388.9612 389.0287 389.0369 389.2815 389.3684 389.6345 389.6587
   391.0575 391.1303 391.4054 391.4062 392.0089 392.1029 392.4005 393.1943
   393.4030 393.4402 394.2563 394.3703 394.4584 394.4914 394.5685 394.5694
   395.8875 395.9335 396.9677 397.7840 397.7951 398.4806 398.6225 399.0203
   399.1284 399.1957 399.7703 399.7849 400.1382 400.6741 400.8469 400.8900
   400.8985 400.9320 401.8695 402.1338 402.3639 403.1330 403.4203 403.6898
   403.8423 404.0327 404.0831 404.4101 404.5430 404.6890 404.7375 404.7726
   405.9211 405.9275 407.0975 407.2087 407.2963 407.5364 407.7457 407.8232
   407.8735 408.4572 408.7978 408.9324 409.0567 409.6471 409.6627 409.6722
   409.7017 409.7589 410.7514 412.6833 413.1583 413.5298 413.9239 413.9560
   414.3188 414.3615 414.5838 414.6997 415.1591 415.8649 415.9166 415.9507
   415.9674 416.2212 416.7077 417.0873 417.5744 418.4818 418.4835 418.5272
   418.5640 418.9819 418.9917 419.1631 419.3770 419.4222 419.4238 419.4623
   419.4657 422.2181 422.2308 424.7111 424.7237 425.0678 425.2103 425.2180
   425.3461 425.7297 426.0748 426.1656 426.6300 426.8218 427.1294 427.4038
   427.4868 427.5722 427.6137 428.9528 429.7969 429.9031 429.9878 430.2369
   430.4068 430.9690 430.9891 431.0287 431.2434 431.4620 431.6259 432.0271
   432.0928 432.1603 432.2259 432.4335 432.5171 432.6899 432.7916 432.7928
   432.8135 433.1353 433.1449 435.0921 435.1018 435.1980 435.2035 435.4182
   435.6237 435.6876 435.8911 436.2658 436.3374 436.4605 436.6057 437.3832
   437.4464 437.4828 437.5057 437.5315 437.7463 437.7644 437.9268 439.2503
   439.6645 441.0457 441.1060 442.0495 442.1325 443.5956 443.5983 444.5530
   444.6091 444.9356 445.1040 445.2158 445.2922 445.7128 445.7793 446.1993
   446.2207 446.4921 446.6410 446.6712 446.6934 446.9959 447.0062 447.0259
   447.0527 447.1776 447.3515 447.7188 447.7436 448.8177 449.0614 449.4382
   449.6480 449.6640 449.9670 450.5898 450.6366 450.6654 450.7385 451.9264
   451.9653 452.1684 452.1704 453.3243 453.4149 453.5342 453.5972 454.7200
   454.7780 454.8259 454.8544 457.1316 457.1611 458.5434 458.7267 459.0791
   459.1908 459.2982 459.3625 459.4756 459.8339 459.9046 460.0750 460.3743
   460.7553 460.9391 460.9604 461.1207 461.2917 461.5281 461.5969 461.6033
   461.6203 462.2280 462.3046 463.3840 463.4746 463.7318 463.8889 464.5549
   464.6011 464.6485 464.6667 465.1713 465.2010 465.3451 465.3514 465.3520
   465.4593 466.7438 467.4765 468.0984 468.3791 468.4845 468.6015 468.9756
   469.0084 469.7043 469.8052 470.2357 470.2988 470.4920 470.5902 470.6522
   470.6957 472.4905 472.8330 473.0447 473.1272 473.2935 473.7023 473.7797
   473.8154 473.8393 473.8736 473.9110 473.9533 475.1587 475.1963 476.0411
   476.1897 476.2636 476.3784 477.5691 477.6425 477.8912 478.0999 478.2392
   478.3080 478.9969 479.1146 479.1321 479.2133 480.0796 480.0983 480.1737
   480.1853 480.2190 481.7617 481.8910 481.9014 482.1913 482.2215 482.3048
   482.3090 482.9873 483.1303 484.0362 484.0967 484.6528 484.6536 484.7159
   484.7351 488.1736 488.1946 488.5763 488.6033 488.8843 488.9854 489.8903
   490.1564 490.5271 490.6589 491.2844 491.5204 491.8013 491.8558 492.1809
   492.2336 492.2547 492.3136 492.7302 492.8011 492.8902 492.8908 493.3856
   493.4683 493.4996 493.5697 493.6838 493.7057 493.8252 493.8316 497.4236
   497.4776 497.4909 497.5511 497.6884 497.7401 498.1899 498.3131 498.6183
   498.6989 499.7860 499.7880 500.5475 500.8286 500.8584 500.8937 501.1232
   501.6698 501.7319 501.7487 502.3461 502.3538 502.3814 502.4041 502.6377
   502.7683 502.9146 502.9319 503.0808 503.1217 503.2094 503.2130 503.2282
   503.2424 503.2793 503.3190 505.5775 505.8459 505.9730 506.0145 506.1670

          k = 0.0000-1.0000 0.0000 (  2450 PWs)   bands (ev):

   -27.4721 -11.1564 -10.9756 -10.9756   1.0978   6.9300   6.9766  11.1793
    11.1793  11.7626  11.7753  12.1196  12.1196  13.1228  18.5048  22.2823
    22.9007  24.1571  24.1571  24.8067  24.8067  25.0118  27.2575  29.1797
    29.3245  29.3245  29.7846  33.2470  33.7138  33.7138  35.2902  39.4716
    39.6144  39.6144  39.8066  40.2457  43.2766  43.2766  44.0697  45.0579
    45.0579  45.5175  46.4429  47.9401  49.3849  49.9265  49.9265  51.7217
    54.9662  58.4912  58.5903  58.9234  59.2189  59.2189  59.6015  59.6467
    59.6467  61.3777  61.4451  63.1051  63.1051  63.1651  63.1651  64.3758
    64.4087  66.1438  67.0417  68.6639  68.6639  69.2285  69.2285  69.6150
    73.4652  74.1308  74.1308  74.8349  75.3928  75.7747  76.0367  76.8592
    76.8592  77.2666  77.2666  77.4588  77.8207  78.6986  80.5349  80.5349
    81.0861  81.0861  83.6672  83.9078  83.9431  84.9919  84.9919  85.4629
    87.9173  88.8392  88.8392  92.0137  92.0137  92.0886  92.4491  93.4423
    95.5602  96.1794  96.1794  96.5447  96.7412  97.6887  97.6887  97.9163
    98.5054  98.5510  98.5510  99.3615  99.9791 100.3159 100.8816 100.8816
   103.4041 105.8148 105.8148 108.0755 108.7659 110.7249 111.4320 111.5007
   112.1308 112.1308 113.2081 114.9006 114.9759 114.9759 115.3252 115.5544
   115.5544 117.2341 117.2500 117.5293 118.5651 119.0249 119.0249 119.1197
   119.1197 119.2849 119.5481 119.5481 120.3124 120.3443 121.7307 122.8068
   122.9955 122.9955 124.8152 127.1990 127.8264 127.8264 128.8025 129.1427
   130.4117 130.6022 130.6022 130.6513 130.6513 131.0182 131.0182 131.2159
   131.2159 131.2381 131.6850 131.7777 133.2599 133.2676 134.0141 134.0275
   134.4112 134.4112 134.4245 134.5486 134.5486 135.1476 135.5034 137.3889
   138.4085 138.4085 138.6106 138.6900 138.7077 138.7077 138.8511 139.3883
   142.3078 142.3078 142.6968 142.6968 145.5539 148.4305 148.4700 148.8977
   148.9433 148.9433 149.9786 151.3841 151.3841 151.7551 151.8052 153.4236
   153.6098 153.9183 153.9183 154.3165 154.3165 154.5636 154.6079 154.6494
   154.6494 154.8033 155.2743 155.3487 155.3487 155.3920 156.4094 157.0134
   160.2859 160.2859 162.6164 162.6164 163.7772 164.2407 166.3372 169.8319
   170.3817 170.8634 170.9651 170.9651 170.9809 170.9809 171.2725 171.6186
   172.1188 172.6447 172.6447 173.6437 173.6437 173.6976 173.8603 173.8603
   173.9110 173.9744 173.9744 173.9976 175.7043 175.7043 177.1660 177.1926
   177.2888 179.8148 180.2329 180.4648 181.1266 181.1266 181.8935 184.2033
   184.2452 184.2452 184.7322 184.9507 184.9507 186.4737 186.7722 186.7722
   187.0475 187.1067 187.2115 187.2115 187.2291 187.4043 189.5007 189.5007
   189.6172 189.6324 189.8031 189.8548 189.8548 189.9007 190.2514 190.3049
   190.5246 190.6203 190.6203 190.6991 190.6991 191.0904 192.7888 193.4990
   193.4990 193.7032 193.7642 193.7642 193.8827 193.8976 195.2268 198.1983
   198.1983 199.9039 200.5319 201.8497 203.0411 203.0411 203.7222 204.9116
   205.0549 205.1021 205.1021 205.1484 205.1484 205.4809 206.2678 206.2883
   206.4004 206.4004 206.4582 206.4582 206.7901 206.8111 207.2433 207.4866
   207.6285 208.8897 208.8897 209.0053 209.0053 210.3076 210.3464 212.5104
   212.5794 212.6012 213.6793 213.6793 213.6857 213.6857 214.3558 214.3804
   214.7906 217.6078 217.6078 220.6033 220.6033 221.6916 222.9470 223.0977
   223.2117 223.2117 223.4740 223.6430 223.6441 223.6441 223.8528 223.9628
   224.6337 224.6337 224.8271 224.9134 225.0681 225.4243 225.6141 225.6141
   227.7122 227.7122 228.0589 228.2116 228.3501 228.3501 228.5068 228.7155
   230.9328 231.0126 231.0798 231.0798 231.0933 231.0933 231.1633 231.2088
   231.3035 231.3822 231.3956 231.3956 234.7019 236.0384 237.9917 237.9917
   238.3064 238.5988 238.5988 239.5665 239.7519 241.4080 241.4335 241.4335
   242.2558 242.2558 242.6877 242.6877 242.8470 242.9777 243.2972 244.3073
   244.3073 244.9649 244.9686 244.9970 245.1035 245.1035 245.2780 245.2785
   246.2211 246.2211 246.2847 246.3787 246.3787 246.4232 246.5302 246.9616
   247.2208 247.3389 247.3459 247.3459 248.2013 248.6510 248.7468 248.7468
   249.4989 249.4989 249.5347 249.5782 250.1815 250.3990 250.3990 250.4431
   250.5206 250.5336 250.5336 250.5611 256.2247 256.2247 259.2291 259.2370
   260.7175 260.7627 261.2634 261.2634 261.6331 261.7502 262.4104 262.4940
   262.5447 262.5447 262.5587 262.5587 262.5625 264.0090 265.2160 265.5800
   265.5800 266.0754 266.0754 266.1261 266.1864 266.1864 269.1063 272.4652
   272.8174 273.4932 273.9078 273.9078 274.8851 277.1139 277.8630 277.8630
   277.8977 277.8977 278.2151 278.2254 279.4048 280.3388 280.4072 280.4072
   280.4860 280.5070 280.5643 280.5643 281.8252 283.5122 283.6457 283.6457
   283.9663 283.9663 284.2056 284.2280 284.3081 284.5816 284.9749 285.5285
   285.5285 285.7606 285.7606 285.8224 286.0128 286.2564 286.3063 286.3063
   286.3513 286.3513 286.3736 286.4371 286.9507 287.0102 287.0102 287.1096
   287.1388 287.1388 287.2199 287.2262 289.0178 289.5998 293.1645 293.1645
   293.7040 293.7040 294.3395 294.3771 296.6317 297.1610 297.1738 297.4145
   297.7181 297.7181 298.0029 298.3288 298.3918 298.4728 298.4728 298.5068
   298.5068 298.6578 298.7530 298.7530 298.7615 298.7615 298.7995 298.8099
   298.8914 298.9311 301.3247 301.3247 301.3357 301.3606 302.1510 302.2253
   302.3446 302.4265 302.4265 302.5935 302.5935 302.6945 302.8930 303.2895
   303.2895 303.5779 303.5779 303.6544 303.6831 303.8447 304.6767 304.6767
   304.7328 304.7328 306.8223 306.9289 306.9439 306.9439 306.9663 306.9663
   306.9851 307.0074 307.9581 307.9882 311.1193 311.5433 312.6894 312.6894
   312.7690 314.5596 314.5596 314.5996 315.0514 315.1310 315.1310 315.1449
   315.2556 315.4007 315.4654 315.4654 318.5703 318.5703 318.6159 318.6360
   318.7219 318.7219 318.7288 318.8214 320.2617 320.2617 320.3944 320.4327
   320.5592 320.5751 320.5752 320.5752 320.5892 321.6367 321.7723 321.7723
   321.8491 322.1766 322.1766 322.5128 323.4451 324.1686 324.3613 324.4121
   324.4121 324.4274 324.4274 324.5061 324.5268 326.2435 328.0087 328.0087
   332.2397 333.5251 333.6667 333.6667 335.4119 335.4119 335.5163 335.9492
   335.9758 336.0861 337.1597 337.1597 338.1307 338.1307 338.3339 338.4512
   338.4512 338.5125 338.5751 339.1066 339.5310 339.7629 339.7629 339.7978
   339.7978 340.0090 340.0444 340.4183 340.4183 340.4314 340.4700 340.5394
   340.6052 340.6312 340.6312 340.7461 341.6918 341.7066 341.7066 341.7205
   341.7351 341.7907 341.8316 341.8316 342.8811 342.8832 344.2245 344.2245
   344.2257 344.2257 345.0256 345.0399 350.8855 351.1535 351.1535 352.7578
   352.7745 352.7745 352.8110 352.9025 353.7259 354.6501 355.3324 355.3324
   355.3520 355.4479 355.5011 355.5011 355.5171 355.5171 355.5837 355.6156
   355.6984 355.6984 355.7121 355.7595 356.8561 356.8737 356.8745 356.8745
   356.8811 356.8811 356.8892 356.9036 357.2684 357.3029 358.1847 358.1847
   358.1996 358.1996 358.3205 358.3405 360.4227 360.8644 360.8644 360.8832
   360.9993 361.0282 361.0282 361.0619 366.1299 367.6745 369.4579 370.0266
   370.0266 370.0783 370.3484 370.3484 370.4694 371.4795 371.4795 371.5434
   372.3735 372.4361 372.4816 372.5272 372.5272 372.6096 372.7952 372.7995
   372.9788 372.9788 374.2426 374.3057 374.3057 374.4093 374.4153 374.4153
   374.4742 374.4855 376.7941 376.7941 376.8078 376.8246 376.8367 376.8367
   376.8477 376.8503 378.6056 378.8929 378.8929 378.9010 379.4131 379.4131
   379.5333 379.5453 380.8727 380.9526 380.9526 380.9629 382.0059 382.0059
   384.2782 385.0591 385.7574 386.0304 386.0304 387.0257 388.4737 389.5510
   391.8986 391.8986 391.9269 391.9269 392.8632 393.7959 393.7959 393.8019
   394.0238 394.0238 394.0745 394.2581 394.7697 394.7704 395.3806 395.8124
   395.8179 395.8179 395.9013 396.2432 396.2432 396.4349 396.4459 396.8985
   396.8985 396.9819 397.0078 397.0078 397.1472 397.1748 399.1048 399.2221
   399.2303 399.2782 399.2782 399.2859 399.2859 399.3403 399.7102 399.8410
   399.8410 399.8631 400.0069 400.0130 400.0130 400.0162 406.1396 406.7096
   406.7096 407.0843 407.4794 407.9813 407.9813 408.1577 409.1401 409.8420
   409.8696 409.8785 409.9362 409.9362 409.9713 409.9713 410.0972 410.1498
   410.1498 410.1574 410.1574 410.1845 410.2159 410.2541 410.5482 410.7307
   410.7498 410.7930 410.7930 410.8195 410.8195 410.8744 410.9475 410.9766
   410.9862 410.9862 411.0474 411.0474 411.0651 411.1242 411.7821 411.8107
   411.8172 411.9194 411.9194 411.9296 411.9296 411.9303 413.8638 414.2426
   414.5885 414.5885 414.6033 414.6033 414.7720 414.8502 414.9308 415.0191
   415.1040 415.1952 415.1952 415.5133 415.5295 415.5354 415.5354 415.6014
   415.6014 415.6211 415.6211 415.6460 415.7037 415.7469 417.8795 417.9305
   417.9305 417.9543 417.9626 417.9626 417.9648 417.9806 419.0484 419.0493
   419.1372 419.1372 419.1491 419.1491 419.1886 419.1954 428.1609 428.1609
   428.1715 428.5826 428.8135 428.8135 429.0215 429.2049 429.2119 429.2252
   429.2394 429.2394 429.2527 429.2527 429.3885 429.4631 434.0392 434.1881
   434.3786 434.4556 434.4556 434.6099 434.6099 434.7233 434.8624 434.9202
   435.0460 435.0530 435.0530 435.0792 435.1239 435.1239 435.1509 435.1644
   435.1663 435.1663 435.3454 435.3454 435.4862 435.5169 435.5248 435.5680
   435.6988 435.6988 435.7087 435.7087 435.7480 435.7586 444.8429 445.3086
   446.0980 446.4487 446.4487 447.1659 447.1659 447.8617 448.0576 448.0906
   448.0906 448.1424 448.3284 448.3284 448.4246 448.4590 448.8271 448.9337
   448.9337 448.9851 449.3800 450.0504 450.0504 450.2713 450.3286 450.3286
   450.3722 450.6108 450.8102 451.0538 451.0569 451.0569 451.1035 451.1656
   451.2761 451.2761 454.4030 454.4035 454.4035 454.4058 454.4127 454.4155
   454.4155 454.4612 456.1212 456.1612 456.1612 456.1618 456.1733 456.1733
   456.1740 456.1778 459.5343 460.1424 460.9188 460.9188 461.7854 462.6943
   462.7880 462.9923 462.9923 463.2514 464.9654 465.1892 465.2073 465.2073
   465.4956 465.5696 465.5920 465.5920 465.9214 465.9214 466.0194 466.1817
   466.8910 466.9577 466.9597 466.9597 466.9677 466.9677 467.0199 467.0199
   467.0244 467.0269 467.1002 467.1348 468.6755 468.6821 468.6821 468.7101
   468.7256 468.7270 468.7270 468.7416 469.1953 469.1957 469.2581 469.2581
   469.2592 469.2592 469.3288 469.3336 469.6988 469.6988 469.7130 469.7179
   470.6238 470.6321 470.6321 470.6424 472.7475 472.7571 472.8608 472.8608
   472.9325 472.9325 472.9761 472.9761 473.8436 473.8436 473.8486 473.8737
   476.3394 476.3409 481.7593 482.0617 482.3673 482.3673 482.7721 483.0372
   483.1125 483.1125 483.7380 483.7380 484.3262 484.3391 484.6371 484.6371
   484.7707 484.8181 484.8246 484.8246 484.8249 484.8263 484.9209 484.9403
   484.9536 484.9536 488.5990 488.5990 488.6230 488.6250 488.7772 488.7772
   488.7782 488.7818 489.0256 489.5122 489.5368 489.5368 489.8204 490.1677
   490.1677 490.2231 491.4518 491.4678 491.4758 491.4758 491.5553 491.5862
   491.5862 491.6499 491.6759 491.7210 491.7367 491.7367 491.7593 491.7593
   491.7837 491.8046 501.6153 501.7293 502.0820 502.0820 502.2544 502.2544
   502.3654 502.6624 503.4096 503.5447 503.5810 503.9898 503.9898 504.1324
   504.1324 504.2367 504.2710 504.2718 504.9582 504.9587 504.9587 504.9736
   505.0477 505.1249 505.1249 505.1306 505.8164 505.8164 506.1741 506.1741
   507.3866 507.4128 507.4128 507.4643 507.5033 507.5033 507.5663 507.8399

          k =-0.5000-1.0000 0.0000 (  2400 PWs)   bands (ev):

   -27.4720 -11.0668 -11.0668 -10.9868   1.3755   6.8693   6.8693   8.5465
    12.0240  12.0240  12.0803  12.1254  12.4216  16.2588  18.6920  18.6920
    20.9486  23.7541  23.7541  24.1243  26.8925  28.5693  28.5693  28.6885
    29.0108  29.4694  31.7724  32.9366  32.9366  34.9762  34.9762  35.5390
    37.3481  37.3481  37.9892  39.3411  42.1359  45.5821  45.5821  45.8321
    47.0155  49.8569  49.8569  50.0365  50.0982  50.9645  51.7137  52.2248
    52.2248  53.9161  54.7563  54.7563  56.5314  59.3814  59.3814  59.4819
    60.5044  60.5468  60.5468  63.1534  63.8645  64.5949  64.7242  64.7242
    66.3240  67.2149  67.2444  67.2444  67.3216  69.2114  71.2503  71.2503
    72.2663  72.2663  73.2056  73.9801  75.7667  75.7667  76.0036  77.8082
    78.3982  78.3982  78.4224  78.5170  80.0288  80.0288  80.1939  80.6544
    81.8502  83.6979  83.6979  84.0952  84.8343  86.0221  86.4992  86.4992
    86.8461  87.2707  87.3434  87.3434  89.0805  89.1147  89.2376  89.2376
    89.6648  91.6392  93.2713  96.5488  96.5488  96.7084  99.3644  99.3644
   100.1099 101.9217 101.9217 102.9618 103.1503 105.5385 106.5449 106.5449
   107.0782 107.0782 107.0875 109.3054 110.7962 110.7962 111.1158 111.1158
   111.3598 112.5069 112.5093 112.7222 113.8250 114.3024 114.3024 115.0471
   115.2462 115.2462 115.3179 115.3963 116.8626 116.8626 117.0796 117.0984
   117.3045 117.3045 118.2770 120.4620 120.5441 121.4530 122.2556 122.5244
   122.5244 122.9075 122.9075 123.1727 124.1541 124.1541 124.2636 126.9980
   128.9900 129.0380 129.0884 131.2569 131.3182 131.3182 132.0236 132.0236
   132.8722 132.8722 132.9882 133.7897 133.7897 133.8671 134.0963 134.3627
   135.1451 135.4523 135.4523 135.7862 136.6119 136.8831 139.4083 139.4083
   139.4516 140.3313 141.1078 141.4744 141.4744 143.0012 143.0012 143.0250
   143.1879 143.5143 143.5823 143.5823 143.7828 143.7895 143.8109 143.8109
   146.1677 146.1677 147.6633 147.8504 148.4173 149.8310 150.1902 150.1902
   150.4566 153.8362 154.1031 154.4962 154.4962 157.4307 158.0795 158.0795
   159.1896 159.1896 159.8189 159.8390 159.8390 160.0682 160.4486 161.7863
   162.7748 162.7994 162.9925 162.9925 163.0438 163.8016 164.0014 164.0014
   166.9309 168.1737 168.1737 168.9362 169.6661 169.6748 169.6748 170.0068
   170.7332 170.8936 171.0538 171.0538 171.1491 171.5369 171.5532 171.5532
   171.8472 171.8689 171.8689 171.9852 173.4034 173.9819 175.5031 175.9541
   175.9541 177.6641 178.2283 178.2283 178.4125 180.7628 180.7628 180.8286
   181.6625 181.9307 181.9823 181.9823 182.0655 182.0655 182.8786 186.9929
   187.2366 187.4246 187.5182 187.5182 189.1615 189.5144 189.5144 189.9730
   190.5571 191.2082 191.3598 191.3598 191.4000 194.9333 195.0169 195.0169
   195.0830 196.7146 196.7920 196.7920 197.0028 197.1254 197.1254 197.1546
   197.1944 197.2797 197.3587 198.2748 198.2748 198.4107 199.1737 199.4150
   199.4150 200.2498 200.2498 200.2503 200.3371 200.3371 200.3546 203.3642
   203.6399 204.1436 205.7620 205.7620 206.0612 206.0770 206.0770 206.3128
   206.5929 206.8150 206.8150 207.0795 207.2061 207.2061 207.2454 207.9511
   210.0252 211.0142 211.5674 211.5674 211.9198 213.3356 213.6094 213.6094
   213.6728 213.9575 213.9755 213.9755 214.1037 214.1638 214.1638 215.9184
   216.3411 217.8462 217.8712 217.9423 217.9423 218.2350 218.3425 218.3425
   218.4179 218.5792 218.5960 218.5960 218.6323 218.8713 218.8713 219.1539
   219.1632 220.8829 220.8829 222.1609 222.5121 222.5121 222.6266 222.8231
   224.4201 224.8930 224.8930 225.1585 226.6020 226.6020 226.6992 226.9334
   229.2663 229.2663 229.3105 229.3118 229.5141 229.7779 229.7779 230.5078
   230.5635 233.8632 233.8632 234.2192 234.2552 234.4612 234.4612 235.0321
   235.1438 235.2952 235.2952 235.4147 239.0690 239.0690 240.0697 240.4203
   240.4271 243.3267 243.3267 243.4018 243.4348 243.4348 243.4977 243.8635
   244.1073 244.1073 244.2766 244.5224 245.9533 245.9533 246.9259 247.1965
   250.1295 250.3476 250.5911 250.5911 250.6039 251.1904 251.3892 251.3892
   252.5630 252.9749 252.9749 253.3155 253.6413 253.9066 254.1498 254.3699
   254.3699 254.3942 254.3942 254.4220 255.0045 255.0839 255.6546 255.6546
   255.6891 255.7906 255.7906 255.9532 256.0962 257.1175 257.9669 259.1812
   259.3883 259.3883 260.6945 261.4574 261.4574 261.7179 262.2618 262.2618
   262.3870 262.6770 264.1964 264.4698 264.4698 264.6675 264.9561 264.9561
   266.7598 266.8688 267.8224 267.8224 268.3659 270.5521 271.2901 271.2901
   271.6816 271.7654 271.8962 272.3149 272.3149 272.7841 272.7841 272.8946
   273.2785 273.3125 273.3125 273.3243 273.5554 273.6600 274.5542 274.5542
   275.9911 275.9911 276.0304 276.0347 277.7986 277.7986 278.0555 278.1859
   278.8652 279.5998 279.5998 280.7241 281.0390 281.0390 281.0597 281.0967
   281.4686 281.4791 281.4791 281.8033 282.5271 283.3365 283.3365 283.3666
   284.1349 284.1349 284.3667 284.3920 286.1327 289.3023 289.3023 289.6071
   289.9019 290.3507 290.5321 291.5011 291.5011 292.4853 292.4853 292.8220
   293.7683 293.7683 295.2647 296.9320 297.3846 297.3846 297.3881 297.6827
   298.3079 298.5271 298.5271 298.6331 299.0830 299.2328 299.2688 299.2688
   299.6590 299.8558 299.8558 299.9971 300.2276 300.3270 300.3270 301.5477
   302.0691 302.2249 302.2678 302.2678 302.4121 302.4386 302.4386 302.4945
   302.7732 302.8106 302.8108 302.8108 306.6502 306.6623 307.0472 307.2854
   307.2854 307.7564 307.7564 307.9066 307.9113 307.9871 308.1390 308.1390
   308.3750 308.3750 308.6477 308.8269 308.9571 308.9660 308.9660 308.9923
   311.0814 311.1829 311.2176 311.2176 311.6061 311.7225 311.7225 311.7822
   311.8092 312.0418 312.0418 312.1054 312.1404 312.1617 312.1617 312.1744
   312.4464 312.4959 312.4959 312.4965 317.3503 317.7990 318.1826 318.1826
   319.0117 319.0222 319.0222 319.0452 319.5128 319.5128 319.5681 319.6512
   322.5517 323.0156 323.5326 323.5326 324.2883 325.1480 325.1480 326.0369
   326.2878 326.5270 326.5270 327.0168 327.2777 327.4763 327.8694 327.8694
   327.9941 328.0089 328.0132 328.0132 328.0189 328.2611 328.4306 328.4306
   328.4528 328.4528 328.5140 328.5594 330.4345 330.6741 330.8457 330.8457
   330.8556 331.8015 334.5594 334.9635 334.9635 335.1105 335.3465 335.6721
   336.3537 336.3537 336.6645 336.7249 336.7249 337.0231 337.0756 337.0756
   337.2804 337.3153 337.3382 337.3382 337.3839 337.5525 337.9638 338.1931
   338.2091 338.2091 338.2755 338.3124 338.3131 338.3131 340.1166 340.1166
   340.6103 340.6103 340.6537 340.6567 346.1509 346.3991 346.3991 347.0891
   347.1845 347.5239 347.5239 347.5459 347.5557 347.7217 347.7239 347.7239
   347.8516 347.8542 347.8542 347.8817 350.7296 350.7296 351.3525 351.4337
   353.2536 353.6594 353.6594 353.7140 354.0034 354.0179 354.0179 354.1880
   355.4348 355.4435 355.4435 355.6414 356.6826 356.6826 356.9117 357.4292
   358.9037 358.9037 359.1096 359.1105 359.2428 359.2739 359.2739 359.2766
   365.0423 365.3867 365.4660 365.8036 365.8036 366.1682 366.1682 366.2232
   366.3948 366.9619 367.1773 367.1773 367.6599 367.6599 367.7049 367.8375
   369.0124 369.8258 370.9245 370.9245 371.6255 371.6255 371.7980 372.2395
   372.6363 373.5142 373.5142 374.0746 374.1192 374.3424 374.5693 374.5693
   374.6838 374.6838 374.7047 374.7115 374.7373 374.9655 375.2942 375.2942
   375.3115 375.3115 375.5897 375.6146 380.6226 381.8102 382.2102 382.2102
   383.2968 383.6235 383.6235 383.9539 383.9540 384.0674 384.1000 384.1750
   384.1750 384.5059 384.5305 384.5305 384.6166 384.6699 384.6699 384.7731
   384.9621 385.3979 386.0015 386.0015 388.9249 389.8600 389.8600 390.7243
   390.8155 390.8973 390.9884 390.9884 391.1305 391.3121 391.3121 391.3502
   392.4180 392.4996 392.6997 392.6997 392.8103 392.9193 392.9524 392.9524
   392.9763 393.1434 393.1434 393.2809 393.3003 393.3521 393.3521 393.3749
   394.2417 394.2744 394.3372 394.3372 394.4010 394.4010 394.4287 394.4325
   395.2329 395.4229 395.4229 395.4890 395.9732 395.9906 396.0094 396.0094
   396.1260 396.1636 396.1636 396.1675 396.6752 396.6996 396.6996 396.7053
   401.9938 402.0478 402.0478 402.3781 402.4950 402.5888 402.5888 402.7000
   402.7013 403.1314 403.1874 403.2075 403.2075 403.4570 403.4570 403.5895
   403.6047 403.7418 403.7418 403.7522 403.8033 403.9434 403.9434 403.9487
   404.0824 404.1309 404.1309 404.1351 408.7502 409.3057 409.4932 409.4932
   410.4498 411.2034 411.2034 411.3013 411.5952 412.0806 412.2730 412.2730
   414.5969 414.5969 414.8530 414.8828 415.3066 415.3162 415.3398 415.3398
   416.2339 417.3624 418.4755 419.4203 419.4203 419.5525 419.6277 419.6277
   419.7669 419.8419 420.9986 421.2418 421.2418 421.4922 421.5507 421.5507
   421.5512 421.6191 422.0064 422.2175 422.2223 422.2223 422.2362 422.2362
   422.2736 422.2905 423.9076 424.1334 424.1334 424.1448 424.1448 424.1585
   424.2760 424.2840 424.2840 424.2891 427.9276 427.9276 428.0007 428.1897
   428.2937 428.6165 428.6165 429.4111 429.5247 430.0860 430.0860 430.2100
   431.0093 431.1325 431.1325 431.1444 432.7240 432.7441 432.7441 432.8137
   436.1835 436.1835 436.2011 436.5893 437.1437 437.4555 437.4675 437.4675
   438.6946 439.2253 439.2253 439.5046 439.7532 439.7532 439.7545 439.8222
   439.8222 439.8553 439.8606 439.9732 440.4050 440.6306 440.6306 440.7560
   440.8200 440.8678 440.8678 440.8846 441.3767 441.5801 441.5801 441.6308
   442.9563 442.9563 443.1681 443.1873 444.2625 444.2658 444.2704 444.2704
   446.2453 446.4664 446.5076 446.5076 447.1279 447.1279 447.1406 447.2951
   447.3980 448.2769 448.3935 448.3935 448.5683 448.7036 448.7375 448.7375
   449.2615 449.3151 449.3659 449.3659 450.1346 450.1346 450.1677 450.1782
   450.2406 450.2428 450.2428 450.2958 450.3032 450.3483 450.3483 450.3603
   450.3779 450.4650 450.4650 450.4832 451.9185 451.9981 452.0694 452.0694
   452.1725 452.1725 452.1794 452.2012 458.0759 458.2661 458.6284 458.6284
   459.5173 459.9971 460.0018 460.0018 460.0241 460.1096 460.1096 460.1265
   460.4043 461.9077 461.9077 462.1604 465.1067 465.1067 465.6073 465.7305
   466.0851 466.0851 466.2341 466.2563 466.9898 467.0268 467.1257 467.1257
   467.2605 467.4656 467.4656 467.5756 467.7122 467.8835 467.8835 467.8947
   470.4734 470.5872 470.6410 470.6410 470.7604 470.7877 470.7925 470.7925
   470.8948 470.8986 470.9040 470.9040 475.6144 475.7672 475.7672 475.9014
   476.5036 476.5036 476.6487 476.6866 477.0489 477.0489 477.2485 477.2618
   477.4518 477.5279 477.5279 477.5935 477.6066 477.6293 477.6984 477.6984
   477.7012 477.7218 478.0405 478.0405 478.1614 478.1614 478.2232 478.2657
   478.2839 478.4106 478.4106 478.4446 478.4449 478.4454 478.4604 478.4604
   480.8207 480.8302 480.8302 480.8355 481.7458 481.7458 481.8535 482.8261
   486.9780 487.0577 487.1106 487.1106 487.2505 487.2505 487.3401 487.3489
   487.8955 488.0112 488.0112 488.0527 488.0527 488.0575 488.0590 488.0648
   491.9469 492.5434 492.5434 492.8511 493.3251 493.5352 493.6121 493.6121
   494.3883 494.3883 494.3920 494.3950 496.7236 496.7815 496.7815 496.8941
   496.9301 496.9652 496.9652 497.0055 498.0359 498.1405 498.1405 498.2056
   498.9105 499.0028 499.0028 499.0046 499.3664 499.3664 499.3885 499.3901
   501.7654 501.7989 501.7989 501.8981 502.5096 502.7735 502.7735 502.8374
   503.1284 503.2136 503.2136 503.3524 504.6627 504.9907 504.9907 505.0363
   505.2490 505.2495 505.2686 505.2686 505.2703 505.3576 505.3679 505.3679

     the Fermi energy is     1.7970 ev
     (compare with:     2.1751 eV, computed in scf)

     Writing all to output data dir out/mp-24084.save/
 
     init_run     :      0.03s CPU      0.03s WALL (       1 calls)
     electrons    :    542.81s CPU    582.73s WALL (       1 calls)

     Called by init_run:
     wfcinit      :      0.00s CPU      0.00s WALL (       1 calls)
     potinit      :      0.01s CPU      0.01s WALL (       1 calls)
     hinit0       :      0.01s CPU      0.01s WALL (       1 calls)

     Called by electrons:
     c_bands      :    542.81s CPU    582.72s WALL (       1 calls)
     v_of_rho     :      0.01s CPU      0.01s WALL (       1 calls)

     Called by c_bands:
     init_us_2    :      0.00s CPU      0.00s WALL (       8 calls)
     init_us_2:cp :      0.00s CPU      0.00s WALL (       8 calls)
     paro_k       :    524.52s CPU    563.34s WALL (       8 calls)

     Called by paro_*:
     h_psi        :      9.54s CPU      9.95s WALL (     766 calls)
     g_psi        :      0.20s CPU      0.23s WALL (   74954 calls)

     Called by h_psi:
     h_psi:calbec :      0.16s CPU      0.17s WALL (     766 calls)
     vloc_psi     :      9.20s CPU      9.60s WALL (     766 calls)
     add_vuspsi   :      0.11s CPU      0.12s WALL (     766 calls)

     General routines
     calbec       :      0.16s CPU      0.17s WALL (     766 calls)
     fft          :      0.00s CPU      0.01s WALL (      10 calls)
     fftw         :      8.20s CPU      8.55s WALL (  124174 calls)
 
     Parallel routines
 
     PWSCF        :   9m 3.53s CPU   9m43.75s WALL

 
   This run was terminated on:  13:34: 4  20Dec2023            

=------------------------------------------------------------------------------=
   JOB DONE.
=------------------------------------------------------------------------------=
