
     Program PWSCF v.7.1 starts on 14Nov2023 at 12:54:42 

     This program is part of the open-source Quantum ESPRESSO suite
     for quantum simulation of materials; please cite
         "P. Giannozzi et al., J. Phys.:Condens. Matter 21 395502 (2009);
         "P. Giannozzi et al., J. Phys.:Condens. Matter 29 465901 (2017);
         "P. Giannozzi et al., J. Chem. Phys. 152 154105 (2020);
          URL http://www.quantum-espresso.org", 
     in publications or presentations arising from this work. More details at
     http://www.quantum-espresso.org/quote

     Parallel version (MPI), running on     8 processors

     MPI processes distributed on     1 nodes
     123221 MiB available memory on the printing compute node when the environment starts
 
     Reading input from pw_mp-66_nscf_k0_E228.in
Warning: card &IONS ignored
Warning: card / ignored
Warning: card &CELL ignored
Warning: card / ignored

     Current dimensions of program PWSCF are:
     Max number of different atomic species (ntypx) = 10
     Max number of k-points (npk) =  40000
     Max angular momentum in pseudopotentials (lmaxx) =  4

     Atomic positions and unit cell read from directory:
     out/mp-66.save/
     Atomic positions from file used, from input discarded
 
 
     R & G space division:  proc/nbgrp/npool/nimage =       8
     Subspace diagonalization in iterative solution of the eigenvalue problem:
     one sub-group per band group will be used
     scalapack distributed-memory algorithm (size of sub-group:  2*  2 procs)

 
     Parallelization info
     --------------------
     sticks:   dense  smooth     PW     G-vecs:    dense   smooth      PW
     Min         177     177     45                 4444     4444     558
     Max         178     178     46                 4448     4448     560
     Sum        1417    1417    361                35557    35557    4477
 
     Using Slab Decomposition
 


     bravais-lattice index     =            2
     lattice parameter (alat)  =       6.7288  a.u.
     unit-cell volume          =      76.1657 (a.u.)^3
     number of atoms/cell      =            2
     number of atomic types    =            1
     number of electrons       =         8.00
     number of Kohn-Sham states=         1672
     kinetic-energy cutoff     =     228.0000  Ry
     charge density cutoff     =     912.0000  Ry
     Exchange-correlation= PBE
                           (   1   4   3   4   0   0   0)

     celldm(1)=   6.728833  celldm(2)=   0.000000  celldm(3)=   0.000000
     celldm(4)=   0.000000  celldm(5)=   0.000000  celldm(6)=   0.000000

     crystal axes: (cart. coord. in units of alat)
               a(1) = (  -0.500000   0.000000   0.500000 )  
               a(2) = (   0.000000   0.500000   0.500000 )  
               a(3) = (  -0.500000   0.500000   0.000000 )  

     reciprocal axes: (cart. coord. in units 2 pi/alat)
               b(1) = ( -1.000000 -1.000000  1.000000 )  
               b(2) = (  1.000000  1.000000  1.000000 )  
               b(3) = ( -1.000000  1.000000 -1.000000 )  


     PseudoPot. # 1 for C  read from file:
     /usr/scratch4/magr4985/MG/HTDF/pseudo/SG15/C.upf
     MD5 check sum: 1a5f83a7b1f58d24996abe00ed223ac6
     Pseudo is Norm-conserving, Zval =  4.0
     Generated using ONCVPSP code by D. R. Hamann
     Using radial grid of  602 points,  4 beta functions with: 
                l(1) =   0
                l(2) =   0
                l(3) =   1
                l(4) =   1

     atomic species   valence    mass     pseudopotential
        C              4.00    12.01070     C ( 1.00)

     24 Sym. Ops. (no inversion) found



   Cartesian axes

     site n.     atom                  positions (alat units)
         1           C   tau(   1) = (  -0.5000000   0.5000000   0.0000000  )
         2           C   tau(   2) = (  -0.7500000   0.7500000   0.7500000  )

     number of k points=     1  Gaussian smearing, width (Ry)=  0.0005
                       cart. coord. in units 2pi/alat
        k(    1) = (   0.0000000   0.0000000   0.0000000), wk =   2.0000000

     Dense  grid:    35557 G-vectors     FFT dimensions: (  45,  45,  45)

     Estimated max dynamical RAM per process >     201.19 MB

     Estimated total dynamical RAM >       1.57 GB

     The potential is recalculated from file :
     out/mp-66.save/charge-density

     Starting wfcs are random

     Band Structure Calculation
     Davidson diagonalization with overlap

     ethr =  5.00E-06,  avg # of iterations =  4.0

     total cpu time spent up to now is      234.9 secs

     End of band structure calculation

          k = 0.0000 0.0000 0.0000 (  4477 PWs)   bands (ev):

    -8.0984  13.4025  13.4025  13.4025  19.0159  19.0159  19.0159  26.8654
    32.7969  40.1359  40.1359  41.0595  41.0595  41.0595  48.3367  60.6878
    60.6878  60.6878  81.1012  81.1012  81.1012  85.4898  85.4898  88.1441
    88.1441  88.1441  92.5959  92.5959  92.5959 100.7042 112.7937 112.7937
   112.7937 118.4955 118.4955 118.4955 118.7664 118.7664 118.9001 118.9001
   123.2265 123.2265 123.2265 124.1935 124.1935 124.1935 125.4060 125.4060
   125.4060 127.0922 133.0873 134.6507 134.6507 134.6507 135.5295 135.5295
   135.5295 142.4232 147.1841 172.5677 172.5677 172.5677 179.1247 179.1247
   182.1837 182.1837 182.1837 187.2285 194.7078 194.7078 194.7078 206.7861
   206.7861 208.6648 208.6648 208.6648 209.7558 209.7558 209.7558 211.6759
   211.6759 211.6759 216.2951 216.2951 216.2951 216.3198 216.3198 222.0745
   224.1936 224.1936 224.1936 224.4228 224.4228 229.3067 229.7027 229.7027
   229.7027 230.0045 230.0045 230.0045 230.9192 230.9192 230.9192 231.4523
   231.4523 231.4523 233.1610 233.7783 233.7783 233.7783 233.9065 233.9065
   251.1543 251.1543 251.1543 254.5487 264.9511 264.9511 264.9511 269.2935
   271.8032 271.8032 273.7107 273.7107 273.7107 275.4571 275.4571 275.4571
   276.0829 276.0829 276.0829 276.8833 276.8833 276.8833 277.6444 277.6444
   292.2176 295.7139 295.7139 295.7139 304.2080 304.2080 304.2080 306.1789
   306.1789 307.2660 307.2660 308.8030 309.0374 309.0374 309.0374 309.8357
   309.8357 309.8357 311.4157 313.1017 313.1017 313.1017 313.1125 313.1125
   313.1125 313.1578 313.1578 313.1578 313.5345 313.5345 313.5345 321.7799
   321.8109 352.0727 352.0727 352.0727 360.1641 360.1641 360.1641 364.1781
   364.1781 364.1781 364.1835 364.1835 364.3259 364.3259 364.3259 373.5617
   388.5822 388.5822 388.5822 394.5679 394.5679 395.0396 395.0396 395.0396
   395.6782 395.6782 395.6782 397.4824 400.0680 400.0680 400.0680 400.3431
   400.3431 401.5063 401.5063 401.5063 401.5849 405.7844 405.7844 405.7844
   405.9295 405.9295 405.9455 405.9455 405.9455 406.7769 406.7769 406.7769
   406.9460 406.9460 407.4643 407.4643 407.4643 408.9539 409.1125 409.1125
   409.1125 409.4218 409.4218 409.4218 409.7673 411.2021 411.2021 411.2021
   414.4292 414.4292 414.4292 415.2731 415.8361 416.2683 416.2683 416.2683
   416.9982 416.9982 419.1099 421.3332 421.3332 421.3963 421.3963 421.3963
   421.6120 421.6120 421.6120 421.8047 421.8047 421.8047 422.1648 422.1648
   422.1648 422.1892 422.1892 446.4013 446.4013 446.4013 456.0607 456.0607
   458.5202 464.1976 464.1976 464.1976 464.6554 464.6554 464.6554 464.9378
   464.9378 464.9378 465.0410 465.0410 465.0410 469.0196 469.0196 469.0568
   469.0568 469.0568 469.1261 477.1954 477.1954 477.1954 483.3347 483.3347
   483.3347 488.8630 490.1032 496.4844 496.4844 496.4844 497.3864 497.3864
   498.6985 498.6985 498.6985 498.8395 498.8395 498.8395 499.0171 499.0171
   499.0171 499.6501 499.6501 506.7133 506.7133 506.7133 510.2666 511.4868
   511.4868 512.1767 512.1767 512.1767 512.9437 512.9437 512.9437 513.5643
   513.5643 513.5643 513.5944 513.5944 513.5944 514.2008 514.6900 514.6900
   514.6901 515.0906 515.0906 547.2589 547.2589 547.2589 557.5306 557.5306
   557.5306 557.9610 558.0695 563.4811 563.4811 563.4811 572.4196 572.4196
   572.4196 582.1128 583.0158 583.0158 583.0345 583.0345 583.0345 583.2262
   583.2262 583.2262 588.1220 589.1302 589.1302 589.9127 589.9127 589.9127
   590.1107 590.1107 590.7661 590.7661 590.7661 591.1116 591.1116 591.1116
   591.1664 591.7155 591.7155 591.7155 591.9590 591.9590 592.4124 596.9194
   596.9194 596.9194 596.9663 596.9663 596.9663 597.0847 597.0848 597.0848
   597.1436 597.1436 597.1436 608.0763 608.0763 608.0763 608.2747 608.2747
   608.2747 608.3526 608.3526 608.3725 608.3725 608.3725 608.4694 609.5697
   609.5697 609.5697 610.5975 610.6827 610.6827 610.6827 610.8800 610.8800
   610.8800 610.8961 610.8961 623.3687 623.3687 623.3687 640.0807 641.0663
   641.0663 641.0663 643.2931 646.2872 646.2872 646.8202 646.8202 646.8202
   647.7284 647.7284 647.7284 648.4687 648.4687 648.4687 648.9528 648.9528
   648.9528 649.9973 649.9973 654.3055 654.3055 654.9765 654.9765 654.9765
   655.2432 655.2432 655.2432 655.5584 655.5584 655.5584 656.1979 656.1979
   656.1979 656.6522 656.6522 657.3078 658.1140 658.1140 658.1140 658.5857
   658.5857 658.5857 658.9252 664.5763 664.5763 664.5763 681.5489 681.7565
   681.7565 681.7565 681.8078 683.0258 683.0258 683.0258 685.2780 685.2780
   685.2780 685.4653 685.4653 686.4807 686.4807 686.5345 686.5345 686.5345
   686.6915 686.6915 686.6915 687.1531 687.1531 687.1531 687.6284 687.9213
   688.0392 688.0392 688.0392 691.6460 691.6460 691.6460 691.6679 691.6679
   691.7390 691.7390 691.7390 691.8536 691.8536 691.8536 692.1656 692.1656
   692.1656 692.1943 692.1943 692.5800 692.5800 692.5800 692.6431 692.6431
   692.6431 692.6591 692.8677 693.4556 693.4556 693.4556 693.4596 693.4596
   693.4596 693.5000 693.5000 693.5253 693.5253 693.5253 693.8036 693.8036
   693.8171 693.8171 693.8171 744.5553 744.5553 744.5553 747.7477 747.7477
   747.8068 752.5960 752.5960 752.5960 772.9115 772.9115 772.9115 776.9455
   777.0955 779.1254 779.1254 779.3191 779.3191 779.3191 779.7148 779.7148
   779.7148 780.3464 780.3464 780.3464 780.3527 780.3527 780.3527 780.7230
   780.7230 787.6043 787.6044 787.6044 788.2073 788.8969 788.8969 788.8969
   789.0383 789.0383 791.4074 791.4074 791.4074 792.4588 792.9590 796.8008
   796.8008 796.8008 796.9513 796.9513 796.9513 796.9850 796.9850 796.9850
   796.9972 796.9972 796.9972 800.1534 800.1534 800.1535 800.3143 800.3143
   800.3143 800.3161 800.3161 800.3349 800.3349 800.3349 800.3618 800.3618
   800.3618 800.3681 800.3681 800.9116 800.9116 800.9196 800.9196 800.9196
   800.9364 817.5611 817.5611 817.5611 836.8686 836.8686 836.8860 836.8860
   836.8860 837.0353 837.0724 837.0724 837.0724 840.4727 840.4727 840.4825
   840.4825 840.4825 841.6529 843.0259 843.0259 843.0259 843.3076 843.3076
   843.3076 843.3706 843.3706 843.3706 843.6538 843.6538 843.6538 845.2670
   845.3044 845.3044 845.3044 845.3288 845.3288 850.1725 850.1725 850.1725
   867.1256 867.1256 867.1256 867.2083 867.2083 867.2083 867.2255 867.2255
   868.1012 871.8192 871.8192 871.8192 875.3459 875.5104 875.5104 875.5104
   875.7941 875.7941 875.7941 875.7997 875.7997 876.2391 876.2391 876.2391
   877.5966 877.5967 877.5967 877.8398 878.0918 880.2017 880.2017 880.2017
   880.2840 880.2840 880.2870 880.2870 880.2870 880.3355 880.3355 880.3355
   880.3978 881.0979 881.0979 881.0979 881.2342 881.2342 881.3276 881.3276
   881.3276 881.4451 881.4451 881.4451 881.5527 892.2645 892.2645 892.2645
   893.0710 893.0710 893.0710 893.2974 893.2974 893.2975 893.2975 893.2975
   893.3430 894.0234 894.0234 894.0234 894.7092 894.7092 894.7092 894.7309
   894.7309 894.7331 894.7331 894.7331 894.7583 927.6516 927.6517 927.6517
   937.5632 937.5632 938.0144 938.0880 938.0880 938.0880 938.1554 938.1554
   938.1554 938.2300 938.2300 938.2300 938.3085 938.3085 938.3085 938.7291
   938.7291 938.7864 938.7864 938.7864 938.8696 943.7762 943.7762 943.7762
   954.7273 954.7273 954.7273 960.8432 961.9544 964.1588 964.1588 964.1588
   964.1847 964.1847 965.6997 965.6997 965.6997 965.8830 965.8830 965.8830
   966.2405 966.2405 966.2405 966.7619 966.7619 969.3120 969.3120 969.3120
   969.3470 969.4440 969.4440 969.4440 969.9920 969.9920 970.1395 970.1541
   970.1541 973.9887 973.9887 973.9887 974.0082 974.0082 974.0082 974.2031
   974.2031 974.2031 974.2988 974.2988 974.6083 974.6083 974.6083 974.7609
   974.7609 976.4709 976.4709 976.4709 976.5597 976.5597 976.5597 976.7022
   976.7022 976.7022 976.8493 976.8493 976.8493 976.9622 977.2385 977.2385
   977.2385 977.4068 977.4068 977.4068 977.5289 981.6715 981.6715 981.6715
   983.7021 983.7021 983.7021 984.1741 985.0777 985.0777 985.4036 985.4036
   985.4036 985.4506 985.4506 985.4506 985.5609 985.6673 985.6673 985.6673
   985.9946 985.9946 985.9946 986.5238 986.5238 989.1195 989.1195 989.2398
   989.2398 989.2398 989.5055 990.0492 990.0492 990.0492 990.1339 990.1339
   990.1339 990.2472 990.2472 990.2472 990.3819 990.3819 990.3819 990.7790
   990.7790 990.9048 990.9048 990.9048 991.04111020.47301020.47301020.4730
  1025.95521025.95521025.95521026.24101026.72111036.17211036.17211036.1721
  1036.30531036.30531036.30531036.31261036.31261036.31261036.31321036.3132
  1036.32261036.32261036.32491036.32491036.32491058.46801058.46801058.4680
  1059.78811059.78811059.78811064.57591064.57591064.90681064.90681065.0250
  1065.25121065.25121065.25121065.26271065.26271065.26271065.28541065.2854
  1065.28541065.29301065.29741065.29741065.29741071.49071071.49071071.4907
  1071.49231071.49231071.49231071.58321071.58321071.58321071.58461071.5846
  1071.58461071.79491071.79491071.80071071.80071071.80071071.81201071.8216
  1071.82161071.82811071.82811071.82811071.84031114.17361114.17361114.1736
  1124.00491124.00491124.00491124.11921124.68211125.29341125.29341125.2934
  1125.38341125.38341125.38341125.41601125.41601125.41601125.42441125.4244
  1125.42441125.42611125.42611125.43041125.43041136.34861136.34861136.3486
  1151.74881151.74881151.74881151.91001151.91001151.91041151.91041151.9104
  1152.24821152.82651152.82651152.82651156.01621156.01621156.01631156.2051
  1156.82951156.82951156.82951156.87971159.91631159.91631159.91631159.9551
  1159.95521159.95521159.95781159.95781160.27371162.43051162.43051162.4305
  1162.96941162.96941163.08391163.08391163.08391163.15601163.15601163.1560
  1163.16571163.16571163.18191163.18191163.18191163.89741163.89741163.8974
  1163.91101163.97451163.97451163.97451164.26561167.17951167.17951167.1795
  1167.20661167.20661167.23181167.23181167.23181167.23311167.23311167.2331
  1167.24981167.24981167.25861167.25861167.25861174.05311174.05311174.0531
  1174.77631174.77631174.82321177.36401177.39631177.39631177.39631177.4273
  1177.42731177.42731177.42841177.42841177.42841177.47081177.47081179.5104
  1179.51041179.51041180.01611180.01611180.01611180.03431180.03431180.0343
  1180.03581180.03581180.08101202.91321202.91321202.91321213.84801213.8480
  1214.06981215.27951215.27951215.27951215.31071215.31071215.31071215.3285
  1215.32851215.32851215.58541215.58541216.31331218.64781218.64781218.6478
  1218.69921218.74721218.74721218.74721218.88191218.88191218.88191218.8834
  1218.88341222.19571222.19571222.19571222.55571222.55571222.55571222.5915
  1222.59151222.59151223.18461223.25211223.25211223.70421223.70421223.7042
  1224.23181224.23181224.23181224.26301224.26301224.26301224.56241224.5624
  1224.56241225.52301225.52301225.52321225.52321225.52321225.62351225.6235
  1225.62351225.70841225.70841225.70841225.78621227.93941227.93941227.9646
  1227.96461227.96461228.01181245.19981245.19981245.19981255.98931256.1677
  1256.16781256.16781256.58851256.58851256.78021256.78021256.78021256.8177
  1257.25291257.25291257.25291257.40131257.40131257.40131257.79771257.7977
  1257.79771257.94691257.94691257.98951257.98961258.10141258.10141258.1014
  1258.36171258.36171258.36171258.49801258.49801258.49801258.56151258.5615
  1258.56151258.92231259.29151259.29151259.38171259.38171259.38171259.4208
  1259.42081259.42081259.50521259.50531259.50531259.56591259.70301259.9434
  1259.94341259.94341260.27611260.70261260.70261260.70261260.72391260.7239
  1260.72391260.73741260.73741260.73741260.74071260.74071260.87971260.8797
  1260.88571260.88571260.88571266.85991266.85991266.85991268.08731268.0873
  1268.11821269.74241269.74251269.74251270.00291270.00291270.00291270.1067
  1270.12101270.41451270.41451270.41451270.41491270.41491270.41501270.4362
  1270.43621270.43621270.44451270.44451270.44451272.21931272.21931272.2193
  1272.24171272.24331272.24331334.28211334.28211334.28211340.85481340.8549
  1340.85491343.05551343.27711344.63341344.63341344.63351344.65271344.6527
  1344.65271344.81251344.81251344.86501344.86501344.86501344.89131344.8913
  1344.89131344.97881344.97881353.56281353.56281353.62331353.62331353.6233
  1353.62741353.62741353.62741353.71651353.71651353.71661353.78221353.7822
  1353.78221353.86021353.86021354.46861354.57671354.57671354.57671354.6774
  1354.67741354.67741354.76941359.26171359.26171359.26171360.00811360.0081
  1360.00811360.96781361.08761363.78331363.78331363.78331364.69961364.6997
  1364.75011364.75011364.75011364.86791364.86791364.86791364.98171364.9818
  1364.98181364.98531364.98531364.98531365.01221365.01221365.09221365.2802
  1365.28031365.34731365.34731365.34731365.40931365.40931365.40941365.5181
  1365.51811365.51811365.52701365.52701365.52701365.73851365.78891365.7889
  1365.78891365.80251365.80251369.92601369.92601369.92601369.93511369.9351
  1369.94751369.94751369.94751369.95711369.95711369.95711369.96461369.9646
  1369.96461369.97031369.97031371.78981371.79401371.79401371.79401371.8000
  1371.80001371.80001371.80761401.81841401.81851401.81851407.32891407.3290
  1407.45681408.68581408.68591408.68591408.86811408.86811408.86811408.8858
  1408.88581408.88581408.89211408.89221408.89221410.76061410.76061410.7606
  1410.76441410.77411410.77411414.73191414.73191414.73351414.73351414.7335
  1414.73701415.98021415.98021415.98021415.99421415.99421415.99421416.0075
  1416.00751416.00761416.01041416.01041416.01041416.80921416.80921416.8160
  1416.81601416.81601416.82931438.95821438.95821438.95821439.62591439.6259
  1439.62591440.82761440.82871443.11601443.11601443.11601443.68071443.6807
  1443.68071444.07111444.07111444.07971444.29051444.29051444.29981451.1804
  1451.18051451.18051451.18631451.18631451.18631451.19181451.19191451.1919
  1451.20051451.20051451.20051451.24551451.24551451.24551451.25291451.2529
  1451.25291451.27271451.27271451.27431451.27431451.27441451.27441451.2744
  1451.28271451.28271451.28271498.71421498.71421498.71421501.49771501.4978
  1501.49781501.49901501.49901501.51401501.51401501.51401501.55591522.3048
  1522.30481522.30481530.47601530.69251530.69251530.69251530.80171530.8017
  1530.80171530.80341530.80341533.83611533.83611533.83611536.10231536.1024
  1536.10241537.00991537.00991537.05251537.14911537.14911537.14911537.2602
  1537.30971537.30971537.30981537.49271537.49271537.55211537.55211537.5522
  1537.60561537.60561537.60561538.68831538.68831538.68831539.12811539.4603
  1539.46031539.46031539.50491539.50491539.58211539.58221539.58221540.3370
  1540.54111540.54111540.54121540.65081540.65081540.65081540.65551540.6556
  1540.69481540.69481540.69491540.72511540.81971540.81981540.91081540.9108
  1540.91081541.05811541.05811541.05811541.07781541.07781541.07781544.1480
  1544.19161544.19161544.19171544.25251544.25251544.25261544.36761544.3677
  1544.36771544.39001544.39001545.15711545.27531545.27531545.27531545.3195
  1545.31951545.31961545.39181545.39181545.39191545.45641545.45641546.0250
  1546.02501546.02511546.13121546.13121546.13121546.15971546.15971546.1597
  1546.24291546.24301546.24301546.26161546.26171546.35091546.35101546.3887
  1546.38871546.38871546.43851546.49511546.49511546.49511546.58391556.3553
  1556.35541556.35541556.47741556.47741556.47741556.63071556.84151556.8415
  1556.86091556.90281556.90291556.90291556.95291556.95291556.95291556.9582
  1556.95821556.95821556.96231556.96231556.96241557.04321557.04321557.2433
  1557.24331557.24331557.40891557.40901557.41271557.41271557.41271557.4719
  1557.47191557.47201557.57741558.78181558.78181558.78181558.89891558.8989
  1558.89891558.89951558.89951558.91411558.91411558.91411558.95381592.5675
  1592.56761592.56761594.68661594.68661594.68661594.69431594.70031601.5216
  1601.52161601.52161602.55211602.55211602.55211602.55361602.55361602.5590
  1602.55901602.55911602.56151602.67881602.67881602.67881602.68711602.6871
  1602.68841602.68841602.68841602.69691602.69691602.69691602.70281605.4606

     the Fermi energy is    17.0529 ev
     (compare with:    17.0529 eV, computed in scf)

     Writing all to output data dir out/mp-66.save/
 
     init_run     :      0.07s CPU      0.10s WALL (       1 calls)
     electrons    :    218.44s CPU    234.60s WALL (       1 calls)

     Called by init_run:
     wfcinit      :      0.00s CPU      0.00s WALL (       1 calls)
     potinit      :      0.01s CPU      0.02s WALL (       1 calls)
     hinit0       :      0.01s CPU      0.03s WALL (       1 calls)

     Called by electrons:
     c_bands      :    218.44s CPU    234.59s WALL (       1 calls)
     v_of_rho     :      0.01s CPU      0.01s WALL (       1 calls)

     Called by c_bands:
     init_us_2    :      0.00s CPU      0.00s WALL (       1 calls)
     init_us_2:cp :      0.00s CPU      0.00s WALL (       1 calls)
     cegterg      :    211.53s CPU    227.12s WALL (       1 calls)

     Called by *egterg:
     cdiaghg      :    201.53s CPU    217.11s WALL (       5 calls)
     h_psi        :      2.67s CPU      2.76s WALL (       6 calls)
     g_psi        :      0.02s CPU      0.02s WALL (       4 calls)

     Called by h_psi:
     h_psi:calbec :      0.04s CPU      0.04s WALL (       6 calls)
     vloc_psi     :      2.59s CPU      2.66s WALL (       6 calls)
     add_vuspsi   :      0.03s CPU      0.03s WALL (       6 calls)

     General routines
     calbec       :      0.04s CPU      0.04s WALL (       6 calls)
     fft          :      0.00s CPU      0.03s WALL (      10 calls)
     fftw         :      2.35s CPU      2.42s WALL (   18136 calls)
 
     Parallel routines
 
     PWSCF        :   3m38.80s CPU   3m55.10s WALL

 
   This run was terminated on:  12:58:37  14Nov2023            

=------------------------------------------------------------------------------=
   JOB DONE.
=------------------------------------------------------------------------------=
