
     Program PWSCF v.7.1 starts on 17Nov2023 at 22:46:28 

     This program is part of the open-source Quantum ESPRESSO suite
     for quantum simulation of materials; please cite
         "P. Giannozzi et al., J. Phys.:Condens. Matter 21 395502 (2009);
         "P. Giannozzi et al., J. Phys.:Condens. Matter 29 465901 (2017);
         "P. Giannozzi et al., J. Chem. Phys. 152 154105 (2020);
          URL http://www.quantum-espresso.org", 
     in publications or presentations arising from this work. More details at
     http://www.quantum-espresso.org/quote

     Parallel version (MPI), running on    24 processors

     MPI processes distributed on     1 nodes
     123211 MiB available memory on the printing compute node when the environment starts
 
     Reading input from pw_mp-8062_nscf_k690_E102.in
Warning: card &IONS ignored
Warning: card / ignored
Warning: card &CELL ignored
Warning: card / ignored

     Current dimensions of program PWSCF are:
     Max number of different atomic species (ntypx) = 10
     Max number of k-points (npk) =  40000
     Max angular momentum in pseudopotentials (lmaxx) =  4

     Atomic positions and unit cell read from directory:
     out/mp-8062.save/
     Atomic positions from file used, from input discarded
 
 
     K-points division:     npool     =       2
     R & G space division:  proc/nbgrp/npool/nimage =      12
     Subspace diagonalization in iterative solution of the eigenvalue problem:
     one sub-group per band group will be used
     scalapack distributed-memory algorithm (size of sub-group:  3*  3 procs)

 
     Parallelization info
     --------------------
     sticks:   dense  smooth     PW     G-vecs:    dense   smooth      PW
     Min          79      79     23                 1629     1629     260
     Max          80      80     24                 1633     1633     263
     Sum         955     955    283                19579    19579    3143
 
     Using Slab Decomposition
 


     bravais-lattice index     =            2
     lattice parameter (alat)  =       8.2279  a.u.
     unit-cell volume          =     139.2515 (a.u.)^3
     number of atoms/cell      =            2
     number of atomic types    =            2
     number of electrons       =         8.00
     number of Kohn-Sham states=         1200
     kinetic-energy cutoff     =     102.0000  Ry
     charge density cutoff     =     408.0000  Ry
     Exchange-correlation= PBE
                           (   1   4   3   4   0   0   0)

     celldm(1)=   8.227854  celldm(2)=   0.000000  celldm(3)=   0.000000
     celldm(4)=   0.000000  celldm(5)=   0.000000  celldm(6)=   0.000000

     crystal axes: (cart. coord. in units of alat)
               a(1) = (  -0.500000   0.000000   0.500000 )  
               a(2) = (   0.000000   0.500000   0.500000 )  
               a(3) = (  -0.500000   0.500000   0.000000 )  

     reciprocal axes: (cart. coord. in units 2 pi/alat)
               b(1) = ( -1.000000 -1.000000  1.000000 )  
               b(2) = (  1.000000  1.000000  1.000000 )  
               b(3) = ( -1.000000  1.000000 -1.000000 )  


     PseudoPot. # 1 for C  read from file:
     /usr/scratch4/magr4985/MG/HTDF/pseudo/SG15/C.upf
     MD5 check sum: 1a5f83a7b1f58d24996abe00ed223ac6
     Pseudo is Norm-conserving, Zval =  4.0
     Generated using ONCVPSP code by D. R. Hamann
     Using radial grid of  602 points,  4 beta functions with: 
                l(1) =   0
                l(2) =   0
                l(3) =   1
                l(4) =   1

     PseudoPot. # 2 for Si read from file:
     /usr/scratch4/magr4985/MG/HTDF/pseudo/SG15/Si.upf
     MD5 check sum: 7f029a58b69e3aa87b46a36c608bf45e
     Pseudo is Norm-conserving, Zval =  4.0
     Generated using ONCVPSP code by D. R. Hamann
     Using radial grid of  602 points,  4 beta functions with: 
                l(1) =   0
                l(2) =   0
                l(3) =   1
                l(4) =   1

     atomic species   valence    mass     pseudopotential
        C              4.00    12.01070     C ( 1.00)
        Si             4.00    28.08550     Si( 1.00)

     24 Sym. Ops. (no inversion) found



   Cartesian axes

     site n.     atom                  positions (alat units)
         1           Si  tau(   1) = (  -0.2500000   0.2500000   0.2500001  )
         2           C   tau(   2) = (   0.0000000   0.0000000   0.0000000  )

     number of k points=    29  Gaussian smearing, width (Ry)=  0.0005
                       cart. coord. in units 2pi/alat
        k(    1) = (   0.0000000   0.0000000   0.0000000), wk =   0.0039062
        k(    2) = (  -0.1250000   0.1250000  -0.1250000), wk =   0.0312500
        k(    3) = (  -0.2500000   0.2500000  -0.2500000), wk =   0.0312500
        k(    4) = (  -0.3750000   0.3750000  -0.3750000), wk =   0.0312500
        k(    5) = (   0.5000000  -0.5000000   0.5000000), wk =   0.0156250
        k(    6) = (   0.0000000   0.2500000   0.0000000), wk =   0.0234375
        k(    7) = (  -0.1250000   0.3750000  -0.1250000), wk =   0.0937500
        k(    8) = (  -0.2500000   0.5000000  -0.2500000), wk =   0.0937500
        k(    9) = (   0.6250000  -0.3750000   0.6250000), wk =   0.0937500
        k(   10) = (   0.5000000  -0.2500000   0.5000000), wk =   0.0937500
        k(   11) = (   0.3750000  -0.1250000   0.3750000), wk =   0.0937500
        k(   12) = (   0.2500000   0.0000000   0.2500000), wk =   0.0468750
        k(   13) = (   0.0000000   0.5000000   0.0000000), wk =   0.0234375
        k(   14) = (  -0.1250000   0.6250000  -0.1250000), wk =   0.0937500
        k(   15) = (   0.7500000  -0.2500000   0.7500000), wk =   0.0937500
        k(   16) = (   0.6250000  -0.1250000   0.6250000), wk =   0.0937500
        k(   17) = (   0.5000000   0.0000000   0.5000000), wk =   0.0468750
        k(   18) = (   0.0000000   0.7500000   0.0000000), wk =   0.0234375
        k(   19) = (   0.8750000  -0.1250000   0.8750000), wk =   0.0937500
        k(   20) = (   0.7500000   0.0000000   0.7500000), wk =   0.0468750
        k(   21) = (   0.0000000  -1.0000000   0.0000000), wk =   0.0117188
        k(   22) = (  -0.2500000   0.5000000   0.0000000), wk =   0.0937500
        k(   23) = (   0.6250000  -0.3750000   0.8750000), wk =   0.1875000
        k(   24) = (   0.5000000  -0.2500000   0.7500000), wk =   0.0937500
        k(   25) = (   0.7500000  -0.2500000   1.0000000), wk =   0.0937500
        k(   26) = (   0.6250000  -0.1250000   0.8750000), wk =   0.1875000
        k(   27) = (   0.5000000   0.0000000   0.7500000), wk =   0.0937500
        k(   28) = (  -0.2500000  -1.0000000   0.0000000), wk =   0.0468750
        k(   29) = (  -0.5000000  -1.0000000   0.0000000), wk =   0.0234375

     Dense  grid:    19579 G-vectors     FFT dimensions: (  40,  40,  40)

     Estimated max dynamical RAM per process >     100.89 MB

     Estimated total dynamical RAM >       2.36 GB

     The potential is recalculated from file :
     out/mp-8062.save/charge-density

     Starting wfcs are random

     Band Structure Calculation
     ParO style diagonalization

     ethr =  5.00E-06,  avg # of iterations =  5.8

     total cpu time spent up to now is      778.4 secs

     End of band structure calculation

          k = 0.0000 0.0000 0.0000 (  2421 PWs)   bands (ev):

    -5.8964   9.4845   9.4845   9.4845  15.7711  16.8743  16.8743  16.8743
    23.9704  23.9704  26.0185  26.7708  26.7708  26.7708  33.0553  43.0202
    43.0202  43.0202  51.1299  51.1299  51.1299  52.3456  52.3456  57.0142
    57.0142  57.0142  68.8590  69.5274  69.5274  69.5274  71.8813  71.8813
    72.1209  72.1209  72.1209  79.0457  79.2395  79.2395  79.7119  79.9801
    79.9801  79.9801  81.6446  81.6446  81.6446  81.7958  81.7958  81.7958
    82.7375  82.7375  82.7375  88.3961  88.3961  88.3961  90.5231  91.1668
    91.1668  91.1668  93.5459 109.5443 113.9240 113.9240 113.9240 114.8566
   114.8566 118.6169 118.6169 118.6169 124.2086 124.2086 124.2086 125.1567
   128.8322 128.8322 131.4099 131.4099 131.4099 133.6618 133.6618 133.6618
   138.5990 138.5990 138.5990 142.8682 142.8682 143.2327 143.2327 143.2327
   144.0889 146.8892 146.8892 147.4544 147.4544 147.4544 151.8616 151.8616
   151.8616 152.1010 152.1010 152.1010 153.1731 153.1731 153.1731 153.9775
   153.9775 153.9775 155.0473 155.4132 156.0635 156.0635 156.0635 156.1847
   156.1847 164.5262 164.5262 164.5262 170.1341 170.1341 170.1341 173.6362
   175.1921 175.1921 179.3071 179.3071 179.3071 181.4193 181.4193 181.4193
   181.7234 182.6286 182.6286 182.6286 183.2763 183.2763 183.2763 184.1525
   184.1525 194.9242 194.9242 194.9242 197.5772 197.5772 199.2909 200.1264
   200.1264 200.1264 203.1147 203.1147 203.1147 204.3972 204.3972 204.6491
   205.4412 205.4412 205.4412 207.1071 207.7427 207.7427 207.7427 207.9739
   207.9739 207.9739 207.9894 207.9894 207.9894 208.1839 208.1839 208.1839
   216.7876 231.7515 231.7515 231.7515 233.1413 233.1413 233.1413 234.8549
   235.9099 235.9099 235.9099 235.9709 235.9709 239.0489 239.0489 239.0489
   250.3834 250.3834 250.3834 255.0755 255.0755 256.9206 258.0719 258.0719
   258.0719 259.9563 259.9563 259.9563 262.7870 262.8621 262.8621 262.8621
   263.0477 263.0477 264.5450 264.5450 264.5450 268.2306 268.2306 268.3518
   268.3518 268.3518 268.8354 268.8354 268.8354 270.4258 270.4258 270.4258
   270.5225 270.5225 270.5225 270.9715 270.9715 271.0226 271.0226 271.0226
   271.2825 272.5230 272.5230 272.5230 273.2332 273.2332 273.2332 273.7901
   274.4427 274.4828 274.4828 274.4828 276.4277 276.4277 276.4277 276.5564
   276.5564 276.9131 280.5575 280.5575 280.6999 280.6999 280.6999 281.1852
   281.1852 281.1852 281.4091 281.4091 281.4091 281.8194 281.8194 281.8194
   281.8445 281.8445 286.6442 296.8668 296.8668 296.8668 298.7064 298.7064
   305.0505 307.1533 307.1533 307.1533 307.6974 307.6974 307.6974 308.3304
   308.3304 308.3304 308.6550 308.6550 308.6550 312.5711 312.5711 312.6665
   312.6665 312.6665 312.8181 315.2041 315.2041 315.2041 318.8807 318.8807
   318.8807 319.7820 325.1481 326.7082 326.7082 326.9531 326.9531 326.9531
   329.2656 329.2656 329.2656 329.8382 329.8382 329.8382 330.3373 330.3373
   330.3373 331.2657 331.2657 336.5103 336.5103 336.5103 339.8367 339.8367
   340.2904 340.2904 340.2904 341.0233 341.1318 341.1318 341.1318 341.9874
   341.9874 341.9874 342.0242 342.0242 342.0242 343.1636 343.1636 343.1636
   343.4710 343.4710 344.2190 365.4661 365.4661 365.4661 368.5769 368.5769
   368.5769 369.1402 369.7828 376.0316 376.0316 376.0316 377.4271 377.4271
   378.0185 378.0185 378.0185 378.3890 378.3890 378.3890 378.7849 381.5518
   381.5518 381.5518 385.2764 385.2764 386.8400 386.8400 386.8400 388.3581
   391.1033 391.1033 391.3616 391.3616 391.3616 392.0135 392.0135 392.0135
   394.0580 394.0580 394.0580 394.1018 394.1018 394.2600 396.5220 396.6085
   396.6085 396.6085 397.2144 397.2144 397.2144 397.2457 397.2457 397.2457
   397.6232 397.6232 397.6232 404.4422 404.4422 404.4422 404.4782 404.4782
   404.4782 404.6241 404.6241 404.7015 404.7015 404.7015 404.9874 406.5037
   406.5037 406.5037 407.4995 407.4995 407.4995 407.6450 407.7954 407.7954
   407.7954 407.8084 407.8084 415.6343 415.6343 415.6343 420.0378 420.0378
   420.0378 421.0179 421.6353 425.4936 425.4936 426.1514 426.1514 426.1514
   427.1456 427.1456 427.1456 428.4234 428.4234 428.4234 428.7022 428.7022
   428.7022 430.6174 430.6174 434.5370 434.5370 435.5516 435.5516 435.5516
   435.7786 435.7786 435.7786 436.3174 436.3174 436.3174 437.0425 437.0425
   437.0425 437.4918 437.4918 437.9787 438.7814 438.7814 438.7814 439.2065
   439.2065 439.2065 439.5072 443.9785 443.9785 443.9785 448.9617 449.3834
   449.3834 449.3834 451.1331 452.3188 452.3188 453.0967 453.0967 453.0967
   455.1880 455.1880 455.1880 455.3447 455.3447 455.3447 455.4012 455.4012
   455.4012 455.4547 456.4432 456.4432 456.9427 456.9427 456.9427 457.4335
   457.4335 457.4335 458.8069 460.2419 460.2419 460.4135 460.4135 460.4135
   460.8454 460.8454 460.8454 461.0233 461.0746 461.0746 461.0746 461.4081
   461.4081 461.4081 461.6343 461.6343 461.9569 461.9569 461.9569 462.2914
   462.2914 462.2914 462.3301 462.3301 462.5486 462.5486 462.5486 462.5749
   462.5749 462.5749 462.9557 462.9557 462.9557 463.0663 463.4939 463.4939
   463.4939 463.5262 463.5262 494.9293 494.9293 494.9293 495.6918 495.7346
   495.7346 502.6507 502.6507 502.6507 509.3717 510.2166 510.2166 510.2166
   510.8475 513.2924 513.2924 513.9780 513.9780 513.9780 516.1580 516.1580
   516.1580 516.2779 516.2779 516.2779 516.5096 516.5096 516.5096 517.3345
   517.3345 520.6951 521.9133 521.9133 521.9133 523.4868 523.4868 523.5642
   523.5642 523.5642 526.1471 526.5629 526.5629 526.5629 527.3019 530.5252
   530.5252 530.5252 530.6359 530.6359 530.6359 530.6938 530.6938 530.6938
   530.7154 530.7154 530.7154 533.7949 533.7949 533.7949 533.8857 533.8857
   533.9362 533.9362 533.9362 533.9925 533.9925 534.0617 534.0617 534.0617
   534.1007 534.1007 534.1007 534.4599 534.4599 534.4599 534.4641 534.4641
   534.5039 545.5260 545.5260 545.5260 549.5921 549.7160 549.7160 549.9307
   549.9307 549.9307 549.9513 549.9513 549.9513 556.3107 556.3107 556.3107
   556.9504 556.9504 558.8808 560.5177 560.5177 560.5177 560.9282 560.9282
   560.9282 561.1903 561.1903 561.1903 561.7797 561.7797 561.7797 563.3506
   563.4228 563.4228 563.4228 563.4627 563.4627 566.2948 566.2948 566.2948
   571.6914 571.9423 571.9423 571.9423 572.1525 572.1525 572.1657 572.1657
   572.1657 579.7791 580.2880 580.2880 580.2880 580.9989 580.9989 580.9989
   581.9343 581.9343 581.9343 582.2088 582.2088 582.2088 582.2333 582.2333
   582.9873 583.4995 583.4995 583.4995 583.8238 584.5749 584.5749 584.5749
   584.5891 584.5891 584.6495 584.6495 584.6495 584.8286 584.8286 584.8286
   585.1144 588.2459 588.2459 588.2459 588.3284 588.3284 588.4874 588.4874
   588.4874 588.6360 588.6360 588.6360 588.7728 594.3500 594.3500 594.3500
   595.3507 595.3507 595.3507 595.3615 595.3615 595.3618 595.3712 595.3712
   595.3712 597.3273 597.3273 597.3273 597.3390 597.4144 597.4144 597.4144
   597.4486 597.4486 597.4574 597.4574 597.4574 618.4020 618.4020 618.4020
   621.5266 621.9074 621.9074 623.3403 623.3403 623.3403 623.7528 623.7528
   623.7528 623.9735 623.9735 623.9735 624.1585 624.1585 624.1585 625.2216
   625.2216 625.3584 625.3584 625.3584 625.5701 626.7737 626.7737 626.7737
   630.9828 633.3613 633.3613 633.3613 634.3274 634.9935 634.9935 636.0717
   636.0717 636.0717 638.7031 638.7031 638.7031 639.2332 639.3500 639.3500
   639.3500 639.5393 639.5393 639.5393 640.1496 640.1496 641.5594 641.5594
   641.5594 642.1314 642.1314 645.2660 645.2660 645.2660 646.9232 646.9421
   646.9421 647.7936 647.7936 647.7936 648.0677 648.0677 648.0677 648.3075
   648.3075 648.3075 648.8733 648.8733 649.0842 649.0842 649.0842 649.4199
   649.4199 650.6309 650.6309 650.6309 651.1066 651.1066 651.1066 651.1445
   651.2952 651.2952 651.2952 651.6011 651.6011 651.6011 651.7742 651.7742
   651.7742 651.9892 651.9892 651.9892 652.0601 653.2586 653.2586 653.2586
   654.4721 655.1506 655.1506 655.1506 656.0267 656.5629 656.5629 656.7063
   656.7063 656.7063 656.8899 656.8899 656.8899 657.1103 657.1103 657.1103
   657.4680 657.4680 657.4680 657.9130 657.9130 660.1307 660.1307 660.2987
   660.2987 660.2987 660.6881 661.0492 661.0492 661.0492 661.1836 661.1836
   661.1836 661.2867 661.2867 661.2867 661.5225 661.5225 661.5225 661.7489
   661.7489 661.9552 661.9552 661.9552 662.1185 677.9933 677.9933 677.9933
   680.3938 680.3976 680.3976 680.3976 680.4865 691.2631 691.2631 691.2631
   691.3374 691.3374 691.3415 691.3415 691.3415 691.3565 691.3565 691.3565
   691.3988 691.3988 691.4027 691.4027 691.4027 703.6151 703.6151 703.6151
   704.6349 704.6566 704.6566 705.2666 705.2666 705.2666 707.5402 707.5402
   707.5402 707.5671 707.5671 707.5671 707.5756 707.5756 707.5756 707.7569
   707.7569 707.7569 709.2800 709.2800 709.4742 713.8087 713.8087 713.8185
   713.8185 713.8185 713.8427 714.9591 714.9591 714.9591 715.1044 715.1044
   715.1044 715.1473 715.1473 715.1473 715.1690 715.1690 715.1690 716.3904
   716.3904 716.4153 716.4153 716.4153 716.4614 739.7964 739.7964 739.7964
   744.0690 744.5776 744.5776 744.5776 744.9497 747.3681 747.3681 747.3681
   747.3774 747.3774 747.4039 747.4039 747.4039 747.6210 747.6210 747.6210
   747.7424 747.7424 747.7936 747.7936 747.7936 752.7975 752.7975 752.7975
   757.9898 757.9898 757.9898 757.9958 757.9958 758.1158 758.1158 758.1158
   758.4106 763.5984 763.5984 763.5984 766.6352 767.0244 767.0244 767.0244
   767.9932 769.7209 769.7209 769.7209 771.7228 771.7228 771.7228 771.7386
   771.7386 771.7503 771.7503 771.7503 772.0437 773.3496 773.3496 773.6190
   773.6190 773.6190 774.4991 774.4991 774.4991 774.7105 774.7105 774.7105
   774.7140 774.7140 774.7140 774.7905 774.9191 774.9191 775.8828 775.8828
   775.8828 776.2482 776.2482 776.2482 776.4837 778.9367 778.9367 779.0625
   779.0625 779.0625 779.0757 779.0757 779.0757 779.1211 779.1211 779.1211
   779.2126 779.2126 779.2137 779.2137 779.2137 781.9488 781.9488 781.9488
   782.0762 782.0762 782.1083 784.6414 784.8107 784.8107 784.8107 784.9545
   784.9545 784.9545 785.0592 785.0592 785.0592 785.0636 785.0636 787.8231
   787.8231 787.8231 788.2248 788.2248 788.2248 788.2348 788.2348 788.2348
   788.2358 788.2358 788.3010 799.8592 799.8592 799.8592 804.2217 804.4033
   804.4033 806.1319 806.1319 806.1319 806.1655 806.1655 806.1655 806.6232
   806.6232 806.6232 806.6581 806.6581 807.7014 810.3405 810.4216 810.4216
   810.4216 810.5078 810.5078 810.5078 810.6335 810.6335 810.6335 810.6702
   810.6702 813.0973 813.0973 813.0973 813.6475 813.6475 813.6475 813.8373
   813.8373 813.8373 814.6059 814.8156 814.8156 815.7826 815.7826 815.7826
   816.6026 816.6026 816.6026 816.6195 816.6195 816.6195 817.0785 817.0785
   817.0785 817.5230 817.5230 817.5313 817.5313 817.5313 817.7557 817.7557
   817.7557 817.9314 817.9314 817.9314 818.0840 820.0947 820.0947 820.1343
   820.1343 820.1343 820.2034 827.9317 827.9317 827.9317 834.1433 834.9419
   834.9419 834.9419 835.1940 835.1940 835.9079 836.1846 836.1846 836.1846
   836.2100 836.2100 836.2100 837.0550 837.0550 837.0550 837.0691 837.0691
   837.0691 837.4322 837.4322 837.9399 837.9399 837.9399 838.0130 838.0130
   838.0130 838.3124 838.5461 838.6407 838.6407 838.7712 838.7712 838.7712
   839.5290 839.5290 839.5290 839.9726 839.9726 839.9726 840.4124 840.4124
   840.4407 840.4407 840.4407 840.8247 840.8247 840.8247 840.9673 840.9673
   840.9673 840.9724 840.9724 841.1526 841.2237 841.2237 841.2237 841.4738

          k =-0.1250 0.1250-0.1250 (  2430 PWs)   bands (ev):

    -5.5912   8.0145   9.2875   9.2875  16.0180  17.2221  17.2221  17.3692
    22.7666  22.7666  25.5758  27.6517  28.9422  28.9423  34.7068  41.8717
    42.2726  42.2726  48.5388  48.5388  51.7971  52.0991  52.0991  57.3218
    61.0262  61.0262  65.3467  67.7221  67.7221  69.8130  69.8130  69.8595
    71.2525  71.2525  72.8660  75.7275  75.7275  76.7544  77.9873  79.0341
    79.8324  79.8324  80.1185  81.8289  81.8289  82.6034  84.4808  84.4808
    85.3444  87.2209  87.2209  88.4268  89.3726  90.8370  90.8370  94.2198
    94.2198  94.8437 100.2704 106.8288 108.7238 108.7238 112.3166 113.9501
   113.9501 116.8899 120.4507 120.4507 123.0477 123.0477 123.5394 126.7205
   126.7205 128.3474 129.8114 129.8114 133.2219 133.9178 133.9178 133.9603
   137.1646 137.1646 137.8149 140.5121 140.5121 142.0790 142.1953 142.1953
   143.0658 143.8964 143.9877 143.9877 147.1630 148.5985 148.5985 149.2697
   150.1907 150.1907 151.8412 152.4922 152.4922 153.2952 154.9617 154.9617
   157.6698 157.6698 158.2280 158.8217 160.8602 160.8602 162.5346 162.5346
   163.6241 165.9546 166.2663 166.2663 167.4300 167.4300 169.6152 170.6946
   170.6946 174.5171 175.2107 175.2107 177.8288 178.7456 178.7456 178.8590
   182.0312 184.6035 184.6035 187.2363 187.8248 187.8248 188.5463 188.8395
   188.8395 189.7069 190.2843 192.2489 192.2489 196.3452 196.3452 196.3630
   197.5740 197.5740 198.4678 199.2338 199.2338 200.2757 200.2843 200.2843
   202.0207 206.3611 206.3611 207.9810 209.1955 209.1955 212.3057 212.8389
   212.8389 214.9951 217.0119 217.8158 217.8158 217.9931 218.8562 219.6978
   219.6978 220.1026 220.1026 223.2155 232.4343 232.4343 233.0363 233.7847
   233.7847 234.7510 236.0207 236.1217 236.1217 244.4108 244.4108 246.8636
   247.6140 247.6140 248.8931 250.2397 250.2397 251.5915 251.5915 252.6846
   252.8385 253.6055 253.6055 255.5878 256.6204 256.6204 257.2178 258.7720
   260.0100 261.5458 261.5458 262.1028 262.1028 262.8292 263.4376 263.4376
   264.1695 264.6690 264.6690 265.7878 265.7878 266.5476 266.5521 266.7845
   266.7845 267.4398 267.4398 271.0679 271.0735 271.1310 271.1310 272.0565
   272.3969 272.3969 273.7658 274.1629 274.1629 276.2544 276.2544 277.6743
   277.6743 277.7191 278.5739 279.6456 279.8255 279.8255 280.6185 280.6185
   281.9327 283.8074 283.8074 284.3646 285.4706 285.4706 285.5554 285.8346
   285.8346 286.9892 287.4727 287.4727 288.6384 289.6172 289.6172 290.8627
   292.3768 292.3768 292.9593 294.2149 294.2393 294.2393 294.8178 297.6242
   298.2466 298.2466 300.8019 300.9800 300.9800 303.1868 303.1868 303.5351
   306.3429 306.3429 308.5291 308.5292 309.1153 310.7288 310.7288 315.0285
   317.2584 317.2584 317.9274 317.9274 318.1395 318.3991 319.4995 321.7971
   321.7971 321.8987 322.1152 322.1152 322.7644 322.7644 326.0660 326.3156
   326.3156 326.6765 327.1343 327.1343 327.4348 329.6292 329.6292 330.7627
   330.7627 330.8057 331.1932 334.1552 334.1552 334.9420 338.7393 338.7393
   339.5251 340.2822 340.4043 340.4043 341.0987 343.9976 343.9976 344.0473
   346.1486 349.4733 349.4733 351.7735 352.4945 352.4945 353.6669 353.8219
   353.8219 357.7228 357.7228 358.1192 359.4300 360.7242 360.7242 362.7606
   362.7606 363.1386 368.9195 369.1288 369.1288 371.0158 371.0158 371.9220
   374.6702 374.6702 376.4930 376.5282 376.5282 377.5370 378.0207 378.0207
   378.6588 379.8112 379.8112 381.1988 383.2920 383.4372 383.4372 385.1678
   385.1678 385.7873 385.7873 385.9228 386.0128 387.6175 388.3239 388.3239
   388.9137 388.9137 391.1413 392.2946 392.2946 392.5633 393.3373 394.5464
   396.1936 396.1936 396.9732 399.1189 399.1189 400.7616 402.2114 402.2114
   403.0219 403.1555 403.1555 403.2257 403.5646 403.5646 404.5699 404.5699
   405.0373 408.4602 408.4602 408.8013 408.8609 408.8609 409.1859 410.4578
   410.6330 410.6330 411.0823 411.0823 411.8441 412.1680 412.6124 412.6124
   412.9383 412.9383 413.4894 413.4894 414.1749 414.7386 416.9314 416.9314
   417.4040 420.6131 420.6131 421.6924 423.3548 423.3548 423.7923 424.4979
   424.4979 424.7069 425.2287 425.6672 426.5968 426.5968 427.4711 427.9789
   427.9789 429.7701 429.7701 429.8073 432.5061 432.5061 434.0314 434.0314
   434.0767 434.1586 435.2326 435.2326 435.7067 436.4075 436.4075 437.0028
   437.0505 437.0505 437.8376 437.8376 438.1287 439.3140 439.4747 439.4747
   440.7642 440.7642 440.8890 441.0176 441.0176 441.8071 442.8300 443.7996
   443.9052 443.9052 446.8229 446.8229 447.7708 447.7708 448.0176 448.4073
   449.8000 449.8000 450.1189 450.2688 450.2688 451.2064 451.2064 451.3263
   452.5593 452.6249 452.6249 452.8237 453.4985 453.4985 456.0830 456.2945
   456.2945 456.7145 456.7145 456.9567 458.3110 458.3110 458.9198 460.3160
   460.3160 460.9061 460.9061 461.1199 462.8598 465.9746 465.9746 466.1121
   466.9267 466.9267 467.2091 468.0877 468.6309 468.6309 469.6233 469.6233
   469.8948 470.9088 474.0844 474.0844 474.3486 475.9251 475.9251 477.3749
   477.9520 478.0894 478.0894 478.8359 478.8359 480.0258 480.1183 480.1183
   481.1030 483.0744 483.8609 483.8609 484.2685 488.2399 488.2399 490.2312
   490.2313 495.7224 495.7224 496.5298 498.9226 500.8090 500.8090 502.8784
   504.5600 506.0338 506.0338 507.0199 507.0199 509.5951 509.5951 510.7835
   511.3536 511.3536 512.0990 512.3582 512.3582 512.9151 512.9828 513.0162
   513.0162 517.7631 517.7631 517.7745 518.3725 518.3725 518.5439 521.3666
   521.3666 521.4016 522.1326 522.1326 522.2943 522.6757 523.4166 523.4166
   525.9142 526.6356 526.6356 528.7067 528.7067 529.9594 529.9594 530.0231
   530.2074 531.8688 532.8440 532.8440 534.5442 535.6522 535.6522 536.4624
   536.4624 537.0984 537.7686 541.6119 541.6119 542.2818 542.5279 542.5279
   543.4705 543.4705 543.8329 544.2482 544.2694 544.2694 544.7151 544.8641
   544.8641 545.4845 546.4775 546.4775 546.5533 547.7194 547.7194 548.2190
   549.1161 549.1161 550.2933 550.2933 550.8024 551.1433 551.1533 551.1533
   552.0930 553.0340 553.0340 553.1423 553.6729 554.5291 554.5291 554.5549
   558.8701 558.9302 558.9302 560.4099 560.4099 560.8155 561.7210 561.7210
   563.8284 563.8284 565.9250 565.9574 565.9574 566.9914 568.4580 568.4580
   568.4877 569.5299 569.5299 570.3826 571.0745 571.0745 571.3763 571.5260
   572.6694 572.6694 572.9726 572.9726 573.2689 576.2536 576.2536 576.7124
   577.3125 577.3788 577.3788 578.1341 578.1341 578.2181 580.3487 580.3487
   580.6403 581.0956 581.0956 581.1947 584.6858 584.7459 584.7459 585.2909
   585.2909 585.4557 585.5047 585.5047 585.5756 589.2934 589.2934 589.3376
   590.4425 590.4425 590.5403 590.9987 590.9987 591.1841 593.1090 593.5190
   593.5190 593.8283 594.0733 594.0733 594.0837 595.4947 595.4947 598.0383
   599.3580 599.3580 600.6665 600.6665 600.7684 600.9731 600.9731 601.0822
   601.2414 601.2414 601.5414 603.4201 605.8466 606.6118 606.6118 607.9391
   607.9391 607.9871 609.6059 609.6059 610.9781 613.2110 613.2110 613.7231
   614.0885 614.0885 614.2606 615.8253 615.8253 616.4018 616.8076 616.8076
   617.1181 617.4481 617.7373 617.7373 619.1746 619.1747 621.4755 621.4755
   621.6768 622.4306 623.9348 624.0915 624.0915 624.9918 625.2008 625.2008
   625.6058 627.8231 627.8231 628.9300 628.9801 628.9801 630.0569 630.0569
   630.2073 632.4160 632.4160 632.6992 632.6992 632.7830 633.1808 633.1808
   633.5327 633.7400 633.9084 633.9084 634.3141 634.6291 634.6291 634.6334
   636.8185 636.8491 636.8491 637.3008 637.5868 637.5868 638.5702 638.5702
   638.8857 640.0401 640.0756 640.0756 640.6803 640.6803 640.9421 645.1918
   645.7011 645.7011 646.7656 646.7656 647.1734 647.3194 647.3194 647.4170
   647.8483 647.8483 647.8683 648.2886 648.9096 648.9096 649.1885 649.4695
   649.4695 649.4822 649.8295 650.0103 650.0103 652.2740 652.2740 653.8255
   653.9032 654.7086 654.7086 656.3151 656.3240 656.3240 659.2071 659.2691
   659.2691 659.4174 659.5551 659.5551 660.0701 660.0701 660.6463 662.6772
   662.6772 663.2720 663.3176 663.3176 664.3452 664.4319 664.4319 664.4651
   666.4365 666.9981 666.9981 667.4991 667.4991 668.2998 668.2998 668.5544
   668.7356 668.7356 669.5889 669.6143 670.3937 670.3937 671.1110 671.1110
   671.2660 671.5422 672.6269 672.6269 677.7993 677.7993 677.8472 678.6669
   678.6669 679.2296 679.8541 679.8541 679.9246 679.9246 680.0705 680.6586
   681.2711 681.2711 681.5378 682.5946 683.7344 683.7344 683.7874 685.6908
   685.6908 687.0489 687.0489 687.2418 687.5988 687.6524 687.6524 689.4416
   689.4416 689.6405 689.6405 690.0492 690.2676 690.6841 690.6841 690.7659
   696.6115 696.6115 696.6335 699.0943 699.0943 699.1608 699.5640 699.5640
   699.7150 699.8148 699.8148 700.2477 705.6659 705.6659 705.7223 705.7719
   705.8880 705.8880 710.1955 712.7674 715.9810 715.9810 716.5640 716.5640
   716.9038 721.7280 721.7280 722.6039 723.1482 723.1581 723.1581 723.4242
   723.4242 726.2475 726.2475 726.3439 727.4576 728.1768 728.1768 728.7342
   730.6511 730.6511 732.1940 732.1940 732.2221 732.2603 732.2899 732.2899
   734.7770 734.7806 734.7806 734.7905 735.5093 735.6897 735.6897 741.2103
   741.2103 741.4152 742.1717 742.4952 742.4952 744.3871 744.3871 745.5823
   745.5823 746.2465 746.6974 746.6974 746.7505 746.8337 746.8337 746.9382
   750.8176 750.8176 753.6036 755.3147 755.3147 755.6074 757.1996 757.3615
   757.3615 757.7019 758.0440 758.0440 758.7247 758.7247 758.9554 759.1300
   759.1309 759.1309 760.4286 760.4286 760.4876 761.0599 761.0599 761.7131
   762.2256 762.2256 762.3437 763.9291 763.9291 764.1751 765.4392 765.4392
   765.4937 767.4767 767.4767 769.3609 771.0588 771.0588 771.5720 771.9368
   771.9368 772.5215 772.5982 772.7603 772.7603 773.3199 776.2616 776.2616
   776.4797 777.1940 777.1940 777.6585 779.3871 779.3871 780.7367 780.7367
   780.8153 782.5700 782.5700 782.6881 783.5560 783.5560 783.5575 783.8306
   783.8306 783.8477 784.8357 784.8938 784.8938 785.2840 785.5408 785.5408
   786.0154 786.0788 786.0788 788.9229 788.9229 789.2137 789.8299 789.8299
   789.9748 790.3338 790.3338 790.4803 792.0881 792.0881 792.1314 792.2596
   792.5632 792.7219 792.7219 793.4400 793.4400 794.1232 794.1232 794.1631
   794.1631 794.2838 794.5937 795.8449 796.8211 796.8211 797.2713 799.4534
   799.4534 800.9890 801.2402 801.2402 801.5537 801.5537 801.6824 801.6949
   802.0269 802.5320 802.5320 803.2720 803.8436 803.8436 803.9015 805.2622
   805.2622 805.5509 805.5509 806.6927 808.4680 808.4680 808.5512 809.8563
   810.0678 810.0678 810.7243 810.7243 811.3926 811.7552 811.7552 811.7939
   811.7975 812.5072 812.6502 812.6502 812.8430 812.8430 812.8475 813.2730
   813.2730 813.5264 813.5264 813.5271 814.0750 814.0750 814.1048 814.3720
   814.3720 814.6503 816.3345 816.4358 816.4358 818.0653 818.3394 818.3394
   818.8891 818.8891 819.1143 821.1166 821.1166 821.5977 822.1359 822.1359
   822.2218 823.5897 823.5897 823.7248 824.4867 824.4867 824.9248 825.7541
   825.7541 825.8911 829.1417 829.1417 829.7015 830.3936 830.3936 830.5210
   831.0100 831.1185 831.1185 831.4033 831.6987 831.6987 832.5292 832.5292
   832.9982 833.3133 833.4657 833.4657 834.3883 834.5703 834.5703 835.0155
   835.0155 835.2744 836.4285 836.4285 836.6163 836.7721 836.7721 836.9489
   837.0501 837.0501 837.1171 839.6297 840.3225 840.3225 840.6945 841.0105
   841.0105 842.7797 842.7797 842.8767 842.8767 842.9153 843.6843 844.4182
   844.4182 844.8983 845.0748 845.4723 845.4723 846.1208 846.1208 846.2561

          k =-0.2500 0.2500-0.2500 (  2439 PWs)   bands (ev):

    -4.6987   5.2179   8.8894   8.8894  15.5305  17.4598  17.4598  18.8628
    22.6044  22.6044  24.6597  30.5979  32.0908  32.0908  37.1635  39.8564
    39.8564  41.0574  46.5105  46.5105  51.3624  52.5708  52.5708  58.1974
    61.2039  61.2039  62.6843  64.7222  64.7222  67.1830  67.8664  67.8664
    71.1147  71.6114  71.6114  72.2334  75.0900  75.0900  75.8502  78.1587
    78.9981  78.9981  79.4738  82.9793  84.8183  84.8183  86.8009  86.8009
    89.0368  91.5107  91.5107  92.2680  95.3904  97.7202  98.7972  98.7972
   101.1130 101.1130 102.1211 103.3499 103.3499 106.3889 107.7966 107.7966
   112.1914 114.1722 114.1722 116.0762 121.7174 121.7174 122.0432 126.2677
   126.2677 128.4696 128.4697 129.3996 129.7715 130.7311 130.7311 133.1612
   133.1612 134.4775 134.6370 136.8844 136.8844 138.0784 141.2390 141.8363
   141.8363 144.8196 144.9973 145.4286 145.4286 149.2246 149.2246 150.3935
   150.3935 150.9989 151.7276 153.4046 153.4046 155.2811 156.5788 156.5788
   159.1589 159.2576 159.2576 162.1642 162.1642 162.8950 165.3437 165.3437
   165.6776 166.6911 166.6911 167.8427 171.2603 174.7339 174.7339 175.6657
   175.6657 175.7290 176.2354 176.2354 176.5814 178.4470 178.7788 179.1836
   179.1836 180.9636 180.9636 181.8452 183.8476 183.8476 186.8289 188.5887
   188.5887 189.7964 190.9651 190.9651 192.6331 194.0883 194.0883 195.7562
   195.8451 195.8451 197.7587 197.7587 199.2719 199.4517 201.7180 204.2011
   205.6821 205.6821 212.1970 212.5154 212.5154 214.2293 214.2293 216.6099
   217.0451 217.0451 220.8291 221.3656 221.3656 223.7165 223.7165 226.6278
   228.2361 228.2361 228.6828 230.3090 230.3090 230.9253 233.2245 233.2245
   233.3543 234.5067 234.5067 235.7160 235.7442 235.7442 237.1048 237.1048
   237.3970 238.2193 240.3754 241.3351 241.3351 242.2526 243.6398 243.6434
   243.6434 246.0133 246.0133 250.6972 250.6972 251.5375 254.1855 255.1791
   255.1791 255.6549 256.5738 256.5738 257.9937 259.0727 259.0727 261.8321
   263.1507 263.1507 263.6615 265.7521 265.8676 265.8676 266.2385 267.4997
   267.4997 269.2884 269.9080 269.9080 271.2982 271.5656 271.5656 273.2624
   273.4426 273.4426 274.5461 274.5461 277.1481 277.1481 277.2335 277.6164
   278.9786 278.9786 279.4803 279.8358 280.0817 280.0817 280.4968 284.7493
   284.7872 284.7872 288.2984 288.2984 288.9555 288.9555 289.2965 290.4881
   290.4881 290.7448 291.4570 291.4570 292.3740 294.8104 295.4239 295.4239
   296.2012 296.2012 296.6045 299.0246 299.0246 299.1443 300.4232 300.5188
   300.5188 301.4974 302.4172 302.4172 302.8238 302.8238 303.5673 305.6102
   305.6102 307.3882 307.3882 308.1853 309.5316 309.5316 309.6550 309.9748
   313.0522 315.5938 315.5938 318.8023 319.3613 319.3613 320.4477 320.5607
   320.5607 321.2753 321.7031 321.7031 323.4722 324.7385 324.7385 326.9970
   326.9970 327.0037 327.4233 327.7192 327.7192 328.2500 335.9244 335.9244
   336.7957 338.0235 338.2237 338.2237 339.6261 339.6261 339.9183 343.4458
   343.4458 344.0110 345.1530 345.1530 345.2061 347.9078 347.9078 348.7468
   351.3470 351.3470 351.6743 352.2266 352.2266 352.5525 355.1625 355.1625
   355.7719 356.4332 356.4332 358.0605 361.1147 361.9686 361.9686 364.1003
   364.1003 364.3355 365.5778 365.5778 365.7870 366.1212 366.9150 366.9258
   366.9258 369.3556 369.3556 369.7566 371.0525 371.5266 371.5266 373.0531
   373.0531 373.4647 373.4647 373.6929 375.8264 378.3435 378.3435 378.4098
   379.6584 379.7802 379.7802 381.3422 381.7802 381.7802 383.7905 383.7905
   384.6458 384.6458 386.9757 389.2419 389.2419 390.0365 390.0365 392.5490
   393.0229 393.0229 393.2496 394.2774 395.4106 396.2050 396.2050 400.3191
   401.7783 401.7783 402.0211 402.2875 402.2875 402.3647 403.6674 403.6674
   403.8241 409.1374 409.1374 409.2285 410.7121 410.7121 412.0476 412.0476
   412.2746 413.6899 413.6899 413.9591 413.9591 414.1018 414.2225 415.7848
   416.1173 416.1173 416.6275 417.3482 417.5358 417.5358 417.8165 417.8165
   417.9931 419.1395 419.1395 419.5202 419.9007 419.9007 421.0086 421.8642
   421.8642 423.1945 424.3470 424.3470 425.0306 425.3722 425.3722 426.1383
   426.4184 426.7800 426.7800 428.7763 428.7763 429.0280 430.6187 430.9608
   430.9608 432.2256 432.2256 432.4294 433.1058 433.1058 433.2113 436.0905
   436.2439 436.2439 437.3851 437.3851 437.6668 439.6754 439.6754 440.2992
   441.3058 441.3058 441.4163 443.2090 443.2090 444.2039 445.2067 445.2067
   445.4024 446.6402 446.6402 447.2103 447.8295 448.1471 448.1471 448.7803
   448.9487 448.9487 449.0337 449.2788 449.2788 451.6516 451.8286 451.8286
   452.1738 452.1738 452.3741 456.4833 461.1455 461.4825 461.4825 464.0618
   464.0618 464.9499 465.7643 465.7643 466.7138 467.3247 467.3247 467.7047
   467.7047 467.7540 468.8042 468.8042 469.0199 469.1014 473.8268 474.2235
   474.3494 474.3494 474.8719 474.8719 475.2658 476.5143 476.5143 478.1555
   478.1555 478.4500 479.9305 479.9305 480.0951 480.7026 480.7026 482.3103
   482.6087 482.6087 484.9187 484.9187 486.7725 486.7725 487.6230 488.4666
   488.6896 488.6896 489.6635 489.7468 492.0134 492.0134 494.2661 494.8228
   494.8228 495.2478 495.2975 495.2975 496.3077 496.4571 496.4571 496.4774
   499.4548 499.4548 501.2883 501.2883 501.4026 503.0973 503.0973 503.1818
   504.9415 505.0934 505.0934 506.3135 506.7890 506.7890 507.1442 510.3854
   510.3916 510.3916 511.0998 511.0998 511.3378 513.5908 513.5908 514.3015
   514.8283 514.8283 514.9701 514.9701 515.3330 516.8411 516.8411 517.1300
   520.0298 523.3704 523.3704 525.8236 526.9509 526.9509 528.1271 528.7939
   528.7939 529.4321 530.1083 530.1619 530.1619 530.5202 530.6479 530.6479
   533.1099 533.1099 533.9466 536.2216 536.2216 536.7365 537.4347 537.7069
   537.7069 541.5150 541.5150 541.9538 543.2821 543.5497 543.5497 543.6668
   543.6668 543.9358 544.8860 544.8860 544.9485 545.9110 545.9110 546.2658
   549.2694 549.3730 549.3730 551.0860 551.0860 551.3490 551.5860 551.5860
   551.9162 555.4054 555.4054 555.4465 556.3229 556.3229 556.4548 557.7154
   557.7689 557.7689 559.9826 559.9826 560.0918 561.2313 563.1949 563.1949
   564.8390 565.3656 565.3656 567.2375 567.2376 569.5593 569.6457 569.7342
   569.7342 570.0044 571.2520 572.4851 572.4851 573.6985 573.6985 573.7895
   576.0883 576.0883 576.4733 576.6282 576.6282 578.3983 578.5442 578.5442
   578.8942 579.0764 579.0764 579.7795 580.1602 580.1602 580.2314 580.4650
   582.9612 582.9612 584.3831 584.4100 584.4100 584.8558 584.8558 585.0665
   589.8696 589.8696 590.1672 590.7993 590.7993 591.3147 591.3147 592.1371
   592.1371 592.2240 592.7276 593.3179 593.3179 594.2097 594.2097 594.2427
   594.4682 595.0285 595.0285 595.1251 595.7787 596.1619 596.1619 596.4026
   598.0889 598.0889 599.7436 599.8089 599.8089 600.8390 600.8390 601.7281
   602.5043 602.6590 602.6590 603.5409 603.5409 603.6395 605.8790 605.9106
   605.9106 606.1223 606.3000 606.3000 607.4027 607.4027 607.6389 607.8080
   607.8080 608.5247 609.0347 609.8019 609.8019 610.1548 610.2293 610.2293
   611.2137 611.2137 611.6320 611.7701 612.3381 612.3381 616.0991 616.8202
   616.8202 617.6135 618.2543 618.2543 619.0979 619.9387 619.9387 620.0518
   621.5930 621.5930 622.1162 622.4255 622.6578 622.6578 624.5015 624.5015
   625.0807 626.3496 626.3563 626.3563 629.5122 629.5122 631.1712 631.1725
   631.1725 631.5757 632.4797 632.4797 633.5998 633.5998 634.5667 636.5478
   636.5478 637.3595 637.3608 638.1484 638.1484 638.3149 638.6279 638.6279
   639.2127 639.2127 639.3945 639.7416 639.7416 640.2373 641.6866 641.6866
   641.7548 641.9530 642.1952 642.1952 642.6835 648.2119 648.2119 648.2249
   649.5882 649.5882 649.6913 651.0809 651.0809 652.3314 652.5584 652.5584
   653.2075 654.3995 654.3995 654.7207 656.3227 656.8972 656.8972 658.4428
   658.4428 658.5612 660.4674 660.4674 660.7662 663.6534 663.6534 663.8536
   664.3014 664.3014 664.3339 665.1239 665.4856 665.4856 666.5625 667.4002
   667.4002 669.2122 669.2122 669.2731 669.3891 669.3891 669.5098 670.5530
   670.6659 670.6659 672.0041 672.0041 672.0655 673.5855 673.5855 673.9639
   674.3919 675.2452 675.2452 677.0762 677.0762 677.1131 678.5726 679.1794
   679.1794 680.5454 680.5454 680.7976 681.5511 681.5511 681.6017 681.9092
   683.9502 683.9502 683.9772 684.6468 684.6468 684.7064 685.8692 685.8692
   685.9585 685.9585 685.9736 686.8710 686.9101 686.9101 688.8197 688.8197
   688.9435 689.0348 689.0348 689.1008 690.3717 692.3312 692.3312 695.1194
   696.7432 696.7432 696.8233 697.3294 697.3294 697.3648 699.3083 699.4386
   699.4386 699.6910 700.2594 700.2594 700.9489 700.9489 701.0814 702.7513
   702.7513 704.5374 708.5698 708.5698 708.7612 708.7612 708.7781 710.2247
   711.5008 712.3007 712.3007 713.4264 713.4264 713.6889 715.3647 715.3647
   716.9019 716.9019 717.1936 717.3658 717.3658 717.4245 718.8235 718.8235
   718.9921 718.9921 719.1623 719.5533 722.1447 722.1447 722.2096 727.0902
   727.0902 727.9349 730.4876 730.5392 730.5392 733.8104 733.8104 733.8849
   735.5230 735.5230 735.5575 735.7787 735.7787 737.5284 739.2031 739.2767
   739.2767 740.0875 740.0875 740.4525 740.4525 740.4705 740.8742 742.0296
   742.5853 742.5853 743.1559 743.5816 743.5816 744.4623 745.7875 746.2979
   746.2979 746.9198 746.9198 747.4049 749.0501 749.0501 749.3691 752.3071
   752.3071 752.3547 753.8162 753.8162 754.6065 755.4908 755.4908 755.7605
   756.2146 756.2146 756.4706 756.4706 757.0847 757.2032 757.2032 757.7889
   757.9338 757.9338 758.3286 758.7765 760.4759 760.4759 761.6237 761.7170
   761.7170 763.0419 763.0419 763.5844 765.1416 765.1416 765.7764 766.5689
   766.5689 766.8799 768.0614 768.0614 768.1639 768.4201 769.1161 769.8731
   769.8731 770.1580 770.1580 771.6590 771.6590 772.0633 772.7063 772.8510
   772.8510 773.2884 773.8590 773.8590 777.3809 777.5252 777.5252 778.0186
   780.0378 780.0378 780.0952 780.7563 780.7563 780.8197 781.4967 781.4967
   781.6246 781.6687 781.7130 781.7130 783.0676 783.2429 783.2429 783.3681
   783.3681 783.4406 786.0469 786.0469 786.4520 787.6334 787.6334 787.6525
   787.6861 787.6890 787.6890 788.0741 788.5968 788.5968 789.5150 789.5150
   789.9077 792.5244 792.7504 792.7504 794.0334 794.0334 794.3732 794.4295
   794.4295 794.6317 796.9389 796.9389 797.1372 797.4760 797.4760 797.5586
   797.6928 797.6928 797.8616 801.7587 801.9008 801.9008 806.0162 806.0162
   806.1793 807.6635 807.6635 807.7043 807.8233 807.8233 807.8914 808.2695
   810.1499 810.1499 810.4212 811.4538 811.4538 811.8594 811.8594 811.9219
   812.4102 812.4116 812.4116 813.0909 813.0909 813.2242 813.4489 813.5832
   813.5832 814.2722 814.2722 814.3348 815.1033 815.7000 815.7000 819.0691
   819.0691 819.5115 820.5823 821.1086 821.1086 821.6337 821.7930 822.1748
   822.1748 822.2840 822.3073 822.3073 823.6886 823.6886 823.9178 825.0917
   825.0917 826.7011 828.4745 828.4745 829.1521 829.2105 829.2105 829.3002
   829.3002 829.4292 830.4345 830.4861 830.4861 830.7263 830.7263 830.8868
   831.3785 831.3785 831.4576 831.5313 831.5313 831.6199 834.0170 835.2215
   835.2215 835.7288 835.7288 836.7836 837.1904 838.2720 841.0950 841.0950
   841.6179 841.6561 842.0263 842.0263 842.1068 842.1068 845.4437 845.4437
   845.5171 846.0484 846.0484 847.4600 847.7710 847.7710 849.2222 849.2222
   849.8311 849.8311 849.8386 850.3723 851.6529 851.6529 851.6814 851.8808
   851.8808 852.1255 852.7556 853.0147 853.0147 853.1118 853.1118 853.2954

          k =-0.3750 0.3750-0.3750 (  2428 PWs)   bands (ev):

    -3.3410   2.4817   8.5668   8.5668  15.1102  17.0208  17.0208  19.5197
    24.5918  24.5918  25.0548  32.0224  32.0224  32.4434  38.2362  40.0807
    40.0807  44.1511  45.9619  45.9619  48.7458  52.7936  52.7937  55.5534
    55.5534  59.2066  59.4068  64.1776  64.1776  64.3449  65.3934  65.3934
    68.8289  70.2098  74.3762  74.3762  74.7711  76.6944  76.6944  78.1517
    79.4073  80.2493  80.2493  83.9300  87.4073  87.4073  89.9613  90.7530
    90.7530  96.0158  97.1095  97.1095  98.5073  98.5073 100.0211 100.0211
   100.2558 101.7886 103.1074 105.3322 105.3322 105.5172 107.8704 107.8704
   112.3499 112.3499 112.5994 114.5444 114.5444 119.5138 120.6637 122.2612
   122.2612 122.8203 125.5151 125.5151 125.7431 127.4431 127.4432 128.0802
   132.5644 132.5644 133.2356 137.5420 137.5420 141.6067 141.7560 141.7560
   142.8036 143.4866 143.4866 145.0396 146.8257 146.8257 148.1398 149.9593
   149.9593 152.7726 153.6257 153.6257 153.8073 154.1723 158.9648 158.9648
   161.1895 161.2918 161.2918 161.9566 164.1359 165.7335 165.7335 165.9336
   165.9336 166.8727 168.3044 168.3044 168.4668 169.9199 173.5045 173.5045
   176.7664 176.7664 177.5486 179.9488 179.9488 180.9417 181.3472 181.3472
   181.7472 181.7472 181.9132 183.7167 187.7950 188.5588 188.5588 189.1743
   189.1743 189.8587 191.6179 191.6179 192.4293 192.7973 193.4733 193.4733
   194.7107 195.2128 195.2128 198.8354 200.7603 200.7603 207.1564 207.1564
   208.7770 208.8035 208.8035 208.9524 217.3382 217.3382 217.4638 220.2974
   220.2974 221.1170 221.9068 221.9211 222.3455 222.3455 223.8597 223.8597
   225.0072 226.5247 226.5247 227.8813 227.8813 228.6304 229.9550 230.0879
   230.0879 233.2636 233.2636 234.9672 235.8491 235.8491 237.4418 237.4418
   237.4730 237.5239 239.8855 239.8855 241.0597 241.0597 241.5683 242.3649
   242.8490 242.8490 245.5883 249.1115 249.2180 249.2180 250.8360 250.8360
   252.5961 252.5961 252.8246 253.1762 256.1180 256.1180 256.8854 259.7875
   260.8473 260.8473 261.3688 261.3688 261.4592 262.8111 265.4107 266.1183
   266.1183 266.8911 267.3026 267.6800 267.6800 269.2171 269.2171 269.9014
   269.9014 270.2995 274.5076 274.5076 275.5749 276.4215 276.4215 278.9129
   281.0781 281.1503 281.1503 282.0264 283.3758 283.3758 284.0496 284.0496
   284.6145 284.6145 285.0076 285.4108 286.5527 286.5527 289.0734 289.9111
   289.9111 290.5104 292.5249 292.6476 292.6476 294.0176 294.0176 295.3808
   296.8070 296.8070 297.0736 299.6626 300.4150 300.4150 301.1330 303.2320
   303.2320 303.9164 307.7395 307.7395 310.1821 310.1821 310.5081 311.8365
   311.8365 312.2791 312.9202 314.7391 314.7684 315.1500 315.1500 318.5950
   318.5950 319.0183 320.6106 320.6106 321.3934 321.3934 321.4956 323.7300
   323.7300 324.6686 325.2809 325.2809 326.3838 326.7852 326.7852 329.0343
   329.2434 330.8638 330.8638 333.8296 334.7340 334.7340 336.8194 336.8194
   337.2652 337.4311 339.4978 339.4978 340.9570 340.9570 341.2781 343.0144
   343.0144 343.0845 345.8997 345.8997 348.0946 348.0946 348.1986 348.7305
   350.2180 351.9109 351.9109 352.4338 352.8878 352.8878 353.8026 353.8026
   354.4448 354.7689 354.9161 354.9161 356.7673 356.7718 356.7718 358.9533
   359.0405 359.0405 359.3082 360.8315 360.8316 360.9155 361.9814 361.9815
   363.9504 363.9504 364.1955 366.2971 366.2971 368.2666 368.2666 368.3034
   370.7856 374.9190 375.3670 375.3670 376.7086 376.7847 376.7847 378.5399
   378.6846 378.6846 379.4665 380.1973 380.1973 380.5604 381.4680 381.4680
   382.7515 385.6389 387.6066 387.6066 388.1419 388.1419 389.4860 390.0042
   390.0042 392.9414 393.3784 393.3784 393.9210 393.9210 394.0108 394.3017
   395.3021 395.3021 396.6148 396.6148 397.3095 399.4633 399.4633 399.6738
   402.1820 402.7812 402.7812 403.7312 403.7425 403.7425 403.9841 406.6825
   406.6825 406.9855 407.1609 407.1609 408.2058 408.2058 408.6720 409.6130
   409.6130 410.6500 412.6923 412.6923 412.9142 416.8807 416.8807 417.1008
   419.0063 419.0064 419.5429 419.5429 419.5457 419.6461 423.3078 423.3078
   423.9201 426.4193 426.4193 426.8612 429.2808 429.4004 429.4004 431.1686
   432.0489 432.0489 432.7932 432.8995 432.8995 433.3550 434.4997 434.5833
   434.5833 437.4433 437.5111 437.5851 437.5851 438.1110 438.1110 438.8698
   438.8698 439.2686 440.7941 440.7941 441.6188 441.6188 442.1786 442.3754
   442.8901 442.8901 443.2603 443.7508 443.7508 444.2719 448.1484 448.1513
   448.3615 448.3615 448.7357 448.7357 448.9306 450.4137 450.4137 451.2251
   451.9836 451.9836 452.6360 453.4041 453.4341 453.4341 455.4736 455.4736
   457.7561 457.8194 457.8194 458.2302 458.4334 458.4334 465.9421 466.0390
   466.0390 466.9263 466.9263 467.2613 470.3830 470.8469 470.8469 472.4313
   472.4313 473.4783 473.4783 474.0988 474.7551 475.1753 475.1876 475.1876
   476.4345 477.6521 477.6521 479.1174 479.8081 479.8081 480.2877 480.2877
   480.5044 481.6309 482.0762 482.0762 482.1685 482.3956 482.3956 482.9871
   482.9871 483.1476 485.9963 485.9963 486.3953 489.3252 489.6753 489.6753
   491.3262 491.7249 491.7249 491.8817 491.8817 491.9719 492.9115 492.9115
   493.1622 493.3503 493.3503 493.6033 493.9919 495.7692 500.2279 500.2734
   500.2734 500.5985 500.5985 500.6659 501.1024 501.1024 501.1650 501.4961
   501.4961 504.3010 504.3010 504.3828 510.1225 510.1225 511.6860 511.6860
   512.2849 512.7074 512.7074 512.8921 513.2303 514.7307 515.0403 515.0403
   515.5409 515.5409 515.7286 516.0100 516.0100 516.1597 516.1597 516.2063
   516.4002 516.7410 516.7410 516.8381 517.5764 518.3586 518.3586 518.6001
   518.9093 518.9093 520.9496 524.1500 524.1500 524.9630 524.9630 525.0340
   530.3298 530.3298 530.7986 530.7986 530.8286 531.6866 532.6432 536.8313
   536.8313 537.9015 538.6634 538.6634 539.1331 542.0433 542.0433 542.4357
   542.4357 542.4685 544.8264 546.1441 546.1441 546.5497 549.9776 549.9776
   550.3049 550.7717 550.7717 551.7177 552.4166 552.4166 553.7737 553.7737
   554.8813 556.5381 556.5381 556.6966 556.9594 556.9594 557.0587 557.5004
   558.2276 558.2276 558.9062 558.9062 560.1151 563.1720 563.8120 563.8120
   564.0655 564.0655 565.7321 565.7321 566.6403 567.8049 568.1936 568.1936
   568.1972 569.0698 570.2437 570.2437 571.2998 571.5238 571.7592 571.7592
   573.8626 573.8626 574.2746 574.2746 574.3092 578.1220 578.1220 578.9438
   579.6237 579.6237 579.8251 580.1206 580.1206 580.5097 582.5565 582.9879
   582.9879 583.4013 583.6117 583.6117 583.9404 583.9404 584.1352 584.6122
   584.9624 584.9624 586.6886 587.4312 587.5124 587.5124 587.6975 587.6975
   589.2290 590.7699 590.7699 592.0393 593.4191 594.7433 595.0119 595.0119
   595.2471 595.2471 595.2756 595.9166 595.9166 596.3136 596.3619 596.3619
   596.3754 598.6903 598.6903 599.5906 599.5906 599.8078 599.8078 600.5241
   600.5241 600.8140 600.9696 601.5434 601.5434 601.7343 601.8595 602.4024
   602.4024 603.7677 603.7677 604.3501 605.0030 605.4225 605.4225 605.9332
   605.9332 606.1148 606.4992 607.9977 607.9977 610.0213 610.4606 610.4606
   610.5107 610.5107 610.5717 610.9008 612.5005 612.6297 612.6297 613.3975
   613.3975 613.6025 616.1123 616.1123 616.6336 617.1534 617.1534 617.2869
   617.3225 617.4992 617.4992 619.8273 619.8273 624.1108 624.6620 624.6620
   625.8363 625.8363 626.5718 627.9734 627.9734 628.0860 631.6060 632.8506
   632.8506 635.2110 635.2110 635.4841 636.3925 636.3925 637.2426 638.0965
   638.0965 638.4090 639.9682 640.5719 640.5719 640.7180 641.3657 641.3657
   642.6418 642.8083 642.8083 647.1491 647.1491 647.2151 647.2814 647.7814
   647.7814 648.6707 648.6707 648.7090 649.4845 649.4845 649.4889 650.7082
   650.7082 651.0831 652.0830 652.0830 652.1043 652.2354 654.8109 654.8109
   654.9775 655.0841 655.0841 655.8004 656.3131 656.3131 658.4209 659.6833
   659.6833 660.7311 661.0248 661.0248 661.5806 661.5806 661.6607 662.6198
   662.6198 663.8756 667.1097 667.1097 667.3995 667.6633 668.7728 668.7728
   669.3110 670.7234 670.7234 670.8139 672.5293 672.7079 672.7079 672.9888
   673.7742 673.7742 673.8988 674.5207 674.5207 674.8318 675.7499 675.7499
   676.0168 676.2647 676.2647 676.9704 677.3994 677.3994 677.6387 680.6798
   680.6798 681.2664 681.2664 681.6331 681.6872 681.6872 682.4594 687.1487
   688.3406 688.3406 688.7561 688.8142 688.8142 689.3279 689.3279 689.4510
   690.9126 691.1456 691.1456 694.2164 694.2165 694.6201 695.2298 695.2298
   695.3678 696.3934 696.6020 696.6020 698.2139 698.2139 699.3837 700.1049
   701.0656 701.0656 701.4072 701.4072 701.5934 702.4169 702.4295 702.4295
   702.9376 702.9376 702.9453 705.0361 705.0361 705.0385 706.4037 706.5007
   706.5007 708.4532 708.4532 708.7350 708.9409 709.0712 709.0712 709.5306
   709.5306 709.9535 714.1249 715.7477 715.7477 716.3862 716.7107 716.7107
   718.5102 718.5102 718.5127 720.2704 720.2704 720.5435 721.0716 721.3217
   721.3217 721.9312 721.9312 722.2464 723.8510 723.8510 724.1352 724.5063
   724.6999 724.6999 725.4525 726.2559 726.4199 726.4199 729.4169 729.4169
   730.1823 730.1823 730.4117 734.9651 738.0155 738.0155 738.9430 739.2948
   739.2948 739.4922 739.4922 739.6061 739.8889 739.8889 740.0084 740.3130
   740.3752 740.3752 741.4907 741.4907 741.7032 742.1422 742.2582 742.4793
   742.4793 745.0428 745.6707 745.6707 746.8030 746.8508 746.8508 747.5201
   747.5616 747.5616 747.8070 747.8354 747.8354 749.0998 749.0998 749.1525
   749.1525 749.7174 749.7174 749.7438 750.0626 750.1632 752.2833 752.3220
   752.3220 753.5656 753.5656 754.1570 754.1570 754.1839 754.8611 755.4652
   755.4652 755.4752 757.6488 757.6488 758.0988 758.1724 758.1724 758.3546
   761.9550 761.9550 762.4180 763.2653 763.3737 763.3737 763.7615 764.3338
   764.3338 765.5531 765.5531 766.0810 767.2096 767.3419 767.3419 767.7097
   767.7097 767.9653 771.0836 771.0836 772.8687 773.1037 773.1037 773.8970
   774.1102 774.1102 774.1129 776.3058 777.2568 777.2568 777.5950 779.5028
   779.5028 779.5186 780.4902 780.4902 780.5472 783.2024 783.2024 783.7337
   783.8262 783.8262 783.8336 785.8691 787.3020 787.3020 788.5959 788.8825
   788.8825 789.2406 789.8805 789.8805 789.9547 790.0018 790.0018 790.4332
   790.4332 791.6304 792.1879 792.1879 792.1923 792.5526 792.5891 792.5891
   792.8145 792.8145 794.9607 794.9607 795.2880 795.6212 795.6212 795.6426
   798.6201 798.6201 798.7001 798.7977 798.8688 798.8688 799.9588 799.9588
   800.1897 800.3524 800.3524 800.4275 802.6814 802.6814 803.8786 804.9675
   808.6700 808.6700 809.4383 809.4383 810.2932 811.1592 811.1592 811.3823
   812.0826 812.2916 812.2916 812.6138 812.6138 812.7903 812.7903 813.5956
   814.0617 814.1932 814.1932 814.3322 814.5572 814.5572 814.9119 816.1229
   816.1229 816.2284 816.2696 816.3748 816.3748 817.4494 817.4494 817.4615
   823.7391 823.7391 823.8028 825.7838 825.7838 826.2576 826.6011 826.6204
   826.6204 827.4635 827.4687 827.4687 827.5483 827.5483 827.5580 827.7278
   828.6524 828.6524 829.3824 829.3824 829.5402 830.4895 830.6151 830.6151
   831.3772 831.3772 831.4957 834.3467 834.7027 834.7027 836.5005 836.5005
   836.6973 839.6086 839.6760 839.6760 840.1152 840.1152 840.1240 840.4688
   842.1763 842.9874 842.9874 843.5665 843.5665 844.0037 845.4489 845.4489
   845.7461 846.2650 846.2650 848.0559 850.5921 850.5921 851.2680 853.2205
   853.2353 853.2353 856.1462 856.1901 856.1901 857.4957 857.4957 857.5017
   857.8447 858.2072 858.2072 859.1894 859.1894 859.3306 859.3306 859.6599

          k = 0.5000-0.5000 0.5000 (  2452 PWs)   bands (ev):

    -2.3203   0.9734   8.4494   8.4494  14.9656  16.7641  16.7641  19.5497
    25.7134  26.6964  26.6964  29.8012  29.8012  32.0827  41.8025  42.2159
    42.3773  42.3774  45.5346  45.5346  51.1583  51.1583  51.4368  53.4135
    54.3090  54.3090  60.1208  63.8175  63.8175  64.4183  64.4183  65.0718
    67.3824  69.7823  74.2323  74.7594  74.7594  76.4067  76.4067  78.2119
    79.4579  84.1689  84.9519  84.9519  89.7668  89.7668  91.4277  91.4277
    91.5240  93.6903  93.6903  94.6602  98.3787  98.3787  98.7640 101.1719
   101.1719 104.4809 105.2257 105.2257 107.4773 107.4773 111.2364 111.7384
   111.8802 112.3169 113.8832 113.8832 114.2610 114.2610 115.1265 119.2953
   122.7176 123.4759 123.4759 124.4777 124.4777 125.3529 125.3529 127.0897
   127.0897 132.9937 133.9901 133.9901 138.1119 139.5199 142.0847 142.0847
   143.1018 144.9449 146.2670 146.2670 146.7462 148.4501 148.4501 151.7859
   151.7859 153.1855 153.9490 153.9843 153.9843 155.5456 157.0988 157.0988
   157.2100 157.4091 157.4091 158.0222 164.9128 165.6411 165.6411 168.5444
   168.5444 172.2533 172.7952 172.7952 173.9412 174.0054 174.0054 174.4862
   174.7041 175.0964 177.0679 177.0679 177.9527 177.9527 178.9952 180.1423
   180.1423 181.5755 181.6376 181.6376 182.7625 188.2331 188.2331 189.6291
   190.8025 190.8025 191.6858 195.0115 195.0115 195.1541 195.1541 198.7390
   202.9262 202.9262 203.0651 203.0651 203.8929 206.8049 206.8515 206.9556
   209.5362 209.5362 210.1902 210.4277 210.4277 210.4503 210.4503 211.0028
   211.0028 216.9264 216.9264 217.8229 217.8229 217.9770 218.7734 219.8623
   227.2127 227.2127 230.4659 230.4659 230.7341 231.6923 232.1845 232.7169
   232.7169 233.9055 233.9055 234.0959 235.3134 235.3134 236.6808 237.1805
   237.7651 238.1034 238.1034 244.0012 244.0732 244.0732 244.9796 244.9796
   246.8146 248.7692 248.7692 249.2322 251.1601 251.1601 251.2759 251.2759
   251.6059 251.6059 252.1826 252.8846 252.8846 253.0949 253.0949 253.2865
   253.5668 257.4941 259.4899 259.4899 260.3553 261.0086 261.0086 262.4440
   263.1076 266.3189 266.4128 266.4128 266.6950 266.6950 267.6701 267.6701
   269.2019 269.2019 269.7771 270.5399 276.4775 276.4775 278.9861 279.2580
   279.2580 279.6108 280.5283 282.3948 283.9169 283.9169 284.8253 284.9566
   284.9566 285.8400 285.9190 285.9190 286.1972 287.6174 287.6174 291.4789
   291.4789 291.6609 292.2324 292.4270 292.4270 293.5594 297.2557 297.6303
   297.6303 299.7612 299.7612 302.7020 303.2611 303.8044 303.8044 303.9369
   303.9369 304.0601 304.2234 304.2234 304.3550 304.4745 304.4745 304.5846
   310.6901 317.6367 317.6367 319.3638 319.3638 321.7179 322.8291 322.8291
   323.8393 323.8393 324.7602 325.5811 326.0656 326.0656 326.2677 326.2677
   327.6049 329.7718 330.6946 330.6946 330.7279 331.0953 331.1228 331.4018
   331.4018 332.8839 334.1620 334.1620 334.1765 335.1819 335.1819 337.9059
   338.2881 338.2881 339.1832 339.1832 341.1280 341.4824 341.4824 341.9719
   341.9719 343.2383 343.4216 343.4216 344.2648 344.2648 344.6437 347.0703
   347.0703 347.0820 347.1552 347.1552 347.4296 347.7582 348.2479 348.2479
   348.3665 348.3665 349.8065 349.8235 353.8101 356.9517 358.3680 358.3680
   360.2398 360.3214 360.3214 362.2495 365.0022 365.0022 365.1410 365.1410
   367.1240 367.1241 367.6564 368.3582 368.3582 370.2398 372.7829 372.7829
   372.8906 373.0814 373.0814 373.7492 374.9187 374.9187 375.6386 375.6399
   376.0243 376.0243 378.5120 378.5120 379.6143 379.6220 379.6220 379.7936
   380.5068 380.5068 380.7640 380.7640 380.8007 381.2016 387.5337 387.5337
   389.4985 392.2053 392.2053 392.7554 392.9810 392.9810 393.2099 393.2099
   393.5487 393.5487 393.6642 394.0176 394.0646 394.0646 394.4396 395.1606
   401.8243 401.8243 403.7413 404.0683 404.0683 404.8151 405.8020 406.5501
   406.5501 406.7773 407.9220 407.9220 409.1015 409.2903 409.7120 410.1678
   410.1678 410.5545 410.5545 411.1348 417.8559 417.8559 418.1903 418.1903
   421.6671 421.6671 421.8296 423.3547 423.8531 423.8531 425.1544 425.1544
   425.1613 425.2717 426.0363 426.0363 426.4225 426.4817 427.1771 427.1771
   428.2399 429.3172 429.3172 430.5776 430.7080 430.7080 430.7359 430.7359
   437.4011 437.4011 437.4943 438.1986 438.3643 438.3643 438.5624 438.6473
   438.6473 439.3984 439.3984 439.8526 441.1175 441.1175 442.9084 442.9084
   443.0264 443.1374 446.7235 446.9657 446.9657 447.2609 447.3204 447.3204
   447.5198 450.0302 450.0302 450.8360 450.8360 451.0928 455.7594 456.5611
   456.5611 456.6038 456.6038 458.2677 458.3583 459.4864 459.5054 459.5054
   460.5472 460.5472 464.3198 464.6908 464.6908 467.1748 467.2434 467.2434
   467.9545 468.5022 468.5022 468.5836 468.5836 468.7307 468.7864 469.9465
   471.3602 471.3602 471.5530 471.5530 472.2495 472.4757 475.9555 476.6968
   476.6968 477.9680 477.9680 478.3113 480.6919 480.6919 482.5778 482.7250
   482.7250 483.4450 484.5899 484.7315 484.8381 484.8381 484.9396 484.9396
   489.0454 489.0454 489.1012 489.1012 489.3408 489.3807 490.7618 490.7974
   490.7974 490.9776 490.9776 491.0861 491.6774 491.6774 491.8043 491.8043
   491.8135 491.9095 492.9722 494.2201 494.3419 494.3419 494.5591 494.5591
   496.8546 497.3578 497.3578 497.9873 497.9873 498.0803 500.8928 500.8928
   502.0546 502.0546 502.6330 502.6872 502.6954 503.4041 503.5715 503.5715
   504.0075 504.0075 506.2297 506.2297 506.3243 506.3243 506.4906 506.5630
   514.5681 514.5681 515.4221 515.5616 515.5616 515.5715 516.3590 519.8696
   520.4434 520.4434 521.1023 521.1023 521.2646 521.3641 526.7762 526.7762
   527.1917 527.1917 532.4672 532.4672 534.0487 534.6214 534.6214 534.6452
   534.6452 535.0594 535.3613 535.3613 535.4427 535.7923 535.7955 535.8076
   535.9869 535.9869 536.0796 536.0796 537.8641 537.8641 537.8725 537.8725
   539.8520 539.8535 542.6049 545.1265 545.1265 547.1013 547.8003 548.0467
   548.0467 548.9007 548.9007 549.0169 549.0169 549.1167 550.7354 551.3145
   551.3145 552.3800 552.3800 553.5332 554.9234 554.9234 554.9557 554.9557
   555.2839 555.2924 559.5367 560.5160 560.5160 560.7364 564.3739 564.7047
   564.7047 564.7241 565.1295 565.1295 566.6231 566.7411 566.7411 566.9739
   569.6639 570.5240 570.5240 570.7058 570.7058 570.7718 570.7718 571.9441
   572.0721 572.0721 574.2489 574.2489 575.0209 575.0209 575.3389 576.3511
   577.2916 577.5003 578.4147 578.4147 579.2370 579.2370 579.9996 579.9996
   580.2702 580.2982 580.4730 580.4730 583.1686 583.2899 583.2899 583.3829
   583.3829 583.6052 584.7029 584.7029 585.3992 585.4387 585.4387 586.1931
   586.2474 586.3864 586.3864 586.4431 586.9892 586.9892 589.3699 589.3699
   589.4672 589.4672 589.4839 589.5333 594.1635 594.1635 595.5948 596.0649
   596.0649 596.2125 599.4022 599.5754 599.5754 600.0791 600.0791 600.7899
   600.8556 601.4658 601.4658 601.8631 601.8631 602.0787 606.7450 606.8201
   606.8201 608.0733 608.3677 608.3677 608.5436 609.5356 609.5896 609.5896
   609.7313 609.7313 609.8002 609.8426 609.8426 609.9309 610.1113 610.1113
   615.8116 615.8116 617.0067 617.5371 617.5371 617.5671 617.5671 617.6494
   617.6710 617.8939 618.4151 618.4151 619.4037 619.5981 619.5981 619.8613
   619.8613 620.0152 621.1493 623.0732 625.8779 625.8779 626.7855 626.8422
   626.8422 627.9171 627.9171 628.5606 628.6698 628.6698 629.4958 629.7648
   629.7648 629.9659 629.9895 629.9895 630.3745 630.3986 630.4709 630.4709
   630.5453 630.5453 637.1972 637.2511 637.2511 638.2065 638.2494 638.2494
   638.3293 639.8710 647.8255 647.8255 647.8455 647.9185 647.9185 647.9645
   649.0392 649.0392 649.3160 649.3160 649.3566 650.7645 650.8907 650.8907
   651.0570 651.0570 655.7056 655.7056 658.5893 659.3615 659.4886 659.4886
   660.0524 661.0954 661.0954 661.5274 661.5274 661.6763 661.9219 661.9219
   661.9690 661.9690 662.1245 662.3728 662.4303 662.4865 662.5700 662.5700
   662.5787 662.5787 664.4387 665.7286 665.7286 665.9208 665.9208 665.9362
   665.9970 666.1164 666.1164 667.2939 667.2939 667.4592 673.2193 673.2193
   674.4823 674.7730 674.7730 674.7999 679.3533 679.3674 679.4251 679.4251
   679.4506 679.4506 681.3601 681.3601 681.4344 681.4431 681.4431 681.4936
   682.4575 683.5417 683.5417 684.3014 684.3162 684.3162 686.1076 687.2350
   687.2350 687.5063 687.8663 687.8663 688.8364 688.8364 689.2305 689.4049
   689.4304 689.4304 689.8986 689.8986 689.9549 689.9852 689.9852 690.1242
   695.3935 695.3935 695.4289 695.4289 695.9870 695.9908 701.3652 704.3360
   704.3360 705.2009 705.8863 706.1432 706.2220 706.2220 708.1510 708.1510
   709.6129 709.6129 709.9024 709.9269 709.9306 710.1837 710.1837 710.5380
   710.7168 710.7168 711.5289 711.5289 711.6332 711.6332 712.9824 713.3302
   714.7264 714.7264 715.2618 716.6300 716.7209 716.7209 719.3230 719.3230
   719.7322 719.8513 719.8513 720.3043 721.7713 721.7713 722.2598 722.2598
   722.6289 722.7634 724.0217 724.0467 725.1431 725.1431 725.2077 725.2242
   725.2242 726.0264 726.0264 726.4614 726.4614 726.5074 727.5702 727.5702
   727.5994 727.5994 727.9558 727.9684 729.2056 729.2056 729.2174 729.2174
   729.2498 729.2771 729.2871 729.2871 729.3516 729.3516 729.4060 729.4430
   737.9109 738.8136 738.8136 740.3373 740.3673 740.3673 742.3010 742.3010
   742.5927 742.5927 743.1303 743.1422 743.1815 743.3402 743.7564 743.7564
   743.8094 743.8094 745.3019 745.3019 746.5218 747.1277 747.1277 747.3015
   753.4193 753.4873 753.4873 754.7715 754.7715 754.8258 754.9902 755.3277
   755.3277 756.1322 756.3417 756.7206 756.7206 757.7000 757.9513 758.1089
   758.1089 758.1626 758.1626 758.2880 760.1148 760.1148 760.2459 760.7220
   760.7220 760.9045 761.0038 761.0038 761.1146 761.1146 762.2564 762.3762
   762.3762 762.5261 762.5261 762.9245 768.8432 768.8432 769.6267 770.6913
   770.6913 770.7081 770.7081 771.8696 771.8696 772.0438 772.1013 772.3851
   772.4109 772.4109 772.7833 772.8130 772.8130 773.3136 773.4300 773.4545
   773.5731 773.5731 774.0894 774.0916 774.0916 774.2405 777.0344 777.0344
   777.1202 777.1202 780.4759 780.4759 780.4765 780.4765 781.5796 781.5801
   784.4397 784.4397 785.5361 785.5637 785.5637 785.6786 789.1790 789.2010
   789.2138 789.2138 789.2230 789.2230 797.3670 797.3670 799.9279 801.1525
   801.3499 801.3499 802.7762 802.9933 802.9933 803.6155 803.6155 803.6219
   803.8374 803.9887 803.9887 804.0566 804.0566 804.1566 804.6457 804.7263
   804.7968 804.7968 804.8365 804.8365 805.2035 805.3816 805.3816 805.7963
   805.7963 806.1687 806.7900 807.0277 807.0277 807.3247 807.3247 807.4774
   809.1758 812.0351 812.0351 812.5126 814.0963 814.1482 814.1482 814.3678
   814.6719 815.5030 815.5030 815.5749 815.5749 815.6942 815.6973 815.7087
   815.7087 815.9577 816.0304 816.0304 816.5302 816.5302 816.7625 816.7625
   817.1432 817.3569 817.5314 817.7311 817.8160 817.8160 817.9071 817.9071
   823.7933 823.7933 823.8407 823.8407 824.1783 824.1896 824.3642 824.3642
   824.4259 824.4259 825.1461 825.1461 825.6861 825.7723 825.7723 825.8203
   826.2371 826.2908 826.2908 826.3791 826.3791 826.4258 833.1516 833.1516
   833.3727 834.2477 834.2477 834.3374 840.3602 840.3602 840.4059 840.4289
   840.4289 840.4409 847.4318 847.4318 847.9004 848.8444 848.8444 848.8777
   848.9067 848.9067 849.0555 849.0808 849.0834 849.0834 851.9295 851.9764
   851.9764 852.8972 852.8972 852.9334 853.0396 853.0396 853.1001 853.1001
   853.1119 853.1737 863.2179 863.2179 864.1150 864.9806 864.9806 865.1256

          k = 0.0000 0.2500 0.0000 (  2421 PWs)   bands (ev):

    -5.4894   8.3794   8.7979   8.7979  15.7378  16.7543  17.9192  17.9192
    20.9821  24.4264  27.5412  27.5834  27.5834  29.0698  35.4312  41.4326
    41.4326  42.9771  47.5387  49.8084  49.8084  50.4290  53.7067  59.9088
    59.9088  62.0627  63.9123  67.2443  67.2443  68.1517  69.6886  70.8920
    71.6070  71.8665  71.8665  75.7208  75.7208  76.2795  77.0219  78.7852
    78.7852  79.3155  80.9918  83.4591  83.4591  83.6946  83.9458  85.3813
    85.5745  85.9126  85.9126  86.7404  90.1077  91.3001  91.3001  96.4664
    97.9649  97.9649  98.6883 102.9574 108.4239 111.5615 111.5615 114.6410
   115.9780 116.7367 116.7367 119.0271 122.1777 123.8577 123.8577 124.6828
   127.4264 127.7664 127.7664 130.5966 131.9534 133.9145 133.9145 134.7247
   136.9970 137.7495 138.6280 138.6280 139.4610 140.3300 140.3300 141.2659
   143.5597 144.0189 144.0189 145.3476 146.1498 148.3509 149.3066 149.3066
   152.0070 152.5663 152.5680 152.5680 153.6340 155.2447 155.2447 155.5818
   155.5933 157.6056 157.6056 158.8621 161.0573 161.5125 162.2988 162.2988
   163.1229 165.0807 167.7635 167.7635 169.1926 169.1926 170.2686 170.7680
   171.5033 171.6143 174.2393 174.2393 176.0143 177.7730 177.9133 177.9133
   181.3323 181.9292 186.2998 187.6155 187.6155 187.8416 189.6533 189.6533
   190.4658 191.3614 191.3614 191.7191 193.1384 195.6833 195.6833 196.0132
   196.9636 197.6431 197.6431 198.3920 198.6266 200.7837 200.7837 202.3001
   205.2850 208.4417 208.4417 209.2661 209.7722 210.3433 210.3433 211.2002
   212.7622 214.9295 216.2913 216.2913 216.7443 218.0772 218.6162 218.6162
   219.1967 221.3317 223.1533 227.6934 227.6934 231.1725 231.1725 233.3000
   234.4237 234.6064 234.6064 237.6144 241.9232 243.3913 246.1372 246.1372
   246.5837 248.9325 248.9325 249.3697 249.4585 249.4585 249.9277 250.7478
   251.3253 252.9937 253.4750 253.4750 254.4112 256.3460 256.6151 256.6151
   257.1008 258.0870 259.8919 259.8919 260.2183 262.5978 262.9102 262.9102
   264.3014 264.9401 265.3315 265.3315 265.5814 266.1195 266.5712 266.5712
   267.0842 268.5246 268.7930 269.3148 269.3148 271.8381 272.4565 272.7907
   272.7907 273.2986 273.8655 273.8655 274.2318 275.9935 276.6163 276.6163
   277.2847 277.5090 277.9479 278.7666 280.6238 280.6238 281.0888 281.3751
   282.7422 282.7422 284.8774 285.0051 285.0051 285.3872 285.3872 285.7602
   288.0485 288.8663 289.4318 290.1651 290.1651 291.3443 292.4111 293.5813
   293.5813 295.2388 295.2388 295.3715 295.8884 297.5405 298.0293 298.1028
   298.1028 298.5681 299.8848 301.8655 301.8655 303.7280 305.3705 307.1084
   307.1084 307.5573 307.8808 308.7304 308.7304 309.0760 309.6487 311.4976
   313.2272 313.2273 315.1307 317.3968 317.3968 317.5292 317.9706 318.1806
   318.3863 318.3863 318.9180 320.0829 320.0940 320.0940 320.8091 323.2166
   327.1862 327.1862 330.6645 331.1598 331.1598 331.5879 332.0906 333.3730
   333.3730 333.7740 334.1663 334.1663 334.3892 335.6845 336.8479 338.9307
   340.0288 340.0288 341.7944 345.3337 346.4965 346.4965 347.2437 349.3829
   350.2727 350.2727 351.2316 352.0090 352.0090 352.1030 352.4137 352.4385
   352.4385 352.7981 354.1280 356.7639 358.9396 358.9396 359.2360 359.4510
   363.5594 364.4623 364.4623 365.4210 366.9243 368.9923 368.9923 371.2112
   371.2112 372.3057 372.7691 376.7815 376.7815 376.8012 377.2918 380.5940
   380.5940 382.1754 382.6279 382.6279 382.7280 384.6596 384.8191 384.9873
   384.9873 385.4925 385.6417 386.8516 386.8516 389.4943 389.8462 390.8052
   390.8052 392.0390 392.3652 392.8817 393.6781 393.6781 394.4583 395.9658
   396.3026 396.6843 396.6843 397.5552 398.8082 398.8082 399.2606 400.0933
   400.0933 400.7163 400.8453 400.8799 400.8799 401.2760 402.8949 404.9393
   405.1227 405.1227 405.3358 408.1646 408.1646 408.2490 408.5162 408.7160
   409.1991 410.4178 410.4178 411.1112 411.1112 412.3110 412.3911 412.4599
   412.4599 412.6478 413.2033 414.6318 416.0178 417.3960 417.3960 418.4240
   419.6556 422.4370 422.4370 422.9478 423.2089 423.2089 423.2100 423.2510
   423.9342 424.9919 424.9919 425.1003 427.0361 427.0361 427.7162 428.8701
   428.8701 428.8744 428.9420 429.4820 429.4820 429.8400 430.0842 431.2894
   431.2894 432.4613 433.1596 433.6364 433.9777 433.9777 434.6259 435.0288
   435.1656 435.1656 435.6939 439.5152 440.1543 440.1543 441.3237 441.8460
   441.9488 441.9488 442.5038 443.6832 444.4042 444.4110 444.4110 444.9266
   445.4578 445.4578 446.4283 446.4283 447.1273 447.5947 447.7212 448.5389
   449.0604 449.1422 449.1422 449.3984 449.9764 449.9764 451.1953 451.8899
   453.4988 453.4988 455.4364 455.5718 455.5718 455.7414 455.9163 455.9564
   455.9564 456.0192 456.1194 458.7536 458.7536 459.7284 460.7384 461.0636
   461.1672 461.1672 461.7220 462.4783 462.4783 462.5571 462.8153 464.5103
   467.4464 468.0723 468.0723 468.4951 470.9330 470.9912 470.9912 471.0539
   473.0569 473.0569 473.1671 473.2517 476.4263 477.9867 477.9867 478.1009
   481.3896 481.4805 482.2008 482.2141 482.2141 482.3385 483.9619 483.9619
   484.8504 486.4385 486.4385 488.0584 488.9054 489.9974 489.9974 491.1749
   492.8302 495.0777 495.0777 495.6545 495.9869 496.5845 496.5845 498.1946
   498.8126 499.7487 499.7487 503.0980 503.9019 504.0091 504.0091 505.0430
   506.4698 506.6075 506.6075 507.5751 514.0607 514.0607 515.5470 515.9232
   516.5863 516.5863 517.8786 518.1895 519.3025 519.3284 519.3284 519.5340
   520.3828 523.1475 523.1475 524.0789 524.9079 525.8161 525.8161 526.0585
   527.1706 527.1706 527.4486 527.5868 528.0310 529.6358 530.6534 530.9974
   530.9974 531.2819 531.2819 531.5296 532.2673 532.3010 532.3010 532.3092
   532.5672 536.3115 537.0997 537.0997 539.3877 539.6359 539.6359 539.6405
   539.8161 543.3705 543.3705 543.4056 544.4676 546.4990 546.4990 546.6809
   548.4704 548.6468 548.6468 548.7217 549.7211 549.7501 549.8733 549.8733
   549.9211 550.8429 551.8508 551.8508 552.9765 553.4552 554.4075 555.2461
   555.2461 555.7162 556.2496 556.8281 556.8281 556.9792 557.3388 557.4630
   557.4630 557.9285 560.4989 560.4989 560.6620 562.2829 562.6118 562.6118
   562.7490 563.2968 563.2968 564.0867 565.2109 565.2109 565.9329 565.9900
   566.2170 566.2170 566.4215 566.8218 566.8487 569.4208 569.4208 570.5282
   570.7191 570.7191 570.7637 570.8892 571.1160 572.2293 572.5454 572.5651
   572.5651 574.4676 574.6774 574.6774 574.6831 574.7700 574.9841 575.2011
   575.2011 582.7112 582.7247 582.7247 582.7996 583.5597 583.5597 584.0296
   584.1595 586.1978 589.2099 589.2099 589.9637 590.0336 590.2184 591.2790
   591.2790 591.3611 591.4178 592.6649 592.6649 592.7751 592.9684 592.9684
   593.9777 593.9777 594.3319 595.4686 595.5893 599.5360 600.0107 600.0107
   601.0680 601.5660 604.0158 604.0158 604.2245 604.5645 605.2688 605.5278
   605.5278 605.6825 606.6018 606.6018 607.0331 607.9132 608.3169 608.5669
   608.5669 609.9703 610.0180 610.0180 610.1508 610.5507 612.6245 613.0828
   613.4617 613.4617 613.7205 615.5081 615.5081 617.7118 617.7118 618.4528
   618.9699 619.3542 619.5035 619.5035 619.8600 619.9147 619.9356 619.9356
   620.4481 622.0331 622.0827 622.0827 622.1892 622.9764 623.2995 623.2995
   624.0065 624.0106 624.4752 624.4752 624.9547 625.5344 625.6348 625.6348
   626.2060 626.2529 626.2529 626.3699 627.7167 630.2440 630.8939 630.8939
   631.4051 633.1412 633.1412 633.4480 633.7678 634.4207 634.4207 635.5698
   635.6129 637.7885 638.1485 638.1485 638.3585 638.3585 638.7703 639.7349
   640.4171 641.6673 641.7584 642.2003 642.2003 642.7163 642.9015 642.9015
   643.1925 644.0709 644.0709 645.4348 645.7850 647.0006 647.3109 647.3109
   648.5502 650.3601 650.3837 650.5356 650.5356 650.9135 651.0338 651.0404
   651.0404 652.1122 652.4400 652.4400 652.9768 653.4564 653.6647 654.2597
   654.2597 654.7526 655.6879 655.6879 656.1720 656.5359 656.5359 656.7938
   657.2268 657.4310 658.2627 658.2627 659.0498 660.7573 662.8673 662.8673
   663.6785 664.8217 664.8217 665.4128 665.5433 666.0921 666.2297 666.2297
   666.4822 667.6539 668.1085 668.1118 668.1118 668.1714 668.5820 668.6027
   668.6027 668.7573 669.5160 669.8473 669.8473 670.7645 672.3310 672.4456
   672.4456 674.2891 674.2891 674.3285 674.4240 674.5892 675.3575 675.5982
   675.5982 676.7691 676.7872 676.7872 676.8052 677.3977 678.6453 678.6825
   679.0390 679.0390 679.3725 679.9217 679.9217 681.2362 681.5005 685.0223
   685.0223 687.5040 688.6045 688.9718 688.9718 691.8253 692.9750 692.9750
   693.6761 695.7620 695.7620 696.3790 696.4119 697.1094 697.1094 699.2035
   699.9493 700.1874 700.3386 700.3386 700.5030 708.4749 708.4749 708.5484
   708.5621 708.8155 708.8155 708.8500 708.8684 711.1838 711.4991 711.4991
   711.8605 712.5779 712.5779 713.8429 714.2188 714.3379 714.3379 714.4135
   714.7330 715.0563 715.2744 715.2744 715.5876 715.8078 715.8198 715.8198
   715.8849 723.7100 723.7457 723.7457 723.7848 725.7785 725.9489 725.9489
   726.5508 727.6918 728.4809 728.4809 728.9144 729.0980 729.6580 729.6580
   730.4787 732.4208 732.4404 732.4404 733.7162 736.5426 738.3682 739.1106
   739.1106 740.6766 742.3937 742.5905 742.5905 743.6196 743.6923 743.6923
   744.8132 744.8705 745.0699 745.0699 745.1804 745.4698 749.9506 751.1935
   751.1935 752.5861 753.8656 753.8656 754.6867 754.9139 755.7872 755.9368
   755.9368 756.0217 756.9131 756.9131 757.3748 757.4227 758.7227 758.7227
   758.9813 759.2195 759.7636 759.7636 761.4479 762.1042 762.4262 762.4438
   762.4438 762.5234 763.5737 763.5737 763.6519 763.8067 763.8604 763.8604
   763.9429 764.1471 764.2455 764.3934 764.3934 764.5941 764.8583 770.6448
   770.6448 772.8304 772.9998 775.0503 775.0503 775.5591 777.3195 777.9528
   777.9528 777.9846 778.5023 778.5023 778.6458 780.3178 780.3178 780.9624
   780.9794 781.1228 781.3393 781.6679 781.6679 782.0176 782.9736 783.5779
   783.5779 784.6229 784.8390 784.8390 784.8639 785.3155 786.1847 786.6638
   786.6638 787.8514 788.4577 788.4577 788.5930 788.8252 788.8437 788.9322
   788.9322 789.0100 789.1388 789.1388 789.1554 789.2889 790.3578 790.5613
   790.5613 790.9056 791.9382 792.0047 792.0047 792.0353 795.6526 797.8893
   797.8893 799.0334 799.1899 799.2238 799.2238 799.7932 800.3511 800.4889
   800.4889 800.6928 800.8159 801.2221 801.2221 802.5715 802.5715 802.7336
   803.1350 803.2107 804.1897 805.0405 805.1402 805.1402 805.1954 805.3661
   805.3661 806.0514 807.2108 808.5466 808.6858 808.6858 808.7225 808.7225
   808.8687 809.3786 809.6980 810.1760 810.1760 810.4794 810.4794 810.5820
   811.1458 811.3741 811.4165 812.2765 812.2765 812.3087 812.5001 812.5959
   812.5959 812.8309 813.8729 813.8729 814.1372 814.3650 815.3975 815.6202
   815.6202 816.0617 817.2904 817.2904 817.3089 817.7854 818.2156 818.2407
   818.2536 818.2536 818.4848 818.4848 818.5437 818.6288 820.7500 820.7500
   821.1258 821.5989 821.6196 821.7978 821.7978 821.8846 822.0348 824.4351
   824.4897 824.4897 824.5995 824.6295 824.6296 824.6296 824.7406 828.1576
   828.1576 828.6753 828.6981 832.1516 832.1516 832.2126 833.1890 833.8504
   833.8504 834.2041 834.6498 834.8882 834.9770 834.9770 835.2465 837.0508
   837.0837 837.0837 837.1572 838.0629 838.0629 838.3936 838.4424 840.4855
   840.4855 840.5552 840.6365 841.5458 842.6921 842.6921 843.5193 843.6980
   844.1372 844.1372 844.2494 844.4406 844.4406 844.4616 844.6259 846.5091
   847.1150 847.5148 847.5148 847.8870 850.8827 850.8827 851.1998 851.8491

          k =-0.1250 0.3750-0.1250 (  2429 PWs)   bands (ev):

    -4.7912   6.1966   8.2615   8.5089  15.2479  17.1453  18.2159  18.6256
    21.0930  24.3775  26.6272  30.0072  30.0682  32.0096  37.0780  38.9276
    40.0898  43.3037  45.2249  47.0608  49.8744  51.2572  53.6450  59.9674
    60.5501  61.5591  63.7869  65.3015  65.4221  66.9746  67.0562  68.3112
    69.3324  71.9470  72.3888  73.7564  74.9265  75.8903  76.3445  77.2293
    78.9287  80.8716  80.9125  82.2076  83.1300  83.4660  85.0733  86.9107
    88.3403  89.1617  90.4471  93.4379  94.4307  95.5381  96.9198  97.6685
   100.4626 101.3421 102.9445 104.1446 107.6024 108.4146 109.3343 110.4982
   112.8880 114.2927 114.3983 116.7072 119.8426 120.1330 123.7025 123.9773
   125.2620 126.1196 127.4813 128.8520 130.3069 130.5429 132.3167 133.1890
   134.1854 134.9850 135.2054 137.8449 138.1561 138.7732 140.2002 141.9465
   142.8700 143.5483 143.6527 146.1697 146.3231 148.3380 148.6162 150.1488
   150.9791 151.8801 153.4033 153.8516 154.5283 154.7304 156.7152 158.2532
   158.5425 158.8011 160.2917 161.1362 161.2291 162.3583 163.7454 164.1314
   165.8352 166.8895 167.5772 168.0651 170.2144 171.5834 171.8773 173.1873
   173.7840 174.1041 175.5359 175.6494 176.4734 178.4433 178.4790 179.3553
   180.2137 182.0774 182.4621 182.9437 184.1447 184.2690 185.5096 187.3716
   188.1937 189.7016 190.6782 191.8613 194.0731 194.3667 195.9577 197.8123
   198.9583 201.2929 201.6416 202.4513 202.9023 203.9634 204.0697 205.2855
   205.6717 205.8162 206.5831 206.9581 210.6001 210.8429 211.4676 212.4798
   216.8253 218.1676 219.0320 219.7626 220.1203 221.5296 222.7065 222.9443
   224.0845 225.1542 225.7447 227.0569 228.1189 230.5295 232.6001 233.0150
   234.1807 234.5697 235.1995 237.0911 237.6620 238.2306 239.1651 239.6293
   240.4652 241.1619 242.0661 242.6815 243.9059 245.4181 246.2406 247.6629
   247.8782 248.5919 248.5970 249.6063 250.1273 250.7997 252.4674 252.4677
   254.3628 254.8036 254.8930 255.4417 258.7649 258.9190 259.8241 261.1402
   261.6074 262.9379 263.0124 263.5521 264.1647 265.0301 265.8716 265.9389
   266.2231 268.0286 268.1476 268.8462 270.9861 271.1103 271.3661 271.9872
   272.5977 272.6800 274.8351 275.3954 275.7328 276.6981 278.0645 278.2030
   279.2081 279.9624 280.8428 281.5586 281.6399 282.7886 284.0926 284.3106
   285.7406 286.2837 287.7367 288.6916 289.4523 289.9549 290.6152 291.1159
   291.8672 292.1100 292.8915 292.9084 293.3265 293.9389 294.5554 295.6774
   297.0103 297.1104 298.3336 298.6501 299.6106 299.7042 300.2430 300.8171
   301.1169 301.3465 302.2835 303.1929 303.7358 303.7858 305.1526 306.0013
   306.0499 307.4612 308.9160 309.0585 309.4996 309.8603 310.2269 310.5225
   311.1268 312.3355 313.3375 313.4978 314.9132 315.8920 315.8965 317.1105
   317.5502 318.1462 318.2655 321.5305 322.2110 322.8001 323.9748 324.2650
   326.4468 329.2735 329.9808 330.0198 332.6174 333.2535 333.9113 334.6253
   335.3912 336.4098 336.7618 338.2630 339.1466 339.8039 341.6179 342.5836
   343.3076 344.4165 344.8462 345.6510 345.7222 346.1405 346.4917 347.8069
   348.5885 350.0005 351.4664 351.8967 352.5631 353.0856 353.5546 355.0975
   356.2011 356.3247 357.9725 358.8738 358.9491 359.9725 360.6397 360.9897
   362.5255 362.9853 363.6243 364.2100 364.2956 366.7215 367.9665 368.2416
   368.6344 369.9990 370.2846 371.9016 372.5478 372.8081 373.4900 374.3518
   375.5470 376.1164 376.7071 377.1169 377.5360 377.8452 378.8437 379.2734
   381.8652 382.1158 384.3266 384.8846 385.5265 385.7111 387.0726 388.0819
   388.0839 389.2655 389.9449 389.9839 391.0408 391.0417 391.9758 392.8261
   393.0810 394.1157 394.7777 395.1561 396.0321 397.7684 397.9280 398.9011
   399.0755 399.7507 400.4450 400.9102 401.7082 401.9708 402.4025 403.8432
   404.2108 404.9090 404.9477 405.1690 406.1849 408.4070 409.4123 409.9571
   410.2612 410.9043 411.5124 412.1179 412.2490 412.8634 413.2415 413.4230
   414.0343 414.5503 414.9319 414.9556 416.6429 417.1535 417.7458 418.2741
   418.4858 418.7053 419.5183 419.6989 420.5052 421.3327 421.6545 422.4660
   422.8782 423.3411 423.8765 423.8820 424.4059 424.9051 425.2032 425.6040
   426.0950 426.5804 426.8274 427.8148 427.8454 429.1516 429.5986 429.8960
   430.0911 430.8130 431.4175 432.7473 433.2586 434.8032 434.9119 435.2187
   435.2401 435.6961 435.7407 436.1667 437.7201 439.6230 440.2310 441.2297
   441.3397 441.6111 443.0629 443.5554 443.6505 443.8331 444.1420 445.1919
   446.0277 446.6009 446.6575 447.5854 447.5985 449.1838 449.3341 449.8431
   449.8993 450.5067 450.7870 451.7921 451.9240 452.1788 455.1532 455.6434
   456.2644 457.3259 457.4577 457.4610 460.0383 460.3936 461.5825 461.7959
   462.4702 462.5258 462.6673 462.6703 463.2839 464.0602 465.7038 466.4196
   467.3460 467.5909 469.0817 470.2163 470.4746 471.4267 472.0741 472.6301
   473.9906 474.0631 474.1592 474.6596 475.2149 475.4405 476.2964 476.3211
[...]
   456.1149 456.8824 456.9164 457.4325 457.4640 457.6764 458.8856 458.9322
   460.3876 460.8519 461.5858 461.7322 462.5104 462.6568 463.7810 463.8760
   468.4126 469.8011 469.8974 471.8614 472.4263 473.1753 473.3030 473.6830
   476.3527 476.6405 477.5234 477.6665 477.8509 477.9281 480.0788 480.3211
   480.9308 480.9416 482.0534 482.2142 482.8718 483.1314 485.3082 485.4152
   485.9007 486.0806 486.2659 486.8231 488.8606 489.3734 490.5313 490.7044
   491.0162 491.0339 492.0501 492.2353 492.4176 492.6823 493.5463 493.5558
   495.4759 495.9658 496.0414 496.7680 496.7863 496.8323 497.3787 498.3960
   498.9873 499.0587 501.1357 501.2321 501.6958 502.0064 502.6231 503.4324
   504.3830 505.1174 505.1217 505.4035 505.6946 505.9664 506.3639 506.7996
   507.2128 508.4553 508.9099 509.1281 509.5603 510.0941 510.2145 510.2750
   510.6186 510.8282 511.2784 512.1051 512.1954 512.2515 512.3233 512.4207
   514.2820 514.4154 515.1789 515.4024 517.6543 517.7770 517.7853 518.7889
   520.0265 520.8515 521.0233 521.1987 522.7646 523.3252 524.2762 524.3164
   525.8220 525.8743 526.2570 526.8803 527.2144 527.4265 527.4300 527.6233
   527.9307 528.0721 528.1502 528.2057 529.0186 529.8474 530.4335 530.8160
   531.7431 532.1208 532.4525 532.6904 533.4479 536.3935 536.7779 537.0139
   537.1773 537.1834 537.3240 537.8583 539.2863 539.6098 540.2473 540.6129
   540.8424 540.9776 542.2399 542.8022 543.2484 543.2543 544.9542 545.2505
   545.2641 545.9239 546.3786 546.5607 546.9050 547.5403 551.4025 551.4779
   553.2536 553.4801 553.7591 553.8000 556.4945 557.0726 557.6823 557.9530
   559.2971 559.4079 559.7044 560.3885 561.0597 561.3441 561.9220 562.1191
   563.7473 564.0780 565.3538 565.9079 567.1221 567.2858 567.5273 567.5540
   567.5852 568.1760 568.5643 569.1360 569.7958 569.8124 569.8628 570.3665
   570.3805 571.6717 572.5996 572.8655 573.3567 574.0268 574.1582 574.2658
   574.3311 574.5627 575.5878 575.9703 577.4140 577.8679 579.1161 579.8496
   580.1192 580.6455 580.8365 580.8770 582.1641 584.0534 585.0264 585.1927
   585.9924 585.9990 586.2165 586.2685 586.5730 586.8015 589.1987 589.2323
   589.3750 589.5007 589.7413 590.1078 591.5226 591.8363 593.0063 593.5246
   593.5269 593.7554 596.8023 597.7720 598.1431 599.1236 599.7746 600.3915
   601.0186 601.7230 601.7609 602.3880 603.7953 604.0342 604.3418 606.8270
   606.9512 607.5942 607.7981 608.2569 608.7259 608.8909 609.8327 609.8987
   610.0190 610.4059 610.9809 611.7563 612.1464 612.4381 613.4087 613.7047
   614.0216 614.2763 616.1882 616.1959 618.7655 619.2212 622.4160 622.5095
   623.0862 624.1559 625.2929 625.5738 625.8253 625.9755 627.5620 627.6009
   627.8779 628.6977 628.8416 629.2700 629.9238 630.3694 632.0574 632.1414
   632.7352 633.0751 633.4331 633.8328 634.2062 634.4956 635.7419 636.0417
   636.2567 636.9404 637.8579 637.9482 639.5280 640.3503 640.4666 641.3430
   641.4706 642.1185 642.2462 642.9775 646.4774 646.7538 647.6907 648.3691
   648.4644 648.8698 648.9159 648.9922 650.1508 650.5045 650.7941 651.2042
   651.4318 651.4780 651.8173 652.1535 655.0119 655.2237 655.8184 656.0480
   657.1444 657.2619 657.8625 657.8833 659.0064 659.2979 659.6075 659.7635
   661.1914 662.7025 662.9147 663.6951 663.8204 664.4210 664.4977 664.9995
   665.3474 665.5042 665.6683 665.8860 666.2163 666.7085 666.8389 667.4956
   667.9460 668.0614 668.7265 668.8595 669.3774 669.4740 671.9381 671.9677
   672.3300 672.9776 672.9777 673.5006 673.5377 673.8230 673.8475 674.1351
   674.5647 675.4317 675.6464 675.9006 676.0418 676.1251 676.2482 677.0541
   677.4295 677.6241 678.0452 678.1512 678.4040 678.4974 680.6575 682.2286
   685.2389 685.6418 685.7669 685.9812 686.3738 686.8770 687.3955 687.4347
   687.9666 688.2847 688.3588 688.4173 688.5667 689.0204 689.1963 689.5483
   689.6416 689.7973 691.2555 691.8768 692.8423 692.9490 693.2801 693.3752
   694.9848 695.1392 696.5834 696.8947 696.9960 697.0164 697.8271 698.2465
   699.6120 699.8158 699.9380 700.0429 700.4413 701.1171 701.2492 701.5894
   701.7574 701.7885 701.9202 702.5080 703.3125 703.3293 704.2826 705.1934
   705.2308 705.5689 706.0017 706.4848 706.5990 707.0011 707.1900 709.2316
   709.4030 709.5785 709.6685 710.2287 711.9952 712.1323 712.2014 712.3352
   714.1727 714.3114 714.6330 715.3217 715.4020 715.4990 716.7695 716.9072
   717.6257 717.7234 718.8784 719.6516 720.4617 720.6128 720.6715 721.0593
   723.8924 724.4215 724.9112 725.0020 725.5735 725.6145 726.1144 726.2611
   726.6662 726.9093 727.2936 727.4232 728.6344 728.7517 729.1758 729.2128
   729.6401 729.7020 730.2436 730.5437 732.4700 732.8592 733.1665 733.4920
   733.5627 733.5957 734.2745 734.3524 734.5767 734.8793 735.4775 735.5830
   735.7965 735.8031 739.5512 740.0276 740.2475 740.3477 741.1617 742.0690
   743.3697 745.0568 746.0902 746.1244 747.3888 747.5778 747.6688 748.3147
   748.7388 749.2859 749.4140 750.0672 750.1002 752.5727 753.4148 753.5269
   754.2843 754.4049 754.4601 754.5419 756.0611 756.2097 758.7062 758.7805
   758.9827 759.7192 759.7427 759.9005 762.3168 762.6560 763.1479 763.3339
   763.5275 763.8472 764.1930 764.3297 765.1179 765.7562 766.0982 766.1448
   766.2121 766.4728 767.8089 767.9668 769.2321 769.5429 770.8288 771.1186
   772.1313 772.3129 772.3596 772.5924 772.6918 772.9234 773.1617 773.2039
   773.4585 773.6904 774.0606 774.1424 775.7230 775.8890 776.3323 776.4040
   776.4743 776.4881 776.9819 777.0658 777.4519 777.4862 778.7281 779.1478
   780.8196 781.0379 781.1784 781.4812 781.9006 783.6764 784.2425 784.5599
   785.0416 785.0962 785.3309 785.3908 785.9031 786.1944 786.4858 786.5538
   786.7392 786.9506 786.9747 787.3218 787.4512 787.4648 789.9426 789.9457
   790.7914 792.5206 793.5709 795.4722 795.9566 795.9950 797.5184 797.9571
   798.2507 798.5332 798.5356 798.7024 798.7255 798.7473 800.2679 801.4161
   801.5426 801.5986 801.7099 801.7670 803.3838 804.0031 804.1738 804.2068
   804.7158 805.2370 805.2382 805.2938 806.6116 806.7917 806.8097 806.9338
   808.7067 808.7290 809.7369 809.8866 810.3672 810.3739 812.9405 813.8264
   814.3179 814.3194 815.2642 815.4893 815.8140 816.1528 816.4318 816.5817
   816.7211 816.7337 816.8518 816.8640 818.2137 818.2849 819.5822 819.6455
   819.8708 820.3729 820.6775 820.9186 823.2917 823.4113 825.8742 826.1109
   826.7017 826.8231 827.2126 827.2480 827.5911 828.4101 828.6756 830.6692
   830.6975 830.9776 831.0846 831.5425 831.6509 831.8638 831.8913 832.0788
   832.3911 832.7975 833.0038 833.1536 833.8679 833.9254 834.5500 834.5618
   840.9708 841.3673 842.5631 842.9934 843.3228 843.8028 844.3952 844.5596
   844.7578 845.0152 845.4074 845.6422 845.9118 846.1293 846.2797 846.2874
   846.8591 847.2925 848.0488 848.1331 848.2343 848.3878 849.4910 849.5886
   849.5956 850.1547 851.4818 851.6329 854.8096 855.1186 855.1841 855.2175
   858.1351 858.6211 858.6422 858.9044 858.9668 859.0800 859.1398 860.8193

          k =-0.5000-1.0000 0.0000 (  2400 PWs)   bands (ev):

    -0.6324   2.4934   4.5175   4.8311  14.6921  18.9750  18.9929  19.2738
    23.7516  26.8900  30.5539  33.8600  34.2527  37.5322  37.7101  37.8646
    38.6545  40.1784  43.7447  45.7624  47.0983  50.1679  53.1672  53.9501
    53.9713  55.2333  55.2359  59.6445  62.3153  64.1998  66.3294  67.8050
    69.3160  69.3298  73.8686  74.5999  76.7611  78.9218  78.9796  81.6251
    81.7070  83.0720  85.7370  86.2482  86.3445  86.9409  90.6564  91.5215
    92.8876  93.1192  94.9976  96.0521  98.3010  98.3695  98.5101 102.6588
   104.2136 104.3482 105.2478 105.4352 105.8428 107.3893 108.3151 109.8085
   110.9866 111.6098 112.1647 114.9936 118.0618 119.1332 120.7537 123.6721
   124.9958 125.8109 126.3969 126.4595 126.9928 127.1946 127.4769 128.2141
   128.6842 128.8971 129.1792 134.0582 135.7995 137.0801 137.3659 138.1004
   139.1820 139.4120 139.8569 140.4291 144.5367 144.7080 145.1370 147.0423
   147.2065 147.4584 148.2293 149.1535 150.4079 150.7759 151.0005 154.0207
   157.2186 157.2321 157.6400 161.8423 163.7946 164.7312 164.7780 169.8038
   170.5159 170.7737 173.3839 175.2756 176.9739 177.1474 179.1695 180.3824
   181.1101 182.0380 182.1632 182.5564 183.2634 183.5454 183.8766 185.9151
   187.9310 188.2376 188.6845 189.7956 190.5359 190.6276 192.8289 193.5188
   193.7631 193.9336 194.9580 195.7707 196.0364 196.6850 196.8234 198.1916
   198.3098 199.9770 202.4983 203.1311 203.3776 204.3471 205.3151 205.8763
   206.2094 206.8993 207.1062 208.9629 209.3310 209.3513 210.1530 211.4802
   216.3039 217.9612 217.9914 221.1127 221.2590 221.4765 222.4121 222.9595
   223.7619 224.2889 224.4396 225.4764 226.1511 227.0820 227.1328 227.6093
   228.3366 229.0283 229.2152 230.3578 230.8975 231.4195 232.8739 233.6630
   233.9514 234.7009 236.3743 238.5296 239.6782 239.7078 239.7793 240.3738
   241.2460 241.4083 241.6768 242.0905 242.2246 242.6776 242.9481 246.6197
   248.2011 249.3996 249.4037 251.8135 251.8497 252.6659 252.7066 254.1145
   261.1914 262.5388 263.9129 264.1514 264.3212 266.5608 267.2860 267.9157
   267.9625 268.2511 268.3349 269.3915 270.2069 270.5785 271.0808 271.2374
   271.7922 272.4502 272.9657 273.4361 276.4294 277.4039 278.6889 281.2522
   281.4584 281.6724 282.0630 282.3534 283.2780 284.1523 284.7340 286.0560
   286.1080 286.2333 287.0256 287.0927 287.2578 287.2736 287.5015 291.7663
   291.9288 291.9369 291.9807 292.5962 297.3922 299.1689 299.2289 299.9326
   300.5623 301.0146 301.5669 301.9002 302.4709 302.7000 302.9616 304.6802
   304.7355 304.8973 305.2739 305.8304 308.6973 308.9871 309.6938 313.4144
   313.6795 313.7366 313.8755 316.3480 318.5807 318.8231 319.5376 320.1373
   322.3813 322.7426 322.8033 327.5524 328.3494 328.5717 328.7476 328.9099
   329.6155 329.7856 330.5317 331.0610 332.1928 332.4262 332.7660 332.9131
   333.0772 333.3817 333.7132 333.7230 333.9622 333.9969 334.1817 334.8820
   335.2674 335.5031 335.5139 337.3087 338.6388 338.7360 338.7475 339.8119
   343.6782 344.2958 344.9300 347.1574 347.1705 347.2647 347.3410 350.1728
   350.3180 350.4109 350.4277 350.6924 350.7935 350.8570 350.9854 351.6373
   353.9490 354.8570 355.2499 357.6558 357.8421 357.9620 358.0709 359.4266
   360.2975 360.3706 360.5954 361.0934 361.3743 361.9473 361.9649 364.0389
   364.5514 364.9664 366.5463 366.6234 367.2511 367.2543 367.3186 367.6024
   367.6995 368.1889 368.6562 369.3582 369.5202 369.6499 369.6624 370.5972
   374.5034 374.6179 374.7434 375.0806 378.5577 378.7429 378.7579 378.8681
   379.7011 379.8254 379.8662 379.9204 382.8137 383.2748 383.5127 385.5292
   386.8318 386.9750 387.0149 387.0566 387.9776 389.0108 389.2116 390.6739
   391.4000 392.1058 392.2778 392.8471 396.4491 396.8968 397.0020 397.0378
   397.0834 397.0954 397.1358 397.5821 405.6397 406.4350 407.3361 409.4618
   409.5850 409.8745 409.8815 410.9535 411.2038 411.2916 411.3242 411.3366
   413.3773 413.3781 413.3951 413.5826 414.0917 414.9357 415.7396 416.9096
   417.7226 419.5354 419.8989 420.1528 421.7851 421.9898 422.3215 423.3222
   425.5438 425.7637 426.6041 426.9054 428.3331 428.4051 428.4425 428.8060
   429.3738 429.4518 429.4713 429.5483 431.1216 431.1587 431.2398 432.0689
   432.8015 432.8636 433.2333 433.4306 436.1136 436.3437 436.7076 438.0532
   439.6969 440.2110 440.2252 440.5306 440.6955 440.8222 441.2711 441.6168
   441.6422 441.6623 444.0777 444.7039 444.7863 444.7951 444.9962 445.1888
   453.5317 453.9230 454.0563 454.3055 455.5804 455.7293 457.3264 457.3637
   457.4447 457.4497 457.7033 458.1070 458.6871 459.5178 460.9335 460.9791
   461.2208 461.7170 462.1159 462.5284 462.7712 463.3966 463.6224 463.7629
   465.6855 465.8858 465.9762 465.9793 470.1830 470.4387 471.9476 472.6884
   472.6921 473.8552 473.8558 474.1544 474.2855 474.3283 474.9875 475.3145
   475.3915 475.7593 475.8963 476.0749 476.1159 476.3637 476.5408 476.5997
   477.1264 477.2512 478.4454 478.4822 486.8161 486.8499 488.0930 488.2483
   491.8983 491.9611 491.9710 491.9719 494.1200 494.1815 494.6493 495.8221
   498.2786 498.6102 498.8353 499.1615 501.9369 502.4155 502.6078 502.6781
   503.6988 504.6845 504.7170 505.0394 505.2279 505.4272 505.8142 507.1513
   507.1601 507.1676 507.2856 507.3291 507.6377 508.1618 508.5932 508.6667
   509.5584 510.0543 510.0773 510.3185 510.7091 511.3088 511.6087 511.6739
   511.6909 511.8764 511.9337 512.3405 514.1745 515.9391 516.4971 517.7354
   517.7878 517.8367 517.9940 518.0683 519.0979 519.2001 519.2528 519.2853
   519.6404 519.7953 520.4666 520.6347 521.0969 521.2851 521.3315 521.4732
   522.4643 522.7636 522.7802 522.8286 523.7521 524.1093 524.3361 524.6800
   527.6891 527.7751 528.0509 528.1311 528.3058 528.6147 528.6782 528.6994
   529.1715 529.2328 529.3078 529.3387 535.4477 537.2331 537.5369 538.0890
   540.3441 540.7108 540.7295 540.8465 540.9542 541.1000 541.1641 541.2646
   544.2209 545.4043 545.8234 547.0508 547.8098 548.1449 548.3335 548.4367
   551.3114 551.6984 551.7298 551.8586 551.8893 552.0526 552.1161 552.2333
   553.1636 553.2776 553.4437 553.7414 553.8212 554.4008 554.7142 554.7767
   555.3285 555.4164 555.6919 555.9032 556.1385 556.2392 556.3679 556.4072
   564.9976 565.0673 567.2351 567.6730 567.6918 567.7820 567.9360 568.7983
   569.2358 569.8801 570.1429 570.4457 570.5708 570.6058 570.7898 570.9363
   571.0955 571.1199 571.1774 571.2007 571.3649 571.7403 571.7553 571.8955
   571.9590 572.0524 572.2269 572.2568 572.3215 572.3995 572.5310 572.5776
   574.0151 574.0319 574.8926 574.9133 583.5855 583.8146 585.5427 585.8598
   585.9145 586.0821 586.1063 586.1205 587.8258 588.4501 588.4593 588.5518
   588.6204 588.6633 588.6939 588.6953 595.8089 595.8782 595.9254 596.3252
   597.0668 597.3545 597.9622 598.4563 598.4928 598.6091 598.6366 600.0733
   600.2276 601.1410 601.1494 601.7218 601.8932 601.9257 601.9697 601.9835
   603.5240 603.6566 604.3840 604.5054 604.8509 604.9671 605.0065 605.0087
   612.2735 612.3753 613.0963 614.9489 617.6616 617.8773 618.2341 618.3371
   618.3494 618.8874 618.9741 618.9848 623.9339 624.0398 624.2067 624.2436
   625.2405 626.2303 626.3475 627.4855 627.9517 628.0169 628.1763 628.4650
   631.6496 631.7176 632.0253 632.3820 632.4560 632.4781 632.5824 632.6764
   632.8817 633.0305 633.3516 633.4761 635.7316 635.9227 636.0828 636.1783
   636.4161 636.4197 636.4353 636.4755 642.1685 642.2365 643.9139 644.5060
   647.4589 647.4901 647.7576 648.0617 648.7936 648.9657 649.1285 649.1368
   649.3215 649.4657 649.5288 649.7928 649.8177 649.8678 650.0267 650.4016
   650.5396 650.5743 650.6133 650.7440 654.6319 655.0493 656.9692 657.2711
   657.7440 657.8524 658.0681 658.1695 659.5255 661.1349 661.2519 661.5891
   663.2806 663.5035 663.5390 663.7284 664.4297 664.4648 664.9586 664.9772
   665.0177 665.0420 665.1291 665.5658 665.7375 666.1807 666.4491 666.5436
   666.5494 666.5972 666.6633 666.8285 666.9397 667.4071 667.4221 667.4760
   668.0433 668.1237 668.1336 668.1652 668.8604 668.8676 668.9576 668.9791
   670.4210 670.7183 670.8925 671.1446 671.2109 671.2601 671.3579 671.4226
   677.6274 678.2370 678.4710 678.5580 678.8451 679.3740 680.0406 680.1961
   681.5588 681.6990 681.9004 682.2910 682.3051 682.5418 682.6647 682.7666
   682.8432 682.8514 682.9261 682.9536 682.9858 682.9978 683.1045 683.1914
   683.4108 683.4374 683.4744 683.4847 696.0240 696.0558 696.1684 696.5787
   696.6976 696.8319 697.0395 698.1067 698.1184 699.4508 699.6921 699.7091
   699.7213 699.7590 699.7621 699.8155 700.9591 701.2095 701.3288 701.7358
   704.7942 705.4696 706.0661 706.4893 707.7574 707.7670 707.8392 707.8603
   708.3662 708.5940 708.8105 709.7556 709.8217 710.7756 711.0746 711.4476
   711.5740 711.6034 712.3461 712.6083 712.6593 712.6647 713.7476 714.8210
   714.9494 714.9883 714.9930 714.9952 718.2938 718.7429 718.7498 718.9026
   719.4583 719.6268 719.6659 719.6740 719.7158 720.7362 720.8141 721.9949
   722.9955 723.2618 723.3830 723.4962 724.1008 724.3287 724.5060 724.6462
   729.4634 729.6357 729.7624 729.7874 730.7805 730.8372 730.8575 730.8726
   737.6224 738.4276 738.6215 739.0121 739.8135 740.3556 740.8951 741.8881
   741.9099 742.3191 742.5846 742.6371 742.6518 742.8132 742.8576 742.9672
   742.9735 742.9938 743.1428 743.3590 743.7179 743.7994 744.0850 744.2246
   744.9008 745.1527 745.1985 745.2532 745.4612 745.4694 746.9868 747.3536
   749.0112 749.0143 749.2096 749.3161 751.5902 751.6017 751.6050 751.6515
   753.8257 754.0560 754.0586 754.1677 754.1764 754.4659 754.5147 754.6533
   756.5548 757.5125 758.3186 758.6633 759.3385 760.0138 760.4425 760.7313
   760.7583 760.8333 760.8405 761.0332 761.3241 761.7514 761.8908 762.0005
   762.1236 762.1788 762.2361 762.2609 762.6403 762.6513 762.6551 762.7941
   763.2197 763.2999 763.4444 763.5013 765.2546 765.9573 766.0511 766.1553
   766.2831 766.3403 766.3412 766.3775 776.1829 776.2627 776.9330 777.4308
   777.4336 777.4466 777.5731 777.5744 777.8351 777.8497 777.8647 777.8967
   783.1674 783.1795 783.9363 784.6679 784.7345 785.2147 785.2771 785.7151
   786.8878 786.9572 786.9874 787.0192 788.2832 788.7544 788.7804 788.9137
   788.9201 789.0076 789.0779 789.0899 791.7078 791.9972 792.6335 792.9323
   793.6155 793.8292 794.1614 794.1978 795.0160 796.4425 796.8183 796.8292
   797.5292 797.5560 797.9862 798.0324 802.4783 802.7443 803.3390 805.1156
   805.2628 805.2897 805.5918 805.7921 806.0354 806.2197 806.3023 806.3625
   806.6301 806.6651 806.7377 806.7779 806.8886 807.0159 807.0682 807.1014
   808.7231 808.7457 808.7610 808.7785 809.4733 809.4992 809.5070 809.5101
   810.0884 810.0921 810.2273 810.2291 810.3825 810.6089 810.8040 810.8660
   811.5838 811.6622 811.6643 811.6661 813.8834 814.0127 814.0288 814.0714
   822.8626 823.4640 823.5911 824.2960 824.3046 824.5842 824.6913 824.7018
   825.6574 825.7988 825.8112 825.8127 827.6466 827.6664 827.6913 827.6920
   829.6335 830.5770 830.6026 832.5623 836.8839 836.8957 837.1390 837.1830
   838.4884 838.6221 838.6342 838.7483 838.9109 838.9806 839.7983 840.3929
   840.4508 840.8087 840.9185 840.9391 840.9410 841.1002 841.2261 841.2706
   841.4496 841.4976 841.5699 841.5953 842.2313 842.5056 842.5600 842.5703
   847.6026 847.9072 847.9974 848.1679 848.1985 848.6845 848.7387 848.8188
   850.1497 850.2793 850.2871 850.3235 853.7892 853.9087 853.9428 853.9485
   856.6238 856.6631 856.6977 856.7451 856.7947 856.7957 856.7997 856.8421

     the Fermi energy is    10.2050 ev
     (compare with:    10.6982 eV, computed in scf)

     Writing all to output data dir out/mp-8062.save/
 
     init_run     :      0.02s CPU      0.03s WALL (       1 calls)
     electrons    :    730.08s CPU    778.18s WALL (       1 calls)

     Called by init_run:
     wfcinit      :      0.00s CPU      0.00s WALL (       1 calls)
     potinit      :      0.00s CPU      0.01s WALL (       1 calls)
     hinit0       :      0.01s CPU      0.01s WALL (       1 calls)

     Called by electrons:
     c_bands      :    730.06s CPU    778.12s WALL (       1 calls)
     v_of_rho     :      0.00s CPU      0.00s WALL (       1 calls)

     Called by c_bands:
     init_us_2    :      0.00s CPU      0.00s WALL (      15 calls)
     init_us_2:cp :      0.00s CPU      0.00s WALL (      15 calls)
     paro_k       :    700.80s CPU    746.54s WALL (      15 calls)

     Called by paro_*:
     h_psi        :     15.42s CPU     16.31s WALL (    1528 calls)
     g_psi        :      0.32s CPU      0.38s WALL (  147970 calls)

     Called by h_psi:
     h_psi:calbec :      0.29s CPU      0.31s WALL (    1528 calls)
     vloc_psi     :     14.84s CPU     15.70s WALL (    1528 calls)
     add_vuspsi   :      0.14s CPU      0.15s WALL (    1528 calls)

     General routines
     calbec       :      0.29s CPU      0.31s WALL (    1528 calls)
     fft          :      0.00s CPU      0.00s WALL (      10 calls)
     fftw         :     13.26s CPU     14.02s WALL (  241882 calls)
 
     Parallel routines
 
     PWSCF        :  12m11.11s CPU  12m59.97s WALL

 
   This run was terminated on:  22:59:28  17Nov2023            

=------------------------------------------------------------------------------=
   JOB DONE.
=------------------------------------------------------------------------------=
