
     Program PWSCF v.7.1 starts on 17Nov2023 at 22:19:56 

     This program is part of the open-source Quantum ESPRESSO suite
     for quantum simulation of materials; please cite
         "P. Giannozzi et al., J. Phys.:Condens. Matter 21 395502 (2009);
         "P. Giannozzi et al., J. Phys.:Condens. Matter 29 465901 (2017);
         "P. Giannozzi et al., J. Chem. Phys. 152 154105 (2020);
          URL http://www.quantum-espresso.org", 
     in publications or presentations arising from this work. More details at
     http://www.quantum-espresso.org/quote

     Parallel version (MPI), running on    24 processors

     MPI processes distributed on     1 nodes
     123250 MiB available memory on the printing compute node when the environment starts
 
     Reading input from pw_mp-8062_nscf_k260_E102.in
Warning: card &IONS ignored
Warning: card / ignored
Warning: card &CELL ignored
Warning: card / ignored

     Current dimensions of program PWSCF are:
     Max number of different atomic species (ntypx) = 10
     Max number of k-points (npk) =  40000
     Max angular momentum in pseudopotentials (lmaxx) =  4

     Atomic positions and unit cell read from directory:
     out/mp-8062.save/
     Atomic positions from file used, from input discarded
 
 
     K-points division:     npool     =       2
     R & G space division:  proc/nbgrp/npool/nimage =      12
     Subspace diagonalization in iterative solution of the eigenvalue problem:
     one sub-group per band group will be used
     scalapack distributed-memory algorithm (size of sub-group:  3*  3 procs)

 
     Parallelization info
     --------------------
     sticks:   dense  smooth     PW     G-vecs:    dense   smooth      PW
     Min          79      79     23                 1629     1629     260
     Max          80      80     24                 1633     1633     263
     Sum         955     955    283                19579    19579    3143
 
     Using Slab Decomposition
 


     bravais-lattice index     =            2
     lattice parameter (alat)  =       8.2279  a.u.
     unit-cell volume          =     139.2515 (a.u.)^3
     number of atoms/cell      =            2
     number of atomic types    =            2
     number of electrons       =         8.00
     number of Kohn-Sham states=         1200
     kinetic-energy cutoff     =     102.0000  Ry
     charge density cutoff     =     408.0000  Ry
     Exchange-correlation= PBE
                           (   1   4   3   4   0   0   0)

     celldm(1)=   8.227854  celldm(2)=   0.000000  celldm(3)=   0.000000
     celldm(4)=   0.000000  celldm(5)=   0.000000  celldm(6)=   0.000000

     crystal axes: (cart. coord. in units of alat)
               a(1) = (  -0.500000   0.000000   0.500000 )  
               a(2) = (   0.000000   0.500000   0.500000 )  
               a(3) = (  -0.500000   0.500000   0.000000 )  

     reciprocal axes: (cart. coord. in units 2 pi/alat)
               b(1) = ( -1.000000 -1.000000  1.000000 )  
               b(2) = (  1.000000  1.000000  1.000000 )  
               b(3) = ( -1.000000  1.000000 -1.000000 )  


     PseudoPot. # 1 for C  read from file:
     /usr/scratch4/magr4985/MG/HTDF/pseudo/SG15/C.upf
     MD5 check sum: 1a5f83a7b1f58d24996abe00ed223ac6
     Pseudo is Norm-conserving, Zval =  4.0
     Generated using ONCVPSP code by D. R. Hamann
     Using radial grid of  602 points,  4 beta functions with: 
                l(1) =   0
                l(2) =   0
                l(3) =   1
                l(4) =   1

     PseudoPot. # 2 for Si read from file:
     /usr/scratch4/magr4985/MG/HTDF/pseudo/SG15/Si.upf
     MD5 check sum: 7f029a58b69e3aa87b46a36c608bf45e
     Pseudo is Norm-conserving, Zval =  4.0
     Generated using ONCVPSP code by D. R. Hamann
     Using radial grid of  602 points,  4 beta functions with: 
                l(1) =   0
                l(2) =   0
                l(3) =   1
                l(4) =   1

     atomic species   valence    mass     pseudopotential
        C              4.00    12.01070     C ( 1.00)
        Si             4.00    28.08550     Si( 1.00)

     24 Sym. Ops. (no inversion) found



   Cartesian axes

     site n.     atom                  positions (alat units)
         1           Si  tau(   1) = (  -0.2500000   0.2500000   0.2500001  )
         2           C   tau(   2) = (   0.0000000   0.0000000   0.0000000  )

     number of k points=    16  Gaussian smearing, width (Ry)=  0.0005
                       cart. coord. in units 2pi/alat
        k(    1) = (   0.0000000   0.0000000   0.0000000), wk =   0.0092593
        k(    2) = (  -0.1666667   0.1666667  -0.1666667), wk =   0.0740741
        k(    3) = (  -0.3333333   0.3333333  -0.3333333), wk =   0.0740741
        k(    4) = (   0.5000000  -0.5000000   0.5000000), wk =   0.0370370
        k(    5) = (   0.0000000   0.3333333   0.0000000), wk =   0.0555556
        k(    6) = (  -0.1666667   0.5000000  -0.1666667), wk =   0.2222222
        k(    7) = (   0.6666667  -0.3333333   0.6666667), wk =   0.2222222
        k(    8) = (   0.5000000  -0.1666667   0.5000000), wk =   0.2222222
        k(    9) = (   0.3333333   0.0000000   0.3333333), wk =   0.1111111
        k(   10) = (   0.0000000   0.6666667   0.0000000), wk =   0.0555556
        k(   11) = (   0.8333333  -0.1666667   0.8333333), wk =   0.2222222
        k(   12) = (   0.6666667  -0.0000000   0.6666667), wk =   0.1111111
        k(   13) = (   0.0000000  -1.0000000   0.0000000), wk =   0.0277778
        k(   14) = (   0.6666667  -0.3333333   1.0000000), wk =   0.2222222
        k(   15) = (   0.5000000  -0.1666667   0.8333333), wk =   0.2222222
        k(   16) = (  -0.3333333  -1.0000000   0.0000000), wk =   0.1111111

     Dense  grid:    19579 G-vectors     FFT dimensions: (  40,  40,  40)

     Estimated max dynamical RAM per process >      75.12 MB

     Estimated total dynamical RAM >       1.76 GB

     The potential is recalculated from file :
     out/mp-8062.save/charge-density

     Starting wfcs are random

     Band Structure Calculation
     ParO style diagonalization

     ethr =  5.00E-06,  avg # of iterations =  6.0

     total cpu time spent up to now is      409.7 secs

     End of band structure calculation

          k = 0.0000 0.0000 0.0000 (  2421 PWs)   bands (ev):

    -5.8964   9.4845   9.4845   9.4845  15.7711  16.8743  16.8743  16.8743
    23.9704  23.9704  26.0185  26.7708  26.7708  26.7708  33.0553  43.0202
    43.0202  43.0202  51.1299  51.1299  51.1299  52.3456  52.3456  57.0142
    57.0142  57.0142  68.8590  69.5274  69.5274  69.5274  71.8813  71.8813
    72.1209  72.1209  72.1209  79.0457  79.2395  79.2395  79.7119  79.9801
    79.9801  79.9801  81.6446  81.6446  81.6446  81.7958  81.7958  81.7958
    82.7375  82.7375  82.7375  88.3961  88.3961  88.3961  90.5231  91.1668
    91.1668  91.1668  93.5459 109.5443 113.9240 113.9240 113.9240 114.8566
   114.8566 118.6169 118.6169 118.6169 124.2086 124.2086 124.2086 125.1567
   128.8322 128.8322 131.4099 131.4099 131.4099 133.6618 133.6618 133.6618
   138.5990 138.5990 138.5990 142.8682 142.8682 143.2327 143.2327 143.2327
   144.0889 146.8892 146.8892 147.4544 147.4544 147.4544 151.8616 151.8616
   151.8616 152.1010 152.1010 152.1010 153.1731 153.1731 153.1731 153.9775
   153.9775 153.9775 155.0473 155.4132 156.0635 156.0635 156.0635 156.1847
   156.1847 164.5262 164.5262 164.5262 170.1341 170.1341 170.1341 173.6362
   175.1921 175.1921 179.3071 179.3071 179.3071 181.4193 181.4193 181.4193
   181.7234 182.6286 182.6286 182.6286 183.2763 183.2763 183.2763 184.1525
   184.1525 194.9242 194.9242 194.9242 197.5772 197.5772 199.2909 200.1264
   200.1264 200.1264 203.1147 203.1147 203.1147 204.3972 204.3972 204.6491
   205.4412 205.4412 205.4412 207.1071 207.7427 207.7427 207.7427 207.9739
   207.9739 207.9739 207.9894 207.9894 207.9894 208.1839 208.1839 208.1839
   216.7876 231.7515 231.7515 231.7515 233.1413 233.1413 233.1413 234.8549
   235.9099 235.9099 235.9099 235.9709 235.9709 239.0489 239.0489 239.0489
   250.3834 250.3834 250.3834 255.0755 255.0755 256.9206 258.0719 258.0719
   258.0719 259.9563 259.9563 259.9563 262.7870 262.8621 262.8621 262.8621
   263.0477 263.0477 264.5450 264.5450 264.5450 268.2306 268.2306 268.3518
   268.3518 268.3518 268.8354 268.8354 268.8354 270.4258 270.4258 270.4258
   270.5225 270.5225 270.5225 270.9715 270.9715 271.0226 271.0226 271.0226
   271.2825 272.5230 272.5230 272.5230 273.2332 273.2332 273.2332 273.7901
   274.4427 274.4828 274.4828 274.4828 276.4277 276.4277 276.4277 276.5564
   276.5564 276.9131 280.5575 280.5575 280.6999 280.6999 280.6999 281.1852
   281.1852 281.1852 281.4091 281.4091 281.4091 281.8194 281.8194 281.8194
   281.8445 281.8445 286.6442 296.8668 296.8668 296.8668 298.7064 298.7064
   305.0505 307.1533 307.1533 307.1533 307.6974 307.6974 307.6974 308.3304
   308.3304 308.3304 308.6550 308.6550 308.6550 312.5711 312.5711 312.6665
   312.6665 312.6665 312.8181 315.2041 315.2041 315.2041 318.8807 318.8807
   318.8807 319.7820 325.1481 326.7082 326.7082 326.9531 326.9531 326.9531
   329.2656 329.2656 329.2656 329.8382 329.8382 329.8382 330.3373 330.3373
   330.3373 331.2657 331.2657 336.5103 336.5103 336.5103 339.8367 339.8367
   340.2904 340.2904 340.2904 341.0233 341.1318 341.1318 341.1318 341.9874
   341.9874 341.9874 342.0242 342.0242 342.0242 343.1636 343.1636 343.1636
   343.4710 343.4710 344.2190 365.4661 365.4661 365.4661 368.5769 368.5769
   368.5769 369.1402 369.7828 376.0316 376.0316 376.0316 377.4271 377.4271
   378.0185 378.0185 378.0185 378.3890 378.3890 378.3890 378.7849 381.5518
   381.5518 381.5518 385.2764 385.2764 386.8400 386.8400 386.8400 388.3581
   391.1033 391.1033 391.3616 391.3616 391.3616 392.0135 392.0135 392.0135
   394.0580 394.0580 394.0580 394.1018 394.1018 394.2600 396.5220 396.6085
   396.6085 396.6085 397.2144 397.2144 397.2144 397.2457 397.2457 397.2457
   397.6232 397.6232 397.6232 404.4422 404.4422 404.4422 404.4782 404.4782
   404.4782 404.6241 404.6241 404.7015 404.7015 404.7015 404.9874 406.5037
   406.5037 406.5037 407.4995 407.4995 407.4995 407.6450 407.7954 407.7954
   407.7954 407.8084 407.8084 415.6343 415.6343 415.6343 420.0378 420.0378
   420.0378 421.0179 421.6353 425.4936 425.4936 426.1514 426.1514 426.1514
   427.1456 427.1456 427.1456 428.4234 428.4234 428.4234 428.7022 428.7022
   428.7022 430.6174 430.6174 434.5370 434.5370 435.5516 435.5516 435.5516
   435.7786 435.7786 435.7786 436.3174 436.3174 436.3174 437.0425 437.0425
   437.0425 437.4918 437.4918 437.9787 438.7814 438.7814 438.7814 439.2065
   439.2065 439.2065 439.5072 443.9785 443.9785 443.9785 448.9617 449.3834
   449.3834 449.3834 451.1331 452.3188 452.3188 453.0967 453.0967 453.0967
   455.1880 455.1880 455.1880 455.3447 455.3447 455.3447 455.4012 455.4012
   455.4012 455.4547 456.4432 456.4432 456.9427 456.9427 456.9427 457.4335
   457.4335 457.4335 458.8069 460.2419 460.2419 460.4135 460.4135 460.4135
   460.8454 460.8454 460.8454 461.0233 461.0746 461.0746 461.0746 461.4081
   461.4081 461.4081 461.6343 461.6343 461.9569 461.9569 461.9569 462.2914
   462.2914 462.2914 462.3301 462.3301 462.5486 462.5486 462.5486 462.5749
   462.5749 462.5749 462.9557 462.9557 462.9557 463.0663 463.4939 463.4939
   463.4939 463.5262 463.5262 494.9293 494.9293 494.9293 495.6918 495.7346
   495.7346 502.6507 502.6507 502.6507 509.3717 510.2166 510.2166 510.2166
   510.8475 513.2924 513.2924 513.9780 513.9780 513.9780 516.1580 516.1580
   516.1580 516.2779 516.2779 516.2779 516.5096 516.5096 516.5096 517.3345
   517.3345 520.6951 521.9133 521.9133 521.9133 523.4868 523.4868 523.5642
   523.5642 523.5642 526.1471 526.5629 526.5629 526.5629 527.3019 530.5252
   530.5252 530.5252 530.6359 530.6359 530.6359 530.6938 530.6938 530.6938
   530.7154 530.7154 530.7154 533.7949 533.7949 533.7949 533.8857 533.8857
   533.9362 533.9362 533.9362 533.9925 533.9925 534.0617 534.0617 534.0617
   534.1007 534.1007 534.1007 534.4599 534.4599 534.4599 534.4641 534.4641
   534.5039 545.5260 545.5260 545.5260 549.5921 549.7160 549.7160 549.9307
   549.9307 549.9307 549.9513 549.9513 549.9513 556.3107 556.3107 556.3107
   556.9504 556.9504 558.8808 560.5177 560.5177 560.5177 560.9282 560.9282
   560.9282 561.1903 561.1903 561.1903 561.7797 561.7797 561.7797 563.3506
   563.4228 563.4228 563.4228 563.4627 563.4627 566.2948 566.2948 566.2948
   571.6914 571.9423 571.9423 571.9423 572.1525 572.1525 572.1657 572.1657
   572.1657 579.7791 580.2880 580.2880 580.2880 580.9989 580.9989 580.9989
   581.9343 581.9343 581.9343 582.2088 582.2088 582.2088 582.2333 582.2333
   582.9873 583.4995 583.4995 583.4995 583.8238 584.5749 584.5749 584.5749
   584.5891 584.5891 584.6495 584.6495 584.6495 584.8286 584.8286 584.8286
   585.1144 588.2459 588.2459 588.2459 588.3284 588.3284 588.4874 588.4874
   588.4874 588.6360 588.6360 588.6360 588.7728 594.3500 594.3500 594.3500
   595.3507 595.3507 595.3507 595.3615 595.3615 595.3618 595.3712 595.3712
   595.3712 597.3273 597.3273 597.3273 597.3390 597.4144 597.4144 597.4144
   597.4486 597.4486 597.4574 597.4574 597.4574 618.4020 618.4020 618.4020
   621.5266 621.9074 621.9074 623.3403 623.3403 623.3403 623.7528 623.7528
   623.7528 623.9735 623.9735 623.9735 624.1585 624.1585 624.1585 625.2216
   625.2216 625.3584 625.3584 625.3584 625.5701 626.7737 626.7737 626.7737
   630.9828 633.3613 633.3613 633.3613 634.3274 634.9935 634.9935 636.0717
   636.0717 636.0717 638.7031 638.7031 638.7031 639.2332 639.3500 639.3500
   639.3500 639.5393 639.5393 639.5393 640.1496 640.1496 641.5594 641.5594
   641.5594 642.1314 642.1314 645.2660 645.2660 645.2660 646.9232 646.9421
   646.9421 647.7936 647.7936 647.7936 648.0677 648.0677 648.0677 648.3075
   648.3075 648.3075 648.8733 648.8733 649.0842 649.0842 649.0842 649.4199
   649.4199 650.6309 650.6309 650.6309 651.1066 651.1066 651.1066 651.1445
   651.2952 651.2952 651.2952 651.6011 651.6011 651.6011 651.7742 651.7742
   651.7742 651.9892 651.9892 651.9892 652.0601 653.2586 653.2586 653.2586
   654.4721 655.1506 655.1506 655.1506 656.0267 656.5629 656.5629 656.7063
   656.7063 656.7063 656.8899 656.8899 656.8899 657.1103 657.1103 657.1103
   657.4680 657.4680 657.4680 657.9130 657.9130 660.1307 660.1307 660.2987
   660.2987 660.2987 660.6881 661.0492 661.0492 661.0492 661.1836 661.1836
   661.1836 661.2867 661.2867 661.2867 661.5225 661.5225 661.5225 661.7489
   661.7489 661.9552 661.9552 661.9552 662.1185 677.9933 677.9933 677.9933
   680.3938 680.3976 680.3976 680.3976 680.4865 691.2631 691.2631 691.2631
   691.3374 691.3374 691.3415 691.3415 691.3415 691.3565 691.3565 691.3565
   691.3988 691.3988 691.4027 691.4027 691.4027 703.6151 703.6151 703.6151
   704.6349 704.6566 704.6566 705.2666 705.2666 705.2666 707.5402 707.5402
   707.5402 707.5671 707.5671 707.5671 707.5756 707.5756 707.5756 707.7569
   707.7569 707.7569 709.2800 709.2800 709.4742 713.8087 713.8087 713.8185
   713.8185 713.8185 713.8427 714.9591 714.9591 714.9591 715.1044 715.1044
   715.1044 715.1473 715.1473 715.1473 715.1690 715.1690 715.1690 716.3904
   716.3904 716.4153 716.4153 716.4153 716.4614 739.7964 739.7964 739.7964
   744.0690 744.5776 744.5776 744.5776 744.9497 747.3681 747.3681 747.3681
   747.3774 747.3774 747.4039 747.4039 747.4039 747.6210 747.6210 747.6210
   747.7424 747.7424 747.7936 747.7936 747.7936 752.7975 752.7975 752.7975
   757.9898 757.9898 757.9898 757.9958 757.9958 758.1158 758.1158 758.1158
   758.4106 763.5984 763.5984 763.5984 766.6352 767.0244 767.0244 767.0244
   767.9932 769.7209 769.7209 769.7209 771.7228 771.7228 771.7228 771.7386
   771.7386 771.7503 771.7503 771.7503 772.0437 773.3496 773.3496 773.6190
   773.6190 773.6190 774.4991 774.4991 774.4991 774.7105 774.7105 774.7105
   774.7140 774.7140 774.7140 774.7905 774.9191 774.9191 775.8828 775.8828
   775.8828 776.2482 776.2482 776.2482 776.4837 778.9367 778.9367 779.0625
   779.0625 779.0625 779.0757 779.0757 779.0757 779.1211 779.1211 779.1211
   779.2126 779.2126 779.2137 779.2137 779.2137 781.9488 781.9488 781.9488
   782.0762 782.0762 782.1083 784.6414 784.8107 784.8107 784.8107 784.9545
   784.9545 784.9545 785.0592 785.0592 785.0592 785.0636 785.0636 787.8231
   787.8231 787.8231 788.2248 788.2248 788.2248 788.2348 788.2348 788.2348
   788.2358 788.2358 788.3010 799.8592 799.8592 799.8592 804.2217 804.4033
   804.4033 806.1319 806.1319 806.1319 806.1655 806.1655 806.1655 806.6232
   806.6232 806.6232 806.6581 806.6581 807.7014 810.3405 810.4216 810.4216
   810.4216 810.5078 810.5078 810.5078 810.6335 810.6335 810.6335 810.6702
   810.6702 813.0973 813.0973 813.0973 813.6475 813.6475 813.6475 813.8373
   813.8373 813.8373 814.6059 814.8156 814.8156 815.7826 815.7826 815.7826
   816.6026 816.6026 816.6026 816.6195 816.6195 816.6195 817.0785 817.0785
   817.0785 817.5230 817.5230 817.5313 817.5313 817.5313 817.7557 817.7557
   817.7557 817.9314 817.9314 817.9314 818.0840 820.0947 820.0947 820.1343
   820.1343 820.1343 820.2034 827.9317 827.9317 827.9317 834.1433 834.9419
   834.9419 834.9419 835.1940 835.1940 835.9079 836.1846 836.1846 836.1846
   836.2100 836.2100 836.2100 837.0550 837.0550 837.0550 837.0691 837.0691
   837.0691 837.4322 837.4322 837.9399 837.9399 837.9399 838.0130 838.0130
   838.0130 838.3124 838.5461 838.6407 838.6407 838.7712 838.7712 838.7712
   839.5290 839.5290 839.5290 839.9726 839.9726 839.9726 840.4124 840.4124
   840.4407 840.4407 840.4407 840.8247 840.8247 840.8247 840.9673 840.9673
   840.9673 840.9724 840.9724 841.1526 841.2237 841.2237 841.2237 841.4738

          k =-0.1667 0.1667-0.1667 (  2433 PWs)   bands (ev):

    -5.3563   7.1330   9.1610   9.1610  15.8892  17.3858  17.3859  17.8774
    22.4557  22.4557  25.1828  28.5281  30.0415  30.0415  35.6764  41.2859
    41.5905  41.5905  47.5825  47.5825  51.9652  52.2230  52.2230  57.5562
    62.5409  62.5409  64.1362  66.0720  66.0720  69.3973  69.3973  69.5020
    70.4731  70.4731  72.5648  75.1455  75.2182  75.2182  77.0491  78.5659
    79.6335  79.6335  79.8819  82.3913  82.7196  82.7196  85.3481  85.3481
    87.3063  88.0976  88.0976  89.2321  90.6618  93.8279  93.8279  95.7990
    95.9442  95.9442 102.7850 106.1099 106.7959 106.7959 111.1284 112.2379
   112.2379 116.1894 118.7311 118.7312 123.3327 123.8013 123.8013 126.2587
   126.2587 129.2907 129.2908 129.4300 132.7762 132.9494 132.9494 135.1763
   135.5512 135.5512 137.0479 138.8151 139.2471 139.2471 141.7080 141.7080
   143.2343 144.0855 144.0855 144.1972 145.5341 148.8897 148.8897 149.3874
   150.3199 150.3199 151.3108 153.6729 153.6729 153.9140 157.4879 157.4879
   157.8026 158.7778 158.7778 159.6929 159.7100 159.7100 162.8463 162.8463
   166.3531 166.4644 166.4644 169.1012 169.1012 170.0781 170.1194 171.8053
   171.8053 172.2061 175.1653 175.1653 176.5642 178.4459 178.5821 178.5821
   182.2777 183.3713 183.3713 185.4249 186.1735 187.4866 187.4866 189.1369
   189.1369 191.6046 191.7272 191.7272 193.1667 193.9153 193.9153 194.9031
   195.5238 197.1369 197.1369 198.5383 198.5383 198.7495 202.0706 202.7224
   202.7224 208.9170 208.9170 210.2405 211.5374 211.5374 211.9475 214.2444
   215.0087 215.0087 215.7821 215.7821 216.8628 221.2764 221.2764 221.4536
   221.5154 224.6076 224.6076 228.6730 230.5484 230.5484 231.9260 233.3048
   233.3048 233.9221 235.2381 235.2381 236.0759 240.8197 240.8197 244.2731
   244.7742 244.7742 247.2847 247.2847 248.0769 248.3263 250.2907 250.2907
   251.2868 254.0960 254.0960 254.1087 255.8501 255.8501 256.1133 256.1133
   256.6160 257.3678 258.1990 260.1279 260.1279 261.0020 261.4108 261.4108
   262.1173 262.1173 263.1371 264.7332 264.7332 265.4145 266.4295 267.1846
   267.1846 268.3958 268.3958 271.0151 271.4288 271.6742 271.6742 272.7166
   272.7166 273.9746 274.2504 274.2504 274.8860 277.3089 277.7075 277.7075
   278.3357 279.8753 279.8753 280.6932 280.6932 280.7687 282.3207 282.3207
   284.2165 285.4162 285.4162 286.9916 286.9916 287.1197 287.4179 288.9520
   288.9520 289.2359 289.4844 289.4844 289.9837 291.1676 292.4785 292.4785
   292.6811 295.1172 295.1172 295.5525 295.6337 295.6337 296.6321 296.6321
   297.0291 298.3616 300.3324 300.6724 300.6724 301.0912 301.5942 301.5942
   305.7947 305.7947 307.7769 307.7769 309.4579 311.8079 311.8079 312.6969
   313.7487 313.7487 316.2137 316.7080 316.8600 316.8600 320.2728 320.2728
   321.2244 322.7733 322.7733 323.0749 324.7287 324.7287 326.4618 326.9622
   326.9622 327.5603 327.6983 327.6983 327.7898 328.3464 328.3464 329.8408
   332.1770 332.1770 332.8572 335.3700 335.3700 335.3964 338.0203 340.9272
   340.9272 342.3668 342.5410 342.5410 343.9998 345.7077 346.0514 346.0514
   346.3373 351.9210 351.9210 352.1300 354.2179 354.2179 355.2150 357.0027
   357.0027 357.7320 358.2017 358.2017 359.3314 359.3314 360.4754 363.3289
   364.4402 364.4402 366.2263 366.2263 367.2134 368.4926 369.7912 369.7912
   371.6101 371.6101 373.5145 375.6367 375.6367 376.1526 377.0433 377.0433
   377.5574 378.9211 378.9211 379.0439 379.6895 379.6895 380.4919 380.4919
   380.9133 381.1826 382.4146 382.4146 382.5695 383.4304 383.4304 383.4601
   387.9532 388.4775 388.4775 392.5100 392.5100 392.7679 393.7408 396.6293
   396.6293 398.6880 400.2749 400.2749 400.4847 402.4464 402.4464 402.8363
   402.9421 403.0778 403.0778 403.5017 403.5017 404.0460 404.9971 404.9971
   405.3899 405.3899 406.5710 407.4618 407.8952 407.8952 409.5230 410.6558
   410.6558 410.8458 412.4347 412.6460 412.6460 412.7595 412.7595 412.8436
   415.3023 415.9481 415.9481 416.6029 418.2556 418.4246 418.4246 419.0611
   419.0611 419.9962 419.9962 420.1960 420.7589 421.9502 421.9502 422.8960
   425.2018 425.2018 425.3009 425.8559 425.8559 427.4117 428.6390 428.6390
   428.6860 428.8066 428.8066 431.3235 431.3235 431.5257 432.1195 432.1195
   432.7754 432.7754 433.0400 433.0400 434.6949 434.7413 434.7413 434.9846
   434.9987 434.9987 435.3479 435.3479 435.7775 436.9058 436.9058 437.4286
   439.0209 439.0209 439.1727 439.9868 439.9868 440.0589 443.1822 443.1822
   443.1826 445.5369 445.5369 445.7704 446.8825 446.8825 447.0161 448.1872
   448.1872 448.9156 449.8316 450.5106 450.5106 450.7648 451.7287 451.7287
   453.5328 454.4683 454.6793 454.6793 455.0828 455.0828 455.3062 457.1936
   457.1936 457.9269 459.9309 459.9309 461.2201 461.2201 461.5714 463.0671
   463.0671 463.2436 468.3520 468.3520 468.9164 469.0578 469.0578 469.6744
   469.6744 470.3732 470.3912 471.0435 471.4488 471.4488 472.8261 472.8261
   473.0547 473.3883 475.0742 475.0742 475.3225 478.4093 478.8073 478.8073
   480.2738 482.2614 482.2614 482.5168 482.5168 483.4579 483.9819 484.0663
   484.0663 485.6752 485.6752 489.1861 490.5690 491.2600 491.2600 491.7988
   491.8134 491.8134 492.6827 496.0760 496.0760 497.0398 497.0398 498.1069
   498.1069 498.5020 499.5031 501.4141 501.4141 506.4442 506.4442 506.9151
   507.2054 507.2054 508.7765 509.6919 509.6919 509.8249 515.4421 515.4421
   515.9418 516.5052 516.5052 516.5958 517.5654 517.5654 517.5836 517.6180
   518.1161 518.1161 518.5310 518.5310 518.5545 518.8212 519.6576 519.6576
   525.7403 525.7403 526.8099 528.8490 528.8490 529.4772 529.6394 529.6394
   529.8762 533.1122 533.1122 534.2298 534.6976 535.6751 535.6751 536.8079
   538.5733 538.5733 539.6069 539.8691 539.9342 539.9342 540.2725 540.2725
   540.5615 540.9777 540.9777 543.5479 545.3264 546.2556 546.2556 547.1021
   548.3197 548.3197 548.5027 549.0235 549.0235 549.6199 549.9430 549.9430
   550.3925 550.3925 550.4229 551.5982 551.5985 551.5985 551.7517 551.8592
   551.8592 552.3757 552.3757 552.7498 553.1474 553.1876 553.1876 555.1646
   556.4578 556.4578 558.6839 558.6839 558.8005 559.5567 559.7904 559.7904
   559.9026 560.5214 560.5214 561.6647 563.8543 563.8543 567.1754 568.7313
   568.7313 570.4186 570.7312 570.7312 570.7482 570.7812 570.7812 570.8352
   571.3301 571.3301 572.6693 572.6693 572.7535 577.7719 579.1705 579.1705
   579.9930 579.9930 580.2577 580.6570 580.6570 580.6903 581.7347 581.7347
   582.1172 584.2811 584.2811 584.3475 584.9936 584.9936 585.2306 585.7088
   585.7088 585.7392 588.2601 590.5505 590.5505 591.1867 591.7071 591.7071
   591.8067 591.8067 591.8468 592.4479 592.4479 593.2503 593.3583 593.3583
   593.5273 593.5273 593.6095 593.6288 593.8033 593.8033 594.0553 594.6891
   595.5407 595.5407 596.1175 600.7339 600.7339 601.0296 602.2883 602.2883
   602.4093 602.6811 602.6811 603.0407 603.2972 603.2972 609.1269 609.4851
   609.4851 610.6380 610.6380 611.9192 611.9192 612.2495 613.0058 614.3846
   614.3846 614.4325 614.6515 615.2160 615.2160 615.6674 615.6933 615.6933
   615.9076 616.1315 616.1315 618.4673 619.6711 619.6815 619.6815 620.5420
   620.5420 621.0472 621.9501 621.9501 622.4478 622.7170 622.9199 622.9199
   623.8755 623.8755 624.2237 624.2237 624.3072 624.7471 627.5922 627.5922
   628.4923 628.4923 628.5844 629.6560 630.1573 630.1573 630.2516 631.9668
   631.9668 632.0248 632.9657 633.0310 633.0310 633.4387 633.4387 633.4637
   634.1174 634.1594 634.1594 634.2833 634.2833 634.3451 635.6371 635.6371
   635.8464 637.8588 637.8588 638.1164 638.5788 639.6176 639.6176 639.9039
   644.0368 644.0368 644.0744 644.2859 644.2859 644.7962 648.6011 648.6221
   648.6221 649.1415 649.1415 649.5135 649.7394 649.7394 650.0157 650.0157
   650.3708 653.7111 653.7111 653.9861 655.3184 655.3184 655.4737 655.5548
   655.7639 655.7639 657.5930 657.5930 657.7433 658.6252 658.6252 658.9373
   659.9108 660.1811 660.1811 662.9596 663.3590 663.3590 664.8705 664.9600
   664.9600 665.9593 665.9593 666.0812 666.8988 668.1369 668.1369 668.9732
   668.9732 669.1348 671.5133 671.7334 672.0891 672.0891 673.0354 673.0354
   673.0508 673.5208 673.5208 674.2500 675.2107 675.3147 675.3147 676.3099
   676.3099 676.6483 676.6483 676.7143 676.9731 676.9731 677.1340 678.8355
   679.9729 680.0197 680.0197 680.4569 680.6313 680.6313 681.0403 681.0403
   681.4866 681.7236 681.7236 683.2116 683.2116 683.3716 684.8595 684.8595
   684.8907 685.9993 686.0986 686.0986 688.6181 688.6181 691.3912 691.6339
   691.6339 691.6468 692.5776 693.2074 693.2074 693.7869 694.5860 694.5860
   694.6291 695.5216 695.5216 696.3220 696.3220 696.5646 699.1575 699.1575
   699.7724 701.9074 702.3623 702.3623 702.4139 702.8612 702.8612 702.8761
   706.0898 706.0898 711.0314 711.1167 711.1167 716.8468 719.4526 719.4526
   720.4201 720.4201 720.5857 721.5454 723.5004 723.6641 723.6641 725.9872
   727.0467 727.0467 727.1871 727.5050 727.5050 727.5405 728.0963 728.0963
   728.6227 730.6882 730.6882 730.7562 733.3946 733.6582 733.6582 734.2121
   734.2121 735.0178 735.0178 736.7891 736.7891 737.2115 740.2049 740.2198
   740.2198 741.9507 741.9507 742.0874 742.6754 742.6754 742.8400 744.8419
   744.8419 745.6704 746.5022 746.5022 746.8762 747.7074 747.7074 747.8848
   748.6573 748.6573 749.4952 750.1796 750.1796 750.2371 751.3850 751.3850
   751.8781 752.0647 752.1634 752.1634 753.3950 753.6586 753.6586 755.7557
   755.7557 756.0964 757.4326 757.4326 757.6033 758.0448 758.0448 758.6310
   761.1291 761.1291 761.2166 763.9023 763.9023 764.1428 766.5786 766.5786
   766.8457 767.5363 767.5363 768.2163 768.9381 768.9381 769.2234 769.8086
   769.8086 769.8435 771.7773 771.7773 773.0617 773.1238 773.1238 773.3344
   773.6985 773.6985 774.7237 775.3602 776.7604 776.7604 778.2029 778.2029
   778.5152 780.1446 780.1447 780.5054 782.2951 782.3638 782.3638 783.2195
   783.2328 783.2328 783.9548 783.9548 784.0301 784.3724 785.0248 785.0248
   785.7774 786.6010 786.6010 787.0380 788.9994 790.0480 790.0480 790.5163
   790.5163 791.4940 791.5393 791.5393 791.6247 791.9343 791.9397 791.9397
   792.5430 792.5905 792.5905 794.9140 794.9140 795.4410 795.5996 795.5996
   797.1228 797.1228 797.2348 797.3464 797.3464 797.4574 798.5033 798.7282
   798.7282 799.4457 799.4457 799.6662 799.9689 800.0462 800.0462 800.3875
   800.5194 800.5194 800.6082 800.8027 800.8027 801.3583 801.3638 801.3667
   801.3667 803.5466 804.5428 804.5428 805.9219 805.9219 806.2492 806.9139
   808.0098 808.0098 808.9619 809.4071 809.4071 809.9666 810.2076 810.2076
   810.9711 810.9711 811.4441 811.5772 811.5772 811.7705 812.1958 812.1958
   812.2129 812.2743 813.2257 813.2257 813.4495 814.0678 814.0678 814.0750
   815.2781 815.2781 816.9488 818.1059 818.1059 818.9462 819.9597 819.9597
   820.0513 822.3648 822.6025 822.6025 823.8004 823.8004 824.3279 824.3933
   824.3933 824.6283 824.6283 824.6790 825.8490 825.8490 825.8731 826.2220
   826.2220 826.5310 827.0296 827.0296 827.2550 828.1105 828.1105 828.1300
   829.5227 829.5227 829.5539 830.1145 830.1145 830.2311 832.8190 832.9169
   832.9169 833.2738 833.2738 833.6057 834.2014 834.2143 834.2143 834.6052
   834.6052 834.6813 838.8402 838.8402 838.8433 838.9738 840.1216 840.1216
   842.4861 844.1133 844.1133 844.7630 845.3029 845.3029 846.4092 846.8790
   846.8791 847.0760 847.0760 847.2587 847.5181 847.8417 847.8417 847.8570
   848.3889 848.3889 848.5373 848.6848 848.6848 850.5298 850.5298 851.0610

          k =-0.3333 0.3333-0.3333 (  2442 PWs)   bands (ev):

    -3.8265   3.3374   8.6551   8.6551  15.2222  17.1862  17.1862  19.4190
    23.7668  23.7668  24.7821  32.2163  32.6469  32.6469  37.5938  39.3866
    39.3866  43.0864  46.0953  46.0953  49.5302  52.8676  52.8676  57.1839
    57.1839  58.9984  61.1981  64.3504  64.4110  64.4110  66.0932  66.0932
    69.8068  70.4386  73.9896  73.9896  75.1179  76.2791  76.2791  78.1287
    78.9267  78.9267  79.3813  83.6908  86.5883  86.5883  89.3215  89.3215
    89.4631  95.6650  95.6650  96.1739  98.8597  99.5518  99.5518 100.4534
   101.3820 101.3820 102.2228 104.3456 104.5411 104.5411 108.2670 108.2670
   109.7579 109.7579 112.8697 117.1047 117.1047 120.4288 121.6438 123.7934
   124.7841 124.7841 125.5719 126.1118 126.1118 127.8710 127.8710 130.6389
   132.5749 132.5749 133.4510 139.6617 139.9850 139.9850 141.6959 141.6959
   142.2507 142.8345 142.8345 145.0521 146.1750 146.1750 147.4228 149.8617
   149.8617 151.9118 153.2639 154.0271 154.0271 157.6022 158.6235 158.6235
   159.2116 161.5850 161.5850 163.0789 163.0789 163.7652 163.8172 166.0902
   166.0902 166.5660 167.7100 169.1248 169.1248 170.8196 173.4244 173.4244
   176.4129 176.4129 177.4117 178.7894 178.7894 180.8871 180.9297 180.9297
   183.4354 183.6245 183.6245 184.0865 184.0865 184.4552 187.0567 187.7943
   189.9406 189.9406 190.6702 190.6702 191.8090 192.7383 192.7383 193.5385
   195.5749 196.9859 196.9859 198.0982 198.0982 198.8755 203.9628 203.9628
   205.6485 208.0169 213.1779 213.1779 214.8000 218.7938 218.7938 220.6895
   220.6895 221.3081 222.1533 222.1533 222.7661 225.0827 225.0827 225.7153
   225.9823 225.9823 227.0626 227.3215 229.6163 229.6163 230.7575 230.7575
   232.3777 232.3777 232.8836 234.0886 235.5508 235.5508 236.3611 236.4523
   236.4523 237.4428 238.5532 238.5532 239.5299 241.6493 241.6493 242.4845
   244.9906 244.9906 245.3944 245.5081 245.5081 249.9361 251.4379 251.4379
   253.4202 253.4202 253.6081 253.8390 255.5927 257.6450 257.6450 259.4612
   261.9198 261.9198 262.4607 263.6236 263.6236 265.2479 266.0395 267.4072
   267.4072 267.4733 270.1288 270.1288 270.5475 270.7216 270.7216 271.2991
   273.3316 273.3316 273.7843 274.4055 274.4055 275.7528 275.7528 277.2880
   279.3254 279.3254 279.8953 281.1085 281.1085 282.1547 282.1547 282.1881
   283.1847 286.4401 286.4401 286.5165 288.1974 289.4170 289.4170 290.7324
   290.7324 291.8014 291.8721 291.8721 292.3313 294.5867 294.6815 294.6815
   294.9717 296.2216 296.2216 298.4334 298.4334 302.5298 303.3095 303.3095
   304.0061 305.2874 305.2874 305.7798 308.7836 309.4517 309.6882 309.6882
   309.8521 310.7892 310.7892 312.1754 313.5315 313.5315 314.6829 314.6829
   315.1756 315.3280 315.3280 317.0867 320.0728 320.0728 322.6326 322.7195
   322.7195 323.7744 325.1327 325.1327 325.4253 326.2066 327.4919 327.4919
   328.2068 328.6187 328.6187 329.6683 333.4991 333.4991 333.9031 335.8071
   335.8071 337.7801 337.7801 338.0693 340.9121 340.9121 341.9089 345.6016
   345.6016 347.6630 347.6630 347.9883 348.3671 349.3103 349.3103 351.1495
   352.2121 352.2121 352.4697 352.7522 352.7522 353.2758 353.2758 354.0351
   354.6869 355.3605 356.2437 356.2437 356.7010 356.7010 357.6624 358.4556
   358.5085 358.5085 359.7474 359.8214 359.8214 360.5348 362.9654 363.0828
   363.0828 367.1624 367.1624 368.7782 368.7782 370.0829 372.6068 372.6068
   373.5479 374.0801 374.0801 374.3354 375.3906 375.3906 377.0686 377.8931
   378.2436 378.2436 378.6614 379.1094 379.1094 379.1923 383.3768 383.3768
   384.6160 387.2331 387.7255 387.7255 388.9380 388.9380 392.6350 392.6786
   392.8014 392.8014 393.6197 393.6197 394.8819 395.4242 395.4409 395.4409
   395.8459 395.8459 396.0568 399.3970 399.3970 400.0395 400.0395 400.0531
   402.4132 402.4132 403.1177 403.1265 403.1265 403.1750 405.9647 405.9647
   406.1823 409.9118 409.9118 410.8646 411.8742 411.8742 412.1605 412.7144
   412.7144 412.8625 414.9141 414.9141 415.2264 415.3978 415.3978 415.4942
   417.4715 417.4715 417.8462 420.2527 420.2527 421.0038 422.8906 422.8926
   422.8926 426.0276 426.0276 426.4403 427.6863 427.6863 427.8791 429.3719
   430.5411 430.5411 431.3221 431.7700 431.7700 434.4160 434.4160 434.9195
   435.0576 435.1290 435.1290 435.7791 436.1228 436.4841 436.4841 437.9296
   438.1139 438.1139 438.7217 438.7217 439.0621 439.9965 441.5788 441.5788
   443.0347 444.1316 444.1316 444.6582 444.6582 444.7008 445.0989 446.7353
   447.0988 447.0988 449.0489 449.2839 449.2839 449.4495 449.4495 449.6979
   449.6979 449.8927 453.6657 453.6657 453.8406 454.9181 455.1080 455.1080
   455.5959 456.6852 456.6852 458.2611 459.6694 459.6694 460.0503 462.9604
   463.6279 463.6279 463.7890 463.7890 468.8461 468.8461 469.8345 471.6902
   471.8523 471.8523 472.9297 472.9297 472.9854 474.6776 474.7241 474.7241
   477.6470 477.6470 479.2853 479.5323 479.5323 480.0277 480.1629 480.1629
   480.3442 480.3442 480.4060 480.5875 480.7693 482.5456 482.5456 483.6909
   484.4791 484.4791 484.9593 485.9293 485.9293 486.4935 487.6631 487.6631
   487.8529 488.4356 488.9171 488.9171 493.0411 493.0411 495.3475 495.3475
   495.7474 496.5663 496.5663 496.8174 498.8345 499.0011 499.0011 499.4544
   499.4544 500.0709 501.6851 501.6851 503.2844 503.5273 503.5647 503.5647
   504.3779 504.3779 504.4494 504.4722 507.7572 507.9869 507.9869 508.6184
   508.6184 508.9027 509.4096 509.4096 509.4688 512.9881 513.7403 513.7403
   514.8999 515.9617 515.9617 516.6510 516.6510 516.6993 519.0141 519.0141
   519.4095 519.9961 520.0279 520.0279 521.6011 521.6011 522.1572 522.4944
   522.4944 522.8468 523.6052 524.3371 524.4578 524.4578 526.3455 526.9276
   526.9276 529.9028 529.9028 530.7864 531.4903 531.4903 531.5560 533.1572
   533.1572 536.4534 536.4534 538.2814 540.4147 540.4147 540.4603 542.2520
   542.2520 542.6906 543.9056 544.0790 544.0790 549.3227 549.3227 549.6896
   549.9518 550.1027 550.1027 551.5743 551.5743 552.1920 554.3873 554.5339
   554.5339 555.7242 557.8643 557.8643 558.5754 559.3886 559.9850 559.9850
   560.6901 560.6901 563.5181 563.7308 563.7309 564.1601 564.1601 564.2642
   565.5079 565.8645 565.8645 566.5047 566.5047 566.6971 567.4843 567.4843
   568.5407 568.5975 568.5975 568.6124 569.5964 569.5964 569.6267 572.9633
   572.9633 575.5800 575.7692 578.1350 578.1350 579.1747 579.6788 579.6788
   579.8207 579.8945 580.0103 580.0103 581.9963 581.9963 582.6437 582.7458
   582.7458 583.8553 583.8553 584.2545 584.2545 584.3617 584.4489 585.9636
   587.9502 587.9502 588.0572 588.4785 588.4785 589.0418 589.5620 589.9243
   589.9243 590.0115 590.0115 591.2248 591.2248 591.3054 594.2830 594.2831
   594.6332 595.3259 595.4008 595.4008 596.5999 596.5999 597.0314 597.8624
   598.3902 598.3902 598.7567 599.3463 599.3463 599.4271 599.4367 599.7436
   600.4819 600.4819 602.3253 602.3253 603.7527 605.0261 605.0261 605.4018
   605.4018 605.4609 605.5242 605.8806 605.8806 605.9114 607.2556 607.2556
   607.8811 608.3005 608.8702 608.8702 608.9678 608.9678 609.1054 609.5833
   609.5833 610.0143 610.0143 610.7271 610.7271 610.7764 611.1155 611.1155
   611.1767 613.5346 613.5363 613.5363 614.0090 614.0090 614.1352 616.2901
   616.5371 616.5371 618.8748 618.8748 619.3890 620.2149 620.2214 620.2214
   626.6625 626.6625 626.6918 628.5076 628.5076 629.3559 630.9208 630.9208
   631.0825 632.2952 634.1600 634.1600 637.0443 637.0443 637.6761 638.2735
   638.2735 638.6000 640.2153 640.9043 640.9043 645.4331 645.4331 645.9662
   646.5008 646.5498 646.5498 646.9570 646.9570 646.9952 647.4612 647.4612
   648.0155 648.4868 648.4868 648.5361 649.0157 649.1096 649.1096 649.3271
   649.5220 649.5220 649.7160 650.6151 650.6151 652.3633 652.6989 652.6989
   654.1211 654.1622 654.1622 654.9199 654.9199 655.0750 655.9234 655.9234
   655.9396 657.8973 657.8973 658.4357 660.4159 660.4159 660.4931 660.9854
   662.6838 662.6838 662.8512 664.2012 666.0590 666.0590 668.5666 668.6378
   668.6378 670.8801 670.8801 671.5074 671.8360 671.8814 671.8814 672.4986
   672.4986 672.5654 673.0597 673.0729 673.0729 674.0030 674.0030 674.2472
   676.5574 676.5574 676.6358 677.7267 677.7267 677.8070 678.0196 682.5603
   682.5603 683.5877 683.9168 683.9168 684.2914 685.0029 685.0029 685.7485
   687.4985 688.1868 688.1868 689.4170 689.4170 690.0099 690.4351 690.4351
   690.4761 691.2275 691.2275 691.3528 691.3925 691.3925 691.6102 691.6275
   691.6276 693.1760 693.7212 693.7212 695.1513 695.5295 695.5295 696.9824
   697.8236 697.8236 699.6539 699.6539 699.6887 699.8378 699.8378 699.9200
   701.8897 701.8897 702.0921 704.9534 704.9534 705.6247 706.9732 706.9732
   707.0318 707.7871 707.7909 707.7910 707.8661 708.2591 708.2591 713.0662
   713.2532 713.2532 713.2746 713.3713 713.3713 713.6822 713.9095 713.9095
   714.3688 715.3364 715.3364 715.3443 717.3973 717.5428 717.5428 719.9238
   719.9238 724.7303 725.5636 725.5636 727.2288 727.2288 727.7943 729.0198
   729.0198 729.3998 729.3998 730.1835 731.0584 731.7190 731.7190 731.8724
   731.9102 732.9634 732.9634 733.7565 733.9274 733.9274 734.2219 734.2219
   734.4608 734.7842 735.5547 735.5547 735.9347 736.1386 736.1386 738.9326
   738.9326 739.7807 743.3535 743.3535 743.4525 744.0594 744.0594 744.3182
   744.4004 744.7923 744.7923 747.3872 747.3872 747.4069 747.8648 748.1719
   748.1719 748.8345 748.8345 748.9400 749.4604 750.4897 750.4897 750.5324
   750.6973 750.6973 750.7007 752.7844 752.7844 754.1776 755.0418 755.0418
   755.7911 756.7114 756.7114 756.9566 756.9566 757.3349 757.6588 757.8061
   757.8061 758.2221 761.2334 761.6044 761.6044 762.8772 762.8772 763.2103
   763.2214 763.2214 763.4687 764.2852 764.2852 764.5538 765.9547 769.1581
   769.1581 770.8967 771.7240 771.7240 771.9338 772.2685 772.4130 772.4130
   772.6310 772.6650 772.6650 772.9831 772.9831 773.1350 773.3573 773.3573
   773.4526 773.4526 773.8206 773.9095 775.5436 775.8274 775.8274 778.1399
   778.1399 778.2852 778.2852 778.2966 778.4273 779.4438 779.4438 782.7401
   782.7401 783.1311 783.2539 783.2539 783.2812 783.8380 783.8380 783.8671
   786.2511 786.2511 786.4359 787.0735 787.0735 787.8280 791.9547 791.9547
   792.6643 792.8101 792.8915 792.8915 793.2911 793.2911 793.5021 793.6255
   793.6255 793.7428 793.9394 794.0820 794.0820 794.8706 794.8706 795.0439
   795.9668 795.9668 796.0191 798.0623 798.1823 798.1823 798.2265 798.4508
   798.4508 798.6648 803.4453 803.4453 810.1630 810.1630 811.3695 812.1976
   812.3595 812.3595 812.6159 812.6159 812.9617 813.0684 813.1350 813.1350
   813.4575 813.4575 813.9622 813.9622 814.2851 814.5367 814.7824 814.7824
   815.5516 815.6434 815.9662 815.9662 816.1896 817.1579 817.2078 817.2078
   818.2154 818.2154 818.2392 818.5817 818.5817 818.6136 820.0143 820.0143
   823.5796 823.7720 823.7720 824.0538 824.0538 824.7880 824.7880 824.9391
   825.0956 826.9287 826.9287 827.5799 827.6149 827.6149 827.7121 828.3719
   828.3719 828.3891 828.4256 828.4312 828.4312 830.0091 832.9033 832.9033
   833.0918 834.8966 834.8966 836.1452 836.1452 836.2102 836.6729 836.6729
   836.7463 836.8063 836.9261 836.9261 836.9902 836.9902 837.0238 837.4460
   837.4460 837.7001 841.2072 841.4755 841.4755 843.1065 843.1065 843.3424
   845.7765 848.2651 848.2651 851.9007 851.9007 852.3619 854.0825 854.5746
   854.5746 856.1102 856.1102 856.3530 856.7481 856.7481 856.8834 857.0709
   857.0709 857.0732 857.3039 857.3039 857.5335 857.8218 857.8218 857.9778

          k = 0.5000-0.5000 0.5000 (  2452 PWs)   bands (ev):

    -2.3203   0.9734   8.4494   8.4494  14.9656  16.7641  16.7641  19.5497
    25.7134  26.6964  26.6964  29.8012  29.8012  32.0827  41.8025  42.2159
    42.3773  42.3774  45.5346  45.5346  51.1583  51.1583  51.4368  53.4135
    54.3090  54.3090  60.1208  63.8175  63.8175  64.4183  64.4183  65.0718
    67.3824  69.7823  74.2323  74.7594  74.7594  76.4067  76.4067  78.2119
    79.4579  84.1689  84.9519  84.9519  89.7668  89.7668  91.4277  91.4277
    91.5240  93.6903  93.6903  94.6602  98.3787  98.3787  98.7640 101.1719
   101.1719 104.4809 105.2257 105.2257 107.4773 107.4773 111.2364 111.7384
   111.8802 112.3169 113.8832 113.8832 114.2610 114.2610 115.1265 119.2953
   122.7176 123.4759 123.4759 124.4777 124.4777 125.3529 125.3529 127.0897
   127.0897 132.9937 133.9901 133.9901 138.1119 139.5199 142.0847 142.0847
   143.1018 144.9449 146.2670 146.2670 146.7462 148.4501 148.4501 151.7859
   151.7859 153.1855 153.9490 153.9843 153.9843 155.5456 157.0988 157.0988
   157.2100 157.4091 157.4091 158.0222 164.9128 165.6411 165.6411 168.5444
   168.5444 172.2533 172.7952 172.7952 173.9412 174.0054 174.0054 174.4862
   174.7041 175.0964 177.0679 177.0679 177.9527 177.9527 178.9952 180.1423
   180.1423 181.5755 181.6376 181.6376 182.7625 188.2331 188.2331 189.6291
   190.8025 190.8025 191.6858 195.0115 195.0115 195.1541 195.1541 198.7390
   202.9262 202.9262 203.0651 203.0651 203.8929 206.8049 206.8515 206.9556
   209.5362 209.5362 210.1902 210.4277 210.4277 210.4503 210.4503 211.0028
   211.0028 216.9264 216.9264 217.8229 217.8229 217.9770 218.7734 219.8623
   227.2127 227.2127 230.4659 230.4659 230.7341 231.6923 232.1845 232.7169
   232.7169 233.9055 233.9055 234.0959 235.3134 235.3134 236.6808 237.1805
   237.7651 238.1034 238.1034 244.0012 244.0732 244.0732 244.9796 244.9796
   246.8146 248.7692 248.7692 249.2322 251.1601 251.1601 251.2759 251.2759
   251.6059 251.6059 252.1826 252.8846 252.8846 253.0949 253.0949 253.2865
   253.5668 257.4941 259.4899 259.4899 260.3553 261.0086 261.0086 262.4440
   263.1076 266.3189 266.4128 266.4128 266.6950 266.6950 267.6701 267.6701
   269.2019 269.2019 269.7771 270.5399 276.4775 276.4775 278.9861 279.2580
   279.2580 279.6108 280.5283 282.3948 283.9169 283.9169 284.8253 284.9566
   284.9566 285.8400 285.9190 285.9190 286.1972 287.6174 287.6174 291.4789
   291.4789 291.6609 292.2324 292.4270 292.4270 293.5594 297.2557 297.6303
   297.6303 299.7612 299.7612 302.7020 303.2611 303.8044 303.8044 303.9369
   303.9369 304.0601 304.2234 304.2234 304.3550 304.4745 304.4745 304.5846
   310.6901 317.6367 317.6367 319.3638 319.3638 321.7179 322.8291 322.8291
   323.8393 323.8393 324.7602 325.5811 326.0656 326.0656 326.2677 326.2677
   327.6049 329.7718 330.6946 330.6946 330.7279 331.0953 331.1228 331.4018
   331.4018 332.8839 334.1620 334.1620 334.1765 335.1819 335.1819 337.9059
   338.2881 338.2881 339.1832 339.1832 341.1280 341.4824 341.4824 341.9719
   341.9719 343.2383 343.4216 343.4216 344.2648 344.2648 344.6437 347.0703
   347.0703 347.0820 347.1552 347.1552 347.4296 347.7582 348.2479 348.2479
   348.3665 348.3665 349.8065 349.8235 353.8101 356.9517 358.3680 358.3680
   360.2398 360.3214 360.3214 362.2495 365.0022 365.0022 365.1410 365.1410
   367.1240 367.1241 367.6564 368.3582 368.3582 370.2398 372.7829 372.7829
   372.8906 373.0814 373.0814 373.7492 374.9187 374.9187 375.6386 375.6399
   376.0243 376.0243 378.5120 378.5120 379.6143 379.6220 379.6220 379.7936
   380.5068 380.5068 380.7640 380.7640 380.8007 381.2016 387.5337 387.5337
   389.4985 392.2053 392.2053 392.7554 392.9810 392.9810 393.2099 393.2099
   393.5487 393.5487 393.6642 394.0176 394.0646 394.0646 394.4396 395.1606
   401.8243 401.8243 403.7413 404.0683 404.0683 404.8151 405.8020 406.5501
   406.5501 406.7773 407.9220 407.9220 409.1015 409.2903 409.7120 410.1678
   410.1678 410.5545 410.5545 411.1348 417.8559 417.8559 418.1903 418.1903
   421.6671 421.6671 421.8296 423.3547 423.8531 423.8531 425.1544 425.1544
   425.1613 425.2717 426.0363 426.0363 426.4225 426.4817 427.1771 427.1771
   428.2399 429.3172 429.3172 430.5776 430.7080 430.7080 430.7359 430.7359
   437.4011 437.4011 437.4943 438.1986 438.3643 438.3643 438.5624 438.6473
   438.6473 439.3984 439.3984 439.8526 441.1175 441.1175 442.9084 442.9084
   443.0264 443.1374 446.7235 446.9657 446.9657 447.2609 447.3204 447.3204
   447.5198 450.0302 450.0302 450.8360 450.8360 451.0928 455.7594 456.5611
   456.5611 456.6038 456.6038 458.2677 458.3583 459.4864 459.5054 459.5054
   460.5472 460.5472 464.3198 464.6908 464.6908 467.1748 467.2434 467.2434
   467.9545 468.5022 468.5022 468.5836 468.5836 468.7307 468.7864 469.9465
   471.3602 471.3602 471.5530 471.5530 472.2495 472.4757 475.9555 476.6968
   476.6968 477.9680 477.9680 478.3113 480.6919 480.6919 482.5778 482.7250
   482.7250 483.4450 484.5899 484.7315 484.8381 484.8381 484.9396 484.9396
   489.0454 489.0454 489.1012 489.1012 489.3408 489.3807 490.7618 490.7974
   490.7974 490.9776 490.9776 491.0861 491.6774 491.6774 491.8043 491.8043
   491.8135 491.9095 492.9722 494.2201 494.3419 494.3419 494.5591 494.5591
   496.8546 497.3578 497.3578 497.9873 497.9873 498.0803 500.8928 500.8928
   502.0546 502.0546 502.6330 502.6872 502.6954 503.4041 503.5715 503.5715
   504.0075 504.0075 506.2297 506.2297 506.3243 506.3243 506.4906 506.5630
   514.5681 514.5681 515.4221 515.5616 515.5616 515.5715 516.3590 519.8696
   520.4434 520.4434 521.1023 521.1023 521.2646 521.3641 526.7762 526.7762
   527.1917 527.1917 532.4672 532.4672 534.0487 534.6214 534.6214 534.6452
   534.6452 535.0594 535.3613 535.3613 535.4427 535.7923 535.7955 535.8076
   535.9869 535.9869 536.0796 536.0796 537.8641 537.8641 537.8725 537.8725
   539.8520 539.8535 542.6049 545.1265 545.1265 547.1013 547.8003 548.0467
   548.0467 548.9007 548.9007 549.0169 549.0169 549.1167 550.7354 551.3145
   551.3145 552.3800 552.3800 553.5332 554.9234 554.9234 554.9557 554.9557
   555.2839 555.2924 559.5367 560.5160 560.5160 560.7364 564.3739 564.7047
   564.7047 564.7241 565.1295 565.1295 566.6231 566.7411 566.7411 566.9739
   569.6639 570.5240 570.5240 570.7058 570.7058 570.7718 570.7718 571.9441
   572.0721 572.0721 574.2489 574.2489 575.0209 575.0209 575.3389 576.3511
   577.2916 577.5003 578.4147 578.4147 579.2370 579.2370 579.9996 579.9996
   580.2702 580.2982 580.4730 580.4730 583.1686 583.2899 583.2899 583.3829
   583.3829 583.6052 584.7029 584.7029 585.3992 585.4387 585.4387 586.1931
   586.2474 586.3864 586.3864 586.4431 586.9892 586.9892 589.3699 589.3699
   589.4672 589.4672 589.4839 589.5333 594.1635 594.1635 595.5948 596.0649
   596.0649 596.2125 599.4022 599.5754 599.5754 600.0791 600.0791 600.7899
   600.8556 601.4658 601.4658 601.8631 601.8631 602.0787 606.7450 606.8201
   606.8201 608.0733 608.3677 608.3677 608.5436 609.5356 609.5896 609.5896
   609.7313 609.7313 609.8002 609.8426 609.8426 609.9309 610.1113 610.1113
   615.8116 615.8116 617.0067 617.5371 617.5371 617.5671 617.5671 617.6494
   617.6710 617.8939 618.4151 618.4151 619.4037 619.5981 619.5981 619.8613
   619.8613 620.0152 621.1493 623.0732 625.8779 625.8779 626.7855 626.8422
   626.8422 627.9171 627.9171 628.5606 628.6698 628.6698 629.4958 629.7648
   629.7648 629.9659 629.9895 629.9895 630.3745 630.3986 630.4709 630.4709
   630.5453 630.5453 637.1972 637.2511 637.2511 638.2065 638.2494 638.2494
   638.3293 639.8710 647.8255 647.8255 647.8455 647.9185 647.9185 647.9645
   649.0392 649.0392 649.3160 649.3160 649.3566 650.7645 650.8907 650.8907
   651.0570 651.0570 655.7056 655.7056 658.5893 659.3615 659.4886 659.4886
   660.0524 661.0954 661.0954 661.5274 661.5274 661.6763 661.9219 661.9219
   661.9690 661.9690 662.1245 662.3728 662.4303 662.4865 662.5700 662.5700
   662.5787 662.5787 664.4387 665.7286 665.7286 665.9208 665.9208 665.9362
   665.9970 666.1164 666.1164 667.2939 667.2939 667.4592 673.2193 673.2193
   674.4823 674.7730 674.7730 674.7999 679.3533 679.3674 679.4251 679.4251
   679.4506 679.4506 681.3601 681.3601 681.4344 681.4431 681.4431 681.4936
   682.4575 683.5417 683.5417 684.3014 684.3162 684.3162 686.1076 687.2350
   687.2350 687.5063 687.8663 687.8663 688.8364 688.8364 689.2305 689.4049
   689.4304 689.4304 689.8986 689.8986 689.9549 689.9852 689.9852 690.1242
   695.3935 695.3935 695.4289 695.4289 695.9870 695.9908 701.3652 704.3360
   704.3360 705.2009 705.8863 706.1432 706.2220 706.2220 708.1510 708.1510
   709.6129 709.6129 709.9024 709.9269 709.9306 710.1837 710.1837 710.5380
   710.7168 710.7168 711.5289 711.5289 711.6332 711.6332 712.9824 713.3302
   714.7264 714.7264 715.2618 716.6300 716.7209 716.7209 719.3230 719.3230
   719.7322 719.8513 719.8513 720.3043 721.7713 721.7713 722.2598 722.2598
   722.6289 722.7634 724.0217 724.0467 725.1431 725.1431 725.2077 725.2242
   725.2242 726.0264 726.0264 726.4614 726.4614 726.5074 727.5702 727.5702
   727.5994 727.5994 727.9558 727.9684 729.2056 729.2056 729.2174 729.2174
   729.2498 729.2771 729.2871 729.2871 729.3516 729.3516 729.4060 729.4430
   737.9109 738.8136 738.8136 740.3373 740.3673 740.3673 742.3010 742.3010
   742.5927 742.5927 743.1303 743.1422 743.1815 743.3402 743.7564 743.7564
   743.8094 743.8094 745.3019 745.3019 746.5218 747.1277 747.1277 747.3015
   753.4193 753.4873 753.4873 754.7715 754.7715 754.8258 754.9902 755.3277
   755.3277 756.1322 756.3417 756.7206 756.7206 757.7000 757.9513 758.1089
   758.1089 758.1626 758.1626 758.2880 760.1148 760.1148 760.2459 760.7220
   760.7220 760.9045 761.0038 761.0038 761.1146 761.1146 762.2564 762.3762
   762.3762 762.5261 762.5261 762.9245 768.8432 768.8432 769.6267 770.6913
   770.6913 770.7081 770.7081 771.8696 771.8696 772.0438 772.1013 772.3851
   772.4109 772.4109 772.7833 772.8130 772.8130 773.3136 773.4300 773.4545
   773.5731 773.5731 774.0894 774.0916 774.0916 774.2405 777.0344 777.0344
   777.1202 777.1202 780.4759 780.4759 780.4765 780.4765 781.5796 781.5801
   784.4397 784.4397 785.5361 785.5637 785.5637 785.6786 789.1790 789.2010
   789.2138 789.2138 789.2230 789.2230 797.3670 797.3670 799.9279 801.1525
   801.3499 801.3499 802.7762 802.9933 802.9933 803.6155 803.6155 803.6219
   803.8374 803.9887 803.9887 804.0566 804.0566 804.1566 804.6457 804.7263
   804.7968 804.7968 804.8365 804.8365 805.2035 805.3816 805.3816 805.7963
   805.7963 806.1687 806.7900 807.0277 807.0277 807.3247 807.3247 807.4774
   809.1758 812.0351 812.0351 812.5126 814.0963 814.1482 814.1482 814.3678
   814.6719 815.5030 815.5030 815.5749 815.5749 815.6942 815.6973 815.7087
   815.7087 815.9577 816.0304 816.0304 816.5302 816.5302 816.7625 816.7625
   817.1432 817.3569 817.5314 817.7311 817.8160 817.8160 817.9071 817.9071
   823.7933 823.7933 823.8407 823.8407 824.1783 824.1896 824.3642 824.3642
   824.4259 824.4259 825.1461 825.1461 825.6861 825.7723 825.7723 825.8203
   826.2371 826.2908 826.2908 826.3791 826.3791 826.4258 833.1516 833.1516
   833.3727 834.2477 834.2477 834.3374 840.3602 840.3602 840.4059 840.4289
   840.4289 840.4409 847.4318 847.4318 847.9004 848.8444 848.8444 848.8777
   848.9067 848.9067 849.0555 849.0808 849.0834 849.0834 851.9295 851.9764
   851.9764 852.8972 852.8972 852.9334 853.0396 853.0396 853.1001 853.1001
   853.1119 853.1737 863.2179 863.2179 864.1150 864.9806 864.9806 865.1256

          k = 0.0000 0.3333 0.0000 (  2445 PWs)   bands (ev):

    -5.1758   7.7036   8.3918   8.3918  15.0948  16.8639  18.5915  18.5915
    20.3379  24.7786  28.2097  28.2097  28.6001  29.7573  36.7552  40.3576
    40.3576  43.2551  45.5395  49.3660  49.3660  50.3320  54.1265  60.8957
    60.8957  61.5429  63.9866  66.0106  66.0106  66.6104  68.3181  71.0299
    71.3227  71.3227  71.7789  75.2126  75.2126  75.6903  76.2215  78.1833
    78.1833  79.3428  82.0575  82.5509  83.1793  83.1793  85.2674  85.7108
    87.0583  87.0583  87.2014  87.8996  93.0417  94.3192  94.3192  97.8816
    99.3390 101.1698 101.1698 102.1255 107.2472 109.7679 109.7679 113.9955
   115.8976 116.1950 116.1950 117.9871 119.9665 122.1888 122.1888 123.3481
   127.2902 127.2902 128.5207 129.5881 130.2044 132.8731 132.8731 134.2390
   135.2924 135.3468 135.3468 138.8207 139.0228 139.1223 140.1648 140.1648
   144.3102 144.7174 144.7174 145.5690 145.9217 148.1456 150.5169 150.5169
   152.5128 153.1882 153.1882 153.8774 154.1539 154.5893 154.5893 156.7969
   157.4730 157.7541 157.7541 159.6571 160.3590 163.0400 165.6366 165.6366
   165.6991 165.6991 166.6202 166.7081 167.2280 168.8579 170.8418 172.0487
   172.0487 173.5564 173.5564 173.7946 174.0711 177.1207 178.0589 180.3575
   180.3575 182.1870 182.1870 184.8439 185.6894 188.1978 188.1978 188.4190
   189.7315 192.2680 192.2680 193.1067 194.6814 195.4002 196.4896 196.4896
   196.8333 198.4645 199.7605 199.7605 201.4979 201.5796 201.5796 203.4266
   205.5060 209.8012 209.8012 210.6390 211.1590 211.8509 211.8509 212.3108
   212.8910 213.9278 213.9278 214.3613 216.6602 217.7400 220.3164 220.3164
   221.1236 224.7372 227.3700 227.3700 228.3766 232.8364 234.2939 234.2939
   234.5739 234.8102 234.8102 235.0607 238.0775 238.5578 242.2406 242.2406
   244.6812 244.6812 244.7463 244.9003 245.5481 248.1785 249.2300 249.5029
   249.5029 252.0540 253.3346 253.3346 253.5915 254.6954 254.6954 254.9980
   256.0896 256.6866 256.9824 256.9824 258.2523 259.6249 260.6050 261.5341
   261.5341 262.0793 263.7109 263.7109 264.5252 264.9351 264.9351 265.3359
   266.3220 267.7339 269.7562 270.2458 270.2458 270.4655 271.1187 272.2500
   272.2500 272.3691 274.3425 276.1250 276.5968 276.5968 277.6080 277.6080
   277.7788 277.7788 278.2089 279.4382 281.0750 281.9217 283.0217 284.7004
   284.7004 285.5177 285.9078 286.2287 286.2287 288.4456 288.6950 290.2321
   290.2321 290.6067 292.8939 292.8939 294.3589 294.3824 295.2899 296.3807
   296.4796 296.4796 297.0215 297.0215 297.8340 298.6778 299.7867 299.7867
   301.0736 303.1474 304.0068 304.0068 304.0563 304.5555 305.0123 306.4670
   306.4670 307.7382 307.8520 307.8520 308.0744 308.3912 309.3390 309.3458
   309.9929 309.9929 311.2754 313.2842 313.2842 314.4862 314.9543 315.5009
   315.7992 315.7992 316.6896 320.2862 320.2862 320.4392 320.6025 326.3363
   326.3363 328.1354 329.1319 330.5791 331.4158 331.4158 332.0163 332.3157
   334.5885 334.5885 336.1207 337.1892 340.7012 340.7012 342.2448 343.4970
   343.4970 345.1008 345.5885 345.7787 347.0489 347.0489 348.5990 349.3586
   350.5005 350.7184 350.7184 351.5778 352.8727 352.8727 353.0545 354.1517
   355.0201 355.4767 355.4767 356.0012 356.7934 356.7934 357.3468 357.7784
   358.4411 361.2619 361.2619 364.7573 364.7573 365.4682 366.5654 370.1097
   372.4799 372.4799 374.8975 375.4171 375.6263 375.6263 376.4722 376.9893
   377.1016 377.1016 377.5034 380.1537 380.1537 382.0002 382.8080 383.0215
   383.0215 385.9036 386.5038 387.4182 387.4182 388.3221 390.2422 390.5733
   390.6114 390.6114 391.4035 392.8855 393.0917 393.0917 393.6783 394.4726
   394.4726 395.3388 396.2837 398.7606 399.1702 399.1702 399.6543 400.3650
   400.3650 400.6638 402.0463 402.4072 404.0747 404.0747 405.2395 405.5428
   405.5686 405.5686 405.6768 405.8923 405.9651 405.9651 406.1445 406.9967
   407.4216 407.4216 408.8697 409.3031 409.3031 409.5154 409.8389 410.6043
   412.1773 412.1773 413.2578 413.4459 417.0100 417.0100 417.5463 419.2034
   419.4100 419.4100 420.0588 420.4554 420.4554 420.7900 421.2176 422.1658
   424.8675 425.4569 425.4569 426.4905 426.5168 426.5168 426.5957 426.9230
   427.7070 427.7070 427.7362 428.7265 428.8795 428.8795 429.2785 429.4165
   430.5309 433.3441 433.3441 435.2645 435.2645 435.4734 436.0134 436.2035
   436.2035 436.4154 436.4766 438.0114 438.5671 438.5671 438.7872 440.7888
   440.7888 440.8899 441.0105 442.5292 442.5292 443.2753 443.5838 443.9823
   444.1558 444.1558 444.8721 445.4085 445.5360 445.5360 445.7938 449.5974
   451.0421 451.0421 453.3049 453.4486 454.4152 454.4152 454.4218 454.7088
   454.7627 454.8352 454.8352 454.9425 454.9960 455.3206 455.3206 456.5423
   458.4841 459.3913 459.3913 461.7272 462.2756 462.2756 463.5901 464.1584
   464.3556 464.3959 464.3959 464.5576 468.0875 469.3452 469.3452 470.2568
   470.4442 472.3442 472.3442 473.0398 473.9622 475.0355 475.1718 475.1718
   475.3318 477.1473 477.1473 477.5246 477.6278 478.4261 478.4261 479.4665
   483.5592 484.0367 484.3917 484.3917 484.6260 489.1686 489.1686 489.1873
   489.3348 489.5315 489.5315 490.3621 490.9528 490.9528 491.0706 492.9666
   493.0074 493.3250 493.3250 493.8832 495.5818 495.5818 495.9060 496.6196
   498.4817 499.5195 499.5195 500.0690 500.0690 500.2707 500.7736 501.2492
   501.4039 501.4421 501.4421 501.6062 509.9583 509.9583 510.4794 511.2889
   512.7170 514.1944 514.1944 514.6362 514.6764 515.2721 515.2721 516.6862
   516.7147 517.1073 517.1073 519.6306 521.6338 521.8784 521.8784 522.1603
   525.5782 525.5782 525.7791 527.5192 528.2794 528.9240 528.9240 529.8741
   532.1010 532.5990 532.5990 533.1394 534.9779 534.9779 535.1846 535.5030
   535.9702 537.8296 537.8296 538.6404 540.5321 542.1995 542.1995 542.2293
   542.6750 542.9786 542.9786 544.1316 545.3982 547.1220 547.1220 547.4220
   547.7900 548.1810 548.3488 548.3488 548.8466 549.2769 550.3558 550.3558
   551.1455 552.1898 552.4628 552.8627 552.8627 553.4355 553.8500 553.8500
   554.1250 554.4982 554.4982 554.5914 555.3930 555.4728 555.4728 555.4988
   555.8014 555.8895 556.9310 556.9310 558.0346 558.9009 559.0955 559.0955
   559.3916 563.3720 564.8509 565.0340 565.0340 565.3711 565.7622 565.8624
   565.8624 566.8090 567.1247 567.1247 567.5111 567.5327 567.5737 567.5737
   569.8642 569.9357 570.1474 570.2549 570.2549 570.3103 573.4793 573.4795
   573.4795 573.6500 573.6500 573.8606 577.4345 579.4883 581.8837 581.8837
   581.8916 581.9563 582.1433 582.7859 582.7859 583.0024 583.1014 583.1014
   584.2294 584.8660 584.8660 585.5851 585.6095 587.9016 587.9016 588.0107
   588.3553 588.7792 592.8861 592.8861 592.9522 593.0095 595.1258 597.0462
   597.0462 599.0983 600.4148 600.6251 600.6251 601.8944 602.3066 603.2937
   603.2937 603.3380 603.3712 603.6552 603.6552 603.7961 604.9690 604.9803
   604.9803 605.3657 605.3657 605.4757 606.5259 610.0580 610.1375 610.1375
   610.3273 610.7746 610.7746 611.1174 611.5116 611.6344 611.6344 611.8440
   611.9002 612.5956 612.7808 612.7808 613.7905 617.0027 617.2281 617.2281
   617.5267 618.3291 618.3291 618.5969 618.7064 618.7064 618.7096 618.8273
   618.9479 620.9294 621.4207 621.4207 621.7283 621.8590 622.1842 622.1842
   622.4554 623.7523 623.7523 624.5890 624.8382 624.9623 625.1821 625.1821
   625.3513 627.6462 627.8084 627.8084 628.5459 629.3400 629.3400 629.5777
   629.7324 630.6930 630.7139 630.7139 630.8874 631.1909 631.1909 632.4396
   632.5258 634.0598 634.5705 634.5705 636.0193 637.0481 637.8465 637.8465
   638.4519 639.0657 639.1607 639.1607 639.3910 642.3416 642.3416 644.4457
   644.5735 645.6873 645.9086 645.9086 646.2585 647.2504 647.2504 647.4052
   648.1550 648.6567 648.9728 648.9728 649.2412 649.4554 651.0200 651.0200
   651.8523 651.9081 651.9081 652.2416 653.2402 653.2784 654.2011 654.2011
   655.1853 655.5752 656.3090 656.3090 656.7073 658.0901 659.8259 660.0166
   660.0166 660.2379 660.2553 660.5703 660.5703 660.5869 660.6593 661.0916
   661.0916 664.1658 665.9248 665.9248 667.1979 668.0090 668.1336 668.1336
   668.1898 668.5845 668.5845 669.2693 669.2826 669.3670 669.3670 669.4305
   669.7328 669.8270 670.2427 670.2427 671.0425 671.3892 672.1532 672.1532
   672.3864 672.4356 672.4969 672.4969 672.8401 675.7787 677.8294 677.8294
   678.7816 681.4041 681.6304 681.8977 681.8977 682.9881 683.1797 683.1797
   683.7906 687.0683 688.0275 688.3263 688.3263 688.6769 692.2059 692.7149
   692.7149 693.0667 693.0798 694.1853 694.1853 696.2705 696.2705 696.5744
   696.7198 698.4352 699.5053 700.8377 700.8377 702.6249 703.7240 703.7879
   703.7879 704.4726 704.4726 704.5431 705.4210 705.7973 705.7973 706.4628
   706.8286 707.5215 707.5215 707.5288 707.5420 707.6199 707.6199 707.6781
   707.7047 714.3147 714.3147 716.2935 716.3577 716.3668 716.3668 716.6399
   716.7291 717.7601 719.3625 719.3625 719.5085 719.8746 720.3492 720.3492
   720.4513 723.1905 723.5153 723.5153 723.9109 723.9845 724.0005 724.0005
   725.0199 726.8219 727.0144 727.0144 727.2329 727.4351 727.6356 727.7222
   727.7222 727.7266 728.2791 728.9649 728.9649 730.3268 730.3268 730.5983
   730.7229 731.5937 734.5037 734.7236 734.7236 736.1070 736.5194 736.6941
   736.6941 737.0197 746.1663 746.1663 746.2251 746.2795 747.7786 747.7786
   748.3361 748.5370 751.2077 752.6442 752.6442 752.7391 752.9647 753.1580
   754.4007 754.4007 754.5168 755.0447 755.5613 755.5613 756.0232 756.1073
   756.1073 756.6789 756.7885 759.3831 759.3831 759.8234 760.0680 760.3376
   760.3376 760.6799 760.9344 762.2113 762.7896 762.7896 763.4442 763.4442
   764.8636 764.9506 764.9506 766.3302 766.7444 767.6679 767.7956 768.2793
   768.2793 769.1078 769.3554 769.3554 769.3772 769.4915 771.4444 771.8108
   771.8108 772.1840 772.2879 772.2879 773.6847 773.8607 780.1630 780.3393
   780.3393 780.8990 781.1729 781.1729 781.6501 781.7705 782.7895 784.0094
   784.0094 784.0742 784.7245 785.3304 785.3998 785.3998 785.5200 787.2367
   787.2367 788.0812 788.6897 789.0775 789.0775 789.6840 789.6840 789.7193
   789.8355 790.5867 790.5867 790.7251 791.3526 791.5938 791.6292 791.6292
   791.8858 791.9612 792.8955 793.9212 793.9212 794.7028 795.1445 795.4761
   795.4761 795.6127 795.9433 796.4329 796.4329 797.1792 797.1792 797.2164
   797.4363 798.2387 798.5140 798.5140 798.6715 798.8403 800.5608 800.5608
   801.1470 801.3117 801.5598 802.0006 802.0006 802.4823 803.7441 803.8330
   803.8330 803.9958 805.9824 806.0548 806.0548 806.1758 806.5095 806.6224
   806.6224 806.7428 808.1851 808.8846 808.8846 809.8280 811.7994 811.7994
   812.1640 812.2346 813.6458 813.6458 813.8109 814.2078 814.2909 814.2909
   814.3230 814.3653 814.5424 814.6431 814.6431 814.7035 815.2688 815.2688
   815.4961 815.5246 816.2140 816.3121 816.3121 816.4310 819.8140 819.8651
   819.8651 820.1453 820.1504 820.1504 820.3218 820.3821 822.8631 823.0953
   823.5291 823.5291 824.6779 824.6779 825.1484 825.1565 827.2174 827.2174
   827.2297 827.3232 827.3280 827.3280 827.3528 827.4175 828.8186 828.9685
   828.9685 829.0092 831.4613 831.4613 832.7727 833.0545 833.8689 833.8689
   833.8732 834.0677 835.2588 836.6521 836.6521 836.7498 836.8478 838.5974
   838.5974 838.6230 838.7234 840.1346 841.2326 841.2326 841.7741 843.8471
   844.1385 844.1385 845.2329 845.2866 845.2866 845.3864 845.4049 845.5963
   845.6826 845.6826 845.8591 846.0538 846.1172 846.1172 846.2007 852.6481
   853.7269 853.7269 854.7646 855.0760 855.0995 855.0995 855.3683 855.6844

          k =-0.1667 0.5000-0.1667 (  2417 PWs)   bands (ev):

    -3.9658   4.7354   7.7071   7.7643  14.4422  17.0924  18.5259  19.1925
    22.1532  25.5970  27.3053  31.2155  31.6765  34.0814  36.4106  36.9736
    40.4965  43.6431  44.6708  46.5558  49.3923  50.4210  52.8776  57.0812
    59.6398  59.6709  62.4666  63.9103  64.5851  65.5864  66.5891  67.6687
    68.4614  72.1890  72.3840  73.7010  75.5777  76.2289  77.0630  77.7169
    79.1011  81.1659  81.2640  83.5036  83.5056  84.4782  85.1603  88.2694
    90.8027  91.5431  93.3121  94.6160  96.6440  98.5264  98.7792 101.5050
   101.5707 103.3056 105.4358 106.5080 107.9701 108.5909 109.9795 110.0973
   110.6852 112.0907 113.5020 116.2400 116.3043 117.7201 119.3398 119.5367
   123.1044 124.7688 125.9228 127.6036 127.9520 128.8241 129.9861 131.2156
   132.0157 133.8444 134.4496 135.2107 137.0256 138.0848 139.6393 142.6964
   143.4393 143.6467 145.2471 146.2996 146.8932 147.4321 148.3302 149.2177
   150.3106 151.5114 152.1038 153.8937 155.6711 156.5156 157.2659 158.8482
   159.5880 159.8611 160.0687 160.9324 162.3426 163.1958 164.6415 165.4768
   166.1167 167.5349 168.9273 169.3988 169.9551 170.7303 170.8624 173.1111
   174.3337 174.8327 175.7913 176.8459 178.4714 178.8782 180.5575 181.5589
   181.6239 182.6549 183.6520 184.2506 184.7497 184.7768 187.0785 187.7187
   188.9052 189.4217 191.4232 193.2623 194.9418 196.6462 197.0510 198.1366
   199.0379 200.1864 200.5703 201.3039 204.2820 205.0420 205.7615 206.3148
   206.8751 209.8030 210.9995 211.1347 212.9216 212.9947 213.8370 214.5782
   215.5466 216.0737 217.6450 217.8731 220.9874 221.9980 223.1331 224.2026
   224.9864 225.8577 227.0090 228.1081 229.0278 229.2342 230.2897 230.7055
   231.2352 232.0628 233.2598 233.3664 234.4227 235.8743 236.7785 237.2286
   237.4412 237.5021 239.1655 241.1624 241.4775 242.8075 243.6522 244.8851
   245.5875 247.1185 247.5610 247.6248 248.8620 249.4806 250.7253 251.4208
   252.1735 253.1199 253.6468 255.2508 256.1208 257.4450 258.4034 259.1880
   259.3158 259.8050 260.2725 261.1789 261.7979 262.5633 264.1669 264.5877
   266.8651 267.2538 267.7100 268.8099 269.5920 270.3961 270.4388 271.4410
   271.4437 273.7549 274.4659 275.7752 276.1489 276.7016 276.7474 278.3051
   280.3702 281.0850 281.8577 282.6805 282.8756 284.3429 284.4710 284.9582
   286.8703 287.4501 288.0608 288.9389 289.2287 289.3685 290.6718 290.8879
   291.7368 292.6059 294.1912 295.1982 295.6785 296.0281 297.4456 298.3887
   298.4320 299.4237 299.5282 299.8036 300.0033 300.9450 301.6099 302.2668
   303.3594 304.2767 304.4547 305.2144 306.4505 306.4650 307.7676 309.0480
   309.3269 309.5803 310.9361 311.3721 311.5445 311.8623 313.0249 313.0753
   313.2944 314.4127 315.8859 316.0818 317.3182 318.8251 319.7984 320.6229
   321.2033 321.2809 322.4670 322.9461 324.9641 325.1180 326.4427 327.3178
   327.7242 328.9849 329.9316 330.7577 330.9253 332.0086 332.6085 334.4164
   334.6646 335.7871 338.0407 339.1590 339.6935 339.9582 341.3178 342.1032
   342.3933 342.6625 342.9774 343.0281 344.1689 344.3111 346.8130 347.3112
   347.5098 350.2187 350.8925 351.7342 351.8074 352.0034 353.3992 353.6372
   354.7558 354.8380 357.2845 357.8965 358.6806 359.0032 359.7051 360.1421
   362.7577 363.6927 364.3564 365.3717 365.7917 366.1339 366.5695 368.3981
   368.6206 369.2207 370.2830 371.5435 371.5740 372.8134 373.3516 373.4825
   375.1995 375.5057 376.4267 376.6398 377.4023 377.9770 378.0602 378.8776
   379.5528 380.0296 381.2826 381.9009 384.1848 384.2604 384.8604 385.6770
   386.2719 386.5604 388.0919 389.2261 389.3894 389.6199 389.6899 390.2296
   390.2593 390.7630 391.2130 392.1811 392.4075 393.8653 394.8465 396.2597
   396.6169 396.7027 397.5604 398.7306 399.7571 400.0696 400.8589 401.0506
   401.9904 402.6347 403.5307 403.7774 404.7050 404.8757 405.4930 406.1683
   406.2304 407.0776 407.3244 408.8811 409.4788 410.8790 412.0787 412.3476
   412.8905 413.1406 413.5069 414.1086 414.2398 414.6044 414.9444 415.1352
   415.3353 415.8560 418.8932 419.2367 419.8853 419.8907 420.2945 420.4796
   421.4228 421.4266 422.4842 423.0777 423.9213 424.7682 424.8892 425.6949
   425.8328 426.5528 427.3783 427.6849 427.7683 428.0578 428.0957 428.4114
   432.6667 432.7284 433.3307 434.6525 436.1497 436.8373 438.0117 438.3242
   438.7882 439.0704 439.5363 440.3104 441.2251 441.9790 442.6859 443.0841
   443.3783 443.7400 443.9715 445.7094 445.7640 445.9727 446.1365 446.4336
   448.7858 449.6275 450.8139 451.0975 453.2329 453.3947 454.5713 454.6358
   455.6215 455.9361 456.0367 456.6972 457.0346 457.1126 457.6110 457.7808
   458.3990 458.5210 458.8843 461.2293 461.4336 463.8785 464.1415 464.1843
   464.2499 464.4450 464.9120 465.4308 465.7780 466.7867 466.8197 467.2281
   468.3694 469.2019 469.6415 469.9506 470.5122 472.5488 472.5759 474.9718
   475.4443 476.2838 476.4729 477.0399 477.2303 477.4750 477.6874 477.7215
   478.7578 479.2018 479.2264 479.6649 480.3176 480.4385 480.7391 482.9608
   483.2670 483.4393 484.0458 484.6724 485.1919 486.7773 487.9960 488.7488
   488.9574 489.3983 490.8365 491.6484 492.3582 492.9390 494.8584 494.8848
   495.6068 495.7144 496.3193 496.6567 498.1110 500.0100 500.2640 500.3608
   500.7060 500.8926 501.1980 501.9425 502.4246 503.8970 504.6188 504.9432
   506.4310 507.0185 507.5460 507.6863 508.1658 509.0490 509.0920 509.4563
   510.4167 511.1554 512.0978 512.3399 513.1876 514.2239 514.5986 515.4218
   516.6210 516.8481 517.4823 518.3439 518.9213 519.0388 519.3299 519.5204
   519.9117 519.9812 520.8447 521.5317 522.0176 522.1485 522.4097 523.8612
   524.3454 524.7497 524.9465 526.8490 526.9809 528.6790 528.6979 529.3259
   530.1813 530.4483 530.8783 531.3415 532.3061 532.3084 532.7321 533.3733
   533.5568 534.0463 534.1683 536.7140 536.8314 537.8541 539.6022 539.6037
   540.8785 544.3894 544.9382 545.7025 545.9490 546.2357 546.8997 548.6033
   549.6260 550.1419 550.7942 551.0964 551.2681 552.1515 552.5055 552.6798
   553.5490 554.1841 555.3259 555.5697 555.7354 556.6371 557.1653 557.1874
   557.7848 559.6353 560.7439 560.9010 561.3930 562.5103 563.2995 563.7363
   563.8046 565.3696 565.4544 566.0799 566.4126 566.8395 567.3686 567.4252
   568.1640 568.5935 568.6258 569.0163 569.2109 570.4534 571.1361 571.6598
   572.0758 572.4062 572.4518 572.8655 573.4947 573.9326 573.9450 574.5198
   575.5832 575.6144 576.2914 577.0420 578.4232 579.5278 579.6070 580.0396
   580.4184 581.0591 581.2074 581.7891 582.3598 582.5330 583.1230 583.4374
   584.6890 584.7221 584.9307 585.0650 585.5081 586.1038 587.0150 587.6695
   587.9060 589.7056 590.4238 591.9517 591.9996 592.6284 593.2740 593.3972
   594.0358 594.0914 594.5883 595.4022 595.5020 596.4208 596.4646 596.9796
   597.4983 598.6862 599.0218 599.0339 599.4164 599.8899 600.3637 600.5330
   601.1774 601.2737 603.6551 603.7817 604.7074 605.2078 605.2314 605.3934
   609.3313 609.3407 609.6041 609.9159 610.7206 610.9200 611.4761 611.8628
   612.4186 612.4568 612.6378 612.9955 613.5804 613.9663 614.0599 614.4416
   615.1485 615.6564 615.6851 615.9975 616.2538 617.5639 617.6257 617.8559
   618.4426 618.9745 619.9286 620.1363 620.3895 620.6994 620.7753 621.1776
   621.3141 623.5492 623.6407 625.0951 625.6417 627.2809 627.4526 628.1774
   628.4562 628.5270 628.7383 629.7112 630.5136 630.6085 630.7575 631.1586
   631.8707 631.9920 632.2163 633.4288 633.8349 634.1734 634.2764 634.8906
   635.1776 635.4986 636.0752 636.1004 636.4603 637.1668 637.4286 637.5041
   637.7107 637.7122 637.9888 638.1000 639.9318 639.9993 641.3703 641.5024
   643.0344 645.1505 645.5329 645.5502 646.9863 648.4311 648.7455 649.2286
   649.3385 649.7721 650.1481 650.1652 651.0478 651.6376 652.5568 652.6245
   653.6624 654.2713 655.3577 655.7948 656.5914 656.8563 657.0205 657.3138
   657.4060 657.9985 658.2673 658.5997 658.6279 659.9730 660.1469 660.8388
   660.9804 661.4534 661.7803 661.9297 663.7717 664.1549 666.2901 666.3915
   666.8666 667.4851 667.6477 668.2983 668.3049 668.7257 669.0678 669.1461
   671.6373 671.7184 672.7385 674.2575 674.2638 674.6024 674.8839 675.2789
   675.5241 676.2719 678.3879 678.5486 679.2905 679.5136 680.6883 680.9979
   682.1362 682.3725 682.5752 683.5268 683.5916 684.6065 685.0362 685.2866
   685.9917 686.9930 687.1447 687.3605 687.9010 688.0010 689.5443 689.6260
   690.1907 690.2769 690.6256 691.3233 692.4048 693.5405 693.5750 694.1855
   697.3875 697.8042 697.9334 698.5399 699.1956 699.7040 701.0790 701.2194
   702.8377 703.3181 704.2012 705.2194 705.3436 705.5787 706.6612 707.3071
   707.5487 707.8420 707.9883 708.2717 708.6678 708.6867 709.1430 709.6288
   709.9969 710.0653 710.9980 711.1568 711.1924 711.2736 711.2927 711.4677
   711.9643 712.5488 712.8725 714.3494 714.4982 715.1423 715.5130 716.1386
   717.4304 717.4493 717.6979 717.8558 717.9647 718.6493 719.2900 719.5556
   719.6727 719.7681 720.5099 720.7265 721.3530 721.8155 721.9226 722.2814
   722.4456 722.7367 723.1634 723.3924 725.2653 725.3430 727.5807 728.0060
   728.2724 728.6724 728.8921 729.1282 729.7763 729.8716 732.1556 732.7149
   733.2013 733.2545 733.9343 735.0557 735.8972 736.0025 736.6658 737.0522
   737.3223 737.4785 737.5869 737.6067 737.7209 739.8833 740.1517 740.7760
   741.6438 741.6900 742.4579 742.9022 744.3557 744.3790 744.9354 745.2295
   745.3941 745.7544 746.6010 747.5862 748.8238 748.8779 750.2828 750.5452
   750.6148 751.1553 752.1401 752.5234 752.6900 752.7959 754.5493 755.2313
   756.1723 756.6397 757.0251 757.1781 757.5201 758.0678 758.6447 758.7823
   759.0410 759.7047 759.7594 760.0997 761.0680 761.2208 761.6449 761.7160
   763.0157 764.4657 765.2973 765.7542 766.2003 766.4922 767.7130 767.8407
   768.2535 768.7419 768.9965 769.2092 769.3302 769.4451 769.7107 769.8198
   771.1749 771.3962 771.4137 771.7018 772.9518 773.9203 774.4945 774.6514
   775.0338 776.0115 776.1979 776.6923 776.7393 778.4674 778.8761 779.9370
   780.8904 781.2638 781.5433 781.5874 781.9691 783.1257 783.2161 784.3109
   784.7412 784.9431 784.9992 785.2005 785.3411 786.2820 786.5447 787.6909
   787.8333 788.8281 789.2825 789.6702 790.4068 791.0748 791.3743 791.4895
   792.3554 792.4339 792.9467 793.7472 793.8899 794.3832 794.3956 794.9351
   795.0344 795.3153 795.3753 795.7331 795.8866 796.1334 796.1570 796.3669
   797.7656 799.4773 800.3989 800.6504 800.9506 801.3025 801.3894 804.4840
   805.0591 805.8753 806.5168 807.0969 807.5204 807.8674 808.5572 809.1902
   809.4368 809.6329 809.8572 810.9560 811.0852 811.7789 812.4850 812.6821
   812.9253 813.3296 813.3826 813.5345 814.0197 814.0457 816.4475 816.5296
   817.5853 818.5770 819.0583 819.1167 819.5241 819.5521 819.9255 821.1458
   821.1714 821.7939 822.1006 822.5875 823.0981 823.2170 823.8779 823.9014
   824.2237 824.5259 824.9660 825.0491 825.5769 825.5932 827.8090 828.0567
   828.8791 829.2549 829.2967 830.5434 830.9559 831.3886 831.8375 831.8708
   832.3708 832.5172 832.6522 833.5331 833.5570 834.3820 834.6034 835.0078
   835.4203 835.5493 835.9287 836.0852 836.0942 836.2529 836.3196 836.3761
   837.7640 838.0179 838.4463 838.5648 839.1698 839.4588 839.9832 839.9910
   840.1803 840.6835 841.2008 842.4767 843.3976 843.7773 843.8758 843.9415
   844.0621 844.1620 844.7603 845.3510 845.7305 845.7582 846.9294 847.2510
   847.6145 847.8058 848.1489 848.2740 848.9655 849.1043 850.6964 852.1200
   852.4329 852.7900 852.8936 854.2374 854.3991 854.4023 854.9770 854.9912

          k = 0.6667-0.3333 0.6667 (  2422 PWs)   bands (ev):

    -2.1783   1.7411   6.7363   7.7564  14.3556  17.3438  18.3905  20.1558
    23.4661  26.7654  27.7154  30.5822  31.2923  34.9067  38.8470  40.0490
    41.6165  43.8771  44.2690  45.5047  49.2086  50.2873  52.6895  54.0472
    54.2174  57.5371  57.9553  59.2254  63.9513  64.1548  66.4010  67.3884
    68.0089  71.4948  71.7372  74.0655  75.6464  76.0594  79.6139  80.2912
    80.9324  83.3775  84.2552  84.7712  86.4241  87.5945  89.3795  90.4919
    91.8276  93.0310  94.2699  96.7502  97.7158  99.6651 101.2866 101.3519
   103.3795 103.7076 104.6426 106.0266 107.2690 107.5509 109.3430 110.2583
   110.7721 112.7364 113.4335 115.4319 116.2112 116.6630 117.2341 119.0246
   119.9019 123.3371 123.5141 124.4105 124.7153 127.2720 129.4248 129.5685
   130.3025 131.6431 132.7840 134.4600 135.3868 137.4128 138.0018 139.7254
   140.5481 142.9392 143.1726 144.1684 146.2374 146.5736 147.7777 148.6029
   149.9670 152.4468 153.5535 153.7794 154.5910 155.4722 157.3418 159.5889
   160.3037 160.5786 160.8153 161.4066 164.8964 164.9795 165.5729 165.7403
   167.1099 167.4956 169.1806 169.3943 170.2780 172.0143 172.4758 173.9678
   175.5916 176.8447 177.4913 178.2737 178.8727 179.4932 181.0510 182.0696
   183.3898 186.1118 186.6243 187.7624 188.4104 189.0276 190.3386 190.5528
   191.1172 193.6060 194.1767 195.1624 196.5099 197.0377 197.5608 200.3310
   200.5659 201.5149 201.5478 202.7022 203.5349 204.8652 205.2221 206.8990
   207.5844 209.0054 211.1412 211.2982 211.7042 212.3408 213.5332 214.0014
   214.4198 215.3002 215.4823 216.1530 216.9517 218.4200 219.8136 221.2245
   222.2099 224.2064 224.8373 225.2922 226.5590 226.5967 229.2991 229.5021
   230.6134 231.6281 232.4824 233.6947 235.1435 235.4472 235.9551 238.0879
   238.3593 238.6943 240.1370 241.5280 242.1478 243.3275 243.3628 243.8802
   244.6210 245.7178 245.9021 246.6984 247.3699 248.2010 249.9739 251.4313
   251.8131 252.9317 253.3476 254.4522 255.5245 255.9129 257.3361 257.9442
   258.9427 260.1516 260.7053 260.8228 261.2375 261.4101 261.9574 262.8995
   263.6212 264.0523 265.5099 265.5814 267.0337 268.3236 269.4621 270.6763
   271.1280 271.2905 272.4582 273.3372 273.5437 274.1324 274.3342 275.3967
   275.4228 277.6267 277.9088 280.7996 281.2397 281.7016 282.5823 283.2102
   284.2601 285.1207 286.1003 287.1108 288.7365 289.8547 290.2367 290.8267
   292.2104 292.6310 293.6558 295.8260 297.5601 299.1625 300.0868 300.9325
   301.4175 302.0227 302.4090 303.6733 303.9971 304.1919 304.6514 305.0679
   305.4747 307.2101 307.7808 308.3694 309.4942 309.5572 310.1641 311.2639
   311.7457 312.2178 314.4978 315.1445 315.4663 317.3604 317.8749 318.3670
   319.1233 319.9007 320.4871 320.9877 321.8965 322.0008 322.9015 326.2197
   326.5367 326.7800 328.1313 328.6025 329.6565 329.7507 330.7655 331.5813
   332.1616 333.0068 333.5877 334.2167 334.6767 334.9159 335.9080 336.3676
   336.4599 337.0133 338.3073 338.6180 338.8524 339.9281 340.8019 340.8782
   342.1616 342.1704 343.3178 343.4617 345.2644 345.8614 346.2929 346.6855
   347.7161 349.0116 350.5543 351.7047 351.8809 352.5932 353.1173 354.2538
   354.3907 355.0297 355.3468 356.2461 356.2745 356.5330 357.1305 359.6401
   359.7603 359.8933 361.0645 361.6723 361.9901 363.6935 365.3907 366.0139
   366.3881 366.4603 366.8420 367.0987 367.8648 367.8751 368.1166 368.7557
   369.0124 371.0446 371.6825 371.8492 372.2951 372.9735 373.1055 373.7406
   375.1757 375.8326 377.8132 378.0086 378.4272 379.5874 379.7883 379.8835
   380.1601 381.2872 382.7120 384.3018 384.4631 385.1294 385.5892 387.2213
   388.0557 388.3738 388.6702 389.4067 390.5795 391.5482 393.9414 394.9170
   395.5594 396.8257 397.3210 398.1694 398.2352 398.8907 399.9414 400.1347
   400.4717 401.3394 401.9250 402.0549 402.5120 402.8166 404.4149 405.2417
   406.0749 407.0783 407.3974 407.8365 408.8873 409.0174 409.2388 409.5765
   410.1880 411.1147 411.1349 413.1293 414.9758 416.0304 416.2243 416.3564
   417.4971 417.9210 418.6435 418.9176 419.0350 420.2741 420.6766 421.1978
   421.5495 422.1226 423.8951 424.2271 424.9301 426.2231 426.3163 427.0688
   428.9250 429.7249 430.1891 430.4089 431.0033 431.5844 431.9689 433.3718
   433.9847 434.7782 434.9124 435.4426 435.7000 436.0750 436.8449 437.9527
   440.7735 441.2354 441.3494 441.7192 442.1851 442.5158 443.7937 446.8266
   447.1841 447.6919 448.3839 449.2781 450.3516 450.4673 451.0252 451.2206
   452.6620 452.8481 453.9837 454.4060 455.2588 456.7962 457.1785 457.6755
   457.7467 458.0221 458.6740 458.7384 459.4212 460.0064 460.3448 460.6544
   461.2203 461.7694 462.0073 462.3207 463.4262 463.6918 464.1437 464.2270
   465.6507 466.7962 466.8517 467.5997 467.6437 468.5560 468.8335 469.2694
   469.3749 470.9329 471.5910 472.2582 472.3901 473.3104 474.4324 474.4712
   474.8029 474.9957 475.2529 475.3429 477.2219 477.4436 479.0103 479.1151
   479.6317 480.7319 481.5917 481.7377 481.8259 482.1517 483.2838 483.4002
   483.8739 486.0085 486.1506 486.5026 487.1555 487.4522 488.0256 489.8135
   490.3178 490.7701 492.0809 492.1852 492.8603 493.8035 493.8437 494.5526
   494.6722 495.2874 495.6473 498.0030 498.7356 498.9984 499.3082 499.4800
   500.3511 500.6584 501.3523 501.5811 502.0796 502.3530 502.4054 503.9837
   504.0294 505.2036 505.4649 506.4941 506.7341 506.8984 510.6100 510.9760
   511.7317 511.7650 512.0181 512.4116 512.7226 514.3261 514.4637 515.4288
   515.4569 516.2635 516.3248 517.6435 518.0879 518.8704 519.2321 520.3441
   520.9306 521.3049 521.8987 522.1437 523.7100 524.5439 524.7157 525.2821
   526.4613 526.8331 527.0991 527.5730 527.7430 528.7926 529.3456 529.7636
   530.0053 531.4141 531.9403 533.2587 533.6063 534.4326 534.8681 535.3599
   535.8934 536.7279 536.7866 536.8974 537.8238 538.9168 538.9699 539.5076
   540.5721 542.6626 543.0369 543.2425 543.6292 544.8941 545.4059 546.0030
[...]
   452.2135 452.3866 456.2776 457.0350 458.4426 458.6636 459.6823 460.0793
   460.7571 461.0689 461.1962 463.6270 464.3775 464.4696 464.8691 464.9760
   466.2463 467.1068 467.4139 469.0359 470.2819 471.5706 471.7235 472.5418
   472.7256 473.5732 473.7951 473.8230 474.5097 475.1850 475.2053 476.0843
   477.1962 477.4416 477.9159 478.5183 478.6181 479.3825 480.5413 481.0333
   481.5654 482.0819 483.4067 484.1714 484.6184 484.7425 485.0358 485.7432
   487.8067 487.9595 489.0226 489.2270 489.3516 489.8813 490.0699 490.3346
   490.4855 490.9235 491.4675 493.5046 493.8453 494.4164 494.5758 496.2567
   497.0026 498.3456 498.6877 498.8970 499.2019 499.8909 500.2267 500.5265
   501.0283 501.4232 502.2941 502.5833 502.7757 504.0742 504.3907 505.3630
   505.9887 506.1590 506.9294 507.4324 512.4784 512.8965 513.8038 514.8243
   515.1123 515.2994 515.5516 515.7044 515.9746 516.4809 516.6287 518.2033
   519.0610 519.6402 520.2801 520.8693 521.0464 521.2001 522.1394 522.5080
   522.8836 523.2627 523.8343 524.0416 524.1905 524.3636 524.4363 524.7402
   525.1821 525.4550 525.6204 525.8221 528.2786 528.7241 529.7349 530.2635
   530.3771 530.6400 532.3616 533.0540 533.5486 534.6546 534.7801 534.9722
   535.1346 535.7471 536.3686 536.6072 537.3129 537.4793 537.6257 538.7029
   539.1924 539.5095 540.7156 541.1614 541.6762 541.7960 542.0239 542.2470
   542.3264 542.9338 543.3784 543.7587 544.7836 544.8237 545.6799 545.9792
   546.0549 546.5108 546.6589 546.9401 547.9715 548.6855 549.1982 550.1663
   553.1986 553.7249 554.8392 556.1638 556.2640 557.3344 557.4519 557.5768
   557.7418 557.9244 558.0519 558.4155 558.4602 558.5523 558.6349 558.6611
   559.6106 559.7217 561.3176 561.4928 563.2853 563.9140 565.3253 565.4233
   567.0450 567.2359 567.9139 568.6151 569.0289 569.1640 569.8101 569.8771
   571.9118 571.9409 572.5659 573.1010 573.2958 573.6837 574.4252 574.8466
   575.8925 576.5032 578.1316 578.8054 579.3056 579.5038 579.5563 579.9994
   580.7030 580.7711 580.8641 580.9263 582.4826 582.7116 582.7321 582.9687
   585.0941 585.2655 586.0583 586.1058 586.3590 586.8471 588.6476 589.0161
   590.6125 590.8481 592.4928 593.5574 594.0985 594.1650 595.7281 596.5944
   597.3030 597.5842 599.0691 599.4887 600.0898 600.2259 600.3735 600.5077
   600.9468 601.3334 602.3748 602.6822 603.6853 604.0611 605.3207 606.0469
   606.4199 606.7026 607.9916 608.1260 609.2873 609.4117 609.6844 610.4301
   611.5712 611.7588 612.2413 612.3733 614.8505 615.3302 616.2772 616.5514
   616.9803 619.8940 620.3166 621.3334 621.8216 621.8823 622.9457 623.4621
   624.5495 625.0834 625.3118 625.8846 626.3250 626.4840 626.6928 627.0918
   627.9539 628.2080 628.3563 628.5075 628.7022 629.2394 630.2574 630.8169
   631.1529 632.4764 632.6581 633.1617 633.5642 633.7733 634.8388 635.2608
   635.3449 635.5027 637.5480 637.7349 641.1332 641.5383 641.8921 642.1516
   642.1839 642.6375 642.7824 642.9245 643.4365 643.8117 644.7742 645.1661
   645.4799 647.1001 647.2786 647.8796 648.1399 648.3872 648.5085 648.9454
   649.1988 649.4562 649.7483 650.0128 650.6830 650.7893 651.4477 651.5965
   652.1492 652.4531 652.8241 652.9099 652.9233 653.3336 656.3522 656.5623
   656.7974 657.0360 658.4996 658.7882 659.6292 659.6429 660.1431 660.3609
   660.7767 660.8687 661.3097 661.8754 662.8012 663.2465 663.6007 663.6086
   664.0908 664.4681 665.7122 665.9625 667.6655 668.5043 668.7206 669.2751
   670.2560 670.4840 672.0662 672.2040 672.5770 673.2104 673.4212 674.4043
   674.4300 674.6762 675.4091 675.6935 677.6834 678.3244 678.6117 678.9569
   679.5271 680.0773 681.3322 681.7515 682.9992 683.2152 683.3100 683.4119
   683.5871 684.0138 684.3933 684.5105 684.7653 685.0852 685.1820 685.2923
   685.4052 685.5451 685.6908 686.6525 686.8003 687.0585 687.4969 690.1948
   690.6903 691.1600 691.3008 691.7883 691.9677 692.1004 692.1324 694.5396
   694.7673 695.1374 695.2736 695.3299 695.3759 698.5884 698.9685 700.0031
   700.1280 701.3840 701.6162 702.4401 702.7375 703.7827 704.5744 705.0562
   705.2322 705.4902 706.5471 706.6222 706.7469 706.9611 707.0931 707.1420
   708.4395 708.7617 709.2168 709.3264 709.6130 709.7161 710.0385 710.2779
   710.7558 710.9850 711.6091 712.3665 712.9991 713.7669 713.8737 714.0641
   714.2192 714.4060 715.3681 715.4001 715.6195 715.7896 716.0667 716.5086
   716.7417 717.1141 718.8024 718.8463 720.1365 720.3682 724.3708 724.7280
   725.3030 725.4389 725.8447 726.2869 727.0232 727.1771 728.3212 728.6365
   730.1151 730.7413 731.3023 731.5954 732.0254 732.1196 732.5883 734.3677
   734.4505 734.7132 735.4554 735.7861 735.8725 736.2243 736.2955 737.1843
   737.2299 737.3357 737.4544 737.9282 739.0326 739.7421 740.9888 741.3549
   741.9560 742.0615 743.5149 743.6077 743.8311 744.1503 744.2007 744.7549
   745.3563 745.7407 745.8856 745.9571 747.6690 747.7254 747.8506 748.2837
   749.3518 749.5388 750.6342 751.1500 751.2789 751.3979 751.6105 751.8790
   752.2242 752.4430 753.2233 753.4228 753.5909 753.6951 753.8150 754.1998
   756.1745 756.2019 756.3409 756.5049 757.4139 757.8820 758.8631 759.5759
   760.6460 760.7820 763.2876 763.6732 763.9352 764.2111 764.3584 764.5438
   764.6997 764.9502 765.5536 765.8938 767.1638 767.2878 767.8405 768.1172
   768.7550 769.2528 769.4155 769.6722 769.8654 770.0770 770.9121 771.3879
   773.3033 773.6660 774.1794 774.5199 774.6095 774.7168 774.9016 775.0987
   775.8831 775.9577 776.5660 776.6366 776.8953 777.6896 777.8514 778.0789
   778.8322 779.0209 779.0763 779.1585 780.1714 780.2146 780.6090 780.6541
   781.3741 781.4049 785.5675 785.7517 785.7878 785.8308 788.1828 788.5682
   789.4305 789.8265 790.0219 790.3751 790.4767 791.1323 791.3584 791.5908
   791.9472 793.0492 793.4826 793.7189 794.5871 794.7986 795.1294 795.4838
   796.0094 796.1541 796.5392 796.9116 797.1416 797.2611 797.3206 797.5021
   797.7825 797.8152 801.4637 803.4458 805.7641 806.1092 806.3925 806.8853
   807.1579 807.3588 807.6866 808.4422 808.4571 808.5222 809.5297 809.7077
   810.4952 810.7976 811.0120 811.3766 811.7856 812.1682 812.6244 812.7203
   813.5816 813.6788 814.9308 815.1744 815.9215 816.1304 816.6172 816.7595
   817.8974 818.1515 819.6585 820.1637 821.1123 821.3059 821.4709 821.5229
   822.0967 822.3995 822.6177 822.9013 822.9088 822.9449 823.1018 823.1881
   823.3874 823.4625 826.7328 827.0074 827.2640 827.4221 827.8445 828.1398
   829.9662 830.1092 832.0418 832.1722 832.8627 833.0094 833.4094 833.4857
   833.5571 834.4308 834.4585 835.2707 835.5957 836.2229 836.2772 836.5367
   836.6145 837.1634 837.7710 838.2363 838.3042 838.8082 838.8636 840.0713
   840.1394 841.2438 841.6230 844.0388 844.1298 844.7340 844.7829 847.3415
   848.0086 848.1055 848.1447 848.6964 848.8373 849.9164 850.0386 850.3484
   850.3662 851.3554 851.5509 851.9294 852.7212 852.7767 854.1828 854.6740
   855.8717 855.9921 857.0224 857.4287 858.4236 858.8621 859.1829 859.2384

          k =-0.3333-1.0000 0.0000 (  2424 PWs)   bands (ev):

    -0.6944   2.2244   5.0028   5.1359  13.4908  16.6057  20.3659  21.7117
    23.6975  27.1581  30.6307  33.6167  34.3548  36.5736  37.3600  37.7697
    39.3914  39.7457  43.6017  46.0562  47.0746  49.5485  50.7213  51.0261
    54.6899  58.2475  59.8686  60.1245  62.1037  65.2853  65.7895  67.4429
    68.3640  69.5579  72.6109  74.6043  77.3909  77.9880  78.2879  80.8161
    81.6020  81.9817  84.2599  86.4074  88.5186  89.6194  90.3494  90.7950
    91.6570  92.4994  94.4974  94.4982  98.0186 100.2949 101.3349 101.9964
   102.6247 102.8804 104.4905 105.3639 106.7205 109.4916 110.7499 111.3710
   112.2864 112.4769 114.4504 114.8613 115.6455 118.4408 118.8263 119.3311
   122.8597 124.2567 124.5562 126.1252 126.9318 128.4675 128.8617 129.8359
   130.1361 132.5839 133.0552 133.4988 133.5616 135.1929 136.1003 137.2261
   139.6631 140.9483 141.2108 142.3404 142.5195 143.7797 143.8550 145.0980
   145.1668 146.1417 147.5191 148.2429 150.5432 153.1928 153.4814 154.2462
   158.2744 158.4380 158.8297 162.0600 165.0784 165.8037 167.8253 169.7069
   170.9743 171.4191 174.1369 174.5610 175.1555 175.2496 176.0767 176.2592
   178.7547 178.8803 180.4560 182.4971 183.0119 184.3435 185.0107 186.2655
   187.1804 187.5227 187.5682 188.3816 190.1583 191.9763 192.9607 193.9605
   194.2239 195.1634 195.6334 195.8683 196.4608 196.5268 198.7970 200.4266
   201.3135 201.5456 202.8470 203.2771 203.8867 205.7017 206.0888 206.7184
   208.2963 208.3626 208.8004 209.4105 209.7529 210.1376 211.1891 215.6516
   216.2148 217.3233 217.3511 217.8374 219.3849 220.3769 220.8456 221.4282
   221.5440 223.3828 223.6587 223.8459 224.1313 225.1846 225.3767 226.5072
   226.5450 227.4855 228.6977 232.0438 232.2357 233.9490 233.9608 234.6082
   234.6770 235.2750 236.4026 237.0052 237.4896 238.5941 239.0334 239.1180
   239.1262 241.2287 242.1424 242.2535 244.8623 246.5710 246.9266 248.1523
   248.3650 248.8276 249.3413 251.7433 252.4410 255.3434 257.1196 257.4894
   258.4625 258.8425 259.4932 259.9853 260.3396 261.6182 261.7082 262.8044
   263.4458 263.9184 267.2815 270.2306 270.3937 271.6571 274.6426 275.0850
   275.1805 276.5834 276.6128 277.2040 278.4882 278.5999 279.4204 279.7408
   281.1395 281.7845 282.2702 283.7032 283.9039 284.7158 284.9711 285.5178
   286.0045 286.3611 287.3770 288.9470 289.3122 290.3075 291.5662 293.0180
   293.4374 294.1808 295.6291 296.8718 297.1029 297.1055 297.5518 298.5091
   299.4461 301.0429 301.1699 302.4591 302.5740 302.6229 303.0374 304.5373
   305.2757 306.2136 306.3765 307.6003 307.7566 308.4488 308.5081 311.5838
   314.1391 315.5796 315.7839 317.0873 317.2128 317.7574 318.2675 318.3166
   319.1681 320.7153 320.9578 321.6136 324.2254 324.3199 325.3380 325.5902
   326.4207 326.5925 326.8624 327.6801 327.9485 328.5166 329.2002 330.0120
   333.9033 334.5082 335.6808 335.9945 336.1965 336.5122 336.6530 336.9843
   337.2415 338.8436 340.1478 340.2437 341.3241 342.2829 343.4349 344.0458
   344.6208 345.3947 345.8613 346.8843 347.6916 348.0208 348.0594 348.3839
   349.1131 349.4113 350.6589 350.9059 350.9352 351.0731 351.2523 351.5070
   351.8961 352.1178 352.2165 352.9415 352.9416 353.3757 353.7137 355.0474
   356.7645 358.4863 358.5742 359.7444 362.2322 363.3034 363.5021 363.9792
   363.9881 364.5491 364.7494 364.8224 365.0315 366.4943 368.1740 368.1846
   372.2535 372.3377 373.7958 374.4107 374.5310 374.9671 375.0461 375.3677
   376.1172 376.3807 377.0843 377.7731 378.9109 379.3087 379.7085 379.8174
   380.4311 380.5931 381.5179 381.5961 382.4655 383.0582 384.6458 384.6595
   385.3261 385.9968 387.3478 387.3602 389.6620 389.8494 392.0652 392.2846
   392.6870 394.3257 394.9175 395.3823 397.6061 397.9897 398.0538 398.4078
   398.4656 399.5026 399.5959 400.3124 401.7447 402.1905 402.5897 402.9082
   405.4461 406.0273 408.0704 408.6439 409.3930 409.9310 411.3603 412.2124
   412.2900 412.3877 413.9832 414.1166 414.3041 414.6461 416.4190 416.5175
   417.2310 417.6241 418.3966 418.9924 419.6313 420.1914 420.8162 421.7954
   422.5976 422.7680 422.8437 423.2583 424.4693 425.4582 425.7187 426.6399
   426.6424 428.7782 430.5896 430.8543 431.9104 431.9383 432.6446 432.6766
   432.7209 433.0324 433.5863 434.0723 434.1864 434.7397 435.0618 435.9465
   436.8948 437.7419 438.9164 439.2795 442.2745 442.3809 445.4046 445.6000
   446.2647 446.9120 447.6662 448.2990 448.4500 450.0744 450.3811 450.5186
   450.7094 450.7751 451.5196 451.7523 451.8596 452.2893 453.5390 454.3044
   454.6119 455.3520 455.9723 457.1768 457.3794 458.5929 459.6098 460.0656
   460.1684 460.3272 460.5680 461.4840 462.0290 463.0039 463.3665 464.2154
   465.5502 466.2777 467.0912 467.1762 468.9243 469.0632 469.5078 469.6863
   472.1840 472.6955 473.1762 473.7770 476.1884 476.5667 477.5002 478.7353
   481.4986 481.8563 483.7457 484.3511 485.0619 485.3176 485.9965 486.0090
   486.1801 486.3050 486.6090 486.6780 487.1968 487.2997 487.7485 487.7714
   489.5471 489.5820 489.7738 489.8082 492.5229 493.8477 493.8869 494.2169
   494.2676 494.6238 495.2198 496.5189 497.7011 498.2483 499.2969 499.5290
   500.3111 500.3385 501.0825 501.9823 501.9981 502.9557 503.5963 504.3288
   504.6556 505.1234 505.7384 506.4393 506.5009 506.9716 507.0635 507.4568
   508.8320 509.2013 509.2546 509.7229 510.2413 510.7962 510.8800 511.3113
   511.8041 511.9279 513.0466 513.0847 513.3441 513.5159 513.5916 513.7062
   517.5603 518.0826 518.6867 518.9662 519.0866 519.7216 519.7301 520.4345
   520.9494 521.4054 521.7777 521.8067 522.3240 522.4401 522.6757 523.1815
   523.2498 523.3113 524.3653 524.4649 524.4797 524.5281 526.2957 526.3422
   526.8572 527.0720 527.6038 528.1125 528.9855 529.0371 530.7497 531.5611
   532.8066 532.9641 533.6794 534.0483 534.1045 534.1380 535.3343 535.3474
   536.7066 537.7274 538.2475 538.5355 538.9141 539.2525 539.9208 540.0637
   542.9860 544.1056 544.2478 544.4506 544.5651 545.0776 545.2637 546.2220
   546.2546 548.2467 548.3131 549.5887 550.8629 552.0195 553.3453 553.4150
   554.2923 554.6589 554.9659 555.7501 556.1415 556.6665 556.9346 556.9666
   557.2545 557.4379 558.6110 558.7819 559.2425 559.3178 560.1119 560.4749
   560.7674 561.8917 562.0396 562.3353 562.5181 562.5731 565.3093 565.5595
   566.6233 566.9906 569.3446 569.7890 569.9212 570.2089 570.2434 570.2842
   572.3309 572.3585 572.8865 573.0017 573.1159 573.2054 573.7972 573.8419
   574.2355 574.3514 576.2100 578.0784 578.4516 579.0667 579.9072 580.0389
   580.5446 580.9637 581.3827 581.6149 582.1240 582.1280 582.5463 582.5991
   583.3982 583.5382 583.5640 583.9924 586.7363 587.0526 588.5483 589.1433
   589.1945 590.0562 590.5711 591.1812 591.2399 591.4462 591.6774 592.3180
   593.2278 593.2440 593.9946 595.5396 595.8296 596.0654 597.3942 597.5310
   602.3684 602.4556 602.7027 602.9510 605.5327 606.2426 606.8997 606.9962
   607.6145 607.7060 608.0864 608.9193 609.5320 610.0984 611.1040 611.2531
   611.3523 611.8026 612.0896 612.2532 613.9389 614.1776 614.2791 614.3135
   615.2653 615.7340 616.8229 616.9727 619.0757 619.7391 619.9941 620.3680
   621.5245 622.4513 624.0798 624.5289 625.3297 625.6669 625.9457 627.4511
   629.8056 629.9714 631.0232 631.5318 631.7841 631.9167 633.2485 633.3918
   633.5878 633.7306 633.7595 634.0002 634.9887 635.0171 639.5404 639.5937
   640.2874 640.3577 640.6765 641.1785 642.4593 642.7318 643.1582 643.6024
   644.1775 644.6560 644.9284 645.6116 645.8932 646.3518 646.6927 646.7822
   647.3657 647.5085 648.6695 649.2601 649.3698 649.8593 649.9894 650.7128
   650.9474 651.0916 651.3337 651.4251 653.2564 653.9472 655.4898 655.8282
   656.4665 656.8797 658.0011 658.0899 658.8010 659.0365 659.9269 660.1010
   660.3346 660.7131 660.8890 662.6276 662.7084 664.1970 664.2020 664.3273
   664.4175 664.4809 665.3572 665.5747 665.8004 665.9295 666.0136 666.1346
   666.4989 666.9207 666.9350 667.1185 667.2646 667.3712 668.4209 668.4318
   671.4249 671.4654 671.5891 671.6194 673.8294 674.4916 674.9060 675.3958
   675.8770 676.1200 676.6451 676.6482 676.8534 676.9746 677.1801 677.2338
   677.4288 677.6973 679.0419 679.2015 680.2784 680.4344 681.2406 681.6665
   681.8492 682.1280 682.2900 682.3050 683.6655 684.1633 684.2581 684.2636
   684.3120 684.4284 684.6529 684.6612 685.1591 685.2518 685.2818 686.7848
   686.8442 687.1430 687.2226 689.2974 689.3817 689.6035 690.3288 690.4337
   694.1522 694.6765 695.0865 696.0646 697.7493 697.9693 698.0699 698.0744
   699.5910 699.8429 700.4370 700.5038 700.6371 700.6595 700.7390 700.7794
   701.5951 702.1503 702.8657 703.3252 703.4047 703.5186 705.3079 705.5131
   708.1042 708.3822 709.8608 710.4292 710.6545 711.5776 711.7380 712.1585
   712.6063 712.7501 712.8833 712.9138 714.4227 714.5139 714.5275 714.7132
   715.4464 715.5679 716.3724 717.6606 718.7291 719.0659 719.1422 719.9296
   720.6392 721.0247 721.1185 721.4670 721.4868 721.6497 721.7703 722.3991
   722.7212 722.7713 722.9001 723.2905 723.7571 723.9163 726.1830 726.2112
   727.2155 727.2662 727.6636 727.8461 728.5694 728.8329 729.0416 729.3361
   732.9402 733.0706 733.5149 733.7361 733.8083 734.4305 734.5570 734.5746
   734.8131 735.5131 736.0925 736.2758 736.5534 736.5586 736.7701 736.8776
   736.8948 738.2287 739.3397 740.1945 740.2145 740.6343 740.8678 740.9162
   745.1956 745.3684 745.6302 745.7186 748.0201 748.9576 749.2111 749.6110
   750.1891 750.5662 750.6090 750.6693 751.9053 752.3621 752.5055 752.6079
   753.1846 753.6030 754.2768 754.3131 755.6985 755.7179 756.8735 757.9541
   758.6233 759.1347 759.3107 759.4762 759.6515 760.0231 760.0612 760.1506
   761.7534 762.4001 762.4860 762.5878 763.1866 763.9522 764.8702 764.9438
   765.9590 766.0838 766.3888 767.0833 767.2178 768.1834 768.2074 768.3716
   769.1244 770.6443 771.0493 771.5947 771.9474 772.0450 772.5241 772.5751
   773.0960 773.7745 773.8224 774.0005 774.0547 774.5688 774.7381 775.2748
   775.2987 775.3298 775.8051 775.8209 778.3598 778.3658 778.8741 779.3358
   780.9764 781.0822 781.3956 781.5995 782.1014 782.3633 782.6758 782.7303
   784.4400 784.5544 785.1662 785.2759 786.8390 787.1018 787.1789 787.2583
   787.4552 787.7458 788.5792 789.0993 789.1525 789.5895 789.7421 789.8928
   791.5453 792.3714 792.8664 793.1000 793.9696 794.0289 794.4159 794.7654
   794.8907 795.4708 795.8773 796.6232 796.7152 796.8721 800.6678 801.2284
   801.8443 801.9924 802.4688 802.7015 804.1114 804.3155 805.6465 805.7922
   806.1406 806.3566 806.8822 807.1695 807.8875 807.9686 809.4444 810.7189
   811.6737 811.8001 812.1567 812.6226 812.8776 813.0996 813.4369 813.7636
   813.8832 813.9928 814.1163 814.1515 815.9713 815.9792 816.2239 816.2403
   816.6867 816.8482 817.2598 817.4023 817.4626 817.4674 818.5885 818.6537
   822.5727 822.5781 822.8366 822.9155 823.1048 823.2013 823.6387 823.7107
   823.9442 824.3122 824.7757 824.7872 824.8000 824.8203 829.1048 829.1298
   829.8783 830.4620 830.7488 831.1631 831.7575 832.8848 833.5845 833.7631
   834.0889 834.1693 835.2353 835.4195 836.2198 836.5608 836.9260 837.2154
   837.7597 837.7888 838.1505 838.2149 838.3696 838.5103 839.9329 839.9425
   840.1648 840.3255 840.5896 842.3947 842.5247 842.5639 843.2151 844.5860
   845.0613 846.7246 850.0153 850.2683 850.4446 850.9091 851.1218 851.1787
   855.1625 855.6060 855.6742 855.7454 856.5491 856.6594 857.1138 857.3924
   857.8188 858.1299 858.4772 858.6565 858.6612 858.6990 858.8050 858.9261

     the Fermi energy is    10.2050 ev
     (compare with:    10.6982 eV, computed in scf)

     Writing all to output data dir out/mp-8062.save/
 
     init_run     :      0.02s CPU      0.03s WALL (       1 calls)
     electrons    :    385.65s CPU    409.51s WALL (       1 calls)

     Called by init_run:
     wfcinit      :      0.00s CPU      0.00s WALL (       1 calls)
     potinit      :      0.01s CPU      0.01s WALL (       1 calls)
     hinit0       :      0.01s CPU      0.01s WALL (       1 calls)

     Called by electrons:
     c_bands      :    385.64s CPU    409.48s WALL (       1 calls)
     v_of_rho     :      0.00s CPU      0.00s WALL (       1 calls)

     Called by c_bands:
     init_us_2    :      0.00s CPU      0.00s WALL (       8 calls)
     init_us_2:cp :      0.00s CPU      0.00s WALL (       8 calls)
     paro_k       :    373.31s CPU    396.30s WALL (       8 calls)

     Called by paro_*:
     h_psi        :      8.60s CPU      9.13s WALL (     863 calls)
     g_psi        :      0.17s CPU      0.20s WALL (   81787 calls)

     Called by h_psi:
     h_psi:calbec :      0.16s CPU      0.17s WALL (     863 calls)
     vloc_psi     :      8.29s CPU      8.80s WALL (     863 calls)
     add_vuspsi   :      0.08s CPU      0.08s WALL (     863 calls)

     General routines
     calbec       :      0.16s CPU      0.16s WALL (     863 calls)
     fft          :      0.00s CPU      0.00s WALL (      10 calls)
     fftw         :      7.41s CPU      7.88s WALL (  135098 calls)
 
     Parallel routines
 
     PWSCF        :   6m26.31s CPU   6m50.65s WALL

 
   This run was terminated on:  22:26:46  17Nov2023            

=------------------------------------------------------------------------------=
   JOB DONE.
=------------------------------------------------------------------------------=
