
     Program PWSCF v.6.7+ starts on 29Oct2021 at 16:58:29 

     This program is part of the open-source Quantum ESPRESSO suite
     for quantum simulation of materials; please cite
         "P. Giannozzi et al., J. Phys.:Condens. Matter 21 395502 (2009);
         "P. Giannozzi et al., J. Phys.:Condens. Matter 29 465901 (2017);
          URL http://www.quantum-espresso.org", 
     in publications or presentations arising from this work. More details at
     http://www.quantum-espresso.org/quote

     Parallel version (MPI), running on    20 processors

     MPI processes distributed on     1 nodes
     R & G space division:  proc/nbgrp/npool/nimage =      20
     Reading input from aiida.in

     Current dimensions of program PWSCF are:
     Max number of different atomic species (ntypx) = 10
     Max number of k-points (npk) =  40000
     Max angular momentum in pseudopotentials (lmaxx) =  3
     Message from routine setup:
     using ibrav=0 with symmetry is DISCOURAGED, use correct ibrav instead

     Subspace diagonalization in iterative solution of the eigenvalue problem:
     a serial algorithm will be used

 
     Parallelization info
     --------------------
     sticks:   dense  smooth     PW     G-vecs:    dense   smooth      PW
     Min          30      30      9                 4248     4248     673
     Max          33      33     10                 4298     4298     691
     Sum         613     613    187                85519    85519   13619
 


     bravais-lattice index     =            0
     lattice parameter (alat)  =       4.7160  a.u.
     unit-cell volume          =     635.8432 (a.u.)^3
     number of atoms/cell      =            2
     number of atomic types    =            2
     number of electrons       =         8.00
     number of Kohn-Sham states=           20
     kinetic-energy cutoff     =     100.0000  Ry
     charge density cutoff     =     400.0000  Ry
     scf convergence threshold =      1.0E-08
     mixing beta               =       0.6000
     number of iterations used =            8  plain     mixing
     Exchange-correlation= PBE
                           (   1   4   3   4   0   0   0)

     celldm(1)=   4.716000  celldm(2)=   0.000000  celldm(3)=   0.000000
     celldm(4)=   0.000000  celldm(5)=   0.000000  celldm(6)=   0.000000

     crystal axes: (cart. coord. in units of alat)
               a(1) = (   1.000000   0.000000   0.000000 )  
               a(2) = (  -0.500000   0.866025   0.000000 )  
               a(3) = (   0.000000   0.000000   7.000000 )  

     reciprocal axes: (cart. coord. in units 2 pi/alat)
               b(1) = (  1.000000  0.577350  0.000000 )  
               b(2) = (  0.000000  1.154701  0.000000 )  
               b(3) = (  0.000000  0.000000  0.142857 )  


     PseudoPot. # 1 for B  read from file:
     ./pseudo/B_ONCV_PBE-1.0.upf
     MD5 check sum: 3ac12d690bc056b3dae59758235e900e
     Pseudo is Norm-conserving, Zval =  3.0
     Generated using ONCVPSP code by D. R. Hamann
     Using radial grid of  602 points,  4 beta functions with: 
                l(1) =   0
                l(2) =   0
                l(3) =   1
                l(4) =   1

     PseudoPot. # 2 for N  read from file:
     ./pseudo/N_ONCV_PBE-1.0.upf
     MD5 check sum: b23a1ac6fddb182b34e87061d0b6ed48
     Pseudo is Norm-conserving, Zval =  5.0
     Generated using ONCVPSP code by D. R. Hamann
     Using radial grid of  602 points,  4 beta functions with: 
                l(1) =   0
                l(2) =   0
                l(3) =   1
                l(4) =   1

     atomic species   valence    mass     pseudopotential
        B              3.00    10.81000     B ( 1.00)
        N              5.00    14.00700     N ( 1.00)

     12 Sym. Ops. (no inversion) found


                                    s                        frac. trans.

      isym =  1     identity                                     

 cryst.   s( 1) = (     1          0          0      )
                  (     0          1          0      )
                  (     0          0          1      )

 cart.    s( 1) = (  1.0000000  0.0000000  0.0000000 )
                  (  0.0000000  1.0000000  0.0000000 )
                  (  0.0000000  0.0000000  1.0000000 )


      isym =  2     180 deg rotation - cart. axis [0,1,0]        

 cryst.   s( 2) = (    -1          0          0      )
                  (     1          1          0      )
                  (     0          0         -1      )

 cart.    s( 2) = ( -1.0000000  0.0000000  0.0000000 )
                  (  0.0000000  1.0000000  0.0000000 )
                  (  0.0000000  0.0000000 -1.0000000 )


      isym =  3     120 deg rotation - cryst. axis [0,0,1]       

 cryst.   s( 3) = (     0          1          0      )
                  (    -1         -1          0      )
                  (     0          0          1      )

 cart.    s( 3) = ( -0.5000000 -0.8660254  0.0000000 )
                  (  0.8660254 -0.5000000  0.0000000 )
                  (  0.0000000  0.0000000  1.0000000 )


      isym =  4     120 deg rotation - cryst. axis [0,0,-1]      

 cryst.   s( 4) = (    -1         -1          0      )
                  (     1          0          0      )
                  (     0          0          1      )

 cart.    s( 4) = ( -0.5000000  0.8660254  0.0000000 )
                  ( -0.8660254 -0.5000000  0.0000000 )
                  (  0.0000000  0.0000000  1.0000000 )


      isym =  5     180 deg rotation - cryst. axis [1,-1,0]      

 cryst.   s( 5) = (     0         -1          0      )
                  (    -1          0          0      )
                  (     0          0         -1      )

 cart.    s( 5) = (  0.5000000 -0.8660254  0.0000000 )
                  ( -0.8660254 -0.5000000  0.0000000 )
                  (  0.0000000  0.0000000 -1.0000000 )


      isym =  6     180 deg rotation - cryst. axis [2,1,0]       

 cryst.   s( 6) = (     1          1          0      )
                  (     0         -1          0      )
                  (     0          0         -1      )

 cart.    s( 6) = (  0.5000000  0.8660254  0.0000000 )
                  (  0.8660254 -0.5000000  0.0000000 )
                  (  0.0000000  0.0000000 -1.0000000 )


      isym =  7     inv. 180 deg rotation - cart. axis [0,0,1]   

 cryst.   s( 7) = (     1          0          0      )
                  (     0          1          0      )
                  (     0          0         -1      )

 cart.    s( 7) = (  1.0000000  0.0000000  0.0000000 )
                  (  0.0000000  1.0000000  0.0000000 )
                  (  0.0000000  0.0000000 -1.0000000 )


      isym =  8     inv. 180 deg rotation - cart. axis [1,0,0]   

 cryst.   s( 8) = (    -1          0          0      )
                  (     1          1          0      )
                  (     0          0          1      )

 cart.    s( 8) = ( -1.0000000  0.0000000  0.0000000 )
                  (  0.0000000  1.0000000  0.0000000 )
                  (  0.0000000  0.0000000  1.0000000 )


      isym =  9     inv.  60 deg rotation - cryst. axis [0,0,1]  

 cryst.   s( 9) = (    -1         -1          0      )
                  (     1          0          0      )
                  (     0          0         -1      )

 cart.    s( 9) = ( -0.5000000  0.8660254  0.0000000 )
                  ( -0.8660254 -0.5000000  0.0000000 )
                  (  0.0000000  0.0000000 -1.0000000 )


      isym = 10     inv.  60 deg rotation - cryst. axis [0,0,-1] 

 cryst.   s(10) = (     0          1          0      )
                  (    -1         -1          0      )
                  (     0          0         -1      )

 cart.    s(10) = ( -0.5000000 -0.8660254  0.0000000 )
                  (  0.8660254 -0.5000000  0.0000000 )
                  (  0.0000000  0.0000000 -1.0000000 )


      isym = 11     inv. 180 deg rotation - cryst. axis [0,1,0]  

 cryst.   s(11) = (     1          1          0      )
                  (     0         -1          0      )
                  (     0          0          1      )

 cart.    s(11) = (  0.5000000  0.8660254  0.0000000 )
                  (  0.8660254 -0.5000000  0.0000000 )
                  (  0.0000000  0.0000000  1.0000000 )


      isym = 12     inv. 180 deg rotation - cryst. axis [1,1,0]  

 cryst.   s(12) = (     0         -1          0      )
                  (    -1          0          0      )
                  (     0          0          1      )

 cart.    s(12) = (  0.5000000 -0.8660254  0.0000000 )
                  ( -0.8660254 -0.5000000  0.0000000 )
                  (  0.0000000  0.0000000  1.0000000 )


   Cartesian axes

     site n.     atom                  positions (alat units)
         1           B   tau(   1) = (   0.5000001   0.2886751   0.0000000  )
         2           N   tau(   2) = (  -0.5000001  -0.2886751   0.0000000  )

   Crystallographic axes

     site n.     atom                  positions (cryst. coord.)
         1           B   tau(   1) = (  0.6666667  0.3333333  0.0000000  )
         2           N   tau(   2) = ( -0.6666667 -0.3333333  0.0000000  )

     number of k points=    10
                       cart. coord. in units 2pi/alat
        k(    1) = (   0.0000000   0.0000000   0.0000000), wk =   0.0312500
        k(    2) = (   0.0000000   0.1443376   0.0000000), wk =   0.1875000
        k(    3) = (   0.0000000   0.2886751   0.0000000), wk =   0.1875000
        k(    4) = (   0.0000000   0.4330127   0.0000000), wk =   0.1875000
        k(    5) = (   0.0000000  -0.5773503   0.0000000), wk =   0.0937500
        k(    6) = (   0.1250000   0.2165064   0.0000000), wk =   0.1875000
        k(    7) = (   0.1250000   0.3608439   0.0000000), wk =   0.3750000
        k(    8) = (   0.1250000   0.5051815   0.0000000), wk =   0.3750000
        k(    9) = (   0.2500000   0.4330127   0.0000000), wk =   0.1875000
        k(   10) = (   0.2500000   0.5773503   0.0000000), wk =   0.1875000

                       cryst. coord.
        k(    1) = (   0.0000000   0.0000000   0.0000000), wk =   0.0312500
        k(    2) = (   0.0000000   0.1250000   0.0000000), wk =   0.1875000
        k(    3) = (   0.0000000   0.2500000   0.0000000), wk =   0.1875000
        k(    4) = (   0.0000000   0.3750000   0.0000000), wk =   0.1875000
        k(    5) = (   0.0000000  -0.5000000   0.0000000), wk =   0.0937500
        k(    6) = (   0.1250000   0.1250000   0.0000000), wk =   0.1875000
        k(    7) = (   0.1250000   0.2500000   0.0000000), wk =   0.3750000
        k(    8) = (   0.1250000   0.3750000   0.0000000), wk =   0.3750000
        k(    9) = (   0.2500000   0.2500000   0.0000000), wk =   0.1875000
        k(   10) = (   0.2500000   0.3750000   0.0000000), wk =   0.1875000

     Dense  grid:    85519 G-vectors     FFT dimensions: (  32,  32, 216)

     Dynamical RAM for                 wfc:       0.16 MB

     Dynamical RAM for     wfc (w. buffer):       1.80 MB

     Dynamical RAM for           str. fact:       0.13 MB

     Dynamical RAM for           local pot:       0.00 MB

     Dynamical RAM for          nlocal pot:       0.13 MB

     Dynamical RAM for                qrad:       0.92 MB

     Dynamical RAM for          rho,v,vnew:       0.45 MB

     Dynamical RAM for               rhoin:       0.15 MB

     Dynamical RAM for            rho*nmix:       1.05 MB

     Dynamical RAM for           G-vectors:       0.28 MB

     Dynamical RAM for          h,s,v(r/c):       0.07 MB

     Dynamical RAM for          <psi|beta>:       0.00 MB

     Dynamical RAM for                 psi:       0.33 MB

     Dynamical RAM for                hpsi:       0.33 MB

     Dynamical RAM for      wfcinit/wfcrot:       0.34 MB

     Estimated static dynamical RAM per process >       5.53 MB

     Estimated max dynamical RAM per process >       6.27 MB

     Estimated total dynamical RAM >     125.31 MB

     Initial potential from superposition of free atoms

     starting charge    7.98030, renormalised to    8.00000

     negative rho (up, down):  6.392E-05 0.000E+00
     Starting wfcs are random

     total cpu time spent up to now is        0.5 secs

     Self-consistent Calculation

     iteration #  1     ecut=   100.00 Ry     beta= 0.60
     Davidson diagonalization with overlap
     c_bands:  2 eigenvalues not converged
     c_bands:  3 eigenvalues not converged
     c_bands:  2 eigenvalues not converged
     c_bands:  2 eigenvalues not converged
     c_bands:  4 eigenvalues not converged
     ethr =  5.00E-06,  avg # of iterations = 20.4

     negative rho (up, down):  1.522E-05 0.000E+00

     total cpu time spent up to now is        1.7 secs

     total energy              =     -25.66051499 Ry
     estimated scf accuracy    <       0.37752907 Ry

     iteration #  2     ecut=   100.00 Ry     beta= 0.60
     Davidson diagonalization with overlap
     ethr =  4.72E-03,  avg # of iterations =  3.8

     negative rho (up, down):  5.411E-06 0.000E+00

     total cpu time spent up to now is        1.9 secs

     total energy              =     -25.74463934 Ry
     estimated scf accuracy    <       0.08669976 Ry

     iteration #  3     ecut=   100.00 Ry     beta= 0.60
     Davidson diagonalization with overlap
     ethr =  1.08E-03,  avg # of iterations =  2.1

     negative rho (up, down):  2.530E-07 0.000E+00

     total cpu time spent up to now is        2.1 secs

     total energy              =     -25.76145954 Ry
     estimated scf accuracy    <       0.00286251 Ry

     iteration #  4     ecut=   100.00 Ry     beta= 0.60
     Davidson diagonalization with overlap
     ethr =  3.58E-05,  avg # of iterations =  6.9

     negative rho (up, down):  9.073E-08 0.000E+00

     total cpu time spent up to now is        2.3 secs

     total energy              =     -25.76195807 Ry
     estimated scf accuracy    <       0.00014042 Ry

     iteration #  5     ecut=   100.00 Ry     beta= 0.60
     Davidson diagonalization with overlap
     ethr =  1.76E-06,  avg # of iterations =  6.7

     total cpu time spent up to now is        2.5 secs

     total energy              =     -25.76198094 Ry
     estimated scf accuracy    <       0.00000697 Ry

     iteration #  6     ecut=   100.00 Ry     beta= 0.60
     Davidson diagonalization with overlap
     ethr =  8.72E-08,  avg # of iterations =  5.3

     total cpu time spent up to now is        2.8 secs

     total energy              =     -25.76198165 Ry
     estimated scf accuracy    <       0.00000009 Ry

     iteration #  7     ecut=   100.00 Ry     beta= 0.60
     Davidson diagonalization with overlap
     ethr =  1.12E-09,  avg # of iterations =  9.0

     total cpu time spent up to now is        3.1 secs

     total energy              =     -25.76198169 Ry
     estimated scf accuracy    <       0.00000003 Ry

     iteration #  8     ecut=   100.00 Ry     beta= 0.60
     Davidson diagonalization with overlap
     ethr =  3.56E-10,  avg # of iterations =  7.5

     total cpu time spent up to now is        3.4 secs

     End of self-consistent calculation

          k = 0.0000 0.0000 0.0000 ( 10731 PWs)   bands (ev):

   -21.4787  -9.0831  -5.1494  -5.1494   0.9144   1.8436   2.2979   3.5384
     4.0517   6.2069   6.8464   7.8968   7.8968   8.9779   9.7555  11.2810
    12.3381  15.6842  17.0076  21.3402

     occupation numbers 
     1.0000   1.0000   1.0000   1.0000   0.0000   0.0000   0.0000   0.0000
     0.0000   0.0000   0.0000   0.0000   0.0000   0.0000   0.0000   0.0000
     0.0000   0.0000   0.0000   0.0000

          k = 0.0000 0.1443 0.0000 ( 10779 PWs)   bands (ev):

   -21.1787  -8.6771  -6.3370  -5.7032   1.4261   2.3200   2.8021   4.0039
     4.5573   6.5218   7.2532   7.8769   8.5951   9.1984  10.4983  11.3783
    12.9587  15.9889  17.5361  21.1559

     occupation numbers 
     1.0000   1.0000   1.0000   1.0000   0.0000   0.0000   0.0000   0.0000
     0.0000   0.0000   0.0000   0.0000   0.0000   0.0000   0.0000   0.0000
     0.0000   0.0000   0.0000   0.0000

          k = 0.0000 0.2887 0.0000 ( 10801 PWs)   bands (ev):

   -20.3207  -8.9095  -7.5070  -6.7946   2.8835   3.6102   4.2998   5.0570
     5.9596   6.2778   7.3123   8.6997   9.1294  12.2481  12.3970  12.3997
    14.4378  16.5493  18.6241  18.7141

     occupation numbers 
     1.0000   1.0000   1.0000   1.0000   0.0000   0.0000   0.0000   0.0000
     0.0000   0.0000   0.0000   0.0000   0.0000   0.0000   0.0000   0.0000
     0.0000   0.0000   0.0000   0.0000

          k = 0.0000 0.4330 0.0000 ( 10759 PWs)   bands (ev):

   -19.1135 -11.4839  -7.6722  -5.8148   2.5544   5.0916   6.4595   6.6244
     7.1023   8.1190   8.7267  10.7996  11.4536  12.7908  13.4797  14.6858
    14.6957  15.2944  15.7875  16.1332

     occupation numbers 
     1.0000   1.0000   1.0000   1.0000   0.0000   0.0000   0.0000   0.0000
     0.0000   0.0000   0.0000   0.0000   0.0000   0.0000   0.0000   0.0000
     0.0000   0.0000   0.0000   0.0000

          k = 0.0000-0.5774 0.0000 ( 10694 PWs)   bands (ev):

   -18.3709 -12.7268  -7.9936  -4.7021   1.0673   6.1449   8.7617   9.2044
     9.4348   9.9941  10.3074  10.3791  11.2107  11.6896  11.8969  12.2070
    13.4823  14.4978  14.5169  15.1969

     occupation numbers 
     1.0000   1.0000   1.0000   1.0000   0.0000   0.0000   0.0000   0.0000
     0.0000   0.0000   0.0000   0.0000   0.0000   0.0000   0.0000   0.0000
     0.0000   0.0000   0.0000   0.0000

          k = 0.1250 0.2165 0.0000 ( 10777 PWs)   bands (ev):

   -20.5979  -7.9667  -7.8870  -6.7769   2.4184   3.2294   3.8057   4.8376
     5.5496   6.4758   8.0923   8.3713   8.4073  10.2572  12.0140  12.2784
    14.1907  16.4106  18.4926  18.8253

     occupation numbers 
     1.0000   1.0000   1.0000   1.0000   0.0000   0.0000   0.0000   0.0000
     0.0000   0.0000   0.0000   0.0000   0.0000   0.0000   0.0000   0.0000
     0.0000   0.0000   0.0000   0.0000

          k = 0.1250 0.3608 0.0000 ( 10757 PWs)   bands (ev):

   -19.5410 -10.2829  -8.0361  -6.4264   3.5378   4.3379   5.5948   5.7989
     7.1966   7.3823   8.4130   9.9077  10.3774  12.1426  13.1768  14.7540
    15.2059  15.8282  17.4426  17.6388

     occupation numbers 
     1.0000   1.0000   1.0000   1.0000   0.0000   0.0000   0.0000   0.0000
     0.0000   0.0000   0.0000   0.0000   0.0000   0.0000   0.0000   0.0000
     0.0000   0.0000   0.0000   0.0000

          k = 0.1250 0.5052 0.0000 ( 10700 PWs)   bands (ev):

   -18.4340 -12.2283  -8.7226  -4.8142   1.5149   6.8075   8.1851   8.2582
     8.8877   9.8655  10.5181  11.2120  11.4448  12.6645  12.7688  13.4026
    13.6352  14.3286  14.8237  15.9450

     occupation numbers 
     1.0000   1.0000   1.0000   1.0000   0.0000   0.0000   0.0000   0.0000
     0.0000   0.0000   0.0000   0.0000   0.0000   0.0000   0.0000   0.0000
     0.0000   0.0000   0.0000   0.0000

          k = 0.2500 0.4330 0.0000 ( 10676 PWs)   bands (ev):

   -18.4937 -11.4430  -9.7168  -4.9177   2.0099   6.7195   7.7313   8.2922
     9.3130   9.7704  10.4073  10.9982  11.5206  12.9742  13.4049  14.9241
    15.5997  15.7515  16.1486  16.3358

     occupation numbers 
     1.0000   1.0000   1.0000   1.0000   0.0000   0.0000   0.0000   0.0000
     0.0000   0.0000   0.0000   0.0000   0.0000   0.0000   0.0000   0.0000
     0.0000   0.0000   0.0000   0.0000

          k = 0.2500 0.5774 0.0000 ( 10680 PWs)   bands (ev):

   -17.8995 -12.0590 -10.3950  -3.9846   1.0472   8.9513   9.1445  10.1071
    11.1743  11.3221  11.7677  11.9113  11.9597  13.0321  13.0754  13.6232
    13.6305  14.6420  15.2517  15.3339

     occupation numbers 
     1.0000   1.0000   1.0000   1.0000   0.0000   0.0000   0.0000   0.0000
     0.0000   0.0000   0.0000   0.0000   0.0000   0.0000   0.0000   0.0000
     0.0000   0.0000   0.0000   0.0000

     highest occupied, lowest unoccupied level (ev):    -3.9846    0.9144

!    total energy              =     -25.76198169 Ry
     estimated scf accuracy    <          1.2E-10 Ry

     The total energy is the sum of the following terms:
     one-electron contribution =    -189.28270554 Ry
     hartree contribution      =      96.22896629 Ry
     xc contribution           =      -7.38984773 Ry
     ewald contribution        =      74.68160528 Ry

     convergence has been achieved in   8 iterations

     Writing output data file ./out/aiida.save/
 
     init_run     :      0.25s CPU      0.36s WALL (       1 calls)
     electrons    :      2.70s CPU      2.88s WALL (       1 calls)

     Called by init_run:
     wfcinit      :      0.12s CPU      0.23s WALL (       1 calls)
     wfcinit:atom :      0.00s CPU      0.00s WALL (      10 calls)
     wfcinit:wfcr :      0.11s CPU      0.21s WALL (      10 calls)
     potinit      :      0.03s CPU      0.03s WALL (       1 calls)
     hinit0       :      0.04s CPU      0.05s WALL (       1 calls)

     Called by electrons:
     c_bands      :      2.45s CPU      2.57s WALL (       8 calls)
     sum_band     :      0.21s CPU      0.22s WALL (       8 calls)
     v_of_rho     :      0.04s CPU      0.05s WALL (       9 calls)
     v_h          :      0.00s CPU      0.00s WALL (       9 calls)
     v_xc         :      0.04s CPU      0.05s WALL (       9 calls)
     mix_rho      :      0.00s CPU      0.01s WALL (       8 calls)

     Called by c_bands:
     init_us_2    :      0.02s CPU      0.02s WALL (     170 calls)
     cegterg      :      2.41s CPU      2.52s WALL (      82 calls)

     Called by sum_band:
     sum_band:wei :      0.00s CPU      0.00s WALL (       8 calls)
     sum_band:loo :      0.20s CPU      0.22s WALL (       8 calls)
     sum_band:buf :      0.00s CPU      0.00s WALL (      80 calls)
     sum_band:ini :      0.01s CPU      0.01s WALL (      80 calls)

     Called by *egterg:
     cdiaghg      :      0.37s CPU      0.47s WALL (     697 calls)
     cegterg:over :      0.09s CPU      0.09s WALL (     617 calls)
     cegterg:upda :      0.04s CPU      0.04s WALL (     617 calls)
     cegterg:last :      0.05s CPU      0.05s WALL (     347 calls)
     h_psi        :      1.89s CPU      2.00s WALL (     709 calls)
     g_psi        :      0.01s CPU      0.01s WALL (     617 calls)

     Called by h_psi:
     h_psi:calbec :      0.05s CPU      0.06s WALL (     709 calls)
     vloc_psi     :      1.81s CPU      1.90s WALL (     709 calls)
     add_vuspsi   :      0.02s CPU      0.02s WALL (     709 calls)

     General routines
     calbec       :      0.05s CPU      0.06s WALL (     709 calls)
     fft          :      0.02s CPU      0.02s WALL (      89 calls)
     ffts         :      0.00s CPU      0.00s WALL (       8 calls)
     fftw         :      1.81s CPU      1.91s WALL (   16832 calls)
 
     Parallel routines
     fft_scatt_xy :      0.25s CPU      0.26s WALL (   16929 calls)
     fft_scatt_yz :      0.77s CPU      0.81s WALL (   16929 calls)
 
     PWSCF        :      3.02s CPU      4.11s WALL

 
   This run was terminated on:  16:58:33  29Oct2021            

=------------------------------------------------------------------------------=
   JOB DONE.
=------------------------------------------------------------------------------=
