
     Program PWSCF v.7.1 starts on 20Dec2023 at 13:14:35 

     This program is part of the open-source Quantum ESPRESSO suite
     for quantum simulation of materials; please cite
         "P. Giannozzi et al., J. Phys.:Condens. Matter 21 395502 (2009);
         "P. Giannozzi et al., J. Phys.:Condens. Matter 29 465901 (2017);
         "P. Giannozzi et al., J. Chem. Phys. 152 154105 (2020);
          URL http://www.quantum-espresso.org", 
     in publications or presentations arising from this work. More details at
     http://www.quantum-espresso.org/quote

     Parallel version (MPI), running on    24 processors

     MPI processes distributed on     1 nodes
     123342 MiB available memory on the printing compute node when the environment starts
 
     Reading input from pw_mp-1958_scf_k3000_E50.in
Warning: card &CELL ignored
Warning: card / ignored

     Current dimensions of program PWSCF are:
     Max number of different atomic species (ntypx) = 10
     Max number of k-points (npk) =  40000
     Max angular momentum in pseudopotentials (lmaxx) =  4
 
     K-points division:     npool     =       2
     R & G space division:  proc/nbgrp/npool/nimage =      12
     Subspace diagonalization in iterative solution of the eigenvalue problem:
     a serial algorithm will be used

 
     Parallelization info
     --------------------
     sticks:   dense  smooth     PW     G-vecs:    dense   smooth      PW
     Min          92      92     26                 2025     2025     319
     Max          93      93     27                 2027     2027     324
     Sum        1111    1111    313                24309    24309    3839
 
     Using Slab Decomposition
 


     bravais-lattice index     =            2
     lattice parameter (alat)  =      12.6832  a.u.
     unit-cell volume          =     510.0684 (a.u.)^3
     number of atoms/cell      =            2
     number of atomic types    =            2
     number of electrons       =        26.00
     number of Kohn-Sham states=           26
     kinetic-energy cutoff     =      50.0000  Ry
     charge density cutoff     =     200.0000  Ry
     scf convergence threshold =      1.0E-10
     mixing beta               =       0.7000
     number of iterations used =            8  plain     mixing
     Exchange-correlation= PBE
                           (   1   4   3   4   0   0   0)

     celldm(1)=  12.683218  celldm(2)=   0.000000  celldm(3)=   0.000000
     celldm(4)=   0.000000  celldm(5)=   0.000000  celldm(6)=   0.000000

     crystal axes: (cart. coord. in units of alat)
               a(1) = (  -0.500000   0.000000   0.500000 )  
               a(2) = (   0.000000   0.500000   0.500000 )  
               a(3) = (  -0.500000   0.500000   0.000000 )  

     reciprocal axes: (cart. coord. in units 2 pi/alat)
               b(1) = ( -1.000000 -1.000000  1.000000 )  
               b(2) = (  1.000000  1.000000  1.000000 )  
               b(3) = ( -1.000000  1.000000 -1.000000 )  


     PseudoPot. # 1 for Sr read from file:
     /usr/scratch4/magr4985/MG/HTDF/pseudo/SG15/Sr.upf
     MD5 check sum: 3f9bc8d6f3e8472da0cbe0e6a3044a9f
     Pseudo is Norm-conserving, Zval = 10.0
     Generated using ONCVPSP code by D. R. Hamann
     Using radial grid of  602 points,  6 beta functions with: 
                l(1) =   0
                l(2) =   0
                l(3) =   1
                l(4) =   1
                l(5) =   2
                l(6) =   2

     PseudoPot. # 2 for Te read from file:
     /usr/scratch4/magr4985/MG/HTDF/pseudo/SG15/Te.upf
     MD5 check sum: dd4de4dac1e38587f63aaf3700bb29d3
     Pseudo is Norm-conserving, Zval = 16.0
     Generated using ONCVPSP code by D. R. Hamann
     Using radial grid of  602 points,  6 beta functions with: 
                l(1) =   0
                l(2) =   0
                l(3) =   1
                l(4) =   1
                l(5) =   2
                l(6) =   2

     atomic species   valence    mass     pseudopotential
        Sr            10.00    87.62000     Sr( 1.00)
        Te            16.00   127.60000     Te( 1.00)

     48 Sym. Ops., with inversion, found



   Cartesian axes

     site n.     atom                  positions (alat units)
         1           Sr  tau(   1) = (   0.0000000   0.0000000   0.0000000  )
         2           Te  tau(   2) = (  -0.5000000   0.5000000   0.5000000  )

     number of k points=    72  Gaussian smearing, width (Ry)=  0.0005
                       cart. coord. in units 2pi/alat
        k(    1) = (   0.0000000   0.0000000   0.0000000), wk =   0.0011574
        k(    2) = (  -0.0833333   0.0833333  -0.0833333), wk =   0.0092593
        k(    3) = (  -0.1666667   0.1666667  -0.1666667), wk =   0.0092593
        k(    4) = (  -0.2500000   0.2500000  -0.2500000), wk =   0.0092593
        k(    5) = (  -0.3333333   0.3333333  -0.3333333), wk =   0.0092593
        k(    6) = (  -0.4166667   0.4166667  -0.4166667), wk =   0.0092593
        k(    7) = (   0.5000000  -0.5000000   0.5000000), wk =   0.0046296
        k(    8) = (   0.0000000   0.1666667   0.0000000), wk =   0.0069444
        k(    9) = (  -0.0833333   0.2500000  -0.0833333), wk =   0.0277778
        k(   10) = (  -0.1666667   0.3333333  -0.1666667), wk =   0.0277778
        k(   11) = (  -0.2500000   0.4166667  -0.2500000), wk =   0.0277778
        k(   12) = (  -0.3333333   0.5000000  -0.3333333), wk =   0.0277778
        k(   13) = (   0.5833333  -0.4166667   0.5833333), wk =   0.0277778
        k(   14) = (   0.5000000  -0.3333333   0.5000000), wk =   0.0277778
        k(   15) = (   0.4166667  -0.2500000   0.4166667), wk =   0.0277778
        k(   16) = (   0.3333333  -0.1666667   0.3333333), wk =   0.0277778
        k(   17) = (   0.2500000  -0.0833333   0.2500000), wk =   0.0277778
        k(   18) = (   0.1666667  -0.0000000   0.1666667), wk =   0.0138889
        k(   19) = (   0.0000000   0.3333333   0.0000000), wk =   0.0069444
        k(   20) = (  -0.0833333   0.4166667  -0.0833333), wk =   0.0277778
        k(   21) = (  -0.1666667   0.5000000  -0.1666667), wk =   0.0277778
        k(   22) = (  -0.2500000   0.5833333  -0.2500000), wk =   0.0277778
        k(   23) = (   0.6666667  -0.3333333   0.6666667), wk =   0.0277778
        k(   24) = (   0.5833333  -0.2500000   0.5833333), wk =   0.0277778
        k(   25) = (   0.5000000  -0.1666667   0.5000000), wk =   0.0277778
        k(   26) = (   0.4166667  -0.0833333   0.4166667), wk =   0.0277778
        k(   27) = (   0.3333333   0.0000000   0.3333333), wk =   0.0138889
        k(   28) = (   0.0000000   0.5000000   0.0000000), wk =   0.0069444
        k(   29) = (  -0.0833333   0.5833333  -0.0833333), wk =   0.0277778
        k(   30) = (  -0.1666667   0.6666667  -0.1666667), wk =   0.0277778
        k(   31) = (   0.7500000  -0.2500000   0.7500000), wk =   0.0277778
        k(   32) = (   0.6666667  -0.1666667   0.6666667), wk =   0.0277778
        k(   33) = (   0.5833333  -0.0833333   0.5833333), wk =   0.0277778
        k(   34) = (   0.5000000   0.0000000   0.5000000), wk =   0.0138889
        k(   35) = (   0.0000000   0.6666667   0.0000000), wk =   0.0069444
        k(   36) = (  -0.0833333   0.7500000  -0.0833333), wk =   0.0277778
        k(   37) = (   0.8333333  -0.1666667   0.8333333), wk =   0.0277778
        k(   38) = (   0.7500000  -0.0833333   0.7500000), wk =   0.0277778
        k(   39) = (   0.6666667  -0.0000000   0.6666667), wk =   0.0138889
        k(   40) = (   0.0000000   0.8333333   0.0000000), wk =   0.0069444
        k(   41) = (   0.9166667  -0.0833333   0.9166667), wk =   0.0277778
        k(   42) = (   0.8333333   0.0000000   0.8333333), wk =   0.0138889
        k(   43) = (   0.0000000  -1.0000000   0.0000000), wk =   0.0034722
        k(   44) = (  -0.1666667   0.3333333   0.0000000), wk =   0.0277778
        k(   45) = (  -0.2500000   0.4166667  -0.0833333), wk =   0.0555556
        k(   46) = (  -0.3333333   0.5000000  -0.1666667), wk =   0.0555556
        k(   47) = (   0.5833333  -0.4166667   0.7500000), wk =   0.0555556
        k(   48) = (   0.5000000  -0.3333333   0.6666667), wk =   0.0277778
        k(   49) = (  -0.1666667   0.5000000   0.0000000), wk =   0.0277778
        k(   50) = (  -0.2500000   0.5833333  -0.0833333), wk =   0.0555556
        k(   51) = (   0.6666667  -0.3333333   0.8333333), wk =   0.0555556
        k(   52) = (   0.5833333  -0.2500000   0.7500000), wk =   0.0555556
        k(   53) = (   0.5000000  -0.1666667   0.6666667), wk =   0.0555556
        k(   54) = (   0.4166667  -0.0833333   0.5833333), wk =   0.0555556
        k(   55) = (   0.3333333   0.0000000   0.5000000), wk =   0.0277778
        k(   56) = (  -0.1666667   0.6666667  -0.0000000), wk =   0.0277778
        k(   57) = (   0.7500000  -0.2500000   0.9166667), wk =   0.0555556
        k(   58) = (   0.6666667  -0.1666667   0.8333333), wk =   0.0555556
        k(   59) = (   0.5833333  -0.0833333   0.7500000), wk =   0.0555556
        k(   60) = (   0.5000000   0.0000000   0.6666667), wk =   0.0277778
        k(   61) = (   0.8333333  -0.1666667   1.0000000), wk =   0.0277778
        k(   62) = (   0.7500000  -0.0833333   0.9166667), wk =   0.0555556
        k(   63) = (   0.6666667   0.0000000   0.8333333), wk =   0.0277778
        k(   64) = (  -0.1666667  -1.0000000  -0.0000000), wk =   0.0138889
        k(   65) = (   0.6666667  -0.3333333   1.0000000), wk =   0.0277778
        k(   66) = (   0.5833333  -0.2500000   0.9166667), wk =   0.0555556
        k(   67) = (   0.5000000  -0.1666667   0.8333333), wk =   0.0277778
        k(   68) = (   0.6666667  -0.1666667   1.0000000), wk =   0.0277778
        k(   69) = (   0.5833333  -0.0833333   0.9166667), wk =   0.0555556
        k(   70) = (   0.5000000   0.0000000   0.8333333), wk =   0.0277778
        k(   71) = (  -0.3333333  -1.0000000   0.0000000), wk =   0.0138889
        k(   72) = (  -0.5000000  -1.0000000   0.0000000), wk =   0.0069444

     Dense  grid:    24309 G-vectors     FFT dimensions: (  45,  45,  45)

     Estimated max dynamical RAM per process >       8.12 MB

     Estimated total dynamical RAM >     189.06 MB

     Initial potential from superposition of free atoms

     starting charge      25.6804, renormalised to      26.0000
     Starting wfcs are random

     total cpu time spent up to now is        0.5 secs

     Self-consistent Calculation

     iteration #  1     ecut=    50.00 Ry     beta= 0.70
     Davidson diagonalization with overlap
     ethr =  1.00E-02,  avg # of iterations =  8.5

     Threshold (ethr) on eigenvalues was too large:
     Diagonalizing with lowered threshold

     Davidson diagonalization with overlap
     ethr =  1.32E-04,  avg # of iterations =  4.0

     total cpu time spent up to now is        3.3 secs

     total energy              =    -237.30262467 Ry
     estimated scf accuracy    <       0.02919399 Ry

     iteration #  2     ecut=    50.00 Ry     beta= 0.70
     Davidson diagonalization with overlap
     ethr =  1.12E-04,  avg # of iterations =  2.0

     total cpu time spent up to now is        4.0 secs

     total energy              =    -237.30740261 Ry
     estimated scf accuracy    <       0.00116298 Ry

     iteration #  3     ecut=    50.00 Ry     beta= 0.70
     Davidson diagonalization with overlap
     ethr =  4.47E-06,  avg # of iterations =  5.4

     total cpu time spent up to now is        5.0 secs

     total energy              =    -237.30755261 Ry
     estimated scf accuracy    <       0.00010521 Ry

     iteration #  4     ecut=    50.00 Ry     beta= 0.70
     Davidson diagonalization with overlap
     ethr =  4.05E-07,  avg # of iterations =  2.3

     total cpu time spent up to now is        5.7 secs

     total energy              =    -237.30756503 Ry
     estimated scf accuracy    <       0.00001059 Ry

     iteration #  5     ecut=    50.00 Ry     beta= 0.70
     Davidson diagonalization with overlap
     ethr =  4.07E-08,  avg # of iterations =  2.0

     total cpu time spent up to now is        6.4 secs

     total energy              =    -237.30756799 Ry
     estimated scf accuracy    <       0.00000043 Ry

     iteration #  6     ecut=    50.00 Ry     beta= 0.70
     Davidson diagonalization with overlap
     ethr =  1.66E-09,  avg # of iterations =  2.0

     total cpu time spent up to now is        7.0 secs

     total energy              =    -237.30756808 Ry
     estimated scf accuracy    <          4.8E-09 Ry

     iteration #  7     ecut=    50.00 Ry     beta= 0.70
     Davidson diagonalization with overlap
     ethr =  1.85E-11,  avg # of iterations =  2.9

     total cpu time spent up to now is        7.8 secs

     total energy              =    -237.30756808 Ry
     estimated scf accuracy    <          2.9E-10 Ry

     iteration #  8     ecut=    50.00 Ry     beta= 0.70
     Davidson diagonalization with overlap
     ethr =  1.10E-12,  avg # of iterations =  2.0

     total cpu time spent up to now is        8.4 secs

     End of self-consistent calculation

          k = 0.0000 0.0000 0.0000 (  3071 PWs)   bands (ev):

   -28.2864 -28.2864 -28.2736 -28.2736 -28.2736 -27.8411  -9.8126  -9.8126
    -9.8126  -3.0388   6.8711   6.8711   6.8711   9.6251  10.1894  10.1894
    10.1894  10.8152  10.8152  14.3987  18.6678  18.6678  18.6678  18.9246
    18.9246  18.9246

          k =-0.0833 0.0833-0.0833 (  3053 PWs)   bands (ev):

   -28.2864 -28.2864 -28.2736 -28.2736 -28.2736 -27.8409  -9.8205  -9.8129
    -9.8129  -3.0024   6.5390   6.7700   6.7700   9.8915  10.2845  10.2845
    10.3047  10.9949  10.9949  14.6329  17.6348  18.0928  18.0928  19.1875
    19.1875  19.7190

          k =-0.1667 0.1667-0.1667 (  3041 PWs)   bands (ev):

   -28.2864 -28.2864 -28.2735 -28.2735 -28.2735 -27.8402  -9.8419  -9.8138
    -9.8138  -2.9011   5.8665   6.5286   6.5286  10.0245  10.5354  10.5354
    11.0221  11.4968  11.4968  15.1982  16.5670  17.2038  17.2038  19.2376
    19.2376  20.2990

          k =-0.2500 0.2500-0.2500 (  3040 PWs)   bands (ev):

   -28.2864 -28.2864 -28.2735 -28.2734 -28.2734 -27.8393  -9.8707  -9.8149
    -9.8149  -2.7572   5.1819   6.2547   6.2547  10.1070  10.9109  10.9109
    11.9299  12.2090  12.2090  15.1275  16.2361  16.2361  16.6335  18.9989
    18.9989  20.7203

          k =-0.3333 0.3333-0.3333 (  3028 PWs)   bands (ev):

   -28.2864 -28.2864 -28.2735 -28.2734 -28.2734 -27.8383  -9.8990  -9.8161
    -9.8161  -2.6054   4.6192   6.0226   6.0226  10.2884  11.3918  11.3918
    12.4606  12.9799  12.9799  14.8370  15.3226  15.3226  17.6206  18.4958
    18.4958  21.1090

          k =-0.4167 0.4167-0.4167 (  3040 PWs)   bands (ev):

   -28.2864 -28.2864 -28.2734 -28.2733 -28.2733 -27.8376  -9.9193  -9.8169
    -9.8169  -2.4885   4.2502   5.8714   5.8714  10.5546  11.9164  11.9164
    12.2617  13.5102  13.5102  14.7065  14.7065  15.3462  17.8926  17.8926
    18.4758  19.9936

          k = 0.5000-0.5000 0.5000 (  3040 PWs)   bands (ev):

   -28.2864 -28.2864 -28.2734 -28.2733 -28.2733 -27.8374  -9.9267  -9.8172
    -9.8172  -2.4443   4.1213   5.8192   5.8192  10.7225  12.0309  12.2182
    12.2182  13.5039  13.5039  14.6473  14.6473  15.7706  17.5868  17.5868
    18.9583  19.1662

          k = 0.0000 0.1667 0.0000 (  3051 PWs)   bands (ev):

   -28.2864 -28.2864 -28.2736 -28.2735 -28.2735 -27.8408  -9.8197  -9.8147
    -9.8147  -2.9916   6.3983   6.7801   6.7801   9.9596  10.0252  10.4369
    10.4369  10.8636  11.2896  14.7064  17.7511  17.7511  17.7561  18.9759
    19.8022  19.8022

          k =-0.0833 0.2500-0.0833 (  3041 PWs)   bands (ev):

   -28.2865 -28.2864 -28.2736 -28.2735 -28.2735 -27.8401  -9.8354  -9.8168
    -9.8148  -2.9155   5.9081   6.5807   6.6219   9.9478  10.2815  10.7055
    10.8201  11.1209  11.9218  15.1715  16.5809  17.1241  17.4604  18.8152
    20.0287  20.3401

          k =-0.1667 0.3333-0.1667 (  3034 PWs)   bands (ev):

   -28.2866 -28.2864 -28.2735 -28.2734 -28.2734 -27.8392  -9.8610  -9.8187
    -9.8153  -2.7909   5.3258   6.2814   6.3771   9.9838  10.6922  11.0379
    11.4830  11.7047  12.6936  15.2863  16.0553  16.3274  16.9938  18.5380
    19.8246  20.6968

          k =-0.2500 0.4167-0.2500 (  3031 PWs)   bands (ev):

   -28.2868 -28.2864 -28.2735 -28.2734 -28.2734 -27.8381  -9.8887  -9.8198
    -9.8168  -2.6473   4.7902   6.0174   6.1327  10.1387  11.1573  11.4836
    12.2159  12.3956  13.2126  14.8623  15.5194  15.6725  17.5216  18.1829
    19.2777  21.0496

          k =-0.3333 0.5000-0.3333 (  3031 PWs)   bands (ev):

   -28.2868 -28.2864 -28.2735 -28.2733 -28.2733 -27.8373  -9.9110  -9.8200
    -9.8189  -2.5229   4.3943   5.8405   5.9437  10.4148  11.6601  11.9933
    12.3276  12.9624  13.5604  14.7553  14.9317  15.3887  17.8535  18.4193
    18.4961  20.3762

          k = 0.5833-0.4167 0.5833 (  3046 PWs)   bands (ev):

   -28.2869 -28.2864 -28.2734 -28.2733 -28.2733 -27.8368  -9.9223  -9.8211
    -9.8190  -2.4558   4.1994   5.7681   5.8394  10.7199  11.8493  12.2238
    12.2566  13.3182  13.6158  14.6179  14.7845  15.5504  17.7929  17.9616
    18.9578  19.3955

          k = 0.5000-0.3333 0.5000 (  3044 PWs)   bands (ev):

   -28.2868 -28.2864 -28.2734 -28.2733 -28.2733 -27.8370  -9.9200  -9.8226
    -9.8173  -2.4688   4.2364   5.8038   5.8326  10.7021  11.9205  11.9551
    12.3025  13.1085  13.8967  14.6386  14.7770  15.4819  17.6004  18.0487
    18.9401  19.7257

          k = 0.4167-0.2500 0.4167 (  3036 PWs)   bands (ev):

   -28.2867 -28.2864 -28.2735 -28.2734 -28.2733 -27.8376  -9.9045  -9.8231
    -9.8152  -2.5573   4.5005   5.9244   5.9422  10.4355  11.3986  11.8765
    12.3180  12.6226  13.7316  15.0191  15.0505  15.1500  17.9184  18.0345
    18.7173  20.9598

          k = 0.3333-0.1667 0.3333 (  3036 PWs)   bands (ev):

   -28.2866 -28.2864 -28.2735 -28.2734 -28.2734 -27.8385  -9.8799  -9.8223
    -9.8133  -2.6921   4.9533   6.1044   6.1669  10.2383  10.9208  11.3376
    11.6871  12.5947  12.9199  14.9300  15.7176  15.9698  17.2473  18.3045
    19.1937  20.9990

          k = 0.2500-0.0833 0.2500 (  3033 PWs)   bands (ev):

   -28.2865 -28.2864 -28.2735 -28.2735 -28.2734 -27.8396  -9.8527  -9.8202
    -9.8121  -2.8337   5.5283   6.3458   6.4406  10.1721  10.5542  10.7537
    11.0598  11.9867  12.1079  15.4331  15.9043  16.9783  17.0151  18.5372
    19.5172  20.8890

          k = 0.1667-0.0000 0.1667 (  3032 PWs)   bands (ev):

   -28.2864 -28.2864 -28.2735 -28.2735 -28.2735 -27.8405  -9.8308  -9.8168
    -9.8120  -2.9456   6.1222   6.5962   6.6810  10.1664  10.2328  10.3313
    10.6752  11.2629  11.4348  14.9843  16.8100  17.4977  17.8654  18.6791
    19.5794  20.3996

          k = 0.0000 0.3333 0.0000 (  3010 PWs)   bands (ev):

   -28.2868 -28.2863 -28.2736 -28.2734 -28.2734 -27.8395  -9.8377  -9.8204
    -9.8204  -2.8736   5.6340   6.5825   6.5825   9.6531  10.3437  11.0019
    11.0785  11.0785  12.6269  15.4868  16.1606  16.8183  16.8183  19.1458
    20.6239  20.6239

          k =-0.0833 0.4167-0.0833 (  3029 PWs)   bands (ev):

   -28.2872 -28.2863 -28.2736 -28.2734 -28.2734 -27.8383  -9.8550  -9.8235
    -9.8219  -2.7856   5.2681   6.3694   6.4293   9.5823  10.6332  11.1630
    11.5270  11.5808  13.3731  15.2527  15.9461  16.3046  16.7065  18.9877
    20.5654  20.8254

          k =-0.1667 0.5000-0.1667 (  3038 PWs)   bands (ev):

   -28.2877 -28.2863 -28.2736 -28.2733 -28.2733 -27.8371  -9.8778  -9.8255
    -9.8237  -2.6721   4.9100   6.0553   6.2255   9.7167  11.1268  11.5270
    12.0609  12.1471  13.5014  14.8728  15.6941  15.8991  17.3999  18.5626
    20.1250  20.8360

          k =-0.2500 0.5833-0.2500 (  3042 PWs)   bands (ev):

   -28.2879 -28.2863 -28.2735 -28.2733 -28.2733 -27.8360  -9.8981  -9.8271
    -9.8256  -2.5622   4.6101   5.7945   6.0336  10.0002  11.7016  12.0378
    12.4052  12.5841  13.1229  14.7305  15.2263  15.9567  17.9988  18.6187
    19.2544  20.3540

          k = 0.6667-0.3333 0.6667 (  3057 PWs)   bands (ev):

   -28.2880 -28.2864 -28.2735 -28.2733 -28.2733 -27.8354  -9.9105  -9.8314
    -9.8240  -2.4871   4.4173   5.6531   5.8957  10.4198  11.8241  12.3529
    12.3654  12.9094  13.3086  14.5161  15.1360  15.7216  18.2880  18.4479
    19.1119  19.7985

          k = 0.5833-0.2500 0.5833 (  3042 PWs)   bands (ev):

   -28.2879 -28.2864 -28.2734 -28.2733 -28.2733 -27.8355  -9.9122  -9.8351
    -9.8209  -2.4698   4.3728   5.6410   5.8349  10.8742  11.4422  12.0267
    12.6104  12.9148  13.6381  14.8671  15.1171  15.3389  17.6434  18.3736
    19.6093  19.8800

          k = 0.5000-0.1667 0.5000 (  3041 PWs)   bands (ev):

   -28.2876 -28.2864 -28.2734 -28.2733 -28.2733 -27.8361  -9.9032  -9.8367
    -9.8174  -2.5167   4.4919   5.7486   5.8599  10.8002  11.5326  11.8287
    12.1460  12.4681  14.4966  14.6236  15.1198  15.3526  17.6101  18.1000
    19.3288  20.7610

          k = 0.4167-0.0833 0.4167 (  3050 PWs)   bands (ev):

   -28.2871 -28.2864 -28.2735 -28.2734 -28.2734 -27.8373  -9.8867  -9.8349
    -9.8142  -2.6127   4.7565   5.9557   5.9673  10.6298  11.0824  11.4112
    11.9133  12.4634  13.7654  15.0625  15.4423  15.4828  17.8617  18.1283
    18.7469  20.9777

          k = 0.3333 0.0000 0.3333 (  3036 PWs)   bands (ev):

   -28.2867 -28.2864 -28.2735 -28.2734 -28.2734 -27.8385  -9.8681  -9.8290
    -9.8123  -2.7288   5.1228   6.1405   6.2175  10.5237  10.7446  10.8188
    11.3922  12.5833  12.8900  15.0569  15.7119  16.3309  17.3987  18.1303
    19.1496  21.2490

          k = 0.0000 0.5000 0.0000 (  3042 PWs)   bands (ev):

   -28.2881 -28.2863 -28.2736 -28.2733 -28.2733 -27.8370  -9.8589  -9.8282
    -9.8282  -2.7432   5.0915   6.3888   6.3888   9.2534  10.6874  11.2072
    11.9045  11.9045  13.9543  14.8838  16.1503  16.1503  16.4689  19.5066
    20.3425  20.8208

          k =-0.0833 0.5833-0.0833 (  3042 PWs)   bands (ev):

   -28.2888 -28.2862 -28.2736 -28.2733 -28.2733 -27.8354  -9.8724  -9.8316
    -9.8314  -2.6742   4.9161   6.1899   6.2707   9.2263  10.9838  11.4245
    12.3096  12.3274  13.5793  15.0337  15.8698  16.0491  17.1713  19.4943
    20.0847  20.5679

          k =-0.1667 0.6667-0.1667 (  3041 PWs)   bands (ev):

   -28.2894 -28.2863 -28.2736 -28.2732 -28.2732 -27.8341  -9.8866  -9.8365
    -9.8323  -2.5959   4.7889   5.8621   6.1179   9.4494  11.5297  11.8391
    12.5647  12.6199  12.9469  14.8582  15.6306  16.3731  17.9215  19.2949
    19.7633  20.3626

          k = 0.7500-0.2500 0.7500 (  3049 PWs)   bands (ev):

   -28.2896 -28.2863 -28.2735 -28.2732 -28.2732 -27.8334  -9.8957  -9.8438
    -9.8307  -2.5289   4.7086   5.5744   5.9759   9.8362  12.1173  12.2416
    12.4029  12.5904  12.8748  14.6258  15.6586  16.1554  18.5224  18.7382
    19.3859  20.4305

          k = 0.6667-0.1667 0.6667 (  3062 PWs)   bands (ev):

   -28.2893 -28.2863 -28.2735 -28.2733 -28.2732 -27.8335  -9.8980  -9.8508
    -9.8269  -2.4917   4.6497   5.4441   5.8778  10.3639  11.6584  12.2276
    12.5392  12.9013  13.1205  14.7540  15.5026  15.8143  17.8180  18.5922
    19.8456  20.7165

          k = 0.5833-0.0833 0.5833 (  3046 PWs)   bands (ev):

   -28.2887 -28.2864 -28.2734 -28.2733 -28.2733 -27.8343  -9.8951  -9.8534
    -9.8221  -2.4955   4.6127   5.5036   5.8420  11.0213  11.3651  11.7866
    11.9600  13.0218  13.8954  15.0778  15.2361  15.5072  17.4670  18.2234
    20.2188  20.8262

          k = 0.5000 0.0000 0.5000 (  3054 PWs)   bands (ev):

   -28.2879 -28.2864 -28.2734 -28.2734 -28.2733 -27.8357  -9.8911  -9.8474
    -9.8174  -2.5402   4.6399   5.7012   5.8739  11.1441  11.3821  11.4105
    11.7754  12.5379  14.6097  14.7756  15.2866  15.3539  17.6020  18.1298
    19.4253  20.6467

          k = 0.0000 0.6667 0.0000 (  3058 PWs)   bands (ev):

   -28.2900 -28.2862 -28.2737 -28.2732 -28.2732 -27.8337  -9.8763  -9.8361
    -9.8361  -2.6538   4.8753   6.2501   6.2501   8.9271  10.9401  11.4362
    12.6200  12.6200  13.2829  15.4839  16.0164  16.0164  17.3355  19.5347
    20.2417  20.6679

          k =-0.0833 0.7500-0.0833 (  3041 PWs)   bands (ev):

   -28.2908 -28.2862 -28.2737 -28.2732 -28.2732 -27.8322  -9.8835  -9.8409
    -9.8383  -2.6159   4.8633   6.0616   6.1705   8.9654  11.1169  11.6480
    12.7647  12.8085  12.9558  15.3028  16.1356  16.4507  17.7648  19.2853
    20.0671  20.4124

          k = 0.8333-0.1667 0.8333 (  3054 PWs)   bands (ev):

   -28.2911 -28.2862 -28.2736 -28.2732 -28.2731 -27.8315  -9.8867  -9.8503
    -9.8374  -2.5701   4.9091   5.6899   6.0602   9.2674  11.4874  12.0442
    12.5405  12.7603  12.9162  15.0055  16.3320  16.4732  18.3085  18.6928
    19.6623  20.3967

          k = 0.7500-0.0833 0.7500 (  3060 PWs)   bands (ev):

   -28.2908 -28.2863 -28.2735 -28.2732 -28.2732 -27.8317  -9.8833  -9.8634
    -9.8336  -2.5275   4.9924   5.3127   5.9527   9.7275  11.7872  12.3893
    12.4906  12.5847  12.8721  14.9428  15.8200  16.5957  17.7991  18.6340
    20.0074  20.8409

          k = 0.6667-0.0000 0.6667 (  3050 PWs)   bands (ev):

   -28.2899 -28.2863 -28.2735 -28.2733 -28.2732 -27.8327  -9.8831  -9.8678
    -9.8280  -2.4998   4.8475   5.2855   5.8747  10.3198  11.8383  11.9682
    12.1281  13.1657  13.2211  15.0190  15.2111  16.3693  17.3643  18.4953
    20.5426  20.8914

          k = 0.0000 0.8333 0.0000 (  3034 PWs)   bands (ev):

   -28.2919 -28.2862 -28.2737 -28.2731 -28.2731 -27.8307  -9.8868  -9.8419
    -9.8419  -2.6173   4.8950   6.1732   6.1732   8.7191  10.8575  11.6234
    12.8852  12.9416  12.9416  15.5401  16.6559  16.6559  17.8311  18.9572
    19.7816  19.7816

          k = 0.9167-0.0833 0.9167 (  3043 PWs)   bands (ev):

   -28.2922 -28.2862 -28.2737 -28.2731 -28.2731 -27.8301  -9.8881  -9.8469
    -9.8423  -2.5997   4.9459   5.9871   6.1250   8.8292  10.9160  11.7875
    12.8273  12.9269  12.9530  15.3179  16.9378  17.0772  18.1362  18.4511
    19.2152  19.6414

          k = 0.8333 0.0000 0.8333 (  3052 PWs)   bands (ev):

   -28.2918 -28.2862 -28.2736 -28.2731 -28.2731 -27.8304  -9.8840  -9.8576
    -9.8392  -2.5671   5.0286   5.5898   6.0430   9.2020  11.2969  12.1213
    12.7069  12.7532  12.8426  15.1429  16.4110  17.3034  17.6781  18.5556
    19.4508  20.4451

          k = 0.0000-1.0000 0.0000 (  3026 PWs)   bands (ev):

   -28.2926 -28.2862 -28.2737 -28.2731 -28.2731 -27.8296  -9.8901  -9.8441
    -9.8441  -2.6105   4.9427   6.1494   6.1494   8.6481  10.7032  11.6970
    12.9072  12.9945  12.9945  15.3717  17.4853  17.4853  17.9763  18.7117
    18.7117  18.7476

          k =-0.1667 0.3333 0.0000 (  3036 PWs)   bands (ev):

   -28.2867 -28.2863 -28.2736 -28.2735 -28.2734 -27.8393  -9.8495  -9.8227
    -9.8149  -2.8317   5.4923   6.3935   6.4661   9.9240  10.5164  10.9501
    11.0514  11.6217  12.6633  15.6175  15.6826  16.8538  16.9296  18.6721
    19.8682  21.1924

          k =-0.2500 0.4167-0.0833 (  3031 PWs)   bands (ev):

   -28.2870 -28.2864 -28.2735 -28.2734 -28.2734 -27.8381  -9.8713  -9.8273
    -9.8155  -2.7136   5.0509   6.1343   6.2287  10.0340  10.8945  11.3641
    11.4446  12.2939  13.2709  14.9677  15.7584  16.1158  17.2537  18.3631
    19.5332  21.0096

          k =-0.3333 0.5000-0.1667 (  3043 PWs)   bands (ev):

   -28.2873 -28.2864 -28.2735 -28.2734 -28.2733 -27.8370  -9.8937  -9.8296
    -9.8176  -2.5910   4.6660   5.8939   6.0182  10.2387  11.3454  11.9251
    12.0283  12.4730  13.5574  14.8771  15.3323  15.6256  17.8653  18.1882
    19.0889  20.8761

          k = 0.5833-0.4167 0.7500 (  3043 PWs)   bands (ev):

   -28.2875 -28.2864 -28.2734 -28.2733 -28.2733 -27.8361  -9.9101  -9.8300
    -9.8200  -2.4977   4.4030   5.7364   5.8784  10.5572  11.7454  12.0219
    12.4006  12.6660  13.8653  14.5775  15.0094  15.6233  17.8247  18.2348
    19.2140  20.1244

          k = 0.5000-0.3333 0.6667 (  3056 PWs)   bands (ev):

   -28.2876 -28.2864 -28.2734 -28.2733 -28.2733 -27.8358  -9.9162  -9.8297
    -9.8213  -2.4628   4.3095   5.6827   5.8295  10.8260  11.4744  12.3207
    12.3812  13.1867  13.4784  14.8227  14.9251  15.4224  17.6930  18.5434
    19.3182  19.4945

          k =-0.1667 0.5000 0.0000 (  3035 PWs)   bands (ev):

   -28.2879 -28.2863 -28.2736 -28.2733 -28.2733 -27.8370  -9.8679  -9.8308
    -9.8227  -2.7069   5.0137   6.2226   6.2540   9.5469  10.8805  11.4129
    11.8033  12.1619  13.6917  14.8753  15.8358  16.1020  17.0061  19.0274
    20.1333  20.5976

          k =-0.2500 0.5833-0.0833 (  3035 PWs)   bands (ev):

   -28.2884 -28.2863 -28.2736 -28.2733 -28.2733 -27.8356  -9.8837  -9.8361
    -9.8245  -2.6150   4.7974   5.9411   6.0774   9.7396  11.2744  11.8921
    12.1805  12.4895  13.3065  14.8327  15.5495  16.1551  17.6794  18.9025
    19.5248  20.4752

          k = 0.6667-0.3333 0.8333 (  3038 PWs)   bands (ev):

   -28.2888 -28.2863 -28.2735 -28.2733 -28.2732 -27.8346  -9.8968  -9.8393
    -9.8269  -2.5343   4.6404   5.6833   5.9349  10.0706  11.8131  12.0284
    12.4931  12.5334  13.2642  14.6234  15.3464  16.1847  18.0742  18.5426
    19.6264  20.2386

          k = 0.5833-0.2500 0.7500 (  3053 PWs)   bands (ev):

   -28.2889 -28.2864 -28.2734 -28.2733 -28.2732 -27.8342  -9.9032  -9.8424
    -9.8270  -2.4877   4.5528   5.5505   5.8445  10.5277  11.4391  12.3772
    12.5330  12.7815  13.3596  14.7257  15.3798  15.6300  17.8307  18.7499
    19.6557  20.1616

          k = 0.5000-0.1667 0.6667 (  3050 PWs)   bands (ev):

   -28.2886 -28.2864 -28.2734 -28.2734 -28.2732 -27.8345  -9.9017  -9.8449
    -9.8242  -2.4892   4.5471   5.5691   5.8223  10.8945  11.1892  12.0050
    12.4769  12.8393  13.7184  14.9572  15.1038  15.6183  17.6129  18.4164
    20.0001  20.3223

          k = 0.4167-0.0833 0.5833 (  3050 PWs)   bands (ev):

   -28.2882 -28.2864 -28.2734 -28.2733 -28.2733 -27.8354  -9.8936  -9.8441
    -9.8202  -2.5386   4.6327   5.7253   5.8717  10.5767  11.5085  11.8405
    11.9956  12.5304  14.0971  14.6244  15.2757  15.8823  17.6748  18.2285
    19.5205  20.5168

          k = 0.3333 0.0000 0.5000 (  3048 PWs)   bands (ev):

   -28.2876 -28.2864 -28.2735 -28.2733 -28.2733 -27.8368  -9.8824  -9.8378
    -9.8169  -2.6213   4.8065   5.9730   5.9848  10.2840  11.1401  11.5600
    11.9275  12.4610  13.6303  14.9056  15.5369  15.8107  17.6965  18.5886
    18.7903  20.7320

          k =-0.1667 0.6667-0.0000 (  3038 PWs)   bands (ev):

   -28.2897 -28.2862 -28.2736 -28.2732 -28.2732 -27.8339  -9.8805  -9.8389
    -9.8329  -2.6240   4.8448   6.0871   6.0990   9.2392  11.1635  11.7124
    12.5643  12.6171  13.1233  15.0516  15.8009  16.3957  17.5893  19.6410
    19.8167  20.1902

          k = 0.7500-0.2500 0.9167 (  3045 PWs)   bands (ev):

   -28.2902 -28.2863 -28.2736 -28.2732 -28.2732 -27.8327  -9.8869  -9.8454
    -9.8353  -2.5690   4.8320   5.7704   5.9792   9.5095  11.4518  12.2731
    12.3168  12.7556  12.9404  14.8902  15.7903  16.6055  17.9989  18.8178
    19.9891  20.4771

          k = 0.6667-0.1667 0.8333 (  3054 PWs)   bands (ev):

   -28.2903 -28.2863 -28.2735 -28.2733 -28.2731 -27.8323  -9.8888  -9.8540
    -9.8347  -2.5235   4.8589   5.4639   5.8806   9.9264  11.6799  12.0363
    12.6408  12.8006  13.0015  14.8515  15.8883  16.0958  17.9855  18.6199
    19.8516  20.7444

          k = 0.5833-0.0833 0.7500 (  3050 PWs)   bands (ev):

   -28.2899 -28.2863 -28.2734 -28.2733 -28.2732 -27.8327  -9.8873  -9.8610
    -9.8306  -2.4998   4.8213   5.3586   5.8205  10.4620  11.3994  11.9312
    12.5560  12.7968  13.6212  14.9806  15.2874  16.0332  17.5401  18.5532
    20.2813  20.8842

          k = 0.5000 0.0000 0.6667 (  3057 PWs)   bands (ev):

   -28.2891 -28.2864 -28.2734 -28.2734 -28.2732 -27.8339  -9.8895  -9.8572
    -9.8251  -2.5051   4.7000   5.5001   5.8132  11.0149  11.1146  11.6563
    12.2300  13.0157  13.8383  14.9880  15.1703  15.8649  17.5006  18.2529
    20.4722  20.7148

          k = 0.8333-0.1667 1.0000 (  3052 PWs)   bands (ev):

   -28.2915 -28.2862 -28.2736 -28.2732 -28.2731 -27.8311  -9.8860  -9.8449
    -9.8419  -2.5929   4.9111   5.9838   6.0105   9.0441  11.1126  11.8983
    12.6240  12.9224  12.9302  15.2403  16.3522  16.8110  17.9717  18.7474
    19.7972  20.1446

          k = 0.7500-0.0833 0.9167 (  3049 PWs)   bands (ev):

   -28.2916 -28.2862 -28.2736 -28.2732 -28.2731 -27.8308  -9.8836  -9.8546
    -9.8418  -2.5602   5.0102   5.6225   5.9244   9.3862  11.2790  12.2864
    12.3916  12.8598  12.9395  15.1475  16.3282  16.7832  18.0166  18.4580
    19.3312  20.7648

          k = 0.6667 0.0000 0.8333 (  3047 PWs)   bands (ev):

   -28.2910 -28.2863 -28.2735 -28.2732 -28.2731 -27.8314  -9.8756  -9.8694
    -9.8372  -2.5260   5.1593   5.2018   5.8591   9.8679  11.6003  11.9299
    12.5754  12.7799  13.2152  15.1255  15.6666  16.6352  17.5569  18.6509
    19.7380  21.0513

          k =-0.1667-1.0000-0.0000 (  3046 PWs)   bands (ev):

   -28.2923 -28.2862 -28.2737 -28.2731 -28.2731 -27.8300  -9.8870  -9.8471
    -9.8457  -2.5879   4.9859   5.9358   5.9823   8.9778  10.9602  11.9548
    12.7124  12.8723  12.9972  15.2599  16.9111  17.2382  18.1393  18.4300
    18.6543  20.0932

          k = 0.6667-0.3333 1.0000 (  3051 PWs)   bands (ev):

   -28.2892 -28.2863 -28.2735 -28.2733 -28.2732 -27.8342  -9.8875  -9.8466
    -9.8276  -2.5577   4.7534   5.7919   5.8597  10.0127  11.4009  12.0424
    12.4168  12.5284  13.3671  14.7288  15.4556  16.4998  17.7320  18.5204
    19.8550  20.4901

          k = 0.5833-0.2500 0.9167 (  3050 PWs)   bands (ev):

   -28.2897 -28.2863 -28.2735 -28.2733 -28.2732 -27.8331  -9.8895  -9.8529
    -9.8319  -2.5153   4.7733   5.5553   5.7739  10.3992  11.3689  11.7467
    12.6685  12.8593  13.4550  14.8765  15.4233  16.0865  17.7266  18.3888
    20.3879  20.6553

          k = 0.5000-0.1667 0.8333 (  3060 PWs)   bands (ev):

   -28.2899 -28.2863 -28.2734 -28.2734 -28.2732 -27.8327  -9.8902  -9.8546
    -9.8341  -2.4998   4.7993   5.4469   5.7469  10.8464  10.8561  11.9869
    12.6036  12.7836  13.8182  15.0003  15.4029  15.6510  17.6512  18.6441
    20.0004  20.8597

          k = 0.6667-0.1667 1.0000 (  3067 PWs)   bands (ev):

   -28.2908 -28.2863 -28.2735 -28.2733 -28.2731 -27.8318  -9.8835  -9.8531
    -9.8410  -2.5414   4.9408   5.6860   5.7023   9.8398  11.3380  11.9146
    12.7293  12.8955  13.0109  15.0773  15.8365  16.4683  17.9362  18.2985
    19.9167  20.9058

          k = 0.5833-0.0833 0.9167 (  3055 PWs)   bands (ev):

   -28.2908 -28.2863 -28.2735 -28.2733 -28.2731 -27.8315  -9.8773  -9.8621
    -9.8434  -2.5197   5.0863   5.3850   5.6566  10.2931  11.2744  11.5621
    12.5733  12.9368  13.7762  15.1911  15.6391  15.9111  17.8621  18.5020
    19.3661  21.2639

          k = 0.5000 0.0000 0.8333 (  3057 PWs)   bands (ev):

   -28.2905 -28.2863 -28.2734 -28.2734 -28.2731 -27.8320  -9.8784  -9.8643
    -9.8388  -2.5101   4.9917   5.3818   5.6737  10.7958  10.8679  11.6076
    12.6478  12.8408  14.0737  15.0067  15.3903  15.8515  17.7081  18.4370
    19.8707  21.0999

          k =-0.3333-1.0000 0.0000 (  3040 PWs)   bands (ev):

   -28.2914 -28.2863 -28.2735 -28.2732 -28.2731 -27.8308  -9.8785  -9.8555
    -9.8491  -2.5418   5.1181   5.5695   5.6517   9.7811  11.2280  11.8921
    12.5250  13.0026  13.2209  15.2823  16.2029  16.2673  18.1625  18.5482
    18.6556  21.2443

          k =-0.5000-1.0000 0.0000 (  3052 PWs)   bands (ev):

   -28.2910 -28.2863 -28.2734 -28.2734 -28.2731 -27.8312  -9.8670  -9.8670
    -9.8507  -2.5184   5.3432   5.3432   5.4075  10.8173  10.8173  11.3048
    12.5402  13.0053  14.4006  15.0099  15.6282  15.6282  18.4464  18.4464
    18.4988  21.5746

     the Fermi energy is     7.5768 ev

!    total energy              =    -237.30756808 Ry
     estimated scf accuracy    <          1.5E-12 Ry
     smearing contrib. (-TS)   =      -0.00000000 Ry
     internal energy E=F+TS    =    -237.30756808 Ry

     The total energy is F=E-TS. E is the sum of the following terms:
     one-electron contribution =    -115.99271809 Ry
     hartree contribution      =      62.15936679 Ry
     xc contribution           =     -27.28945676 Ry
     ewald contribution        =    -156.18476002 Ry

     convergence has been achieved in   8 iterations

     Writing all to output data dir out/mp-1958.save/
 
     init_run     :      0.25s CPU      0.32s WALL (       1 calls)
     electrons    :      7.53s CPU      7.93s WALL (       1 calls)

     Called by init_run:
     wfcinit      :      0.20s CPU      0.23s WALL (       1 calls)
     potinit      :      0.02s CPU      0.03s WALL (       1 calls)
     hinit0       :      0.01s CPU      0.03s WALL (       1 calls)

     Called by electrons:
     c_bands      :      6.57s CPU      6.90s WALL (       9 calls)
     sum_band     :      0.92s CPU      0.97s WALL (       9 calls)
     v_of_rho     :      0.03s CPU      0.04s WALL (       9 calls)
     mix_rho      :      0.00s CPU      0.00s WALL (       9 calls)

     Called by c_bands:
     init_us_2    :      0.06s CPU      0.06s WALL (     684 calls)
     init_us_2:cp :      0.06s CPU      0.06s WALL (     684 calls)
     cegterg      :      6.02s CPU      6.28s WALL (     324 calls)

     Called by *egterg:
     cdiaghg      :      0.99s CPU      1.02s WALL (    1372 calls)
     h_psi        :      4.72s CPU      4.96s WALL (    1444 calls)
     g_psi        :      0.02s CPU      0.02s WALL (    1084 calls)

     Called by h_psi:
     h_psi:calbec :      0.11s CPU      0.11s WALL (    1444 calls)
     vloc_psi     :      4.52s CPU      4.75s WALL (    1444 calls)
     add_vuspsi   :      0.08s CPU      0.08s WALL (    1444 calls)

     General routines
     calbec       :      0.10s CPU      0.11s WALL (    1444 calls)
     fft          :      0.01s CPU      0.03s WALL (      90 calls)
     ffts         :      0.00s CPU      0.00s WALL (       9 calls)
     fftw         :      4.88s CPU      5.13s WALL (   56568 calls)
 
     Parallel routines
 
     PWSCF        :      7.88s CPU      8.59s WALL

 
   This run was terminated on:  13:14:44  20Dec2023            

=------------------------------------------------------------------------------=
   JOB DONE.
=------------------------------------------------------------------------------=
