
     Program PWSCF v.7.1 starts on 30Nov2023 at 15: 4:51 

     This program is part of the open-source Quantum ESPRESSO suite
     for quantum simulation of materials; please cite
         "P. Giannozzi et al., J. Phys.:Condens. Matter 21 395502 (2009);
         "P. Giannozzi et al., J. Phys.:Condens. Matter 29 465901 (2017);
         "P. Giannozzi et al., J. Chem. Phys. 152 154105 (2020);
          URL http://www.quantum-espresso.org", 
     in publications or presentations arising from this work. More details at
     http://www.quantum-espresso.org/quote

     Parallel version (MPI), running on     8 processors

     MPI processes distributed on     1 nodes
     123190 MiB available memory on the printing compute node when the environment starts
 
     Reading input from pw_mp-22922_nscf_k60_E108.in
Warning: card &IONS ignored
Warning: card / ignored
Warning: card &CELL ignored
Warning: card / ignored

     Current dimensions of program PWSCF are:
     Max number of different atomic species (ntypx) = 10
     Max number of k-points (npk) =  40000
     Max angular momentum in pseudopotentials (lmaxx) =  4

     Atomic positions and unit cell read from directory:
     out/mp-22922.save/
     Atomic positions from file used, from input discarded
 
 
     R & G space division:  proc/nbgrp/npool/nimage =       8
     Subspace diagonalization in iterative solution of the eigenvalue problem:
     one sub-group per band group will be used
     scalapack distributed-memory algorithm (size of sub-group:  2*  2 procs)

 
     Parallelization info
     --------------------
     sticks:   dense  smooth     PW     G-vecs:    dense   smooth      PW
     Min         204     204     57                 5455     5455     826
     Max         205     205     58                 5458     5458     828
     Sum        1639    1639    463                43655    43655    6615
 
     Using Slab Decomposition
 


     bravais-lattice index     =            2
     lattice parameter (alat)  =      10.4791  a.u.
     unit-cell volume          =     287.6854 (a.u.)^3
     number of atoms/cell      =            2
     number of atomic types    =            2
     number of electrons       =        26.00
     number of Kohn-Sham states=         2704
     kinetic-energy cutoff     =     108.0000  Ry
     charge density cutoff     =     432.0000  Ry
     Exchange-correlation= PBE
                           (   1   4   3   4   0   0   0)

     celldm(1)=  10.479147  celldm(2)=   0.000000  celldm(3)=   0.000000
     celldm(4)=   0.000000  celldm(5)=   0.000000  celldm(6)=   0.000000

     crystal axes: (cart. coord. in units of alat)
               a(1) = (  -0.500000   0.000000   0.500000 )  
               a(2) = (   0.000000   0.500000   0.500000 )  
               a(3) = (  -0.500000   0.500000   0.000000 )  

     reciprocal axes: (cart. coord. in units 2 pi/alat)
               b(1) = ( -1.000000 -1.000000  1.000000 )  
               b(2) = (  1.000000  1.000000  1.000000 )  
               b(3) = ( -1.000000  1.000000 -1.000000 )  


     PseudoPot. # 1 for Ag read from file:
     /usr/scratch4/magr4985/MG/HTDF/pseudo/SG15/Ag.upf
     MD5 check sum: 2fe2fe769560ddf16f28d1c82859634b
     Pseudo is Norm-conserving, Zval = 19.0
     Generated using ONCVPSP code by D. R. Hamann
     Using radial grid of  602 points,  6 beta functions with: 
                l(1) =   0
                l(2) =   0
                l(3) =   1
                l(4) =   1
                l(5) =   2
                l(6) =   2

     PseudoPot. # 2 for Cl read from file:
     /usr/scratch4/magr4985/MG/HTDF/pseudo/SG15/Cl.upf
     MD5 check sum: 0f993535b366f580ecbcdacce103c843
     Pseudo is Norm-conserving, Zval =  7.0
     Generated using ONCVPSP code by D. R. Hamann
     Using radial grid of  602 points,  4 beta functions with: 
                l(1) =   0
                l(2) =   0
                l(3) =   1
                l(4) =   1

     atomic species   valence    mass     pseudopotential
        Ag            19.00   107.86820     Ag( 1.00)
        Cl             7.00    35.45300     Cl( 1.00)

     48 Sym. Ops., with inversion, found



   Cartesian axes

     site n.     atom                  positions (alat units)
         1           Ag  tau(   1) = (   0.0000000   0.0000000   0.0000000  )
         2           Cl  tau(   2) = (  -0.5000000   0.5000000   0.5000000  )

     number of k points=     8  Gaussian smearing, width (Ry)=  0.0005
                       cart. coord. in units 2pi/alat
        k(    1) = (   0.0000000   0.0000000   0.0000000), wk =   0.0312500
        k(    2) = (  -0.2500000   0.2500000  -0.2500000), wk =   0.2500000
        k(    3) = (   0.5000000  -0.5000000   0.5000000), wk =   0.1250000
        k(    4) = (   0.0000000   0.5000000   0.0000000), wk =   0.1875000
        k(    5) = (   0.7500000  -0.2500000   0.7500000), wk =   0.7500000
        k(    6) = (   0.5000000   0.0000000   0.5000000), wk =   0.3750000
        k(    7) = (   0.0000000  -1.0000000   0.0000000), wk =   0.0937500
        k(    8) = (  -0.5000000  -1.0000000   0.0000000), wk =   0.1875000

     Dense  grid:    43655 G-vectors     FFT dimensions: (  50,  50,  50)

     Estimated max dynamical RAM per process >     482.14 MB

     Estimated total dynamical RAM >       3.77 GB

     The potential is recalculated from file :
     out/mp-22922.save/charge-density

     Starting wfcs are random

     Band Structure Calculation
     ParO style diagonalization

     ethr =  5.00E-06,  avg # of iterations =  5.8

     total cpu time spent up to now is     8797.3 secs

     End of band structure calculation

          k = 0.0000 0.0000 0.0000 (  5577 PWs)   bands (ev):

   -81.5877 -45.0788 -45.0788 -45.0788  -6.8240   5.8212   5.8212   5.8212
     5.8673   5.8673   5.9884   5.9884   5.9884   9.2377  19.2496  19.2496
    19.2496  20.7528  21.6675  21.6675  21.6675  22.2149  22.2149  28.0825
    33.4741  33.4741  33.4741  35.2718  35.2718  35.2718  37.2842  37.2842
    38.8955  38.8955  38.8955  44.1444  49.8956  49.8956  49.8956  50.2522
    50.2522  51.6209  51.6209  51.6209  51.9321  51.9321  51.9321  52.5473
    53.8548  53.8548  53.8548  55.0973  55.0973  55.0973  55.7750  58.4622
    58.4622  58.4622  59.2974  59.2974  60.2979  62.0006  62.0006  62.0006
    65.4261  65.4261  65.4261  72.9048  74.1599  74.1599  74.1599  75.2432
    75.2432  77.2474  77.2474  77.2474  80.6913  82.0003  82.0003  82.0003
    85.9729  86.2399  87.4611  87.4611  87.6738  87.6738  87.6738  88.0664
    88.0664  88.0664  92.3538  92.3538  92.3538  92.7433  92.7433  92.7433
    94.6709  94.6709  94.6709  94.8829  94.8829  94.8829  95.4551  95.4551
    96.4876  96.4876  96.5090  96.5090  96.5090  98.1638  98.1638  99.2562
    99.2562  99.2562 100.4111 102.7506 102.8325 102.8325 102.8325 103.4707
   104.3793 104.3793 104.3793 110.5544 110.5544 110.5544 113.6384 113.6384
   113.6384 114.7082 115.0592 115.0592 116.4508 116.4508 116.4508 116.5845
   116.5845 116.5845 116.6650 116.6650 116.9284 116.9284 116.9284 117.2513
   117.2513 117.2513 120.9969 120.9969 120.9969 124.4118 125.7985 126.5160
   126.5160 126.5160 128.1310 128.1310 128.1310 130.3423 130.3423 130.3423
   131.0653 131.0653 131.0653 133.8567 133.8567 134.0831 134.0831 134.0831
   136.2001 136.2001 136.2001 136.3402 136.3402 136.5195 136.5195 136.5195
   136.7020 137.7458 144.8266 144.8266 144.8266 147.0297 147.0297 147.0297
   149.1391 149.1391 152.1491 152.1491 152.9496 152.9496 152.9496 153.0050
   153.0050 153.0050 153.4378 158.8554 159.0595 159.0595 159.0595 160.3921
   160.3921 160.3921 162.6240 162.6240 162.6240 162.6535 163.0960 163.0960
   163.0960 164.1442 164.1442 164.8468 166.6581 166.6581 166.6581 166.7951
   166.7951 166.7951 167.4554 167.4554 167.4554 167.9778 168.5292 170.0765
   170.0765 171.9644 171.9644 171.9644 172.5011 172.5011 172.5011 173.6473
   173.6473 173.6473 174.0687 174.0687 174.0687 174.2416 174.2416 174.2416
   174.4934 174.4934 174.4934 174.5402 174.5402 174.8596 174.8596 174.8596
   175.0327 175.0327 175.1020 175.1020 175.1020 175.2657 175.2657 175.4062
   175.4062 175.4062 175.7693 180.6943 180.6943 180.6943 184.4917 184.4917
   185.2919 185.2919 185.2919 186.0670 186.0991 186.0991 186.0991 186.2894
   186.2894 186.2894 186.4639 186.4639 186.4639 192.1283 192.1283 192.1283
   194.9737 194.9737 194.9737 195.5561 195.5561 195.7771 195.7771 195.7771
   195.8606 195.9930 196.6803 198.9236 198.9236 203.0570 203.0570 203.0570
   207.1355 207.1355 207.1355 207.6393 207.6393 207.6393 207.8388 207.8388
   207.8388 208.3510 208.3510 208.3510 208.5187 208.5187 208.5471 208.9386
   209.9217 209.9217 209.9217 211.0265 211.0265 211.3979 211.3979 211.3979
   211.5575 211.5575 211.6941 211.6941 211.6941 211.9753 211.9753 211.9753
   212.1522 212.1522 212.1522 213.4609 213.4609 215.9499 217.6431 217.6431
   217.6431 223.4834 223.4834 223.4834 226.1965 226.1965 226.1965 226.8106
   226.8848 226.8848 226.8848 227.3163 230.2845 230.2845 230.2845 230.7338
   230.7338 231.6222 231.6222 231.6222 234.7399 236.5185 236.5185 236.5185
   236.6693 236.6693 237.2991 237.2991 237.2991 238.1837 243.4774 243.4774
   243.4774 244.6731 244.6731 244.6731 245.0329 245.0329 245.0329 245.6569
   245.6569 245.6569 245.9554 245.9554 245.9554 247.5277 248.5612 248.5612
   248.5612 248.6756 248.6756 249.0389 249.0389 249.0389 250.0901 250.0901
   250.0901 250.1635 250.1635 250.3148 250.3148 250.3148 250.4886 250.4886
   250.4886 251.0409 251.0409 251.0409 251.5097 253.6358 253.6358 253.6918
   253.6918 253.6918 253.7455 257.9601 257.9601 257.9601 258.8931 259.3911
   259.3911 259.3911 263.7170 264.9601 264.9601 264.9601 265.6220 265.6220
   265.8258 265.9456 265.9456 265.9874 265.9874 265.9874 266.1810 266.1810
   266.1810 267.1510 267.1510 267.1510 267.6255 267.6255 267.6255 268.2782
   268.2782 270.6116 271.5423 271.5423 271.5423 272.4805 272.4805 272.4805
   272.9919 272.9919 272.9919 273.0380 273.0380 273.0380 273.0784 273.0784
   273.2645 273.2645 273.2882 273.2882 273.2882 273.5865 273.5865 273.5865
   273.7407 273.7407 273.7407 274.4568 274.4568 274.4568 275.4029 275.5085
   275.5085 275.5085 275.5233 275.5407 275.5407 275.5407 277.2508 277.2508
   277.2508 278.7880 279.3357 279.3357 279.3357 279.9834 279.9834 280.4375
   280.4375 280.4375 281.1900 283.5959 283.5959 284.4008 284.4008 285.9050
   285.9050 285.9050 286.5042 286.5578 286.5578 286.5578 286.7083 286.7083
   286.7083 287.8644 287.8644 287.8644 287.9267 287.9267 288.1214 288.5847
   288.5847 288.5847 288.6659 288.6659 289.3123 289.3123 289.3123 290.4970
   290.4970 290.4970 290.7070 290.7070 290.7070 290.9223 290.9223 290.9223
   291.1405 291.1405 291.1405 292.2676 292.3740 292.3740 292.3740 292.3854
   292.3854 307.3908 307.3908 307.3908 309.9044 309.9044 309.9044 312.5358
   315.0998 318.1868 318.8468 318.8468 318.8468 319.3881 319.3881 319.3881
   319.5094 319.5094 320.2039 320.2039 320.2039 320.5111 320.5111 320.5111
   320.6962 320.6962 321.2507 321.3776 321.3776 321.3776 321.8667 321.8667
   321.8667 322.0299 322.0299 322.0299 322.6192 322.6192 322.8811 322.8811
   322.8811 322.9441 322.9441 322.9441 322.9548 322.9548 322.9548 323.0929
   323.9961 323.9961 323.9961 329.5431 329.5431 330.2023 330.2023 330.2023
   330.2625 330.2625 330.2625 330.3647 330.3647 330.5747 330.5747 330.5747
   330.9258 330.9258 330.9258 332.0963 332.0963 332.2507 332.2507 332.2507
   332.5475 335.9200 335.9200 335.9200 337.9470 337.9470 337.9470 338.0779
   338.0779 338.5833 338.5833 338.5833 339.1176 341.1369 341.7562 341.7562
   341.7562 342.8062 342.8062 343.4653 343.4653 343.4653 345.4056 345.4056
   345.4056 347.7109 347.8289 347.8289 347.8289 347.9327 347.9327 348.5276
   348.5276 348.5276 348.5410 348.5410 348.5410 348.8736 348.8736 348.9363
   348.9363 348.9363 349.1668 349.1668 349.1668 349.4632 349.4632 349.4632
   349.9180 355.2010 356.4409 356.4409 356.7674 356.7674 356.7674 357.2357
   357.2357 357.2357 358.4371 358.4371 358.4371 359.0986 359.0986 359.0986
   359.5092 359.5092 359.5092 359.8972 360.0763 364.4986 364.4986 364.5548
   364.5548 364.5548 364.7353 364.7353 364.7353 364.7768 364.7768 364.7768
   364.9796 365.2396 365.7483 365.7483 365.7483 366.1295 366.1295 366.1295
   366.7725 366.7725 366.8234 367.0569 367.0569 367.0569 367.4079 367.4079
   367.4079 367.4832 367.4832 367.4832 367.6208 367.6208 367.6208 367.6499
   367.6499 369.0791 369.0791 369.2507 369.2507 369.2528 369.2528 369.2528
   369.2667 369.2667 369.2667 369.4287 369.4287 369.4287 369.5571 369.5571
   369.5571 369.5890 369.6556 379.3691 379.3691 379.7555 379.7555 379.7555
   381.0153 381.3616 381.3616 381.3616 381.7314 381.7314 381.7314 381.8767
   381.8767 381.8767 382.1155 382.1155 382.1155 383.1751 383.6141 383.6141
   383.6141 383.6779 383.6779 389.7804 389.7804 389.7804 389.8239 389.8239
   389.8239 390.9615 391.2049 395.3127 395.3127 395.3127 395.8913 395.8913
   395.8913 396.0513 396.0513 396.0513 396.7414 396.7414 396.7414 396.7523
   396.7523 396.8443 396.8443 398.6131 399.4157 399.4157 399.4157 400.1769
   400.1769 400.1769 400.7773 400.7773 400.7773 400.9199 400.9199 400.9199
   401.0711 401.0711 401.0711 401.2653 401.2653 401.2653 401.4100 402.0935
   402.0935 402.2843 402.2843 402.2843 402.8991 402.8991 402.8991 403.1939
   403.1939 403.1939 403.6031 403.6031 403.6340 403.6340 403.6340 404.7220
   404.7220 404.8753 404.8753 404.8915 404.8915 404.8915 404.9289 404.9289
   404.9289 405.0049 405.0049 405.0049 405.0494 405.0494 405.0494 407.0843
   407.1460 407.1460 407.1460 407.1765 407.1765 407.1765 407.1817 410.0282
   410.0282 410.0687 410.0687 410.0687 410.0688 410.0688 410.0688 410.1180
   410.1246 410.1246 410.1246 410.1472 410.1472 410.1472 410.1606 410.1606
   410.1606 410.1727 410.1727 410.2198 410.2198 410.3553 410.4980 410.4980
   410.4980 410.6056 410.6056 410.6056 410.6885 415.7980 415.7980 415.7980
   415.8073 415.8747 415.8747 415.8747 416.0596 425.4294 425.4294 425.4294
   425.8515 425.8515 426.0829 428.3394 428.3394 428.3394 428.4568 428.4568
   428.4568 428.4584 428.4584 428.5691 428.5691 428.5691 428.6695 428.6695
   428.6695 428.7250 428.7250 429.5083 429.5083 429.5083 429.8990 429.8990
   429.8990 430.0543 430.0543 430.0543 430.3774 430.3774 430.3774 436.5156
   436.5156 436.6449 436.6449 436.6449 436.9376 442.5091 442.6512 442.6512
   442.6512 442.7025 442.7025 446.8123 446.8123 446.8123 446.8125 446.8125
   446.8125 446.8510 446.8510 446.8510 446.8640 446.8640 446.8640 448.7066
   448.7066 448.7192 448.7192 448.7192 448.7291 452.5714 452.5714 452.5714
   452.7291 454.5423 454.5423 457.6945 457.6945 457.6945 458.8433 458.8433
   458.8433 458.8934 459.7609 459.7609 459.7609 461.0238 461.0238 461.0238
   461.2623 461.2623 461.2623 462.0613 462.9001 462.9001 463.0634 463.0634
   463.0634 463.1008 463.1008 463.1008 463.5498 463.5498 463.7847 463.8869
   463.8869 463.8869 464.4317 464.9171 464.9171 464.9171 465.6001 465.6001
   467.2425 467.2425 467.2425 468.3958 468.3958 468.3958 469.5811 469.5811
   469.5811 469.7638 469.9096 469.9096 471.2131 471.2131 471.2131 472.8393
   472.8393 472.8393 474.1453 476.4141 476.4141 476.4141 476.4820 476.4820
   476.4820 476.9499 476.9499 476.9615 476.9615 477.7068 477.7068 477.7068
   477.7226 477.7226 477.7226 479.7012 479.7012 479.7012 479.7198 479.8434
   479.8434 479.8434 479.9605 482.9287 482.9287 482.9287 483.0968 483.0968
   483.1655 483.1655 483.1655 483.4524 483.4524 483.4524 483.5304 483.5304
   483.5354 483.5354 483.5354 484.2987 484.2987 484.2987 484.4503 484.4503
   484.4503 484.5833 484.5833 484.5833 484.5838 484.8131 484.8131 485.0198
   485.0198 485.0525 485.0525 485.0525 485.1198 485.1198 485.1198 485.1246
   485.1246 485.1246 485.1645 496.8443 496.8443 496.8443 496.9075 496.9075
   496.9075 497.5821 497.5821 497.5821 497.6014 497.6014 497.6014 497.6907
   497.7825 497.8125 497.8125 497.8125 497.8261 497.8261 498.8802 498.8802
   498.8802 499.5839 499.5839 499.5839 499.8367 499.8367 500.0020 500.0020
   500.0020 501.6425 502.1695 502.1695 502.1695 502.6660 502.6660 502.6660
   502.6947 502.6947 502.8358 502.8358 502.8358 506.4128 506.4128 506.4128
   506.7080 506.8845 506.9465 506.9465 506.9465 507.0977 507.0977 507.1301
   507.1301 507.1301 507.1767 507.1767 507.2438 507.2438 507.2560 507.2560
   507.2560 507.3593 507.3593 507.3593 507.4897 507.4897 507.4897 507.4933
   507.4933 507.4933 507.6437 507.6437 507.6437 507.7064 507.7064 507.7064
   507.7104 508.8590 508.8590 509.0188 509.0188 509.0188 509.1824 509.1826
   509.1826 509.1826 509.4538 509.4538 509.6088 509.6088 509.6088 510.0612
   510.0612 510.0612 510.3248 515.0131 515.7037 515.7037 515.7037 516.3706
   516.3706 516.3706 516.8929 516.8929 516.9467 516.9467 516.9467 518.9295
   519.1599 519.1599 519.1599 519.3566 519.3566 519.3566 519.6314 519.7216
   519.7216 519.7216 519.7293 519.7293 519.7293 519.7657 519.7657 519.7657
   519.7867 519.8050 519.8050 523.4430 523.4430 523.4930 523.4930 523.4930
   523.6830 524.0859 524.0859 524.0859 524.1057 524.1057 524.1057 524.2004
   524.2004 524.2832 524.2832 524.2832 524.4501 524.4501 524.4501 524.4741
   524.4741 524.4741 524.5553 524.5553 524.5553 524.5704 524.5704 524.5704
   524.5908 524.6287 524.6287 524.6795 524.6795 524.6795 524.8071 525.0529
   525.1621 525.1621 525.1621 525.2422 525.2422 525.2422 525.2867 525.2867
   525.2943 525.2943 525.2943 548.2035 548.9770 548.9770 548.9770 549.6473
   549.6473 549.6473 550.2959 550.2959 550.2959 550.6132 550.7759 550.7759
   550.9501 550.9775 550.9775 550.9775 551.5007 551.9534 551.9534 551.9534
   552.0505 552.0505 552.3878 552.3878 552.3878 552.4256 552.4256 552.4256
   552.5136 552.5136 552.5136 552.6095 552.6095 553.5502 553.5502 553.5502
   553.9646 553.9646 553.9646 555.3049 555.3049 555.3049 555.6639 555.6639
   555.6639 557.5084 557.6913 557.6913 557.6913 557.7050 557.7050 557.8346
   557.8346 558.0956 558.0956 558.0956 558.3816 559.0244 559.0244 559.0244
   559.3368 559.3368 559.3368 559.5363 559.5363 559.5363 560.0914 560.0914
   560.1507 560.1507 560.1507 560.8258 560.8258 560.8258 560.8459 560.8459
   560.8646 560.8646 560.8646 561.1010 561.1010 561.1210 561.1210 561.1210
   561.2262 561.2262 561.2262 561.3812 561.3812 561.3812 561.4023 561.4079
   561.4079 561.4079 561.4561 563.3681 563.3681 563.6293 563.6293 563.6293
   563.7258 565.8745 565.8745 565.8745 565.9576 565.9576 565.9806 565.9806
   565.9806 566.1928 566.1928 566.1928 566.2234 566.2234 566.2674 566.2674
   566.2674 568.5794 568.5794 568.5794 568.5799 568.5858 568.5858 568.5858
   568.6010 578.2080 578.4344 578.4344 578.4344 578.5993 578.5993 579.4483
   579.4483 579.4483 579.4636 579.4636 579.4636 579.6499 579.6499 579.6499
   579.7072 579.7072 579.7072 580.2526 580.4533 580.4533 580.4977 580.4977
   580.4977 584.2125 584.2125 584.2125 584.4329 584.4329 584.4329 584.4577
   584.4856 586.2046 586.2046 586.2068 586.2068 586.2068 586.2272 586.2496
   586.2496 586.2496 586.2678 586.2678 586.2678 586.3237 586.3237 586.3237
   586.3628 586.3628 586.3868 586.3868 586.3868 586.4766 586.4766 586.4766
   586.5363 595.2237 595.2237 595.2237 595.3130 595.3130 595.3130 595.4364
   595.4364 595.4364 595.4678 595.4678 595.4678 598.9507 598.9507 599.0100
   599.0100 599.0100 599.1112 599.1112 599.1112 599.2583 599.2583 599.2583
   599.3378 599.3378 599.3605 599.3605 599.3605 605.7045 605.7090 605.7090
   605.7090 605.7097 605.7097 609.3705 609.3705 609.3705 609.7704 609.7704
   609.7774 609.7774 609.7774 609.7839 610.0578 610.0578 610.0578 611.9446
   613.0271 613.0271 613.0271 613.1710 613.1710 613.1710 613.6147 613.6147
   613.8626 613.8626 613.8626 620.9008 620.9008 621.1690 621.1690 621.1690
   623.6018 623.6018 623.6018 623.9557 625.0962 625.0962 625.0962 625.8304
   625.8304 625.8304 626.6218 626.6218 626.6218 629.9456 630.7228 631.3397
   631.3397 631.3397 631.4530 631.4530 631.4530 631.6265 631.6265 632.5132
   632.5132 632.7844 632.7844 632.7844 632.9842 633.0510 633.0510 633.0510
   633.1314 633.1314 633.1314 633.1833 633.1833 633.1833 633.7134 633.7243
   633.7243 634.1327 634.1327 634.1327 634.1484 634.1484 634.1484 634.2800
   634.2800 634.2800 634.4815 634.4815 634.4815 634.6573 635.0822 635.0822
   635.0822 635.2147 635.4032 635.4032 635.4032 635.6457 635.6457 636.6253
   636.6253 636.9811 636.9811 636.9811 637.3356 637.3356 637.3356 637.4320
   637.4320 637.4320 637.5837 637.5837 637.6842 637.6842 637.6842 638.6358
   638.6358 638.6358 638.7407 638.7407 638.7799 638.8600 638.8600 638.8600
   638.9725 638.9725 638.9725 639.0654 639.0654 639.4470 639.4470 639.4470
   639.7648 640.9756 640.9756 641.2094 641.2094 641.2094 641.2416 641.2416
   641.2416 641.3331 641.3331 641.3331 641.4643 641.4643 641.4643 641.5256
   641.5256 642.2967 642.2967 642.2967 642.3563 642.3563 642.3563 642.4251
   642.4559 642.4559 642.4559 642.4751 642.5160 642.5160 642.5160 642.6581
   642.6581 642.6581 642.7051 642.7051 642.7051 643.1850 643.3621 643.3621
   643.3621 643.3957 643.3957 643.4798 643.4798 643.4798 643.5028 643.5028
   643.5028 644.3938 644.3938 644.4090 644.4090 644.4090 644.4325 649.6259
   649.6839 649.6839 649.6839 649.7293 649.7293 649.7293 649.7511 654.5543
   654.5543 654.7180 654.8045 654.8045 654.8045 654.8332 654.8332 654.8332
   654.9378 654.9378 654.9378 655.9074 655.9474 655.9474 656.1183 656.1183
   656.1183 656.1730 656.1730 656.1730 656.2135 656.2135 656.2135 663.1108
   663.1108 663.1108 663.1127 663.1127 663.1128 663.1128 663.1128 663.1223
   663.1223 663.1223 663.1224 663.1224 663.1224 663.1232 663.1232 668.2688
   668.4700 668.4700 668.4700 668.7737 668.7737 668.7737 668.9729 669.6315
   669.6315 669.9132 669.9132 669.9132 670.1928 670.1928 670.1928 670.2016
   670.2016 670.2016 670.4179 670.4179 670.4179 670.4875 670.4875 672.6262
   672.6262 672.8794 672.8794 672.8794 673.6291 673.6291 673.6291 673.8627
   673.8627 673.8627 673.9541 674.1448 674.1448 674.1558 674.1558 674.1558
   674.2262 674.2262 674.7110 674.7110 674.7110 674.9996 675.0061 675.0061
   675.0061 675.1273 675.1273 675.1273 675.3103 678.1517 678.1551 678.1551
   678.1551 678.1762 678.1762 678.1762 678.2157 678.4692 678.4692 678.4692
   678.4850 678.4850 678.4973 678.4973 678.4973 678.5316 678.5316 678.5316
   678.5458 678.5458 678.5458 678.5462 678.5462 678.9620 679.0752 679.0752
   679.0752 679.3100 679.3100 679.3100 679.5710 679.5710 679.5710 679.5857
   679.5857 680.1507 680.1507 680.1507 680.2518 680.2518 680.2518 680.5901
   680.5901 680.7657 680.7657 680.7657 680.8174 680.8174 680.8174 680.8266
   680.8266 680.8266 680.8934 680.9041 680.9041 680.9442 680.9442 680.9442
   680.9883 681.5600 681.5600 681.5600 681.7262 681.7262 681.7262 681.7344
   681.7344 681.7344 681.8502 681.8663 681.8663 697.8978 697.9529 697.9529
   697.9529 698.0637 698.0749 698.0749 698.0749 698.8634 698.8634 698.8742
   698.8742 698.8742 698.9799 698.9799 698.9799 699.0396 699.0396 699.0396
   699.0981 699.0981 699.0981 699.1222 699.1222 703.8724 703.8724 704.0154
   704.1844 704.1844 704.1844 704.2578 704.2578 704.2578 704.4027 704.4027
   704.4027 704.5134 704.5134 704.5134 704.5386 704.5386 704.5386 704.8682
   704.8682 704.9649 704.9649 704.9649 705.0880 709.0021 709.0912 709.0912
   709.0912 709.3862 709.3862 709.3862 709.3981 712.4435 712.4435 712.4435
   712.4510 712.4510 712.4510 712.4762 712.4762 712.4762 712.5207 712.5207
   712.5207 712.9614 712.9614 713.0932 713.1632 713.1632 713.1632 719.0613
   719.0613 719.0626 719.0626 719.0626 719.0629 719.6305 719.6305 719.6305
   719.6386 719.6386 719.6386 719.6452 719.6452 719.6452 719.6515 719.6515
   719.6515 720.1053 720.1053 720.1111 720.1111 720.1111 720.1158 723.7873
   723.7873 723.7954 723.7954 723.7954 723.8070 731.5814 731.6374 731.6374
   731.6374 731.8003 732.0326 732.0326 732.0326 732.3075 732.3075 732.5431
   732.5431 732.5431 732.5580 732.5580 732.5580 732.5612 732.5612 732.5612
   732.6356 732.6356 732.6371 732.6371 732.6371 739.1791 739.1791 739.1791
   739.1807 739.2413 739.3352 739.3352 739.3547 739.3547 739.3547 739.5922
   739.6505 739.6505 739.6505 739.9295 739.9295 739.9295 739.9325 739.9325
   739.9325 740.0306 740.0306 740.0306 740.1232 740.1232 740.1232 740.1946
   740.1946 740.3123 740.3123 740.3123 740.4267 741.3880 741.3880 741.4244
   741.4244 741.4244 741.5736 741.5736 741.5736 741.6373 741.6373 741.6373
   741.7303 741.7303 741.7303 741.7716 741.7716 741.9454 742.0128 742.0128
   742.0128 742.0801 742.0801 742.0801 742.1393 743.9401 743.9401 744.0898
   744.0898 744.0898 744.3239 744.3239 744.3239 744.4119 744.4119 744.4119
   744.4761 744.4761 744.4761 744.6735 744.6735 750.6852 750.8804 750.8804
   750.8804 750.9475 750.9475 750.9475 751.0162 751.5215 751.5215 751.6374
   751.6374 751.6374 751.7192 751.7192 751.7192 751.7621 751.7621 751.7621
   751.7974 751.7974 751.7974 751.8408 751.8408 755.6682 755.6682 755.6698
   755.6698 755.6698 755.7800 755.7800 755.7800 755.9251 755.9251 755.9251
   756.0045 756.0045 756.0212 756.0212 756.0212 756.2065 756.2811 756.2811
   756.2811 756.3580 756.3580 756.3580 756.4375 758.1028 758.1028 758.1076
   758.1076 758.1076 758.1250 758.1250 758.1250 758.1255 758.1255 758.1255
   758.1347 758.1347 758.1347 758.1451 758.1451 759.7039 759.7328 759.7328
   759.7328 759.7615 759.7615 759.7615 759.7900 769.1885 769.5829 769.5829
   770.0014 770.0014 770.0014 770.3747 770.3747 770.3747 770.7947 770.7947
   770.7947 771.2261 771.2261 771.2261 771.5813 771.5813 771.5813 772.5092
   772.5092 772.9758 772.9758 772.9758 773.4277 776.5112 776.5112 776.5112
   776.6393 776.6944 776.6944 776.7516 776.7516 776.7516 776.7554 776.7554
   776.7554 780.2594 781.1136 781.1136 781.1136 781.4445 781.4445 781.4445
   781.8386 781.8386 781.8609 781.8609 781.8609 783.5260 784.7046 784.7046
   784.7046 785.5817 785.5817 785.5817 786.2265 792.7999 792.7999 792.8244
   792.8244 792.8244 792.8705 793.9713 793.9713 793.9713 794.0181 794.0181
   794.0181 794.2337 794.2337 794.2337 794.3275 794.3275 794.4376 794.4376
   794.4376 795.0921 795.0921 795.0921 795.2061 796.5018 796.5018 796.8043
   797.0031 797.0031 797.0031 797.1629 797.1755 797.1755 797.1755 797.1810
   797.1810 797.1847 797.1847 797.1847 797.2081 797.2081 797.2081 797.3218
   797.5046 797.5046 797.5046 797.6814 797.6814 797.6814 798.0232 798.0232
   798.0232 798.0889 798.0889 799.5302 799.5302 799.5331 799.5331 799.5331
   799.6303 799.6303 799.6303 799.7255 799.7255 799.7255 799.8034 799.8034
   799.8138 799.8138 799.8138 801.3060 801.3060 801.3060 801.3063 801.3063
   801.3076 801.5693 801.5693 801.5693 801.6170 801.6170 801.6170 801.6418
   801.6418 801.6418 801.7182 801.7182 801.7182 801.8415 801.8415 801.9253
   801.9253 801.9253 802.0027 812.1014 812.2023 812.2023 812.2023 812.3414
   812.3414 812.3414 812.4584 812.4584 812.4584 812.4663 812.4663 815.2994
   815.4077 815.4077 815.4077 815.4808 815.4808 815.4808 815.4835 815.4835
   815.4900 815.4900 815.4900 818.0961 818.0961 818.0961 818.1914 818.6868
   818.6868 818.6868 818.7474 818.7474 818.7474 819.0567 819.0567 819.4496
   819.4496 819.4496 819.5306 819.5306 819.5306 819.8477 819.8477 819.9469
   819.9469 819.9469 820.0484 820.1120 820.1120 820.1120 820.1275 820.1275
   820.1830 820.1830 820.1830 820.2270 820.2270 820.2270 820.3311 820.9783
   820.9783 820.9783 821.0520 821.0520 821.0520 821.5048 821.5048 821.7014
   821.7014 821.7014 822.1781 824.1677 825.1966 825.1966 825.1966 826.5686
   826.5686 826.5686 827.0092 827.0092 827.5411 827.5411 827.5411 828.8930
   828.8930 828.8930 829.1102 829.1102 829.1102 829.5520 829.9077 829.9077
   829.9077 830.1469 830.1469 830.2978 830.2978 830.2978 830.3865 830.3865
   830.3865 830.4292 830.4292 830.4292 830.4961 830.4961 830.6483 830.6483
   830.6483 831.2250 831.2250 831.2250 831.5235 831.5235 831.5235 831.6656
   831.6656 831.6656 832.1085 832.4601 832.4601 832.5279 832.5279 832.5279
   832.6071 832.7193 832.7193 832.7193 832.7204 832.7204 832.7204 834.0785
   834.0963 834.0963 834.0963 834.0964 834.2786 834.2786 834.2786 834.9103
   834.9103 834.9327 834.9327 834.9327 834.9459 834.9459 834.9471 834.9471
   834.9471 834.9491 834.9491 834.9491 834.9504 834.9504 834.9504 837.1016
   837.2514 837.2514 837.2514 837.3985 837.3985 837.3985 837.4761 837.4761
   837.5000 837.5000 837.5000 838.1675 838.1675 838.1795 838.1795 838.1795
   838.1950 838.2018 838.2018 838.2018 838.2058 838.2058 838.2058 840.5072
   840.5072 840.5083 840.5083 840.5083 840.5100 853.2990 853.4255 853.4255
   853.6879 853.6879 853.6879 853.9765 853.9765 853.9765 854.0780 854.0780
   854.0780 854.1194 854.1194 854.1194 854.1290 854.1290 854.1290 854.4653
   854.6845 854.6845 854.6845 854.7753 854.7753 856.5899 856.5899 856.6346
   856.8407 856.8407 856.8407 857.4452 857.4452 857.4452 857.4509 857.5880
   857.7327 857.7327 857.7327 860.1066 860.1066 860.1066 860.1390 860.1390
   860.1390 860.2234 860.2234 860.2234 860.2415 860.2415 860.2415 866.5606
   866.5606 866.5974 866.5974 866.5974 866.6648 867.5910 867.5910 867.5910
   867.6104 867.6104 867.6895 867.6895 867.6895 868.1588 868.1599 868.1599
   868.1599 868.7755 868.7755 868.8749 868.8749 868.8749 868.9348 868.9348
   868.9348 869.1634 869.1634 869.1634 869.2279 869.2279 869.2308 869.2308
   869.2308 869.2685 869.2764 869.2764 869.2764 869.4006 869.4006 869.4006
   869.5492 869.5492 869.5492 869.6614 869.6614 869.7514 869.8054 869.8054
   869.8233 869.8233 869.8233 870.0967 870.0967 870.0967 870.1360 870.1360
   870.1360 870.1768 870.2750 870.2750 870.2750 870.4447 870.5762 870.5762
   870.5762 870.6005 870.6005 870.6005 870.7317 870.7317 870.7805 870.8689
   870.8689 870.8689 870.9283 870.9283 870.9283 871.0803 871.0803 871.0803
   871.1951 871.1951 871.1951 871.2020 871.4592 871.4592 871.4879 871.4879
   871.4879 872.1192 872.3635 872.3635 872.3635 872.5173 872.5173 872.5173
   872.6001 872.6001 872.6266 872.6266 872.6266 873.1798 873.1798 873.3046
   873.3046 873.3046 873.5142 874.0135 874.0135 874.0135 874.0442 874.0442
   874.0442 874.0626 874.0626 874.0626 874.0845 874.0845 874.1592 874.1592
   874.1592 874.1788 874.1788 877.3247 877.3247 877.3247 877.3267 877.3267
   877.3267 877.3267 877.3267 877.3267 877.3281 877.3281 877.3281 878.5584
   878.5584 878.5584 878.5713 878.5713 878.6068 878.6068 878.6068 878.7036
   878.7036 878.7036 878.8953 878.9094 878.9094 878.9286 878.9286 878.9286
   879.1208 879.1208 879.1208 879.1541 879.1541 879.1545 879.1545 879.1545
   879.1552 879.1846 879.1846 879.1846 879.2281 895.1572 895.1766 895.1766
   895.1766 895.1966 895.1966 895.3713 895.3713 895.3713 895.3724 895.3724
   895.3724 895.3928 895.3928 895.3928 895.3963 895.3963 895.3963 895.8370
   895.8370 895.8370 895.8395 895.8395 895.8406 896.1711 896.1957 896.1957
   896.3108 896.3108 896.3108 896.6303 896.6303 896.6303 896.6517 896.6517
   896.6517 896.6903 896.6903 896.6903 896.7021 896.7021 896.7021 896.8393
   896.8393 896.8788 896.8788 896.8788 896.9221 907.4875 907.5874 907.5874
   907.5874 907.6052 907.8129 907.8129 907.8129 907.9847 907.9847 908.1878
   908.1878 908.1878 908.4012 908.4222 908.4222 908.4222 908.4817 908.4817

          k =-0.2500 0.2500-0.2500 (  5438 PWs)   bands (ev):

   -81.5876 -45.0802 -45.0790 -45.0790  -6.6125   4.1290   4.6247   4.6247
     5.9980   5.9980   6.2630   7.4786   7.4786  11.2621  16.1835  17.5951
    17.5951  20.6973  20.6973  20.9548  25.1832  26.8911  26.8911  27.6861
    29.6505  29.6505  32.9517  35.5981  35.5981  36.6408  36.6408  37.2673
    39.7629  41.9158  41.9158  42.4491  45.7880  45.7880  47.0852  47.0909
    48.1988  48.1988  49.8525  49.8840  49.8840  51.6653  51.6653  51.7551
    53.0356  54.9625  55.5823  55.5823  58.7311  58.7311  59.3786  60.9047
    60.9047  61.4255  61.4255  61.6946  63.0523  65.0037  66.3584  66.3584
    68.6942  68.9637  68.9637  70.2385  70.2385  71.4932  72.7960  72.7960
    74.3631  76.1082  76.1082  77.8759  80.4100  80.4100  80.4434  80.4925
    81.5293  81.6377  81.6377  83.4885  83.4885  84.4426  85.3442  85.3442
    87.4419  88.2284  88.2284  89.6602  90.6319  90.7450  92.1727  92.2077
    92.2077  94.6631  94.6631  95.7198  96.3424  96.3424  97.0343  97.0343
    97.7560  97.9960  97.9960  99.1965  99.1965 100.0781 100.3346 100.4493
   100.4493 102.5953 103.3433 103.4361 103.4361 106.4434 107.6570 107.6570
   108.2187 108.8601 108.8601 108.9818 109.5774 109.5774 109.9050 109.9050
   111.7113 111.7113 111.9744 113.1707 113.1707 113.6893 115.3333 115.3333
   115.4443 116.0933 116.3969 117.2852 117.2852 118.3815 120.9096 120.9096
   122.1701 122.1701 122.2899 122.6286 122.6286 124.4647 124.7979 125.8046
   125.8046 126.6617 126.6617 126.7849 127.1891 128.6627 128.6627 129.9456
   131.8717 131.8717 133.4075 133.8508 133.8508 136.0254 136.3155 136.3155
   137.9826 137.9826 139.3220 139.8310 140.5671 140.5671 141.0774 141.4162
   141.4162 143.4032 143.4032 144.1339 144.1339 145.0902 145.1875 147.0845
   147.5990 148.9478 149.1557 149.1557 150.6612 150.6612 151.3125 151.3125
   151.5653 152.3887 152.4555 152.4555 152.6570 153.0360 153.0360 153.7935
   155.0472 155.0472 156.1908 156.1908 157.2412 157.9274 158.3457 158.3457
   162.4273 162.4273 162.6792 164.9141 165.5328 165.6806 165.6806 166.2738
   166.2738 166.5050 167.2314 167.2314 167.4855 167.5909 167.9705 167.9705
   168.4003 168.4003 169.0577 169.7405 169.7405 169.8310 169.8310 170.4070
   170.4070 171.3484 171.4001 171.8315 171.8315 172.1240 172.1240 172.7999
   173.1389 175.7732 177.0700 177.0700 177.3683 177.5305 177.5305 178.2727
   178.6201 179.6691 179.6691 180.1553 180.4693 180.4693 181.7495 181.7495
   183.1470 183.1470 183.3443 184.0496 184.0711 184.0711 185.1296 185.1296
   185.4078 186.2435 187.3627 187.9926 187.9926 188.6976 188.6976 189.1617
   189.8431 190.2647 190.2647 191.5768 191.5768 193.4882 195.1906 195.1906
   195.7757 195.7757 196.1955 196.6255 196.6255 196.7073 196.7883 197.5656
   197.5656 198.4172 198.4172 198.7226 198.7461 199.2633 199.2633 199.5107
   199.9306 199.9306 200.3597 201.7492 201.7492 202.8060 204.0603 204.0603
   204.6771 205.3106 205.3106 205.7900 207.0277 207.0277 207.8042 207.8042
   208.4095 208.8947 211.0795 211.8965 211.8965 212.3084 212.3084 213.0311
   215.1857 215.1857 215.6358 216.4362 216.4362 217.8747 218.3752 218.3752
   220.6381 220.7873 221.1335 221.1335 221.5724 221.7500 221.7500 224.6021
   224.9004 224.9004 225.0757 225.6391 225.6391 225.9495 226.1727 226.1727
   226.4749 226.4749 227.0011 227.1350 227.8834 228.1030 228.1030 228.9430
   229.0040 229.0040 231.2426 231.2426 231.8788 232.4509 232.9077 232.9826
   232.9826 234.3901 235.0317 235.0317 236.4625 236.4625 237.1230 237.2010
   237.6715 237.6715 238.4612 238.5009 238.5009 239.0806 239.0869 239.0869
   239.4414 239.4414 242.1726 242.1726 242.3124 244.8298 244.8298 245.6459
   245.6459 246.6090 247.2355 247.7491 247.7491 249.0373 249.2131 249.2131
   250.2565 250.2565 250.4032 251.1429 251.2415 251.7626 251.7626 252.1969
   252.1969 252.4350 252.6867 252.6956 252.6956 252.9040 252.9040 253.4789
   253.8512 253.8512 254.8765 256.1153 256.1153 257.1984 258.8363 258.8363
   258.8930 259.8347 259.8347 260.9103 260.9103 260.9219 261.3088 261.3088
   261.8183 262.0507 262.0507 262.2489 262.4624 262.4624 263.1731 263.4147
   264.1723 264.1723 265.0152 265.1925 265.3945 265.3945 266.1120 267.1886
   267.1886 267.6355 267.9248 267.9248 268.5322 268.5322 269.0860 269.6646
   269.6646 269.9156 270.2334 270.4357 270.4357 271.5614 272.2121 272.2121
   272.5954 272.7240 272.7240 274.4218 274.4218 274.6811 274.8631 274.8631
   274.8879 274.9029 275.1285 275.1285 275.6746 275.6746 275.7982 277.7023
   277.7023 277.8212 278.7039 278.8546 278.8546 279.7841 280.5458 280.5458
   280.5806 280.8954 280.9027 280.9027 283.0339 283.0339 283.1725 283.3820
   283.4869 283.4869 283.9560 283.9560 285.9569 287.4750 287.4784 288.7518
   289.1118 289.1118 289.6562 289.6562 290.5122 290.5122 290.7025 293.4240
   293.4240 294.0706 294.0706 294.0847 294.7197 294.7197 294.9699 295.3207
   295.3207 295.4569 296.6052 296.6052 297.0126 297.0126 298.8479 298.8572
   298.8572 299.9263 300.3604 300.6199 300.6199 300.9335 301.1767 301.1767
   301.5544 301.5544 301.9800 302.2528 302.7807 302.8037 302.8037 303.1714
   303.1714 304.5306 304.9118 304.9118 305.3843 305.3843 305.6260 305.6260
   305.7306 305.9703 305.9703 306.2659 306.8631 307.4122 307.6708 308.0461
   308.0461 310.4629 310.5570 310.5570 313.2295 313.2295 314.2366 314.9836
   314.9836 315.2867 316.0192 316.0192 316.3180 316.8911 316.8911 317.1738
   317.1738 317.4406 317.7135 318.3957 318.3957 319.4060 320.4852 320.4852
   320.9848 320.9848 321.1713 322.0316 322.0316 322.8712 323.6370 323.6370
   323.8828 324.2847 325.2149 325.9543 325.9543 328.9458 328.9458 329.7230
   329.8776 329.8776 329.9462 329.9726 329.9726 330.8966 332.7164 333.9889
   333.9889 334.1338 334.1338 334.8656 335.1066 335.1066 335.8455 336.0996
   336.6132 336.6132 336.6671 337.5052 337.5052 338.0387 338.0387 338.0508
   338.7930 339.0982 339.0982 339.6158 340.5217 340.5217 341.0314 341.0314
   341.1981 341.4949 341.5163 341.5163 341.6770 342.1514 342.1514 342.6022
   342.6227 342.6227 342.9360 343.4805 343.4805 343.5035 343.9503 343.9503
   344.4233 345.0904 345.0904 346.8718 347.0980 347.2107 347.2107 348.0487
   348.0487 349.1383 349.1383 349.3827 350.5657 351.4516 351.9248 351.9248
   353.8812 353.8812 353.9052 354.1996 354.1996 354.2714 354.5037 354.9453
   354.9453 355.7933 359.1676 359.1676 359.4397 360.1965 360.3066 360.3066
   360.8245 360.8245 361.0940 361.5006 361.5006 362.0561 362.1955 362.1955
   362.6469 362.6469 362.7952 363.1789 363.4621 363.4621 363.9750 363.9750
   364.1603 364.1603 364.2898 365.9987 366.6793 366.6793 366.9122 368.0813
   368.3913 368.3913 368.6766 368.6766 368.8009 368.8263 368.8263 369.0452
   369.0452 370.0417 370.5701 370.6843 370.6843 370.9135 370.9135 371.1963
   371.1963 371.2962 371.4563 372.7082 372.7082 373.5483 373.7846 373.7912
   373.7912 374.0007 374.0007 374.0310 374.6860 374.8840 374.8840 375.0441
   375.0441 375.0638 375.2191 375.3044 375.3044 377.1061 377.1061 377.4834
   377.5997 378.2783 378.3568 378.3568 378.5853 378.5853 378.7514 379.0633
   379.0633 379.4561 380.9169 380.9169 380.9238 381.2335 381.2335 381.9692
   382.9488 382.9488 383.2162 385.1347 385.1347 387.6491 387.9356 387.9356
   388.8473 389.8657 389.8657 389.8741 390.0213 390.0213 390.0764 390.2891
   390.3196 390.3196 390.5586 390.5586 390.7255 391.1642 391.7845 391.7845
   392.0712 392.0712 392.7061 393.2242 393.3633 393.3633 393.9413 393.9554
   393.9554 394.3846 394.3846 394.5333 395.7371 395.7371 396.7937 396.7937
   397.3492 397.5347 397.5498 397.5498 397.9707 398.4881 398.7837 398.7837
   399.1437 399.1993 399.1993 399.8002 400.1121 400.1121 400.4440 400.5992
   400.5992 400.8045 401.3227 401.3227 403.6595 403.6747 403.6747 404.8493
   404.8493 405.2927 405.4850 405.4850 405.5950 406.5140 406.5740 406.5740
   408.9828 408.9828 408.9866 410.2336 410.2336 411.1560 411.1560 411.1845
   411.3965 411.8903 411.9547 411.9547 413.2332 413.2332 413.3415 413.7504
   414.1227 414.1227 415.9559 415.9631 415.9631 416.0691 416.0691 416.0855
   416.5394 416.5394 416.6080 418.5671 418.7502 418.7502 419.1452 419.1452
   419.2021 419.9373 419.9793 419.9793 420.2343 420.8064 420.8064 421.0080
   421.5412 421.6060 421.6060 421.6636 421.6872 421.6924 421.6924 422.3888
   422.3888 422.6903 423.1188 423.4875 423.4875 423.7441 423.7441 427.8680
   427.9572 427.9572 428.0145 428.0145 428.0708 428.1420 429.7282 429.7282
   430.8212 430.8543 430.8543 431.5156 432.0475 432.0475 432.8018 432.8018
   433.1440 433.4424 433.5954 433.5954 433.7579 433.7579 433.8151 434.2821
   434.9654 434.9654 434.9734 435.1043 435.1043 435.1068 435.9925 435.9925
   437.6720 437.6720 439.3021 439.3021 439.3086 439.3906 439.8801 439.8801
   441.8156 441.8156 442.1928 442.1928 442.2607 444.0996 444.1007 444.3694
   444.3694 444.4462 444.8572 444.9074 444.9074 445.0706 445.0706 445.1702
   445.1702 445.6531 447.0568 447.0568 447.1033 448.0571 448.0571 448.1907
   448.4721 448.4721 448.6133 451.4739 451.5901 451.5901 452.9376 452.9376
   452.9955 454.5810 455.5524 455.5524 455.7645 456.5992 456.7007 456.7007
   459.2049 459.2727 459.2727 459.9237 459.9237 460.2272 460.2272 460.2803
   460.4985 461.5119 461.8799 461.8799 462.3401 462.5924 462.5924 463.3579
   463.4102 463.4102 463.7642 463.7642 463.9279 464.1889 464.8470 464.8470
   465.5060 465.5060 465.7232 466.3001 466.8276 466.8276 467.9399 467.9399
   468.2955 468.4574 468.4574 468.6455 468.6455 468.8364 468.8364 469.0592
   469.7870 470.5412 471.1377 471.1377 471.2694 471.5067 471.9303 471.9303
   472.0998 472.0998 472.8181 472.9621 472.9621 473.0082 473.5577 473.5577
   474.0477 474.1420 474.1420 474.6643 474.7680 474.7680 475.6019 475.6019
   476.2806 477.0476 477.7383 478.1287 478.1287 478.8434 478.8434 478.9876
   479.2165 479.2165 479.3184 479.3365 479.5730 479.5730 479.5744 479.7173
   479.7173 479.9256 479.9256 480.1987 482.1180 482.1180 482.8731 485.1381
   485.1381 485.3179 485.5512 486.0220 486.0220 486.3147 486.3915 486.3915
   486.5942 486.6010 486.6010 487.3796 487.3796 487.4605 487.4656 487.4656
   487.6957 487.9532 488.1928 488.1928 489.0804 489.2477 489.2477 491.1735
   491.1735 491.4839 491.8886 491.9862 491.9862 492.7075 492.8342 492.8342
   493.9663 494.0464 494.0464 494.2767 494.2984 494.2984 494.9808 494.9808
   495.1000 497.3940 497.7323 497.7323 497.7649 498.2562 498.9351 498.9351
   499.2457 499.2610 499.2610 499.6764 499.6764 499.7777 500.8690 500.8704
   500.8704 501.2333 501.2333 501.2456 501.2456 501.2752 502.4081 502.7055
   502.7055 502.8541 503.0071 503.0071 503.3148 503.3148 503.3367 504.1523
   504.1523 504.2743 504.4710 504.5350 504.5350 505.3023 505.3023 505.5022
   506.8767 506.8767 506.9136 507.5349 507.6476 507.6476 507.6784 509.4546
   510.1190 510.1614 510.1614 510.3246 510.3246 510.3276 510.3997 511.2131
   511.2131 511.2830 511.7874 511.7874 514.1700 514.1700 514.6300 514.6300
   514.9682 515.0177 515.0177 515.2989 515.3094 515.3094 515.4705 515.5115
   515.5115 515.7491 515.7491 515.8031 517.7690 518.6452 518.7083 518.7083
   519.5138 519.5428 519.5428 519.8881 519.8881 520.0226 520.0658 520.0658
   520.1078 520.1197 520.1197 520.1702 520.1702 520.7168 520.7870 521.9766
   521.9766 522.0089 522.0089 522.4310 522.4370 523.3437 523.3437 524.2689
   524.8306 524.8306 525.4058 525.4058 525.9638 526.0024 526.1100 526.1100
   526.7778 526.7778 526.8695 527.0660 527.3158 527.3158 527.8240 527.9988
   527.9988 529.0073 529.0073 529.5660 530.2232 530.2232 530.2243 531.6756
   531.9219 531.9219 535.1231 535.2250 535.2250 535.2455 535.3944 535.3944
   535.5943 535.5943 535.6681 535.6681 535.7370 535.7844 536.0523 536.0523
   536.5445 538.0581 538.0581 538.2636 538.6280 538.6462 538.6462 538.9738
   539.2800 540.4753 540.4753 540.5551 540.5551 540.5682 540.6312 540.9508
   540.9508 541.4183 541.8472 541.8472 542.2002 542.2002 542.2802 542.3607
   542.3607 542.3763 542.6453 542.7051 542.7051 543.2106 543.2106 543.4823
   543.4823 543.6928 543.8195 546.4919 546.6382 546.6382 547.1700 547.1700
   547.5406 547.7953 547.9432 547.9432 548.4124 548.4124 548.4969 549.0278
   549.0278 549.1029 549.5384 549.5384 549.5564 549.9688 549.9688 549.9877
   550.8911 550.8949 550.8949 553.1419 553.2578 553.2578 553.7420 553.7420
   553.7969 553.7969 553.8740 554.6588 554.6588 554.7580 556.1182 556.1608
   556.1608 556.6378 557.7128 557.7128 558.8677 558.8934 558.8934 559.5160
   559.5160 559.5166 559.6309 559.6309 559.9730 560.2023 560.2023 560.2583
   562.1399 562.1514 562.1514 562.3533 562.7773 562.7773 564.2375 564.6449
   564.6553 564.6553 565.6520 565.7029 565.7029 565.7819 565.7819 565.8286
   567.4978 567.4978 567.7946 568.6362 568.6362 568.7552 568.7898 568.9278
   568.9278 569.4291 569.4710 569.4710 570.4618 570.6036 570.6036 571.2381
   571.4339 571.5317 571.5317 571.6507 571.6507 572.2497 572.2497 572.2623
   572.7115 572.7115 572.9298 572.9308 572.9308 573.3623 574.8831 575.6117
   575.9580 575.9580 576.3209 576.3209 577.2502 577.2502 577.2878 578.2114
   578.2114 578.3507 580.7920 580.7920 580.8471 583.3567 583.3727 583.3727
   584.7140 584.7140 584.7312 585.7139 585.8691 585.8691 586.2753 586.2753
   586.3771 586.3771 586.4600 587.8228 587.8730 587.8730 587.9883 588.4063
   588.4063 589.0668 590.1598 590.1795 590.1795 590.3651 590.4122 590.7842
   590.7842 591.0660 591.0660 591.1722 591.3224 591.6382 591.6382 591.9646
   592.9627 592.9627 593.4324 594.1202 594.5973 594.5973 594.7187 594.7187
   595.3288 595.3288 596.6054 596.7009 596.7009 597.2801 597.2834 597.2834
   597.5234 598.1256 598.1256 598.8219 598.8221 598.8221 599.1876 600.4641
   600.7753 600.7753 601.7518 601.7518 602.1868 602.1868 602.2452 602.2688
   602.4067 602.4067 602.6089 602.8915 602.8915 603.2528 603.4370 603.4370
   603.7799 604.4807 604.4807 604.8370 605.1798 605.4450 605.4450 605.9315
   605.9315 606.1359 608.9112 608.9659 608.9659 609.5067 609.5067 609.7421
   609.8721 609.8754 609.8754 610.6850 610.6850 610.8878 610.9588 610.9588
   612.4339 612.4339 612.4418 612.4549 612.8606 612.8606 613.2109 613.2109
   613.3179 613.4264 613.5793 613.5793 614.1113 614.2423 614.4575 614.4941
   614.4941 614.5774 614.5774 614.6648 614.6648 614.6931 615.2111 615.2111
   616.3317 616.3584 616.3584 616.6823 616.6823 616.7019 618.4109 618.4358
   618.4358 618.6083 618.7033 618.7033 619.0955 619.4115 619.4115 620.0610
   620.0610 620.1158 621.4102 621.4327 621.4327 622.6229 622.6359 622.6359
   623.1342 623.1342 623.1624 623.8174 625.2422 625.2422 625.7136 625.7136
   625.7249 626.0915 626.0915 626.1943 629.8156 629.8307 629.8307 630.5267
   630.5984 630.5984 631.2561 631.3722 631.3722 632.7919 632.7919 632.8600
   632.9104 633.9360 633.9993 633.9993 634.1480 634.2582 634.3160 634.3160
   634.8276 634.9040 634.9040 634.9292 634.9292 635.3354 635.3354 635.8416
   635.9947 636.5577 636.5577 636.5798 637.0442 637.0442 637.1967 637.1967
   637.5593 637.6224 637.9291 637.9291 638.2105 638.2105 638.6684 639.2292
   639.2367 639.2367 639.3211 639.3211 639.4238 643.2481 643.2481 643.3030
   643.4453 643.4453 643.4733 643.9689 644.0782 644.0782 644.3909 644.3909
   644.4150 644.4150 644.4318 644.4892 644.8287 644.8287 645.1157 645.8385
   645.8385 645.8447 646.0340 646.0340 646.7890 646.7890 647.1146 647.1201
   647.1201 647.1701 647.4258 647.4258 647.5447 647.6931 647.8732 647.8732
   648.2520 648.2520 648.2646 648.4325 648.6526 648.6526 649.1273 649.2001
   649.2001 649.2283 649.2283 649.2456 649.3785 649.3785 649.5250 649.8623
   649.8623 650.0104 650.4208 651.0397 651.3489 651.3489 652.1170 652.1170
   652.9086 652.9086 652.9133 655.6192 655.6192 656.7342 657.4212 657.6891
   657.6891 658.7525 658.7525 658.9103 659.3742 660.5100 660.6037 660.6037
   661.1214 661.4730 661.4832 661.4832 661.6111 661.6111 661.8755 661.8755
   661.8755 662.3385 662.3385 662.4290 662.4855 662.4855 662.5404 663.1895
   663.1895 663.7810 664.7837 664.7837 664.8005 665.6301 665.6301 665.6521
   665.6781 666.3129 666.3129 666.3841 666.3841 666.5311 666.8043 666.8043
   666.8222 667.2472 667.2472 667.2706 667.2988 667.3227 667.3284 667.3284
   667.3550 667.3550 670.3979 670.3979 670.4078 672.8612 672.8612 673.0201
   673.6066 673.6195 673.6195 674.4442 674.5016 674.5016 674.5045 674.8350
   674.8350 675.0523 675.0832 675.0832 675.6265 675.6265 675.6517 675.8930
   675.8930 675.9078 676.2128 676.2753 676.2753 677.2902 677.3052 677.3052
   678.0047 678.4223 678.5057 678.5057 679.4925 679.6134 679.6134 679.7580
   679.8165 679.8165 680.3891 680.4156 680.4156 681.2805 681.2805 681.5892
   681.6723 681.6723 682.0633 682.0633 682.1005 682.1771 682.1771 682.5490
   682.5490 682.5502 682.5598 683.5096 683.5096 683.5135 683.9269 684.4306
   684.4306 684.5924 684.9475 685.0113 685.0113 685.4290 685.4290 685.4438
   685.4438 686.0800 686.0800 686.0849 687.0379 687.5593 687.5738 687.5738
   688.2025 688.2025 688.2245 688.4840 688.4840 688.5183 688.5671 688.5884
   688.5884 690.1570 690.3031 690.3031 690.3576 690.3576 690.3660 690.3831
   690.7532 690.7860 690.7860 691.0680 691.0680 691.1186 692.9684 692.9837
   692.9837 693.6590 693.6590 694.1143 694.3560 694.3560 694.4230 695.2426
   695.5396 695.5396 695.6717 695.6717 695.7083 695.9934 695.9934 696.0026
   696.0395 696.0395 696.6646 696.6743 696.6743 698.5979 700.8955 700.8955
   700.8964 701.5484 701.5484 701.6824 702.3621 702.3621 702.3653 703.9882
   703.9882 703.9988 704.0251 704.0251 704.5789 704.5789 704.6404 704.8002
   705.8661 705.8991 705.8991 706.1471 706.1471 706.2624 706.4913 706.5836
   706.5836 706.9257 706.9257 707.0728 707.1165 707.1165 708.4018 708.9375
   708.9617 708.9617 709.7758 709.7790 709.7790 711.0210 711.0210 711.0241
   711.5039 711.5638 711.5638 711.5752 711.5752 711.8035 711.8314 711.8314
   711.8774 712.7184 712.7184 714.3386 715.0820 715.0820 715.3992 715.5047
   715.5047 715.8036 715.8036 715.8591 716.4179 716.5283 716.5283 718.2920
   718.2920 718.6111 718.6111 718.6540 718.8220 719.2240 719.2617 719.2617
   719.8335 719.8810 719.8810 720.0124 720.0269 720.0269 720.4778 720.4778
   720.5283 720.6099 720.6667 720.6667 724.2876 724.3228 724.3228 724.3886
   724.6540 724.6540 724.8043 724.9247 724.9247 726.2292 726.2292 726.6186
   726.8884 726.9520 726.9520 729.0977 729.0977 729.1029 729.1589 729.1707
   729.1707 729.5772 731.1513 731.1513 731.2143 731.4759 731.4759 732.2744
   732.7384 732.7384 732.7797 732.8866 732.9139 732.9139 733.2722 733.2722
   733.8304 733.9237 733.9237 733.9567 734.1891 734.1891 734.7190 734.9676
   734.9905 734.9905 735.8275 735.8443 735.8443 736.0052 736.0207 736.0207
   737.7502 737.7502 737.7548 739.7551 739.7551 739.8777 739.8862 739.8862
   740.2731 740.4787 740.5166 740.5166 740.9100 740.9606 740.9606 742.5762
   742.5868 742.5868 742.7371 742.7371 742.7509 743.6425 743.6425 743.6733
   743.7340 743.7340 743.7913 743.9089 743.9089 744.0588 746.6642 746.6642
   746.7722 747.0127 747.0127 747.7065 748.6868 748.6868 750.0023 750.0116
   750.0116 750.5457 750.5457 750.5516 751.4403 751.5003 751.5003 752.2989
   752.2989 752.4592 752.9164 752.9600 752.9600 754.3599 754.4672 754.4806
   754.4806 754.5988 754.5988 754.7909 754.7909 754.8809 755.4588 755.6941
   755.6941 755.7636 755.7636 755.7942 756.1451 756.1451 756.2276 757.8169
   757.8414 757.8414 758.7387 758.7387 758.8265 759.4574 759.6730 759.6730
   760.2815 760.2958 760.2958 760.9954 761.0073 761.0073 761.5427 761.9878
   762.0195 762.0195 762.9629 763.1514 763.1514 763.3932 763.3932 763.6419
   764.6123 764.6123 764.7849 765.0792 765.1158 765.1158 765.1343 765.1750
   765.1750 766.5208 766.6132 766.6132 766.6654 766.8215 766.8215 768.6876
   768.7265 768.7265 769.0574 769.0574 769.1091 769.1880 769.1880 769.2275
   770.1308 770.3044 770.3044 770.5376 770.5376 770.6336 772.3581 772.4948
   772.4948 772.7689 774.1494 774.1494 775.2785 775.3581 775.3581 775.4589
   775.4589 775.5319 775.5780 775.6126 775.6126 775.7691 775.7691 775.7940
   775.8274 775.8617 775.8617 776.5878 776.6358 776.6358 776.6877 776.6877
   776.8851 776.8851 776.9304 777.7714 777.9512 777.9908 777.9908 778.1485
   778.1485 778.1747 779.1533 779.4029 779.4029 780.0672 780.0760 780.0760
   780.2654 780.3314 780.3314 780.7172 781.4017 781.4017 781.5140 782.0860
   782.0860 782.1132 782.2847 782.2847 782.5609 782.5609 782.6317 782.7373
   782.7962 782.7962 782.8170 783.3985 783.3985 784.0518 784.0600 784.0600
   786.1305 786.1800 786.1800 787.3934 787.3960 787.3960 787.6088 787.6088
   787.6452 787.9973 787.9973 788.0115 790.0728 791.0239 791.0239 791.0242
   791.3388 791.3388 791.5308 791.5308 791.5627 791.8021 793.0377 793.0377
   793.0453 793.0997 793.0997 794.0889 794.2105 794.2105 797.1992 797.1992
   797.2155 798.3099 798.3339 798.3339 798.4094 798.4094 798.4221 798.6190
   798.6190 798.6259 798.8076 798.8358 798.8358 799.7823 800.0009 800.1004
   800.1004 800.1689 800.1689 800.2286 801.4010 801.4453 801.4453 801.8569
   801.8569 802.5130 803.0291 803.0291 803.0510 803.2860 803.3138 803.3138
   803.8958 804.3728 804.3728 806.1534 806.1534 806.2490 807.0723 807.0723
   807.1910 807.2477 807.4022 807.4022 809.4095 809.4095 809.8487 809.9559
   809.9559 810.4376 810.4559 810.4559 810.6874 810.6874 810.8311 810.9787
   811.0873 811.0873 811.2577 811.2577 811.3620 811.4266 811.4266 811.6040
   811.7591 812.4729 812.6138 812.6138 812.7099 812.7099 812.7952 814.3185
   814.3243 814.3243 816.5253 816.5253 816.5551 816.5551 816.5924 817.1551
   817.1709 817.2927 817.2927 817.3433 817.3433 817.7189 817.7189 817.7864
   818.5128 819.1968 819.1968 819.3562 819.3865 819.3865 819.7528 819.7528
   819.7702 820.2034 820.2034 820.2543 821.0465 821.0867 821.0867 821.2982
   821.5254 821.5943 821.5943 821.8015 821.8015 821.8809 821.9295 821.9295
   822.0666 822.0666 822.1365 822.6748 822.6748 822.6946 823.2002 823.2002
   823.4131 823.8973 823.8973 823.9100 824.3538 824.3538 824.4577 825.4836
   825.6683 825.7320 825.7320 825.7744 825.7744 826.0553 826.0553 826.2557
   826.8005 826.8005 826.9676 827.3449 827.3449 827.8212 828.2331 828.3375
   828.3375 828.4810 828.5920 828.5920 828.6744 828.6744 828.6815 828.7071
   828.7171 828.7171 828.7663 828.7663 828.8013 830.0772 830.0772 830.1031
   830.4703 830.4777 830.4777 831.8134 831.8307 831.8307 832.1168 832.1168
   832.1715 832.9404 833.1899 833.1899 833.6650 833.6650 834.0210 834.2182
   834.2182 834.2769 834.4267 834.4267 834.4548 834.5414 834.7078 834.7078
   834.7223 834.9737 834.9737 837.1102 837.1102 837.1897 837.4152 837.5215
   837.5215 838.2893 838.5358 838.5358 838.6886 838.7176 838.7176 839.0356
   839.1106 839.1106 839.2576 839.2576 839.2714 839.4121 839.6319 839.6910
   839.6910 840.0848 840.0848 840.1218 842.2318 842.2371 842.2371 842.2833
   842.4433 842.4491 842.4491 842.6903 842.6903 845.3352 845.3352 845.3382
   846.2564 846.2564 846.3911 846.5239 846.5368 846.5368 848.1603 848.1881
   848.1881 848.2988 848.3031 848.3031 848.3932 848.3932 848.3948 848.8321
   848.8321 848.8714 851.2009 851.2009 851.2897 851.5942 851.7023 851.7023
   852.6080 853.3016 853.3016 853.5349 853.5349 853.8350 854.2492 854.2492
   854.3341 854.5826 854.6436 854.6436 854.6983 854.6983 854.9643 854.9643
   854.9951 855.4700 855.4700 855.4846 855.6815 855.6815 855.6936 855.7744
   855.7744 855.8679 856.2909 856.5002 856.5002 857.6665 857.6665 857.6686
   857.7496 857.7496 857.7651 859.1503 859.3182 859.3182 859.5740 859.5979
   859.5979 859.7100 859.7100 859.7185 859.8954 859.9100 859.9100 859.9321
   859.9525 859.9525 861.4274 861.4274 861.4487 861.8444 861.8761 861.8761
   862.9130 862.9130 862.9832 863.3755 863.3755 863.3867 863.4787 863.6160
   863.6160 864.3118 864.3118 864.3775 864.6155 864.6155 864.6337 866.1916
   866.1916 866.3570 867.7904 867.8583 867.8583 868.9912 868.9912 868.9929
   869.7379 869.9593 869.9593 870.1474 870.1474 870.2226 871.1162 871.7178
   871.7178 871.7180 872.0612 872.0618 872.0618 873.3855 873.4547 873.4547
   874.2224 874.2224 874.2332 874.2835 874.2840 874.2840 876.4081 876.4635
   876.4635 877.3820 877.4321 877.4321 877.5232 877.5965 877.5965 877.6152
   877.6749 877.7102 877.7102 877.8061 877.8061 877.8468 878.1291 878.1725
   878.1725 878.3196 878.3965 878.3965 878.7491 878.7692 878.7692 878.9616
   878.9616 881.2517 881.2517 882.4449 882.6182 882.6182 882.6269 882.7124
   882.7630 882.7630 883.5751 883.6588 883.6588 883.7252 883.8752 883.8752
   885.2789 885.3435 885.3435 886.8684 886.8684 886.8820 886.9082 886.9362
   886.9362 886.9392 886.9713 886.9996 886.9996 887.1878 887.3287 887.3287
   887.3713 887.3713 887.5819 887.5819 887.6186 888.1489 888.1489 888.2174
   888.4496 889.2494 889.2494 889.8442 889.8442 889.8493 891.5470 891.5541
   891.5541 892.1463 892.1797 892.1797 892.2539 892.2539 892.2721 892.2847
   892.3427 892.3427 892.8410 892.9962 892.9962 894.8398 894.8398 895.1393
   895.3950 895.8143 895.8143 896.0952 896.2893 896.2893 896.2914 896.2932
   896.2932 896.7814 896.8125 896.8125 897.1518 897.1518 897.1721 897.1721
   897.2243 897.3010 897.3544 897.3544 897.4602 900.5477 900.5533 900.5533
   902.9268 902.9268 902.9401 903.6354 903.6354 903.8981 903.9144 903.9144
   904.1580 905.0371 905.0371 905.1303 905.6334 905.6334 905.6463 906.5039
   906.7678 906.7927 906.7927 907.4665 907.4665 907.4673 907.9321 908.0285
   908.0285 908.2701 908.2701 908.3801 909.4484 909.5099 909.5099 911.0671
   911.0671 911.1354 911.4484 911.4484 911.4840 911.4840 911.5888 912.5658
   912.7765 912.7765 913.4126 913.6406 913.6406 913.9491 914.4534 914.4534

          k = 0.5000-0.5000 0.5000 (  5444 PWs)   bands (ev):

   -81.5876 -45.0816 -45.0793 -45.0793  -6.3817   3.0701   4.1343   4.1343
     6.1801   6.1801   6.4982   8.2692   8.2692  12.5959  14.8579  16.0784
    16.0784  21.8972  22.2056  22.2056  23.5783  26.2071  26.2071  30.7560
    30.7560  30.8298  33.8865  35.8963  35.8963  36.7301  36.7301  38.3690
    39.0739  39.1929  39.1929  41.7178  43.2786  43.2786  43.3980  43.9196
    47.9851  47.9851  49.2495  50.5585  50.8626  50.8626  54.2033  54.2033
    54.3108  54.9582  54.9582  57.9883  58.5955  59.6685  61.4996  61.4996
    61.6211  61.6211  65.9366  65.9366  66.4845  66.4845  68.5925  70.0499
    70.0499  70.1380  70.1380  70.6991  70.7287  71.6178  72.4352  72.4352
    72.7034  72.7955  72.7955  75.3971  78.1708  79.1249  79.1249  79.7257
    79.7257  80.8204  81.7094  82.6785  82.6785  82.6969  82.6969  83.5946
    85.5753  85.5753  86.6421  86.6421  86.9766  87.6872  87.7509  90.4153
    91.0497  93.2041  93.2041  94.7764  94.7764  95.8356  99.9154 100.2702
   100.7233 100.7233 101.1310 101.1310 101.1685 101.1685 101.7059 101.7865
   102.1132 102.1132 103.9093 104.3707 104.3707 104.7255 104.7255 105.8546
   107.0504 107.5137 108.3100 108.3100 109.4980 110.2210 110.2210 113.8315
   113.8315 113.9763 114.4650 114.4650 116.3604 116.4644 116.4644 116.8962
   116.8962 118.7855 118.8565 119.7604 119.7604 120.2087 120.2087 121.3028
   121.3028 121.3712 122.4596 123.5805 123.9407 123.9645 123.9645 126.8856
   126.8856 128.0056 128.0056 129.9746 130.0372 130.1071 130.1071 130.9542
   130.9542 132.4893 132.4893 132.7714 132.9213 132.9213 134.4709 136.7670
   136.7670 137.5996 138.8449 139.9393 139.9393 139.9859 140.0961 140.0961
   140.1325 140.4808 141.1807 141.1807 141.8896 144.7717 144.7717 146.0793
   146.1500 147.1603 147.2484 147.2484 150.3461 150.3461 150.4289 151.5282
   151.9841 151.9841 152.6405 153.0340 153.0340 155.0670 155.0670 155.6458
   155.6458 155.7114 155.9266 155.9266 156.3048 156.5336 157.8858 157.8858
   158.9550 158.9550 161.1748 162.3016 162.3016 162.8179 162.8179 162.9624
   163.6946 164.5366 165.5402 165.5402 165.9633 165.9633 166.0555 166.7324
   167.8982 167.8982 168.2931 168.2931 169.2501 169.4241 169.4241 169.7104
   169.9942 169.9942 171.3289 171.3959 171.3959 172.4515 172.4515 173.9669
   174.4301 174.4301 174.9672 175.0100 175.6722 176.7856 176.7856 178.9373
   178.9373 180.1804 180.1804 180.3454 181.0822 181.5957 182.1312 182.1312
   185.1205 185.6957 185.6957 186.5427 186.6940 186.6940 187.1554 187.1813
   187.5663 187.5663 187.6218 187.6218 188.3252 188.4577 188.9689 189.2172
   189.2172 189.5184 189.5184 190.2651 190.2663 190.2663 191.3193 192.4683
   192.4683 195.1617 195.1617 199.9446 199.9446 200.0323 203.2626 203.2626
   203.8868 203.8868 203.9730 203.9958 204.2249 204.2249 205.2335 205.2683
   205.6929 205.6929 205.6957 205.8417 205.8417 205.9226 205.9246 206.6258
   206.6258 207.2309 207.8784 210.5326 210.5326 211.3883 212.1596 212.3573
   212.3573 212.5513 212.6062 212.6062 212.6527 212.9234 213.0445 213.1245
   213.1245 213.5794 213.5794 214.3616 214.3616 214.8239 214.8239 218.1083
   218.8883 218.8883 219.1655 219.1655 219.3887 219.3887 220.9605 220.9630
   222.7756 222.7756 223.6545 223.6545 223.7955 225.5084 225.5084 226.2040
   226.8222 227.1008 227.1008 227.2755 227.2767 227.2767 228.5928 228.5928
   228.9525 228.9525 229.5559 229.6068 229.6068 229.8054 230.4771 231.5360
   231.5360 232.5894 232.5894 232.8500 232.9720 233.3645 233.3645 233.4649
   233.5357 233.6049 234.5615 234.5615 237.0550 237.0550 237.8230 237.8839
   237.8839 238.4791 238.8406 242.0079 242.0079 242.7742 242.7742 243.1601
   243.1601 243.8289 244.0448 245.0478 245.0478 245.3256 245.3256 245.7394
   245.7394 245.8183 246.0249 249.4206 249.4206 250.4759 250.5291 250.5291
   250.8203 250.9531 250.9531 251.6565 252.5747 252.7105 252.7105 253.3911
   253.5580 254.8126 254.9763 255.1600 255.1600 255.5245 255.5245 255.7414
   256.0494 256.0494 257.9009 258.0632 258.0632 258.3179 259.3318 259.4319
   260.0143 260.0143 260.1512 260.1512 260.9968 261.1110 261.1110 262.4652
   262.4652 263.2094 263.2094 264.5076 265.4837 265.4837 265.5569 265.5569
   267.7338 268.4719 268.4719 268.5796 268.5796 269.1591 271.3366 271.3366
   271.9870 272.8700 272.9006 273.2650 273.2650 273.9349 273.9349 275.4997
   275.4997 275.5200 276.1284 276.1284 276.2155 276.2223 276.2223 277.5566
   277.9920 278.0192 278.0192 278.1536 278.1536 278.1985 278.7764 279.8852
   279.8852 280.1212 280.1212 280.8693 281.1108 281.8017 281.8017 283.8733
   283.9777 283.9777 284.9263 285.8965 285.8965 287.9500 287.9500 288.6329
   289.2979 289.2979 289.5942 290.0655 290.6374 291.0620 291.0620 291.7315
   291.7315 291.8939 292.0546 292.4333 292.4333 292.6750 293.0921 293.0921
   294.3575 294.3575 294.4424 294.4424 294.4997 294.9287 295.2367 295.2367
   295.8275 295.8434 295.8434 295.8739 296.2412 297.0774 297.4189 297.4189
   299.7392 300.3496 301.1887 301.1887 301.3108 301.3108 301.8208 301.8208
   302.0920 302.0920 302.4140 302.9986 303.0143 303.5545 304.0866 304.0866
   304.1910 304.1910 304.8222 304.8222 304.9958 304.9958 305.4718 305.5602
   310.7974 310.9259 310.9259 311.1113 311.5112 311.5112 312.4894 312.8713
   312.8713 313.3414 313.3414 313.4629 313.9624 313.9624 313.9953 313.9953
   314.2043 314.2470 314.7258 314.7258 316.4297 316.4949 316.4949 316.6509
   316.6624 316.8908 316.8908 319.4151 319.6577 319.6577 319.8621 320.3861
   320.5051 320.5051 320.9637 321.3102 321.3102 322.7616 323.6236 323.6236
   324.3070 324.3070 324.5157 324.7580 324.7580 325.6867 325.9306 325.9306
   326.3707 326.3841 326.3841 328.0507 328.0649 328.2942 328.7727 328.7727
   328.8370 328.8839 328.8839 329.0095 329.0095 329.1124 329.1124 329.8805
   330.9297 330.9297 335.1013 335.1013 335.3784 335.3784 335.4802 335.6651
   335.6651 335.9322 335.9322 336.2059 336.6432 337.1373 337.1407 337.6211
   337.6292 338.7140 338.7140 339.0468 339.0468 340.6086 340.6086 340.6394
   340.6394 340.8168 341.0457 342.4262 342.4262 343.3082 344.9751 344.9751
   345.3035 345.3992 346.1019 346.1019 346.1257 346.1257 346.5041 346.5099
   354.1357 354.2867 354.2867 354.3321 354.3321 354.4174 354.4174 354.4445
   354.4445 356.0311 356.5500 356.5500 357.0170 357.4234 357.6626 357.6626
   357.7085 357.7085 357.7992 357.8996 357.9664 357.9664 358.2428 358.2713
   358.2713 358.3933 358.8754 358.8754 359.5853 359.7750 360.0800 360.0800
   360.1806 360.1806 362.0677 362.0753 362.0753 362.1031 362.1031 362.4838
   362.8947 362.8947 362.9050 363.0618 363.0828 363.0828 363.4324 363.4324
   363.8554 363.9226 363.9226 364.2682 365.1123 365.5990 365.5990 365.6170
   365.6170 366.2959 366.5150 366.9963 366.9963 367.7478 367.7478 368.0470
   368.3572 370.9106 370.9106 371.0451 371.0750 371.0750 374.0403 374.1364
   374.1364 374.4281 374.5106 374.5106 378.2205 378.2205 378.4509 378.4509
   378.5525 378.9337 378.9813 378.9813 379.1653 379.5170 379.5170 379.7431
   380.1066 380.1066 380.1606 380.7356 380.7356 381.0306 381.0763 381.0763
   381.4427 381.6401 382.2333 382.2333 382.9677 383.1092 383.1092 383.1782
   383.1782 383.3302 383.4695 385.0832 385.1940 385.7574 385.7574 386.3140
   386.3959 386.3959 386.6795 387.0937 388.2927 388.2927 388.3834 388.3834
   390.8294 390.9440 390.9440 391.1580 391.2807 391.2807 392.0786 392.0786
   392.1032 392.1032 392.2745 392.3280 395.0421 395.0421 395.7867 395.8363
   395.8925 395.8925 397.4356 397.4356 397.4743 397.4743 398.4649 399.5721
   400.2517 400.2517 400.2582 400.7497 400.7497 401.2906 401.2906 401.3333
   401.8863 401.8863 402.4035 403.6968 403.6968 403.7165 403.7458 403.7458
   403.7789 403.8319 403.8319 404.1100 404.2475 404.2475 405.3573 405.4440
   405.4440 405.9233 405.9233 406.1133 406.8090 406.9071 406.9071 406.9643
   406.9820 406.9820 410.2198 410.2198 410.2685 410.2685 410.3086 410.4626
   410.4871 410.4871 411.1927 411.1927 412.1753 412.3935 412.4920 412.4920
   412.6990 412.6990 413.9565 414.2335 419.0510 419.0588 419.2205 419.3755
   419.3755 419.5547 419.5770 419.5770 420.0683 420.0683 420.1594 420.1594
   420.1615 420.1615 420.2697 420.2781 420.2781 420.4642 424.6675 424.6714
   424.6732 424.6732 424.6744 424.6744 425.0776 425.1438 426.3678 426.3678
   426.5459 426.5459 428.1652 428.2778 428.3619 428.4682 428.4682 428.5406
   428.5406 428.5631 429.2782 429.2782 429.4033 429.4033 432.7474 432.8726
   432.8726 433.5872 433.5872 433.6130 433.6130 433.7062 433.7062 433.9382
   434.0366 434.0372 435.3386 435.6240 436.0930 436.0930 436.3172 436.3172
   436.3651 436.6983 436.7507 436.8353 437.2752 437.2752 437.4244 437.4244
   442.0646 442.0646 442.0844 442.1894 442.1894 442.2651 443.6480 443.6480
   443.6496 443.6496 444.4013 444.4307 444.4916 444.8230 444.8230 444.8322
   444.9141 444.9141 445.3920 445.4918 445.6428 445.6428 445.6800 445.6800
   445.8660 445.8660 445.8956 445.8956 446.4192 446.5336 446.8703 447.0754
   447.7757 447.7757 447.8140 447.8140 451.7674 451.7674 451.7713 451.8056
   451.8056 451.8414 452.5245 452.5245 452.5334 452.5334 452.7186 452.7486
   456.2851 456.2851 456.5665 456.8652 456.8652 457.0294 459.9599 459.9897
   460.0841 460.0841 460.1483 460.1483 461.0801 461.0801 461.1122 461.1122
   461.1947 461.1947 461.3169 461.3452 461.4897 461.6760 461.8609 461.8609
   461.9970 461.9970 462.2116 462.2116 463.0511 463.6684 464.1459 464.3298
   465.5500 465.5500 465.8204 465.8204 466.7504 466.7797 466.7797 467.1395
   467.1395 467.2777 467.3005 467.8177 468.6465 468.6465 468.7055 468.7121
   468.7121 468.8913 469.0849 469.1200 469.1437 469.1437 469.1950 469.1950
   470.6848 471.2346 471.2346 471.5136 471.8769 471.9940 471.9940 472.2492
   472.6287 472.6287 472.6395 472.6395 474.4808 474.4808 474.4837 474.4837
   478.9280 478.9315 478.9455 478.9455 479.0475 479.0475 479.8937 479.8937
   479.9423 479.9423 480.0371 480.0840 481.0593 481.0593 481.0608 481.0608
   482.0063 482.0066 482.2663 482.2663 482.2664 482.2664 484.2712 484.2721
   486.7009 486.7292 486.7292 486.8879 486.8879 487.5776 487.9465 488.6077
   488.6077 489.3074 489.3074 489.5716 490.1359 490.2427 490.5625 490.5625
   490.6287 490.6287 490.7588 491.1684 491.1684 491.2209 491.2209 491.2420
   492.4767 492.4767 492.5602 492.6830 492.6830 493.3640 493.3640 493.4376
   493.6699 493.6699 493.8337 494.0079 494.0149 494.0690 494.2604 494.2604
   494.3209 494.3209 496.0777 496.2102 497.1403 497.1403 497.1712 497.1712
   497.2012 497.2090 503.6250 503.7375 503.7375 503.8198 503.8198 503.8496
   504.6435 504.6435 504.7310 505.0136 505.0136 505.5257 506.5256 506.6308
   506.6414 506.6414 506.8622 506.8622 507.0617 507.1204 507.2323 507.2323
   507.2480 507.2480 507.3581 507.3581 507.6081 507.7352 507.7352 508.1055
   508.9305 508.9953 508.9953 509.2236 509.2236 509.2946 510.1577 510.1577
   510.1686 510.1935 510.1935 510.2719 510.2719 510.4404 510.4404 510.5238
   510.7453 510.7826 511.0236 511.0236 511.0862 511.0862 511.5572 511.5572
   511.7569 511.7569 512.1153 512.5814 512.6099 512.6099 512.6133 512.6133
   512.6348 512.6353 518.1421 518.2472 518.2472 518.2893 518.2893 518.3119
   525.1384 525.3007 525.3007 525.3769 525.3769 525.4555 525.9178 525.9178
   525.9869 525.9869 526.0346 526.2501 527.4195 527.4195 527.4234 527.4234
   527.5587 527.5593 527.6286 527.7497 527.7890 527.7890 527.8158 527.8158
   530.4136 530.6903 530.6903 531.0645 531.1398 531.1398 531.6671 531.6671
   531.6766 532.0115 532.0115 532.3011 533.8466 534.0624 534.6461 534.6461
   534.8163 534.8163 535.4066 535.4268 535.6497 535.6497 535.6837 535.6837
   535.8214 535.8557 536.6800 536.6800 536.7174 536.7361 536.7361 536.8404
   537.7509 537.7509 537.9326 537.9326 542.8901 542.8901 543.0119 543.0119
   543.3203 543.4366 544.7326 544.7326 544.7328 544.7643 544.8087 544.8087
   545.3718 545.4977 545.7840 545.7840 545.8070 545.8070 548.3650 548.6237
   548.8396 548.8396 548.9600 549.1452 549.1452 549.2388 549.3816 549.3816
   549.4298 549.4298 549.4330 549.4567 550.5569 550.5569 550.6569 550.6569
   550.8419 550.8479 551.7191 551.7191 551.7520 551.7933 551.7933 551.8361
   553.7161 553.7161 553.7493 553.7493 554.4761 554.4761 554.5505 554.5505
   555.7228 555.7246 557.3840 557.4311 557.9542 557.9542 557.9599 557.9599
   558.3747 558.3753 558.7045 558.7045 558.7103 558.7103 559.6620 559.6648
   559.8500 559.8759 559.8759 559.9219 559.9219 559.9607 560.5258 560.5352
   560.6677 560.6677 560.6888 560.6888 560.8530 560.8530 560.8781 560.9233
   560.9233 560.9510 564.7077 564.7077 564.7448 564.7448 565.2242 565.2283
   565.4412 565.4424 565.8876 565.8876 565.8910 565.8910 569.3433 569.3433
   569.3473 569.3473 569.5812 569.6319 569.6319 569.7167 569.7167 569.7718
   570.5529 570.5529 570.5609 570.5609 570.7270 570.7306 572.1396 572.1465
   572.1465 572.1620 572.1655 572.1655 572.6945 572.6945 572.8316 572.8782
   572.8782 573.0012 576.5680 576.5680 576.5702 576.5702 576.6811 576.7427
   577.3343 577.5961 577.6500 577.6500 577.7313 577.7313 578.5108 578.5108
   578.5112 578.5112 578.5896 578.5985 578.8272 578.8272 578.9300 578.9300
   579.1522 579.1624 580.5257 580.5305 581.3739 581.3875 581.4338 581.4338
   581.4877 581.4877 582.0916 582.0916 582.1185 582.1185 587.5912 587.6470
   587.6470 587.8587 587.8587 587.9191 588.6175 588.6175 588.6274 588.6274
   589.3844 589.3844 590.2142 590.2189 590.2189 590.2556 590.2556 590.6264
   592.2882 592.2905 592.3740 592.3740 592.5053 592.5053 592.8066 592.8066
   592.8766 592.8766 592.9229 593.1781 593.6604 593.7425 594.0141 594.0141
   594.0687 594.0687 595.0590 595.0590 595.1126 595.1126 595.2147 595.3280
   595.4738 595.5015 595.6686 595.6686 595.6946 595.6946 596.0139 596.0424
   596.6944 596.6944 596.7204 596.7204 597.8634 597.8634 597.8720 597.8720
   598.2788 598.2800 604.6209 604.6664 604.6664 604.6688 604.6688 604.6783
   604.9260 604.9605 605.7266 605.7266 605.7294 605.7294 609.6024 609.6024
   609.7855 609.8973 609.8973 609.9658 610.2301 610.5475 610.5475 610.5543
   610.5638 610.5638 610.6000 610.6593 610.9445 610.9445 610.9804 610.9867
   610.9867 611.0172 611.5821 611.7310 611.7310 612.4076 612.4076 612.9387
   613.8869 613.8869 614.2077 614.4396 614.4396 614.8203 614.9743 614.9743
   615.3006 615.3006 615.4573 615.4647 615.7566 616.2385 616.4282 616.4282
   616.9681 616.9681 617.3672 617.3672 618.0871 618.1208 618.1208 618.1435
   618.2251 618.7050 618.7050 618.7746 618.7746 619.1765 623.3345 623.3345
   623.3816 623.4354 623.4354 623.4622 623.5733 623.5733 623.6607 623.8092
   623.8092 623.9207 627.4495 627.4919 627.4919 627.5883 627.5883 627.6461
   628.6478 628.6721 628.8062 628.8062 628.8696 628.8696 629.8217 629.8217
   629.8324 629.8324 630.0064 630.0170 631.2316 631.2765 631.2765 631.5638
   631.5638 631.5786 634.4256 634.5298 634.5298 634.7687 634.7687 634.9365
   635.8086 636.0232 636.0232 636.1684 636.1684 636.2493 637.7056 637.7310
   637.8503 638.0654 638.0654 638.7827 638.7827 638.8609 638.8609 638.9385
   638.9385 639.3992 640.2917 640.4002 640.4026 640.4026 640.4503 640.4503
   642.1349 642.2085 643.2340 643.2817 643.2817 643.4482 643.4482 643.4978
   644.1732 644.1732 644.1757 644.1757 644.1808 644.2093 646.5549 646.5549
   646.5623 646.5623 646.9208 646.9208 646.9226 646.9386 646.9386 646.9390
   647.0077 647.0161 647.5734 647.5734 647.5945 647.5945 648.0196 648.0197
   648.6621 648.6621 648.6794 648.6794 651.1625 651.1702 651.2030 651.2030
   651.2307 651.2307 651.9119 651.9738 651.9738 652.0824 652.1337 652.1337
   652.1640 652.1640 652.2255 652.2854 652.2854 652.4295 653.1711 653.3892
   653.3892 653.4698 653.5325 653.5325 653.5711 653.5711 653.7274 653.7453
   653.7453 653.8209 656.1962 656.2338 656.2338 656.2821 656.2821 656.3432
   656.7056 656.7812 656.7812 656.8011 656.8011 656.8154 657.0224 657.0224
   657.0245 657.0245 660.1037 660.1037 660.7622 660.8018 661.4511 661.4511
   661.4706 661.4706 664.3123 664.3962 664.3962 664.4472 664.4472 664.5123
   667.7911 667.7911 667.8015 667.8015 667.8095 667.8204 667.8357 667.8357
   667.8436 667.8436 667.9492 667.9495 672.1500 672.1500 672.1523 672.1523
   672.1622 672.2222 672.9089 672.9900 672.9900 672.9979 672.9979 673.0195
   674.3175 674.3538 674.3538 674.5047 674.5047 674.6012 675.2572 675.6555
   675.6555 675.6863 675.6863 675.7858 676.4357 676.5952 676.5952 676.6279
   676.6279 676.9372 677.9616 678.1633 678.1633 678.4110 678.4110 678.5892
   679.0481 679.1109 679.1764 679.1764 679.1850 679.1850 680.0272 680.0823
   680.0823 680.1755 680.2621 680.2621 680.3195 680.4451 682.6951 682.7667
   682.7667 682.7991 682.7991 682.8024 683.3971 683.3971 683.4638 683.4638
   683.4850 683.6240 685.0763 685.1102 685.1700 685.1700 685.1735 685.1735
   685.8829 685.8829 685.8836 685.8836 685.9313 685.9396 688.2160 688.2160
   688.3596 688.4554 688.4554 688.6751 690.9269 690.9269 690.9659 690.9659
   690.9708 691.0431 691.2843 691.2843 691.4315 691.4315 691.4549 691.5602
   693.7640 693.7715 693.7715 693.7812 693.7812 694.0559 695.5543 695.5789
   695.5789 695.6150 695.6150 695.6491 696.0138 696.0138 696.0333 696.0333
   696.1509 696.1650 696.1650 696.1858 696.1858 696.1913 696.7604 696.7604
   696.7730 696.7730 698.5768 698.5842 699.4345 699.4549 699.6907 699.6907
   699.6986 699.6986 700.1020 700.1167 701.0075 701.0075 701.0112 701.0112
   702.6428 702.7026 702.7026 702.7044 702.7046 702.7046 703.2030 703.2154
   703.2154 703.2244 703.2244 703.2881 703.3095 703.3326 703.3326 703.3387
   703.3609 703.3609 705.6939 705.7009 705.7009 705.7102 705.7102 705.7127
   711.9879 711.9879 711.9948 711.9948 712.1135 712.1186 712.6796 712.7724
   712.7724 712.7762 712.7837 712.7837 712.8250 712.8457 712.8739 712.8739
   712.9368 712.9368 713.0586 713.1750 713.2229 713.2229 713.2252 713.2252
   714.2803 714.2803 714.2825 714.2842 714.2842 714.2893 717.9826 717.9826
   717.9826 717.9826 718.0710 718.0710 721.0186 721.0430 721.2832 721.2832
   721.2977 721.3047 721.3047 721.3192 721.6142 721.6142 721.6219 721.6219
   722.4689 722.5082 722.5082 722.5794 722.5794 722.6141 724.2582 724.6434
   726.5233 726.5233 726.5705 726.5705 726.9720 726.9720 727.0058 727.0058
   727.2139 727.2139 729.7719 729.8374 729.8374 729.9230 730.0009 730.0009
   730.2859 730.2859 730.3522 730.3522 730.4087 730.4605 730.5413 730.5570
   730.7594 730.7594 730.7955 730.7955 731.4795 731.4795 731.5327 731.5327
   732.9929 733.0696 733.6621 733.6621 733.7246 733.7387 733.7795 733.7795
   734.7301 734.7368 734.7368 734.7650 734.8556 734.8556 735.4379 735.4441
   735.9442 735.9442 736.0331 736.0331 736.0617 736.1537 736.8878 736.8878
   736.9211 736.9211 737.0490 737.0490 737.0506 737.1934 737.1934 737.2786
   737.6563 737.8696 737.8696 738.0229 738.0785 738.0785 738.2582 738.2582
   738.3729 738.3729 738.6264 738.6762 739.1475 739.1475 739.2181 739.2181
   739.2308 739.2867 744.9394 744.9394 744.9399 744.9499 744.9499 744.9516
   745.5983 745.6031 745.6160 745.6160 745.6163 745.6163 746.1343 746.1754
   746.1754 746.2631 746.2631 746.3019 747.0615 747.0912 747.0912 747.1284
   747.1668 747.1668 749.5488 749.6105 752.6305 752.6305 752.6339 752.6339
   752.6912 752.7548 754.1129 754.1147 754.1576 754.1576 754.1616 754.1616
   754.3367 754.3477 754.3477 754.3556 754.3565 754.3565 754.5397 754.5526
   754.5526 754.5533 754.5533 754.5549 759.7610 759.8539 760.0023 760.0023
   760.0222 760.0222 761.6551 761.6615 761.6615 761.6770 761.6770 761.6793
   764.1099 764.1099 764.1153 764.1153 766.3012 766.6121 766.6121 766.6175
   766.6175 766.6245 766.6434 766.7378 766.7813 766.7813 766.7931 766.7931
   767.8441 767.8755 767.8755 767.9215 767.9215 768.0049 768.1336 768.1548
   768.1548 768.1766 768.1766 768.1773 769.1880 769.3106 769.3106 769.3517
   769.3902 769.3902 771.0376 771.1729 771.4327 771.4327 771.4404 771.4404
   771.7731 771.7731 771.7768 771.7768 771.8700 771.8759 772.9291 772.9751
   772.9969 772.9969 773.0289 773.0289 774.7465 774.7465 774.7513 774.7513
   774.9078 774.9078 774.9136 774.9136 775.0150 775.0555 775.0729 775.0778
   776.1488 776.5401 776.5401 776.8650 776.8650 777.1949 777.6985 777.8944
   777.8944 777.9226 778.1292 778.1292 779.1083 779.1268 779.1268 779.2883
   779.2883 779.3604 781.0481 781.2736 781.2736 781.2780 781.2780 781.3434
   782.1281 782.1281 782.1657 782.2433 782.3547 782.3547 783.7274 783.7274
   783.7504 783.7504 783.8831 784.1183 784.1523 784.1698 784.1698 784.2310
   784.2310 784.3038 785.2860 785.2860 785.2892 785.3071 785.3071 785.3140
   788.2920 788.2965 788.2965 788.4631 788.4631 788.6686 789.1229 789.4407
   789.4559 789.4559 789.5484 789.5484 790.0757 790.0757 790.1150 790.1150
   790.1679 790.2157 799.0903 799.1498 799.7672 799.7948 799.7948 799.8129
   799.8285 799.8285 799.9034 799.9443 799.9443 799.9463 799.9463 799.9525
   799.9902 800.0449 800.0449 800.0964 800.1283 800.1283 800.1654 800.1654
   800.1674 800.1674 800.3864 800.3864 800.4942 800.4942 800.5865 800.8103
   800.8938 801.0910 801.0910 801.2210 801.2210 801.2963 801.5447 801.7652
   801.7652 801.9921 802.0391 802.0391 802.3611 802.3740 802.3740 802.5335
   802.5335 802.6009 802.7458 802.8171 802.8171 802.9272 802.9272 802.9430
   803.0219 803.0385 803.0385 803.0955 803.0955 803.1196 803.5791 803.5791
   803.5878 803.5878 803.6046 803.6268 804.0130 804.2268 804.2268 804.3120
   804.3120 804.4035 806.1365 806.2468 806.2468 806.3986 806.4134 806.4134
   806.4183 806.4183 806.4395 806.4395 806.4664 806.5190 813.7041 813.8021
   813.8021 813.8071 813.8105 813.8105 813.8134 813.8833 813.8833 814.1131
   814.1467 814.1467 815.2619 815.3874 816.2931 816.4141 816.4141 816.4283
   816.4283 816.7457 816.7997 816.8834 816.9625 816.9625 817.0130 817.0130
   818.3310 818.6272 818.6272 819.3394 819.3394 819.8366 819.8801 819.8801
   819.9010 819.9010 819.9237 820.0396 821.0691 821.2811 821.2811 821.3050
   821.3050 821.3604 821.4881 821.5646 821.5646 821.5773 821.5773 821.5825
   821.5870 821.6799 821.6935 821.6935 821.7569 821.7569 822.4602 822.4602
   822.4739 822.4739 822.5817 822.6065 823.0003 823.1014 823.1014 823.1751
   823.1751 823.1927 828.0827 828.0954 828.0954 828.1302 828.1369 828.1369
   830.6176 830.6290 830.6290 830.6456 830.6456 830.6563 832.8836 832.9042
   832.9042 832.9342 832.9342 832.9466 833.6746 833.8772 834.3391 834.3391
   834.3417 834.3417 835.4442 835.4442 835.4442 835.4459 835.4459 835.4476
   836.2460 836.2985 836.2985 836.3277 836.4629 836.4629 840.0728 840.0967
   840.0967 840.1073 840.1085 840.1085 840.2376 840.2494 840.2494 840.2736
   840.2736 840.2969 840.9850 841.4797 841.8906 842.0979 842.0979 842.6158
   842.6158 842.6386 842.6386 842.7486 842.7486 842.8504 842.9724 842.9724
   842.9981 842.9981 843.0703 843.3609 843.3648 843.3899 843.3899 843.4530
   843.4530 843.5597 847.5532 847.5972 847.5972 847.7034 847.7034 847.7852
   847.8770 847.8770 847.8797 847.8797 847.8905 847.9471 848.5217 848.5552
   848.5552 848.6430 848.6430 848.6518 848.7573 848.7670 848.7670 848.7743
   848.7743 848.7756 849.0868 849.1019 849.1019 849.1194 849.1194 849.1238
   850.0695 850.0849 850.0849 850.0947 850.0970 850.0970 851.6522 851.6795
   852.4157 852.4157 852.4226 852.4226 853.0923 853.0924 853.6813 853.7289
   853.7289 853.7576 853.7576 853.8369 854.3865 854.3865 854.3928 854.3928
   854.6884 854.6899 856.3820 856.3820 856.3824 856.3824 861.1988 861.1988
   861.2277 861.4204 861.4584 861.4584 861.8598 861.9248 861.9248 861.9743
   861.9743 861.9987 862.4912 862.5534 862.5534 862.6511 862.6511 862.7297
   863.2481 863.2481 863.2485 863.2485 865.7533 865.7533 866.6730 866.7448
[...]
   392.8927 393.0532 393.2978 393.2978 396.2556 396.2556 396.6311 397.9735
   398.2378 399.3291 399.5368 399.5368 399.9643 400.2875 400.2875 400.5999
   400.7103 400.7103 400.8205 400.9247 400.9247 400.9874 401.0511 401.1530
   401.2314 401.5500 401.5730 401.5730 403.1462 403.2008 403.2008 403.4699
   403.9789 403.9927 404.0369 404.0369 406.4663 406.8502 406.8502 407.1296
   407.4582 407.9746 407.9746 408.1329 409.7604 409.7674 409.7674 409.9903
   410.2844 410.2844 410.3054 410.4125 410.8023 411.1075 411.1075 411.2966
   411.4911 411.7880 411.9062 412.2935 412.4760 412.4760 412.8144 412.9220
   412.9479 412.9901 412.9901 413.2670 413.2670 413.3079 413.5237 413.5474
   413.5556 413.5556 414.0361 414.0361 415.5525 415.6932 416.9060 416.9098
   416.9098 416.9518 419.2989 419.3444 419.3444 419.4501 420.1660 420.2780
   420.2780 420.3972 421.8424 421.8570 421.9301 421.9301 422.3437 422.3437
   422.3598 422.4475 422.7609 422.7609 422.8537 423.2441 424.3068 424.3902
   424.3902 424.5847 424.6163 424.6279 424.6588 424.6588 425.5003 425.7556
   425.7556 425.7933 425.9753 426.0320 426.0924 426.0924 427.6165 427.6165
   427.6746 427.9198 429.7291 429.8351 429.8351 430.9959 432.3800 432.3800
   432.9718 433.1977 435.9359 435.9359 436.0004 436.3422 437.6929 437.6929
   437.7260 437.7286 438.5629 438.6607 438.6607 438.8614 439.0075 439.3003
   439.3003 439.8070 439.8403 440.1166 440.1166 440.5518 442.4012 442.4282
   442.4282 442.4496 443.0505 443.0505 443.0686 443.0731 443.6840 443.6840
   443.9555 443.9981 443.9981 444.0105 444.3967 444.4443 444.4443 444.4562
   445.6293 445.6293 445.6830 445.8445 448.2497 448.2497 448.4638 448.5149
   449.5448 449.5751 449.5751 449.6318 450.5185 450.5185 453.0800 453.1369
   454.3150 454.3150 455.5071 455.5071 455.5765 455.5896 455.9943 456.4607
   456.6368 456.7434 456.8056 456.8056 457.0494 457.0494 457.4771 457.4804
   458.3469 458.7839 458.7839 458.9701 459.8245 459.8245 459.8314 459.9146
   460.2568 460.2568 460.4858 460.6632 462.1696 462.1965 462.1965 462.2732
   462.7158 462.7248 462.7248 462.8623 463.7222 463.7222 463.7512 464.1364
   464.1417 464.1417 464.3403 464.5509 464.5509 464.7039 465.5947 465.7849
   466.2523 466.2612 466.2696 466.2696 466.5613 466.5613 466.5620 466.5981
   468.4532 468.4532 468.9041 468.9493 468.9815 469.0098 469.4541 469.4541
   470.0653 470.0653 470.4748 470.5341 470.8104 470.9431 471.1151 471.1151
   471.2436 471.2606 471.2838 471.2838 471.4008 471.4141 471.6025 471.6025
   471.7507 471.7988 471.8267 471.8267 472.2635 472.2932 472.2932 472.3352
   476.9849 477.0532 477.5440 477.5440 483.3549 483.3549 483.3808 483.4656
   483.6249 483.7065 483.7065 483.7466 484.2575 484.2575 484.3012 484.3883
   486.1809 486.2037 486.2037 486.4599 486.4625 486.4625 486.4834 486.5279
   489.3890 489.3890 489.4537 489.6227 490.0022 490.0384 490.0430 490.0430
   490.3691 490.4075 490.4075 490.5022 490.6750 490.7491 490.8242 490.8242
   492.3095 492.3184 492.3184 492.5073 492.9330 492.9330 493.1541 493.2430
   493.4206 493.5971 493.9014 493.9014 494.7780 495.0795 495.0795 495.3350
   497.5183 497.7375 497.7375 498.0066 498.3036 498.3036 498.6589 498.6802
   498.6923 498.6923 498.7433 498.7856 499.3772 499.3772 500.1289 500.1354
   500.7172 500.7510 501.4111 501.4111 501.7188 501.7644 501.7644 501.8229
   501.8383 501.8438 501.9283 501.9283 503.0135 503.1323 503.4664 503.4664
   506.1833 506.1987 506.1987 506.2143 508.5934 508.6868 509.2833 509.2833
   509.3383 509.3483 509.3784 509.3804 509.3804 509.5304 511.0276 511.0276
   511.2678 511.2734 511.5764 511.5764 511.6714 511.7232 511.7232 511.7472
   511.8398 511.8909 512.1362 512.1362 512.1434 512.3309 519.2305 519.2458
   519.2458 519.2729 520.1585 520.1640 520.2390 520.2390 520.3033 520.3033
   520.3566 520.4670 522.3591 522.3591 522.7220 523.0615 523.3320 523.3320
   523.4921 523.6048 523.7322 523.7831 523.7831 523.8397 524.2514 524.2514
   524.5887 524.7069 525.3802 525.4145 525.5245 525.5245 525.8393 525.9022
   525.9355 525.9355 527.6062 527.6062 527.6354 527.6565 528.4173 528.4700
   528.4700 528.5371 528.6061 528.7112 528.7112 528.7899 529.7447 529.7739
   529.7739 529.9228 529.9835 530.0866 530.0866 530.1473 534.8541 534.8541
   534.9890 534.9895 535.5661 535.6565 535.6565 535.6895 535.9235 536.1245
   536.1245 536.2957 536.3937 536.4146 536.4146 536.4840 538.8549 539.1262
   539.1262 539.4666 540.8629 540.9273 540.9273 541.1346 541.1346 541.3418
   544.7708 544.8046 544.8046 544.8208 545.6517 545.6517 546.2382 546.3480
   546.7910 546.7910 546.9706 547.0183 549.1825 549.2688 549.4749 549.4749
   549.9648 549.9648 550.1567 550.1567 550.2189 550.8194 552.6505 552.8206
   552.9249 552.9249 554.3246 554.3545 555.1922 555.1948 555.2019 555.2019
   555.3370 555.4628 555.4628 555.5196 556.3188 556.3188 556.3567 556.4392
   556.7835 556.7835 557.3041 557.3226 557.3914 557.6857 557.7101 557.7101
   558.3944 558.7652 558.8887 558.8887 558.9223 558.9253 559.0178 559.0178
   559.2490 559.3583 559.3583 559.3808 559.6945 559.6987 559.6987 559.7257
   559.7639 559.9463 559.9463 560.0661 560.3786 560.5252 560.5252 560.6888
   560.7744 560.9528 560.9528 561.2263 561.3782 562.1469 562.1469 562.3188
   562.3188 563.1855 564.4900 564.4956 564.7531 565.7717 565.7717 566.2709
   566.6152 566.6152 566.7328 566.7573 567.2799 567.3556 567.3556 567.4213
   567.4749 567.5239 567.5469 567.5469 568.0820 568.1353 568.1353 568.2146
   569.4120 569.4194 569.4716 569.4716 569.6627 569.6627 569.7607 569.7607
   571.8615 571.9547 572.1763 572.1763 573.5298 573.6372 573.9021 573.9021
   576.7273 576.7287 576.7287 576.7658 577.1114 577.1226 577.1939 577.2410
   577.2410 577.2823 577.2823 577.2938 577.8119 577.9056 577.9056 577.9569
   578.6968 578.6968 578.7679 578.7847 579.1200 579.1995 579.2160 579.2160
   579.3542 579.4564 579.5346 579.5346 579.7056 579.7056 579.8040 579.8401
   580.5231 580.5782 580.5782 580.6129 581.0101 581.0630 581.0630 581.1016
   587.4094 587.4353 587.4684 587.4684 587.6567 587.6898 587.6898 587.7155
   587.9876 587.9876 588.0419 588.0723 588.1129 588.1448 588.1813 588.1813
   593.2662 593.2662 593.2755 593.2844 593.7924 593.7995 593.7995 593.8110
   593.8898 593.8898 593.8998 593.9153 595.7627 595.7627 596.0783 596.1037
   596.1143 596.1143 597.2499 597.2560 597.3251 597.3761 597.5580 597.5580
   597.5920 597.6421 597.9460 598.0390 598.0390 598.1218 598.7743 598.7743
   600.4464 600.4557 600.5331 600.5331 601.0475 601.1890 601.1890 601.2657
   601.3982 601.4176 601.4908 601.4908 604.8199 604.9221 604.9499 604.9499
   605.0079 605.0297 605.0297 605.0379 606.3765 606.4275 606.4931 606.4970
   606.4970 606.5309 606.6826 606.6826 606.6997 606.7548 607.3720 607.3720
   607.7307 607.7434 607.7434 607.8234 609.3414 609.3414 609.4409 609.4820
   612.3306 612.5634 612.5634 612.6232 612.6648 612.7292 612.7292 612.7909
   613.8572 613.8572 613.8660 613.9360 614.7856 614.9223 614.9223 614.9908
   615.4850 615.5403 615.5433 615.5433 617.3550 617.5281 618.5091 618.5265
   618.5265 618.5279 619.5449 619.5605 619.5605 619.5859 619.8697 619.8886
   619.8886 619.9103 619.9581 619.9581 619.9591 619.9877 620.1373 620.1849
   620.1849 620.2119 620.4997 620.5382 620.5382 620.5661 621.3981 621.3981
   621.4529 621.4624 623.2409 623.2409 623.2592 623.2670 623.2696 623.4206
   623.4206 623.4908 623.8088 623.8395 623.8716 623.8716 624.4345 624.4751
   624.4751 624.5123 627.0063 627.0063 627.0110 627.0448 628.1064 628.1313
   628.1313 628.1652 628.1982 628.2170 628.2435 628.2435 630.0957 630.1319
   630.1474 630.1474 634.1814 634.1814 634.4721 634.4732 634.4732 634.5205
   634.6228 634.6405 634.6405 634.6856 634.9213 634.9841 635.0480 635.0480
   635.1412 635.1423 636.7698 636.7866 636.7894 636.7894 637.4703 637.6190
   637.6190 637.7063 637.8734 637.9204 637.9204 637.9269 637.9418 638.0063
   638.0063 638.0424 641.2244 641.3228 641.3228 641.3674 642.7663 642.7669
   642.7669 642.7778 643.9094 643.9525 644.2559 644.2559 644.3783 644.3783
   645.0582 645.0806 646.9009 646.9245 646.9245 647.0199 647.0331 647.0538
   647.0998 647.0998 649.0121 649.0121 649.9619 649.9672 650.0954 650.0954
   650.7329 650.7329 650.8331 650.8932 654.4162 654.4162 654.5712 654.6270
   654.6270 654.7984 656.0690 656.0857 656.3124 656.3329 656.4366 656.4366
   656.8422 656.8578 657.0355 657.0355 657.4879 657.4879 657.7207 657.7216
   658.0481 658.0481 658.2940 658.3624 658.4656 658.4656 658.5228 658.8998
   658.9493 658.9493 661.7919 661.8169 662.0496 662.0496 662.1080 662.1735
   662.2032 662.2327 662.2327 662.2613 662.8496 662.8582 662.9764 662.9764
   663.1123 663.2553 663.2817 663.2817 666.1818 666.1854 666.1931 666.1931
   666.5675 666.5675 666.5979 666.5986 667.0620 667.0869 667.0869 667.1062
   667.6963 667.6963 667.7186 667.7502 669.4618 669.4618 671.3695 671.3695
   671.3756 671.3835 672.1156 672.1195 672.2912 672.3076 672.9500 672.9500
   673.6003 673.9224 674.3300 674.3300 675.7679 675.7679 675.8461 675.8717
   676.0415 676.1059 676.2008 676.2008 676.8070 676.8070 676.9359 676.9603
   677.2658 677.3069 677.3131 677.3131 677.4618 677.6220 677.9054 677.9054
   678.0824 678.0824 678.1362 678.1541 678.5276 678.5276 678.6182 678.6268
   678.7957 678.9489 678.9489 678.9821 679.1913 679.2159 679.2159 679.2226
   679.4506 679.5157 679.5157 679.6462 680.9493 680.9709 680.9709 680.9897
   682.5916 682.6034 683.0895 683.0895 684.9691 684.9891 685.0105 685.0105
   685.6171 685.6258 685.6258 685.6940 687.2184 687.2378 687.2378 687.2592
   690.2249 690.6446 690.8097 690.8097 691.9431 692.4142 692.4142 692.4703
   694.2068 694.4697 694.4697 694.7738 694.8863 695.0939 695.0939 695.2520
   695.4044 695.6291 695.6291 695.7976 696.3650 696.5033 696.5033 696.5651
   696.7133 696.8051 696.8051 696.9585 697.5151 697.5151 697.5456 697.5520
   698.6094 698.8263 698.8263 698.9629 700.9365 701.0568 701.0568 701.2095
   703.3272 703.3272 703.4385 703.5179 703.5540 703.5540 703.7510 703.8498
   703.8498 703.8802 704.6497 704.6974 705.0393 705.0789 705.3312 705.3312
   705.4368 705.4515 705.4515 705.4606 705.4840 705.4840 705.6115 705.6146
   705.6713 705.6891 706.4989 706.4989 706.9705 706.9831 706.9831 706.9854
   707.2418 707.2957 707.2957 707.3490 707.6419 707.6688 707.6688 707.6830
   708.3817 708.3960 708.5681 708.5681 709.8676 709.8947 709.8947 709.9017
   712.5833 712.6805 712.6805 712.7046 712.7862 712.7924 712.8334 712.8334
   716.0433 716.0947 716.0947 716.1232 716.5670 716.6080 716.6080 716.6288
   717.0717 717.0939 717.1082 717.1082 718.5390 718.5914 718.6414 718.6414
   720.4612 720.6847 720.6847 720.8554 720.8554 720.8593 720.9052 720.9069
   721.4515 721.6362 721.6362 721.7676 723.0120 723.1629 723.1641 723.1641
   724.4858 724.4949 724.5140 724.5140 725.6224 725.7498 725.7924 725.7924
   729.2121 729.5924 729.8662 729.8662 730.0628 730.0737 730.1161 730.1224
   730.1224 730.1892 730.2284 730.2284 731.4441 731.7790 731.7790 731.8415
   732.0124 732.0124 732.0485 732.0685 732.5681 732.5687 732.6187 732.6187
   733.0514 733.1953 733.1953 733.3074 733.4183 733.5494 733.7889 733.8232
   733.8232 733.9006 733.9915 733.9915 734.3340 734.3538 734.3538 734.3942
   734.6653 734.7816 734.7816 734.7821 735.8305 735.8682 736.1388 736.2241
   736.2241 736.3152 736.5788 736.7658 736.7658 736.9170 737.0993 737.3748
   737.3748 737.5240 738.2274 738.3205 738.3670 738.3670 740.3580 740.4590
   740.4648 740.4648 742.5863 742.6069 742.6421 742.6421 742.7822 742.7822
   742.7966 742.8843 743.2080 743.2356 743.2356 743.2516 747.0535 747.2734
   747.2937 747.2937 747.5258 747.5258 747.5751 747.6551 749.4836 749.4999
   749.5599 749.5599 751.3963 751.4672 751.4672 751.4836 753.1775 753.1861
   753.1861 753.2141 753.7712 753.7712 753.8409 753.8494 753.8559 753.8999
   753.9187 753.9187 754.2677 754.2677 754.4344 754.5363 754.6208 754.6238
   754.6238 754.7328 754.7838 754.9068 754.9068 755.0633 755.1345 755.1866
   755.1866 755.2175 755.8764 755.8884 755.8884 755.8912 755.8997 756.0273
   756.1120 756.1843 756.1843 756.2389 756.2389 756.3096 756.4616 756.5262
   756.5262 756.5476 756.5764 756.6358 756.6750 756.6750 757.5586 757.6384
   757.6384 757.6386 758.3373 758.3373 758.4840 758.5045 758.7238 758.7573
   758.8864 758.8864 760.4153 760.4559 760.4559 760.5544 760.5591 760.5782
   760.5788 760.5788 760.8921 760.8927 760.8927 760.8966 762.5601 762.5601
   762.7412 762.7785 762.8627 762.8893 762.9483 762.9483 763.2599 763.2599
   763.5284 763.5367 763.7975 763.8083 763.8083 763.8297 764.0361 764.0361
   764.0744 764.0870 764.6116 764.6167 764.6798 764.6798 764.8670 764.8670
   764.8971 764.9084 765.2376 765.2472 765.2604 765.2604 766.3517 766.3517
   769.6837 769.6837 769.6861 769.6906 770.3462 770.3581 770.5589 770.5589
   770.7239 770.7239 770.7265 770.7273 772.7810 772.8152 772.8843 772.8843
   773.3695 773.3695 773.6923 773.7226 773.7226 773.7371 774.5411 774.5411
   774.5470 774.5522 774.5668 774.5852 774.5915 774.5915 776.3642 776.3916
   776.3916 776.4253 776.4414 776.5028 776.5028 776.5151 779.0820 779.1366
   782.8535 782.9098 782.9098 782.9571 782.9658 782.9736 782.9784 782.9784
   783.5324 783.5506 783.5681 783.5681 783.5860 783.6231 783.6430 783.6430
   784.5292 784.5313 784.5658 784.5658 785.4681 785.4681 785.4978 785.5283
   787.2856 787.2856 787.6170 787.7376 787.7842 787.7842 789.4229 789.4254
   790.8840 790.9093 790.9093 791.0093 791.0557 791.0672 791.0672 791.0724
   792.6797 792.8630 792.9784 792.9784 793.0762 793.1689 793.1689 793.1896
   793.5750 793.6060 793.6525 793.6525 793.7279 793.7438 793.7703 793.7703
   794.3983 794.5019 794.5751 794.5751 796.6899 796.8142 797.1196 797.1196
   799.9851 800.0071 800.4655 800.4655 801.0407 801.1555 801.1843 801.1843
   801.3888 801.4830 801.4830 801.5037 802.2123 802.2437 802.2437 802.2547
   802.3386 802.3712 802.3847 802.3847 804.4935 804.4993 804.5059 804.5059
   804.5886 804.5886 804.5916 804.6078 807.9325 807.9608 807.9608 807.9723
   808.6406 808.6926 808.6926 808.7576 809.2898 809.3934 809.3934 809.3977
   810.5336 810.7083 810.7419 810.7419 811.2560 811.3061 811.3153 811.3153
   812.4200 812.4457 812.4457 812.4587 812.7240 812.8924 812.8924 812.9747
   813.7943 813.8250 813.8462 813.8462 816.2325 816.2704 816.3394 816.3394
   816.4022 816.4331 816.4574 816.4574 817.5780 817.5780 817.5796 817.6508
   817.6540 817.7720 817.7720 817.7942 819.7325 819.7325 820.6003 820.6237
   820.7000 820.7000 821.0731 821.5123 821.7353 821.7379 821.9188 821.9188
   822.2114 822.2114 822.2508 822.2514 822.6083 822.6102 822.8893 822.8995
   822.8995 822.9116 823.0665 823.0698 823.0723 823.0723 823.5405 823.5405
   824.2198 824.2238 824.2238 824.2478 824.2962 824.2991 824.2991 824.3048
   825.4981 825.5543 825.5543 825.7782 828.2334 828.2334 828.2611 828.2622
   830.5178 830.5178 830.5563 830.5580 830.5601 830.5601 830.5662 830.5722
   831.0401 831.0604 831.0930 831.0930 834.5890 834.6020 834.6793 834.6793
   834.8675 834.8693 834.8706 834.8706 834.8985 834.9107 834.9177 834.9177
   835.1731 835.2306 835.2306 835.2445 837.9004 837.9090 837.9165 837.9165
   838.3539 838.4566 838.4566 838.6022 839.3378 839.3531 839.4907 839.4907
   840.4421 840.4421 840.5273 840.5273 840.6890 840.6890 840.7216 840.7274
   841.1199 841.1460 841.1856 841.1856 841.2144 841.2144 841.2174 841.2387
   842.0673 842.1495 842.1698 842.1698 846.1115 846.1257 846.1417 846.1417
   846.8976 846.8989 846.8991 846.8991 848.3016 848.3016 848.3296 848.3299
   849.6148 849.6205 849.6205 849.6561 850.5181 850.5286 850.5286 850.5396
   850.6066 850.6275 850.6377 850.6377 851.6095 851.7248 851.7248 851.7538
   851.7975 851.7975 851.8868 851.9015 851.9153 851.9525 852.1453 852.1453
   852.1829 852.1829 852.2180 852.2502 852.7487 852.7585 852.7585 852.8341
   852.9945 853.0128 853.0384 853.0384 853.4576 853.4674 853.4687 853.4687
   853.4714 853.4921 853.5030 853.5030 854.4895 854.4931 854.4933 854.4933
   854.7758 854.7862 854.8305 854.8305 857.5361 857.5386 857.5386 857.5394
   857.9493 857.9493 857.9562 857.9572 858.2540 858.2834 858.2892 858.3126
   858.3126 858.3384 858.3384 858.3544 858.3822 858.4465 858.5138 858.5138
   860.1920 860.6550 861.4762 861.4762 861.8342 861.8342 861.8671 861.8678
   862.7474 862.8123 866.6253 866.6732 866.6732 866.7391 866.7433 866.8085
   867.0744 867.0744 867.8057 867.8092 867.8092 867.8543 870.6091 870.6796
   870.7602 870.7602 871.3511 871.3980 871.3980 871.4439 871.5944 871.6446
   871.6515 871.6515 872.0199 872.0323 872.0323 872.0824 872.5250 872.6125
   872.6125 872.6633 872.7643 872.9656 872.9656 872.9932 873.2056 873.2308
   873.2308 873.2447 874.2007 874.2007 874.2619 874.4170 875.6034 875.6034
   876.0425 876.1249 876.6061 876.6267 876.6805 876.6805 878.6579 878.6579
   878.7009 878.7520 878.7603 878.8037 878.8618 878.8618 879.9847 880.0050
   880.0050 880.0092 880.0397 880.1324 880.1324 880.1412 880.2101 880.2101
   880.4493 880.4536 881.4419 881.4419 881.5664 881.5964 881.7665 881.7814
   882.1227 882.1227 883.0618 883.0734 883.0901 883.0906 883.0906 883.0961
   883.0961 883.1097 883.1097 883.1106 883.1231 883.1273 890.4518 890.5744
   890.6617 890.6617 891.4255 891.5054 891.5054 891.5344 891.5892 891.5892
   891.6111 891.7104 891.7224 891.7276 891.7903 891.7903 892.1168 892.2353
   892.2353 892.2379 892.5149 892.6173 892.6173 892.7722 892.8290 892.9258
   892.9258 892.9564 893.5316 893.5813 893.5813 893.6397 893.6397 893.7076
   894.4867 894.5202 894.5202 894.5349 894.5633 894.6668 894.6668 894.6723
   897.0364 897.1898 897.1898 897.3382 898.3543 898.4888 898.4888 898.5986
   899.7725 899.7725 900.3701 900.3749 900.6127 900.7177 900.7529 900.7529
   900.9751 900.9751 901.2968 901.3197 901.3197 901.3232 901.6190 901.6190
   901.6956 901.7922 901.8139 901.8140 901.9494 901.9494 902.1569 902.1641
   902.1673 902.1673 902.7001 902.7001 902.7445 902.7931 906.2396 906.3136
   907.3412 907.3444 907.3481 907.3481 907.5913 907.6221 907.6221 907.7422
   908.1332 908.1528 908.2792 908.2792 908.4622 908.4758 908.4758 908.4851
   910.7428 910.7493 910.7493 910.7896 910.8545 910.8911 910.8911 910.9029
   911.1298 911.1641 911.1641 911.1978 911.5475 911.5760 911.5760 911.5810
   912.8110 912.9442 912.9442 912.9801 913.3519 913.3627 913.3627 913.4070

     the Fermi energy is     8.8219 ev
     (compare with:     8.3396 eV, computed in scf)

     Writing all to output data dir out/mp-22922.save/
 
     init_run     :      0.08s CPU      0.10s WALL (       1 calls)
     electrons    :   8225.66s CPU   8796.73s WALL (       1 calls)

     Called by init_run:
     wfcinit      :      0.00s CPU      0.00s WALL (       1 calls)
     potinit      :      0.02s CPU      0.03s WALL (       1 calls)
     hinit0       :      0.02s CPU      0.03s WALL (       1 calls)

     Called by electrons:
     c_bands      :   8225.65s CPU   8796.72s WALL (       1 calls)
     v_of_rho     :      0.01s CPU      0.01s WALL (       1 calls)

     Called by c_bands:
     init_us_2    :      0.00s CPU      0.00s WALL (       8 calls)
     init_us_2:cp :      0.00s CPU      0.00s WALL (       8 calls)
     paro_k       :   7954.37s CPU   8505.33s WALL (       8 calls)

     Called by paro_*:
     h_psi        :     51.05s CPU     52.51s WALL (    1677 calls)
     g_psi        :      0.86s CPU      0.98s WALL (  177712 calls)

     Called by h_psi:
     h_psi:calbec :      0.90s CPU      0.93s WALL (    1677 calls)
     vloc_psi     :     49.17s CPU     50.53s WALL (    1677 calls)
     add_vuspsi   :      0.68s CPU      0.69s WALL (    1677 calls)

     General routines
     calbec       :      0.89s CPU      0.92s WALL (    1677 calls)
     fft          :      0.01s CPU      0.01s WALL (      10 calls)
     fftw         :     43.39s CPU     44.56s WALL (  290546 calls)
 
     Parallel routines
 
     PWSCF        :      2h17m CPU      2h26m WALL

 
   This run was terminated on:  17:31:32  30Nov2023            

=------------------------------------------------------------------------------=
   JOB DONE.
=------------------------------------------------------------------------------=
