
     Program PWSCF v.7.1 starts on  5Dec2023 at 11: 0:35 

     This program is part of the open-source Quantum ESPRESSO suite
     for quantum simulation of materials; please cite
         "P. Giannozzi et al., J. Phys.:Condens. Matter 21 395502 (2009);
         "P. Giannozzi et al., J. Phys.:Condens. Matter 29 465901 (2017);
         "P. Giannozzi et al., J. Chem. Phys. 152 154105 (2020);
          URL http://www.quantum-espresso.org", 
     in publications or presentations arising from this work. More details at
     http://www.quantum-espresso.org/quote

     Parallel version (MPI), running on    24 processors

     MPI processes distributed on     1 nodes
     123796 MiB available memory on the printing compute node when the environment starts
 
     Reading input from aiida_nscf.in

     Current dimensions of program PWSCF are:
     Max number of different atomic species (ntypx) = 10
     Max number of k-points (npk) =  40000
     Max angular momentum in pseudopotentials (lmaxx) =  4

     Atomic positions and unit cell read from directory:
     ./out/aiida.save/
     Atomic positions from file used, from input discarded
 
     Message from routine setup:
     using ibrav=0 with symmetry is DISCOURAGED, use correct ibrav instead
 
     K-points division:     npool     =       2
     R & G space division:  proc/nbgrp/npool/nimage =      12
     Subspace diagonalization in iterative solution of the eigenvalue problem:
     one sub-group per band group will be used
     scalapack distributed-memory algorithm (size of sub-group:  3*  3 procs)

 
     Parallelization info
     --------------------
     sticks:   dense  smooth     PW     G-vecs:    dense   smooth      PW
     Min          69      69     21                 1305     1305     223
     Max          70      70     22                 1306     1306     226
     Sum         835     835    253                15665    15665    2685
 
     Using Slab Decomposition
 


     bravais-lattice index     =            0
     lattice parameter (alat)  =       4.7753  a.u.
     unit-cell volume          =      77.0007 (a.u.)^3
     number of atoms/cell      =            2
     number of atomic types    =            1
     number of electrons       =         8.00
     number of Kohn-Sham states=          900
     kinetic-energy cutoff     =     132.0000  Ry
     charge density cutoff     =     528.0000  Ry
     Exchange-correlation= PBE
                           (   1   4   3   4   0   0   0)

     celldm(1)=   4.775328  celldm(2)=   0.000000  celldm(3)=   0.000000
     celldm(4)=   0.000000  celldm(5)=   0.000000  celldm(6)=   0.000000

     crystal axes: (cart. coord. in units of alat)
               a(1) = (   1.000000   0.000000   0.000000 )  
               a(2) = (   0.500000   0.866025   0.000000 )  
               a(3) = (   0.500000   0.288675   0.816497 )  

     reciprocal axes: (cart. coord. in units 2 pi/alat)
               b(1) = (  1.000000 -0.577350 -0.408248 )  
               b(2) = (  0.000000  1.154701 -0.408248 )  
               b(3) = (  0.000000  0.000000  1.224745 )  


     PseudoPot. # 1 for C  read from file:
     ./C_ONCV_PBE-1.0.upf
     MD5 check sum: 05179963b63ba073fe640b54f01c66ae
     Pseudo is Norm-conserving, Zval =  4.0
     Generated using ONCVPSP code by D. R. Hamann
     Using radial grid of  602 points,  4 beta functions with: 
                l(1) =   0
                l(2) =   0
                l(3) =   1
                l(4) =   1

     atomic species   valence    mass     pseudopotential
        C              4.00    12.01100     C ( 1.00)

      6 Sym. Ops. (no inversion) found


                                    s                        frac. trans.

      isym =  1     identity                                     

 cryst.   s( 1) = (     1          0          0      )
                  (     0          1          0      )
                  (     0          0          1      )

 cart.    s( 1) = (  1.0000000  0.0000000  0.0000000 )
                  (  0.0000000  1.0000000  0.0000000 )
                  (  0.0000000  0.0000000  1.0000000 )


      isym =  2     120 deg rotation - cryst. axis [0,0,1]       

 cryst.   s( 2) = (    -1          1          0      )
                  (    -1          0          0      )
                  (    -1          0          1      )

 cart.    s( 2) = ( -0.5000000 -0.8660254  0.0000000 )
                  (  0.8660254 -0.5000000  0.0000000 )
                  (  0.0000000  0.0000000  1.0000000 )


      isym =  3     120 deg rotation - cryst. axis [0,0,-1]      

 cryst.   s( 3) = (     0         -1          0      )
                  (     1         -1          0      )
                  (     0         -1          1      )

 cart.    s( 3) = ( -0.5000000  0.8660254 -0.0000000 )
                  ( -0.8660254 -0.5000000  0.0000000 )
                  (  0.0000000  0.0000000  1.0000000 )


      isym =  4     inv. 180 deg rotation - cart. axis [1,0,0]   

 cryst.   s( 4) = (    -1          0          0      )
                  (    -1          1          0      )
                  (    -1          0          1      )

 cart.    s( 4) = ( -1.0000000  0.0000000  0.0000000 )
                  (  0.0000000  1.0000000  0.0000000 )
                  (  0.0000000  0.0000000  1.0000000 )


      isym =  5     inv. 180 deg rotation - cryst. axis [0,1,0]  

 cryst.   s( 5) = (     0          1          0      )
                  (     1          0          0      )
                  (     0          0          1      )

 cart.    s( 5) = (  0.5000000  0.8660254 -0.0000000 )
                  (  0.8660254 -0.5000000  0.0000000 )
                  (  0.0000000  0.0000000  1.0000000 )


      isym =  6     inv. 180 deg rotation - cryst. axis [1,1,0]  

 cryst.   s( 6) = (     1         -1          0      )
                  (     0         -1          0      )
                  (     0         -1          1      )

 cart.    s( 6) = (  0.5000000 -0.8660254  0.0000000 )
                  ( -0.8660254 -0.5000000  0.0000000 )
                  (  0.0000000  0.0000000  1.0000000 )


   Cartesian axes

     site n.     atom                  positions (alat units)
         1           C   tau(   1) = (   1.5000000   0.8660254   0.6123724  )
         2           C   tau(   2) = (   1.0000000   0.5773503   0.4082483  )

   Crystallographic axes

     site n.     atom                  positions (cryst. coord.)
         1           C   tau(   1) = (  0.7500000  0.7500000  0.7500000  )
         2           C   tau(   2) = (  0.5000000  0.5000000  0.5000000  )

     number of k points=    13  Marzari-Vanderbilt smearing, width (Ry)=  0.0200
                       cart. coord. in units 2pi/alat
        k(    1) = (   0.0000000   0.0000000   0.0000000), wk =   0.0312500
        k(    2) = (   0.0000000   0.0000000   0.3061862), wk =   0.0625000
        k(    3) = (   0.0000000   0.0000000  -0.6123724), wk =   0.0312500
        k(    4) = (   0.0000000   0.2886751  -0.1020621), wk =   0.1875000
        k(    5) = (   0.0000000   0.2886751   0.2041241), wk =   0.1875000
        k(    6) = (   0.0000000   0.2886751  -0.7144345), wk =   0.1875000
        k(    7) = (   0.0000000   0.2886751  -0.4082483), wk =   0.1875000
        k(    8) = (   0.0000000  -0.5773503   0.2041241), wk =   0.0937500
        k(    9) = (   0.0000000  -0.5773503   0.5103104), wk =   0.1875000
        k(   10) = (   0.0000000  -0.5773503  -0.4082483), wk =   0.0937500
        k(   11) = (   0.2500000  -0.7216878   0.1020621), wk =   0.3750000
        k(   12) = (   0.2500000  -0.7216878   0.4082483), wk =   0.1875000
        k(   13) = (   0.2500000  -0.7216878  -0.2041241), wk =   0.1875000

                       cryst. coord.
        k(    1) = (   0.0000000   0.0000000   0.0000000), wk =   0.0312500
        k(    2) = (   0.0000000   0.0000000   0.2500000), wk =   0.0625000
        k(    3) = (   0.0000000   0.0000000  -0.5000000), wk =   0.0312500
        k(    4) = (   0.0000000   0.2500000   0.0000000), wk =   0.1875000
        k(    5) = (   0.0000000   0.2500000   0.2500000), wk =   0.1875000
        k(    6) = (   0.0000000   0.2500000  -0.5000000), wk =   0.1875000
        k(    7) = (   0.0000000   0.2500000  -0.2500000), wk =   0.1875000
        k(    8) = (   0.0000000  -0.5000000   0.0000000), wk =   0.0937500
        k(    9) = (   0.0000000  -0.5000000   0.2500000), wk =   0.1875000
        k(   10) = (   0.0000000  -0.5000000  -0.5000000), wk =   0.0937500
        k(   11) = (   0.2500000  -0.5000000  -0.0000000), wk =   0.3750000
        k(   12) = (   0.2500000  -0.5000000   0.2500000), wk =   0.1875000
        k(   13) = (   0.2500000  -0.5000000  -0.2500000), wk =   0.1875000

     Dense  grid:    15665 G-vectors     FFT dimensions: (  36,  36,  36)

     Dynamical RAM for                 wfc:       2.25 MB

     Dynamical RAM for     wfc (w. buffer):       2.25 MB

     Dynamical RAM for           str. fact:       0.02 MB

     Dynamical RAM for           local pot:       0.00 MB

     Dynamical RAM for          nlocal pot:       0.04 MB

     Dynamical RAM for                qrad:       0.53 MB

     Dynamical RAM for          rho,v,vnew:       0.15 MB

     Dynamical RAM for           G-vectors:       0.08 MB

     Dynamical RAM for          h,s,v(r/c):      16.48 MB

     Dynamical RAM for          <psi|beta>:       0.22 MB

     Dynamical RAM for                 psi:       4.50 MB

     Dynamical RAM for                hpsi:       4.50 MB

     Dynamical RAM for      wfcinit/wfcrot:      23.05 MB

     Estimated static dynamical RAM per process >       3.26 MB

     Estimated max dynamical RAM per process >      28.97 MB

     Estimated total dynamical RAM >     695.24 MB

     The potential is recalculated from file :
     ./out/aiida.save/charge-density

     Starting wfcs are random

     Band Structure Calculation
     Davidson diagonalization with overlap

     Computing kpt #:     1  of     7 on this pool
     total cpu time spent up to now is       24.0 secs

     Computing kpt #:     2  of     7 on this pool
     total cpu time spent up to now is       44.2 secs

     Computing kpt #:     3  of     7 on this pool
     total cpu time spent up to now is       69.6 secs

     Computing kpt #:     4  of     7 on this pool
     total cpu time spent up to now is       88.7 secs

     Computing kpt #:     5  of     7 on this pool
     total cpu time spent up to now is      108.7 secs

     Computing kpt #:     6  of     7 on this pool
     total cpu time spent up to now is      134.8 secs

     Computing kpt #:     7  of     7 on this pool
     total cpu time spent up to now is      154.5 secs

     ethr =  5.00E-06,  avg # of iterations =  5.8

     total cpu time spent up to now is      154.5 secs

     End of band structure calculation

          k = 0.0000 0.0000 0.0000 (  1989 PWs)   bands (ev):

    -8.1294  13.2381  13.2381  13.2381  18.8131  18.8131  18.8131  26.4513
    32.4811  39.8261  39.8261  40.7455  40.7455  40.7455  47.9542  60.1571
    60.1571  60.1571  80.4750  80.4750  80.4750  84.8416  84.8416  87.4911
    87.4911  87.4911  91.8383  91.8383  91.8383  99.8501 111.9504 111.9504
   111.9504 117.6041 117.6041 117.6041 117.8741 117.8741 118.0071 118.0071
   122.3244 122.3244 122.3244 123.2770 123.2770 123.2770 124.4863 124.4863
   124.4863 126.1034 132.0807 133.6571 133.6571 133.6571 134.5375 134.5375
   134.5375 141.3059 145.9744 171.2943 171.2943 171.2943 177.7958 177.7958
   180.8389 180.8389 180.8389 185.8431 193.2633 193.2633 193.2633 205.2244
   205.2244 207.1147 207.1147 207.1147 208.2033 208.2033 208.2033 210.0951
   210.0951 210.0951 214.7062 214.7062 214.7062 214.7289 214.7289 220.4402
   222.5564 222.5564 222.5564 222.7704 222.7704 227.5945 228.0256 228.0256
   228.0256 228.3306 228.3306 228.3306 229.2346 229.2346 229.2346 229.7657
   229.7657 229.7657 231.4582 232.0730 232.0730 232.0730 232.2005 232.2005
   249.3748 249.3748 249.3748 252.6830 262.9773 262.9773 262.9773 267.3170
   269.7786 269.7786 271.6993 271.6993 271.6993 273.4397 273.4397 273.4397
   274.0654 274.0654 274.0654 274.8640 274.8640 274.8640 275.6240 275.6240
   290.1697 293.6704 293.6704 293.6704 302.0193 302.0193 302.0193 303.9163
   303.9163 305.0078 305.0078 306.5411 306.7668 306.7668 306.7668 307.5693
   307.5693 307.5693 309.1508 310.8183 310.8183 310.8183 310.8280 310.8280
   310.8280 310.8807 310.8807 310.8807 311.2507 311.2507 311.2507 319.6026
   319.6504 349.6431 349.6431 349.6431 357.7815 357.7815 357.7815 361.4961
   361.4961 361.4961 361.4985 361.4985 361.7196 361.7196 361.7196 371.0845
   385.6866 385.6866 385.6866 391.6290 391.6290 392.2042 392.2042 392.2042
   392.7523 392.7523 392.7523 394.6287 397.1356 397.1356 397.1356 397.3999
   397.3999 398.5733 398.5733 398.5733 399.0782 402.8225 402.8225 402.8225
   402.9658 402.9658 402.9848 402.9848 402.9848 403.8121 403.8121 403.8121
   403.9834 403.9834 404.5000 404.5000 404.5000 405.9761 406.1348 406.1348
   406.1348 406.4436 406.4436 406.4436 406.7875 408.2300 408.2300 408.2300
   411.4191 411.4191 411.4191 412.2410 412.9236 413.2443 413.2443 413.2443
   413.9598 413.9598 416.1659 418.2665 418.2665 418.3305 418.3305 418.3305
   418.5472 418.5472 418.5472 418.7393 418.7393 418.7393 419.0971 419.0971
   419.0971 419.1221 419.1221 443.3243 443.3243 443.3243 452.6934 452.6934
   455.2660 460.8181 460.8181 460.8181 461.2673 461.2673 461.2673 461.5504
   461.5504 461.5504 461.6548 461.6548 461.6548 465.6080 465.6080 465.6448
   465.6448 465.6448 465.7138 473.9628 473.9628 473.9628 479.8728 479.8728
   479.8728 485.3118 486.5386 492.8635 492.8635 492.8635 493.7327 493.7327
   495.0552 495.0552 495.0552 495.1988 495.1988 495.1988 495.3801 495.3801
   495.3801 496.0087 496.0087 503.0785 503.0785 503.0785 506.5594 507.7493
   507.7493 508.4523 508.4523 508.4523 509.2069 509.2069 509.2069 509.8259
   509.8259 509.8259 509.8577 509.8577 509.8577 510.4659 510.9543 510.9543
   510.9543 511.3507 511.3507 543.5830 543.5830 543.5830 553.4965 553.4965
   553.4965 553.8870 553.9935 559.7315 559.7315 559.7315 568.4579 568.4579
   568.4579 577.8062 578.7199 578.7199 578.7361 578.7361 578.7361 578.9339
   578.9339 578.9339 583.7776 584.7967 584.7967 585.6054 585.6054 585.6054
   585.7916 585.7916 586.4318 586.4318 586.4318 586.7815 586.7815 586.7815
   586.8515 587.3959 587.3959 587.3959 587.6389 587.6389 588.0916 592.5767
   592.5767 592.5767 592.6235 592.6235 592.6235 592.7424 592.7424 592.7424
   592.8011 592.8011 592.8011 603.6619 603.6619 603.6619 603.8510 603.8510
   603.8510 603.9284 603.9284 603.9491 603.9491 603.9491 604.0443 605.1604
   605.1604 605.1604 606.1568 606.2493 606.2493 606.2493 606.4452 606.4452
   606.4452 606.4621 606.4621 619.0455 619.0455 619.0455 635.3007 636.3550
   636.3550 636.3550 638.5621 641.5417 641.5417 642.0795 642.0795 642.0795
   642.9915 642.9915 642.9915 643.7339 643.7339 643.7339 644.2154 644.2154
   644.2154 645.2645 645.2645 649.5403 649.5403 650.2122 650.2122 650.2122
   650.4782 650.4782 650.4782 650.7936 650.7936 650.7936 651.4366 651.4366
   651.4366 651.8842 651.8842 652.5289 653.3344 653.3344 653.3344 653.8047
   653.8047 653.8047 654.1412 660.1021 660.1021 660.1021 676.5050 676.7579
   676.7579 676.7579 676.8129 678.1228 678.1228 678.1228 680.2769 680.2769
   680.2769 680.4504 680.4504 681.4734 681.4734 681.5307 681.5307 681.5307
   681.6883 681.6883 681.6883 682.1561 682.1561 682.1561 682.6241 682.8971
   683.0407 683.0407 683.0407 686.6150 686.6150 686.6150 686.6373 686.6373
   686.7081 686.7081 686.7081 686.8241 686.8241 686.8241 687.1347 687.1347
   687.1347 687.1636 687.1636 687.5481 687.5481 687.5481 687.6111 687.6111
   687.6111 687.6262 687.8349 688.4220 688.4220 688.4220 688.4251 688.4251
   688.4251 688.4671 688.4671 688.4929 688.4929 688.4929 688.7712 688.7712
   688.7839 688.7839 688.7839 739.2047 739.2047 739.2047 742.3012 742.3012
   742.3529 747.5963 747.5963 747.5963 767.3823 767.3823 767.3823 771.1888
   771.3953 773.4205 773.4205 773.6236 773.6236 773.6236 774.0339 774.0339
   774.0339 774.6550 774.6550 774.6550 774.6624 774.6624 774.6624 775.0333
   775.0333 781.8809 781.8809 781.8809 782.4457 783.1998 783.1998 783.1998
   783.2869 783.2869 785.6563 785.6563 785.6563 786.6787 787.1768 791.0150
   791.0150 791.0150 791.1632 791.1632 791.1632 791.1971 791.1971 791.1971
   791.2089 791.2089 791.2089 794.3471 794.3471 794.3471 794.5057 794.5057
   794.5057 794.5063 794.5063 794.5238 794.5238 794.5238 794.5523 794.5523
   794.5523 794.5574 794.5574 795.0960 795.0960 795.1040 795.1040 795.1040
   795.1211 811.8990 811.8990 811.8990 830.7499 830.7499 830.7687 830.7687
   830.7687 830.8686 830.9569 830.9569 830.9569 834.3445 834.3445 834.3594
   834.3594 834.3594 835.5238 836.8960 836.8960 836.8960 837.1807 837.1807
   837.1807 837.2412 837.2412 837.2412 837.5263 837.5263 837.5263 839.1312
   839.1709 839.1709 839.1709 839.1957 839.1957 844.2810 844.2810 844.2810
   860.7764 860.7764 860.7764 860.8610 860.8610 860.8610 860.8795 860.8795
   861.7099 865.5616 865.5616 865.5616 868.9760 869.1501 869.1501 869.1501
   869.4323 869.4323 869.4323 869.4378 869.4378 869.8627 869.8627 869.8627
   871.2110 871.2110 871.2110 871.4485 871.6908 873.8055 873.8055 873.8055
   873.8878 873.8878 873.8896 873.8896 873.8896 873.9391 873.9391 873.9391
   874.0023 874.7002 874.7002 874.7002 874.8363 874.8363 874.9286 874.9286
   874.9286 875.0473 875.0473 875.0473 875.1555 885.8002 885.8002 885.8002
   886.5941 886.5941 886.5941 886.8115 886.8115 886.8115 886.8117 886.8117
   886.8534 887.5484 887.5484 887.5484 888.2211 888.2211 888.2211 888.2408
   888.2408 888.2442 888.2442 888.2442 888.2637 921.1062 921.1062 921.1062
   930.7462 930.7462 931.1830 931.2789 931.2789 931.2789 931.3396 931.3396
   931.3396 931.4160 931.4160 931.4160 931.4935 931.4935 931.4935 931.9147
   931.9147 931.9720 931.9720 931.9720 932.0545 937.2369 937.2369 937.2369
   947.8587 947.8587 947.8587 953.8082 954.9286 957.1365 957.1365 957.1365
   957.1573 957.1573 958.6832 958.6832 958.6832 958.8572 958.8572 958.8572
   959.2146 959.2146 959.2146 959.7364 959.7364 962.2733 962.2733 962.2733
   962.2905 962.4001 962.4001 962.4001 962.9412 962.9412 963.0860 963.1043
   963.1043 966.9190 966.9190 966.9190 966.9382 966.9382 966.9382 967.1327
   967.1327 967.1327 967.2285 967.2285 967.5367 967.5367 967.5367 967.6883
   967.6883 969.3850 969.3850 969.3850 969.4760 969.4760 969.4760 969.6152
   969.6152 969.6152 969.7619 969.7619 969.7619 969.8723 970.1483 970.1483
   970.1483 970.3158 970.3158 970.3158 970.4364 974.5828 974.5828 974.5828
   976.5777 976.5777 976.5777 977.0260 977.9332 977.9332 978.2576 978.2576
   978.2576 978.3031 978.3031 978.3031 978.4127 978.5191 978.5191 978.5191
   978.8469 978.8469 978.8469 979.3716 979.3716 981.9435 981.9435 982.0628
   982.0628 982.0628 982.3259 982.8677 982.8677 982.8677 982.9527 982.9527
   982.9527 983.0652 983.0652 983.0652 983.1992 983.1992 983.1992 983.5959
   983.5959 983.7189 983.7189 983.7189 983.85141013.21381013.21381013.2138
  1018.53681018.53681018.53681018.80671019.28011028.66251028.66251028.6625
  1028.79211028.79211028.79211028.79851028.79851028.79851028.79961028.7996
  1028.81021028.81021028.81201028.81201028.81201050.91721050.91721050.9172
  1052.23281052.23291052.23291056.8575

     occupation numbers 
     1.0000   1.0000   1.0000   1.0000   0.0000   0.0000   0.0000   0.0000
     0.0000   0.0000   0.0000   0.0000   0.0000   0.0000   0.0000   0.0000
     0.0000   0.0000   0.0000   0.0000   0.0000   0.0000   0.0000   0.0000
     0.0000   0.0000   0.0000   0.0000   0.0000   0.0000   0.0000   0.0000
     0.0000   0.0000   0.0000   0.0000   0.0000   0.0000   0.0000   0.0000
     0.0000   0.0000   0.0000   0.0000   0.0000   0.0000   0.0000   0.0000
     0.0000   0.0000   0.0000   0.0000   0.0000   0.0000   0.0000   0.0000
     0.0000   0.0000   0.0000   0.0000   0.0000   0.0000   0.0000   0.0000
     0.0000   0.0000   0.0000   0.0000   0.0000   0.0000   0.0000   0.0000
     0.0000   0.0000   0.0000   0.0000   0.0000   0.0000   0.0000   0.0000
     0.0000   0.0000   0.0000   0.0000   0.0000   0.0000   0.0000   0.0000
     0.0000   0.0000   0.0000   0.0000   0.0000   0.0000   0.0000   0.0000
     0.0000   0.0000   0.0000   0.0000   0.0000   0.0000   0.0000   0.0000
     0.0000   0.0000   0.0000   0.0000   0.0000   0.0000   0.0000   0.0000
     0.0000   0.0000   0.0000   0.0000   0.0000   0.0000   0.0000   0.0000
     0.0000   0.0000   0.0000   0.0000   0.0000   0.0000   0.0000   0.0000
     0.0000   0.0000   0.0000   0.0000   0.0000   0.0000   0.0000   0.0000
     0.0000   0.0000   0.0000   0.0000   0.0000   0.0000   0.0000   0.0000
     0.0000   0.0000   0.0000   0.0000   0.0000   0.0000   0.0000   0.0000
     0.0000   0.0000   0.0000   0.0000   0.0000   0.0000   0.0000   0.0000
     0.0000   0.0000   0.0000   0.0000   0.0000   0.0000   0.0000   0.0000
     0.0000   0.0000   0.0000   0.0000   0.0000   0.0000   0.0000   0.0000
     0.0000   0.0000   0.0000   0.0000   0.0000   0.0000   0.0000   0.0000
     0.0000   0.0000   0.0000   0.0000   0.0000   0.0000   0.0000   0.0000
     0.0000   0.0000   0.0000   0.0000   0.0000   0.0000   0.0000   0.0000
     0.0000   0.0000   0.0000   0.0000   0.0000   0.0000   0.0000   0.0000
     0.0000   0.0000   0.0000   0.0000   0.0000   0.0000   0.0000   0.0000
     0.0000   0.0000   0.0000   0.0000   0.0000   0.0000   0.0000   0.0000
     0.0000   0.0000   0.0000   0.0000   0.0000   0.0000   0.0000   0.0000
     0.0000   0.0000   0.0000   0.0000   0.0000   0.0000   0.0000   0.0000
     0.0000   0.0000   0.0000   0.0000   0.0000   0.0000   0.0000   0.0000
     0.0000   0.0000   0.0000   0.0000   0.0000   0.0000   0.0000   0.0000
     0.0000   0.0000   0.0000   0.0000   0.0000   0.0000   0.0000   0.0000
     0.0000   0.0000   0.0000   0.0000   0.0000   0.0000   0.0000   0.0000
     0.0000   0.0000   0.0000   0.0000   0.0000   0.0000   0.0000   0.0000
     0.0000   0.0000   0.0000   0.0000   0.0000   0.0000   0.0000   0.0000
     0.0000   0.0000   0.0000   0.0000   0.0000   0.0000   0.0000   0.0000
     0.0000   0.0000   0.0000   0.0000   0.0000   0.0000   0.0000   0.0000
     0.0000   0.0000   0.0000   0.0000   0.0000   0.0000   0.0000   0.0000
     0.0000   0.0000   0.0000   0.0000   0.0000   0.0000   0.0000   0.0000
     0.0000   0.0000   0.0000   0.0000   0.0000   0.0000   0.0000   0.0000
     0.0000   0.0000   0.0000   0.0000   0.0000   0.0000   0.0000   0.0000
     0.0000   0.0000   0.0000   0.0000   0.0000   0.0000   0.0000   0.0000
     0.0000   0.0000   0.0000   0.0000   0.0000   0.0000   0.0000   0.0000
     0.0000   0.0000   0.0000   0.0000   0.0000   0.0000   0.0000   0.0000
     0.0000   0.0000   0.0000   0.0000   0.0000   0.0000   0.0000   0.0000
     0.0000   0.0000   0.0000   0.0000   0.0000   0.0000   0.0000   0.0000
     0.0000   0.0000   0.0000   0.0000   0.0000   0.0000   0.0000   0.0000
     0.0000   0.0000   0.0000   0.0000   0.0000   0.0000   0.0000   0.0000
     0.0000   0.0000   0.0000   0.0000   0.0000   0.0000   0.0000   0.0000
     0.0000   0.0000   0.0000   0.0000   0.0000   0.0000   0.0000   0.0000
     0.0000   0.0000   0.0000   0.0000   0.0000   0.0000   0.0000   0.0000
     0.0000   0.0000   0.0000   0.0000   0.0000   0.0000   0.0000   0.0000
     0.0000   0.0000   0.0000   0.0000   0.0000   0.0000   0.0000   0.0000
     0.0000   0.0000   0.0000   0.0000   0.0000   0.0000   0.0000   0.0000
     0.0000   0.0000   0.0000   0.0000   0.0000   0.0000   0.0000   0.0000
     0.0000   0.0000   0.0000   0.0000   0.0000   0.0000   0.0000   0.0000
     0.0000   0.0000   0.0000   0.0000   0.0000   0.0000   0.0000   0.0000
     0.0000   0.0000   0.0000   0.0000   0.0000   0.0000   0.0000   0.0000
     0.0000   0.0000   0.0000   0.0000   0.0000   0.0000   0.0000   0.0000
     0.0000   0.0000   0.0000   0.0000   0.0000   0.0000   0.0000   0.0000
     0.0000   0.0000   0.0000   0.0000   0.0000   0.0000   0.0000   0.0000
     0.0000   0.0000   0.0000   0.0000   0.0000   0.0000   0.0000   0.0000
     0.0000   0.0000   0.0000   0.0000   0.0000   0.0000   0.0000   0.0000
     0.0000   0.0000   0.0000   0.0000   0.0000   0.0000   0.0000   0.0000
     0.0000   0.0000   0.0000   0.0000   0.0000   0.0000   0.0000   0.0000
     0.0000   0.0000   0.0000   0.0000   0.0000   0.0000   0.0000   0.0000
     0.0000   0.0000   0.0000   0.0000   0.0000   0.0000   0.0000   0.0000
     0.0000   0.0000   0.0000   0.0000   0.0000   0.0000   0.0000   0.0000
     0.0000   0.0000   0.0000   0.0000   0.0000   0.0000   0.0000   0.0000
     0.0000   0.0000   0.0000   0.0000   0.0000   0.0000   0.0000   0.0000
     0.0000   0.0000   0.0000   0.0000   0.0000   0.0000   0.0000   0.0000
     0.0000   0.0000   0.0000   0.0000   0.0000   0.0000   0.0000   0.0000
     0.0000   0.0000   0.0000   0.0000   0.0000   0.0000   0.0000   0.0000
     0.0000   0.0000   0.0000   0.0000   0.0000   0.0000   0.0000   0.0000
     0.0000   0.0000   0.0000   0.0000   0.0000   0.0000   0.0000   0.0000
     0.0000   0.0000   0.0000   0.0000   0.0000   0.0000   0.0000   0.0000
     0.0000   0.0000   0.0000   0.0000   0.0000   0.0000   0.0000   0.0000
     0.0000   0.0000   0.0000   0.0000   0.0000   0.0000   0.0000   0.0000
     0.0000   0.0000   0.0000   0.0000   0.0000   0.0000   0.0000   0.0000
     0.0000   0.0000   0.0000   0.0000   0.0000   0.0000   0.0000   0.0000
     0.0000   0.0000   0.0000   0.0000   0.0000   0.0000   0.0000   0.0000
     0.0000   0.0000   0.0000   0.0000   0.0000   0.0000   0.0000   0.0000
     0.0000   0.0000   0.0000   0.0000   0.0000   0.0000   0.0000   0.0000
     0.0000   0.0000   0.0000   0.0000   0.0000   0.0000   0.0000   0.0000
     0.0000   0.0000   0.0000   0.0000   0.0000   0.0000   0.0000   0.0000
     0.0000   0.0000   0.0000   0.0000   0.0000   0.0000   0.0000   0.0000
     0.0000   0.0000   0.0000   0.0000   0.0000   0.0000   0.0000   0.0000
     0.0000   0.0000   0.0000   0.0000   0.0000   0.0000   0.0000   0.0000
     0.0000   0.0000   0.0000   0.0000   0.0000   0.0000   0.0000   0.0000
     0.0000   0.0000   0.0000   0.0000   0.0000   0.0000   0.0000   0.0000
     0.0000   0.0000   0.0000   0.0000   0.0000   0.0000   0.0000   0.0000
     0.0000   0.0000   0.0000   0.0000   0.0000   0.0000   0.0000   0.0000
     0.0000   0.0000   0.0000   0.0000   0.0000   0.0000   0.0000   0.0000
     0.0000   0.0000   0.0000   0.0000   0.0000   0.0000   0.0000   0.0000
     0.0000   0.0000   0.0000   0.0000   0.0000   0.0000   0.0000   0.0000
     0.0000   0.0000   0.0000   0.0000   0.0000   0.0000   0.0000   0.0000
     0.0000   0.0000   0.0000   0.0000   0.0000   0.0000   0.0000   0.0000
     0.0000   0.0000   0.0000   0.0000   0.0000   0.0000   0.0000   0.0000
     0.0000   0.0000   0.0000   0.0000   0.0000   0.0000   0.0000   0.0000
     0.0000   0.0000   0.0000   0.0000   0.0000   0.0000   0.0000   0.0000
     0.0000   0.0000   0.0000   0.0000   0.0000   0.0000   0.0000   0.0000
     0.0000   0.0000   0.0000   0.0000   0.0000   0.0000   0.0000   0.0000
     0.0000   0.0000   0.0000   0.0000   0.0000   0.0000   0.0000   0.0000
     0.0000   0.0000   0.0000   0.0000   0.0000   0.0000   0.0000   0.0000
     0.0000   0.0000   0.0000   0.0000   0.0000   0.0000   0.0000   0.0000
     0.0000   0.0000   0.0000   0.0000   0.0000   0.0000   0.0000   0.0000
     0.0000   0.0000   0.0000   0.0000   0.0000   0.0000   0.0000   0.0000
     0.0000   0.0000   0.0000   0.0000   0.0000   0.0000   0.0000   0.0000
     0.0000   0.0000   0.0000   0.0000   0.0000   0.0000   0.0000   0.0000
     0.0000   0.0000   0.0000   0.0000   0.0000   0.0000   0.0000   0.0000
     0.0000   0.0000   0.0000   0.0000   0.0000   0.0000   0.0000   0.0000
     0.0000   0.0000   0.0000   0.0000

          k = 0.0000 0.0000 0.3062 (  1973 PWs)   bands (ev):

    -6.4230   6.6865  11.5023  11.5023  20.9989  20.9989  21.3479  27.7663
    33.8781  35.6633  35.6633  38.6247  52.1551  52.1551  55.6829  55.6829
    56.6061  57.6732  72.1591  72.1591  81.7658  82.7150  82.7150  87.8199
    87.8199  89.4491  90.0624  94.5490  95.7414  95.7414 104.4102 105.2126
   105.2126 108.1175 108.1175 108.7849 111.2538 111.2538 113.5509 119.4541
   119.4541 120.7040 122.3044 128.9297 128.9297 131.1272 131.1272 132.1841
   138.6693 139.4157 139.4157 140.9542 143.6232 148.1382 148.1382 148.9058
   152.8666 152.8666 155.0399 155.0399 162.4013 166.9133 166.9133 168.7298
   169.8439 175.3832 175.3832 183.7514 186.8545 186.8545 193.9134 193.9134
   194.7022 195.1257 195.1257 196.1736 198.9047 198.9047 203.7371 204.2139
   204.2139 206.6859 207.7451 207.7451 210.7988 214.3831 215.6939 215.6939
   217.4592 218.6795 220.5190 220.5190 224.8169 224.8169 225.7713 227.9166
   227.9166 229.0825 234.4277 234.4277 237.0125 239.8319 239.8955 239.8955
   240.0783 240.0783 243.3554 243.3822 243.3822 244.9434 250.7875 250.7875
   252.2975 252.2975 252.5132 258.2586 260.1568 263.2564 263.2564 263.8489
   265.3699 265.3699 267.3491 267.8518 267.8518 269.0752 269.3306 269.3306
   271.3610 271.3610 273.3911 276.5466 276.5466 281.4767 282.0861 283.0958
   283.0958 283.7996 290.0430 290.0430 291.0374 291.0374 293.4588 293.4588
   293.4916 295.6010 298.5172 298.5172 299.4720 300.9800 306.6195 315.1539
   315.1539 317.7660 320.9367 320.9367 322.2893 322.2893 323.8145 327.3035
   327.3035 328.0295 332.5752 332.5752 335.0721 340.2407 340.2591 340.2591
   342.0062 342.0062 342.2788 348.9923 348.9923 350.8923 350.8923 350.9872
   352.9270 352.9270 355.2597 355.4963 357.0765 357.0765 358.2568 361.4917
   361.4917 362.0142 363.1023 363.1080 363.1080 363.9559 363.9559 365.1109
   369.1397 369.1397 369.4020 379.3547 379.3547 379.5584 380.9924 383.7901
   383.7901 384.6669 384.7404 384.7404 386.1721 388.5581 388.5581 393.5872
   396.0312 396.0312 397.4329 399.1189 400.3235 400.3235 400.7641 405.1959
   405.1959 405.6018 405.6018 405.6123 408.5971 409.1820 409.1820 411.2488
   411.2488 412.5896 412.8915 412.8915 414.4146 415.0749 415.1374 415.1374
   417.7286 417.7286 418.4568 418.4568 418.4851 418.7523 420.7894 426.1878
   426.1878 428.2449 429.2505 432.6616 432.6616 432.8683 433.1711 433.1711
   435.0300 435.0300 436.4240 436.4240 437.1523 442.4155 442.4155 442.6314
   443.4862 445.6661 445.6661 447.2838 448.1240 448.1240 449.4194 450.8249
   450.8249 451.4709 452.5244 452.5244 454.9597 455.4931 455.4931 455.6796
   455.6796 459.0435 459.0435 459.1549 461.4246 465.6409 465.6409 466.3393
   469.0329 472.6433 472.6433 475.2442 477.9160 477.9160 478.2002 478.2002
   478.4339 479.1960 479.3262 479.3262 484.7443 487.5706 487.5706 488.9707
   488.9707 489.0641 490.6321 490.8804 490.8804 492.7650 502.0220 502.8581
   502.8581 505.4376 507.0040 507.0040 511.0502 512.6090 512.6090 513.1030
   514.6677 514.6677 520.1495 520.3612 520.3612 521.2866 521.5337 521.5337
   522.9712 525.7324 525.7324 527.4992 527.4992 527.5952 532.9118 532.9489
   532.9489 536.7514 536.7514 538.0393 541.8538 541.8538 541.9638 543.9540
   543.9540 544.2075 546.1345 546.1345 546.4219 546.9685 547.8412 547.8412
   548.4126 550.3286 550.3286 550.7825 553.9256 553.9258 553.9258 557.8641
   557.8641 560.4956 560.4956 561.6900 562.8556 568.7985 569.3227 569.3227
   570.5562 570.5562 572.9278 572.9278 576.0378 576.0378 577.3125 577.3720
   577.3738 577.3738 578.9338 582.3194 582.3194 583.1046 583.1046 584.9183
   588.6856 589.0873 589.0873 589.2292 593.7191 595.4493 595.4493 598.0775
   599.9330 599.9330 600.3355 600.3355 600.4327 600.8656 604.1938 604.1938
   604.4627 611.7513 611.7513 612.9306 613.6421 613.6421 615.6351 615.6351
   615.9834 617.5567 617.5890 617.5890 619.0077 619.0077 619.5839 622.3139
   622.3139 622.4337 624.4161 624.8754 624.8754 625.0427 625.4712 625.4712
   625.7467 625.7974 627.2608 627.2608 631.0538 631.1826 631.1826 633.1655
   633.6483 633.6483 634.0317 635.1488 635.1488 635.7198 635.7198 636.1382
   639.2985 639.2985 642.4247 642.4247 642.7633 643.2972 644.2396 644.7415
   644.7415 645.8665 645.8665 645.8939 646.1824 648.9723 648.9723 651.9037
   651.9242 651.9242 652.6945 652.6945 652.8305 655.6059 655.6059 657.3873
   658.1180 658.1180 658.1900 663.4610 663.4610 664.8811 664.8811 664.9130
   665.2798 667.0173 667.4453 667.4453 667.8516 667.9933 667.9933 668.9380
   668.9380 670.3310 671.9089 671.9514 671.9514 672.7132 672.7132 672.7321
   672.8708 672.8708 673.0083 685.8646 688.2485 689.8552 689.8552 695.0421
   695.0421 696.1253 696.5767 696.5767 699.6231 699.6231 699.8564 700.0117
   700.0117 700.0120 700.7240 700.7445 700.7445 703.4876 707.0999 707.1693
   707.1693 707.3539 707.3539 707.6175 709.1598 711.8887 711.8887 714.1378
   715.1674 715.1674 715.7596 715.7596 715.9057 715.9057 715.9959 722.1500
   722.7454 722.7454 723.4657 723.4657 726.0628 728.6447 728.6447 728.6952
   731.9907 731.9907 734.3037 734.4959 735.7067 735.7067 737.6818 737.6818
   738.0557 738.6030 739.4444 739.4444 740.2291 740.2291 740.2659 742.7510
   745.8948 745.8948 750.0451 750.0451 752.5255 753.6132 753.6132 753.6744
   754.4437 754.4437 754.5305 754.6538 758.4967 760.1374 760.1374 760.1842
   760.2942 760.2942 760.9647 761.0366 761.0366 766.3998 766.3998 767.6143
   767.6143 768.3895 769.8850 769.8850 772.0193 773.4002 773.4002 775.6922
   778.8363 785.0020 785.0020 785.5275 786.9124 786.9124 788.7867 790.0164
   790.1597 790.1597 791.7215 791.7215 791.8557 791.9920 791.9999 791.9999
   797.7263 797.7263 800.1263 800.1263 800.3246 801.2668 803.1507 804.0579
   804.0579 808.4560 808.6083 808.6083 809.8222 809.8222 811.7928 811.7928
   811.9252 812.0715 814.3310 814.3310 815.7064 816.5435 816.5435 817.1471
   821.8689 821.8689 822.4458 824.4814 824.4814 827.9047 828.6433 828.6433
   828.9351 829.8750 829.8750 830.4886 830.6962 830.6962 832.4628 832.5986
   832.5986 833.2158 833.2158 833.2500 833.2641 840.3280 841.6019 841.6019
   844.0311 845.8364 845.8364 849.3286 849.3286 850.5328 853.6854 853.7136
   853.7136 854.0404 854.3015 854.3015 854.3345 854.8244 854.8244 856.0920
   858.9415 858.9415 862.2420 862.3789 862.3789 863.2000 863.2000 863.3857
   863.6760 863.6760 865.1237 866.3842 866.4080 866.4080 866.4368 867.9965
   871.6910 871.6910 872.6809 872.9285 872.9285 872.9975 873.9650 873.9650
   878.5648 878.5648 880.5452 880.5452 881.8554 881.8554 881.9526 883.8340
   883.8340 883.8377 883.8383 884.6480 884.9052 884.9052 885.8556 885.8556
   885.9485 887.4617 887.4617 888.5531 889.4565 889.4565 889.5183 891.0296
   894.8586 894.8586 896.6690 896.6690 897.6180 900.1297 900.7432 900.7432
   901.7350 901.7350 901.7737 902.1777 902.2039 902.2039 903.1297 903.1297
   903.1828 904.2087 904.2087 904.6785 904.8929 904.8929 905.3309 908.3910
   908.3910 909.5213 909.7836 909.7836 910.0366 910.3538 910.4515 910.4515
   911.4584 911.4584 912.5625 912.5729 913.9390 913.9390 918.7464 918.7464
   919.1144 922.3018 922.8654 922.8654 924.7247 925.4666 925.4666 925.7349
   926.5755 926.8042 926.8042 927.8283 928.2324 928.2324 933.0278 933.0278
   935.1290 935.5872 935.5872 935.6401 936.8604 936.8604 941.3187 941.3187
   941.3654 942.6649 944.1874 944.1874 946.7029 946.7029 948.0121 948.3567
   948.3567 948.5728 949.7940 949.9608 949.9608 952.4237 952.4237 952.9302
   952.9302 953.2700 955.0436 955.2373 955.2373 957.1925 957.2087 957.2087
   958.2454 958.8441 958.8441 959.2640 959.6733 965.2143 965.2143 965.2336
   968.8050 968.8050 968.8894 970.7523 971.0408 971.0408 972.9714 972.9714
   974.8707 977.9042 977.9042 978.2117 979.7211 979.7211 979.7372 980.5332
   982.1223 982.1223 985.9785 985.9785 988.4564 989.5480 989.5480 989.6133
   991.2531 992.0700 992.0700 994.7997 994.9651 994.9651 996.0273 996.0273
   996.1963 996.3066 996.6104 996.6104 997.8067 997.8067 997.85201000.7859
  1000.82251000.82251002.38381003.26831003.26831004.41901004.41901004.5993
  1007.49631007.49631007.54571008.05561008.15261008.15261012.69951013.2916
  1013.29161015.78661015.78661016.22551016.83511016.83511016.84631018.4772
  1018.73261018.73261020.82481021.16451021.16451021.89051022.28101022.2810
  1022.31051023.14591023.22581023.22581025.05081025.05091025.15931025.1593
  1025.16411027.96381027.96381029.15801031.27831032.89821032.89821036.6979
  1036.69791036.74931037.88111039.96991039.96991041.26061041.26941041.2694
  1041.94921045.35081045.35081046.9249

     occupation numbers 
     1.0000   1.0000   1.0000   1.0000   0.0000   0.0000   0.0000   0.0000
     0.0000   0.0000   0.0000   0.0000   0.0000   0.0000   0.0000   0.0000
     0.0000   0.0000   0.0000   0.0000   0.0000   0.0000   0.0000   0.0000
     0.0000   0.0000   0.0000   0.0000   0.0000   0.0000   0.0000   0.0000
     0.0000   0.0000   0.0000   0.0000   0.0000   0.0000   0.0000   0.0000
     0.0000   0.0000   0.0000   0.0000   0.0000   0.0000   0.0000   0.0000
     0.0000   0.0000   0.0000   0.0000   0.0000   0.0000   0.0000   0.0000
     0.0000   0.0000   0.0000   0.0000   0.0000   0.0000   0.0000   0.0000
     0.0000   0.0000   0.0000   0.0000   0.0000   0.0000   0.0000   0.0000
     0.0000   0.0000   0.0000   0.0000   0.0000   0.0000   0.0000   0.0000
     0.0000   0.0000   0.0000   0.0000   0.0000   0.0000   0.0000   0.0000
     0.0000   0.0000   0.0000   0.0000   0.0000   0.0000   0.0000   0.0000
     0.0000   0.0000   0.0000   0.0000   0.0000   0.0000   0.0000   0.0000
     0.0000   0.0000   0.0000   0.0000   0.0000   0.0000   0.0000   0.0000
     0.0000   0.0000   0.0000   0.0000   0.0000   0.0000   0.0000   0.0000
     0.0000   0.0000   0.0000   0.0000   0.0000   0.0000   0.0000   0.0000
     0.0000   0.0000   0.0000   0.0000   0.0000   0.0000   0.0000   0.0000
     0.0000   0.0000   0.0000   0.0000   0.0000   0.0000   0.0000   0.0000
     0.0000   0.0000   0.0000   0.0000   0.0000   0.0000   0.0000   0.0000
     0.0000   0.0000   0.0000   0.0000   0.0000   0.0000   0.0000   0.0000
     0.0000   0.0000   0.0000   0.0000   0.0000   0.0000   0.0000   0.0000
     0.0000   0.0000   0.0000   0.0000   0.0000   0.0000   0.0000   0.0000
     0.0000   0.0000   0.0000   0.0000   0.0000   0.0000   0.0000   0.0000
     0.0000   0.0000   0.0000   0.0000   0.0000   0.0000   0.0000   0.0000
     0.0000   0.0000   0.0000   0.0000   0.0000   0.0000   0.0000   0.0000
     0.0000   0.0000   0.0000   0.0000   0.0000   0.0000   0.0000   0.0000
     0.0000   0.0000   0.0000   0.0000   0.0000   0.0000   0.0000   0.0000
     0.0000   0.0000   0.0000   0.0000   0.0000   0.0000   0.0000   0.0000
     0.0000   0.0000   0.0000   0.0000   0.0000   0.0000   0.0000   0.0000
     0.0000   0.0000   0.0000   0.0000   0.0000   0.0000   0.0000   0.0000
     0.0000   0.0000   0.0000   0.0000   0.0000   0.0000   0.0000   0.0000
     0.0000   0.0000   0.0000   0.0000   0.0000   0.0000   0.0000   0.0000
     0.0000   0.0000   0.0000   0.0000   0.0000   0.0000   0.0000   0.0000
     0.0000   0.0000   0.0000   0.0000   0.0000   0.0000   0.0000   0.0000
     0.0000   0.0000   0.0000   0.0000   0.0000   0.0000   0.0000   0.0000
     0.0000   0.0000   0.0000   0.0000   0.0000   0.0000   0.0000   0.0000
     0.0000   0.0000   0.0000   0.0000   0.0000   0.0000   0.0000   0.0000
     0.0000   0.0000   0.0000   0.0000   0.0000   0.0000   0.0000   0.0000
     0.0000   0.0000   0.0000   0.0000   0.0000   0.0000   0.0000   0.0000
     0.0000   0.0000   0.0000   0.0000   0.0000   0.0000   0.0000   0.0000
     0.0000   0.0000   0.0000   0.0000   0.0000   0.0000   0.0000   0.0000
     0.0000   0.0000   0.0000   0.0000   0.0000   0.0000   0.0000   0.0000
     0.0000   0.0000   0.0000   0.0000   0.0000   0.0000   0.0000   0.0000
     0.0000   0.0000   0.0000   0.0000   0.0000   0.0000   0.0000   0.0000
     0.0000   0.0000   0.0000   0.0000   0.0000   0.0000   0.0000   0.0000
     0.0000   0.0000   0.0000   0.0000   0.0000   0.0000   0.0000   0.0000
     0.0000   0.0000   0.0000   0.0000   0.0000   0.0000   0.0000   0.0000
     0.0000   0.0000   0.0000   0.0000   0.0000   0.0000   0.0000   0.0000
     0.0000   0.0000   0.0000   0.0000   0.0000   0.0000   0.0000   0.0000
     0.0000   0.0000   0.0000   0.0000   0.0000   0.0000   0.0000   0.0000
     0.0000   0.0000   0.0000   0.0000   0.0000   0.0000   0.0000   0.0000
     0.0000   0.0000   0.0000   0.0000   0.0000   0.0000   0.0000   0.0000
     0.0000   0.0000   0.0000   0.0000   0.0000   0.0000   0.0000   0.0000
     0.0000   0.0000   0.0000   0.0000   0.0000   0.0000   0.0000   0.0000
     0.0000   0.0000   0.0000   0.0000   0.0000   0.0000   0.0000   0.0000
     0.0000   0.0000   0.0000   0.0000   0.0000   0.0000   0.0000   0.0000
     0.0000   0.0000   0.0000   0.0000   0.0000   0.0000   0.0000   0.0000
     0.0000   0.0000   0.0000   0.0000   0.0000   0.0000   0.0000   0.0000
     0.0000   0.0000   0.0000   0.0000   0.0000   0.0000   0.0000   0.0000
     0.0000   0.0000   0.0000   0.0000   0.0000   0.0000   0.0000   0.0000
     0.0000   0.0000   0.0000   0.0000   0.0000   0.0000   0.0000   0.0000
     0.0000   0.0000   0.0000   0.0000   0.0000   0.0000   0.0000   0.0000
     0.0000   0.0000   0.0000   0.0000   0.0000   0.0000   0.0000   0.0000
     0.0000   0.0000   0.0000   0.0000   0.0000   0.0000   0.0000   0.0000
     0.0000   0.0000   0.0000   0.0000   0.0000   0.0000   0.0000   0.0000
     0.0000   0.0000   0.0000   0.0000   0.0000   0.0000   0.0000   0.0000
     0.0000   0.0000   0.0000   0.0000   0.0000   0.0000   0.0000   0.0000
     0.0000   0.0000   0.0000   0.0000   0.0000   0.0000   0.0000   0.0000
     0.0000   0.0000   0.0000   0.0000   0.0000   0.0000   0.0000   0.0000
     0.0000   0.0000   0.0000   0.0000   0.0000   0.0000   0.0000   0.0000
     0.0000   0.0000   0.0000   0.0000   0.0000   0.0000   0.0000   0.0000
     0.0000   0.0000   0.0000   0.0000   0.0000   0.0000   0.0000   0.0000
     0.0000   0.0000   0.0000   0.0000   0.0000   0.0000   0.0000   0.0000
     0.0000   0.0000   0.0000   0.0000   0.0000   0.0000   0.0000   0.0000
     0.0000   0.0000   0.0000   0.0000   0.0000   0.0000   0.0000   0.0000
     0.0000   0.0000   0.0000   0.0000   0.0000   0.0000   0.0000   0.0000
     0.0000   0.0000   0.0000   0.0000   0.0000   0.0000   0.0000   0.0000
     0.0000   0.0000   0.0000   0.0000   0.0000   0.0000   0.0000   0.0000
     0.0000   0.0000   0.0000   0.0000   0.0000   0.0000   0.0000   0.0000
     0.0000   0.0000   0.0000   0.0000   0.0000   0.0000   0.0000   0.0000
     0.0000   0.0000   0.0000   0.0000   0.0000   0.0000   0.0000   0.0000
     0.0000   0.0000   0.0000   0.0000   0.0000   0.0000   0.0000   0.0000
     0.0000   0.0000   0.0000   0.0000   0.0000   0.0000   0.0000   0.0000
     0.0000   0.0000   0.0000   0.0000   0.0000   0.0000   0.0000   0.0000
     0.0000   0.0000   0.0000   0.0000   0.0000   0.0000   0.0000   0.0000
     0.0000   0.0000   0.0000   0.0000   0.0000   0.0000   0.0000   0.0000
     0.0000   0.0000   0.0000   0.0000   0.0000   0.0000   0.0000   0.0000
     0.0000   0.0000   0.0000   0.0000   0.0000   0.0000   0.0000   0.0000
     0.0000   0.0000   0.0000   0.0000   0.0000   0.0000   0.0000   0.0000
     0.0000   0.0000   0.0000   0.0000   0.0000   0.0000   0.0000   0.0000
     0.0000   0.0000   0.0000   0.0000   0.0000   0.0000   0.0000   0.0000
     0.0000   0.0000   0.0000   0.0000   0.0000   0.0000   0.0000   0.0000
     0.0000   0.0000   0.0000   0.0000   0.0000   0.0000   0.0000   0.0000
     0.0000   0.0000   0.0000   0.0000   0.0000   0.0000   0.0000   0.0000
     0.0000   0.0000   0.0000   0.0000   0.0000   0.0000   0.0000   0.0000
     0.0000   0.0000   0.0000   0.0000   0.0000   0.0000   0.0000   0.0000
     0.0000   0.0000   0.0000   0.0000   0.0000   0.0000   0.0000   0.0000
     0.0000   0.0000   0.0000   0.0000   0.0000   0.0000   0.0000   0.0000
     0.0000   0.0000   0.0000   0.0000   0.0000   0.0000   0.0000   0.0000
     0.0000   0.0000   0.0000   0.0000   0.0000   0.0000   0.0000   0.0000
     0.0000   0.0000   0.0000   0.0000   0.0000   0.0000   0.0000   0.0000
     0.0000   0.0000   0.0000   0.0000   0.0000   0.0000   0.0000   0.0000
     0.0000   0.0000   0.0000   0.0000   0.0000   0.0000   0.0000   0.0000
     0.0000   0.0000   0.0000   0.0000   0.0000   0.0000   0.0000   0.0000
     0.0000   0.0000   0.0000   0.0000   0.0000   0.0000   0.0000   0.0000
     0.0000   0.0000   0.0000   0.0000   0.0000   0.0000   0.0000   0.0000
     0.0000   0.0000   0.0000   0.0000   0.0000   0.0000   0.0000   0.0000
     0.0000   0.0000   0.0000   0.0000   0.0000   0.0000   0.0000   0.0000
     0.0000   0.0000   0.0000   0.0000   0.0000   0.0000   0.0000   0.0000
     0.0000   0.0000   0.0000   0.0000   0.0000   0.0000   0.0000   0.0000
     0.0000   0.0000   0.0000   0.0000   0.0000   0.0000   0.0000   0.0000
     0.0000   0.0000   0.0000   0.0000   0.0000   0.0000   0.0000   0.0000
     0.0000   0.0000   0.0000   0.0000

          k = 0.0000 0.0000-0.6124 (  1946 PWs)   bands (ev):

    -2.3877  -0.0566  10.4520  10.4520  21.6800  21.6800  22.0426  28.8640
    35.0219  37.2851  39.1143  39.1143  47.2531  47.2531  59.1068  66.2983
    66.2983  69.0713  70.1345  70.1345  72.6918  72.6918  76.2793  78.0895
    86.3075  86.3075  89.0259  89.0259  93.0964  96.2987  98.1801  98.1801
    99.9726 100.7561 109.4033 109.4033 115.0128 116.7772 116.7772 118.6516
   124.6153 126.1199 134.5683 134.5683 136.8475 136.8475 139.4537 139.4537
   140.6666 140.6666 142.9747 146.0940 147.8404 147.8404 154.0032 154.0032
   154.3524 161.7748 161.7748 163.3671 163.3671 167.6200 167.9725 168.3514
   169.8158 169.8158 171.0086 171.0086 171.4179 172.4034 179.1257 184.7996
   186.9599 186.9599 188.0367 188.0367 191.0027 191.0027 197.8125 197.8125
   205.2965 205.4660 205.4660 208.8293 209.2559 215.0333 215.0333 215.7125
   216.7518 221.5908 221.5908 223.0762 223.4681 229.1414 229.1414 231.7357
   232.1562 232.1562 233.5069 233.5069 234.4230 235.4761 235.4761 236.7437
   236.7895 236.7895 237.1379 248.5574 249.9253 249.9253 251.0903 254.9584
   254.9584 260.6744 260.6744 260.8156 260.8156 261.0836 261.4958 263.9214
   267.2772 267.2772 267.4125 267.9222 274.0855 274.0855 275.4005 276.1799
   276.1799 276.4006 276.4006 278.8025 283.1650 283.1650 286.1606 286.1606
   286.4380 286.5458 294.6044 294.6044 295.4439 296.3142 296.3142 302.0871
   305.4414 305.4414 305.6558 305.6558 306.7149 309.1989 309.2029 309.9107
   312.8827 312.8827 313.0726 313.0726 317.3060 317.3060 318.9963 318.9963
   322.8692 328.2882 328.2882 328.5547 328.5547 329.4097 329.6958 330.6772
   341.3476 341.3476 348.7085 349.2520 349.2520 350.0048 351.8498 351.9203
   351.9203 352.0222 352.0222 354.7495 354.7495 354.9153 357.8319 363.8532
   364.4470 364.4470 365.3340 369.5139 369.5139 370.9530 371.0340 371.0340
   372.4048 372.4048 372.4276 376.6364 376.6364 376.6497 376.6497 377.5844
   377.5844 377.7150 378.2625 378.2625 378.3827 378.3827 378.5218 378.7238
   378.7666 380.4147 387.9742 387.9742 393.0444 393.7324 393.7324 393.9504
   395.6145 398.9178 398.9178 399.0874 399.2878 399.2878 400.4682 400.4682
   401.1757 402.0430 402.0430 402.6135 414.9667 414.9667 418.5844 420.5021
   420.5021 420.5423 421.0573 421.1247 425.0058 425.0058 425.6110 425.9824
   425.9824 426.2824 427.0020 427.0020 430.4196 435.6791 435.6791 438.5235
   440.0606 440.0606 440.2759 440.2759 440.4037 441.0893 445.4716 445.9574
   445.9574 448.9412 449.5260 449.5260 452.4897 452.4897 452.5825 452.5825
   452.6841 452.8575 454.5751 458.7405 461.7801 461.7801 462.8311 462.8311
   470.5555 476.8801 476.8801 479.7429 480.6912 480.6912 486.0984 486.0984
   486.8446 486.8446 489.5136 490.0441 490.6379 490.6379 490.6491 491.4358
   491.4358 492.2620 494.3781 494.3781 494.7785 494.9349 494.9354 495.3294
   495.3294 497.9101 497.9101 499.6500 499.8111 499.8111 501.3091 502.8002
   504.7132 504.7132 510.6510 510.6510 511.9856 512.4368 512.4368 512.6844
   512.7666 512.7666 515.0534 515.0534 516.2495 516.2792 516.2792 516.4304
   518.3488 518.3488 518.3777 518.3777 519.1047 519.1729 519.4461 519.4461
   519.4773 519.4773 521.0905 521.0909 530.7502 534.8257 535.0665 535.0665
   538.6798 538.6798 539.4242 539.5007 543.8711 543.8711 543.9303 543.9303
   548.2883 548.2883 549.2053 555.2732 555.2732 556.2968 559.5157 559.7449
   559.7449 560.2163 560.2163 560.7381 562.2957 562.2957 563.4068 563.4279
   564.0378 564.0378 566.7709 566.7709 567.0171 567.0171 567.2497 567.2623
   567.7265 567.7265 576.0940 576.1188 576.1188 576.1702 580.6610 581.8067
   581.8067 585.8428 585.8428 586.9220 587.0986 587.0986 587.5218 587.5218
   587.7818 587.8505 587.8505 588.0687 588.7208 589.2765 589.2765 589.4880
   599.5085 599.5085 605.5256 606.2234 606.2234 606.3586 607.4753 607.9803
   608.9772 608.9772 610.3698 610.3698 611.3939 611.5226 611.5226 612.1572
   612.1572 612.5325 612.7980 620.0033 625.8075 625.8075 628.3620 628.3620
   630.7465 630.7465 632.0608 633.3376 633.3376 634.3368 634.4277 634.9756
   635.2962 635.2962 635.6373 635.6373 635.7460 636.7371 637.2391 637.2391
   640.9282 640.9282 641.0907 641.0907 645.4071 645.7939 645.9856 645.9856
   653.1086 655.3769 655.6083 655.6083 655.8535 655.8535 656.0033 656.0033
   656.2761 656.5617 656.5617 656.7414 657.2010 657.2010 660.9731 661.1675
   661.1675 661.2183 664.7668 664.8718 664.8718 665.0376 665.0376 665.1772
   668.8415 672.1542 672.8553 672.8553 675.9004 675.9004 681.9105 683.4353
   683.4353 683.5920 683.5920 683.8439 683.8508 690.7346 690.7346 692.4550
   695.7703 695.7703 697.7266 697.7266 699.3174 700.5529 700.5529 701.5688
   701.9801 701.9801 702.1650 702.1650 702.2863 702.3221 702.5419 703.1429
   704.3454 704.3454 704.3662 704.3662 704.7730 704.9120 710.3647 712.4718
   712.4718 716.8284 717.2608 717.2608 719.5766 719.5766 724.2273 724.2273
   724.3276 724.6205 724.7586 725.2854 725.2854 725.4506 725.5487 725.5487
   730.0704 730.0704 730.0972 730.0972 730.3020 730.3105 731.3169 731.3568
   731.3568 731.3994 731.3994 731.4758 731.9756 731.9756 732.0313 732.0518
   732.0518 732.1031 732.5525 735.1430 735.1430 735.3493 735.5475 735.5475
   741.4878 741.8466 741.8466 745.8404 745.9871 745.9871 749.1838 749.1838
   750.1707 750.1707 750.9818 750.9877 751.1007 751.3765 751.5278 751.5278
   751.7837 751.7837 754.3133 754.3133 754.4317 754.4317 754.5122 754.5377
   768.2935 768.2935 771.8433 771.8433 772.5325 772.5546 773.8579 775.1224
   776.2436 776.2436 776.7647 776.7647 777.1387 785.3151 789.1004 789.1004
   792.2471 792.2471 795.6646 795.6646 797.3439 798.1419 798.4063 798.4063
   798.6033 798.6033 798.6079 798.6079 799.2724 799.2728 799.3398 799.3438
   799.3765 799.3765 799.5735 799.5735 801.3032 801.3032 801.3060 801.3060
   803.4772 803.4775 810.5443 813.1916 813.1916 818.7626 818.7626 819.5989
   820.4083 820.4083 820.6522 820.6522 821.5198 821.5396 825.9008 825.9008
   825.9602 825.9602 826.1734 826.1745 827.6142 827.6142 834.8180 834.8640
   834.8640 835.2897 836.3901 836.8748 836.8748 838.4510 844.1906 844.3768
   844.3768 844.9228 845.6002 845.6002 847.8027 847.8361 847.8361 848.1439
   849.4003 849.4003 849.4287 849.4287 852.2940 853.1964 853.1964 858.8642
   858.8642 859.4389 861.6072 861.6072 862.0489 862.0489 862.8590 863.2357
   864.7610 864.8246 865.2026 865.2026 865.5007 865.5007 866.4730 866.4730
   866.6476 866.7385 866.7385 866.7518 869.9022 869.9022 870.1003 870.1797
   870.1797 870.2448 871.2685 871.2685 872.1622 872.1642 872.1642 872.6042
   872.6521 872.8008 872.8008 873.7564 874.0015 874.0015 876.3998 876.3998
   876.5023 876.5023 876.5350 876.5493 885.9062 885.9062 890.0777 890.7475
   890.7475 891.1222 893.9020 894.0644 894.0644 894.3018 894.3018 894.7808
   895.1227 895.4358 895.4358 895.5161 895.5161 895.9542 904.7141 904.7141
   906.1652 909.9577 909.9577 910.1530 910.2434 910.6153 910.7253 910.7253
   910.8235 910.8235 910.8469 911.1663 912.5067 912.5067 912.6530 912.6530
   918.1685 918.1685 919.6612 919.6612 919.7229 919.7229 919.7296 919.7328
   920.4079 921.4782 921.5940 921.5940 921.9684 922.0847 922.0847 922.2475
   922.2475 922.3147 927.1053 933.2746 933.2746 933.5968 937.5804 937.5804
   938.0382 938.0382 938.2244 939.1880 939.1880 939.2181 939.4256 939.4256
   939.5443 939.7564 939.7564 939.9183 940.0191 940.0306 940.0768 940.0768
   940.1890 940.1890 952.8438 952.9939 952.9939 955.5602 955.5602 956.9322
   957.1074 957.8430 965.3610 965.3610 965.3613 965.3613 965.3990 965.4397
   967.3096 967.3096 967.3774 967.3774 972.2450 976.0429 976.0429 977.1896
   979.8218 979.8218 981.8885 981.8885 984.7900 984.9671 984.9671 985.2611
   986.3780 986.5396 986.5396 986.7849 986.7849 987.1239 987.2598 987.2598
   987.2649 987.2649 987.4660 987.5464 987.5688 987.5910 987.6074 987.6074
   987.6117 987.6117 990.7981 990.7981 990.8073 990.8073 990.8220 990.8272
   993.4807 996.2312 996.2312 999.2115 999.3322 999.33221005.38711005.3871
  1007.02981007.02981007.45791007.78011012.71841012.71841012.77101012.7710
  1012.77381012.77381013.98561013.98561014.00231014.00231014.03341014.0518
  1016.29901017.24311017.24311017.90751018.02531018.02531023.52781025.8555
  1025.85551026.58721028.52931028.52931029.42011029.42011030.51261030.5126
  1030.67571031.12811031.56691031.56691031.56691031.56691031.62041031.6553
  1036.06691036.06691036.10281036.10281036.35981036.36031048.91081051.8072
  1051.80721054.13821055.79421056.34421056.34431056.67631057.85791057.8579
  1058.08021058.08031058.21141058.2121

     occupation numbers 
     1.0000   1.0000   1.0000   1.0000   0.0000   0.0000   0.0000   0.0000
     0.0000   0.0000   0.0000   0.0000   0.0000   0.0000   0.0000   0.0000
     0.0000   0.0000   0.0000   0.0000   0.0000   0.0000   0.0000   0.0000
     0.0000   0.0000   0.0000   0.0000   0.0000   0.0000   0.0000   0.0000
     0.0000   0.0000   0.0000   0.0000   0.0000   0.0000   0.0000   0.0000
     0.0000   0.0000   0.0000   0.0000   0.0000   0.0000   0.0000   0.0000
     0.0000   0.0000   0.0000   0.0000   0.0000   0.0000   0.0000   0.0000
     0.0000   0.0000   0.0000   0.0000   0.0000   0.0000   0.0000   0.0000
     0.0000   0.0000   0.0000   0.0000   0.0000   0.0000   0.0000   0.0000
     0.0000   0.0000   0.0000   0.0000   0.0000   0.0000   0.0000   0.0000
     0.0000   0.0000   0.0000   0.0000   0.0000   0.0000   0.0000   0.0000
     0.0000   0.0000   0.0000   0.0000   0.0000   0.0000   0.0000   0.0000
     0.0000   0.0000   0.0000   0.0000   0.0000   0.0000   0.0000   0.0000
     0.0000   0.0000   0.0000   0.0000   0.0000   0.0000   0.0000   0.0000
     0.0000   0.0000   0.0000   0.0000   0.0000   0.0000   0.0000   0.0000
     0.0000   0.0000   0.0000   0.0000   0.0000   0.0000   0.0000   0.0000
     0.0000   0.0000   0.0000   0.0000   0.0000   0.0000   0.0000   0.0000
     0.0000   0.0000   0.0000   0.0000   0.0000   0.0000   0.0000   0.0000
     0.0000   0.0000   0.0000   0.0000   0.0000   0.0000   0.0000   0.0000
     0.0000   0.0000   0.0000   0.0000   0.0000   0.0000   0.0000   0.0000
     0.0000   0.0000   0.0000   0.0000   0.0000   0.0000   0.0000   0.0000
     0.0000   0.0000   0.0000   0.0000   0.0000   0.0000   0.0000   0.0000
     0.0000   0.0000   0.0000   0.0000   0.0000   0.0000   0.0000   0.0000
     0.0000   0.0000   0.0000   0.0000   0.0000   0.0000   0.0000   0.0000
     0.0000   0.0000   0.0000   0.0000   0.0000   0.0000   0.0000   0.0000
     0.0000   0.0000   0.0000   0.0000   0.0000   0.0000   0.0000   0.0000
     0.0000   0.0000   0.0000   0.0000   0.0000   0.0000   0.0000   0.0000
     0.0000   0.0000   0.0000   0.0000   0.0000   0.0000   0.0000   0.0000
     0.0000   0.0000   0.0000   0.0000   0.0000   0.0000   0.0000   0.0000
     0.0000   0.0000   0.0000   0.0000   0.0000   0.0000   0.0000   0.0000
     0.0000   0.0000   0.0000   0.0000   0.0000   0.0000   0.0000   0.0000
     0.0000   0.0000   0.0000   0.0000   0.0000   0.0000   0.0000   0.0000
     0.0000   0.0000   0.0000   0.0000   0.0000   0.0000   0.0000   0.0000
     0.0000   0.0000   0.0000   0.0000   0.0000   0.0000   0.0000   0.0000
     0.0000   0.0000   0.0000   0.0000   0.0000   0.0000   0.0000   0.0000
     0.0000   0.0000   0.0000   0.0000   0.0000   0.0000   0.0000   0.0000
     0.0000   0.0000   0.0000   0.0000   0.0000   0.0000   0.0000   0.0000
     0.0000   0.0000   0.0000   0.0000   0.0000   0.0000   0.0000   0.0000
     0.0000   0.0000   0.0000   0.0000   0.0000   0.0000   0.0000   0.0000
     0.0000   0.0000   0.0000   0.0000   0.0000   0.0000   0.0000   0.0000
     0.0000   0.0000   0.0000   0.0000   0.0000   0.0000   0.0000   0.0000
     0.0000   0.0000   0.0000   0.0000   0.0000   0.0000   0.0000   0.0000
     0.0000   0.0000   0.0000   0.0000   0.0000   0.0000   0.0000   0.0000
     0.0000   0.0000   0.0000   0.0000   0.0000   0.0000   0.0000   0.0000
     0.0000   0.0000   0.0000   0.0000   0.0000   0.0000   0.0000   0.0000
     0.0000   0.0000   0.0000   0.0000   0.0000   0.0000   0.0000   0.0000
     0.0000   0.0000   0.0000   0.0000   0.0000   0.0000   0.0000   0.0000
     0.0000   0.0000   0.0000   0.0000   0.0000   0.0000   0.0000   0.0000
     0.0000   0.0000   0.0000   0.0000   0.0000   0.0000   0.0000   0.0000
     0.0000   0.0000   0.0000   0.0000   0.0000   0.0000   0.0000   0.0000
     0.0000   0.0000   0.0000   0.0000   0.0000   0.0000   0.0000   0.0000
     0.0000   0.0000   0.0000   0.0000   0.0000   0.0000   0.0000   0.0000
     0.0000   0.0000   0.0000   0.0000   0.0000   0.0000   0.0000   0.0000
     0.0000   0.0000   0.0000   0.0000   0.0000   0.0000   0.0000   0.0000
     0.0000   0.0000   0.0000   0.0000   0.0000   0.0000   0.0000   0.0000
     0.0000   0.0000   0.0000   0.0000   0.0000   0.0000   0.0000   0.0000
     0.0000   0.0000   0.0000   0.0000   0.0000   0.0000   0.0000   0.0000
     0.0000   0.0000   0.0000   0.0000   0.0000   0.0000   0.0000   0.0000
     0.0000   0.0000   0.0000   0.0000   0.0000   0.0000   0.0000   0.0000
     0.0000   0.0000   0.0000   0.0000   0.0000   0.0000   0.0000   0.0000
     0.0000   0.0000   0.0000   0.0000   0.0000   0.0000   0.0000   0.0000
     0.0000   0.0000   0.0000   0.0000   0.0000   0.0000   0.0000   0.0000
     0.0000   0.0000   0.0000   0.0000   0.0000   0.0000   0.0000   0.0000
     0.0000   0.0000   0.0000   0.0000   0.0000   0.0000   0.0000   0.0000
     0.0000   0.0000   0.0000   0.0000   0.0000   0.0000   0.0000   0.0000
     0.0000   0.0000   0.0000   0.0000   0.0000   0.0000   0.0000   0.0000
     0.0000   0.0000   0.0000   0.0000   0.0000   0.0000   0.0000   0.0000
     0.0000   0.0000   0.0000   0.0000   0.0000   0.0000   0.0000   0.0000
     0.0000   0.0000   0.0000   0.0000   0.0000   0.0000   0.0000   0.0000
     0.0000   0.0000   0.0000   0.0000   0.0000   0.0000   0.0000   0.0000
     0.0000   0.0000   0.0000   0.0000   0.0000   0.0000   0.0000   0.0000
     0.0000   0.0000   0.0000   0.0000   0.0000   0.0000   0.0000   0.0000
     0.0000   0.0000   0.0000   0.0000   0.0000   0.0000   0.0000   0.0000
     0.0000   0.0000   0.0000   0.0000   0.0000   0.0000   0.0000   0.0000
     0.0000   0.0000   0.0000   0.0000   0.0000   0.0000   0.0000   0.0000
     0.0000   0.0000   0.0000   0.0000   0.0000   0.0000   0.0000   0.0000
     0.0000   0.0000   0.0000   0.0000   0.0000   0.0000   0.0000   0.0000
     0.0000   0.0000   0.0000   0.0000   0.0000   0.0000   0.0000   0.0000
     0.0000   0.0000   0.0000   0.0000   0.0000   0.0000   0.0000   0.0000
     0.0000   0.0000   0.0000   0.0000   0.0000   0.0000   0.0000   0.0000
     0.0000   0.0000   0.0000   0.0000   0.0000   0.0000   0.0000   0.0000
     0.0000   0.0000   0.0000   0.0000   0.0000   0.0000   0.0000   0.0000
     0.0000   0.0000   0.0000   0.0000   0.0000   0.0000   0.0000   0.0000
     0.0000   0.0000   0.0000   0.0000   0.0000   0.0000   0.0000   0.0000
     0.0000   0.0000   0.0000   0.0000   0.0000   0.0000   0.0000   0.0000
     0.0000   0.0000   0.0000   0.0000   0.0000   0.0000   0.0000   0.0000
     0.0000   0.0000   0.0000   0.0000   0.0000   0.0000   0.0000   0.0000
     0.0000   0.0000   0.0000   0.0000   0.0000   0.0000   0.0000   0.0000
     0.0000   0.0000   0.0000   0.0000   0.0000   0.0000   0.0000   0.0000
     0.0000   0.0000   0.0000   0.0000   0.0000   0.0000   0.0000   0.0000
     0.0000   0.0000   0.0000   0.0000   0.0000   0.0000   0.0000   0.0000
     0.0000   0.0000   0.0000   0.0000   0.0000   0.0000   0.0000   0.0000
     0.0000   0.0000   0.0000   0.0000   0.0000   0.0000   0.0000   0.0000
     0.0000   0.0000   0.0000   0.0000   0.0000   0.0000   0.0000   0.0000
     0.0000   0.0000   0.0000   0.0000   0.0000   0.0000   0.0000   0.0000
     0.0000   0.0000   0.0000   0.0000   0.0000   0.0000   0.0000   0.0000
     0.0000   0.0000   0.0000   0.0000   0.0000   0.0000   0.0000   0.0000
     0.0000   0.0000   0.0000   0.0000   0.0000   0.0000   0.0000   0.0000
     0.0000   0.0000   0.0000   0.0000   0.0000   0.0000   0.0000   0.0000
     0.0000   0.0000   0.0000   0.0000   0.0000   0.0000   0.0000   0.0000
     0.0000   0.0000   0.0000   0.0000   0.0000   0.0000   0.0000   0.0000
     0.0000   0.0000   0.0000   0.0000   0.0000   0.0000   0.0000   0.0000
     0.0000   0.0000   0.0000   0.0000   0.0000   0.0000   0.0000   0.0000
     0.0000   0.0000   0.0000   0.0000   0.0000   0.0000   0.0000   0.0000
     0.0000   0.0000   0.0000   0.0000   0.0000   0.0000   0.0000   0.0000
     0.0000   0.0000   0.0000   0.0000   0.0000   0.0000   0.0000   0.0000
     0.0000   0.0000   0.0000   0.0000   0.0000   0.0000   0.0000   0.0000
     0.0000   0.0000   0.0000   0.0000   0.0000   0.0000   0.0000   0.0000
     0.0000   0.0000   0.0000   0.0000   0.0000   0.0000   0.0000   0.0000
     0.0000   0.0000   0.0000   0.0000   0.0000   0.0000   0.0000   0.0000
     0.0000   0.0000   0.0000   0.0000   0.0000   0.0000   0.0000   0.0000
     0.0000   0.0000   0.0000   0.0000   0.0000   0.0000   0.0000   0.0000
     0.0000   0.0000   0.0000   0.0000

          k = 0.0000 0.2887-0.1021 (  1973 PWs)   bands (ev):

    -6.4230   6.6865  11.5023  11.5023  20.9989  20.9989  21.3479  27.7663
    33.8781  35.6633  35.6633  38.6247  52.1551  52.1551  55.6829  55.6829
    56.6061  57.6732  72.1591  72.1591  81.7658  82.7150  82.7150  87.8199
    87.8199  89.4491  90.0624  94.5490  95.7414  95.7414 104.4102 105.2126
   105.2126 108.1175 108.1175 108.7849 111.2538 111.2538 113.5509 119.4541
   119.4541 120.7040 122.3044 128.9297 128.9297 131.1272 131.1272 132.1841
   138.6693 139.4157 139.4157 140.9542 143.6232 148.1382 148.1382 148.9058
   152.8666 152.8666 155.0399 155.0399 162.4013 166.9133 166.9133 168.7298
   169.8439 175.3832 175.3832 183.7514 186.8545 186.8545 193.9134 193.9134
   194.7022 195.1257 195.1257 196.1736 198.9047 198.9047 203.7371 204.2139
   204.2139 206.6859 207.7451 207.7451 210.7988 214.3831 215.6939 215.6939
   217.4592 218.6795 220.5190 220.5190 224.8169 224.8169 225.7713 227.9166
   227.9166 229.0825 234.4277 234.4277 237.0125 239.8319 239.8955 239.8955
   240.0783 240.0783 243.3554 243.3822 243.3822 244.9434 250.7875 250.7875
   252.2975 252.2975 252.5132 258.2586 260.1568 263.2564 263.2564 263.8489
   265.3699 265.3699 267.3491 267.8518 267.8518 269.0752 269.3306 269.3306
   271.3610 271.3610 273.3911 276.5466 276.5466 281.4767 282.0861 283.0958
   283.0958 283.7996 290.0430 290.0430 291.0374 291.0374 293.4588 293.4588
   293.4916 295.6010 298.5172 298.5172 299.4720 300.9800 306.6195 315.1539
   315.1539 317.7660 320.9367 320.9367 322.2893 322.2893 323.8145 327.3035
   327.3035 328.0295 332.5752 332.5752 335.0721 340.2407 340.2591 340.2591
   342.0062 342.0062 342.2788 348.9923 348.9923 350.8923 350.8923 350.9872
   352.9270 352.9270 355.2597 355.4963 357.0765 357.0765 358.2568 361.4917
   361.4917 362.0142 363.1023 363.1080 363.1080 363.9559 363.9559 365.1109
   369.1397 369.1397 369.4020 379.3547 379.3547 379.5584 380.9924 383.7901
   383.7901 384.6669 384.7404 384.7404 386.1721 388.5581 388.5581 393.5872
   396.0312 396.0312 397.4329 399.1189 400.3235 400.3235 400.7641 405.1959
   405.1959 405.6018 405.6018 405.6123 408.5971 409.1820 409.1820 411.2488
   411.2488 412.5896 412.8915 412.8915 414.4146 415.0749 415.1374 415.1374
   417.7286 417.7286 418.4568 418.4568 418.4851 418.7523 420.7894 426.1878
   426.1878 428.2449 429.2505 432.6616 432.6616 432.8683 433.1711 433.1711
   435.0300 435.0300 436.4240 436.4240 437.1523 442.4155 442.4155 442.6314
   443.4862 445.6661 445.6661 447.2838 448.1240 448.1240 449.4194 450.8249
   450.8249 451.4709 452.5244 452.5244 454.9597 455.4931 455.4931 455.6796
   455.6796 459.0435 459.0435 459.1549 461.4246 465.6409 465.6409 466.3393
   469.0329 472.6433 472.6433 475.2442 477.9160 477.9160 478.2002 478.2002
   478.4339 479.1960 479.3262 479.3262 484.7443 487.5706 487.5706 488.9707
   488.9707 489.0641 490.6321 490.8804 490.8804 492.7650 502.0220 502.8581
   502.8581 505.4376 507.0040 507.0040 511.0502 512.6090 512.6090 513.1030
   514.6677 514.6677 520.1495 520.3612 520.3612 521.2866 521.5337 521.5337
   522.9712 525.7324 525.7324 527.4992 527.4992 527.5952 532.9118 532.9489
   532.9489 536.7514 536.7514 538.0393 541.8538 541.8538 541.9638 543.9540
   543.9540 544.2075 546.1345 546.1345 546.4219 546.9685 547.8412 547.8412
   548.4126 550.3286 550.3286 550.7825 553.9256 553.9258 553.9258 557.8641
   557.8641 560.4956 560.4956 561.6900 562.8556 568.7985 569.3227 569.3227
   570.5562 570.5562 572.9278 572.9278 576.0378 576.0378 577.3125 577.3720
   577.3738 577.3738 578.9338 582.3194 582.3194 583.1046 583.1046 584.9183
   588.6856 589.0873 589.0873 589.2292 593.7191 595.4493 595.4493 598.0775
   599.9330 599.9330 600.3355 600.3355 600.4327 600.8656 604.1938 604.1938
   604.4627 611.7513 611.7513 612.9306 613.6421 613.6421 615.6351 615.6351
   615.9834 617.5567 617.5890 617.5890 619.0077 619.0077 619.5839 622.3139
   622.3139 622.4337 624.4161 624.8754 624.8754 625.0427 625.4712 625.4712
   625.7467 625.7974 627.2608 627.2608 631.0538 631.1826 631.1826 633.1655
   633.6483 633.6483 634.0317 635.1488 635.1488 635.7198 635.7198 636.1382
   639.2985 639.2985 642.4247 642.4247 642.7633 643.2972 644.2396 644.7415
   644.7415 645.8665 645.8665 645.8939 646.1824 648.9723 648.9723 651.9037
   651.9242 651.9242 652.6945 652.6945 652.8305 655.6059 655.6059 657.3873
   658.1180 658.1180 658.1900 663.4610 663.4610 664.8811 664.8811 664.9130
   665.2798 667.0173 667.4453 667.4453 667.8516 667.9933 667.9933 668.9380
   668.9380 670.3310 671.9089 671.9514 671.9514 672.7132 672.7132 672.7321
   672.8708 672.8708 673.0083 685.8646 688.2485 689.8552 689.8552 695.0421
   695.0421 696.1253 696.5767 696.5767 699.6231 699.6231 699.8564 700.0117
   700.0117 700.0120 700.7240 700.7445 700.7445 703.4876 707.0999 707.1693
   707.1693 707.3539 707.3539 707.6175 709.1598 711.8887 711.8887 714.1378
   715.1674 715.1674 715.7596 715.7596 715.9057 715.9057 715.9959 722.1500
   722.7454 722.7454 723.4657 723.4657 726.0628 728.6447 728.6447 728.6952
   731.9907 731.9907 734.3037 734.4959 735.7067 735.7067 737.6818 737.6818
   738.0557 738.6030 739.4444 739.4444 740.2291 740.2291 740.2659 742.7510
   745.8948 745.8948 750.0451 750.0451 752.5255 753.6132 753.6132 753.6744
   754.4437 754.4437 754.5305 754.6538 758.4967 760.1374 760.1374 760.1842
   760.2942 760.2942 760.9647 761.0366 761.0366 766.3998 766.3998 767.6143
   767.6143 768.3895 769.8850 769.8850 772.0193 773.4002 773.4002 775.6922
   778.8363 785.0020 785.0020 785.5275 786.9124 786.9124 788.7867 790.0164
   790.1597 790.1597 791.7215 791.7215 791.8557 791.9920 791.9999 791.9999
   797.7263 797.7263 800.1263 800.1263 800.3246 801.2668 803.1507 804.0579
   804.0579 808.4560 808.6083 808.6083 809.8222 809.8222 811.7928 811.7928
   811.9252 812.0715 814.3310 814.3310 815.7064 816.5435 816.5435 817.1471
   821.8689 821.8689 822.4458 824.4814 824.4814 827.9047 828.6433 828.6433
   828.9351 829.8750 829.8750 830.4886 830.6962 830.6962 832.4628 832.5986
   832.5986 833.2158 833.2158 833.2500 833.2641 840.3280 841.6019 841.6019
   844.0311 845.8364 845.8364 849.3286 849.3286 850.5328 853.6854 853.7136
   853.7136 854.0404 854.3015 854.3015 854.3345 854.8244 854.8244 856.0920
   858.9415 858.9415 862.2420 862.3789 862.3789 863.2000 863.2000 863.3857
   863.6760 863.6760 865.1237 866.3842 866.4080 866.4080 866.4368 867.9965
   871.6910 871.6910 872.6809 872.9285 872.9285 872.9975 873.9650 873.9650
   878.5648 878.5648 880.5452 880.5452 881.8554 881.8554 881.9526 883.8340
   883.8340 883.8377 883.8383 884.6480 884.9052 884.9052 885.8556 885.8556
   885.9485 887.4617 887.4617 888.5531 889.4565 889.4565 889.5183 891.0296
   894.8586 894.8586 896.6690 896.6690 897.6180 900.1297 900.7432 900.7432
   901.7350 901.7350 901.7737 902.1777 902.2039 902.2039 903.1297 903.1297
   903.1828 904.2087 904.2087 904.6785 904.8929 904.8929 905.3309 908.3910
   908.3910 909.5213 909.7836 909.7836 910.0366 910.3538 910.4515 910.4515
   911.4584 911.4584 912.5625 912.5729 913.9390 913.9390 918.7464 918.7464
   919.1144 922.3018 922.8654 922.8654 924.7247 925.4666 925.4666 925.7349
   926.5755 926.8042 926.8042 927.8283 928.2324 928.2324 933.0278 933.0278
   935.1290 935.5872 935.5872 935.6401 936.8604 936.8604 941.3187 941.3187
   941.3654 942.6649 944.1874 944.1874 946.7029 946.7029 948.0121 948.3567
   948.3567 948.5728 949.7940 949.9608 949.9608 952.4237 952.4237 952.9302
   952.9302 953.2700 955.0436 955.2373 955.2373 957.1925 957.2087 957.2087
   958.2454 958.8441 958.8441 959.2640 959.6733 965.2143 965.2143 965.2336
   968.8050 968.8050 968.8894 970.7523 971.0408 971.0408 972.9714 972.9714
   974.8707 977.9042 977.9042 978.2117 979.7211 979.7211 979.7372 980.5332
   982.1223 982.1223 985.9785 985.9785 988.4564 989.5480 989.5480 989.6133
   991.2531 992.0700 992.0700 994.7996 994.9651 994.9651 996.0273 996.0273
   996.1963 996.3066 996.6104 996.6104 997.8067 997.8067 997.85201000.7859
  1000.82251000.82251002.38381003.26831003.26831004.41901004.41901004.5994
  1007.49631007.49631007.54571008.05561008.15261008.15261012.69951013.2916
  1013.29161015.78661015.78661016.22551016.83511016.83511016.84631018.4772
  1018.73261018.73261020.82481021.16451021.16451021.89051022.28101022.2810
  1022.31051023.14591023.22581023.22581025.05091025.05091025.15931025.1593
  1025.16411027.96381027.96381029.15801031.27831032.89821032.89821036.6979
  1036.69791036.74931037.88111039.96991039.96991041.26061041.26941041.2694
  1041.94921045.35081045.35081046.9249

     occupation numbers 
     1.0000   1.0000   1.0000   1.0000   0.0000   0.0000   0.0000   0.0000
     0.0000   0.0000   0.0000   0.0000   0.0000   0.0000   0.0000   0.0000
     0.0000   0.0000   0.0000   0.0000   0.0000   0.0000   0.0000   0.0000
     0.0000   0.0000   0.0000   0.0000   0.0000   0.0000   0.0000   0.0000
     0.0000   0.0000   0.0000   0.0000   0.0000   0.0000   0.0000   0.0000
     0.0000   0.0000   0.0000   0.0000   0.0000   0.0000   0.0000   0.0000
     0.0000   0.0000   0.0000   0.0000   0.0000   0.0000   0.0000   0.0000
     0.0000   0.0000   0.0000   0.0000   0.0000   0.0000   0.0000   0.0000
     0.0000   0.0000   0.0000   0.0000   0.0000   0.0000   0.0000   0.0000
     0.0000   0.0000   0.0000   0.0000   0.0000   0.0000   0.0000   0.0000
     0.0000   0.0000   0.0000   0.0000   0.0000   0.0000   0.0000   0.0000
     0.0000   0.0000   0.0000   0.0000   0.0000   0.0000   0.0000   0.0000
     0.0000   0.0000   0.0000   0.0000   0.0000   0.0000   0.0000   0.0000
     0.0000   0.0000   0.0000   0.0000   0.0000   0.0000   0.0000   0.0000
     0.0000   0.0000   0.0000   0.0000   0.0000   0.0000   0.0000   0.0000
     0.0000   0.0000   0.0000   0.0000   0.0000   0.0000   0.0000   0.0000
     0.0000   0.0000   0.0000   0.0000   0.0000   0.0000   0.0000   0.0000
     0.0000   0.0000   0.0000   0.0000   0.0000   0.0000   0.0000   0.0000
     0.0000   0.0000   0.0000   0.0000   0.0000   0.0000   0.0000   0.0000
     0.0000   0.0000   0.0000   0.0000   0.0000   0.0000   0.0000   0.0000
     0.0000   0.0000   0.0000   0.0000   0.0000   0.0000   0.0000   0.0000
     0.0000   0.0000   0.0000   0.0000   0.0000   0.0000   0.0000   0.0000
     0.0000   0.0000   0.0000   0.0000   0.0000   0.0000   0.0000   0.0000
     0.0000   0.0000   0.0000   0.0000   0.0000   0.0000   0.0000   0.0000
     0.0000   0.0000   0.0000   0.0000   0.0000   0.0000   0.0000   0.0000
     0.0000   0.0000   0.0000   0.0000   0.0000   0.0000   0.0000   0.0000
     0.0000   0.0000   0.0000   0.0000   0.0000   0.0000   0.0000   0.0000
     0.0000   0.0000   0.0000   0.0000   0.0000   0.0000   0.0000   0.0000
     0.0000   0.0000   0.0000   0.0000   0.0000   0.0000   0.0000   0.0000
     0.0000   0.0000   0.0000   0.0000   0.0000   0.0000   0.0000   0.0000
     0.0000   0.0000   0.0000   0.0000   0.0000   0.0000   0.0000   0.0000
     0.0000   0.0000   0.0000   0.0000   0.0000   0.0000   0.0000   0.0000
     0.0000   0.0000   0.0000   0.0000   0.0000   0.0000   0.0000   0.0000
     0.0000   0.0000   0.0000   0.0000   0.0000   0.0000   0.0000   0.0000
     0.0000   0.0000   0.0000   0.0000   0.0000   0.0000   0.0000   0.0000
     0.0000   0.0000   0.0000   0.0000   0.0000   0.0000   0.0000   0.0000
     0.0000   0.0000   0.0000   0.0000   0.0000   0.0000   0.0000   0.0000
     0.0000   0.0000   0.0000   0.0000   0.0000   0.0000   0.0000   0.0000
     0.0000   0.0000   0.0000   0.0000   0.0000   0.0000   0.0000   0.0000
     0.0000   0.0000   0.0000   0.0000   0.0000   0.0000   0.0000   0.0000
     0.0000   0.0000   0.0000   0.0000   0.0000   0.0000   0.0000   0.0000
     0.0000   0.0000   0.0000   0.0000   0.0000   0.0000   0.0000   0.0000
     0.0000   0.0000   0.0000   0.0000   0.0000   0.0000   0.0000   0.0000
     0.0000   0.0000   0.0000   0.0000   0.0000   0.0000   0.0000   0.0000
     0.0000   0.0000   0.0000   0.0000   0.0000   0.0000   0.0000   0.0000
     0.0000   0.0000   0.0000   0.0000   0.0000   0.0000   0.0000   0.0000
     0.0000   0.0000   0.0000   0.0000   0.0000   0.0000   0.0000   0.0000
     0.0000   0.0000   0.0000   0.0000   0.0000   0.0000   0.0000   0.0000
     0.0000   0.0000   0.0000   0.0000   0.0000   0.0000   0.0000   0.0000
     0.0000   0.0000   0.0000   0.0000   0.0000   0.0000   0.0000   0.0000
     0.0000   0.0000   0.0000   0.0000   0.0000   0.0000   0.0000   0.0000
     0.0000   0.0000   0.0000   0.0000   0.0000   0.0000   0.0000   0.0000
     0.0000   0.0000   0.0000   0.0000   0.0000   0.0000   0.0000   0.0000
     0.0000   0.0000   0.0000   0.0000   0.0000   0.0000   0.0000   0.0000
     0.0000   0.0000   0.0000   0.0000   0.0000   0.0000   0.0000   0.0000
     0.0000   0.0000   0.0000   0.0000   0.0000   0.0000   0.0000   0.0000
     0.0000   0.0000   0.0000   0.0000   0.0000   0.0000   0.0000   0.0000
     0.0000   0.0000   0.0000   0.0000   0.0000   0.0000   0.0000   0.0000
     0.0000   0.0000   0.0000   0.0000   0.0000   0.0000   0.0000   0.0000
     0.0000   0.0000   0.0000   0.0000   0.0000   0.0000   0.0000   0.0000
     0.0000   0.0000   0.0000   0.0000   0.0000   0.0000   0.0000   0.0000
     0.0000   0.0000   0.0000   0.0000   0.0000   0.0000   0.0000   0.0000
     0.0000   0.0000   0.0000   0.0000   0.0000   0.0000   0.0000   0.0000
     0.0000   0.0000   0.0000   0.0000   0.0000   0.0000   0.0000   0.0000
     0.0000   0.0000   0.0000   0.0000   0.0000   0.0000   0.0000   0.0000
     0.0000   0.0000   0.0000   0.0000   0.0000   0.0000   0.0000   0.0000
     0.0000   0.0000   0.0000   0.0000   0.0000   0.0000   0.0000   0.0000
     0.0000   0.0000   0.0000   0.0000   0.0000   0.0000   0.0000   0.0000
     0.0000   0.0000   0.0000   0.0000   0.0000   0.0000   0.0000   0.0000
     0.0000   0.0000   0.0000   0.0000   0.0000   0.0000   0.0000   0.0000
     0.0000   0.0000   0.0000   0.0000   0.0000   0.0000   0.0000   0.0000
     0.0000   0.0000   0.0000   0.0000   0.0000   0.0000   0.0000   0.0000
     0.0000   0.0000   0.0000   0.0000   0.0000   0.0000   0.0000   0.0000
     0.0000   0.0000   0.0000   0.0000   0.0000   0.0000   0.0000   0.0000
     0.0000   0.0000   0.0000   0.0000   0.0000   0.0000   0.0000   0.0000
     0.0000   0.0000   0.0000   0.0000   0.0000   0.0000   0.0000   0.0000
     0.0000   0.0000   0.0000   0.0000   0.0000   0.0000   0.0000   0.0000
     0.0000   0.0000   0.0000   0.0000   0.0000   0.0000   0.0000   0.0000
     0.0000   0.0000   0.0000   0.0000   0.0000   0.0000   0.0000   0.0000
     0.0000   0.0000   0.0000   0.0000   0.0000   0.0000   0.0000   0.0000
     0.0000   0.0000   0.0000   0.0000   0.0000   0.0000   0.0000   0.0000
     0.0000   0.0000   0.0000   0.0000   0.0000   0.0000   0.0000   0.0000
     0.0000   0.0000   0.0000   0.0000   0.0000   0.0000   0.0000   0.0000
     0.0000   0.0000   0.0000   0.0000   0.0000   0.0000   0.0000   0.0000
     0.0000   0.0000   0.0000   0.0000   0.0000   0.0000   0.0000   0.0000
     0.0000   0.0000   0.0000   0.0000   0.0000   0.0000   0.0000   0.0000
     0.0000   0.0000   0.0000   0.0000   0.0000   0.0000   0.0000   0.0000
     0.0000   0.0000   0.0000   0.0000   0.0000   0.0000   0.0000   0.0000
     0.0000   0.0000   0.0000   0.0000   0.0000   0.0000   0.0000   0.0000
     0.0000   0.0000   0.0000   0.0000   0.0000   0.0000   0.0000   0.0000
     0.0000   0.0000   0.0000   0.0000   0.0000   0.0000   0.0000   0.0000
     0.0000   0.0000   0.0000   0.0000   0.0000   0.0000   0.0000   0.0000
     0.0000   0.0000   0.0000   0.0000   0.0000   0.0000   0.0000   0.0000
     0.0000   0.0000   0.0000   0.0000   0.0000   0.0000   0.0000   0.0000
     0.0000   0.0000   0.0000   0.0000   0.0000   0.0000   0.0000   0.0000
     0.0000   0.0000   0.0000   0.0000   0.0000   0.0000   0.0000   0.0000
     0.0000   0.0000   0.0000   0.0000   0.0000   0.0000   0.0000   0.0000
     0.0000   0.0000   0.0000   0.0000   0.0000   0.0000   0.0000   0.0000
     0.0000   0.0000   0.0000   0.0000   0.0000   0.0000   0.0000   0.0000
     0.0000   0.0000   0.0000   0.0000   0.0000   0.0000   0.0000   0.0000
     0.0000   0.0000   0.0000   0.0000   0.0000   0.0000   0.0000   0.0000
     0.0000   0.0000   0.0000   0.0000   0.0000   0.0000   0.0000   0.0000
     0.0000   0.0000   0.0000   0.0000   0.0000   0.0000   0.0000   0.0000
     0.0000   0.0000   0.0000   0.0000   0.0000   0.0000   0.0000   0.0000
     0.0000   0.0000   0.0000   0.0000   0.0000   0.0000   0.0000   0.0000
     0.0000   0.0000   0.0000   0.0000   0.0000   0.0000   0.0000   0.0000
     0.0000   0.0000   0.0000   0.0000   0.0000   0.0000   0.0000   0.0000
     0.0000   0.0000   0.0000   0.0000   0.0000   0.0000   0.0000   0.0000
     0.0000   0.0000   0.0000   0.0000   0.0000   0.0000   0.0000   0.0000
     0.0000   0.0000   0.0000   0.0000   0.0000   0.0000   0.0000   0.0000
     0.0000   0.0000   0.0000   0.0000   0.0000   0.0000   0.0000   0.0000
     0.0000   0.0000   0.0000   0.0000   0.0000   0.0000   0.0000   0.0000
     0.0000   0.0000   0.0000   0.0000

          k = 0.0000 0.2887 0.2041 (  1996 PWs)   bands (ev):

    -5.8566   8.7434   9.1421   9.1421  17.6874  23.4797  24.7568  24.7568
    33.2726  35.3260  42.7387  45.8002  45.8002  48.8301  54.0169  54.0169
    58.8429  63.7718  65.9600  77.3706  77.3706  81.5619  81.5619  81.9520
    84.2895  85.8013  92.2521  96.1476  96.1476 103.4566 104.9972 104.9972
   106.6680 107.5575 109.3104 111.4343 112.1018 112.1018 114.4347 116.8210
   116.8210 117.9353 123.2761 124.7903 124.7903 131.6029 135.2618 135.5099
   135.5099 135.5436 136.7435 140.3566 144.4903 152.2425 153.2139 153.2139
   158.8776 160.6895 160.6895 163.1684 163.2502 163.2502 172.0300 172.0300
   174.7527 176.4848 177.8464 179.4991 182.1052 182.1052 183.9212 184.9811
   187.0233 187.0233 190.0313 191.2593 194.2050 194.2050 200.9226 202.3048
   202.3048 203.4213 205.3412 207.7030 210.3563 210.3563 211.9401 222.2815
   223.8216 223.8216 226.8951 227.4833 227.9420 228.5733 228.5733 230.8496
   231.4333 232.7385 232.9843 232.9843 237.6593 238.1210 238.6780 238.6780
   241.8952 241.8952 243.0191 243.1162 248.3642 248.3845 248.3845 248.8958
   251.0995 252.9129 253.0238 253.0238 254.3410 255.0397 255.0397 256.3897
   258.8509 258.8509 259.2430 260.0166 265.6938 268.7330 273.7202 273.7202
[...]
     0.0000   0.0000   0.0000   0.0000   0.0000   0.0000   0.0000   0.0000
     0.0000   0.0000   0.0000   0.0000   0.0000   0.0000   0.0000   0.0000
     0.0000   0.0000   0.0000   0.0000   0.0000   0.0000   0.0000   0.0000
     0.0000   0.0000   0.0000   0.0000   0.0000   0.0000   0.0000   0.0000
     0.0000   0.0000   0.0000   0.0000   0.0000   0.0000   0.0000   0.0000
     0.0000   0.0000   0.0000   0.0000

          k = 0.2500-0.7217-0.2041 (  1964 PWs)   bands (ev):

     1.3219   1.3219   4.9718   4.9718  23.8471  23.8471  25.4798  25.4798
    34.4459  34.4459  43.5871  43.5871  56.2730  56.2730  58.6230  58.6230
    61.0409  61.0409  68.5073  68.5073  70.1234  70.1234  80.9370  80.9370
    82.0635  82.0635  82.3696  82.3696  97.2321  97.2321  99.1645  99.1645
   105.9382 105.9382 109.9189 109.9189 113.0593 113.0593 127.1223 127.1223
   127.4677 127.4677 129.6996 129.6996 135.0155 135.0155 136.1313 136.1313
   143.4956 143.4956 144.7686 144.7686 147.2629 147.2629 154.1799 154.1799
   161.2038 161.2038 162.0334 162.0334 165.7700 165.7700 167.2297 167.2297
   170.5306 170.5306 176.2169 176.2169 180.0995 180.0995 188.8598 188.8598
   190.2236 190.2236 192.6329 192.6329 193.0003 193.0003 193.2877 193.2877
   193.5171 193.5171 203.0280 203.0280 207.4001 207.4001 211.3037 211.3037
   212.2715 212.2715 212.4942 212.4942 219.8005 219.8005 221.3421 221.3421
   222.1313 222.1313 224.7027 224.7027 229.6052 229.6052 236.7470 236.7470
   238.8115 238.8115 242.8252 242.8252 249.5870 249.5870 256.7676 256.7676
   262.2588 262.2588 267.2103 267.2103 273.4242 273.4242 274.1212 274.1212
   274.7105 274.7105 279.8950 279.8950 280.0562 280.0562 283.3833 283.3833
   284.5477 284.5477 287.9819 287.9819 288.5068 288.5068 290.5819 290.5819
   291.1298 291.1298 293.0248 293.0248 293.3410 293.3410 296.5168 296.5168
   300.8437 300.8437 305.8857 305.8857 309.3679 309.3679 310.7594 310.7594
   310.9454 310.9454 314.1717 314.1717 318.6317 318.6317 323.1352 323.1352
   326.7537 326.7537 330.8039 330.8039 333.4168 333.4168 335.3155 335.3155
   335.8362 335.8362 336.5805 336.5805 340.5055 340.5055 340.6562 340.6562
   346.6756 346.6756 347.5006 347.5006 348.0833 348.0833 352.9451 352.9451
   354.2333 354.2333 357.8205 357.8205 358.5437 358.5437 360.6478 360.6478
   360.6799 360.6799 362.0705 362.0705 362.6615 362.6615 364.1823 364.1823
   372.9732 372.9732 377.9983 377.9983 379.5371 379.5371 380.0394 380.0394
   395.7778 395.7778 397.5283 397.5283 398.0171 398.0171 403.1666 403.1666
   403.5651 403.5651 404.6396 404.6396 406.2448 406.2448 406.3407 406.3407
   412.2295 412.2295 412.5077 412.5077 417.5226 417.5226 422.8652 422.8652
   424.1356 424.1356 426.4682 426.4682 427.1759 427.1759 427.6917 427.6917
   428.2240 428.2240 428.4356 428.4356 429.2882 429.2882 429.4129 429.4129
   435.3168 435.3168 435.3746 435.3746 447.8056 447.8056 448.5261 448.5261
   451.0839 451.0839 451.9153 451.9153 452.3053 452.3053 453.3686 453.3686
   460.2048 460.2048 460.8631 460.8631 467.1032 467.1032 468.2660 468.2660
   471.0648 471.0648 473.4509 473.4509 477.4545 477.4545 477.6474 477.6474
   483.5063 483.5063 491.1000 491.1000 492.1063 492.1063 493.3424 493.3424
   495.5671 495.5671 496.8393 496.8393 497.9401 497.9401 498.3260 498.3260
   498.9828 498.9828 499.4241 499.4241 499.6193 499.6193 499.8963 499.8963
   500.3898 500.3898 500.5569 500.5569 512.5774 512.5774 513.7361 513.7361
   513.8447 513.8447 519.2821 519.2821 521.5970 521.5970 521.7206 521.7206
   523.1178 523.1178 523.3801 523.3801 523.7035 523.7035 523.9092 523.9092
   532.5580 532.5580 532.8319 532.8319 536.3971 536.3971 538.8459 538.8459
   540.0419 540.0419 542.1056 542.1056 542.5518 542.5518 543.2313 543.2313
   546.6879 546.6880 546.8748 546.8748 547.5819 547.5819 547.6080 547.6080
   549.2997 549.2997 550.3080 550.3080 550.8694 550.8694 551.1344 551.1344
   560.7898 560.7898 561.5873 561.5873 565.5698 565.5698 565.9569 565.9569
   568.3761 568.3761 568.4614 568.4614 572.6037 572.6037 572.8413 572.8413
   575.5868 575.5868 576.0823 576.0823 582.5074 582.5074 583.6965 583.6965
   588.9915 588.9915 589.0317 589.0317 591.5439 591.5439 593.4034 593.4034
   593.5035 593.5035 593.5897 593.5897 609.3509 609.3509 610.1721 610.1721
   610.2180 610.2180 615.6245 615.6245 615.6576 615.6576 615.9583 615.9583
   617.4561 617.4561 617.5402 617.5402 622.3285 622.3285 628.0047 628.0047
   629.1090 629.1090 631.6120 631.6120 632.9898 632.9898 634.2779 634.2779
   637.5463 637.5463 637.8912 637.8912 639.9845 639.9845 640.1110 640.1110
   640.9300 640.9300 640.9932 640.9932 643.9990 643.9990 644.3804 644.3804
   645.1309 645.1309 645.4229 645.4229 652.6990 652.6990 655.8471 655.8471
   659.1322 659.1322 660.0050 660.0050 660.5510 660.5510 660.9976 660.9976
   661.9500 661.9500 662.7489 662.7489 663.6313 663.6313 663.7241 663.7241
   678.7414 678.7414 679.2644 679.2644 682.8268 682.8268 682.9045 682.9045
   683.1537 683.1537 683.5895 683.5895 686.4928 686.4928 688.5828 688.5828
   689.1939 689.1939 691.1484 691.1484 693.0970 693.0970 693.5099 693.5099
   696.5074 696.5074 696.9042 696.9042 702.9732 702.9732 705.9960 705.9960
   707.8103 707.8103 709.1582 709.1582 709.7518 709.7518 709.9768 709.9768
   710.9054 710.9054 711.0084 711.0084 711.5058 711.5058 711.5492 711.5492
   712.5095 712.5095 712.5388 712.5388 727.3479 727.3479 728.2944 728.2944
   734.5024 734.5024 734.5233 734.5233 741.0968 741.0968 742.8779 742.8779
   744.8155 744.8155 750.0384 750.0384 753.8648 753.8648 754.0449 754.0449
   754.6306 754.6306 756.3621 756.3621 756.5683 756.5683 757.6737 757.6737
   757.8518 757.8518 758.9877 758.9877 759.5304 759.5304 760.0309 760.0309
   761.9070 761.9070 762.3409 762.3409 762.3946 762.3946 762.8309 762.8309
   763.5101 763.5101 766.5147 766.5147 770.2191 770.2191 772.4391 772.4391
   774.6799 774.6799 775.8009 775.8009 775.8530 775.8530 775.9626 775.9626
   778.3052 778.3052 778.5044 778.5044 779.4375 779.4375 779.6143 779.6143
   780.4379 780.4379 780.7027 780.7027 781.1970 781.1970 781.2800 781.2800
   786.0817 786.0817 786.3102 786.3102 786.7731 786.7731 786.8813 786.8813
   788.1056 788.1056 788.1751 788.1751 800.1880 800.1880 803.7255 803.7255
   805.7907 805.7907 806.1475 806.1475 806.2612 806.2612 806.3036 806.3036
   812.9903 812.9903 817.6003 817.6003 823.0214 823.0214 823.0524 823.0524
   824.2193 824.2193 825.5588 825.5588 826.4079 826.4079 826.6116 826.6116
   826.9763 826.9763 827.2401 827.2401 827.7587 827.7587 827.8680 827.8680
   828.5348 828.5348 828.5631 828.5631 828.9646 828.9646 829.2019 829.2019
   845.4389 845.4389 846.8786 846.8786 847.2056 847.2056 849.3257 849.3257
   850.1826 850.1826 850.1923 850.1923 851.1847 851.1847 851.4786 851.4786
   852.2028 852.2028 852.2087 852.2087 852.4206 852.4206 852.6279 852.6279
   852.7858 852.7858 852.8527 852.8527 853.0791 853.0791 853.1812 853.1812
   854.5471 854.5471 854.5583 854.5583 871.8732 871.8732 872.2154 872.2154
   874.8741 874.8741 874.9767 874.9767 875.7749 875.7749 876.6465 876.6465
   876.6479 876.6479 876.8797 876.8797 890.3858 890.3858 892.4852 892.4852
   893.2831 893.2831 896.0743 896.0743 896.1046 896.1046 897.2803 897.2803
   898.5652 898.5652 898.7633 898.7633 899.4470 899.4470 899.5674 899.5674
   899.6309 899.6309 899.6492 899.6492 905.7339 905.7339 907.5717 907.5717
   915.6013 915.6013 918.1548 918.1548 921.4505 921.4505 921.9724 921.9724
   922.8881 922.8881 922.9481 922.9481 929.3912 929.3912 929.4505 929.4505
   935.1122 935.1122 938.5290 938.5290 939.1270 939.1270 941.8544 941.8544
   944.1121 944.1121 944.1440 944.1440 945.1643 945.1643 945.3554 945.3554
   945.4376 945.4376 945.4376 945.4376 947.2718 947.2718 947.5444 947.5444
   947.6931 947.6931 947.7875 947.7875 961.2003 961.2003 961.6583 961.6583
   965.8668 965.8668 968.0149 968.0149 968.4968 968.4968 968.5605 968.5605
   969.3057 969.3057 969.4521 969.4521 969.9930 969.9930 970.2403 970.2403
   977.5928 977.5928 977.8670 977.8670 982.8668 982.8668 983.9347 983.9347
   984.1370 984.1370 985.6151 985.6151 986.5036 986.5036 989.2353 989.2353
   990.9579 990.9579 991.0653 991.0653 991.5230 991.5230 991.5847 991.5847
   992.2172 992.2172 992.6966 992.6966 993.4995 993.4995 993.6427 993.6427
   993.8790 993.8790 994.0936 994.0936 994.6056 994.6056 994.7514 994.7514
   994.9229 994.9229 995.0082 995.0082 995.1761 995.1761 995.2061 995.2061
   998.2612 998.2612 998.5001 998.5001 998.5719 998.5719 998.7609 998.7609
  1011.18741011.18741011.76601011.76601013.80741013.80741014.62281014.6228
  1016.41061016.41061016.93761016.93761017.10121017.10121017.25921017.2592
  1017.31001017.31001017.36001017.36001017.38101017.38101017.70931017.7093
  1017.79331017.79331017.80891017.80891037.78611037.78611039.38211039.3821
  1039.74091039.74091040.50761040.50761040.65211040.65211040.74431040.7443
  1041.75571041.75571041.82681041.82681052.21191052.21191052.82111052.8211
  1054.00221054.00221057.17281057.1728

     occupation numbers 
     1.0000   1.0000   1.0000   1.0000   0.0000   0.0000   0.0000   0.0000
     0.0000   0.0000   0.0000   0.0000   0.0000   0.0000   0.0000   0.0000
     0.0000   0.0000   0.0000   0.0000   0.0000   0.0000   0.0000   0.0000
     0.0000   0.0000   0.0000   0.0000   0.0000   0.0000   0.0000   0.0000
     0.0000   0.0000   0.0000   0.0000   0.0000   0.0000   0.0000   0.0000
     0.0000   0.0000   0.0000   0.0000   0.0000   0.0000   0.0000   0.0000
     0.0000   0.0000   0.0000   0.0000   0.0000   0.0000   0.0000   0.0000
     0.0000   0.0000   0.0000   0.0000   0.0000   0.0000   0.0000   0.0000
     0.0000   0.0000   0.0000   0.0000   0.0000   0.0000   0.0000   0.0000
     0.0000   0.0000   0.0000   0.0000   0.0000   0.0000   0.0000   0.0000
     0.0000   0.0000   0.0000   0.0000   0.0000   0.0000   0.0000   0.0000
     0.0000   0.0000   0.0000   0.0000   0.0000   0.0000   0.0000   0.0000
     0.0000   0.0000   0.0000   0.0000   0.0000   0.0000   0.0000   0.0000
     0.0000   0.0000   0.0000   0.0000   0.0000   0.0000   0.0000   0.0000
     0.0000   0.0000   0.0000   0.0000   0.0000   0.0000   0.0000   0.0000
     0.0000   0.0000   0.0000   0.0000   0.0000   0.0000   0.0000   0.0000
     0.0000   0.0000   0.0000   0.0000   0.0000   0.0000   0.0000   0.0000
     0.0000   0.0000   0.0000   0.0000   0.0000   0.0000   0.0000   0.0000
     0.0000   0.0000   0.0000   0.0000   0.0000   0.0000   0.0000   0.0000
     0.0000   0.0000   0.0000   0.0000   0.0000   0.0000   0.0000   0.0000
     0.0000   0.0000   0.0000   0.0000   0.0000   0.0000   0.0000   0.0000
     0.0000   0.0000   0.0000   0.0000   0.0000   0.0000   0.0000   0.0000
     0.0000   0.0000   0.0000   0.0000   0.0000   0.0000   0.0000   0.0000
     0.0000   0.0000   0.0000   0.0000   0.0000   0.0000   0.0000   0.0000
     0.0000   0.0000   0.0000   0.0000   0.0000   0.0000   0.0000   0.0000
     0.0000   0.0000   0.0000   0.0000   0.0000   0.0000   0.0000   0.0000
     0.0000   0.0000   0.0000   0.0000   0.0000   0.0000   0.0000   0.0000
     0.0000   0.0000   0.0000   0.0000   0.0000   0.0000   0.0000   0.0000
     0.0000   0.0000   0.0000   0.0000   0.0000   0.0000   0.0000   0.0000
     0.0000   0.0000   0.0000   0.0000   0.0000   0.0000   0.0000   0.0000
     0.0000   0.0000   0.0000   0.0000   0.0000   0.0000   0.0000   0.0000
     0.0000   0.0000   0.0000   0.0000   0.0000   0.0000   0.0000   0.0000
     0.0000   0.0000   0.0000   0.0000   0.0000   0.0000   0.0000   0.0000
     0.0000   0.0000   0.0000   0.0000   0.0000   0.0000   0.0000   0.0000
     0.0000   0.0000   0.0000   0.0000   0.0000   0.0000   0.0000   0.0000
     0.0000   0.0000   0.0000   0.0000   0.0000   0.0000   0.0000   0.0000
     0.0000   0.0000   0.0000   0.0000   0.0000   0.0000   0.0000   0.0000
     0.0000   0.0000   0.0000   0.0000   0.0000   0.0000   0.0000   0.0000
     0.0000   0.0000   0.0000   0.0000   0.0000   0.0000   0.0000   0.0000
     0.0000   0.0000   0.0000   0.0000   0.0000   0.0000   0.0000   0.0000
     0.0000   0.0000   0.0000   0.0000   0.0000   0.0000   0.0000   0.0000
     0.0000   0.0000   0.0000   0.0000   0.0000   0.0000   0.0000   0.0000
     0.0000   0.0000   0.0000   0.0000   0.0000   0.0000   0.0000   0.0000
     0.0000   0.0000   0.0000   0.0000   0.0000   0.0000   0.0000   0.0000
     0.0000   0.0000   0.0000   0.0000   0.0000   0.0000   0.0000   0.0000
     0.0000   0.0000   0.0000   0.0000   0.0000   0.0000   0.0000   0.0000
     0.0000   0.0000   0.0000   0.0000   0.0000   0.0000   0.0000   0.0000
     0.0000   0.0000   0.0000   0.0000   0.0000   0.0000   0.0000   0.0000
     0.0000   0.0000   0.0000   0.0000   0.0000   0.0000   0.0000   0.0000
     0.0000   0.0000   0.0000   0.0000   0.0000   0.0000   0.0000   0.0000
     0.0000   0.0000   0.0000   0.0000   0.0000   0.0000   0.0000   0.0000
     0.0000   0.0000   0.0000   0.0000   0.0000   0.0000   0.0000   0.0000
     0.0000   0.0000   0.0000   0.0000   0.0000   0.0000   0.0000   0.0000
     0.0000   0.0000   0.0000   0.0000   0.0000   0.0000   0.0000   0.0000
     0.0000   0.0000   0.0000   0.0000   0.0000   0.0000   0.0000   0.0000
     0.0000   0.0000   0.0000   0.0000   0.0000   0.0000   0.0000   0.0000
     0.0000   0.0000   0.0000   0.0000   0.0000   0.0000   0.0000   0.0000
     0.0000   0.0000   0.0000   0.0000   0.0000   0.0000   0.0000   0.0000
     0.0000   0.0000   0.0000   0.0000   0.0000   0.0000   0.0000   0.0000
     0.0000   0.0000   0.0000   0.0000   0.0000   0.0000   0.0000   0.0000
     0.0000   0.0000   0.0000   0.0000   0.0000   0.0000   0.0000   0.0000
     0.0000   0.0000   0.0000   0.0000   0.0000   0.0000   0.0000   0.0000
     0.0000   0.0000   0.0000   0.0000   0.0000   0.0000   0.0000   0.0000
     0.0000   0.0000   0.0000   0.0000   0.0000   0.0000   0.0000   0.0000
     0.0000   0.0000   0.0000   0.0000   0.0000   0.0000   0.0000   0.0000
     0.0000   0.0000   0.0000   0.0000   0.0000   0.0000   0.0000   0.0000
     0.0000   0.0000   0.0000   0.0000   0.0000   0.0000   0.0000   0.0000
     0.0000   0.0000   0.0000   0.0000   0.0000   0.0000   0.0000   0.0000
     0.0000   0.0000   0.0000   0.0000   0.0000   0.0000   0.0000   0.0000
     0.0000   0.0000   0.0000   0.0000   0.0000   0.0000   0.0000   0.0000
     0.0000   0.0000   0.0000   0.0000   0.0000   0.0000   0.0000   0.0000
     0.0000   0.0000   0.0000   0.0000   0.0000   0.0000   0.0000   0.0000
     0.0000   0.0000   0.0000   0.0000   0.0000   0.0000   0.0000   0.0000
     0.0000   0.0000   0.0000   0.0000   0.0000   0.0000   0.0000   0.0000
     0.0000   0.0000   0.0000   0.0000   0.0000   0.0000   0.0000   0.0000
     0.0000   0.0000   0.0000   0.0000   0.0000   0.0000   0.0000   0.0000
     0.0000   0.0000   0.0000   0.0000   0.0000   0.0000   0.0000   0.0000
     0.0000   0.0000   0.0000   0.0000   0.0000   0.0000   0.0000   0.0000
     0.0000   0.0000   0.0000   0.0000   0.0000   0.0000   0.0000   0.0000
     0.0000   0.0000   0.0000   0.0000   0.0000   0.0000   0.0000   0.0000
     0.0000   0.0000   0.0000   0.0000   0.0000   0.0000   0.0000   0.0000
     0.0000   0.0000   0.0000   0.0000   0.0000   0.0000   0.0000   0.0000
     0.0000   0.0000   0.0000   0.0000   0.0000   0.0000   0.0000   0.0000
     0.0000   0.0000   0.0000   0.0000   0.0000   0.0000   0.0000   0.0000
     0.0000   0.0000   0.0000   0.0000   0.0000   0.0000   0.0000   0.0000
     0.0000   0.0000   0.0000   0.0000   0.0000   0.0000   0.0000   0.0000
     0.0000   0.0000   0.0000   0.0000   0.0000   0.0000   0.0000   0.0000
     0.0000   0.0000   0.0000   0.0000   0.0000   0.0000   0.0000   0.0000
     0.0000   0.0000   0.0000   0.0000   0.0000   0.0000   0.0000   0.0000
     0.0000   0.0000   0.0000   0.0000   0.0000   0.0000   0.0000   0.0000
     0.0000   0.0000   0.0000   0.0000   0.0000   0.0000   0.0000   0.0000
     0.0000   0.0000   0.0000   0.0000   0.0000   0.0000   0.0000   0.0000
     0.0000   0.0000   0.0000   0.0000   0.0000   0.0000   0.0000   0.0000
     0.0000   0.0000   0.0000   0.0000   0.0000   0.0000   0.0000   0.0000
     0.0000   0.0000   0.0000   0.0000   0.0000   0.0000   0.0000   0.0000
     0.0000   0.0000   0.0000   0.0000   0.0000   0.0000   0.0000   0.0000
     0.0000   0.0000   0.0000   0.0000   0.0000   0.0000   0.0000   0.0000
     0.0000   0.0000   0.0000   0.0000   0.0000   0.0000   0.0000   0.0000
     0.0000   0.0000   0.0000   0.0000   0.0000   0.0000   0.0000   0.0000
     0.0000   0.0000   0.0000   0.0000   0.0000   0.0000   0.0000   0.0000
     0.0000   0.0000   0.0000   0.0000   0.0000   0.0000   0.0000   0.0000
     0.0000   0.0000   0.0000   0.0000   0.0000   0.0000   0.0000   0.0000
     0.0000   0.0000   0.0000   0.0000   0.0000   0.0000   0.0000   0.0000
     0.0000   0.0000   0.0000   0.0000   0.0000   0.0000   0.0000   0.0000
     0.0000   0.0000   0.0000   0.0000   0.0000   0.0000   0.0000   0.0000
     0.0000   0.0000   0.0000   0.0000   0.0000   0.0000   0.0000   0.0000
     0.0000   0.0000   0.0000   0.0000   0.0000   0.0000   0.0000   0.0000
     0.0000   0.0000   0.0000   0.0000   0.0000   0.0000   0.0000   0.0000
     0.0000   0.0000   0.0000   0.0000   0.0000   0.0000   0.0000   0.0000
     0.0000   0.0000   0.0000   0.0000   0.0000   0.0000   0.0000   0.0000
     0.0000   0.0000   0.0000   0.0000   0.0000   0.0000   0.0000   0.0000
     0.0000   0.0000   0.0000   0.0000   0.0000   0.0000   0.0000   0.0000
     0.0000   0.0000   0.0000   0.0000

     the Fermi energy is    16.3627 ev
     (compare with:    14.9753 eV, computed in scf)

     Writing all to output data dir ./out/aiida.save/
 
     init_run     :      0.02s CPU      0.06s WALL (       1 calls)
     electrons    :    144.53s CPU    154.13s WALL (       1 calls)

     Called by init_run:
     wfcinit      :      0.00s CPU      0.00s WALL (       1 calls)
     wfcinit:wfcr :      4.63s CPU      4.99s WALL (       7 calls)
     potinit      :      0.01s CPU      0.01s WALL (       1 calls)
     hinit0       :      0.01s CPU      0.02s WALL (       1 calls)

     Called by electrons:
     c_bands      :    144.52s CPU    154.09s WALL (       1 calls)
     v_of_rho     :      0.00s CPU      0.00s WALL (       1 calls)
     v_h          :      0.00s CPU      0.00s WALL (       1 calls)
     v_xc         :      0.00s CPU      0.00s WALL (       1 calls)

     Called by c_bands:
     init_us_2    :      0.00s CPU      0.00s WALL (       7 calls)
     init_us_2:cp :      0.00s CPU      0.00s WALL (       7 calls)
     cegterg      :    134.36s CPU    143.01s WALL (       7 calls)

     Called by sum_band:

     Called by *egterg:
     cdiaghg      :    125.34s CPU    133.57s WALL (      50 calls)
     cegterg:over :      3.88s CPU      4.01s WALL (      43 calls)
     cegterg:upda :      1.74s CPU      1.82s WALL (      43 calls)
     cegterg:last :      3.85s CPU      4.17s WALL (      28 calls)
     cdiaghg:chol :      4.16s CPU      4.66s WALL (      50 calls)
     cdiaghg:inve :      6.61s CPU      7.03s WALL (      50 calls)
     cdiaghg:para :     15.46s CPU     17.17s WALL (     100 calls)
     h_psi        :      3.08s CPU      3.30s WALL (      57 calls)
     g_psi        :      0.02s CPU      0.02s WALL (      43 calls)

     Called by h_psi:
     h_psi:calbec :      0.05s CPU      0.06s WALL (      57 calls)
     vloc_psi     :      2.94s CPU      3.13s WALL (      57 calls)
     add_vuspsi   :      0.04s CPU      0.05s WALL (      57 calls)

     General routines
     calbec       :      0.05s CPU      0.06s WALL (      57 calls)
     fft          :      0.00s CPU      0.02s WALL (      10 calls)
     fftw         :      2.64s CPU      2.82s WALL (   66754 calls)
     davcio       :      0.01s CPU      0.33s WALL (      14 calls)
 
     Parallel routines
 
     PWSCF        :   2m24.94s CPU   2m35.66s WALL

 
   This run was terminated on:  11: 3:10   5Dec2023            

=------------------------------------------------------------------------------=
   JOB DONE.
=------------------------------------------------------------------------------=
