
     Program PWSCF v.7.1 starts on  5Apr2024 at 13:10:49 

     This program is part of the open-source Quantum ESPRESSO suite
     for quantum simulation of materials; please cite
         "P. Giannozzi et al., J. Phys.:Condens. Matter 21 395502 (2009);
         "P. Giannozzi et al., J. Phys.:Condens. Matter 29 465901 (2017);
         "P. Giannozzi et al., J. Chem. Phys. 152 154105 (2020);
          URL http://www.quantum-espresso.org", 
     in publications or presentations arising from this work. More details at
     http://www.quantum-espresso.org/quote

     Parallel version (MPI), running on     8 processors

     MPI processes distributed on     1 nodes
     221979 MiB available memory on the printing compute node when the environment starts
 
     Reading input from pw_mp-1138_nscf_k60_E116.in
Warning: card &IONS ignored
Warning: card / ignored
Warning: card &CELL ignored
Warning: card / ignored

     Current dimensions of program PWSCF are:
     Max number of different atomic species (ntypx) = 10
     Max number of k-points (npk) =  40000
     Max angular momentum in pseudopotentials (lmaxx) =  4

     Atomic positions and unit cell read from directory:
     out/mp-1138.save/
     Atomic positions from file used, from input discarded
 
 
     R & G space division:  proc/nbgrp/npool/nimage =       8
     Subspace diagonalization in iterative solution of the eigenvalue problem:
     one sub-group per band group will be used
     scalapack distributed-memory algorithm (size of sub-group:  2*  2 procs)

 
     Parallelization info
     --------------------
     sticks:   dense  smooth     PW     G-vecs:    dense   smooth      PW
     Min         119     119     35                 2446     2446     389
     Max         120     120     36                 2450     2450     391
     Sum         955     955    283                19579    19579    3119
 
     Using Slab Decomposition
 


     bravais-lattice index     =            2
     lattice parameter (alat)  =       7.7166  a.u.
     unit-cell volume          =     114.8711 (a.u.)^3
     number of atoms/cell      =            2
     number of atomic types    =            2
     number of electrons       =        10.00
     number of Kohn-Sham states=         1200
     kinetic-energy cutoff     =     116.0000  Ry
     charge density cutoff     =     464.0000  Ry
     Exchange-correlation= PBE
                           (   1   4   3   4   0   0   0)

     celldm(1)=   7.716558  celldm(2)=   0.000000  celldm(3)=   0.000000
     celldm(4)=   0.000000  celldm(5)=   0.000000  celldm(6)=   0.000000

     crystal axes: (cart. coord. in units of alat)
               a(1) = (  -0.500000   0.000000   0.500000 )  
               a(2) = (   0.000000   0.500000   0.500000 )  
               a(3) = (  -0.500000   0.500000   0.000000 )  

     reciprocal axes: (cart. coord. in units 2 pi/alat)
               b(1) = ( -1.000000 -1.000000  1.000000 )  
               b(2) = (  1.000000  1.000000  1.000000 )  
               b(3) = ( -1.000000  1.000000 -1.000000 )  


     PseudoPot. # 1 for F  read from file:
     /usr/scratch4/magr4985/FGWC/FGWC/pseudo/SG15/F.upf
     MD5 check sum: 1d8275f47d602dd53cad6bcdc0eda7dc
     Pseudo is Norm-conserving, Zval =  7.0
     Generated using ONCVPSP code by D. R. Hamann
     Using radial grid of  602 points,  4 beta functions with: 
                l(1) =   0
                l(2) =   0
                l(3) =   1
                l(4) =   1

     PseudoPot. # 2 for Li read from file:
     /usr/scratch4/magr4985/FGWC/FGWC/pseudo/SG15/Li.upf
     MD5 check sum: c91dd4cee9943b136ac3b62641658f95
     Pseudo is Norm-conserving, Zval =  3.0
     Generated using ONCVPSP code by D. R. Hamann
     Using radial grid of  602 points,  4 beta functions with: 
                l(1) =   0
                l(2) =   0
                l(3) =   1
                l(4) =   1

     atomic species   valence    mass     pseudopotential
        F              7.00    18.99840     F ( 1.00)
        Li             3.00     6.94100     Li( 1.00)

     48 Sym. Ops., with inversion, found



   Cartesian axes

     site n.     atom                  positions (alat units)
         1           Li  tau(   1) = (   0.0000000   0.0000000   0.0000000  )
         2           F   tau(   2) = (  -0.5000000   0.5000000   0.5000000  )

     number of k points=     8  Gaussian smearing, width (Ry)=  0.0005
                       cart. coord. in units 2pi/alat
        k(    1) = (   0.0000000   0.0000000   0.0000000), wk =   0.0312500
        k(    2) = (  -0.2500000   0.2500000  -0.2500000), wk =   0.2500000
        k(    3) = (   0.5000000  -0.5000000   0.5000000), wk =   0.1250000
        k(    4) = (   0.0000000   0.5000000   0.0000000), wk =   0.1875000
        k(    5) = (   0.7500000  -0.2500000   0.7500000), wk =   0.7500000
        k(    6) = (   0.5000000   0.0000000   0.5000000), wk =   0.3750000
        k(    7) = (   0.0000000  -1.0000000   0.0000000), wk =   0.0937500
        k(    8) = (  -0.5000000  -1.0000000   0.0000000), wk =   0.1875000

     Dense  grid:    19579 G-vectors     FFT dimensions: (  40,  40,  40)

     Estimated max dynamical RAM per process >      96.01 MB

     Estimated total dynamical RAM >     768.04 MB

     The potential is recalculated from file :
     out/mp-1138.save/charge-density

     Starting wfcs are random

     Band Structure Calculation
     ParO style diagonalization

     ethr =  5.00E-06,  avg # of iterations =  5.6

     total cpu time spent up to now is      286.2 secs

     End of band structure calculation

          k = 0.0000 0.0000 0.0000 (  2421 PWs)   bands (ev):

   -40.3273 -19.1534   0.6161   0.6161   0.6161   9.3852  24.0781  24.0781
    24.0781  24.6575  24.6575  24.6575  27.5084  31.6753  31.6753  44.3774
    44.3774  44.3774  47.8763  64.4512  64.4512  64.4512  65.9098  67.8025
    67.8025  68.4154  68.4154  68.4154  68.4917  68.4917  68.4917  84.1516
    84.1516  89.9394  89.9394  89.9394  93.5904  93.5904  93.5904  95.1452
    95.1452  95.1452  96.0721  96.0721  96.0721  96.5442  97.6679  97.6679
    97.6679  98.5335  98.5335  98.5335  99.0790  99.0790  99.1959 101.9228
   101.9228 101.9228 102.9540 121.0080 121.0080 121.0080 125.8884 133.5356
   133.5356 141.2984 141.2984 141.2984 147.0636 155.0377 155.0377 155.0377
   160.8734 160.8734 161.2300 161.2300 161.2300 161.8642 161.8642 161.8642
   165.0358 167.4524 167.9723 167.9723 167.9723 168.9583 168.9583 168.9583
   169.1038 169.1038 169.7520 169.7520 169.7520 169.7941 169.7941 169.9126
   169.9126 169.9126 172.6848 172.6848 172.6848 174.0696 174.0696 174.0696
   175.6067 175.6067 175.6067 176.6368 176.6368 177.4009 177.4009 177.4009
   177.9169 195.9498 195.9498 195.9498 199.0694 204.5904 204.5904 204.5904
   205.6421 210.1152 210.1152 210.1152 210.2855 210.2855 211.4056 211.4056
   211.4056 211.9423 211.9423 211.9423 211.9752 211.9752 211.9752 212.4218
   212.4218 213.4488 213.4488 213.4488 221.8810 221.8810 224.1460 233.5530
   233.5530 233.5530 233.9126 233.9126 233.9126 235.7155 236.6375 237.9154
   237.9154 237.9154 238.2747 238.2747 238.2747 239.0154 239.0154 239.0154
   239.3108 239.3108 239.3108 242.7926 242.8332 242.8332 242.8332 242.8430
   242.8430 261.2120 261.2120 261.2120 270.0442 278.0040 278.0040 278.0040
   279.2618 279.2618 279.5951 279.5951 279.5951 286.1345 286.1345 286.1345
   290.6534 297.1020 297.1020 297.1020 298.6915 298.6915 300.6329 300.6329
   300.6329 304.0895 304.0895 304.0895 305.3561 305.3561 305.3561 306.6412
   306.6412 306.6412 307.1734 307.2577 307.2577 309.0239 309.0239 309.0239
   309.5276 309.5276 309.5276 310.1428 311.7143 311.7143 312.1119 312.1119
   312.1119 312.9055 312.9055 312.9055 313.0643 313.0643 313.0643 313.1156
   313.1156 313.7472 313.7472 313.7472 313.9492 314.0287 314.0287 314.0287
   314.0550 314.0550 314.4392 314.4392 314.4392 314.6821 314.8079 314.8079
   314.8079 315.6922 319.1568 319.3996 319.3996 319.3996 319.6408 319.6408
   319.7479 319.7479 319.7479 320.2688 320.2688 320.2688 320.5059 320.5059
   320.5746 320.5746 320.5746 341.8992 341.8992 341.8992 346.0357 346.7273
   346.7273 352.5552 352.5552 352.5552 352.7612 352.7612 352.7612 353.0262
   353.0262 353.0262 353.2266 353.2266 353.2266 356.9837 356.9837 357.1017
   357.1017 357.1017 357.2906 366.9052 366.9052 366.9052 374.1765 374.1765
   374.1765 374.5525 374.5751 381.8517 381.8517 381.8517 382.0340 382.0340
   382.4469 382.4469 382.4469 382.5791 382.5791 382.5791 382.5957 382.5957
   382.5957 382.7511 382.7511 385.5775 385.5775 385.5775 389.2749 389.2749
   389.4705 389.4705 389.4705 389.6491 389.8704 389.8704 389.8704 390.2127
   390.2127 390.2127 390.2812 390.2812 390.2812 390.5173 390.9499 390.9499
   390.9499 391.0992 391.0992 417.8203 417.8203 417.8203 420.6034 424.7241
   424.7241 424.7241 424.9009 426.5103 426.5103 426.5103 435.4006 435.9172
   435.9172 443.4066 443.4066 443.4066 443.7192 443.7192 443.7192 444.6771
   444.6771 444.6771 445.8341 445.8341 447.1834 452.8749 452.8749 452.8749
   454.2540 454.2540 454.2540 454.4168 454.4168 454.4168 454.5431 454.5431
   454.5431 454.6580 454.6580 454.6580 456.1086 456.5675 456.5675 456.5675
   456.8668 456.8668 456.8668 457.0779 457.0779 457.1389 457.1389 457.1389
   457.6842 457.6842 457.6842 458.1418 458.1418 458.1620 458.2154 458.2154
   458.2154 459.2056 459.2599 459.2599 459.2599 459.2764 459.2764 462.9853
   462.9853 462.9853 463.0836 463.0836 463.3727 463.3727 463.3727 463.6046
   463.6046 463.6046 463.8473 485.1131 485.1131 485.1131 490.1827 491.0887
   491.0887 491.0887 491.4601 495.0351 495.0351 495.3206 495.3206 495.3206
   495.5894 495.5894 495.5894 495.9023 495.9023 495.9023 496.3146 496.3146
   496.3146 496.5680 496.5680 499.9407 499.9407 500.2344 500.2344 500.2344
   500.3480 500.3480 500.3480 500.5916 500.5916 500.5916 500.6143 500.6143
   500.6143 500.8806 500.8806 501.6498 501.7940 501.7940 501.7940 501.9803
   501.9803 501.9803 502.2050 505.2606 505.2606 505.2606 511.7121 515.0962
   515.0962 515.4882 515.4882 515.4882 517.4010 517.4010 517.4010 518.0606
   518.4736 518.4736 518.4736 519.3621 519.3621 519.3621 521.3226 521.3226
   521.3226 521.8344 522.3187 522.3187 522.3187 523.0982 523.0982 523.3687
   523.3687 523.3687 523.8918 526.3412 526.3412 526.9717 526.9717 526.9717
   527.0260 527.0260 527.0260 527.0853 527.0853 527.0853 527.7995 527.7995
   527.8309 527.8309 527.8309 528.3809 528.5277 528.5277 528.5277 528.5609
   528.5609 529.7786 529.7786 529.7786 529.7858 529.7858 529.7858 529.9971
   529.9971 529.9971 530.0020 530.0020 530.0020 530.6600 530.6600 530.7040
   530.7040 530.7040 530.7663 561.7705 561.7705 561.7705 564.5978 565.0893
   565.0893 587.1551 587.1551 587.1551 594.2872 594.4387 594.4387 594.4387
   594.8221 595.4462 595.4462 595.8444 595.8444 595.8444 596.1741 596.4225
   596.4225 596.4225 596.4361 596.4361 596.4361 596.5758 596.5758 596.5758
   596.7401 596.7401 596.7401 596.9816 596.9816 599.4979 599.4979 600.6266
   600.6266 600.6266 600.6630 600.6630 600.6630 600.8072 601.1271 605.1213
   605.1213 605.1213 605.3401 605.3401 605.3401 605.4022 605.4022 605.4022
   605.5218 605.5218 605.5218 608.3377 608.3377 608.3491 608.3491 608.3491
   608.3562 608.3562 608.4245 608.4245 608.4245 608.4822 608.4822 608.4822
   608.5666 608.5666 608.5666 609.5217 609.5217 609.5967 609.5967 609.5967
   609.7167 634.3674 634.3674 634.3674 637.8157 638.2800 638.2800 638.2800
   638.4678 638.4678 638.5471 638.5471 638.5471 641.6537 641.6537 641.6537
   641.7666 641.7666 642.3256 642.3256 642.3256 642.3874 642.7212 642.7212
   642.7212 642.7339 642.7339 642.7339 642.9260 642.9260 642.9260 643.2395
   643.3619 643.3619 643.3619 643.4371 643.4371 652.7491 652.7491 652.7491
   655.9697 658.2695 658.2695 658.2695 658.8662 658.8662 658.8662 658.8709
   658.8709 666.7970 667.5200 667.5200 667.5200 667.6157 667.6157 667.6157
   667.6388 667.6388 667.8270 667.8270 667.8270 668.0139 668.0139 668.0139
   668.1812 668.1812 668.1812 668.1989 668.9099 672.0366 672.0366 672.1001
   672.1001 672.1001 672.2346 672.2346 672.2346 672.3864 672.3864 672.3864
   672.4957 674.3457 674.3457 674.3457 674.3519 674.3519 674.4813 674.4813
   674.4813 674.6035 674.6035 674.6035 674.7273 675.6946 675.6946 675.6946
   676.2813 677.5384 677.5384 677.5384 677.9334 677.9334 677.9334 677.9410
   677.9410 678.5943 678.8834 678.8834 678.8834 679.0941 679.0941 679.0941
   679.2565 679.2565 679.2795 679.2795 679.2795 709.3124 709.3124 709.3124
   711.3166 711.5826 711.5826 712.5841 712.5841 712.5841 712.6461 712.6461
   712.6461 712.7068 712.7068 712.7068 712.9369 712.9369 712.9369 713.4961
   713.4961 713.6725 713.6725 713.6725 713.8294 722.1601 722.1601 722.1601
   724.5227 725.4544 725.4544 732.1270 732.1270 732.1270 733.4537 733.4537
   733.4537 733.4637 733.8241 738.2431 738.2431 738.2431 738.4738 738.4738
   738.4738 738.5195 738.5195 738.5195 738.6168 738.6168 738.6168 738.6554
   738.6554 738.7899 738.7899 742.7589 742.7589 742.7589 742.7799 742.7799
   742.7799 742.9107 742.9107 742.9107 743.0023 743.0023 743.0023 743.5784
   743.5784 743.7350 743.7350 743.7350 743.7522 743.7522 743.8020 743.8020
   743.8020 743.8611 743.8611 743.8611 743.9908 743.9908 743.9908 745.2345
   745.2345 745.2345 745.2630 745.2639 745.2639 745.2639 745.3495 745.4385
   745.4385 745.4385 746.5339 747.7371 747.7595 747.7595 747.7595 747.9147
   747.9147 747.9149 747.9149 747.9149 747.9558 747.9558 748.2329 748.2329
   748.2329 748.2486 748.3884 748.3884 748.3884 748.4833 748.4833 748.4833
   748.7896 748.7896 748.7896 748.9983 748.9983 752.4021 752.4021 752.5311
   752.5311 752.5311 752.7956 752.9310 752.9310 752.9310 752.9327 752.9327
   752.9327 753.1305 753.1305 753.1305 753.1327 753.1327 753.1327 753.4035
   753.4035 753.4972 753.4972 753.4972 753.6519 779.5976 779.5976 779.5976
   780.3652 780.4195 780.5063 780.5063 780.5063 788.6090 788.6090 788.6464
   788.6464 788.6464 788.6542 788.6542 788.6542 788.6794 788.6794 788.6794
   788.7065 788.7065 788.7616 788.7616 788.7616 801.8124 801.8124 801.8124
   803.4130 803.6959 803.6959 807.2402 807.2402 807.2402 807.3296 807.3296
   807.3296 807.3999 807.3999 807.3999 807.4017 807.4017 807.4017 812.0163
   812.0163 812.1159 812.1159 812.1159 812.2882 816.2733 816.2981 816.2981
   816.2981 816.3185 816.3185 818.2891 818.2891 818.2891 818.3016 818.3016
   818.3016 818.3591 818.3591 818.3591 818.3888 818.3888 818.3888 819.2463
   819.2463 819.2852 819.2852 819.2852 819.3726 855.6763 855.6763 855.6763
   856.6036 856.9388 856.9388 856.9388 857.0587 857.8769 857.8769 857.9347
   857.9347 857.9347 858.0243 858.0243 858.0243 858.1126 858.1126 858.1126
   858.1279 858.1279 858.1279 858.2318 858.2318 873.1603 873.1603 873.1603
   874.6742 875.6915 875.6915 875.6915 876.7004 876.7004 876.7358 876.7358
   876.7358 878.1901 879.5394 879.5394 879.5394 880.2580 880.2580 880.2580
   881.2000 884.1781 884.1781 884.1781 884.3677 884.3677 884.4887 884.4887
   884.4887 884.7848 884.7848 884.9516 884.9516 884.9516 885.0234 885.0234
   885.0234 885.5619 885.8328 885.8328 885.8328 886.1017 886.1017 886.1017
   886.1745 887.8611 887.8611 887.8611 888.3708 888.3708 888.4026 888.4026
   888.4452 888.4452 888.4452 888.5023 888.5023 888.5023 888.5373 888.5373
   888.5373 888.6006 888.6006 888.6006 889.3258 889.7640 889.7640 889.9582
   890.0250 890.0250 890.0250 890.0595 890.0595 890.0595 890.0755 890.0755
   890.0808 890.0808 890.0808 890.4907 890.4907 890.4907 890.5401 890.5401
   890.5401 890.7321 890.7321 890.8440 890.8440 890.8440 891.1737 896.1800
   896.1800 896.1800 896.1885 896.1885 896.1885 896.2265 896.2265 896.2426
   896.2426 896.2426 896.3146 922.4768 922.4768 922.4768 923.1734 923.3432
   923.3432 926.7482 926.7482 926.7482 926.9361 926.9361 926.9361 927.3538
   927.3538 927.3538 927.3637 927.6560 927.6560 928.1946 928.6101 928.6101
   928.6101 928.8376 928.8376 928.8376 928.9825 928.9825 928.9825 929.0983
   929.0983 929.8178 929.8178 929.8178 930.0987 930.0987 930.0987 930.1299
   930.1299 930.1299 930.4544 930.4544 930.4544 932.6235 932.6235 932.7751
   932.7751 932.7751 932.8171 932.8692 932.8692 932.8692 932.9578 932.9578
   932.9578 933.3144 933.3144 933.3144 933.3318 933.3318 933.4192 933.4192
   933.4192 933.5163 933.5163 933.5163 933.6093 934.4084 934.4084 934.4852
   934.4852 934.4852 934.6396 949.3858 949.3858 949.3858 950.4305 950.7991
   950.7991 950.7991 950.9887 950.9887 951.0086 951.0086 951.0086 952.4348
   952.4348 952.4348 952.5865 952.5865 952.5865 952.6439 952.6439 952.9417
   952.9417 952.9417 953.2818 956.2394 956.6278 956.6278 956.6278 956.9770
   956.9770 956.9770 957.4247 957.4247 957.4537 957.4537 957.4537 958.2744
   958.5735 958.5735 958.5735 958.7778 958.7778 958.7778 958.9481 958.9481
   958.9500 958.9500 958.9500 962.0342 962.0342 962.0466 962.0466 962.0466
   962.1969 962.1969 962.1969 962.3018 962.3018 962.3018 962.3353 962.4572

          k =-0.2500 0.2500-0.2500 (  2439 PWs)   bands (ev):

   -40.3030 -18.9594  -0.6800   0.5067   0.5067  10.6762  18.2473  20.8531
    20.8531  27.1226  27.7372  27.7372  35.1319  35.1319  36.9369  39.9123
    45.5742  45.5742  47.8165  53.6349  53.6349  61.8889  65.9976  65.9976
    66.2604  67.7573  67.7573  70.1606  74.8818  76.2529  76.2529  78.4114
    81.3015  81.3015  82.3729  83.8048  84.5231  84.5231  88.8845  88.8845
    91.9242  91.9242  92.3598  94.3539  94.3579  94.3579 102.0282 104.3729
   104.3729 108.1077 108.8820 108.8820 109.7377 109.7377 110.8059 112.9764
   115.7168 115.7168 115.9069 119.4838 119.9475 119.9475 128.0600 128.0600
   129.3397 134.4022 137.3022 137.3022 141.3475 144.9598 144.9598 146.6547
   146.6547 148.4303 149.3836 149.3836 151.2235 154.2510 154.2510 157.6709
   158.0230 158.0230 160.2911 161.3649 162.5534 162.5534 165.2957 166.9702
   166.9702 167.7548 168.9218 168.9218 170.3396 173.5382 173.5382 173.6671
   174.4624 176.9412 176.9412 177.9763 177.9786 177.9786 184.1549 184.1549
   185.7407 186.2408 186.2408 188.6387 188.6387 188.9410 190.1732 193.8453
   193.8453 195.4644 195.5328 196.5200 196.5200 196.8752 198.0130 198.0130
   201.0787 201.0787 201.5508 203.7892 203.7892 205.4992 208.2568 208.2568
   210.3278 211.2340 211.2340 211.8115 213.6514 213.6514 214.5575 216.0544
   216.0544 217.2813 222.7049 222.7049 223.0976 223.7961 225.8552 225.8552
   226.4327 226.8846 226.8846 228.9952 230.9661 230.9661 231.3955 237.4544
   237.4544 239.1381 243.7169 243.7169 247.4218 249.2974 249.2974 249.9895
   249.9895 251.4696 252.7886 258.0560 259.0510 259.0510 260.2852 260.2852
   262.2580 262.3042 262.3042 266.4355 268.2130 268.2130 270.1540 270.1540
   270.1944 272.0343 272.0343 272.4005 276.3537 276.3537 276.6098 277.6055
   278.3311 278.3311 279.8216 279.8216 280.5539 281.6100 281.6100 281.9034
   281.9972 284.2104 286.9314 286.9314 289.5458 289.5458 290.5660 291.1504
   291.1504 292.0278 294.2272 294.2272 294.8635 303.2684 303.2684 303.8966
   305.6033 305.6033 305.8992 308.1989 308.3291 308.3291 308.6419 309.0082
   310.5721 310.5721 311.6109 311.6109 312.3209 313.5537 313.5537 314.8559
   314.8559 315.5413 316.1341 316.1341 317.8831 320.4208 320.4208 320.7816
   321.9743 322.0598 322.0598 322.3324 324.7879 324.7879 325.0873 325.2366
   325.2366 326.7330 330.3847 330.3847 330.6880 331.3123 333.4498 333.4498
   334.5073 334.5073 334.9560 334.9560 335.4981 338.4974 338.6943 338.6943
   338.9159 339.8618 339.8618 342.9458 342.9458 343.3805 345.2658 346.3316
   346.7793 346.7793 346.9623 346.9623 347.8436 350.9926 350.9926 352.3332
   352.3332 354.1203 354.1203 355.0245 355.1903 358.6166 361.0641 361.0641
   361.4036 363.3150 363.3150 363.6575 365.1178 365.1178 365.2865 366.4105
   366.4105 367.7057 367.7057 368.1803 371.7767 374.3483 374.3483 374.6249
   376.7979 376.7979 377.8216 379.7028 379.7028 381.9738 383.7143 384.7734
   384.7734 384.8099 387.4179 387.4179 392.5873 392.5873 393.0527 394.1824
   395.4465 395.4465 398.5311 399.9203 399.9203 401.4856 401.4856 402.7043
   404.2880 404.2880 404.5552 406.6772 406.6772 406.8203 407.5537 407.5537
   408.7067 410.9369 413.3030 413.3030 415.1083 415.9078 415.9078 417.2663
   417.2663 417.7402 418.7513 418.7513 418.8989 419.7535 419.7535 420.1458
   421.0710 421.0710 421.6119 424.1067 424.2685 424.2685 424.3826 432.5993
   432.5993 433.6260 433.6260 433.9680 434.6238 436.4650 436.4650 437.3118
   437.3927 437.3927 442.9188 443.4144 443.4144 443.7012 443.7012 444.7714
   445.4362 445.4362 447.3654 448.1102 448.1102 449.4966 449.9160 451.1496
   451.1496 453.2173 453.2173 453.4264 455.8010 458.5571 459.2482 459.2482
   459.5270 459.5270 460.4455 460.4455 460.5627 460.8176 464.8136 464.8136
   465.4438 465.5266 465.5266 466.7844 468.8885 468.8885 469.0333 470.1748
   470.1748 471.5338 471.5338 471.6357 472.3548 472.3548 472.6525 476.6535
   476.6535 477.2787 478.9108 480.5012 480.5012 481.2392 481.8231 481.8231
   481.9535 483.5881 484.0269 484.0269 485.8166 485.8215 485.8215 486.7412
   486.7412 487.2542 487.2542 487.5010 487.5679 490.0073 490.2253 490.2253
   493.1674 493.1674 493.4099 494.3250 494.3250 496.4951 497.0938 497.1355
   497.1355 497.4161 497.4161 497.5171 498.9344 499.8704 499.8704 501.3227
   501.3359 501.3359 502.1060 502.1751 502.1751 502.2998 502.7613 502.7613
   502.8354 502.9755 502.9755 504.9594 506.2313 506.2313 509.7759 509.7759
   510.2246 510.4245 510.4245 510.6365 512.6294 512.6294 512.7909 515.4414
   515.4414 515.4876 516.2349 516.2349 516.4783 516.4783 516.5195 516.6837
   517.4935 517.4935 517.5968 525.5883 528.8571 528.8571 531.5319 531.5319
   532.9134 533.5341 533.8339 533.8339 535.7826 536.1098 536.1098 536.8228
   538.0365 538.0575 538.0575 539.5919 539.5919 539.7753 539.9658 540.3638
   540.3638 542.3943 542.3943 542.6694 545.0256 546.8795 546.8795 549.5652
   549.9344 549.9344 550.5303 550.5303 550.6543 551.3074 551.3074 555.8335
   556.1401 556.1401 557.1827 557.1827 557.6317 557.8165 557.8165 558.0340
   562.2531 562.8764 562.8764 563.7407 563.7579 563.7579 565.4324 565.4324
   565.6927 566.0918 566.0918 566.0934 566.8861 566.8861 567.0559 573.6182
   573.8727 573.8727 575.2128 576.0471 576.0471 576.9684 576.9684 577.3126
   579.4874 579.4874 579.7419 580.8996 581.8233 582.1583 582.1583 583.0349
   583.0349 583.2897 584.5385 586.2350 586.2350 587.6672 587.6672 590.3497
   590.3497 590.6207 592.8712 592.8712 593.4552 596.7355 596.7355 597.0070
   598.4878 601.6351 601.6351 601.6793 603.0162 603.0162 603.1430 604.5222
   604.5222 605.2960 607.6209 607.6209 607.6911 607.9969 608.0161 608.0161
   613.0029 613.0029 613.4196 613.5035 613.5035 614.4061 615.7066 617.2256
   617.2256 620.8445 620.8671 620.8671 624.2883 624.2883 624.4149 625.3986
   625.3986 625.7940 626.6660 626.6660 627.5515 628.8580 628.8580 629.4507
   629.8107 630.5313 630.5313 632.8394 632.8394 632.8618 634.2870 634.5138
   634.5138 635.5199 635.9109 635.9109 637.0926 637.0926 637.4075 639.2761
   639.2761 640.6155 640.6155 640.6814 640.7234 646.1822 646.1822 646.2210
   647.5303 648.6728 648.6728 652.0731 652.0731 653.2854 653.6829 653.7760
   653.7760 654.2741 654.2741 654.4564 654.6376 657.0471 657.0471 658.2549
   659.3019 659.3019 660.7283 660.7283 661.0141 661.9890 661.9890 662.1026
   664.0663 666.4729 666.5405 666.5405 666.8853 667.5412 667.5412 667.6208
   669.6807 669.6807 670.1495 670.5983 670.5983 670.6856 672.6468 672.6468
   672.9941 672.9941 673.2576 673.2576 673.2877 674.0926 674.0926 674.1336
   677.7877 677.7877 679.3523 679.3836 679.5307 679.5307 680.0682 680.0682
   680.1058 682.7297 682.8573 682.8573 685.1056 685.1056 685.2142 685.3827
   685.6135 685.6135 685.6859 687.1183 687.1183 688.0766 688.0766 688.3784
   689.2289 689.2289 689.2934 691.5073 691.5073 691.7795 692.1025 692.2324
   692.2324 693.4782 694.3858 694.3858 695.7163 695.7163 696.0093 696.5581
   696.5581 696.8277 697.9990 698.0185 698.0185 698.1538 698.1538 698.4756
   701.3819 701.3819 701.5151 702.9245 703.4450 703.4450 704.3489 704.3489
   704.7255 706.2902 706.5831 706.5831 707.5016 707.5016 707.5590 709.8382
   711.1028 712.6510 712.6510 713.8130 713.8236 713.8236 718.2499 718.2499
   718.9232 718.9232 719.3109 720.0580 720.0580 720.1109 721.2164 721.2164
   721.4031 724.7093 724.9543 724.9543 725.5516 725.5516 725.5834 725.8822
   725.8822 725.9370 728.1860 729.4253 729.4253 730.7687 730.7687 731.3198
   732.4545 732.4545 732.7825 732.8222 732.8222 732.8846 735.6985 735.6985
   735.9008 737.8459 738.6088 738.6088 739.0703 740.9585 740.9585 741.0241
   741.9423 743.1099 743.1099 744.4788 744.4788 744.8342 745.1892 745.1892
   745.2626 749.7236 749.7236 749.7281 749.8108 750.1787 750.1787 750.3103
   750.6181 750.6181 756.3600 756.3600 756.5575 758.0724 758.0724 758.3747
   762.5075 762.6830 762.6830 763.6265 763.6265 763.6957 764.5314 764.5314
   765.0904 765.6640 766.0512 766.0512 766.5145 766.5742 766.5742 766.8506
   766.8506 766.9144 767.4754 767.8857 767.8857 768.2157 768.3815 768.3815
   768.7722 768.7722 769.0003 772.3512 772.3512 772.4112 778.3184 778.3184
   778.4485 778.8507 778.8507 778.8702 779.5811 779.5811 779.8827 780.8145
   781.0547 781.0547 782.1241 782.1241 782.1845 782.6111 782.6111 782.6689
   784.9692 785.1967 785.1967 785.9084 786.0843 786.0843 786.2626 787.6203
   787.6203 792.5014 792.5014 792.5417 794.8179 794.9814 794.9814 796.0642
   796.0642 796.1204 796.9781 797.0934 797.0934 797.9254 797.9254 797.9754
   801.6754 802.1129 802.1129 802.3269 803.1673 807.4994 807.4994 808.4157
   808.4157 808.4797 811.8614 811.8614 812.1414 812.4430 812.4430 813.8952
   813.8952 813.9297 814.4480 814.4663 814.4663 817.7836 817.7836 818.0748
   819.7891 819.7891 819.9088 822.3669 822.3896 822.3896 823.6138 823.6138
   823.6888 824.3852 824.4366 824.4366 827.6304 828.0121 828.0121 830.4620
   830.6505 830.6505 831.5109 831.5109 831.8451 834.6446 834.6446 834.7877
   837.5401 837.5401 837.6079 844.8740 844.8916 844.8916 845.6290 845.6290
   846.1995 846.2442 846.6091 846.6091 847.7076 847.7424 847.7424 848.0137
   848.0137 848.0520 851.8535 851.8535 852.0075 853.9442 857.0531 858.0740
   858.0740 858.1329 858.1329 858.1389 858.9616 858.9616 859.2370 859.4224
   859.4224 859.4537 860.6731 861.0504 861.0504 862.4989 862.4989 862.5086
   862.5086 862.8901 863.2419 863.2419 863.3827 872.5494 872.5494 872.9062
   873.4655 873.4655 873.5228 873.6140 873.6791 873.7162 873.7162 873.8524
   873.8524 875.5005 875.5005 875.8550 876.7570 876.9473 876.9473 877.1400
   877.1400 877.2312 877.2312 877.3207 877.6162 879.2578 879.6031 879.6031
   880.6829 880.6983 880.6983 880.8997 882.0987 882.0987 885.1829 885.1829
   885.7313 885.8467 885.8467 885.8672 886.5183 889.1851 889.1851 889.2004
   889.7673 889.7673 889.8391 892.4921 892.4921 892.5134 892.8941 892.8941
   892.9717 893.1518 893.1518 893.1837 894.9602 894.9602 894.9938 895.8340
   895.8340 895.8893 897.9282 897.9282 897.9824 899.5459 899.5459 899.6334
   900.5449 900.5449 900.5891 901.8456 901.9612 901.9612 902.5724 902.5724
   902.6360 903.8031 903.8031 904.0546 904.0828 904.0828 904.1024 905.8509
   905.9342 905.9342 910.0796 910.1150 910.1150 914.0550 914.0550 914.1390
   914.2960 914.2960 914.3215 915.9414 915.9414 915.9530 920.7431 920.7431
   920.8059 923.6790 923.6790 923.6843 923.7312 923.7312 923.7396 927.5768
   927.6516 927.6516 927.8589 927.8589 927.9387 930.3146 930.9154 930.9154
   931.0431 931.6770 931.6770 931.7463 931.7463 931.8036 932.1474 932.1641
   932.1641 932.9839 932.9839 933.0461 933.9554 933.9554 934.3028 934.5061
   934.5061 934.5426 936.1333 936.2516 936.2516 940.5077 940.5315 940.5315
   940.5510 940.6901 940.6901 941.5869 941.5869 941.5970 945.6319 945.6319
   945.6972 946.1366 946.1366 946.1799 947.3637 947.3637 947.4002 947.7806
   947.7806 947.8037 948.7021 950.4012 950.4012 950.4479 950.5323 950.5323
   950.5538 951.2318 951.2318 952.2763 953.6555 953.6555 953.9503 954.5959
   954.5959 954.7333 956.6689 956.6689 956.9622 957.2067 957.2067 957.3923
   958.2000 958.2000 959.3419 960.9201 960.9201 960.9999 962.2235 962.2235
   963.6496 964.2633 964.2633 964.2693 966.4193 966.4193 969.3632 969.3632
   969.4149 969.6745 969.6745 969.8501 970.5984 970.5984 970.6998 972.7567
   972.8538 972.8538 973.3238 973.3238 973.4205 975.0333 975.2512 975.2512

          k = 0.5000-0.5000 0.5000 (  2452 PWs)   bands (ev):

   -40.2786 -18.7518  -1.7621   0.4036   0.4036  11.2455  16.8812  19.2627
    19.2627  30.4358  30.9861  30.9861  33.4446  36.9768  36.9768  44.9210
    44.9210  46.5774  52.1833  52.4558  52.4558  54.9482  60.6329  60.6329
    64.9150  67.8012  70.0832  70.0832  71.3180  71.3180  74.3289  74.3775
    74.6348  74.6348  76.2141  85.9362  85.9362  89.0666  89.9909  89.9909
    91.3062  95.9820  97.9955  97.9955 101.9751 102.6354 102.6354 107.0549
   107.9497 107.9497 108.8331 108.8331 115.4697 118.6546 118.6546 120.6217
   122.4585 122.4585 122.9456 125.8617 125.8617 126.5939 126.5939 127.3424
   128.0399 128.0399 128.0474 128.0474 129.3248 129.3942 138.6928 141.0737
   141.0737 141.1157 146.1273 146.7784 146.7784 147.1103 147.1103 157.1296
   157.1296 157.4619 157.8190 160.5772 160.5772 161.3118 162.7731 163.7410
   163.7410 164.8313 167.9108 170.4442 170.4442 172.8134 173.4834 173.4834
   177.0841 177.0841 177.6221 178.4430 178.4430 181.2961 182.5751 182.5751
   182.5782 182.5782 182.6232 182.6340 191.6952 192.7481 192.7481 194.8765
   194.8765 196.5504 197.2129 198.8111 198.8111 198.9323 198.9323 199.8504
   199.8648 208.6709 208.6709 210.8179 212.9591 213.0339 213.0339 214.7791
   214.7791 215.0520 215.0520 216.1347 217.3709 217.3709 217.7022 218.0388
   218.0388 218.0822 220.2402 227.3444 227.9203 227.9203 228.0945 229.4199
   229.4199 230.2676 235.5398 235.5398 235.5577 235.5577 236.9405 236.9405
   237.0705 237.0705 237.4185 237.4268 243.6530 243.6530 248.3126 248.8220
   250.0638 250.0638 252.1849 253.6779 253.6779 254.2809 254.2809 254.4593
   254.6433 257.2101 257.2101 261.9069 261.9069 268.5567 268.5567 268.7840
   268.8698 268.8698 269.4704 270.8562 274.9376 277.6417 277.6417 281.0626
   281.4064 282.8269 282.8269 283.6093 284.1576 285.0330 285.0330 285.4612
   285.4612 286.4020 286.8949 286.8949 288.7198 288.7198 289.0413 289.6624
   289.6624 289.8682 289.8682 289.8934 290.1406 290.4153 290.4153 290.4235
   290.4235 291.5223 301.9287 301.9287 302.2072 303.7017 303.7017 304.7672
   305.2691 307.3797 307.3797 307.5065 307.5065 308.0922 308.6194 308.6194
   308.6535 308.6535 308.7456 308.9102 316.1146 316.7849 316.7849 318.8217
   318.8217 321.4838 322.3979 324.3835 325.1661 325.1661 325.3262 325.3262
   325.4293 325.6149 327.5505 333.6740 333.6740 337.0200 337.0200 339.6295
   341.3003 341.9526 341.9526 342.0760 342.0769 342.0769 342.3449 342.3449
   342.5163 343.1058 343.1058 343.7276 345.1653 345.1653 345.1910 345.1910
   345.2432 345.3647 345.9654 355.0049 355.0049 356.9368 356.9368 358.6338
   362.6955 365.7312 365.7312 367.3575 370.1959 370.8877 370.8877 372.3860
   372.3860 373.3537 373.3537 376.4959 377.2180 377.3267 377.3267 377.5140
   377.5140 379.0850 379.2328 379.2328 379.3729 379.3729 379.3789 379.8657
   379.8657 379.9165 379.9165 380.1288 380.1602 380.9034 388.9512 390.0746
   390.0746 390.4052 390.9616 391.9746 391.9746 395.2562 395.2562 395.2988
   395.2988 395.2993 395.5618 395.7400 395.7400 395.8236 395.8236 397.7542
   397.7542 397.7591 397.7903 397.8003 397.8003 397.9183 399.2979 399.2979
   399.3018 399.3018 400.5719 400.5726 404.7809 408.0515 414.3492 414.3492
   415.2291 415.4303 415.4303 415.9969 416.3851 416.3851 416.4553 416.4553
   423.0438 423.0438 423.9604 426.3595 427.9685 427.9685 428.2622 428.6448
   428.6448 428.9459 428.9459 431.9955 433.1309 433.1309 433.2054 433.3617
   433.4674 433.4674 434.2083 434.2083 434.3920 434.3920 434.7098 434.8610
   439.0203 439.0203 444.1317 444.1317 444.6589 445.3027 447.7458 448.1521
   448.1521 450.1118 450.3929 450.3929 450.8660 450.9304 450.9304 450.9664
   450.9664 451.3293 451.3293 451.4101 451.4101 451.4165 451.4167 451.4879
   465.0437 465.0437 465.9425 466.6958 467.1627 467.1627 468.1015 468.1015
   468.1557 468.7857 468.7857 468.9506 468.9506 468.9622 469.1207 469.1207
   469.2207 469.4273 472.8736 479.6295 481.3164 481.3164 481.6876 483.4264
   483.4264 485.4427 485.4427 485.4812 485.4812 485.5553 485.5808 485.6177
   485.6188 485.6188 485.6847 485.6847 485.8165 486.3249 489.2771 489.2771
   489.3509 489.3509 492.5290 494.9073 494.9073 496.4217 496.4217 499.7364
   500.2466 500.8826 500.8826 500.9355 500.9355 501.8253 503.2981 503.7039
   503.7039 504.4700 504.4977 504.4977 506.0114 506.0343 506.0343 506.2230
   506.2230 506.4527 508.1160 508.1697 508.1697 508.2246 508.2246 508.2591
   515.5549 518.5297 518.5297 519.2461 519.2461 519.6835 523.5468 523.5468
   523.7674 523.7674 524.0563 524.1468 529.6388 533.5086 533.5086 536.1920
   536.1920 537.2368 537.4970 538.9136 539.4513 539.4513 539.4566 539.4566
   539.5975 540.2972 540.3319 540.3319 540.3445 540.3445 540.4132 540.4825
   541.8848 541.8848 541.9094 541.9094 542.0186 542.1295 549.4788 550.8612
   550.8612 551.2419 551.3550 551.9861 551.9861 553.1017 553.1017 553.2654
   553.2654 554.6958 554.6958 555.1743 555.2103 555.2103 555.5902 555.8681
   558.4855 558.6092 559.2296 559.3309 559.6609 559.6609 559.7730 559.7730
   559.8220 559.8220 559.9172 559.9172 559.9827 559.9827 560.0190 560.0190
   560.3843 560.3983 561.0092 561.0092 561.0543 561.0543 561.2786 561.2955
   574.1989 574.4474 574.4474 575.0205 575.0205 575.3254 576.7085 577.0114
   577.0114 577.0941 577.0941 577.2662 577.2678 577.2889 577.2889 577.3775
   577.3775 577.3780 579.3957 579.3957 579.4107 579.4107 579.5175 579.5259
   592.7267 592.7267 592.9850 593.5582 593.5582 594.2866 594.4000 594.4084
   594.7150 594.7150 594.7725 594.7725 601.1973 605.1438 608.1346 608.1346
   608.8805 609.1550 609.1550 609.7092 611.2637 611.2637 611.4152 611.4152
   611.5880 611.5880 611.6111 611.6111 611.8978 611.9208 612.0509 612.0509
   612.2171 612.2573 612.2573 612.6756 615.4047 615.4047 615.4064 615.4064
   616.8328 616.8343 627.2319 627.6507 627.8434 627.8434 628.8604 629.1174
   629.1174 629.3589 629.3589 629.4476 629.4476 629.8726 633.6619 633.6619
   633.6662 633.6662 633.9253 633.9275 637.5370 637.5370 639.3851 640.6964
   640.6964 641.2600 642.0460 642.5790 642.5790 643.0087 643.2999 643.6198
   643.6198 644.0030 648.3086 648.3086 648.4837 649.0364 649.0364 649.0493
   651.2310 651.2310 651.2347 651.2347 660.2536 660.2536 660.6840 662.0460
   662.0460 662.4689 663.2269 663.2269 663.5216 663.5216 663.5450 664.2128
   665.2298 665.2298 665.2633 665.3439 665.8039 665.8039 665.9365 666.2301
   666.3144 666.3144 666.5234 666.5234 667.4805 667.5211 667.5239 667.5239
   667.6028 667.6371 667.6371 667.7041 667.7041 667.7084 667.7084 667.7438
   668.6861 668.6861 668.7222 668.7438 668.7438 668.8031 669.7093 669.7093
   669.7271 669.7271 669.7717 669.8692 682.1972 682.1972 682.2184 682.2211
   682.2211 683.1552 683.5976 683.5976 683.6644 683.6644 683.6804 683.6865
   686.1459 686.1459 686.1459 686.2087 686.2575 686.2575 696.2679 697.6785
   697.8396 697.8396 698.1087 698.1087 700.7544 700.7544 701.3390 701.3390
   701.3411 701.5833 701.7679 701.8730 701.8730 701.8913 701.8913 701.8933
   703.9751 703.9751 704.0099 704.0099 704.1287 704.1287 704.1724 704.2031
   704.2059 704.6332 704.7172 704.7172 704.8687 704.8687 704.8744 704.9598
   704.9598 705.0343 717.7886 719.0474 719.4984 719.4984 719.7339 719.7339
   719.8769 719.9545 720.6106 720.6106 720.6307 720.6307 721.1849 721.3774
   721.3774 721.4228 721.4540 721.4540 721.5870 721.5870 721.5923 721.5923
   721.6051 721.6326 731.6655 731.8406 735.2261 735.2261 735.6507 735.6507
   735.7097 736.0133 741.0524 741.0524 741.0607 741.0607 741.3943 741.3943
   741.4251 741.4251 741.4392 741.5127 751.1565 751.5617 751.5617 751.9640
   751.9640 752.6341 752.7355 753.0429 753.0429 753.0627 753.0627 753.0728
   755.3737 755.5116 755.5116 755.6493 755.6493 755.6613 755.8149 755.8149
   755.8182 755.8182 755.8276 755.8739 757.2088 757.2088 757.2146 757.2146
   757.4920 757.5195 759.3528 759.3528 759.3730 759.3730 759.3948 759.4414
   767.5074 767.7711 768.5089 768.5089 768.6473 768.6473 773.6666 773.6666
   773.7100 773.7100 773.7803 773.8225 775.5919 775.8661 775.8661 775.8846
   776.0414 776.0414 776.3494 776.3494 776.3738 776.3738 776.4936 776.5029
   778.0657 778.0657 778.0810 778.0810 778.1174 778.1433 790.2232 790.5547
   791.6807 791.6807 791.6917 791.6917 791.7115 791.7115 791.8676 791.9525
   791.9525 792.0235 792.6731 792.6731 792.7153 792.7153 792.7550 792.8220
   795.6121 795.6121 795.6154 795.6154 796.0016 796.0022 804.1676 804.2905
   804.2905 804.4160 804.4160 804.4751 808.9298 809.2073 810.0188 810.0188
   810.1484 810.2177 810.2177 810.4029 810.7684 810.7979 810.7979 810.8168
   810.8168 810.8216 811.1495 811.1555 811.1555 811.1636 811.1636 811.2882
   823.8232 823.9957 823.9957 824.5198 824.5198 824.5500 825.4336 825.4336
   825.4708 825.5484 825.5523 825.5523 826.5988 826.5988 826.8079 826.8079
   827.1621 827.3950 827.4103 827.7133 827.7133 827.7442 827.7657 827.8106
   827.9487 827.9487 828.1351 828.1351 828.2038 828.2038 830.6995 830.7109
   830.8326 830.8326 830.8580 830.8580 831.3831 831.3831 831.4052 831.4052
   831.4923 831.5096 831.8649 831.8649 831.8707 831.8707 832.0094 832.0212
   847.6142 847.6414 847.7380 847.7380 847.7760 847.7760 848.2031 848.2031
   848.2259 848.2259 848.3112 848.3214 848.3492 848.3944 848.4980 848.4980
   848.5291 848.5291 858.9768 858.9768 859.5436 859.5436 859.5741 859.7935
   863.5415 863.5648 863.5648 863.5811 863.5811 863.6265 865.2563 865.2563
   865.3351 865.3394 865.3968 865.3968 866.1769 866.1769 866.2117 866.2369
   866.2369 866.3339 866.4732 866.4732 866.6410 866.6753 866.6873 866.6873
   873.8463 874.4452 876.5905 876.5905 876.7168 876.7879 876.7879 877.1432
   878.6069 878.6069 878.6505 878.6505 880.6965 881.4355 882.5167 882.5167
   882.6854 882.6854 882.8282 882.8282 883.2247 883.2247 883.2275 883.2388
   883.9320 883.9413 883.9527 883.9527 883.9549 883.9549 884.1972 884.2465
   884.2465 884.2661 884.2661 884.2774 885.0590 885.0590 885.0711 885.0711
   885.5350 885.5358 886.8280 886.8280 886.8285 886.8285 887.8677 887.8678
   901.2549 901.2549 901.2592 901.2592 901.3753 901.4378 901.5643 901.5643
   901.5817 901.6548 901.6548 901.7054 916.4529 916.5190 916.5892 916.5892
   916.6523 916.6523 917.0022 917.0022 917.1558 917.1558 917.2217 917.2742
   917.5479 917.5479 917.5540 917.6333 917.6333 917.7904 918.1282 918.1282
   918.1712 918.1712 918.3004 918.3039 918.3325 918.4806 918.4806 918.5244
   918.5779 918.5779 919.2696 919.2696 919.4074 919.4945 919.4945 919.4975
   931.1106 931.2149 935.3156 935.3156 935.3297 935.3672 935.3672 935.4922
   935.9003 935.9243 935.9659 935.9659 935.9802 935.9802 936.0924 936.0924
   936.1470 936.1573 936.1573 936.2315 936.5945 936.7017 936.7017 936.7268
   936.7268 936.7412 937.3185 937.3185 937.3197 937.4133 937.4133 937.4796
   938.9217 938.9217 939.1192 939.1680 939.1680 939.1740 939.3747 939.4484
   939.4484 939.5585 939.5585 939.5991 939.7148 939.7148 939.7192 939.7192
   940.3988 940.3988 940.4031 940.4031 940.4953 940.4970 952.1879 952.1879
   952.2435 952.3299 952.3379 952.3379 957.5347 957.5347 957.5430 957.5430
   957.5986 957.6027 972.4876 972.4902 972.4902 972.5763 972.5763 972.6294
   972.6501 972.6501 972.6557 972.7179 972.7179 972.7295 973.7475 973.7475
   973.8050 973.9550 973.9560 973.9560 974.0444 974.0444 974.0649 974.0649
   974.0905 974.1014 984.9541 985.0024 985.0133 985.0133 985.0692 985.0692

          k = 0.0000 0.5000 0.0000 (  2429 PWs)   bands (ev):

   -40.2957 -18.8712  -0.7337   0.1426   0.1426  11.6834  19.2045  20.0059
    20.8356  20.8356  33.0553  33.0553  33.8008  34.5851  37.4574  42.9335
    43.1757  43.1757  49.8600  52.6172  55.3534  55.3534  63.7872  66.3274
    66.8784  66.8784  67.0458  73.0290  73.0290  73.3055  73.3880  80.9984
    83.7101  83.8623  83.8623  85.2762  85.2762  85.3513  88.2763  88.4787
    89.6299  89.6299  90.4466  90.6761  96.8714  96.8714  99.9594 102.5382
   105.7890 107.6123 107.8824 107.8824 108.9807 111.3877 113.3065 113.3065
   122.0911 122.9609 122.9609 123.8453 123.8453 125.8095 127.2081 127.8744
   134.1925 134.2161 134.2161 137.2232 137.9799 139.3875 139.3875 140.9667
   143.1602 143.7233 143.7233 144.9825 149.3922 149.3922 152.4171 154.8013
   155.2128 156.4525 156.4525 157.2608 160.2817 165.1801 165.1801 166.4625
   169.8419 171.4397 173.7184 173.7184 175.5415 175.5415 175.6973 175.9674
   176.0898 176.7927 176.7927 176.8305 177.7248 178.5427 184.0235 184.0235
   184.5466 189.1556 189.5315 190.6834 190.6834 192.6870 192.9458 192.9458
   193.6459 194.5459 194.6755 194.6755 195.4993 196.0629 196.0629 196.2564
   196.5998 198.1309 198.1309 199.0833 199.8506 201.4337 205.0903 205.0903
   210.6521 210.6611 210.6611 211.1153 215.1082 215.5125 215.5125 218.2836
   219.4013 223.8403 224.8226 224.8226 226.4722 231.3483 231.8212 231.8212
   232.3643 233.0005 233.1317 233.1317 233.1707 233.5449 240.6664 240.6664
   243.3980 243.3980 243.7428 244.3891 245.8776 246.8899 247.8281 247.8281
   248.9133 251.4243 251.5891 251.5891 251.7413 252.1352 256.3514 256.3708
   256.3708 262.2750 263.3466 263.3861 263.3861 265.1588 267.7887 268.6460
   268.6460 269.0803 270.3304 270.3304 271.1952 275.4156 277.5834 278.5987
   278.7009 278.7756 278.7756 282.0092 282.0092 282.6537 283.7174 285.1005
   285.1005 285.5712 285.5712 285.7304 286.0683 287.3725 287.7910 287.7910
   288.4117 290.1074 293.0709 293.1853 293.1853 294.9984 296.5381 301.0651
   301.0651 301.7455 302.0223 302.0223 302.8809 302.8809 303.0021 303.0239
   303.2939 305.2691 306.8944 306.8944 311.4447 312.9770 313.3605 316.2879
   316.2879 317.7987 318.0381 318.0616 318.0616 318.2811 321.8616 321.8826
   321.8826 322.2238 326.3534 329.8670 329.8670 330.5803 332.5785 333.1008
   333.1008 335.1170 335.1170 335.8658 335.9355 336.0777 336.7020 336.9097
   336.9097 337.1493 338.8113 338.8113 339.6087 339.8201 341.6867 341.8455
   341.8455 342.1443 345.0703 348.4820 348.5152 348.5152 350.6106 350.6106
   352.6836 352.6836 352.9444 353.5850 353.7131 354.0777 354.5739 354.5739
   354.6093 355.0104 355.2618 355.2618 355.3961 356.9986 357.6818 357.8028
   357.8028 358.0907 358.1361 358.1789 358.1789 358.6099 359.0020 360.8220
   360.8220 361.7109 367.3397 371.2328 371.5547 371.5547 372.5616 373.3550
   373.4194 373.4194 374.2147 374.5603 374.9566 374.9566 375.2057 376.2914
   387.5248 388.5486 388.5486 391.2286 392.7459 392.7459 396.1614 396.7847
   396.7847 398.3231 400.4103 401.7197 402.7944 402.7944 404.0925 404.8320
   408.1122 408.1122 408.2722 408.6702 409.0903 409.0903 409.3318 409.3318
   409.8816 409.9725 410.1844 410.1844 410.3013 410.8351 412.6733 412.7229
   412.7229 412.8327 413.4506 413.7044 413.9393 413.9393 414.2678 423.7501
   423.7501 424.4660 426.6674 427.2347 427.4323 427.4323 428.1100 429.3287
   429.3287 433.4305 435.2224 438.9684 440.3564 440.3564 441.2227 442.7589
   442.7589 443.1543 443.3960 445.7542 445.7542 446.1785 447.0670 447.7050
   448.2090 448.2090 448.6981 449.5659 449.6779 449.7861 449.7861 449.8794
   453.4927 453.4927 456.8540 457.1956 457.5565 457.5565 459.6736 459.6736
   460.2620 460.7177 461.6640 462.7067 462.7220 462.7220 463.2326 463.2430
   463.3353 463.3353 464.0218 464.0294 464.1421 464.1421 464.2138 464.8774
   464.8774 465.1530 465.4703 465.8075 465.8947 465.8947 465.9739 466.6008
   468.4609 468.4778 468.4778 468.5001 468.7339 468.7339 469.7540 475.7718
   476.3277 476.3277 478.1279 480.3232 480.6839 480.6839 481.1317 483.8494
   483.9145 483.9145 484.2579 484.7906 484.7906 484.8085 484.8613 486.8054
   488.6872 488.6872 491.3493 492.7996 493.5761 493.5761 494.5529 494.7347
   497.3619 498.6213 498.6213 499.5826 499.8387 499.8489 499.8489 500.4208
   502.5551 503.8099 504.0594 504.0594 504.1182 504.2299 504.2299 504.3023
   504.4360 511.8776 511.8776 512.9676 514.1010 515.4770 515.8557 515.8557
   516.5511 516.5511 516.6955 516.7945 516.7945 516.9026 516.9026 517.0351
   517.5992 519.8205 519.8205 520.1182 520.1182 520.1415 520.1891 524.6068
   526.2436 532.5122 532.5122 533.5284 534.3692 534.3692 534.8105 535.0404
   535.5730 535.6347 535.7192 535.7192 535.8219 536.1527 536.1527 536.4782
   536.5201 536.5201 536.7123 536.8549 537.1748 537.1748 537.3623 539.6930
   546.9596 548.1874 548.1874 549.4425 549.5388 550.6226 550.6226 551.6245
   551.6245 551.6730 552.1243 552.5063 553.2347 553.2347 553.3117 553.3669
   556.3115 556.8021 556.8021 557.2564 558.6203 558.6531 558.6531 558.6679
   562.1762 562.1762 564.8388 566.3160 567.7136 568.2254 568.2254 568.3160
   569.1799 569.3820 569.3820 570.0231 570.4305 571.1363 571.1363 571.2465
   571.5311 571.9156 572.2025 572.2025 572.4444 572.4444 572.8694 573.5493
   574.4599 574.4890 574.4890 574.6023 574.8926 574.9731 574.9731 575.1065
   579.9025 584.6000 584.6000 585.5507 585.5507 586.1672 586.4810 589.0343
   589.4439 589.5694 589.5694 589.8026 593.1956 595.1195 595.1195 596.0433
   597.7813 600.6122 600.6122 602.0942 604.1812 604.1812 605.8501 606.1131
   607.0772 607.1289 607.1289 607.3409 611.8582 612.1931 612.1931 612.5865
   619.1973 619.1973 619.6692 620.8631 622.9687 622.9687 622.9720 624.3272
   624.6492 624.6492 624.6635 624.6683 624.8862 624.8862 625.1693 625.5171
   625.6561 625.6561 625.8099 625.9405 626.1985 626.4022 626.4242 626.4242
   626.6961 626.6961 626.7131 626.7147 626.9044 626.9620 626.9620 627.2323
   627.7483 627.8519 627.8519 627.9361 630.9864 631.0092 631.0092 631.0193
   635.9624 636.9101 636.9101 638.6891 639.2183 640.8302 641.8281 641.8981
   641.8981 641.9741 643.0477 643.0477 643.9124 645.7704 646.4323 646.4434
   646.4434 646.5425 654.5602 654.5602 655.9524 656.2003 658.8727 659.9634
   659.9634 660.6065 661.3713 661.3713 661.5985 661.9160 662.8349 662.8349
   662.8832 662.9287 663.0812 663.1139 663.1139 663.2472 663.3288 663.7870
   663.7870 663.8037 663.8609 663.8609 663.8795 663.8795 663.9545 664.0144
   668.8796 672.0656 674.1114 674.4382 674.4382 675.2737 677.8394 678.3139
   678.3139 678.4790 678.4790 678.6711 678.8174 678.8424 679.0454 679.5242
   679.5242 679.7122 679.7122 680.0795 681.2841 681.6736 681.6736 681.9671
   683.0111 683.0111 683.0406 683.0479 683.6481 683.8090 683.8090 683.9442
   684.0867 694.1119 694.3502 694.3502 695.0581 696.6143 696.6143 696.9810
   697.4855 697.7164 697.7164 697.9862 698.0281 698.0891 698.1404 698.1404
   698.3357 707.2267 708.0528 708.0528 709.6650 711.2330 711.2330 712.4810
   712.7848 713.5328 713.7223 713.7223 714.1079 714.5613 714.5875 714.5875
   715.0184 715.1097 715.2067 715.4882 715.4882 715.9744 716.3499 716.5531
   716.5531 716.6796 716.6796 716.6837 717.2878 717.3559 717.3559 717.4698
   717.7500 718.9462 718.9462 718.9683 719.0541 720.6116 720.7033 720.7033
   720.7779 722.6450 722.6450 723.3770 723.7605 724.1001 728.4461 728.4461
   728.4639 729.1884 729.1884 729.6006 729.9091 730.0395 730.0395 730.5000
   733.1322 733.2133 733.8116 733.8116 734.3883 734.4800 734.7862 734.7862
   735.0211 735.3418 735.3418 735.3927 735.4249 735.4930 735.4930 735.5287
   735.5387 737.0046 737.0141 737.0141 737.0557 737.4122 738.2926 738.3159
   738.3159 738.3637 739.0118 739.1719 739.1719 739.3675 739.4147 739.4147
   740.3602 748.3316 748.3316 748.5917 748.6773 751.3113 751.3113 751.3772
   751.6113 752.8874 752.8874 752.9176 752.9705 756.8805 756.9004 756.9004
   756.9652 765.1497 765.1497 765.6221 765.7008 769.4534 769.4541 769.4541
   769.5929 770.5146 770.5146 770.7069 770.9642 773.2843 773.3106 773.3106
   773.3801 782.0087 782.0087 782.5035 782.7600 784.5441 786.0593 786.0593
   786.5335 786.8284 787.0438 787.1072 787.2228 787.2228 787.4122 787.4122
   787.6754 787.7010 787.7010 787.9823 788.0214 789.3850 789.6829 789.6829
   790.1381 790.3511 790.5416 790.5416 790.6766 792.5603 792.5671 792.5671
   792.6104 801.0331 802.2954 803.6885 803.6885 803.9436 804.4939 804.4939
   805.0261 805.0839 805.2000 805.2016 805.2016 805.2662 805.2781 805.9506
   805.9506 806.5114 809.0745 809.1119 809.1315 809.1315 809.2310 814.5728
   814.7482 814.7482 815.1177 820.5120 821.3016 821.3016 822.0455 822.0968
   822.3281 822.3281 822.7982 823.0466 823.1169 823.1169 823.5274 823.5807
   823.5807 823.7883 823.9557 824.3178 824.3178 824.3379 824.3788 824.4295
   824.4295 824.5114 824.5525 824.5733 824.5733 824.6614 824.7130 825.3218
   825.3323 825.3323 825.3610 826.4795 826.4795 826.8435 827.3663 827.3663
   827.8347 828.9521 829.0289 829.0289 829.0866 831.3229 835.3762 837.8268
   837.8268 837.9328 838.0596 839.9598 839.9598 840.0903 840.1931 840.3987
   840.5245 840.5245 840.6180 841.4151 841.4270 841.4270 841.5422 842.1233
   842.1233 844.8904 844.8904 844.9079 844.9114 845.0056 845.0252 845.0252
   845.0863 846.3953 847.2065 847.2359 847.2359 847.2799 859.1843 859.5940
   859.5940 860.1469 860.1849 860.1849 860.3743 860.5310 860.5845 860.7460
   860.7460 860.7959 860.8009 861.0957 861.0957 861.3443 872.4514 873.2688
   873.2688 873.9367 874.5976 874.5976 874.8870 874.9035 878.1527 878.2703
   878.2703 878.3165 878.5416 879.2291 879.2291 879.4778 879.4972 879.4972
   879.5771 880.1030 882.9253 883.1420 883.1420 883.3801 886.4511 888.6027
   888.6027 889.6362 890.2129 890.6997 890.6997 891.0976 891.4300 891.4300
   891.7641 895.5156 895.9821 896.0305 896.0965 896.0965 896.1323 896.1476
   896.1476 896.1687 896.1687 896.1840 896.2268 896.4580 896.7300 896.9246
   896.9246 897.1112 897.6213 897.6213 897.8006 897.8112 898.5169 898.5169
   898.5277 898.5296 899.7149 901.7675 901.7675 902.7245 909.5080 909.5080
   909.6174 909.6969 912.0073 912.0073 912.1585 912.2846 913.9141 913.9141
   913.9510 914.0030 914.0030 914.0584 914.1835 914.3891 914.4798 914.5931
   914.5931 914.6459 914.9796 915.0003 915.0122 915.0122 917.4976 917.5185
   917.5185 917.5530 919.2984 919.3295 919.3295 919.3693 928.2635 928.3733
   928.3733 928.6318 930.5990 930.5990 930.8083 930.9107 931.8545 931.9882
   931.9993 931.9993 932.0188 932.2042 932.2042 932.4200 932.4200 932.4257
   932.5320 932.5474 935.0947 935.1653 935.1653 935.2580 941.6646 941.7421
   941.7421 941.7806 946.0236 946.9352 946.9352 947.5625 947.5625 947.6178
   947.6917 947.7544 948.8476 948.9832 948.9832 949.1205 949.1467 949.1467
   949.2186 949.4684 949.4871 949.5843 949.5843 949.6815 949.6823 949.9062
   949.9062 950.0733 950.7579 950.9746 950.9746 950.9911 951.2446 951.2623
   951.2623 951.3572 951.4494 951.4494 951.4606 951.5767 952.3027 952.3152
   952.3152 952.3219 953.3652 953.3652 953.3759 953.3810 953.3915 953.3915
   953.4170 953.4242 955.2651 955.3235 955.3235 955.3603 965.2544 965.4389
   965.4389 965.4584 967.1690 967.5541 967.5541 967.8323 968.7746 969.0848
   969.0848 969.1533 969.3984 969.3984 969.4832 969.5059 969.9739 969.9822
   969.9822 970.0199 971.0148 971.0404 971.0404 971.1056 982.1654 983.7796

          k = 0.7500-0.2500 0.7500 (  2416 PWs)   bands (ev):

   -40.2722 -18.6355  -1.6069  -0.4689   0.0319  13.3183  16.1550  18.9409
    19.8618  24.2284  32.8692  33.6663  36.5881  38.1963  38.3450  43.3435
    45.2378  49.3000  50.2549  51.9014  54.7800  56.0317  56.5245  58.7921
    61.3479  62.1033  67.1543  67.4052  69.7189  71.8620  74.9657  75.1999
    75.9354  80.8881  82.7014  83.9564  85.4732  88.7396  89.1646  89.6242
    94.5925  95.4237  98.1599 100.8776 101.7800 103.1241 105.2113 105.4919
   106.5833 107.8018 108.5135 109.9556 114.8456 115.1718 118.1890 118.8878
   119.9150 121.3846 121.6622 121.6873 126.0535 128.7447 129.1427 130.2326
   131.8246 132.9053 133.0914 133.8927 135.1554 136.3595 137.6985 138.1611
   140.5958 140.9204 144.0607 145.6357 146.1715 147.2561 149.9375 151.0450
   153.1969 153.7195 153.8979 155.7029 155.7633 158.1784 160.0262 160.5320
   161.3926 164.3612 165.7230 166.6436 168.7260 171.2350 172.2701 172.7495
   175.6007 176.4266 178.0144 178.0387 179.3168 180.3758 181.1264 183.5779
   183.9688 186.0074 186.3505 186.9005 188.5798 189.2547 191.3199 194.2089
   194.3756 197.5163 198.2972 199.3035 199.7671 201.2755 201.5061 202.7960
   205.0386 206.6998 207.9175 210.5355 211.2961 211.7532 212.8065 213.9549
   214.9841 216.0024 217.6391 218.1337 218.3077 221.9060 222.6766 223.0062
   223.4604 225.6717 226.2402 226.5225 227.8940 228.5801 231.2871 231.7782
   232.1291 232.9227 234.7818 235.1169 237.4154 238.6124 239.2963 239.6277
   239.9532 242.0168 243.4904 244.0412 244.3772 245.5366 246.2048 247.2949
   248.5632 250.6508 250.8323 251.6113 252.8519 254.1585 254.7470 255.0957
   255.8245 256.7759 257.4645 258.8835 259.2810 259.8803 262.6551 263.9167
   264.8633 265.3280 266.3172 267.5796 268.2679 269.2346 270.4041 270.7837
   271.0729 271.9712 274.3998 275.5474 279.5116 279.6353 280.9820 282.7849
   283.2455 283.8937 284.4988 284.8923 286.1355 288.0209 288.3797 288.9433
   289.0477 289.4452 290.3445 290.6579 291.1723 292.1147 294.4334 295.6833
   297.2564 297.9963 298.1662 298.6258 301.7495 303.0212 304.4218 305.6913
   306.4388 306.9219 307.2747 308.1015 309.5764 310.4731 311.2587 312.1984
   313.2169 313.5036 315.0116 315.8784 316.7124 318.4605 319.0943 320.1679
   320.4811 321.4155 322.5530 322.5916 324.3505 326.6068 329.7849 330.8443
   331.3046 331.9780 333.4291 334.4889 334.7059 336.7374 336.9895 337.6584
   337.7763 338.1845 338.4963 338.7832 339.2901 341.0746 342.0118 343.3468
   345.6109 348.3985 349.2389 349.3476 350.9668 351.5038 352.7169 353.4028
   354.1981 354.8971 356.4312 356.4953 358.2514 358.3134 358.6975 358.9333
   359.7391 360.0521 362.2888 363.3119 363.9085 364.9704 365.7504 365.8774
   367.2842 368.0639 368.2940 369.0617 369.8684 373.3972 373.4067 374.4468
   374.6645 374.9770 375.1031 375.1696 376.8037 377.1403 377.5128 380.2463
   382.8061 383.6451 384.0115 384.0299 385.0069 385.3617 385.5679 386.4866
   386.7219 387.3842 388.2881 388.7299 388.8145 390.6936 391.6796 392.8083
   393.0244 393.5249 395.0334 395.5337 397.0204 398.2979 399.5083 399.9648
   400.6400 402.9744 403.5447 403.5974 404.0184 404.2486 405.4102 406.2640
   406.4131 407.1002 407.1486 410.0968 410.4234 411.8560 412.7826 413.0370
   413.2568 413.3833 414.0374 415.1313 416.1393 417.5926 418.4557 418.8975
   418.9936 419.3437 419.8821 423.2407 423.8804 424.7819 426.6053 427.7970
   427.9791 428.3373 429.1926 429.7025 430.6261 431.4806 431.8654 431.9330
   432.7288 433.2531 434.0593 434.6804 435.0586 435.4434 438.7642 438.8252
   439.8290 440.2754 441.1910 441.3480 442.2110 444.0887 444.6708 445.8285
   446.6021 447.0764 447.0811 447.7024 450.1198 450.2564 451.2043 452.2094
   452.6234 453.2511 453.3735 453.8851 453.9916 454.2314 454.5467 456.6295
   457.9680 458.3157 459.0836 459.3743 461.6791 462.5052 463.6723 464.9724
   464.9775 465.8046 466.6848 466.9901 469.3980 469.4051 470.6675 471.4022
   471.8684 471.9372 472.3022 472.3767 475.2124 475.3162 475.9475 476.5992
   478.4910 479.8459 480.9704 481.7964 482.1593 484.1110 484.2525 484.8555
   485.8891 486.8586 487.0434 487.4030 487.4122 487.7885 489.9398 490.1292
   490.7732 491.3106 493.2836 494.2504 494.8011 496.0276 496.0446 496.7386
   497.0550 497.6383 498.2034 498.5008 499.3302 500.0183 501.6537 503.7915
   506.8307 507.5321 508.4537 509.0710 509.5668 509.7006 510.0615 510.0838
   513.5303 514.0685 514.1006 514.5007 514.5471 516.5045 517.5665 517.9953
   518.4806 519.5989 520.3276 520.7352 521.7501 521.9175 522.1544 524.5316
   525.1069 525.9464 526.3148 526.4591 527.1742 527.5915 528.0777 529.1516
   530.1082 530.3574 531.5635 532.2158 533.5096 533.7570 533.7797 534.5090
   534.9847 535.7894 535.9776 536.6012 537.4349 538.5265 539.9916 540.0669
   540.2922 540.4037 540.4634 540.6680 543.1587 543.5269 546.1600 546.4306
   546.7487 547.5218 547.5326 548.5604 549.0958 549.7548 549.8575 550.1823
   552.3371 554.2441 554.6548 554.9973 555.3822 557.2569 559.5745 560.1526
   560.5372 560.9872 561.3502 561.8310 562.1654 563.1968 563.5516 563.5916
   564.3744 564.7955 565.1144 565.2111 565.7294 565.8997 566.2771 566.4930
   566.6559 566.9209 569.8442 569.9138 570.3647 570.4144 571.8395 574.8000
   574.9694 576.5739 576.6455 577.5401 577.7986 577.8884 579.6617 579.9265
   581.0103 581.4809 582.2210 582.2276 584.5784 585.1389 585.9869 587.3542
   588.2294 588.7895 588.9854 589.4362 589.5421 591.7128 592.8311 593.4935
   593.8633 594.4846 594.6933 594.7885 595.5931 595.6060 596.1169 596.2234
   596.5946 596.6244 598.1271 598.9373 601.2989 601.4819 601.8859 602.2776
   603.4474 604.3437 605.1393 605.3893 605.8521 606.2346 606.6747 606.9004
   607.3997 607.9309 608.1438 608.2473 608.9159 609.1189 609.2274 609.3876
   609.4630 609.5490 612.5190 614.7613 615.3599 616.3132 617.7601 618.1389
   618.5670 619.1098 619.9432 619.9921 621.9774 622.0476 623.1784 624.0854
   624.4011 624.4142 624.9697 627.0731 627.8295 628.1277 628.2635 629.3227
   629.3270 630.2150 630.5675 631.7575 631.9740 632.4541 633.3136 633.4676
   633.6135 634.6136 635.3705 636.6967 637.1339 637.1483 637.2441 637.9447
   638.0863 638.5617 639.3759 641.1371 642.5656 642.9407 643.2188 643.9543
   645.2520 645.6746 647.2958 647.7003 647.8308 649.7509 649.8910 649.9522
   650.4379 650.9836 651.7344 653.2580 654.3605 654.9061 655.1480 655.5274
   655.9878 656.4074 656.9888 657.1196 657.2415 657.3045 658.5568 658.6648
   660.4534 660.7171 661.2174 661.2653 662.0679 662.2442 662.6912 664.3448
   664.3772 667.6212 667.7966 668.7451 669.1455 669.4950 670.0693 671.8864
   672.9555 673.2258 673.7272 674.7821 674.8959 675.2440 675.3256 676.6757
   677.2301 677.7789 678.1561 679.0532 679.3660 679.8419 680.9929 681.5749
   684.9317 685.3223 687.0239 688.5037 689.8388 690.2008 691.1035 691.4842
   691.6575 694.5784 694.8936 695.8759 696.3737 697.0687 697.3894 697.4962
   697.6232 698.0584 698.0631 698.1696 698.2122 698.7779 698.8046 699.2543
   699.8974 700.6691 700.9276 701.2542 701.3822 702.4452 702.5091 703.1018
   704.2472 704.6778 705.5370 706.4290 707.4578 709.7717 711.4047 711.5061
   712.8207 713.0560 713.1205 713.3121 713.3354 713.9317 713.9976 715.8946
   715.9734 716.1030 717.1181 717.1778 717.3029 719.3139 719.4205 719.5285
   719.6120 720.4124 720.6301 722.7568 723.7780 724.6551 725.8278 726.0525
   726.5685 726.6052 727.9474 728.9833 729.1679 729.2672 729.9797 729.9842
   730.4328 730.7409 730.9515 731.7056 735.6686 736.0015 736.3288 736.9992
   737.1142 738.5429 738.8067 738.8075 739.8800 740.2683 740.4122 741.6265
   741.8283 741.9556 744.3233 744.3522 745.3676 745.8803 747.0010 747.1455
   747.2826 749.0769 749.3801 749.3999 750.8226 750.8383 751.9853 752.5131
   752.8396 753.7593 753.7913 753.8736 753.9541 755.3746 755.9164 756.5064
   756.7701 756.9666 757.0458 758.1302 758.9089 759.9180 761.7274 762.0994
   763.5348 763.8690 764.0989 764.3866 764.3904 764.5341 765.1023 765.3816
   765.8642 766.2774 767.5663 769.2397 769.4671 769.7863 770.5028 771.5352
   771.5419 772.1675 772.2642 772.3355 774.4497 776.3573 776.8469 778.5878
   778.6461 779.0173 779.2900 779.3588 779.6273 779.8005 780.1544 781.7598
   781.9018 782.8615 782.9063 783.6438 783.6887 784.7058 785.3909 786.0829
   786.6419 787.3693 787.9167 790.9276 791.3651 791.6471 791.8065 792.3531
   792.6866 792.9972 794.0850 794.2940 794.5006 795.5049 795.5547 796.5592
   796.6216 796.7631 796.9505 797.0115 797.0473 797.0788 797.9901 798.4965
   800.9766 801.2893 801.7749 801.9727 802.5083 805.8020 805.8888 806.4657
   807.6434 807.7222 808.2964 808.3612 809.5044 809.5581 809.6599 809.6881
   809.7328 810.8011 811.0035 811.0654 811.0943 811.7064 811.9660 811.9750
   812.8675 812.8983 812.9722 814.1492 814.2575 815.0189 815.2311 820.2575
   821.9525 822.2090 823.6855 823.9778 824.1331 824.4448 825.0273 825.5408
   825.5964 825.7386 825.8449 825.9563 825.9807 827.2742 827.4164 828.7927
   828.8335 829.4752 830.8224 830.9597 831.0162 831.9747 832.0132 833.1715
   833.2227 833.6498 833.6610 834.1269 834.5506 834.9361 835.9886 836.6499
   836.8874 837.8525 837.9187 838.2837 838.2968 838.4605 839.7753 840.4675
   841.1657 842.3009 843.8632 844.3984 844.8465 845.4079 845.5144 846.1296
   846.2148 846.5285 847.5501 847.5614 848.8036 848.8372 849.8776 850.2635
   851.3894 851.3940 851.4639 851.8938 854.0009 854.1957 855.2047 855.2511
   855.2712 855.3476 855.4541 857.6434 857.7239 858.3900 858.7169 859.8006
   860.0504 860.2231 860.3396 860.7001 862.0149 862.0411 863.0937 863.5734
   864.0879 864.2257 864.4691 864.5055 864.8058 865.2679 865.3131 865.3293
   868.1901 870.8393 870.8557 871.2878 874.0393 874.1727 874.2887 874.4077
   874.5907 875.1964 875.2264 877.3417 877.6479 878.1293 878.1341 880.4418
   880.5712 880.7003 880.8260 880.8909 880.9712 882.4911 882.4983 883.0164
   883.0336 885.6956 886.1295 886.8666 886.9434 887.0198 887.4060 887.4526
   887.4997 887.5986 889.1605 890.1732 890.4761 890.9052 890.9490 893.4156
   893.4249 893.9837 893.9915 894.0134 894.3743 897.6217 897.6577 897.7429
   899.2295 899.9668 899.9947 900.5308 900.6464 901.4307 901.9256 901.9761
   903.0673 904.2712 904.3334 904.4865 904.4956 905.0518 905.2137 905.6255
   905.6482 907.1058 907.1454 907.5887 908.1566 908.2379 908.3783 908.9905
   911.3080 911.3097 913.7457 914.1281 914.3999 914.4558 914.6250 915.0849
   916.5229 916.8486 917.3432 917.6989 917.7495 919.9303 919.9513 921.1104
   921.5940 922.8475 922.9702 923.1601 923.2480 923.3590 924.9737 925.5709
   926.2767 926.7714 927.0814 929.6858 929.7258 929.7923 931.0836 931.1698
   932.7089 933.4010 933.4104 933.6733 935.3444 935.8467 935.9141 936.7909
   936.9576 937.8255 938.7274 938.8024 940.1474 940.1488 940.4976 940.7193
   941.0575 941.3118 941.9910 943.1105 943.1520 944.3946 944.4275 944.5466
   945.6496 945.6764 946.0655 946.0944 946.3953 946.4011 946.6468 947.3517
   948.1699 948.2380 948.8941 949.1115 949.1280 952.7782 953.9800 954.0458
   955.2279 955.4275 955.5072 955.6908 955.7364 956.1790 958.4942 958.5294
   958.5734 959.3660 960.1310 960.1889 960.7416 960.7920 961.1066 961.7092
   962.9464 963.9589 963.9690 964.6808 966.6966 966.7636 968.1041 968.1067
   968.4790 969.6475 971.1122 971.1223 971.1633 971.7947 971.8752 971.9589
   972.4498 972.4628 972.5905 972.6180 972.6368 972.8956 973.3296 973.3339
   975.4662 976.0622 976.8043 976.8310 977.6823 979.5452 979.6464 979.7613

          k = 0.5000 0.0000 0.5000 (  2421 PWs)   bands (ev):

   -40.2795 -18.7304  -1.1425  -0.6199   0.3883  12.4377  16.1409  19.6267
    19.7908  29.1073  29.1314  29.1428  36.7700  36.9437  39.9075  42.7824
    46.7609  47.7796  48.9003  52.4654  52.9601  55.1847  57.7702  63.8464
    64.2096  65.2267  66.9546  67.8972  71.2386  72.0530  73.0595  76.0501
    78.1605  80.6206  82.2238  83.1400  84.7323  85.1261  88.5450  92.0025
    93.7225  96.7651  97.8463  98.2554 100.6413 103.9083 104.6624 105.1257
   105.2640 106.3171 107.5645 108.7251 112.1415 115.4725 115.8049 118.4633
   118.7626 118.8507 120.7927 123.3223 123.5018 126.5271 127.9842 131.4887
   132.4408 132.5740 134.8518 135.6296 136.7650 137.1635 137.8662 140.6096
   140.9409 141.2215 142.9495 145.1659 148.9191 149.2710 150.6323 152.5736
   153.9009 154.2839 156.3573 158.2409 159.8025 160.9476 161.1313 161.9749
   162.0327 162.5302 162.8389 164.8692 169.7817 170.4902 172.4480 174.6982
   175.1648 175.5144 177.9635 179.1039 182.2203 183.2229 184.5423 185.2096
   186.6563 188.7742 188.9445 190.4097 190.7641 190.9186 192.7124 194.5039
   195.6313 195.7407 196.6886 197.0482 197.3723 198.8638 200.6741 201.2254
   201.2986 206.6109 206.9009 207.4024 207.5498 209.0866 209.6316 209.9638
   210.5793 212.4037 212.7147 213.9866 214.6792 215.2381 215.8028 216.4487
   218.8009 225.7335 226.8579 227.0234 228.8351 230.9505 231.7440 232.8227
   232.9060 233.7515 233.8272 234.6074 239.0702 239.1920 239.4566 240.1919
   241.1992 242.9265 243.1154 243.2375 244.1668 244.6276 245.5455 247.5002
   247.9744 248.1221 249.6760 250.7296 254.1724 254.4028 255.3463 257.4563
   257.5232 259.6329 259.6598 260.3772 262.9328 264.1658 265.0134 265.6829
   266.4297 268.3159 269.9772 270.3713 270.5246 270.6120 270.6972 273.0465
   273.3317 276.0677 276.9988 277.3090 278.4985 279.1928 280.2022 280.2136
   280.5196 282.7882 282.9464 285.0530 288.3525 288.7722 289.0751 289.3106
   291.5155 294.0025 294.3676 295.0126 295.3152 295.7015 297.6878 297.8220
   299.0292 299.2721 299.2837 299.6548 300.1941 300.8929 301.4062 304.1183
   304.2204 304.7548 306.0577 307.2303 309.6844 312.9282 314.8593 315.1141
   315.1655 317.5868 318.1256 318.7042 318.8351 319.7871 320.8190 322.5274
   322.5827 322.6126 322.7084 322.8827 323.1153 323.4388 324.4307 325.4942
   326.5199 328.2890 329.1973 329.4036 330.5213 331.2277 335.0123 335.0722
   335.4908 336.7132 339.2496 339.7083 340.2729 340.5195 341.7718 341.8752
   341.9138 344.5561 346.1565 347.4386 347.6811 348.8296 349.0438 352.0303
   352.0569 353.5268 354.8729 354.9423 356.6450 357.8887 358.1936 358.7848
   359.9357 360.1606 362.2031 362.5205 364.1354 364.7375 365.9761 366.1650
   366.2355 367.7863 368.2388 368.5374 369.5906 370.9664 371.1220 371.1794
   372.6425 374.5107 374.5701 374.8825 376.5416 376.7203 377.5977 377.9023
   378.8206 378.9075 381.3461 383.2317 384.1945 384.3090 384.8286 387.9303
   388.2526 388.5896 390.4177 390.8224 391.5728 392.0414 393.5249 394.2664
   394.3048 394.5880 395.2718 396.1769 396.8693 399.3266 399.4612 399.6068
   400.4059 401.5850 402.0412 402.8307 403.0669 405.4642 406.9350 407.4141
   407.5068 407.5830 409.7400 409.8446 409.9279 410.3737 410.8560 411.2733
   411.2869 414.1004 414.7469 418.9545 420.7105 421.1573 421.5679 423.8051
   424.3434 424.8448 425.5307 428.0085 428.1003 428.1252 428.4835 428.9809
   429.1696 429.2321 429.6399 430.4704 430.8875 431.1163 431.2153 431.3377
   431.5868 431.7623 431.8023 432.2429 432.3013 433.7322 434.3941 437.1179
   437.3096 437.6533 439.3933 440.5449 443.1859 443.6686 445.0316 446.0386
   446.1783 450.0278 451.0446 451.0714 451.1700 451.6107 451.7487 454.0980
   454.1696 454.3930 454.5115 454.7407 455.3633 457.0101 457.0800 458.3183
   458.5856 458.8375 459.1611 460.0531 460.0803 461.1330 461.2587 463.2154
   463.9023 464.2803 465.2200 465.6244 466.0885 466.4588 467.0968 473.7484
   474.6378 475.0309 475.9490 476.0210 476.1056 478.1257 480.4528 480.7582
   483.1730 483.5692 483.6019 484.3026 484.8721 484.9248 485.1420 486.3612
   486.5085 486.7231 488.1456 488.9985 489.1507 489.1830 489.1950 494.3342
   494.4002 494.5042 495.6906 495.8962 496.8621 497.6643 497.7124 499.0395
   500.0042 500.0122 500.3313 502.2013 502.3310 507.4137 508.0464 508.1787
   509.1315 509.1896 509.8200 510.7555 511.1015 511.1173 511.2159 511.8011
   511.9577 512.7721 512.8096 512.8267 512.8448 513.9437 514.8569 514.9983
   515.4574 515.8071 517.0133 517.2362 517.6364 519.0463 519.5608 520.2271
   520.2666 521.0874 521.1435 521.4054 521.4639 521.5197 521.5875 522.5937
   522.8326 524.5853 525.7743 527.9425 528.7147 528.9640 529.2264 533.6911
   533.7844 534.2865 535.1189 535.8500 536.5973 537.4116 537.6714 537.6747
   538.9194 538.9429 539.0096 539.2236 539.2314 541.7675 543.8204 544.7478
   545.3219 546.8685 547.0576 548.0127 548.1838 548.5131 548.6801 549.8924
   551.2086 551.8669 552.7205 553.7555 554.7870 555.5078 556.3621 556.4435
   557.4028 557.6388 557.7468 558.4678 558.5242 558.6315 559.5648 563.1451
   563.7701 563.8033 564.3313 564.5350 564.6755 565.0118 565.5999 567.9661
   568.1068 568.4214 568.4296 569.3658 569.4247 570.7512 572.3970 573.2073
   573.7878 574.0109 574.2838 575.3044 580.3712 580.7832 581.2883 581.9960
   582.0742 582.1089 583.7470 584.0677 586.0796 586.8953 589.0027 589.6980
   589.8892 590.2087 590.8825 590.9557 591.1014 591.3250 593.2392 593.3040
   593.9143 594.0154 594.1422 594.2529 594.4754 595.1047 595.2808 596.0696
   597.9592 597.9827 598.0427 598.9885 600.5941 600.6037 600.8320 600.8990
   600.9207 601.4202 602.1046 602.7453 604.4813 604.5472 607.9796 609.0603
   609.0660 609.6839 609.8106 609.9512 609.9713 610.1920 611.1568 611.1689
   612.2505 612.2653 612.9780 615.1263 616.3296 616.6979 617.2233 617.6880
   619.4456 620.5069 620.5438 620.5471 620.7612 620.7884 622.9150 623.8412
   624.0763 624.3848 625.8245 627.3336 627.8776 628.0737 629.6089 629.6692
   631.7366 633.5853 634.8455 636.6957 637.3369 637.6491 637.9044 637.9698
   638.0965 638.1829 638.3221 639.2317 639.5533 639.6043 641.4758 641.7340
   642.4583 642.6529 642.9524 643.5468 643.7783 644.4057 645.8398 646.1628
   646.4495 646.5754 647.0197 647.1189 647.1802 647.5401 648.1730 648.2163
   648.2337 648.3330 650.0281 650.4120 654.0403 654.3968 654.8590 654.9088
   655.5051 655.6030 659.3677 659.4182 659.6656 659.6956 663.1732 663.2890
   665.2213 665.4470 665.6666 665.7452 669.6152 669.9549 670.0294 670.5794
   671.8809 672.1652 672.4649 672.5913 676.1198 676.1288 677.1659 677.4184
   677.5100 678.0217 678.0549 678.8658 679.8030 679.8335 680.0565 680.4866
   681.2683 681.3721 681.4594 681.5232 681.5255 681.6212 682.9688 683.0142
   683.3543 683.4017 683.6475 683.6516 686.7198 687.0415 689.2751 690.3197
   690.8298 691.2731 695.3360 695.5998 695.7333 696.0676 696.0796 696.4070
   696.5748 696.6028 697.8456 698.7915 699.3107 699.5710 699.7208 699.7450
   699.9307 700.4293 700.9590 700.9851 700.9968 701.0686 701.9953 702.0240
   702.5089 702.5308 702.9685 703.1199 703.2745 703.7238 704.1463 704.1470
   705.3945 706.5543 706.6387 707.2617 708.5692 708.7733 708.7953 708.9555
   713.6445 713.7086 717.8657 718.3034 718.7156 718.9120 718.9480 719.0571
   719.4222 719.4626 719.5870 721.2914 724.7674 724.8779 725.1271 725.6216
   725.9122 726.0234 726.2146 726.2957 726.9480 727.1085 727.1206 727.2199
   727.7199 727.8155 728.0229 728.0286 728.5763 728.6085 729.0756 729.0758
   735.5463 735.9537 736.1257 736.4638 736.4754 736.5887 737.2927 737.3935
   742.4553 742.8728 745.4283 745.5473 746.0546 746.1805 746.4124 746.4200
   746.4460 746.4713 747.2962 747.3181 750.4661 750.8542 751.5588 751.9830
   752.2745 752.6000 752.8411 753.1304 753.6470 754.2878 754.5087 755.5537
   755.5943 755.9163 755.9529 755.9799 758.8102 759.1167 761.5502 761.7962
   761.9663 762.2055 762.4302 762.8501 764.0339 764.0451 764.0882 764.1570
   765.0114 765.0707 767.7921 768.3137 768.3270 768.4468 770.6767 770.8536
   770.8944 771.2919 771.3983 773.9479 773.9916 774.0396 774.0425 774.3806
   775.5432 775.7065 777.4323 777.4798 780.4201 780.6417 781.0938 781.7837
   781.8611 781.8704 781.9667 782.2461 782.5638 782.8974 782.9219 784.5657
   784.8007 784.8296 786.6030 787.1411 787.2097 787.7764 788.0669 789.6040
   789.8431 789.9035 790.0102 790.0815 790.0970 790.2594 791.7303 792.1689
   792.1751 792.7707 792.7900 799.8194 799.9826 800.2647 800.3548 800.4048
   800.4418 802.4005 802.7191 805.0351 805.2087 805.6543 806.3653 806.4218
   807.1117 807.9673 807.9831 808.0968 808.1525 810.8493 810.8832 810.8985
   810.9042 810.9418 811.2367 811.2520 811.6417 813.1739 813.3072 813.4927
   813.5881 814.5871 814.6008 820.0500 820.0595 821.6952 821.7199 823.2254
   823.3299 823.3505 823.8836 824.8681 825.3734 825.8415 825.9259 826.5282
   826.6071 826.7261 826.7485 828.7604 831.1316 831.9790 832.2756 832.9754
   833.5269 834.4710 834.5493 834.7937 834.9645 834.9715 835.1726 835.2641
   835.3738 835.3746 835.4639 835.7695 835.7985 835.8323 836.6474 836.6541
   836.7589 836.7609 837.0149 840.4224 840.4599 840.4887 840.7882 842.0958
   842.2180 842.4133 842.8260 842.9905 843.0328 844.0251 844.0426 844.4776
   844.5797 844.8124 844.8442 846.0503 846.1294 846.1946 846.2675 851.1068
   851.5671 852.4878 852.5971 856.1859 856.4097 856.9918 857.0007 861.1577
   861.2042 861.9942 862.0113 862.1832 862.2476 862.2643 862.3001 862.6078
   863.2623 863.2994 863.3846 863.8282 863.8850 863.9061 864.0298 864.1310
   864.2556 864.2689 864.2957 865.3527 865.8330 868.8041 868.8556 868.9589
   869.2823 870.3458 870.5360 870.5854 870.6939 872.8194 872.8432 873.1996
   873.2012 875.9895 876.0061 876.4331 876.6977 876.9004 876.9571 880.3558
   880.3629 880.4471 880.5078 883.3664 883.3809 884.7796 885.1423 887.2584
   887.5597 887.7193 887.8368 888.4041 888.5233 888.5255 888.5521 890.8757
   890.9358 890.9381 891.0013 891.0384 891.1217 891.3975 891.4119 892.5191
   893.0748 894.1904 894.1997 897.8510 898.1348 898.2975 898.3744 898.6248
   898.6484 899.1711 899.1726 899.2181 899.2399 899.3043 899.4024 899.7481
   899.7760 905.7454 905.8221 906.0313 906.5172 906.7234 906.7400 907.1592
   907.6033 907.8537 907.9526 908.1385 908.2319 908.2663 908.2946 908.7128
   908.7312 913.2446 913.4385 913.7339 914.0682 914.2869 914.3870 915.6382
   916.2531 917.4598 917.4837 917.8616 917.8803 918.7276 918.7304 919.2251
   919.4451 921.2212 921.3551 921.5078 921.6424 924.9099 925.0291 925.0772
   925.1333 925.9719 926.0138 926.1134 926.1211 928.0197 928.0361 928.0473
   928.0575 930.5746 930.5817 930.6391 930.6881 933.6919 933.7707 934.4604
   934.5074 935.3358 935.3376 936.3651 936.3959 939.5664 939.5791 939.6817
   939.7221 943.7763 943.8336 943.8764 944.0950 944.2937 944.3388 947.9118
   948.3225 950.0729 950.0899 950.2088 950.3522 950.4954 950.5366 950.8005
   950.8520 951.4502 951.4897 952.4789 952.5875 953.3419 953.4030 953.6270
   953.6497 954.2034 954.2768 954.6383 954.6434 955.6124 955.6236 959.7034
   959.8234 961.8457 962.0349 962.1756 962.1985 962.3479 962.3503 962.5705
   962.5828 964.8257 964.8352 968.1226 968.1358 968.1408 968.4673 969.6880
   969.7961 970.0135 970.0554 970.8320 970.8907 971.2006 971.2661 971.6285
   971.6774 971.6778 971.7041 972.2157 972.2604 972.2655 972.2927 972.9610
   972.9717 973.0035 973.0236 978.5394 978.6836 978.8013 978.8144 979.1662

          k = 0.0000-1.0000 0.0000 (  2450 PWs)   bands (ev):

   -40.2658 -18.5147  -2.1933  -0.3141  -0.3141  15.0602  16.9888  17.6358
    20.3987  20.3987  33.0698  38.3011  39.6141  41.3889  41.3889  43.6384
    43.7020  43.7020  48.9694  48.9694  52.9584  53.3302  57.5757  57.5757
    59.6965  60.2664  69.8198  71.4283  73.0472  73.0472  75.0427  77.8171
    77.8171  78.1653  78.5263  79.2992  85.1348  87.3948  87.3948  87.7031
    88.4622  98.0063  98.0063  99.2767 107.4967 107.4967 108.3065 110.0650
   111.8845 111.8845 112.2473 112.9486 114.7837 114.7837 117.4978 118.5682
   120.3981 122.0451 123.3718 123.3718 123.8427 123.8427 124.6837 124.7305
   127.1886 127.1886 130.1944 132.4210 138.4155 143.5891 145.0341 145.0752
   145.0752 146.0974 146.2642 146.2642 146.3920 147.0217 150.1037 150.4660
   150.4660 150.5266 150.5266 150.6825 153.1501 154.6605 156.8545 156.8545
   156.8578 156.8578 161.5704 161.6109 166.9826 166.9826 171.5208 173.3578
   177.2829 180.0521 180.8862 180.8862 182.2177 184.4930 184.4930 185.1324
   185.3841 185.3841 187.0476 187.3711 187.3711 187.6129 187.9457 188.0072
   190.5604 191.4635 191.4635 191.8443 195.6757 203.3638 203.3638 204.5332
   214.1605 214.1605 214.2421 215.2047 216.4398 217.0255 217.0255 217.0265
   218.2484 219.4977 220.3365 222.2179 222.2179 222.7575 222.7575 223.3037
   225.8274 226.4590 229.4437 229.8357 230.6661 230.6661 231.0483 231.2685
   231.8861 231.8861 232.0798 232.0798 232.8929 232.9425 239.0489 241.2211
   241.2211 244.0811 249.4316 249.4316 250.6438 251.7032 252.3484 252.3961
   253.8885 253.8885 254.7432 255.1416 255.1416 255.3191 255.3373 255.3373
   256.6182 256.6182 257.0831 257.2601 257.2623 257.2623 257.9654 258.2062
   258.2332 259.2953 259.8730 259.8730 260.1751 261.5836 266.5621 266.8081
   266.8081 267.5534 267.6338 267.8495 267.8495 268.0708 276.6023 276.6023
   282.1609 282.4402 282.7188 287.7355 289.6793 289.6793 290.2121 290.2121
   291.3058 291.4306 292.0104 292.0104 293.9115 294.5533 294.5857 294.5857
   294.8606 295.1037 295.9788 298.8028 298.8028 299.0023 299.1095 299.5581
   299.5581 299.8245 300.8173 300.8173 300.9691 301.1600 309.8861 309.8861
   312.4743 312.8522 316.5287 324.3315 327.6988 327.6988 328.8142 330.0156
   330.0156 330.1468 332.0986 332.2181 332.3089 333.4565 333.4565 333.7067
   336.6146 336.6146 336.9395 336.9395 337.0503 337.2744 337.2744 337.4683
   337.7357 337.9254 337.9254 338.0952 341.9534 341.9619 344.7380 346.1756
   346.1756 352.1505 356.0205 356.4120 356.7777 356.7777 357.8731 357.8731
   358.8049 358.8985 358.8985 359.0965 359.6417 360.3924 361.2404 362.3069
   362.4098 362.4098 363.3109 363.4027 363.4027 363.7414 363.9092 364.8427
   364.8427 366.4930 366.5095 366.5095 366.8946 366.9358 366.9358 366.9715
   367.1108 367.3295 367.3317 367.3317 367.4557 369.6498 375.4036 375.4139
   375.5988 375.5988 375.6668 375.6668 375.9461 375.9569 385.6405 390.2874
   390.2874 391.3436 394.1335 394.1335 395.1733 396.2957 396.2966 396.3990
   396.5014 397.7670 397.8823 397.8823 398.1186 398.1186 399.4004 400.9483
   400.9483 401.1197 401.1197 401.3069 401.3120 401.4390 401.4730 401.6790
   402.0681 402.0681 402.7445 402.7445 406.6480 406.6631 410.4497 410.4545
   412.3997 412.3997 412.4719 412.4719 413.4043 413.4150 417.7850 417.7850
   425.1231 426.3344 431.7159 431.8980 431.9601 432.4720 433.0208 433.0208
   433.5128 433.5128 434.2408 434.2516 434.2974 434.2974 435.0262 435.0262
   435.0580 435.3807 435.6969 437.3415 438.2672 438.5492 438.5492 438.5785
   440.4836 440.4836 440.6565 440.8029 442.7093 442.7424 442.7424 442.8169
   445.8802 445.8863 445.9458 445.9458 445.9997 445.9997 446.1071 446.1320
   447.7426 447.7432 447.7450 447.7450 457.3961 457.3961 458.7589 460.6174
   460.6578 463.2535 469.0038 469.0038 469.3423 469.6293 469.7756 469.7756
   469.9474 469.9474 471.2783 471.2783 472.4762 473.3451 473.3451 473.3881
   474.2496 474.2955 474.3256 474.5958 474.6941 475.4046 475.4962 475.4962
   476.0596 476.1481 476.1481 476.2373 477.5874 478.4680 478.4680 478.8527
   479.1393 479.4153 479.4153 479.5334 479.6988 479.6988 479.8341 479.8614
   480.6838 480.8220 480.8220 480.9028 483.6838 483.7956 483.7956 483.8994
   484.3773 484.3908 484.3948 484.3948 499.0804 502.1918 502.1918 503.5527
   504.4374 504.4374 504.9504 505.0265 507.5664 507.5914 508.1613 508.1613
   508.2311 508.2311 508.8881 508.9070 512.4853 512.4853 514.4585 514.6989
   514.7769 514.7769 514.8202 514.9043 529.2520 530.1219 530.1219 536.8110
   537.0882 537.0882 537.7515 537.7698 539.1688 539.5822 539.9062 539.9062
   540.1676 540.5683 540.5683 540.8622 543.0414 544.4064 544.4064 544.5638
   544.6878 544.8510 544.8510 544.8903 544.9214 545.0250 545.0250 545.1987
   546.6374 546.6374 547.1106 547.1870 550.0284 550.0284 550.8504 551.2250
   551.6191 551.7549 551.7549 551.9625 552.0792 552.2554 552.2718 552.2718
   552.6519 552.7240 552.7240 552.8365 555.7480 555.7987 556.0314 556.0314
   556.0544 556.0544 556.3189 556.3447 565.3571 565.3571 566.7704 567.7907
   568.8830 572.4789 572.5088 574.3864 574.6373 574.6373 575.2540 575.2540
   576.0487 576.4115 578.8320 578.8543 578.8819 579.0993 579.0993 579.2588
   579.2588 579.4758 579.4758 579.4795 579.4795 579.5936 579.6657 579.7598
   579.8868 580.2105 581.9332 581.9332 582.5794 582.6292 582.8778 582.8778
   582.9294 582.9878 583.6288 583.6769 583.6769 583.7700 586.7236 586.7236
   586.8170 586.9279 587.2731 587.2731 587.3307 587.4173 589.5605 589.5605
   589.5965 589.5965 592.4277 592.4536 592.4724 592.4724 592.4732 592.4810
   592.4810 592.5131 594.5068 594.5078 606.7763 606.7763 608.7050 608.9372
   609.4050 610.5031 610.5560 610.5560 610.8318 611.5965 611.5965 611.6438
   611.9675 611.9675 612.5175 612.5195 616.9965 616.9966 617.5319 617.5319
   617.5443 617.5443 618.0079 618.0398 618.7510 618.8765 618.8765 618.9037
   619.1663 619.5640 619.5882 619.5882 619.6224 620.4741 620.4741 620.6140
   621.4701 621.4701 621.6009 621.6187 626.3195 626.3195 626.3254 626.3405
   626.3693 626.3693 626.4280 626.4622 639.8527 639.8527 642.4392 642.8258
   647.5803 648.9429 648.9429 649.1932 649.2480 649.6738 649.6818 649.6818
   649.7287 650.7368 652.5123 652.5123 654.2977 654.2977 654.3386 654.3775
   654.3775 655.0483 655.0855 655.1157 655.1157 655.2189 658.6794 658.7861
   658.8265 659.0279 659.0279 659.2676 659.2944 659.2944 659.3492 659.3716
   659.8527 659.9425 659.9425 659.9701 659.9701 660.0846 660.1097 660.1377
   662.2120 662.2120 662.2258 662.2296 663.0142 663.0277 665.0032 665.0032
   665.0087 665.0087 665.9454 665.9456 679.5941 679.5941 680.1082 681.5654
   682.3174 682.3380 682.3380 682.3983 685.6621 685.7572 685.7572 686.0654
   686.4471 686.4471 686.5885 687.1156 687.2361 687.6023 687.7549 687.7549
   688.1589 688.1589 688.1854 688.4589 690.0437 690.0453 690.1381 690.1381
   690.1671 690.1671 690.2271 690.2872 692.0548 692.0548 692.8957 693.1629
   694.4739 694.5980 694.6365 694.6365 698.1524 698.1524 698.1953 698.2375
   698.9417 698.9417 698.9528 698.9546 714.9067 714.9067 715.1246 716.2056
   716.6191 717.7671 717.9461 718.0219 718.0219 718.4754 720.9111 720.9111
   721.8403 721.8918 722.0611 722.0611 722.2171 722.2171 722.3094 722.5342
   722.7047 722.8414 722.9629 722.9629 722.9637 723.0346 724.4152 724.4430
   724.4430 724.5468 727.7158 727.7158 727.7167 727.7343 728.0569 728.0641
   728.0682 728.0682 730.3431 731.5614 731.8412 731.8412 732.0684 732.0684
   732.3685 732.4119 736.1223 736.1374 736.1374 736.1803 748.8933 751.4971
   752.7905 752.7905 754.1191 754.1191 754.2109 754.2813 754.3635 755.2365
   758.6108 758.6108 758.9781 758.9781 760.1136 760.1136 760.5404 760.9445
   761.4851 762.0403 762.0403 762.0946 763.1000 763.1132 764.1069 764.2308
   764.2308 764.4639 764.9097 765.1137 765.1137 765.2472 766.7893 766.8017
   767.1496 767.1496 767.3680 767.3680 767.6653 767.8558 771.9636 772.0017
   772.0017 772.0478 772.3770 772.4585 772.4585 772.5296 772.7262 772.7688
   772.7688 772.7873 773.0519 773.0855 773.0855 773.1282 788.7291 788.9875
   788.9875 790.3715 790.8752 790.8752 791.1750 791.1777 793.1710 793.4707
   793.5095 793.5095 793.5234 793.5384 794.0389 794.0389 794.1391 794.1391
   794.3045 794.3045 794.3542 794.7449 795.1315 795.2066 795.2388 795.2703
   795.3602 795.4689 795.5626 795.5626 795.8386 795.8386 796.2245 796.2245
   796.3091 796.3260 796.3260 796.3769 796.4644 796.5817 796.6232 796.6791
   796.9388 796.9388 796.9626 796.9626 797.2213 797.2428 798.3645 799.2319
   799.2319 799.4568 799.9323 799.9323 800.2505 800.3072 800.5208 800.5208
   801.1593 801.2111 801.7297 801.8579 801.8825 801.8825 803.0760 803.0760
   803.1131 803.2103 803.7073 803.7225 803.7225 803.7426 806.6404 806.6672
   806.6672 806.7073 806.8539 806.8539 806.8602 806.8801 808.6038 808.6107
   808.8199 808.8199 808.8371 808.8371 809.0527 809.0605 830.3467 830.3467
   830.3884 830.7168 830.7753 830.7753 830.8334 830.8727 831.8489 831.8548
   831.8784 831.8784 831.8940 831.8940 831.9743 831.9851 838.0650 838.0650
   838.8718 839.0146 839.3186 839.4462 839.6185 839.6185 839.6363 839.6363
   839.7103 839.8627 839.9070 840.1850 840.1850 840.3540 840.6647 840.7347
   840.7347 840.7848 841.1182 841.2017 841.2017 841.3051 841.3344 841.4411
   841.4411 841.5076 841.5987 841.6787 841.6787 841.7527 863.5045 864.6122
   865.2598 865.2598 865.6568 865.6568 866.2539 866.2732 866.2732 866.3954
   866.4079 866.4224 866.5321 866.5321 866.7944 866.8055 870.8182 870.8182
   871.1162 871.3247 871.3488 871.4193 871.4193 871.4542 872.7887 873.1580
   873.1580 873.3331 873.3348 873.4922 873.4922 873.5480 873.6024 873.6234
   873.6234 873.6349 878.9063 878.9130 878.9502 878.9502 878.9664 878.9664
   879.0391 879.0525 880.9608 880.9679 880.9903 880.9903 880.9922 880.9922
   881.0204 881.0365 891.0232 891.0232 892.2265 892.9673 893.5635 894.0252
   894.0252 894.3415 895.7240 896.3299 897.5121 898.3465 898.3465 898.6399
   898.6399 898.7951 898.8023 898.8082 902.1785 902.2503 902.2503 902.3528
   903.2603 903.2976 903.2976 903.3058 903.3104 903.3104 903.6803 903.7042
   904.9547 904.9874 905.2357 905.2357 905.2418 905.2418 905.4352 905.4472
   906.2431 906.2763 906.2805 906.2805 906.5830 906.6188 906.8972 906.8972
   906.9111 906.9111 907.2296 907.2308 907.4977 907.5043 907.5043 907.5177
   908.9758 908.9860 908.9860 909.0003 911.7279 911.7279 912.0407 912.0606
   913.4356 913.4610 913.4710 913.4710 914.3265 914.3265 914.3298 914.3298
   919.2627 919.2661 933.2518 933.2518 933.6794 933.7573 935.0049 935.0270
   935.0270 935.0908 938.0891 938.3744 938.3744 938.4532 938.6375 938.6375
   938.7370 938.8380 938.8767 938.9817 938.9817 939.1095 939.2627 939.3168
   939.3168 939.4184 943.6344 943.6688 943.6688 943.7022 944.3630 944.3702
   944.3702 944.3709 945.6217 945.6217 946.2881 946.3679 946.5542 946.5547
   946.5547 946.5823 948.1049 948.3642 948.3642 948.4716 948.6274 948.7372
   948.7372 948.7642 949.3167 949.3241 949.3241 949.4744 949.4916 949.5706
   949.5706 949.6207 972.2792 972.2792 972.5239 972.5492 972.6721 972.7663
   972.7663 972.7771 974.1052 974.4108 974.4108 974.5036 974.5096 974.5164
   974.5164 974.5607 974.5625 974.8839 977.7875 977.7910 977.7910 977.8139
   978.0272 978.0365 978.0365 978.0630 978.4563 978.4563 978.5720 978.5720
   980.4007 980.4007 980.4920 980.6962 980.7405 980.7533 980.8162 980.8162

          k =-0.5000-1.0000 0.0000 (  2400 PWs)   bands (ev):

   -40.2650 -18.5377  -1.3189  -1.3189  -0.1350  15.3754  15.3754  17.7249
    19.3796  27.5842  27.5842  33.8105  37.8361  41.9075  41.9075  42.5033
    45.2280  50.2696  51.3613  51.3613  52.2826  55.6764  58.6732  58.6732
    62.2729  62.2729  62.5133  62.6682  67.7547  67.7547  68.5469  75.4704
    75.5519  82.7343  82.7343  86.1822  90.6801  93.2681  93.2681  94.3037
    96.5232  96.5232  97.8428  98.4761  99.3195 102.5411 102.5411 104.4836
   108.5758 108.8409 111.9386 112.2558 112.2558 113.4199 116.0526 116.0526
   121.7915 122.2950 122.2950 125.2149 129.1456 129.1456 129.6037 130.2944
   130.2944 130.9484 131.1341 132.4553 133.7791 136.0548 136.0548 139.2048
   142.5275 144.6222 144.6222 145.1262 150.9855 150.9855 151.6817 152.0514
   152.3299 152.3299 152.7679 152.9127 153.9524 159.7758 159.7758 162.2349
   163.6280 165.0242 165.0242 165.6907 165.6907 166.1154 166.7158 167.2597
   170.9242 170.9242 170.9991 171.0537 171.4071 176.6829 178.0550 178.0550
   178.1597 184.2657 188.0454 188.0454 190.2760 190.2760 191.9423 198.6714
   201.1035 201.1035 202.4927 205.4602 206.2612 207.2530 207.2530 208.5445
   213.9494 214.3590 215.9885 215.9885 216.3121 216.3121 217.8028 218.6081
   219.3871 219.3871 219.5645 219.9059 220.6436 220.6436 221.0732 221.1030
   221.1480 221.1480 221.4393 223.0748 224.6290 224.6290 225.2125 225.2627
   233.4369 234.2566 234.2566 237.2040 237.2040 237.8266 238.5925 238.7853
   239.0244 239.4717 239.4717 240.3216 242.0422 246.2656 246.2656 248.5384
   251.8337 253.1318 253.1318 255.1531 255.1531 255.6708 255.7156 255.7968
   255.9307 256.5051 256.5051 257.2510 260.7243 260.7243 260.7947 260.8247
   261.5206 265.6729 267.8334 268.3360 268.3360 271.9996 271.9996 272.9449
   273.2048 273.6601 274.1376 274.5582 274.5582 275.3206 275.4288 275.4288
   276.0127 276.4891 276.6179 276.6179 276.6241 277.3937 278.3208 278.3208
   287.1759 290.5476 290.5476 292.2133 292.2133 292.9056 293.0432 293.1012
   297.0449 301.1159 301.1159 304.9285 306.9186 306.9186 307.7608 310.7303
   310.7303 310.9946 311.1075 311.2820 311.6501 312.3184 312.3184 314.0839
   314.0839 315.0664 315.1111 316.7002 320.8703 320.8703 321.2770 324.0630
   324.6233 325.9339 325.9339 327.2881 327.2881 327.6828 327.9665 328.2057
   329.1957 329.2424 329.2424 330.6443 332.1581 332.1581 332.2432 332.3246
   333.0387 333.0409 333.0409 333.0626 341.9918 341.9918 342.0682 343.9626
   344.1885 345.4401 345.4401 346.1855 350.1136 350.1136 350.8590 351.1550
   352.7885 352.7885 356.6615 358.0589 359.7616 361.9008 362.3198 362.3198
   363.9954 364.4719 364.5526 364.5526 365.3026 365.3026 365.3570 365.5743
   366.8012 373.9700 374.5905 374.5905 375.3816 378.0949 379.1474 380.8165
   380.8165 382.1509 382.1509 382.7597 382.8557 382.9905 383.0240 383.0240
   383.1947 383.3368 383.3368 383.5754 383.7466 384.8478 386.2933 386.2933
   386.6157 386.7312 386.7312 386.8397 390.5189 392.4717 392.4717 397.0767
   397.0767 397.4679 398.6995 398.7845 398.9963 399.2316 399.2316 400.3222
   400.3222 400.4306 400.6287 400.8992 401.1423 401.3515 401.3515 401.9015
   407.5486 410.6327 410.6327 411.7249 412.3066 414.1250 414.7548 414.7548
   415.4128 415.4128 416.6186 417.2017 417.2017 417.2173 417.3465 419.3051
   419.6500 419.6500 419.7658 420.3309 420.4599 420.6212 420.6212 420.6925
   422.7483 422.7483 422.9261 422.9439 423.0314 423.0314 423.5363 423.5419
   427.4951 427.4951 429.1493 431.6865 432.6040 432.6040 433.0334 433.8853
   435.8550 436.7684 436.7684 436.8316 437.3252 437.3252 437.4124 437.4264
   441.5750 441.5750 441.6125 441.6244 449.9746 449.9746 450.7932 452.5043
   453.4181 453.9347 453.9347 454.2650 454.5152 454.5152 454.6242 454.6242
   454.6464 454.6565 455.0296 455.6204 465.0404 466.8186 466.8186 470.0991
   470.0991 470.2765 470.8051 471.0538 471.5436 471.8230 471.8230 472.5831
   472.8122 472.8128 472.8128 473.0291 478.9695 484.3389 484.3389 487.5080
   487.7595 487.9449 487.9449 489.4084 489.4141 489.5350 489.9238 489.9238
   490.1869 490.2072 490.2072 490.7203 490.7823 490.9620 491.5708 491.5708
   491.6898 491.8039 491.8039 492.2763 492.2804 492.2804 492.2934 492.3248
   492.3985 492.3985 492.7102 492.7856 498.0718 498.8449 500.5590 500.9702
   500.9702 503.2752 507.3996 507.3996 507.8602 508.6989 508.6989 508.8251
   508.8883 509.4023 512.8157 512.8157 513.0427 513.0427 513.0947 513.1008
   520.1535 521.4075 521.4075 522.2426 524.1053 524.1053 524.5816 525.7773
   526.2095 526.7063 526.7063 527.0049 527.0049 527.1828 527.2967 527.3936
   527.3936 527.4594 527.4944 527.5341 531.6948 531.6948 531.7071 531.7329
   534.9822 534.9822 537.5303 538.4356 538.5970 540.6098 540.7792 540.7792
   541.3344 542.6360 542.6360 543.5933 543.6239 543.6239 543.8368 543.9384
   544.6124 544.6124 544.7482 545.0084 545.4285 545.5245 545.5245 545.7677
   548.9939 548.9939 549.7014 549.7152 560.9467 560.9467 562.3285 562.9330
   562.9330 563.2702 563.3926 563.5807 566.9839 566.9839 568.6408 571.1982
   575.3444 576.2894 576.2894 577.5294 577.8475 577.8475 578.0096 578.1162
   578.6627 579.0561 579.0561 579.5608 579.7467 579.8337 579.9387 579.9387
   580.2171 580.4819 580.4819 580.6168 581.8675 582.1446 582.1446 582.1497
   582.7701 582.8858 582.8858 582.9754 584.9771 585.0215 585.0215 585.1181
   586.6972 587.9532 587.9532 590.3919 594.5700 595.3281 595.4874 595.4874
   596.9501 597.1659 597.2681 597.2681 597.8638 597.8638 598.1596 598.2662
   598.2902 598.2902 598.3391 598.5318 598.7415 598.7415 599.0448 599.0565
   599.8275 600.0183 600.0202 600.0202 600.7569 600.7569 600.7933 601.1064
   601.2166 601.2581 601.2581 601.2865 603.1327 603.1327 603.1852 603.1864
   603.8323 603.8323 603.8351 603.8439 614.5418 615.2595 615.2595 615.2682
   615.3646 616.4783 616.6398 616.6398 617.2540 617.2540 617.8005 617.8037
   628.0827 628.0827 628.7944 629.7270 631.2308 631.7545 631.7545 633.0784
   633.0784 633.1122 633.1466 633.6861 633.7821 633.8455 634.3346 634.3346
   634.9956 634.9956 635.0214 635.0323 635.1733 635.2621 635.2721 635.2721
   636.1364 636.1364 636.1689 636.1939 639.2665 639.2665 639.2994 639.3141
   642.0173 643.0098 647.6073 647.8397 647.8710 647.8710 649.8313 649.8313
   650.8146 650.8852 650.8852 651.2687 651.3519 651.4496 652.7610 652.9469
   652.9469 653.1344 653.1516 653.1598 653.1598 653.3952 653.4757 653.6264
   653.6264 653.6512 654.4484 654.4484 654.4601 654.4746 657.2601 657.2601
   657.6884 657.6965 657.6965 657.7068 669.6129 669.6129 669.7415 670.2610
   671.0671 671.0671 671.1942 671.2045 672.3287 672.3510 672.3588 672.3588
   672.5258 672.5458 672.5514 672.5514 681.8117 682.9079 684.3586 684.3586
   684.7915 684.9079 684.9079 684.9817 687.3551 687.3551 687.8494 688.5222
   688.6920 688.6920 688.8294 688.8339 693.2351 693.2351 693.9305 693.9305
   693.9394 693.9400 693.9897 694.0057 696.9823 697.5043 697.5043 698.3735
   706.2088 706.2196 706.2196 706.3085 706.5965 706.5965 707.0062 707.1074
   707.1074 707.1379 707.2052 707.2126 711.5668 711.5668 711.5852 711.5958
   718.1904 718.1904 719.5974 720.1481 720.3619 722.1750 722.3239 722.3239
   722.8278 722.8278 723.4110 723.8019 723.8306 723.8330 723.9777 723.9777
   724.3915 724.3915 724.5016 724.5431 725.3786 725.3918 725.5853 725.5853
   726.2139 726.2568 726.2568 726.3138 740.5897 740.5897 741.1572 741.5132
   742.2942 742.5487 742.6090 742.6090 742.7325 742.7325 742.8281 742.8498
   743.5386 743.6448 743.6478 743.6478 743.8590 743.8590 743.8826 743.8876
   752.0036 752.0036 753.7503 753.8908 755.8966 755.8966 756.0355 756.1609
   757.3618 757.5048 757.5048 758.4547 759.3139 759.5233 759.6799 759.6799
   759.9983 759.9983 760.0515 760.2225 760.2817 760.6547 760.7310 760.7310
   760.8314 761.0337 761.0337 761.0424 761.0424 761.2828 761.3225 761.6315
   761.8392 761.8410 761.8410 761.8440 761.8920 762.1767 762.4088 762.4088
   762.5076 762.5076 762.8174 762.8339 762.8457 762.9384 762.9384 763.1000
   763.2087 763.2823 763.2823 763.3839 765.8777 765.8777 765.8871 765.8916
   778.5764 778.5764 778.7889 778.8183 778.8668 778.8668 779.0563 779.0701
   779.0701 779.1015 779.1808 779.2495 779.3590 779.3646 779.3646 779.3995
   779.6978 779.6978 779.7233 779.7402 780.5452 780.5609 780.5609 780.6123
   781.1824 781.1960 781.1960 781.2243 792.1716 792.3887 792.6997 792.6997
   795.4259 795.4259 795.7891 795.8005 795.8005 795.8731 796.0505 796.0820
   802.0919 802.0954 802.0954 802.0973 805.0269 805.0778 810.7574 810.7574
   810.8030 811.4827 813.0262 813.0262 813.1185 813.2968 813.4638 813.4638
   813.5027 813.5711 814.5082 814.5082 814.7242 814.8431 815.2054 815.2054
   815.2611 815.3206 816.2395 816.2835 816.2835 816.3483 816.7022 816.7631
   816.7631 816.7963 817.2961 817.2961 817.4232 817.4812 817.5806 817.5839
   817.5948 817.5948 819.5644 819.5644 826.6090 826.6499 826.6663 826.6663
   830.8918 830.8918 831.0718 831.2278 832.9364 832.9364 832.9856 833.0080
   833.4279 833.4279 833.5937 833.6461 837.7746 837.7746 837.7885 837.7931
   845.7121 845.7314 846.1724 846.1724 846.2638 846.4364 847.4702 847.4702
   850.0108 850.0108 850.2310 850.2998 850.2998 850.3051 850.3316 850.3756
   851.0230 851.1634 851.1634 851.3220 851.8696 851.8750 851.8750 851.8815
   851.9522 851.9522 852.0421 852.0686 852.1046 852.1046 852.1436 852.1547
   855.5575 855.5575 856.3337 856.3383 856.4193 856.4193 856.4287 856.4368
   866.0252 866.0252 866.1717 866.4407 866.7364 866.8056 866.8056 866.8546
   866.8896 866.8896 867.0162 867.0310 867.4029 867.4029 867.7083 867.7176
   869.0173 869.2458 869.2811 869.2811 869.7338 869.7655 869.7655 869.8813
   869.9472 870.0837 870.0837 870.1459 870.2329 870.2329 870.2419 870.3019
   870.9358 870.9805 870.9805 871.0239 871.0909 871.0909 871.1909 871.3669
   871.3703 871.3803 871.4701 871.4701 886.5193 886.5619 886.6263 886.6263
   888.7620 888.7620 888.8247 888.8566 888.8903 888.8903 888.9044 888.9047
   894.1218 894.1218 894.9520 894.9628 902.6667 902.8170 902.8170 903.0284
   903.6222 903.6222 903.6905 903.6970 904.2193 904.2193 904.3052 904.3202
   905.1797 905.1797 905.1847 905.3680 905.4489 905.4743 905.4743 905.5103
   907.0369 907.2285 907.2285 907.2813 907.7178 907.7431 907.7431 907.7466
   909.6388 909.6730 909.6730 909.6990 920.0929 920.0929 920.1832 920.2123
   921.8339 921.8339 922.0350 922.0843 922.0843 922.0929 922.1199 922.1386
   922.9168 922.9771 923.3388 923.3388 923.5024 923.5035 923.5904 923.5904
   923.6987 923.6987 923.7396 923.7765 924.2369 924.2369 924.3401 924.3401
   924.3565 924.4291 924.5661 924.5701 924.5701 924.5776 924.6409 924.6632
   928.4347 928.4442 928.4442 928.4480 938.4091 938.4577 938.4577 938.5134
   940.8400 940.8400 940.9606 940.9977 941.2263 941.2263 941.3093 941.3115
   942.4693 942.4693 942.4769 942.4867 943.2059 943.2114 943.2114 943.2379
   951.5378 951.5378 951.7213 951.8565 954.5813 954.5973 954.7580 954.7580
   955.4469 955.4543 955.4976 955.4976 960.0752 960.0752 960.0793 960.1109
   960.1626 960.1626 960.1633 960.1812 963.5730 963.5730 963.5757 963.5804
   964.3278 964.3333 964.3333 964.3416 964.4163 964.4226 964.4231 964.4231
   972.4745 972.5379 972.5832 972.5832 974.8048 974.8048 974.9395 974.9627
   974.9836 974.9886 974.9886 975.0137 976.5593 976.5593 976.8101 976.8268
   977.0193 977.0206 977.0206 977.0417 977.7733 977.9616 977.9616 977.9874

     the Fermi energy is     7.6815 ev
     (compare with:     3.9621 eV, computed in scf)

     Writing all to output data dir out/mp-1138.save/
 
     init_run     :      0.05s CPU      0.10s WALL (       1 calls)
     electrons    :    276.79s CPU    285.84s WALL (       1 calls)

     Called by init_run:
     wfcinit      :      0.00s CPU      0.00s WALL (       1 calls)
     potinit      :      0.01s CPU      0.02s WALL (       1 calls)
     hinit0       :      0.01s CPU      0.06s WALL (       1 calls)

     Called by electrons:
     c_bands      :    276.79s CPU    285.84s WALL (       1 calls)
     v_of_rho     :      0.01s CPU      0.01s WALL (       1 calls)

     Called by c_bands:
     init_us_2    :      0.00s CPU      0.00s WALL (       8 calls)
     init_us_2:cp :      0.00s CPU      0.00s WALL (       8 calls)
     paro_k       :    266.19s CPU    274.88s WALL (       8 calls)

     Called by paro_*:
     h_psi        :      5.35s CPU      5.54s WALL (     782 calls)
     g_psi        :      0.08s CPU      0.09s WALL (   76682 calls)

     Called by h_psi:
     h_psi:calbec :      0.09s CPU      0.09s WALL (     782 calls)
     vloc_psi     :      5.18s CPU      5.36s WALL (     782 calls)
     add_vuspsi   :      0.05s CPU      0.05s WALL (     782 calls)

     General routines
     calbec       :      0.09s CPU      0.09s WALL (     782 calls)
     fft          :      0.00s CPU      0.05s WALL (      10 calls)
     fftw         :      4.70s CPU      4.86s WALL (  126254 calls)
 
     Parallel routines
 
     PWSCF        :   4m37.56s CPU   4m46.96s WALL

 
   This run was terminated on:  13:15:36   5Apr2024            

=------------------------------------------------------------------------------=
   JOB DONE.
=------------------------------------------------------------------------------=
