
     Program PWSCF v.7.1 starts on  5Apr2024 at 14:17:10 

     This program is part of the open-source Quantum ESPRESSO suite
     for quantum simulation of materials; please cite
         "P. Giannozzi et al., J. Phys.:Condens. Matter 21 395502 (2009);
         "P. Giannozzi et al., J. Phys.:Condens. Matter 29 465901 (2017);
         "P. Giannozzi et al., J. Chem. Phys. 152 154105 (2020);
          URL http://www.quantum-espresso.org", 
     in publications or presentations arising from this work. More details at
     http://www.quantum-espresso.org/quote

     Parallel version (MPI), running on    16 processors

     MPI processes distributed on     1 nodes
     224103 MiB available memory on the printing compute node when the environment starts
 
     Reading input from pw_mp-1138_nscf_k690_E116.in
Warning: card &IONS ignored
Warning: card / ignored
Warning: card &CELL ignored
Warning: card / ignored

     Current dimensions of program PWSCF are:
     Max number of different atomic species (ntypx) = 10
     Max number of k-points (npk) =  40000
     Max angular momentum in pseudopotentials (lmaxx) =  4

     Atomic positions and unit cell read from directory:
     out/mp-1138.save/
     Atomic positions from file used, from input discarded
 
 
     R & G space division:  proc/nbgrp/npool/nimage =      16
     Subspace diagonalization in iterative solution of the eigenvalue problem:
     one sub-group per band group will be used
     scalapack distributed-memory algorithm (size of sub-group:  4*  4 procs)

 
     Parallelization info
     --------------------
     sticks:   dense  smooth     PW     G-vecs:    dense   smooth      PW
     Min          59      59     17                 1221     1221     195
     Max          60      60     18                 1225     1225     198
     Sum         955     955    283                19579    19579    3143
 
     Using Slab Decomposition
 


     bravais-lattice index     =            2
     lattice parameter (alat)  =       7.7166  a.u.
     unit-cell volume          =     114.8711 (a.u.)^3
     number of atoms/cell      =            2
     number of atomic types    =            2
     number of electrons       =        10.00
     number of Kohn-Sham states=         1008
     kinetic-energy cutoff     =     116.0000  Ry
     charge density cutoff     =     464.0000  Ry
     Exchange-correlation= PBE
                           (   1   4   3   4   0   0   0)

     celldm(1)=   7.716558  celldm(2)=   0.000000  celldm(3)=   0.000000
     celldm(4)=   0.000000  celldm(5)=   0.000000  celldm(6)=   0.000000

     crystal axes: (cart. coord. in units of alat)
               a(1) = (  -0.500000   0.000000   0.500000 )  
               a(2) = (   0.000000   0.500000   0.500000 )  
               a(3) = (  -0.500000   0.500000   0.000000 )  

     reciprocal axes: (cart. coord. in units 2 pi/alat)
               b(1) = ( -1.000000 -1.000000  1.000000 )  
               b(2) = (  1.000000  1.000000  1.000000 )  
               b(3) = ( -1.000000  1.000000 -1.000000 )  


     PseudoPot. # 1 for F  read from file:
     /usr/scratch4/magr4985/FGWC/FGWC/pseudo/SG15/F.upf
     MD5 check sum: 1d8275f47d602dd53cad6bcdc0eda7dc
     Pseudo is Norm-conserving, Zval =  7.0
     Generated using ONCVPSP code by D. R. Hamann
     Using radial grid of  602 points,  4 beta functions with: 
                l(1) =   0
                l(2) =   0
                l(3) =   1
                l(4) =   1

     PseudoPot. # 2 for Li read from file:
     /usr/scratch4/magr4985/FGWC/FGWC/pseudo/SG15/Li.upf
     MD5 check sum: c91dd4cee9943b136ac3b62641658f95
     Pseudo is Norm-conserving, Zval =  3.0
     Generated using ONCVPSP code by D. R. Hamann
     Using radial grid of  602 points,  4 beta functions with: 
                l(1) =   0
                l(2) =   0
                l(3) =   1
                l(4) =   1

     atomic species   valence    mass     pseudopotential
        F              7.00    18.99840     F ( 1.00)
        Li             3.00     6.94100     Li( 1.00)

     48 Sym. Ops., with inversion, found



   Cartesian axes

     site n.     atom                  positions (alat units)
         1           Li  tau(   1) = (   0.0000000   0.0000000   0.0000000  )
         2           F   tau(   2) = (  -0.5000000   0.5000000   0.5000000  )

     number of k points=    29  Gaussian smearing, width (Ry)=  0.0005
                       cart. coord. in units 2pi/alat
        k(    1) = (   0.0000000   0.0000000   0.0000000), wk =   0.0039062
        k(    2) = (  -0.1250000   0.1250000  -0.1250000), wk =   0.0312500
        k(    3) = (  -0.2500000   0.2500000  -0.2500000), wk =   0.0312500
        k(    4) = (  -0.3750000   0.3750000  -0.3750000), wk =   0.0312500
        k(    5) = (   0.5000000  -0.5000000   0.5000000), wk =   0.0156250
        k(    6) = (   0.0000000   0.2500000   0.0000000), wk =   0.0234375
        k(    7) = (  -0.1250000   0.3750000  -0.1250000), wk =   0.0937500
        k(    8) = (  -0.2500000   0.5000000  -0.2500000), wk =   0.0937500
        k(    9) = (   0.6250000  -0.3750000   0.6250000), wk =   0.0937500
        k(   10) = (   0.5000000  -0.2500000   0.5000000), wk =   0.0937500
        k(   11) = (   0.3750000  -0.1250000   0.3750000), wk =   0.0937500
        k(   12) = (   0.2500000   0.0000000   0.2500000), wk =   0.0468750
        k(   13) = (   0.0000000   0.5000000   0.0000000), wk =   0.0234375
        k(   14) = (  -0.1250000   0.6250000  -0.1250000), wk =   0.0937500
        k(   15) = (   0.7500000  -0.2500000   0.7500000), wk =   0.0937500
        k(   16) = (   0.6250000  -0.1250000   0.6250000), wk =   0.0937500
        k(   17) = (   0.5000000   0.0000000   0.5000000), wk =   0.0468750
        k(   18) = (   0.0000000   0.7500000   0.0000000), wk =   0.0234375
        k(   19) = (   0.8750000  -0.1250000   0.8750000), wk =   0.0937500
        k(   20) = (   0.7500000   0.0000000   0.7500000), wk =   0.0468750
        k(   21) = (   0.0000000  -1.0000000   0.0000000), wk =   0.0117188
        k(   22) = (  -0.2500000   0.5000000   0.0000000), wk =   0.0937500
        k(   23) = (   0.6250000  -0.3750000   0.8750000), wk =   0.1875000
        k(   24) = (   0.5000000  -0.2500000   0.7500000), wk =   0.0937500
        k(   25) = (   0.7500000  -0.2500000   1.0000000), wk =   0.0937500
        k(   26) = (   0.6250000  -0.1250000   0.8750000), wk =   0.1875000
        k(   27) = (   0.5000000   0.0000000   0.7500000), wk =   0.0937500
        k(   28) = (  -0.2500000  -1.0000000   0.0000000), wk =   0.0468750
        k(   29) = (  -0.5000000  -1.0000000   0.0000000), wk =   0.0234375

     Dense  grid:    19579 G-vectors     FFT dimensions: (  40,  40,  40)

     Estimated max dynamical RAM per process >      99.13 MB

     Estimated total dynamical RAM >       1.55 GB

     The potential is recalculated from file :
     out/mp-1138.save/charge-density

     Starting wfcs are random

     Band Structure Calculation
     Davidson diagonalization with overlap

     ethr =  5.00E-06,  avg # of iterations =  7.2

     total cpu time spent up to now is      294.7 secs

     End of band structure calculation

          k = 0.0000 0.0000 0.0000 (  2421 PWs)   bands (ev):

   -40.3273 -19.1534   0.6161   0.6161   0.6161   9.3852  24.0781  24.0781
    24.0781  24.6575  24.6575  24.6575  27.5084  31.6753  31.6753  44.3774
    44.3774  44.3774  47.8763  64.4512  64.4512  64.4512  65.9098  67.8025
    67.8025  68.4154  68.4154  68.4154  68.4917  68.4917  68.4917  84.1516
    84.1516  89.9394  89.9394  89.9394  93.5904  93.5904  93.5904  95.1452
    95.1452  95.1452  96.0721  96.0721  96.0721  96.5442  97.6679  97.6679
    97.6679  98.5335  98.5335  98.5335  99.0790  99.0790  99.1959 101.9228
   101.9228 101.9228 102.9540 121.0080 121.0080 121.0080 125.8884 133.5356
   133.5356 141.2984 141.2984 141.2984 147.0636 155.0377 155.0377 155.0377
   160.8734 160.8734 161.2300 161.2300 161.2300 161.8642 161.8642 161.8642
   165.0358 167.4524 167.9723 167.9723 167.9723 168.9583 168.9583 168.9583
   169.1038 169.1038 169.7520 169.7520 169.7520 169.7941 169.7941 169.9126
   169.9126 169.9126 172.6848 172.6848 172.6848 174.0696 174.0696 174.0696
   175.6067 175.6067 175.6067 176.6368 176.6368 177.4009 177.4009 177.4009
   177.9169 195.9498 195.9498 195.9498 199.0694 204.5904 204.5904 204.5904
   205.6421 210.1152 210.1152 210.1152 210.2855 210.2855 211.4056 211.4056
   211.4056 211.9423 211.9423 211.9423 211.9752 211.9752 211.9752 212.4218
   212.4218 213.4488 213.4488 213.4488 221.8810 221.8810 224.1460 233.5530
   233.5530 233.5530 233.9126 233.9126 233.9126 235.7155 236.6375 237.9154
   237.9154 237.9154 238.2747 238.2747 238.2747 239.0154 239.0154 239.0154
   239.3108 239.3108 239.3108 242.7926 242.8332 242.8332 242.8332 242.8430
   242.8430 261.2120 261.2120 261.2120 270.0442 278.0040 278.0040 278.0040
   279.2618 279.2618 279.5951 279.5951 279.5951 286.1345 286.1345 286.1345
   290.6534 297.1020 297.1020 297.1020 298.6916 298.6916 300.6329 300.6329
   300.6329 304.0895 304.0895 304.0895 305.3561 305.3561 305.3561 306.6412
   306.6412 306.6412 307.1734 307.2577 307.2577 309.0239 309.0239 309.0239
   309.5276 309.5276 309.5276 310.1428 311.7143 311.7143 312.1119 312.1119
   312.1119 312.9055 312.9055 312.9055 313.0643 313.0643 313.0643 313.1156
   313.1156 313.7472 313.7472 313.7472 313.9492 314.0287 314.0287 314.0287
   314.0550 314.0550 314.4392 314.4392 314.4392 314.6821 314.8079 314.8079
   314.8079 315.6922 319.1568 319.3996 319.3996 319.3996 319.6408 319.6408
   319.7479 319.7479 319.7479 320.2688 320.2688 320.2688 320.5059 320.5059
   320.5746 320.5746 320.5746 341.8992 341.8992 341.8992 346.0357 346.7273
   346.7273 352.5552 352.5552 352.5552 352.7612 352.7612 352.7612 353.0262
   353.0262 353.0262 353.2266 353.2266 353.2266 356.9837 356.9837 357.1017
   357.1017 357.1017 357.2906 366.9052 366.9052 366.9052 374.1765 374.1765
   374.1765 374.5525 374.5751 381.8517 381.8517 381.8517 382.0341 382.0341
   382.4469 382.4469 382.4469 382.5791 382.5791 382.5791 382.5957 382.5957
   382.5957 382.7511 382.7511 385.5775 385.5775 385.5775 389.2749 389.2749
   389.4705 389.4705 389.4705 389.6491 389.8704 389.8704 389.8704 390.2127
   390.2127 390.2127 390.2812 390.2812 390.2812 390.5173 390.9499 390.9499
   390.9499 391.0992 391.0992 417.8203 417.8203 417.8203 420.6034 424.7241
   424.7241 424.7241 424.9009 426.5103 426.5103 426.5103 435.4006 435.9172
   435.9172 443.4066 443.4066 443.4066 443.7192 443.7192 443.7192 444.6771
   444.6771 444.6771 445.8341 445.8341 447.1834 452.8749 452.8749 452.8749
   454.2540 454.2540 454.2540 454.4168 454.4168 454.4168 454.5431 454.5431
   454.5431 454.6580 454.6580 454.6580 456.1086 456.5675 456.5675 456.5675
   456.8668 456.8668 456.8668 457.0779 457.0779 457.1389 457.1389 457.1389
   457.6842 457.6842 457.6842 458.1418 458.1418 458.1620 458.2154 458.2154
   458.2154 459.2056 459.2599 459.2599 459.2599 459.2764 459.2764 462.9853
   462.9853 462.9853 463.0836 463.0836 463.3727 463.3727 463.3727 463.6046
   463.6046 463.6046 463.8473 485.1131 485.1131 485.1131 490.1827 491.0887
   491.0887 491.0887 491.4601 495.0351 495.0351 495.3206 495.3206 495.3206
   495.5894 495.5894 495.5894 495.9023 495.9023 495.9023 496.3146 496.3146
   496.3146 496.5680 496.5680 499.9407 499.9407 500.2344 500.2344 500.2344
   500.3480 500.3480 500.3480 500.5916 500.5916 500.5916 500.6143 500.6143
   500.6143 500.8806 500.8806 501.6498 501.7940 501.7940 501.7940 501.9803
   501.9803 501.9803 502.2050 505.2606 505.2606 505.2606 511.7121 515.0962
   515.0962 515.4882 515.4882 515.4882 517.4010 517.4010 517.4010 518.0606
   518.4736 518.4736 518.4736 519.3621 519.3621 519.3621 521.3226 521.3226
   521.3226 521.8344 522.3187 522.3187 522.3187 523.0982 523.0982 523.3687
   523.3687 523.3687 523.8919 526.3412 526.3412 526.9717 526.9717 526.9717
   527.0260 527.0260 527.0260 527.0853 527.0853 527.0853 527.7995 527.7995
   527.8309 527.8309 527.8309 528.3809 528.5277 528.5277 528.5277 528.5609
   528.5609 529.7786 529.7786 529.7786 529.7858 529.7858 529.7858 529.9971
   529.9971 529.9971 530.0020 530.0020 530.0020 530.6600 530.6600 530.7040
   530.7040 530.7040 530.7663 561.7705 561.7705 561.7705 564.5978 565.0893
   565.0893 587.1551 587.1551 587.1551 594.2872 594.4387 594.4387 594.4387
   594.8221 595.4462 595.4462 595.8444 595.8444 595.8444 596.1741 596.4225
   596.4225 596.4225 596.4361 596.4361 596.4361 596.5758 596.5758 596.5758
   596.7401 596.7401 596.7401 596.9816 596.9816 599.4979 599.4979 600.6266
   600.6266 600.6266 600.6630 600.6630 600.6630 600.8072 601.1271 605.1213
   605.1213 605.1213 605.3401 605.3401 605.3401 605.4022 605.4022 605.4022
   605.5218 605.5218 605.5218 608.3377 608.3377 608.3491 608.3491 608.3491
   608.3562 608.3562 608.4245 608.4245 608.4245 608.4822 608.4822 608.4822
   608.5666 608.5666 608.5666 609.5217 609.5217 609.5967 609.5967 609.5967
   609.7167 634.3674 634.3674 634.3674 637.8157 638.2800 638.2800 638.2800
   638.4678 638.4678 638.5471 638.5471 638.5471 641.6537 641.6537 641.6537
   641.7666 641.7666 642.3256 642.3256 642.3256 642.3874 642.7212 642.7212
   642.7212 642.7339 642.7339 642.7339 642.9260 642.9260 642.9260 643.2395
   643.3619 643.3619 643.3619 643.4371 643.4371 652.7491 652.7491 652.7491
   655.9697 658.2695 658.2695 658.2695 658.8662 658.8662 658.8662 658.8709
   658.8709 666.7970 667.5200 667.5200 667.5200 667.6157 667.6157 667.6157
   667.6388 667.6388 667.8270 667.8270 667.8270 668.0139 668.0139 668.0139
   668.1812 668.1812 668.1812 668.1989 668.9099 672.0366 672.0366 672.1001
   672.1001 672.1001 672.2346 672.2346 672.2346 672.3864 672.3864 672.3864
   672.4957 674.3457 674.3457 674.3457 674.3519 674.3519 674.4814 674.4814
   674.4814 674.6035 674.6035 674.6035 674.7273 675.6946 675.6946 675.6946
   676.2813 677.5384 677.5384 677.5384 677.9334 677.9334 677.9334 677.9410
   677.9410 678.5943 678.8834 678.8834 678.8834 679.0941 679.0941 679.0941
   679.2565 679.2565 679.2795 679.2795 679.2795 709.3124 709.3124 709.3124
   711.3166 711.5826 711.5826 712.5841 712.5841 712.5841 712.6461 712.6461
   712.6461 712.7068 712.7068 712.7068 712.9369 712.9369 712.9369 713.4961
   713.4961 713.6725 713.6725 713.6725 713.8294 722.1601 722.1601 722.1601
   724.5227 725.4544 725.4544 732.1270 732.1270 732.1270 733.4537 733.4537
   733.4537 733.4637 733.8241 738.2431 738.2431 738.2431 738.4738 738.4738
   738.4738 738.5195 738.5195 738.5195 738.6168 738.6168 738.6168 738.6554
   738.6554 738.7899 738.7899 742.7589 742.7589 742.7589 742.7799 742.7799
   742.7799 742.9107 742.9107 742.9107 743.0023 743.0023 743.0023 743.5784
   743.5784 743.7350 743.7350 743.7350 743.7522 743.7522 743.8020 743.8020
   743.8020 743.8611 743.8611 743.8611 743.9908 743.9908 743.9908 745.2345
   745.2345 745.2345 745.2630 745.2639 745.2639 745.2639 745.3495 745.4385
   745.4385 745.4385 746.5339 747.7371 747.7595 747.7595 747.7595 747.9147
   747.9147 747.9149 747.9149 747.9149 747.9558 747.9558 748.2330 748.2330
   748.2330 748.2486 748.3884 748.3884 748.3884 748.4833 748.4833 748.4833
   748.7896 748.7896 748.7896 748.9983 748.9983 752.4022 752.4022 752.5311
   752.5311 752.5311 752.7956 752.9310 752.9310 752.9310 752.9327 752.9327
   752.9327 753.1305 753.1305 753.1305 753.1327 753.1327 753.1327 753.4035
   753.4035 753.4972 753.4972 753.4972 753.6519 779.5976 779.5976 779.5976
   780.3652 780.4195 780.5063 780.5063 780.5063 788.6090 788.6090 788.6464
   788.6464 788.6464 788.6542 788.6542 788.6542 788.6794 788.6794 788.6794
   788.7065 788.7065 788.7616 788.7616 788.7616 801.8124 801.8124 801.8124
   803.4130 803.6959 803.6959 807.2402 807.2402 807.2402 807.3296 807.3296
   807.3296 807.3999 807.3999 807.3999 807.4017 807.4017 807.4017 812.0163
   812.0163 812.1159 812.1159 812.1159 812.2882 816.2733 816.2981 816.2981
   816.2981 816.3185 816.3185 818.2891 818.2891 818.2891 818.3016 818.3016
   818.3016 818.3591 818.3591 818.3591 818.3888 818.3888 818.3888 819.2463
   819.2463 819.2852 819.2852 819.2852 819.3726 855.6763 855.6763 855.6763
   856.6036 856.9388 856.9388 856.9388 857.0587 857.8769 857.8769 857.9347
   857.9347 857.9347 858.0243 858.0243 858.0243 858.1126 858.1126 858.1126
   858.1279 858.1279 858.1279 858.2318 858.2318 873.1603 873.1603 873.1603
   874.6742 875.6915 875.6915 875.6915 876.7004 876.7004 876.7358 876.7358
   876.7358 878.1901 879.5394 879.5394 879.5394 880.2580 880.2580 880.2580
   881.2000 884.1781 884.1781 884.1781 884.3677 884.3677 884.4887 884.4887
   884.4887 884.7848 884.7848 884.9516 884.9516 884.9516 885.0234 885.0234
   885.0234 885.5619 885.8328 885.8328 885.8328 886.1017 886.1017 886.1020

          k =-0.1250 0.1250-0.1250 (  2430 PWs)   bands (ev):

   -40.3202 -19.0979   0.2034   0.5834   0.5834   9.8240  20.8969  22.5648
    22.5648  25.7731  25.9378  25.9378  31.2478  32.8482  32.8482  42.6493
    44.6875  44.6875  48.1140  59.4475  59.4475  62.9672  66.2743  66.6269
    66.6269  67.7966  67.7966  68.9099  71.3961  75.9181  75.9181  82.4968
    82.4968  85.5326  86.4093  86.4093  88.3327  89.1576  89.1576  89.2678
    93.5896  93.5896  93.6187  95.4717  95.4717  96.2480  98.2699  99.0503
    99.0503 102.0471 102.0471 102.7969 103.9418 104.7375 104.7375 105.2315
   108.2662 108.2662 112.5373 118.8830 118.8830 119.2621 125.5997 132.2185
   132.2185 140.1528 143.5031 143.5031 144.5887 149.7973 149.7973 153.2131
   154.9880 154.9880 156.1399 156.1399 158.5980 158.9667 158.9667 160.8166
   161.4638 161.7969 161.7969 163.5550 164.6041 164.6041 166.7629 167.3014
   167.3014 167.9828 169.4119 169.4119 170.4135 170.9252 170.9252 171.3849
   171.9986 172.6195 172.6195 175.2269 175.2269 179.2726 179.2726 179.4502
   180.0883 181.0090 183.7688 183.7688 185.3895 185.3895 186.1987 189.3266
   189.3266 190.8310 192.3443 192.3443 195.0880 195.0880 196.1159 200.2955
   201.4316 201.4316 203.1308 204.4738 204.4738 208.7777 208.7777 208.9843
   210.3316 210.3316 210.9804 216.1914 216.8729 216.8729 218.3403 220.4884
   220.4884 221.1147 221.7599 222.8849 222.8849 224.3981 226.0076 226.0076
   226.3754 227.2668 228.2496 228.2496 229.8812 230.0718 230.0718 232.0388
   232.0388 233.5698 233.6746 233.6746 241.9029 241.9029 243.2496 246.7603
   248.7002 248.7002 249.7628 249.8949 249.8949 253.5934 256.2008 256.2008
   256.8819 257.0422 257.0422 258.4107 263.8545 266.6272 266.6272 278.0466
   278.8588 278.8588 279.9533 279.9533 279.9543 283.9384 287.7733 287.9629
   287.9629 288.6487 288.6487 290.4736 293.0632 294.2085 294.2085 295.5932
   295.5932 295.7049 296.0529 296.7049 296.7049 297.2127 297.2127 298.5154
   298.5154 299.1855 299.1855 299.7929 301.5432 302.7605 302.7605 303.2557
   305.6526 305.6526 307.2165 307.2165 307.2197 307.9375 309.3552 309.5751
   309.7618 309.7618 310.7468 310.7468 311.5339 311.7365 311.7365 314.2490
   314.2490 314.2727 315.6085 315.6085 315.8862 317.6642 317.7531 317.7531
   318.2323 318.2323 318.3238 319.1837 319.8672 319.8672 323.5339 323.7736
   323.7736 324.9140 324.9140 324.9261 326.1758 327.0376 327.0376 328.0459
   330.5439 330.5439 330.6466 330.6466 332.0132 332.5066 332.5066 332.7825
   333.2018 333.2018 334.0062 334.9393 336.8588 336.8588 337.2498 341.4163
   341.4163 341.9075 342.8457 342.8457 346.7178 346.7178 346.8977 348.0309
   355.1409 355.1409 356.6045 358.0732 358.0732 362.0126 362.0126 363.9562
   363.9562 364.1091 364.3986 365.2298 367.9441 367.9441 369.0280 369.0280
   369.5788 371.2824 371.2824 371.5922 373.6168 373.6168 374.0606 374.4820
   375.4532 375.4532 376.8831 376.8831 377.2769 377.5999 377.5999 379.3356
   379.4594 379.4594 382.0426 385.1731 385.6531 385.6531 389.5488 389.9428
   389.9428 393.5924 393.5924 394.0399 394.2586 394.4336 394.4336 395.1187
   398.4833 400.8909 402.4277 402.4277 403.9673 403.9673 404.1291 407.4096
   407.4096 410.0982 411.6018 411.6018 413.2860 413.2860 413.8146 416.6117
   416.6117 416.8106 423.5419 423.5419 423.6576 429.5086 430.9762 430.9762
   433.6701 434.4289 434.4289 435.1045 435.7939 435.7939 436.5447 436.5447
   437.8433 438.4165 438.4165 438.5660 440.0043 440.0043 441.1095 441.1095
   441.5458 444.6394 444.6394 445.1387 445.1472 445.7870 445.8218 445.8218
   447.0220 451.4974 451.8430 451.8430 452.9644 452.9644 455.8168 455.8168
   456.0200 456.0312 457.5428 457.6212 457.6212 458.0544 458.0544 458.1619
   461.7810 464.5603 464.7222 464.7222 465.6446 465.6446 466.3739 466.5809
   466.5809 466.9184 469.1203 469.1203 469.6653 469.6653 470.5216 470.5984
   471.1655 471.1655 473.7649 473.7649 475.2435 475.3767 475.3767 475.4885
   476.7848 476.9923 477.0813 477.0813 479.5991 479.5991 480.0371 481.0436
   481.0436 481.6628 481.6628 481.8620 484.6245 486.0207 486.0207 486.5168
   487.1512 487.1512 489.1527 489.4459 489.4459 489.6460 491.7741 491.7741
   493.4948 493.4948 493.9586 495.5090 496.2695 496.2695 497.0402 497.7417
   497.7417 498.9253 498.9253 499.3690 500.0465 500.0526 500.0526 500.9815
   500.9815 501.0979 503.1366 503.3431 503.3431 505.7897 505.7897 506.4894
   506.4894 506.6488 507.3268 507.3399 507.3399 507.4638 508.9495 508.9495
   509.0461 509.4977 509.4977 509.8505 512.4529 512.4529 512.4993 514.2901
   514.6572 514.6572 516.5343 516.5343 516.5913 517.4054 518.8106 518.8106
   518.9541 519.3857 519.3857 519.4170 520.9679 520.9679 520.9738 522.5282
   522.5282 522.6047 522.7809 523.0431 523.0431 524.0593 524.0593 527.2863
   527.2863 527.8932 527.8932 528.5704 529.3174 530.2408 531.3329 531.3329
   534.2850 534.2850 534.5403 534.6377 537.5177 537.5177 538.7675 538.7675
   539.1142 539.7454 540.9322 540.9322 542.2610 542.2610 542.3424 544.4733
   544.7767 544.7767 545.9394 545.9394 546.3501 548.1890 551.4745 551.4745
   552.9146 553.9666 553.9666 554.2477 557.2792 557.2792 563.2054 567.4471
   567.4471 568.6713 574.8428 574.8428 576.8227 577.3934 577.3934 579.6784
   579.7794 579.7794 581.0944 581.3619 581.3619 582.1086 582.1086 582.5705
   584.8004 584.8004 585.1478 587.4292 587.4292 587.6102 589.4200 589.4200
   589.7416 594.0769 594.0769 594.4228 594.6212 594.6931 594.6931 595.3267
   595.3267 595.5811 598.0477 598.0477 598.5157 602.7735 602.7735 602.7834
   605.9513 605.9513 606.3705 609.5748 611.3500 611.3500 611.9612 611.9612
   612.1074 612.3657 612.3657 612.6243 614.0782 614.7185 614.7185 615.9649
   615.9649 616.2652 618.5092 618.5092 618.6446 620.6724 621.0718 621.0718
   621.9872 622.3522 622.3522 622.5947 624.2132 624.2132 624.5013 624.6873
   624.6873 624.6996 624.9959 624.9959 626.0059 627.2049 627.2049 627.6701
   630.8039 630.8039 630.9785 631.0861 631.0861 631.7876 633.0758 633.0758
   633.5121 635.7669 638.0736 638.0736 639.3492 639.3991 639.3991 639.7072
   640.2478 640.2478 640.3516 640.3516 640.7505 644.8103 645.2441 645.2441
   646.5571 647.6334 647.6334 648.4799 648.4799 648.6116 651.4712 651.4712
   651.7800 652.7748 652.7748 654.5989 655.6761 655.8868 655.8868 656.6028
   656.6028 657.0785 658.6165 658.7852 658.7852 659.8262 660.1439 660.1439
   660.7565 660.7565 660.8025 665.2730 666.2110 666.2110 668.1867 668.1867
   668.2501 668.8419 668.8419 669.0276 669.5455 669.7469 669.7469 669.9311
   669.9311 670.0725 670.0725 670.2176 670.2397 673.5067 673.5067 673.6863
   674.5309 674.5309 674.5955 677.7649 677.8343 677.8343 678.8065 678.8065
   678.9022 680.0404 680.2819 680.2819 682.5045 682.5221 682.5221 683.4174
   683.4951 683.4951 683.5483 684.7894 685.2165 685.2165 685.7609 685.7609
   686.5007 686.5007 686.7861 694.4733 694.4733 694.7232 697.7286 698.6607
   699.6291 699.6291 701.0827 701.3285 701.3285 701.7262 701.7262 702.5637
   702.5637 702.8376 702.8673 703.4436 704.2346 704.2346 704.5415 704.5415
   704.5978 705.0738 706.1971 706.1971 709.2101 710.3646 710.3646 710.4397
   710.4397 711.8829 715.6299 716.0353 716.0353 716.5915 717.1660 717.1660
   720.7531 720.7531 721.3229 721.5086 721.6659 721.6659 721.8007 721.8007
   721.9785 722.1743 722.3851 722.3851 722.5702 722.5702 722.6183 723.3425
   723.3425 723.7269 727.1078 727.3067 727.3067 728.1875 728.1875 728.2564
   728.8712 728.8712 729.2347 729.5700 729.5981 729.5981 730.4897 730.4897
   730.5549 736.7677 736.7677 737.0809 737.5826 737.5826 738.0174 738.1839
   738.1839 738.2378 738.3543 738.3543 738.4009 738.8042 739.3647 739.3647
   740.4535 740.4535 740.7607 742.0575 742.0575 742.1162 743.9379 744.1035
   744.1035 744.5939 744.9015 744.9015 744.9522 745.3264 745.5550 745.5550
   749.0788 749.0788 749.1285 751.3746 751.3746 751.6625 752.5212 752.5212
   752.7507 752.8182 752.9063 752.9063 753.0425 753.0425 757.8487 757.8487
   757.9150 759.9234 760.0223 760.0223 762.4090 762.4613 762.4613 762.9377
   763.1682 763.1682 763.4362 763.4544 763.4544 764.2095 764.2095 764.3525
   764.7905 764.7905 764.8531 766.2624 766.2624 766.2975 766.9024 770.0751
   770.0751 770.3911 772.8211 772.8211 773.5829 773.8381 773.8381 774.3213
   774.3213 774.3836 776.4296 776.4296 776.4876 776.9382 777.5659 777.5659
   777.8167 777.8167 779.2481 779.4619 780.0615 780.0615 780.1245 780.5549
   780.5549 782.8561 782.8561 783.0489 784.9177 784.9177 785.1794 789.7513
   789.7513 789.9289 791.1014 791.1014 791.3231 791.3231 791.3711 791.3867
   793.9384 793.9384 794.0647 796.6124 796.6124 796.6843 798.1084 798.1084
   798.1726 804.0700 804.0700 804.0702 805.5068 805.5683 805.5683 806.6755
   806.6755 806.7305 816.5662 817.8604 817.8604 818.2040 820.8076 822.3975
   822.3975 823.4613 823.4613 823.5256 825.1639 825.1639 830.2006 830.5057
   830.5057 831.9067 831.9067 831.9622 834.3481 834.6655 834.6655 837.1648
   837.1648 837.3211 838.7710 839.1079 839.1079 839.6576 840.4118 840.4118
   840.4814 844.6059 844.6782 844.6782 845.1203 845.1203 846.3274 847.2566
   847.2566 847.3366 849.4561 849.4561 852.4525 852.7223 852.7223 857.4420
   857.4420 857.8301 857.9408 858.0382 858.0382 858.0530 858.2736 858.2736
   859.3601 859.6254 859.6254 863.1996 863.1996 863.4890 864.3687 864.3687
   864.6737 865.3663 865.3663 865.4908 866.8678 867.1809 867.1809 867.8220
   867.8220 867.9992 872.6131 872.6131 872.6905 874.7072 874.7072 875.0810
   875.8445 875.8445 875.9968 876.4933 876.4933 876.6844 877.3908 877.3908
   877.6391 878.9914 879.2498 879.2498 880.1884 880.1884 880.3193 887.8074

          k =-0.2500 0.2500-0.2500 (  2439 PWs)   bands (ev):

   -40.3030 -18.9594  -0.6800   0.5067   0.5067  10.6762  18.2473  20.8531
    20.8531  27.1226  27.7372  27.7372  35.1319  35.1319  36.9369  39.9123
    45.5742  45.5742  47.8165  53.6349  53.6349  61.8889  65.9976  65.9976
    66.2604  67.7573  67.7573  70.1606  74.8818  76.2529  76.2529  78.4114
    81.3015  81.3015  82.3729  83.8048  84.5231  84.5231  88.8845  88.8845
    91.9242  91.9242  92.3598  94.3539  94.3579  94.3579 102.0282 104.3729
   104.3729 108.1077 108.8820 108.8820 109.7377 109.7377 110.8059 112.9764
   115.7168 115.7168 115.9069 119.4838 119.9475 119.9475 128.0600 128.0600
   129.3397 134.4022 137.3022 137.3022 141.3475 144.9598 144.9598 146.6547
   146.6547 148.4303 149.3836 149.3836 151.2235 154.2510 154.2510 157.6709
   158.0230 158.0230 160.2911 161.3649 162.5534 162.5534 165.2957 166.9702
   166.9702 167.7548 168.9218 168.9218 170.3396 173.5382 173.5382 173.6671
   174.4624 176.9412 176.9412 177.9763 177.9786 177.9786 184.1550 184.1550
   185.7407 186.2408 186.2408 188.6387 188.6387 188.9410 190.1732 193.8453
   193.8453 195.4644 195.5328 196.5200 196.5200 196.8752 198.0130 198.0130
   201.0787 201.0787 201.5508 203.7892 203.7892 205.4992 208.2568 208.2568
   210.3278 211.2340 211.2340 211.8115 213.6514 213.6514 214.5575 216.0544
   216.0544 217.2813 222.7049 222.7049 223.0976 223.7961 225.8552 225.8552
   226.4327 226.8846 226.8846 228.9952 230.9661 230.9661 231.3955 237.4544
   237.4544 239.1381 243.7169 243.7169 247.4218 249.2974 249.2974 249.9895
   249.9895 251.4696 252.7886 258.0560 259.0510 259.0510 260.2852 260.2852
   262.2580 262.3042 262.3042 266.4355 268.2130 268.2130 270.1540 270.1540
   270.1945 272.0343 272.0343 272.4005 276.3537 276.3537 276.6098 277.6055
   278.3311 278.3311 279.8216 279.8216 280.5539 281.6100 281.6100 281.9034
   281.9972 284.2104 286.9314 286.9314 289.5458 289.5458 290.5660 291.1504
   291.1504 292.0278 294.2272 294.2272 294.8635 303.2684 303.2684 303.8966
   305.6033 305.6033 305.8992 308.1989 308.3291 308.3291 308.6419 309.0082
   310.5721 310.5721 311.6109 311.6109 312.3209 313.5537 313.5537 314.8559
   314.8559 315.5413 316.1341 316.1341 317.8831 320.4208 320.4208 320.7816
   321.9743 322.0598 322.0598 322.3324 324.7879 324.7879 325.0873 325.2366
   325.2366 326.7330 330.3847 330.3847 330.6880 331.3123 333.4498 333.4498
   334.5073 334.5073 334.9560 334.9560 335.4981 338.4974 338.6943 338.6943
   338.9159 339.8618 339.8618 342.9458 342.9458 343.3805 345.2658 346.3316
   346.7793 346.7793 346.9623 346.9623 347.8436 350.9926 350.9926 352.3332
   352.3332 354.1203 354.1203 355.0245 355.1903 358.6166 361.0641 361.0641
   361.4036 363.3150 363.3150 363.6575 365.1178 365.1178 365.2865 366.4105
   366.4105 367.7057 367.7057 368.1803 371.7767 374.3483 374.3483 374.6249
   376.7979 376.7979 377.8216 379.7028 379.7028 381.9738 383.7143 384.7734
   384.7734 384.8099 387.4179 387.4179 392.5873 392.5873 393.0527 394.1824
   395.4465 395.4465 398.5311 399.9203 399.9203 401.4856 401.4856 402.7043
   404.2880 404.2880 404.5552 406.6772 406.6772 406.8203 407.5537 407.5537
   408.7067 410.9369 413.3030 413.3030 415.1083 415.9078 415.9078 417.2663
   417.2663 417.7402 418.7513 418.7513 418.8989 419.7535 419.7535 420.1458
   421.0710 421.0710 421.6119 424.1067 424.2685 424.2685 424.3826 432.5993
   432.5993 433.6260 433.6260 433.9680 434.6238 436.4650 436.4650 437.3118
   437.3927 437.3927 442.9188 443.4144 443.4144 443.7012 443.7012 444.7714
   445.4362 445.4362 447.3654 448.1102 448.1102 449.4966 449.9160 451.1496
   451.1496 453.2173 453.2173 453.4264 455.8010 458.5571 459.2482 459.2482
   459.5270 459.5270 460.4455 460.4455 460.5627 460.8176 464.8136 464.8136
   465.4438 465.5266 465.5266 466.7844 468.8885 468.8885 469.0333 470.1749
   470.1749 471.5338 471.5338 471.6357 472.3548 472.3548 472.6525 476.6535
   476.6535 477.2787 478.9108 480.5012 480.5012 481.2392 481.8231 481.8231
   481.9535 483.5881 484.0269 484.0269 485.8166 485.8215 485.8215 486.7412
   486.7412 487.2542 487.2542 487.5010 487.5679 490.0073 490.2253 490.2253
   493.1674 493.1674 493.4099 494.3250 494.3250 496.4951 497.0938 497.1355
   497.1355 497.4161 497.4161 497.5171 498.9344 499.8704 499.8704 501.3227
   501.3359 501.3359 502.1060 502.1751 502.1751 502.2998 502.7613 502.7613
   502.8354 502.9755 502.9755 504.9594 506.2313 506.2313 509.7759 509.7759
   510.2246 510.4245 510.4245 510.6365 512.6294 512.6294 512.7909 515.4414
   515.4414 515.4876 516.2349 516.2349 516.4783 516.4783 516.5195 516.6837
   517.4935 517.4935 517.5968 525.5883 528.8571 528.8571 531.5319 531.5319
   532.9134 533.5341 533.8339 533.8339 535.7826 536.1098 536.1098 536.8228
   538.0365 538.0575 538.0575 539.5919 539.5919 539.7753 539.9658 540.3638
   540.3638 542.3943 542.3943 542.6694 545.0256 546.8795 546.8795 549.5652
   549.9344 549.9344 550.5303 550.5303 550.6543 551.3074 551.3074 555.8335
   556.1401 556.1401 557.1827 557.1827 557.6317 557.8165 557.8165 558.0340
   562.2531 562.8764 562.8764 563.7407 563.7579 563.7579 565.4324 565.4324
   565.6927 566.0918 566.0918 566.0934 566.8861 566.8861 567.0559 573.6182
   573.8727 573.8727 575.2128 576.0471 576.0471 576.9684 576.9684 577.3126
   579.4874 579.4874 579.7419 580.8996 581.8233 582.1583 582.1583 583.0349
   583.0349 583.2897 584.5385 586.2350 586.2350 587.6672 587.6672 590.3497
   590.3497 590.6207 592.8712 592.8712 593.4552 596.7355 596.7355 597.0071
   598.4878 601.6351 601.6351 601.6793 603.0162 603.0162 603.1430 604.5222
   604.5222 605.2960 607.6209 607.6209 607.6911 607.9969 608.0161 608.0161
   613.0029 613.0029 613.4196 613.5035 613.5035 614.4061 615.7066 617.2256
   617.2256 620.8445 620.8672 620.8672 624.2883 624.2883 624.4149 625.3986
   625.3986 625.7940 626.6660 626.6660 627.5515 628.8580 628.8580 629.4507
   629.8107 630.5313 630.5313 632.8394 632.8394 632.8618 634.2870 634.5138
   634.5138 635.5199 635.9109 635.9109 637.0926 637.0926 637.4075 639.2761
   639.2761 640.6155 640.6155 640.6814 640.7234 646.1822 646.1822 646.2210
   647.5303 648.6728 648.6728 652.0731 652.0731 653.2854 653.6829 653.7760
   653.7760 654.2741 654.2741 654.4564 654.6376 657.0471 657.0471 658.2549
   659.3019 659.3019 660.7283 660.7283 661.0141 661.9890 661.9890 662.1026
   664.0663 666.4729 666.5405 666.5405 666.8853 667.5412 667.5412 667.6208
   669.6807 669.6807 670.1495 670.5983 670.5983 670.6856 672.6468 672.6468
   672.9941 672.9941 673.2576 673.2576 673.2877 674.0926 674.0926 674.1336
   677.7877 677.7877 679.3523 679.3836 679.5307 679.5307 680.0682 680.0682
   680.1058 682.7297 682.8573 682.8573 685.1056 685.1056 685.2142 685.3827
   685.6135 685.6135 685.6859 687.1183 687.1183 688.0766 688.0766 688.3784
   689.2289 689.2289 689.2934 691.5073 691.5073 691.7795 692.1025 692.2324
   692.2324 693.4782 694.3858 694.3858 695.7163 695.7163 696.0093 696.5581
   696.5581 696.8277 697.9990 698.0185 698.0185 698.1538 698.1538 698.4756
   701.3819 701.3819 701.5151 702.9245 703.4450 703.4450 704.3489 704.3489
   704.7255 706.2902 706.5831 706.5831 707.5016 707.5016 707.5590 709.8382
   711.1028 712.6510 712.6510 713.8130 713.8236 713.8236 718.2499 718.2499
   718.9232 718.9232 719.3109 720.0580 720.0580 720.1109 721.2164 721.2164
   721.4031 724.7093 724.9543 724.9543 725.5516 725.5516 725.5834 725.8822
   725.8822 725.9370 728.1860 729.4253 729.4253 730.7687 730.7687 731.3198
   732.4545 732.4545 732.7825 732.8222 732.8222 732.8846 735.6985 735.6985
   735.9008 737.8459 738.6088 738.6088 739.0703 740.9585 740.9585 741.0241
   741.9423 743.1099 743.1099 744.4788 744.4788 744.8342 745.1892 745.1892
   745.2626 749.7236 749.7236 749.7281 749.8108 750.1787 750.1787 750.3103
   750.6182 750.6182 756.3600 756.3600 756.5575 758.0724 758.0724 758.3747
   762.5075 762.6830 762.6830 763.6265 763.6265 763.6957 764.5314 764.5314
   765.0904 765.6640 766.0512 766.0512 766.5145 766.5742 766.5742 766.8506
   766.8506 766.9144 767.4754 767.8857 767.8857 768.2157 768.3815 768.3815
   768.7722 768.7722 769.0003 772.3512 772.3512 772.4112 778.3184 778.3184
   778.4485 778.8507 778.8507 778.8702 779.5811 779.5811 779.8827 780.8145
   781.0547 781.0547 782.1241 782.1241 782.1845 782.6111 782.6111 782.6689
   784.9692 785.1967 785.1967 785.9084 786.0843 786.0843 786.2626 787.6203
   787.6203 792.5014 792.5014 792.5417 794.8179 794.9814 794.9814 796.0642
   796.0642 796.1204 796.9781 797.0934 797.0934 797.9254 797.9254 797.9754
   801.6754 802.1129 802.1129 802.3269 803.1673 807.4994 807.4994 808.4157
   808.4157 808.4797 811.8614 811.8614 812.1414 812.4430 812.4430 813.8952
   813.8952 813.9297 814.4480 814.4663 814.4663 817.7836 817.7836 818.0748
   819.7891 819.7891 819.9088 822.3669 822.3896 822.3896 823.6138 823.6138
   823.6888 824.3852 824.4366 824.4366 827.6304 828.0121 828.0121 830.4620
   830.6505 830.6505 831.5109 831.5109 831.8451 834.6446 834.6446 834.7877
   837.5401 837.5401 837.6079 844.8740 844.8916 844.8916 845.6290 845.6290
   846.1995 846.2442 846.6091 846.6091 847.7076 847.7424 847.7424 848.0137
   848.0137 848.0520 851.8535 851.8535 852.0075 853.9442 857.0531 858.0740
   858.0740 858.1329 858.1329 858.1389 858.9616 858.9616 859.2370 859.4224
   859.4224 859.4537 860.6731 861.0504 861.0504 862.4989 862.4989 862.5086
   862.5086 862.8901 863.2419 863.2419 863.3827 872.5494 872.5494 872.9062
   873.4655 873.4655 873.5228 873.6140 873.6791 873.7162 873.7162 873.8524
   873.8524 875.5005 875.5005 875.8550 876.7570 876.9473 876.9473 877.1400

          k =-0.3750 0.3750-0.3750 (  2434 PWs)   bands (ev):

   -40.2857 -18.8142  -1.4598   0.4332   0.4332  11.1736  17.0790  19.6755
    19.6755  28.9934  29.8284  29.8284  35.3783  36.6952  36.6952  45.4136
    45.7425  45.7425  47.0421  51.3967  51.3967  60.6884  62.9825  62.9825
    64.1985  69.5976  69.5976  70.8564  71.6459  71.6459  72.2149  74.7147
    77.0457  77.0457  79.2204  86.0651  86.0651  86.3060  90.5154  90.5154
    92.0416  93.6336  95.1878  95.1878  98.0593  98.0593 105.3447 105.3447
   105.4063 107.3445 112.7132 113.1269 113.1269 117.9237 117.9237 118.8675
   119.0985 119.0985 119.4480 119.4480 119.6625 125.5292 128.1397 128.8006
   128.8006 132.8485 132.8485 132.8541 135.2103 135.2103 138.2821 138.2821
   139.8889 141.6582 142.5248 142.5248 150.9264 152.5278 157.3421 157.3421
   159.6159 159.9307 159.9307 161.2571 161.6604 161.6604 161.6718 163.4195
   163.4195 165.6426 165.7123 165.7123 170.4687 171.4912 171.4912 174.3563
   177.4744 177.4744 177.6388 179.2467 179.2467 181.2603 182.5107 184.8729
   184.8729 187.7316 187.7316 188.4629 188.7509 188.7509 189.0164 191.5584
   191.5584 192.5074 194.9770 198.1815 198.1815 201.6455 202.7270 202.7270
   206.6818 206.9727 206.9727 208.1426 209.4197 209.4197 210.4755 213.2017
   213.2017 213.4863 214.1011 214.3623 214.3623 218.0751 218.3726 218.3726
   218.5957 218.5957 219.4898 219.4898 220.9181 221.0473 221.3765 221.3765
   224.0159 227.6227 227.6227 233.9492 235.7465 235.7465 239.8907 241.5692
   241.5692 242.5387 243.5595 243.5595 243.7263 249.1057 249.1057 251.4593
   252.5671 252.5671 254.5804 256.2696 256.2696 258.4747 258.5958 258.5958
   260.1846 261.5801 261.5801 263.8327 266.0910 266.0910 267.4429 268.1665
   268.1665 268.5750 269.4053 269.4053 272.0191 272.0191 275.3167 275.3167
   275.5361 276.0954 277.9368 277.9368 280.1163 281.2950 281.2950 282.7733
   282.8437 282.8861 282.8861 286.7896 287.3972 287.3972 289.2018 289.2018
   289.2916 290.5006 290.5006 291.0094 296.3377 298.8080 298.8080 300.5252
   301.1411 302.5071 302.5071 303.7401 303.8133 303.8133 304.8259 305.3546
   305.3546 307.3493 308.0409 308.0409 308.2726 310.1188 310.1188 310.3206
   311.9915 311.9915 313.3098 313.4222 313.4222 319.5416 319.5416 320.1101
   321.5276 321.5645 321.5645 325.7297 326.7957 326.7957 327.6280 329.3196
   329.3196 331.4169 331.4169 331.6263 332.6836 333.0341 333.0341 333.2960
   333.8405 333.8405 334.3779 336.8820 336.8820 337.4454 337.4454 337.5766
   343.2695 343.2695 344.6578 345.6469 349.0100 351.0040 351.0040 351.7603
   352.0528 352.0528 352.9589 352.9589 353.2080 354.3518 354.3518 354.5001
   355.1292 355.6703 355.6703 360.8059 360.8059 361.3622 362.3436 362.6283
   362.6283 367.1970 372.2092 372.2092 372.5163 373.1778 373.1778 376.2203
   376.2203 376.9961 377.4181 377.6238 377.6238 378.6170 378.6170 379.5823
   380.4706 380.4706 382.0105 382.3194 384.5446 385.3177 385.3177 385.8400
   385.8578 385.8578 389.4119 390.2763 390.2763 391.0382 391.0382 391.7248
   391.7248 393.0347 396.5734 397.0451 397.0451 399.3068 399.3068 399.7436
   400.4151 400.4151 401.4133 405.0051 405.8112 405.8112 407.0071 407.0071
   407.9386 408.1425 408.1425 408.4888 410.5686 410.5686 410.6979 412.1288
   412.1523 412.1523 412.9640 414.4076 414.4076 416.7629 418.9390 418.9390
   420.0001 420.0001 420.2230 423.2641 423.2641 423.8961 423.8961 424.3306
   424.6010 429.8904 430.9480 430.9480 434.1604 434.3164 434.3164 434.5202
   437.0055 437.0055 441.0013 442.6304 442.6304 443.7659 443.7659 444.4768
   444.7978 444.7978 446.2208 446.8532 448.4999 448.9454 448.9454 449.1215
   449.1215 449.5036 450.6541 450.6541 451.6525 451.6525 451.9145 453.2454
   454.9040 454.9040 455.3401 455.8475 455.8475 456.1491 459.2931 459.2931
   459.7633 462.3873 462.3873 462.8995 462.8995 463.5364 464.1875 464.1875
   464.2910 467.2918 467.2918 467.3841 468.6228 468.6228 468.7744 471.3210
   471.3210 473.0929 474.4395 474.4395 474.5701 477.2928 477.2928 477.3065
   478.6124 478.6124 478.7062 479.4922 479.4922 480.3468 480.5271 482.1662
   482.1662 489.9993 489.9993 491.5840 493.5376 493.5376 493.6514 496.9022
   496.9022 497.3729 498.1598 498.9435 498.9435 499.4985 501.1284 501.1284
   503.7286 503.7358 503.7358 504.0119 504.2348 504.2348 504.3770 504.8444
   504.8444 505.4373 505.5474 505.8132 505.8132 507.2699 507.3668 507.3668
   509.4821 510.8448 510.8448 510.8763 511.2694 511.2694 511.5772 511.5772
   511.6151 511.7489 512.0023 512.7738 512.7738 513.8018 513.8018 515.0502
   517.6947 517.6947 519.0946 519.0946 519.1219 523.5990 525.1227 525.1227
   528.2778 528.2778 528.4434 528.6928 529.1070 529.1070 531.3439 532.6871
   532.6871 534.6144 534.6144 535.0097 536.4778 537.7134 537.7134 541.1041
   541.1041 542.9449 543.2059 543.2059 543.5878 544.9846 544.9846 545.6726
   549.2044 549.7386 549.7386 551.1260 551.1354 551.1354 551.3508 551.3508
   551.5483 553.1536 553.1536 553.2759 553.7380 553.7380 553.8181 558.1731
   558.1731 558.3209 558.4149 559.6843 559.6843 562.8648 563.0473 563.0473
   563.4253 563.4253 563.4921 563.7161 563.7161 563.9091 565.4718 565.4718
   565.5401 566.0826 566.0826 566.4433 568.5704 570.1747 570.5596 570.5596
   571.6057 571.6057 571.8607 573.7390 575.1446 575.4623 575.4623 577.6552
   578.2498 578.2498 580.1724 580.1724 585.1307 585.1307 585.2985 586.0393
   586.0393 586.4823 586.6398 586.7270 586.8615 586.8615 588.1006 588.1006
   588.5095 588.5095 588.6867 591.4464 591.4464 591.9220 592.2066 592.2066
   592.2538 593.0182 593.0182 593.4132 595.2029 595.2029 595.7424 597.2706
   597.4455 597.4455 600.2000 601.3199 601.3199 601.4362 602.0863 602.0863
   606.0923 606.0923 606.3503 606.8781 606.8781 607.2333 611.3254 613.7116
   613.7488 613.7488 616.4410 616.4410 617.6564 619.0092 619.0092 620.1914
   620.9772 620.9772 622.7517 622.7517 622.8364 632.1321 633.5596 633.5596
   635.4340 635.6106 635.6106 636.0087 636.0087 636.0508 637.6425 639.3516
   639.3516 640.9553 640.9553 640.9810 641.3390 641.3390 641.3404 644.9997
   645.4312 645.4312 646.1597 646.1597 646.7024 646.7688 646.7688 647.3231
   647.3231 647.5472 647.6655 648.5169 648.5169 648.5342 650.0780 650.0780
   650.2230 650.4594 650.5340 650.5340 652.0043 652.0464 652.0464 653.0356
   653.0356 653.1672 655.9149 657.5355 657.5355 661.9016 662.1288 662.1288
   662.3041 662.3041 662.4124 666.2546 666.2546 666.2992 666.9423 666.9423
   667.0277 667.1653 667.1653 667.7473 668.6231 668.6231 668.7057 671.7466
   672.8815 672.8815 673.8868 673.9055 673.9055 676.0297 677.0610 677.0610
   677.5552 678.2486 678.2486 678.3210 678.7711 678.7711 678.9368 679.3861
   679.3861 679.3932 681.7410 681.7410 682.2188 683.9176 684.3025 684.3025
   684.5489 684.5489 685.3828 685.3828 685.3842 686.2441 686.2441 686.3808
   686.3995 687.4184 687.4184 687.6588 688.3684 688.3684 688.7546 688.7546
   688.9870 689.7904 689.7904 689.8561 693.0069 693.0069 693.1541 693.5137
   693.5137 693.5554 695.9768 696.1089 696.1089 696.6349 696.6349 696.6879
   697.4259 699.3985 699.3985 699.4149 700.2887 700.3273 700.3273 700.5415
   700.5415 700.5873 705.6174 705.6174 705.6668 706.6189 706.6189 709.6459
   709.6459 710.0181 710.6350 710.6350 710.6830 714.3474 714.3474 714.3851
   714.7627 714.7627 714.8190 721.8381 723.1226 723.1226 723.4166 724.0429
   724.0429 727.2418 727.2418 727.5567 729.8999 729.8999 730.0929 733.6895
   733.6895 734.2664 735.5180 735.5180 735.5847 736.8171 736.8171 737.2487
   739.0087 740.2660 740.2660 740.6885 740.6885 740.7363 742.3719 742.3719
   742.6507 742.9594 742.9594 742.9699 743.4521 743.4701 743.4701 743.6697
   743.6697 743.7126 744.0271 744.0271 744.0973 748.2946 748.2946 748.5163
   748.5163 748.6073 748.7346 749.8187 750.1055 750.1055 751.8808 753.6891
   753.6891 754.0320 754.0320 754.1043 758.6652 759.2558 759.2558 759.6357
   759.9911 759.9911 763.5442 763.5442 763.9035 765.2445 765.2445 765.3218
   766.4093 766.5317 766.5317 766.6304 766.6304 766.7521 767.2023 768.6186
   768.6186 768.6853 770.5539 770.5539 770.6080 773.3825 775.6640 776.2559
   776.2559 776.6561 776.6561 777.3716 777.3716 777.4256 778.3716 778.3716
   778.5260 782.4312 782.4312 782.5351 782.5745 783.1951 783.1952 784.6292
   784.6410 784.6410 786.5785 786.5785 786.6357 788.0482 788.0482 788.2925
   793.1151 793.2181 793.2181 793.9906 793.9906 794.0372 796.4722 797.3602
   797.3602 797.5379 797.6538 797.6538 798.2120 798.2120 798.4613 802.4768
   802.7486 802.7486 802.8291 803.1119 803.1119 804.0003 804.0003 804.1804
   804.8266 804.8266 804.9885 807.1776 807.1776 807.2989 807.3140 807.5559
   807.5559 808.0005 808.0005 808.0710 808.4545 808.4545 808.6479 813.0176
   813.0176 813.2584 819.4600 819.4600 819.5233 821.0574 821.1610 821.1610
   821.9986 822.2382 822.2382 822.7047 822.7047 822.7461 822.9497 824.1361
   824.1361 824.8823 824.8823 825.0091 827.5015 827.5015 827.7192 828.0985
   828.1805 828.1805 828.7144 828.7144 829.0348 837.6264 837.8987 837.8987
   838.2054 842.8644 842.8644 844.3556 844.3556 844.3602 844.4120 844.4120
   844.4198 844.6940 845.5286 845.5286 845.7858 846.1444 846.2397 846.2397
   847.1352 847.1352 848.2401 848.9728 849.0552 849.0552 849.2914 849.2914
   850.0387 850.6023 850.6023 851.0323 851.6094 851.6094 851.6545 851.6545
   851.7087 852.0703 854.2852 854.6963 854.6963 855.6901 855.6901 855.9373
   857.7063 858.0077 858.0077 858.5903 858.5903 858.8256 860.7223 860.7223
   861.0279 861.2944 861.2944 861.3322 865.2133 865.2133 865.2669 865.3584
   865.3584 865.3762 868.5533 868.5533 868.7952 869.0843 869.0843 869.1390

          k = 0.5000-0.5000 0.5000 (  2452 PWs)   bands (ev):

   -40.2786 -18.7518  -1.7621   0.4036   0.4036  11.2455  16.8812  19.2627
    19.2627  30.4358  30.9861  30.9861  33.4446  36.9768  36.9768  44.9210
    44.9210  46.5774  52.1833  52.4558  52.4558  54.9482  60.6329  60.6329
    64.9150  67.8012  70.0832  70.0832  71.3180  71.3180  74.3289  74.3775
    74.6348  74.6348  76.2141  85.9362  85.9362  89.0666  89.9909  89.9909
    91.3062  95.9820  97.9955  97.9955 101.9751 102.6354 102.6354 107.0549
   107.9497 107.9497 108.8331 108.8331 115.4697 118.6546 118.6546 120.6217
   122.4585 122.4585 122.9456 125.8617 125.8617 126.5939 126.5939 127.3424
   128.0399 128.0399 128.0474 128.0474 129.3248 129.3942 138.6928 141.0737
   141.0737 141.1157 146.1273 146.7784 146.7784 147.1103 147.1103 157.1296
   157.1296 157.4619 157.8190 160.5772 160.5772 161.3118 162.7731 163.7410
   163.7410 164.8313 167.9108 170.4442 170.4442 172.8134 173.4834 173.4834
   177.0841 177.0841 177.6221 178.4430 178.4430 181.2961 182.5751 182.5751
   182.5782 182.5782 182.6232 182.6340 191.6952 192.7481 192.7481 194.8765
   194.8765 196.5504 197.2129 198.8111 198.8111 198.9323 198.9323 199.8504
   199.8648 208.6709 208.6709 210.8179 212.9591 213.0339 213.0339 214.7791
   214.7791 215.0520 215.0520 216.1347 217.3709 217.3709 217.7022 218.0388
   218.0388 218.0822 220.2402 227.3444 227.9203 227.9203 228.0945 229.4199
   229.4199 230.2676 235.5398 235.5398 235.5577 235.5577 236.9405 236.9405
   237.0705 237.0705 237.4185 237.4268 243.6530 243.6530 248.3126 248.8220
   250.0638 250.0638 252.1849 253.6779 253.6779 254.2809 254.2809 254.4593
   254.6433 257.2101 257.2101 261.9069 261.9069 268.5567 268.5567 268.7840
   268.8698 268.8698 269.4704 270.8562 274.9376 277.6417 277.6417 281.0626
   281.4064 282.8269 282.8269 283.6094 284.1576 285.0330 285.0330 285.4612
   285.4612 286.4020 286.8949 286.8949 288.7198 288.7198 289.0413 289.6624
   289.6624 289.8682 289.8682 289.8934 290.1406 290.4153 290.4153 290.4235
   290.4235 291.5223 301.9287 301.9287 302.2072 303.7017 303.7017 304.7672
   305.2691 307.3797 307.3797 307.5065 307.5065 308.0922 308.6194 308.6194
   308.6535 308.6535 308.7456 308.9102 316.1146 316.7849 316.7849 318.8217
   318.8217 321.4838 322.3979 324.3835 325.1661 325.1661 325.3262 325.3262
   325.4293 325.6149 327.5505 333.6740 333.6740 337.0200 337.0200 339.6295
   341.3003 341.9526 341.9526 342.0760 342.0769 342.0769 342.3449 342.3449
   342.5163 343.1058 343.1058 343.7276 345.1653 345.1653 345.1910 345.1910
   345.2432 345.3647 345.9654 355.0049 355.0049 356.9368 356.9368 358.6338
   362.6955 365.7313 365.7313 367.3575 370.1959 370.8877 370.8877 372.3860
   372.3860 373.3537 373.3537 376.4959 377.2180 377.3267 377.3267 377.5140
   377.5140 379.0850 379.2328 379.2328 379.3729 379.3729 379.3789 379.8657
   379.8657 379.9165 379.9165 380.1288 380.1602 380.9034 388.9512 390.0746
   390.0746 390.4052 390.9616 391.9746 391.9746 395.2562 395.2562 395.2988
   395.2988 395.2993 395.5618 395.7400 395.7400 395.8236 395.8236 397.7542
   397.7542 397.7591 397.7903 397.8003 397.8003 397.9183 399.2979 399.2979
   399.3018 399.3018 400.5719 400.5726 404.7809 408.0515 414.3492 414.3492
   415.2291 415.4303 415.4303 415.9969 416.3851 416.3851 416.4553 416.4553
   423.0438 423.0438 423.9604 426.3595 427.9685 427.9685 428.2622 428.6448
   428.6448 428.9459 428.9459 431.9955 433.1309 433.1309 433.2054 433.3617
   433.4674 433.4674 434.2083 434.2083 434.3920 434.3920 434.7098 434.8610
   439.0203 439.0203 444.1317 444.1317 444.6589 445.3027 447.7458 448.1521
   448.1521 450.1118 450.3929 450.3929 450.8660 450.9304 450.9304 450.9664
   450.9664 451.3293 451.3293 451.4101 451.4101 451.4166 451.4167 451.4879
   465.0437 465.0437 465.9425 466.6958 467.1627 467.1627 468.1015 468.1015
   468.1557 468.7857 468.7857 468.9506 468.9506 468.9622 469.1207 469.1207
   469.2207 469.4273 472.8736 479.6295 481.3164 481.3164 481.6876 483.4264
   483.4264 485.4427 485.4427 485.4812 485.4812 485.5553 485.5808 485.6177
   485.6188 485.6188 485.6847 485.6847 485.8165 486.3249 489.2771 489.2771
   489.3509 489.3509 492.5290 494.9073 494.9073 496.4217 496.4217 499.7364
   500.2466 500.8826 500.8826 500.9355 500.9355 501.8253 503.2981 503.7039
   503.7039 504.4700 504.4977 504.4977 506.0114 506.0343 506.0343 506.2230
   506.2230 506.4527 508.1160 508.1697 508.1697 508.2246 508.2246 508.2591
   515.5549 518.5297 518.5297 519.2461 519.2461 519.6835 523.5468 523.5468
   523.7674 523.7674 524.0563 524.1468 529.6388 533.5086 533.5086 536.1920
   536.1920 537.2368 537.4970 538.9136 539.4513 539.4513 539.4566 539.4566
   539.5975 540.2972 540.3319 540.3319 540.3445 540.3445 540.4132 540.4825
   541.8848 541.8848 541.9094 541.9094 542.0186 542.1295 549.4788 550.8612
   550.8612 551.2419 551.3550 551.9861 551.9861 553.1017 553.1017 553.2654
   553.2654 554.6958 554.6958 555.1743 555.2103 555.2103 555.5902 555.8681
   558.4855 558.6092 559.2296 559.3309 559.6609 559.6609 559.7730 559.7730
   559.8220 559.8220 559.9172 559.9172 559.9827 559.9827 560.0190 560.0190
   560.3843 560.3983 561.0092 561.0092 561.0543 561.0543 561.2786 561.2955
   574.1989 574.4474 574.4474 575.0205 575.0205 575.3254 576.7085 577.0114
   577.0114 577.0941 577.0941 577.2662 577.2678 577.2889 577.2889 577.3775
   577.3775 577.3780 579.3957 579.3957 579.4107 579.4107 579.5175 579.5259
   592.7267 592.7267 592.9850 593.5582 593.5582 594.2866 594.4000 594.4084
   594.7150 594.7150 594.7725 594.7725 601.1973 605.1438 608.1346 608.1346
   608.8805 609.1550 609.1550 609.7092 611.2637 611.2637 611.4152 611.4152
   611.5881 611.5881 611.6111 611.6111 611.8978 611.9208 612.0509 612.0509
   612.2171 612.2573 612.2573 612.6756 615.4047 615.4047 615.4064 615.4064
   616.8328 616.8343 627.2319 627.6507 627.8434 627.8434 628.8604 629.1174
   629.1174 629.3589 629.3589 629.4476 629.4476 629.8726 633.6619 633.6619
   633.6662 633.6662 633.9253 633.9275 637.5370 637.5370 639.3851 640.6964
   640.6964 641.2600 642.0460 642.5790 642.5790 643.0087 643.2999 643.6198
   643.6198 644.0030 648.3086 648.3086 648.4837 649.0364 649.0364 649.0493
   651.2310 651.2310 651.2347 651.2347 660.2536 660.2536 660.6840 662.0460
   662.0460 662.4689 663.2269 663.2269 663.5216 663.5216 663.5450 664.2128
   665.2298 665.2298 665.2633 665.3439 665.8039 665.8039 665.9365 666.2301
   666.3144 666.3144 666.5234 666.5234 667.4805 667.5211 667.5239 667.5239
   667.6028 667.6371 667.6371 667.7041 667.7041 667.7084 667.7084 667.7438
   668.6861 668.6861 668.7222 668.7438 668.7438 668.8031 669.7093 669.7093
   669.7271 669.7271 669.7717 669.8692 682.1972 682.1972 682.2184 682.2211
   682.2211 683.1552 683.5976 683.5976 683.6644 683.6644 683.6804 683.6865
   686.1459 686.1459 686.1459 686.2087 686.2575 686.2575 696.2679 697.6785
   697.8396 697.8396 698.1087 698.1087 700.7544 700.7544 701.3390 701.3390
   701.3411 701.5833 701.7679 701.8730 701.8730 701.8913 701.8913 701.8933
   703.9751 703.9751 704.0099 704.0099 704.1287 704.1287 704.1724 704.2031
   704.2059 704.6332 704.7172 704.7172 704.8687 704.8687 704.8744 704.9598
   704.9598 705.0343 717.7886 719.0474 719.4984 719.4984 719.7339 719.7339
   719.8769 719.9545 720.6106 720.6106 720.6307 720.6307 721.1849 721.3774
   721.3774 721.4228 721.4540 721.4540 721.5870 721.5870 721.5923 721.5923
   721.6051 721.6326 731.6655 731.8406 735.2261 735.2261 735.6507 735.6507
   735.7097 736.0133 741.0524 741.0524 741.0607 741.0607 741.3943 741.3943
   741.4251 741.4251 741.4392 741.5127 751.1565 751.5617 751.5617 751.9640
   751.9640 752.6341 752.7355 753.0429 753.0429 753.0627 753.0627 753.0728
   755.3737 755.5116 755.5116 755.6493 755.6493 755.6613 755.8149 755.8149
   755.8182 755.8182 755.8276 755.8739 757.2088 757.2088 757.2146 757.2146
   757.4920 757.5195 759.3528 759.3528 759.3730 759.3730 759.3948 759.4414
   767.5074 767.7711 768.5089 768.5089 768.6473 768.6473 773.6666 773.6666
   773.7100 773.7100 773.7803 773.8225 775.5919 775.8661 775.8661 775.8846
   776.0414 776.0414 776.3494 776.3494 776.3738 776.3738 776.4936 776.5029
   778.0657 778.0657 778.0810 778.0810 778.1174 778.1433 790.2232 790.5547
   791.6807 791.6807 791.6917 791.6917 791.7115 791.7115 791.8676 791.9525
   791.9525 792.0235 792.6731 792.6731 792.7153 792.7153 792.7550 792.8220
   795.6121 795.6121 795.6154 795.6154 796.0016 796.0022 804.1676 804.2905
   804.2905 804.4160 804.4160 804.4751 808.9298 809.2073 810.0188 810.0188
   810.1484 810.2177 810.2177 810.4029 810.7684 810.7979 810.7979 810.8168
   810.8168 810.8216 811.1495 811.1555 811.1555 811.1636 811.1636 811.2882
   823.8232 823.9957 823.9957 824.5198 824.5198 824.5500 825.4336 825.4336
   825.4708 825.5484 825.5523 825.5523 826.5988 826.5988 826.8079 826.8079
   827.1621 827.3950 827.4103 827.7133 827.7133 827.7442 827.7657 827.8106
   827.9487 827.9487 828.1351 828.1351 828.2038 828.2038 830.6995 830.7109
   830.8326 830.8326 830.8580 830.8580 831.3831 831.3831 831.4052 831.4052
   831.4923 831.5096 831.8649 831.8649 831.8707 831.8707 832.0094 832.0212
   847.6142 847.6414 847.7380 847.7380 847.7760 847.7760 848.2031 848.2031
   848.2259 848.2259 848.3112 848.3214 848.3492 848.3944 848.4980 848.4980
   848.5291 848.5291 858.9768 858.9768 859.5436 859.5436 859.5741 859.7935
   863.5415 863.5648 863.5648 863.5811 863.5811 863.6265 865.2563 865.2563
   865.3351 865.3394 865.3968 865.3968 866.1769 866.1769 866.2117 866.2369
   866.2369 866.3339 866.4732 866.4732 866.6410 866.6753 866.6873 866.6873

          k = 0.0000 0.2500 0.0000 (  2421 PWs)   bands (ev):

   -40.3179 -19.0775   0.2315   0.4757   0.4757  10.0163  21.9175  22.0025
    22.0025  22.3042  28.0776  28.0776  31.3726  32.2126  33.6657  43.5299
    44.0772  44.0772  48.2647  59.7779  59.7779  59.7947  64.9400  65.3745
    66.4130  68.3679  68.3679  70.8924  74.6038  74.6038  77.5306  81.9174
    81.9174  83.1765  83.3502  84.7396  89.0805  91.1112  91.1112  92.5876
    92.5876  92.8134  93.3812  93.5710  93.5710  94.2172  97.3451  98.3156
   100.0991 101.8712 101.8712 102.8964 104.7541 106.9456 106.9456 109.3352
   109.3352 111.2167 113.0516 113.7108 121.3005 121.3005 125.5712 131.7341
   133.9233 138.9100 138.9100 142.2015 148.8121 150.2011 151.1315 151.2648
   151.2648 153.9508 153.9508 155.9981 155.9981 156.8148 157.4258 157.8852
   158.8777 160.2563 161.6566 161.6566 164.1128 165.3804 165.3804 166.5771
   168.1740 168.6065 170.2415 170.2415 171.4294 172.0969 173.1944 173.1944
   173.3693 175.5755 175.5755 176.1341 176.5357 177.8045 181.3551 182.0426
   182.0426 182.9852 182.9852 183.3242 183.8694 186.3626 188.4357 188.6911
   188.6911 191.5583 191.8324 191.8324 194.9462 195.5093 197.7358 197.7358
   200.1777 200.2426 202.5746 203.0650 203.0650 203.8034 206.9597 206.9597
   210.6218 214.6775 214.6775 215.6857 216.9025 216.9025 219.2679 220.4668
   221.2013 221.2013 221.7430 221.8234 222.2127 222.9828 223.1620 224.3466
   224.3466 226.5629 228.6150 228.6150 229.5484 232.0302 235.5094 235.5517
   235.5517 236.0592 238.6638 238.6638 239.7086 240.9926 245.2533 245.4151
   245.4151 246.1858 249.0925 249.0925 250.4109 251.0766 255.4682 255.4682
   258.4206 261.0857 261.0857 262.1128 262.6319 265.8842 269.0847 269.0847
   277.9735 277.9735 278.1983 278.2712 282.2545 282.9075 286.9542 286.9542
   286.9782 288.2760 290.7242 290.7242 291.3871 291.6741 291.9860 292.9788
   292.9788 294.7077 295.4309 295.7293 295.7293 296.5319 296.5319 297.6866
   298.1428 299.2911 300.1033 300.1033 301.1737 301.8464 302.5697 302.5697
   303.1779 303.1801 305.3596 305.3596 305.4263 305.4701 305.8789 308.3578
   308.3578 309.5486 309.5486 310.0650 311.3625 312.5631 312.8152 313.1214
   313.1214 314.4411 315.1642 315.2395 315.2395 315.6492 316.4212 317.7569
   317.7569 318.8919 319.5725 323.6554 323.6554 324.1529 324.4802 325.2164
   326.4558 326.4558 326.5918 326.5918 326.8961 326.9759 327.5501 327.5501
   330.6080 330.9245 331.9129 333.7090 334.5187 334.5187 336.2270 336.2292
   336.2292 336.9959 337.8957 338.5562 338.5562 339.2865 340.1556 340.1556
   340.6174 342.3904 342.7108 350.2269 350.6580 350.6580 352.8252 353.1927
   353.3143 353.3143 353.7354 354.2664 354.2664 356.2409 356.7493 360.1158
   362.8849 362.8849 362.9438 363.2332 363.3891 363.3891 364.4929 364.9683
   364.9683 366.1004 366.4162 369.4409 369.4954 369.4954 369.8044 372.6387
   378.3217 378.5734 378.5734 380.5423 380.5423 381.2924 381.6898 382.0430
   382.0430 382.2874 384.7003 385.9950 385.9950 387.4533 389.7196 395.4911
   395.8353 395.8478 395.8478 396.5249 397.8686 397.8686 399.7156 399.7754
   400.2381 400.2381 400.4287 400.9622 403.8921 403.8921 403.9082 404.3148
   405.8481 405.8481 407.2857 407.4481 414.4334 415.9947 415.9947 417.4833
   417.4833 418.4232 422.4380 422.7248 423.7681 423.7681 425.7644 428.1863
   429.3182 429.3182 432.7527 432.7527 434.2346 434.5312 434.8546 434.8546
   435.1163 436.1704 436.2856 440.8963 440.8963 442.1336 442.5137 443.3961
   443.3961 443.7882 443.9191 444.1255 444.2766 444.2766 446.0145 452.1952
   452.3410 452.3410 452.4589 452.5642 454.4505 454.4505 455.7079 455.7871
   455.7871 456.6976 456.9246 458.4126 459.4535 459.4535 459.8556 460.1194
   462.4148 462.4919 462.4919 462.5525 463.6766 463.6766 463.7847 463.9422
   465.5784 465.5784 467.3212 467.3212 468.0729 468.1388 468.2215 471.2766
   472.6498 473.2476 473.2476 473.8401 474.4269 477.2063 477.2063 478.5334
   478.7710 478.8220 478.8220 479.6166 479.8758 479.8758 479.8909 480.1399
   480.2096 480.7072 480.7072 481.0584 482.4625 486.2430 486.2430 486.6231
   486.6231 487.2443 487.7221 487.7221 488.1335 488.4596 488.7835 488.7835
   489.3820 491.3521 491.9914 491.9914 492.0119 492.0857 492.5139 495.5244
   495.9074 495.9074 496.2196 498.7352 498.7352 499.5678 499.6062 501.5520
   501.5520 503.4024 503.4444 503.8566 503.9158 503.9158 505.1343 506.5219
   506.5219 506.8175 507.4327 508.7786 508.7786 508.8239 508.9572 511.5439
   511.5439 511.6495 512.1406 514.4252 514.6546 514.6546 515.2674 515.4929
   515.4929 515.7263 516.1397 516.2462 516.9674 516.9674 517.3500 517.8045
   517.8045 518.1088 519.1499 519.4905 519.6654 519.6654 519.8510 522.1839
   523.5154 523.5154 524.0931 525.7755 527.7472 527.9285 527.9285 528.1938
   528.1938 528.6227 529.5574 529.7309 530.4187 531.0863 531.0863 531.4566
   534.5129 535.1398 535.1398 535.5630 537.1066 537.3163 537.3380 537.3380
   542.5972 543.4378 543.4476 543.4476 543.4523 545.7588 545.7588 546.6976
   549.5105 550.1464 550.1464 550.1648 550.4455 552.2456 552.2456 555.9470
   560.0356 560.1973 561.3732 561.3732 561.8863 561.8863 562.7893 563.8005
   564.8209 564.8209 565.4839 565.5479 566.0963 569.8375 569.8375 574.0730
   575.2165 575.3009 575.3009 576.7216 581.5544 581.5544 582.2025 582.9252
   583.2114 583.5090 583.5090 583.7665 586.8680 586.9352 586.9352 587.6110
   590.5974 590.6294 590.6294 590.9820 593.8222 593.8222 594.8803 595.2748
   599.4106 602.9687 602.9687 603.7934 604.7290 604.8119 605.4958 605.5929
   605.5929 605.8325 606.4636 606.4636 607.8844 608.7634 608.7634 609.1406
   610.0284 610.6657 610.8412 610.8412 611.0761 612.2835 612.2835 612.3934
   612.4705 614.9963 615.3588 615.3588 615.6728 618.4780 619.0299 619.0299
   619.9426 625.2718 626.8098 626.8098 626.8106 626.8932 627.8319 627.8319
   628.0686 628.6143 629.0931 629.0931 630.8039 632.5161 632.5161 632.5995
   633.1664 633.5710 634.1377 634.2935 634.2935 634.4017 634.4017 634.5386
   634.5911 636.1460 638.7435 638.7435 639.5807 639.6948 641.2464 641.6800
   641.6800 642.0595 642.0595 642.3452 642.5822 642.6036 642.6036 643.1461
   646.1634 646.1634 646.1853 646.2086 646.4582 649.5907 650.3043 650.3043
   650.9053 650.9510 650.9510 650.9552 651.0844 651.1314 651.1314 651.2426
   651.5310 652.3508 652.3508 652.3740 652.4020 652.8506 653.0642 653.0642
   653.2370 656.2420 656.2420 657.5958 657.9009 665.3226 665.9414 665.9414
   666.0891 666.1147 666.1173 666.1173 666.5475 669.6182 669.6182 669.6555
   669.9478 673.6989 673.6989 673.7271 673.9457 674.9227 677.2323 677.2323
   677.2927 677.2927 677.3184 677.3268 677.7476 678.1778 678.9231 678.9231
   679.9730 681.1429 683.0314 683.0314 684.5333 684.6250 687.1842 687.1842
   687.4510 687.5598 690.9056 691.3278 691.3278 691.7847 694.6484 694.6484
   694.9464 695.1952 696.2509 696.3581 696.3581 696.4439 696.5810 697.2065
   697.2065 697.5097 702.2289 702.2289 703.7899 704.5862 704.5862 704.5890
   704.7416 705.1163 705.1163 705.2058 705.2622 705.2622 705.3499 705.5545
   706.9994 707.1379 707.1379 707.3157 707.9755 711.3751 711.4914 711.4914
   711.5370 711.8672 711.8672 711.8911 712.7381 712.7381 712.8046 712.9689
   713.1439 713.2625 713.2625 713.3866 713.4614 716.9472 716.9472 717.1315
   717.4646 717.6007 717.6007 718.0216 718.1161 718.9386 719.0870 719.0870
   719.3735 723.3728 723.3728 724.6453 724.9487 726.5047 726.6256 726.6256
   726.6715 730.7019 730.7607 730.7607 730.8348 730.9253 730.9253 731.0785
   731.5161 731.5200 731.6550 731.6550 732.2313 732.7901 732.9304 732.9304
   733.1236 740.7511 740.7554 740.7554 740.8083 742.2570 742.2570 742.4059
   742.5613 742.9769 743.0047 743.0047 743.0776 744.3034 744.3034 744.3442
   744.5368 747.2817 749.1581 749.1581 749.7822 749.7822 749.9945 750.2074
   750.3861 751.0046 751.3028 751.3028 751.6010 755.1160 755.2496 755.2496
   755.6323 756.0709 756.0709 756.1143 756.1250 758.8879 758.8879 759.0869
   759.4191 760.1547 760.1839 760.1839 760.2796 761.1186 762.1764 762.2005
   762.2005 762.2654 762.8868 762.8868 763.1748 763.1954 764.1480 764.2830
   764.2830 764.4924 765.7092 767.3223 767.3223 769.2058 769.2486 769.2486
   769.5667 769.6394 769.6442 769.6442 769.6719 770.2419 770.3318 770.3318
   770.4394 771.2309 771.2309 771.4378 771.7636 772.0984 775.9552 776.0089
   776.0089 776.1087 776.2871 778.3097 778.3097 779.2594 783.3946 783.6265
   783.6265 784.9142 784.9142 785.0717 789.0508 789.1160 789.6229 789.6229
   790.0911 793.2358 793.2358 793.9208 794.1023 802.3139 802.3139 802.3955
   802.6547 803.3919 803.3919 803.4328 803.4602 806.7128 806.7128 807.1450
   807.3983 807.9724 808.0336 808.0336 808.1035 812.4916 812.6768 812.6768
   812.7012 816.2442 816.2696 816.2696 816.3396 817.9432 817.9432 818.1049
   818.2566 819.9030 819.9213 819.9213 819.9592 821.4463 822.0571 822.0571
   822.3399 824.0623 824.0843 824.0843 824.1793 832.0937 832.1243 832.1243
   832.1686 839.0313 839.0659 839.0659 839.8522 840.2878 840.5109 840.5109
   840.7144 841.7476 843.4874 843.4874 844.1570 845.0845 845.0937 845.9681
   846.8380 846.8380 847.1708 848.4542 848.4542 852.0818 852.2525 852.2525
   852.7885 853.2521 856.8581 857.1311 857.1311 857.3892 857.4447 858.7454
   858.8643 858.8643 858.9577 859.4873 859.4873 860.4418 861.6408 861.6408
   861.7530 861.8284 865.5403 865.5696 865.5696 865.6395 867.3455 867.3487
   867.3487 867.5036 871.9927 871.9927 872.2361 872.4877 872.6073 872.7552
   872.7552 872.8405 874.6785 874.6785 874.9899 875.2499 876.5360 876.5819
   876.5819 876.7517 877.1892 877.1892 877.2111 877.3482 878.6556 885.4114

          k =-0.1250 0.3750-0.1250 (  2435 PWs)   bands (ev):

   -40.3042 -18.9616  -0.4603   0.3459   0.3906  10.8542  18.8485  20.8594
    21.0208  23.5077  29.5893  29.7837  34.1307  34.8459  36.1345  41.0252
    43.8873  45.6417  48.5246  53.6495  56.1325  60.5587  61.9406  64.9900
    66.6079  67.8134  70.2378  72.4630  75.5336  75.5845  77.1289  80.1697
    80.7598  81.6943  82.0358  83.5570  84.4940  85.4033  87.3417  88.8807
    89.8863  91.3470  93.9661  95.0305  97.9491  97.9642  99.1653  99.5064
   103.0979 103.6519 105.3064 107.4380 110.0657 110.9962 111.7513 113.4063
   115.2439 116.2042 117.1173 120.6844 121.4041 122.4400 126.5332 129.4454
   130.1516 135.3054 137.3230 139.5420 142.9105 142.9753 144.0886 144.7463
   147.3384 148.3976 149.7620 149.9504 153.4709 153.8729 154.2879 154.3191
   156.3656 158.3184 158.5461 159.2165 162.1183 163.8928 164.0450 164.5603
   167.0868 169.0122 170.0235 170.5456 172.7320 173.8383 175.1391 175.5027
   177.4702 178.0536 178.9812 179.7767 181.5504 182.3797 182.3817 183.4281
   183.4832 184.4515 186.0653 186.2016 186.8853 189.0599 189.8754 191.3489
   191.6140 192.2428 193.9485 195.3629 196.0459 196.8074 198.6384 199.2266
   199.4334 200.6296 202.9640 203.4237 203.7952 204.7405 205.9426 206.1359
   207.6118 208.3770 210.6725 212.0838 213.0952 213.1981 215.3432 215.8377
   217.4508 218.6791 222.3716 223.6865 223.7105 225.8605 226.2548 227.6099
   229.2757 229.6505 230.6712 231.3039 232.8078 236.0185 238.0428 238.2366
   238.4796 239.9475 240.1668 242.9535 244.1054 246.0289 246.4134 247.2896
   248.3151 250.7795 252.2289 253.1110 255.1219 256.0639 258.7666 259.0282
   260.3906 261.1212 263.4714 263.7620 268.0864 269.4401 269.5576 270.0244
   271.8997 272.8788 273.2765 273.6644 274.5671 274.6987 276.1232 278.0031
   278.3689 279.8454 280.7995 281.4577 282.6481 282.8634 285.0522 285.2947
   286.1094 286.6215 286.9675 288.6221 288.8325 289.9134 291.1070 294.9509
   295.6062 296.0674 296.4762 297.0249 297.5940 298.9090 300.1947 300.9806
   301.4113 301.5308 304.0638 304.8911 304.9181 305.4348 305.9662 306.8426
   307.3679 308.1482 308.5273 310.1221 311.1640 311.9281 313.0059 314.0221
   314.0389 314.6480 314.7589 317.0974 320.8534 321.0589 321.1967 322.4158
   322.5221 323.4895 323.6346 324.3944 324.6835 325.9614 326.0816 326.9417
   328.3874 330.3254 330.4431 331.3261 332.4172 334.0093 334.0343 335.1425
   335.3094 335.8449 336.7245 337.9477 338.9892 340.4386 340.9854 341.6766
   342.2426 342.3244 343.1126 343.1900 344.4645 345.0335 345.5702 345.9383
   346.3233 346.5069 347.5634 348.7173 350.1749 350.8360 350.8940 351.3050
   352.3354 352.5458 353.6676 354.4318 354.8496 355.0505 356.2255 356.8005
   356.8720 357.9069 358.5844 359.7172 360.2450 361.0899 361.7573 362.6976
   363.2817 366.3630 366.4680 368.5638 368.7936 369.7286 371.5377 375.0730
   378.1393 379.6600 381.1122 381.3227 381.7717 382.6849 384.5017 385.9618
   386.0568 386.2634 388.0755 388.3097 390.0824 392.3949 393.0375 395.3137
   395.5920 396.1923 396.4456 396.6018 397.4284 399.1803 399.5871 400.7149
   401.9785 402.1090 405.5987 406.0729 407.0440 408.4230 408.5255 410.0734
   411.6592 413.0600 413.2839 413.6730 413.7646 414.1034 415.3158 415.5914
   415.9332 416.9153 418.5353 419.8666 421.1539 421.5691 421.9586 422.1886
   422.2853 422.4070 424.1172 424.5776 428.5501 429.6184 430.8747 431.3117
   431.5484 431.9294 434.1830 435.4359 435.9900 436.4960 436.5212 438.3221
   438.6595 440.1175 440.9002 441.6112 441.6400 442.3867 444.2036 446.9377
   447.3170 447.4511 447.6424 450.1725 450.2277 450.5619 450.8948 450.8975
   452.7800 452.9620 454.0220 454.5691 455.8317 455.9337 458.6519 460.6570
   461.7369 461.7378 462.4108 463.1719 463.1947 463.5154 463.5263 465.7472
   466.0139 466.5761 466.9078 467.2969 467.4374 468.2437 468.2836 469.2345
   469.7121 470.8196 472.4367 472.9882 473.8493 474.4208 474.8562 475.6998
   476.3756 476.4897 478.5809 478.9354 479.0187 479.5529 480.8585 481.2998
   481.5555 481.8187 481.8211 481.9159 482.0290 482.2151 483.0548 483.9235
   484.4001 484.9256 486.2673 486.8751 487.0112 487.0893 489.3655 489.8075
   489.8240 490.5517 490.7040 491.4082 491.5793 492.0511 492.1384 492.2542
   493.9246 494.4420 494.5961 495.7482 496.2085 496.6807 496.7636 500.0323
   501.1099 502.0773 503.2372 503.5741 503.7229 504.2526 504.4537 505.7230
   506.1216 506.5548 507.0792 507.5827 508.4946 509.1786 509.5433 509.7477
   510.3311 510.7370 510.8451 511.4714 512.0693 512.3344 512.4669 515.2846
   515.3119 517.0345 517.1635 517.3421 517.5327 521.4295 522.7123 523.1900
   524.2920 525.5354 525.8799 526.8851 526.9256 527.2359 527.3872 528.8857
   529.0070 529.6368 532.9324 533.2124 535.7641 535.8789 535.8915 535.9425
   536.2004 536.7097 538.4918 539.2874 540.4437 541.2105 541.4278 542.1856
   543.5142 544.5471 544.5906 544.8963 545.1798 545.2639 545.8823 545.9552
   546.3942 547.7974 549.0187 549.8963 551.0494 551.5089 552.6993 553.5536
   554.4460 554.4692 554.8069 555.1490 555.4166 556.1884 557.1405 558.2185
   558.3934 558.4870 559.6817 560.4122 563.0077 563.4546 563.6062 564.1161
   565.0986 565.3528 565.8684 567.5856 568.0910 568.2292 568.3861 570.2955
   571.6905 572.9350 573.1203 573.5700 575.9516 575.9669 576.8686 577.5972
   580.0310 580.2651 580.7133 581.6152 583.2993 583.6433 584.0464 584.4886
   584.6335 584.9150 586.1142 586.1473 586.8884 587.6139 587.6168 589.6980
   589.9500 591.5351 591.8681 594.0160 595.9052 597.4377 598.5839 599.8736
   600.5830 601.6284 602.4060 602.4702 603.6451 605.3351 606.0121 607.7826
   607.9847 608.4677 608.7102 609.3839 609.6777 612.4707 613.1801 613.6163
   613.9846 614.2650 615.3836 615.4057 616.7193 616.7481 617.1370 617.3867
   618.9284 619.1902 619.8274 620.6396 621.5921 625.0429 625.0549 625.7807
   625.8770 626.3711 627.1208 627.1755 627.8416 627.8652 628.2225 628.8582
   629.4639 630.0537 630.1487 632.6919 634.5345 634.6238 635.3168 635.7385
   637.5397 637.6529 638.1050 638.6673 638.9049 638.9890 639.3195 639.4987
   639.9462 639.9521 640.3250 641.2004 643.3573 643.8243 643.9017 644.0136
   644.1293 644.4306 646.4324 646.5913 648.1914 648.5641 648.7768 649.0832
   649.1509 649.8687 651.1866 651.7058 651.9019 652.7353 653.0012 653.1755
   654.1326 655.2918 655.5433 656.4697 657.7885 658.1314 658.1590 658.5374
   658.9457 659.3196 662.8958 663.3086 665.4629 665.5268 665.8670 666.6053
   667.0690 667.1594 667.2463 667.3135 667.4826 668.0266 668.8460 668.9371
   668.9978 669.7536 670.6781 670.6986 672.4806 673.4062 673.5055 678.2701
   678.9440 679.6056 679.7321 680.9994 681.7302 682.4847 682.6739 682.9829
   683.0143 683.2946 683.3678 684.5897 685.9608 686.6422 686.8669 687.4110
   687.6489 687.9251 688.7924 690.1653 692.1332 692.3091 692.7291 692.9289
   693.0620 693.0907 693.3657 693.4905 693.5845 693.8528 694.1152 697.8602
   697.8799 697.9726 698.8078 699.0464 699.3220 699.4103 700.0269 700.7613
   701.2008 701.7382 702.1200 702.7160 702.8083 703.1634 703.2081 703.4900
   703.4915 703.5555 703.8704 704.8210 704.8762 705.2739 705.3401 706.6267
   706.9196 707.2868 710.1231 710.2762 710.9858 711.1856 711.1968 711.3344
   711.8243 711.8863 712.4086 712.4879 712.5276 713.3170 715.5238 715.9024
   716.0725 718.3177 718.3817 719.6816 719.7893 719.7972 720.4383 722.4443
   722.8025 722.9716 723.1713 723.2164 724.1608 724.8413 725.1309 725.9107
   726.0883 726.8191 727.1417 727.8944 727.9302 729.2724 729.4353 729.8932
   729.9318 730.0416 731.1156 731.4671 733.8896 734.2465 734.3719 734.4402
   734.5644 736.5723 737.2061 737.2442 737.7886 737.8648 738.1197 738.6626
   739.5924 740.0933 740.7238 741.0099 741.0419 743.4156 743.7938 744.0911
   746.6883 747.3506 747.5535 748.1959 748.2524 750.2981 751.8393 751.9706
   752.0246 752.0626 752.4871 753.2514 753.5803 753.7920 754.5330 757.0226
   757.1753 757.4058 757.8350 758.0204 758.2576 759.0476 759.1284 759.7369
   760.2520 760.3270 761.4508 761.4891 764.4443 764.6455 765.1725 765.2228
   765.9229 765.9584 766.3429 766.9985 767.1869 767.2320 767.3733 767.5859
   767.5885 768.2829 768.4049 769.2180 772.2538 774.1394 774.2519 774.6334
   774.9671 775.0441 776.2526 777.6384 778.1615 778.2659 779.9699 780.2091
   782.8245 783.4593 784.7624 785.6243 785.9515 785.9900 786.8885 787.2331
   788.2291 790.0009 790.0576 791.7882 792.4845 792.6991 792.9873 793.0474
   793.5203 795.0333 795.1782 795.3335 795.4320 795.4690 797.5252 798.8300
   800.6377 800.7679 802.3592 802.7163 803.8320 804.0269 804.2154 804.8476
   804.8895 805.4228 805.4865 806.1625 807.1932 807.2622 807.9330 807.9756
   808.2711 810.0343 810.7636 810.9407 811.0041 811.0090 811.1560 812.0026
   812.9994 813.1800 814.6228 814.6533 816.3913 817.0452 818.7705 818.8011
   820.1016 820.1355 820.6744 820.7133 822.0227 822.1397 822.8917 823.0231
   823.6670 823.9570 823.9969 824.4687 825.5206 825.5588 826.4512 826.5252
   828.2331 828.8255 829.0030 833.0205 833.3577 833.5298 833.5551 835.8057
   835.8649 836.7536 836.8356 837.3467 837.3851 839.0222 839.3790 839.4610
   839.7853 841.1290 841.2307 844.3671 846.0057 846.0095 847.8349 847.8450
   848.0853 848.0994 849.6754 851.5377 851.5840 853.3423 853.5092 853.5131
   853.7353 854.5420 855.1985 856.8120 857.9476 858.1349 858.3386 859.1911
   859.4326 859.5002 859.5929 859.6801 859.9414 860.3467 860.4830 860.6874
   860.7301 861.2883 861.8490 863.5950 865.1763 865.9876 866.1487 867.8071
   867.8565 868.2956 868.4230 869.6778 869.7680 871.0523 872.1520 872.2447
   872.3092 873.6322 874.9609 875.3830 876.2876 877.3777 877.4387 877.5656

          k =-0.2500 0.5000-0.2500 (  2427 PWs)   bands (ev):

   -40.2871 -18.8122  -1.2427   0.2336   0.2707  11.6240  17.0952  19.7446
    20.0349  25.5921  31.0516  31.1297  35.2806  36.9257  37.8493  43.3731
    43.4099  46.3240  50.2549  50.7223  52.0797  59.5693  61.6017  62.7991
    65.9261  66.7953  67.6070  70.2918  71.6013  74.2284  75.9607  75.9795
    78.6028  79.5004  80.0184  84.4795  84.9243  86.9396  87.2861  89.4031
    90.0802  95.3444  96.0368  97.2823  98.2164  99.5789 103.0372 103.7250
   105.2048 106.4358 108.6473 109.7581 112.3852 113.3840 114.8768 120.6389
   120.9945 121.6569 122.5960 123.5768 124.1469 124.8374 125.9084 127.8453
   129.2111 130.8279 133.2482 133.9479 134.8678 137.6359 137.9694 139.3416
   141.6235 144.7154 145.6507 148.8109 149.8580 150.9882 151.7186 151.8677
   155.1452 155.7812 156.1751 157.1851 161.7737 162.1981 162.7320 163.6801
   166.5204 168.1488 170.1265 170.8804 171.7098 173.0959 173.3813 176.0571
   176.1722 177.1088 177.5328 178.3354 178.5927 180.1753 183.4300 183.5934
   185.4681 186.3336 186.4933 186.9315 187.0618 190.3571 191.3606 192.7129
   193.1627 194.9727 196.4383 197.9321 199.2935 199.9001 202.2655 203.4952
   204.3736 204.4553 204.9068 205.0703 205.9539 206.4184 208.6533 209.4911
   211.3961 211.4067 212.9060 213.2850 213.9094 215.9954 217.3562 218.4085
   218.8176 219.0557 220.9556 221.3886 222.7402 223.7992 223.9899 227.2370
   229.2608 231.7384 232.2998 233.9741 235.2526 235.5373 237.7551 240.3088
   240.6577 241.0227 244.4470 246.1257 246.1954 249.0732 250.2501 251.3953
   253.8238 254.2044 255.0549 257.2397 257.5118 258.2917 259.1747 259.8346
   260.2705 261.1619 261.8344 263.2752 263.6233 264.7088 265.7160 267.1438
   267.2626 267.6207 267.8659 268.3910 268.3982 268.8828 269.2686 271.4011
   273.9916 274.8562 276.3180 277.7180 278.0095 280.6444 281.9829 283.2282
   284.1406 285.7306 285.8386 286.5500 287.8540 287.8821 288.2230 289.8772
   290.4727 292.4737 292.6734 292.9777 295.5003 295.9499 296.5918 298.9410
   299.9301 300.0251 301.2711 302.1125 303.3064 303.5773 305.9737 307.0120
   307.7505 309.3770 309.8915 310.1092 310.3194 311.5212 312.1875 312.8325
   313.1145 313.1753 313.5261 315.1566 316.5336 319.0155 319.5726 320.0342
   320.6540 321.9473 322.3441 322.9863 325.0662 325.7125 327.5084 329.2287
   331.0818 331.2295 331.9686 332.3905 335.0844 335.1659 336.1392 337.3984
   338.0872 339.0838 339.4637 339.5096 339.5808 339.7711 339.8846 340.0396
   340.3116 342.3871 342.3967 345.4962 346.1071 346.1966 346.9671 348.1845
   348.3480 349.2507 350.0332 350.5687 352.5210 355.1794 355.7443 356.3681
   356.9587 357.3576 359.4119 359.7358 361.9165 362.7425 363.2263 364.6557
   364.9419 365.8729 366.1135 366.5816 367.0369 368.0518 368.1307 368.9210
   371.5090 373.2549 373.2887 374.4238 374.5299 374.9603 376.0499 377.5048
   377.8944 378.4011 379.4013 382.5365 385.1049 385.8611 386.7842 387.2506
   390.0583 390.7759 391.3368 391.4603 391.8013 392.0758 392.6665 393.8002
   394.1761 394.7890 394.8555 394.9958 395.1003 395.3721 397.6383 397.7747
   399.4916 400.9001 400.9818 401.4073 401.8112 401.9716 403.2190 403.4846
   403.8199 404.4342 409.7241 411.5578 411.6577 414.2434 416.4167 416.5281
   418.0761 419.6177 419.8942 420.5989 421.0577 421.5058 421.7370 421.9234
   422.2428 425.3800 426.7125 427.7091 427.8014 427.8378 428.3123 428.6682
   429.0683 429.1487 429.2427 429.5201 429.8537 430.6679 434.7503 435.1297
   436.4290 437.1852 438.3121 438.7251 439.6317 439.6559 440.8147 440.8402
   441.1081 443.4615 444.4961 446.1008 446.4948 446.5971 446.6350 446.7550
   447.1766 447.2014 449.5274 449.8804 451.7712 451.9781 452.9536 453.7903
   455.4591 456.2131 456.5561 456.6771 457.3678 457.6063 460.2066 460.3036
   461.1217 462.6161 464.2651 464.3933 464.5462 465.2567 466.4869 466.6188
   467.4821 469.3674 470.1735 470.7155 470.7631 471.5020 471.7793 472.7240
   472.9823 473.0749 473.4736 473.9554 474.0814 475.3986 475.4687 476.2096
   476.2716 476.4558 476.5160 481.6198 482.5284 482.5812 482.9694 483.2824
   484.1832 484.3325 486.6471 487.8887 490.3773 490.3850 491.0748 491.3573
   491.3767 492.6952 492.9999 493.2269 493.4031 496.5031 497.0971 497.5935
   498.4545 499.0563 499.5593 500.1693 500.9278 502.1366 502.3539 502.4001
   502.4717 502.7313 502.9638 504.8580 507.0972 507.8147 508.6460 508.9756
   510.8534 511.6135 511.9832 512.9266 513.7040 515.1931 515.4971 516.4721
   518.5832 519.2876 519.4963 520.1093 520.1965 520.9391 521.0385 522.7962
   523.4718 523.8765 524.0124 524.8579 525.3182 526.2293 526.7677 526.8321
   528.0166 528.0595 528.2299 529.2339 529.2343 530.1187 530.1691 530.1933
   530.6039 530.7658 530.8469 530.9151 530.9614 531.3811 534.3648 535.2749
   535.5814 536.0153 536.4778 536.6535 536.7026 538.4098 538.7429 539.6586
   541.6804 545.3531 545.3924 545.9941 547.5767 549.7950 549.9913 551.6942
   552.7819 553.4540 554.0499 554.4917 554.7997 554.9734 555.3919 555.5273
   556.5158 556.6377 558.5297 561.1014 561.1525 562.0374 562.4906 562.7725
   562.8654 563.4124 563.8378 563.9215 564.3049 564.4966 565.0721 565.3145
   565.9466 567.6604 571.4759 573.2971 573.3609 573.4544 573.6330 574.2128
   577.3093 577.3158 578.5398 579.0375 579.2306 580.0410 580.2076 581.4390
   581.7749 581.8434 581.9715 582.0095 582.3475 582.6161 583.1130 583.1422
   583.5839 584.1580 584.3030 585.0467 586.7123 588.0673 589.0806 589.1011
   590.3341 590.5728 590.8077 590.8196 591.2083 591.7656 592.5418 592.7004
   592.9941 593.1714 593.3119 595.7206 596.1626 598.7169 599.0876 600.2315
   600.6292 601.4761 602.1562 602.1600 602.3906 602.6668 603.2134 607.0119
   608.1906 608.3637 609.1244 609.2282 610.1404 610.5313 610.7345 611.4724
   611.5134 613.1763 613.2777 615.5168 617.8446 617.9226 618.4121 618.6294
   621.2026 622.3028 623.4875 624.5503 625.5302 625.5647 626.0261 626.4950
   626.5237 626.7041 626.7929 630.0649 631.1031 632.5600 635.1805 635.2517
   635.7987 637.0700 637.4336 637.5681 637.9009 638.8441 639.8444 640.6179
   641.7096 643.1537 643.6643 644.3064 644.4567 644.7612 644.9384 644.9484
   645.1151 647.0915 650.7364 650.7480 651.5965 651.8783 651.9599 652.2438
[...]
   169.3994 170.0562 172.9130 174.8064 175.9069 177.0680 178.8191 179.4077
   181.4804 183.6855 185.9699 189.4787 193.7601 195.3226 195.7366 196.3724
   196.6811 198.3349 200.5412 202.4371 204.1875 204.5775 206.2441 206.2795
   206.9966 207.2783 209.2809 209.2826 212.3638 214.0047 217.0888 217.2864
   217.6855 217.9830 218.2286 218.9553 220.5587 220.5698 222.4553 222.6147
   223.1656 228.1924 231.7404 231.7504 232.3228 233.3068 233.4894 233.6192
   234.0012 234.4806 234.4915 236.2360 236.6087 237.7995 237.9207 238.7857
   241.2200 242.3195 243.1226 244.9780 245.0839 245.6660 245.6684 245.9015
   246.1417 246.5134 246.9196 250.9613 251.6926 251.7042 254.0492 254.3165
   254.3327 257.1952 257.3006 257.8965 258.4808 260.6485 261.6468 262.9911
   264.3140 264.4420 264.5484 264.9224 269.2728 269.6417 270.3565 270.5115
   270.7173 272.3505 273.2426 273.7919 274.9488 275.2077 276.1831 277.0479
   277.6106 278.1951 281.5022 282.1324 282.1916 282.9116 283.7968 284.4962
   284.7855 286.3367 286.8418 287.2065 288.0015 289.5750 290.9091 294.9761
   296.2142 298.8419 300.0234 300.4471 300.8665 303.4773 305.1699 305.8319
   308.1299 310.6128 311.0160 312.4557 312.8450 313.1215 313.1932 313.2036
   313.4672 313.5859 313.9746 316.3527 316.7759 320.8484 321.7916 322.1259
   322.3618 322.3778 323.1761 323.2224 327.6789 330.1871 330.6914 331.0139
   334.0226 334.5062 334.8336 336.1547 338.2221 338.5456 340.1064 340.1774
   340.6413 340.9632 343.2312 344.1729 344.3659 344.6751 345.1551 345.7807
   345.8300 346.0692 347.8751 348.8201 349.0015 349.7245 351.2208 353.5941
   353.7139 353.7693 355.9593 356.8151 357.4398 357.6096 358.5151 358.6780
   359.2027 359.3264 359.5027 360.8545 362.7226 364.3675 364.7564 365.5100
   365.8640 366.3558 369.3096 369.8507 372.8711 374.1224 375.7637 376.1952
   377.3339 377.3449 377.8751 377.9852 378.6909 378.9444 380.1597 380.4340
   380.6520 380.7072 380.7221 381.4543 384.6956 385.5929 386.5948 386.6668
   388.1996 388.8940 389.1198 389.8969 390.3178 390.9405 394.1280 394.7283
   396.0259 396.6963 397.3099 397.6721 397.6864 398.1852 398.7193 398.7414
   399.3290 399.7132 401.7857 402.2968 402.4674 405.7001 406.1427 406.4061
   407.3433 407.3736 407.4566 407.4595 408.5879 411.7728 412.0215 412.3481
   414.2422 414.2654 414.2895 415.6294 416.8871 418.0062 418.0926 418.1342
   418.6670 418.7170 419.3295 420.2937 421.2470 421.7336 423.5115 424.5073
   425.3553 425.6886 425.9620 426.0228 426.2641 426.3252 428.1204 428.1917
   428.4694 431.0409 431.2602 431.5248 432.2448 433.3724 435.7850 436.2058
   441.0047 441.9992 443.4377 443.9429 444.0731 444.4291 447.9890 448.1727
   448.1865 448.4209 449.0662 449.7605 452.3348 452.8624 453.2717 453.7603
   453.8170 456.0332 456.0998 456.5985 456.9585 457.2160 457.2531 458.3787
   459.1828 459.2640 461.0512 461.0957 461.2042 462.4094 462.4525 464.1348
   465.2437 466.0069 466.0498 466.3912 466.4364 467.0482 467.4014 467.5692
   468.0689 468.5808 469.6933 470.3853 470.6730 471.2953 473.1214 474.0374
   474.2398 479.5260 479.5473 479.9777 480.1613 480.5795 483.4313 483.6127
   485.4563 485.8211 486.0656 486.7578 486.7703 487.1373 487.3390 488.0355
   491.9352 493.1743 493.2086 493.2667 493.2733 493.6764 493.8204 494.3862
   497.5782 498.2862 499.3750 499.4397 500.7525 500.7928 501.8016 501.8364
   501.9742 502.2591 504.1907 504.2895 505.4375 507.5925 509.5647 509.5989
   513.0226 514.2679 514.9107 515.0057 515.4872 515.7714 516.0552 516.3197
   516.4548 516.6104 518.2449 520.4162 520.6730 521.8087 522.5349 523.0496
   523.3756 523.9897 524.4068 524.6817 524.9957 525.2744 525.3483 525.4145
   527.7756 528.6118 532.0157 533.6980 533.9839 534.8429 535.1277 537.8670
   537.9967 538.6618 539.7405 539.7672 539.9998 544.4127 544.5636 545.0784
   545.7555 545.9739 546.6190 546.8288 549.3502 549.5428 552.1883 552.6092
   552.7763 553.0400 556.3109 556.6493 557.8336 558.0115 558.2217 558.4111
   559.2373 560.0449 560.1931 560.5585 561.1993 561.3089 562.0429 562.3302
   563.8981 564.7763 564.8323 564.8839 565.1864 565.4051 566.3599 566.5544
   566.6404 567.9073 568.4458 569.3380 569.3794 570.0882 570.1995 570.6021
   570.8380 570.8673 570.9821 571.4222 572.1803 572.2038 573.2720 575.1179
   577.4950 577.8804 578.0110 578.1100 578.9900 579.0977 580.7083 581.2478
   581.5502 581.7039 582.3025 583.3489 583.4725 583.5447 583.5673 584.0843
   584.2296 584.6907 587.3925 587.4515 588.1834 588.2615 588.3043 588.5310
   591.0179 591.0501 594.3056 594.6724 594.6992 594.8451 594.9206 594.9636
   595.7671 595.9755 596.4553 596.6915 597.7290 597.7482 600.4018 600.7500
   600.7658 601.3879 601.4929 601.6886 602.9849 605.4439 606.5157 606.6950
   606.8022 606.9393 607.0226 607.1057 607.1159 609.0647 609.5802 609.7029
   610.2487 610.8141 610.8414 611.5901 611.5944 611.6133 611.8188 613.3391
   614.1459 614.8570 614.9356 615.2367 615.8319 618.4219 619.0925 619.5460
   622.7509 623.4265 623.4782 623.6695 624.4812 624.4894 624.9544 625.9111
   627.9771 628.2742 628.7132 628.7446 628.9377 629.1794 629.4509 629.6207
   633.3239 633.5816 634.5927 634.6254 636.0538 636.3775 636.7240 637.0784
   637.2671 637.3437 639.9981 640.7224 644.5746 645.6161 646.0129 646.2908
   646.5560 647.0570 647.0908 647.2181 647.6580 647.6639 649.3893 649.4746
   650.1644 650.1645 650.2391 650.3403 650.5178 650.7198 651.3714 651.9089
   653.4102 654.0883 654.7308 654.8326 655.4756 656.2320 658.6377 658.6945
   658.8507 659.2338 663.1998 663.6912 664.6379 664.9811 665.3046 665.3373
   666.6219 666.6763 667.9237 668.5890 669.2899 669.3283 669.4886 669.5772
   670.8066 670.8388 673.2183 673.4281 673.4931 673.6126 674.1958 674.2458
   675.2948 675.2987 678.3429 678.7015 678.8061 678.8143 679.2042 679.2711
   680.1526 681.1719 681.2614 682.2810 682.7121 682.7821 682.7825 685.7419
   686.0562 689.5588 690.0958 691.5034 691.7399 691.8844 691.8985 693.0010
   693.0316 694.8701 695.6781 696.0196 696.0754 696.0842 696.2037 696.4208
   696.9505 696.9954 701.3437 701.4948 703.0145 703.8226 703.9591 704.2986
   704.5514 704.6675 705.0473 705.1421 710.2692 710.2802 714.0261 714.1991
   714.4812 714.6478 716.5042 716.6114 717.3163 717.9781 718.5255 719.0186
   719.0367 719.1715 719.3326 719.3477 720.6543 721.1257 721.6339 722.8199
   722.9760 723.6104 724.1976 724.6725 726.8068 727.0384 728.2743 728.4650
   729.3718 729.4036 732.1138 732.8828 733.6025 733.6614 735.6797 735.9612
   738.0604 738.1910 739.5814 740.3753 740.4690 740.7180 741.1768 741.2353
   744.4664 744.7671 744.8799 745.2506 745.9097 745.9842 746.0289 746.0919
   746.4907 746.5995 747.5259 748.3107 749.7246 749.9492 751.0171 751.0387
   753.4236 753.8107 754.4893 754.7013 754.9852 755.5693 756.0035 756.6588
   758.1802 758.3617 758.4391 758.7853 759.2310 759.3808 760.0417 760.1211
   760.4308 760.6387 761.1244 761.4939 762.4131 763.2035 763.2282 763.3002
   763.4016 763.7659 763.8379 764.3660 764.3676 768.0386 768.0999 768.7533
   768.8497 769.1484 769.1708 771.9280 772.1413 772.2258 772.3977 773.8584
   774.0285 774.2563 774.3895 775.1086 775.1251 775.6558 775.6626 776.2375
   776.5884 776.9025 777.0831 777.0907 777.2579 777.2875 782.5770 782.6190
   782.7763 782.9460 783.0721 783.1426 785.4422 785.8228 785.8996 786.0779
   786.7965 786.8386 787.5268 787.5486 788.2479 788.2623 789.6366 789.6494
   789.9522 790.2666 790.4341 790.5201 794.1809 794.1959 794.2562 794.5258
   794.5783 794.6049 795.1518 795.3111 796.4967 796.5236 797.4645 797.7557
   797.9185 797.9385 799.3663 800.0811 800.7987 801.2126 803.4545 803.6914
   803.8410 804.1524 804.2980 804.5896 804.6130 805.3805 805.5227 805.5303
   806.1566 806.1602 809.1501 809.2052 809.5024 809.5241 811.2629 811.3222
   811.3281 811.3662 812.4363 812.6647 813.2982 813.3404 813.3904 814.0720
   817.0247 817.2753 820.0675 820.0790 822.3574 822.5419 822.6102 822.6491
   823.1866 823.1942 823.4240 823.4263 825.7358 826.0228 826.1404 826.3048
   826.5255 826.6523 827.2356 827.3417 828.0966 828.1148 828.6170 828.6302
   829.5082 829.9848 830.8510 831.1184 831.3139 831.4496 831.9907 832.0003
   832.4587 832.5972 836.8780 837.0064 837.1202 837.2217 839.4177 839.4312
   839.8237 840.0022 840.8798 840.9546 840.9794 840.9920 841.0215 841.0382
   842.3835 842.4107 844.3515 844.4507 847.9086 848.1323 848.5828 852.8210
   853.1045 853.2490 853.4604 853.4729 853.4995 853.7783 853.8452 855.0017
   855.0155 855.5838 855.5912 859.9313 860.0190 862.9624 863.6484 863.7125
   863.7775 863.7844 866.0862 866.5452 866.5644 866.6192 866.9604 867.0557
   868.1911 868.1997 869.7741 870.1245 870.1573 870.2020 872.0032 872.0195

          k =-0.5000-1.0000 0.0000 (  2400 PWs)   bands (ev):

   -40.2650 -18.5377  -1.3189  -1.3189  -0.1350  15.3754  15.3754  17.7249
    19.3796  27.5842  27.5842  33.8105  37.8361  41.9075  41.9075  42.5033
    45.2280  50.2696  51.3613  51.3613  52.2826  55.6764  58.6732  58.6732
    62.2729  62.2729  62.5133  62.6682  67.7547  67.7547  68.5469  75.4704
    75.5519  82.7343  82.7343  86.1822  90.6801  93.2681  93.2681  94.3037
    96.5232  96.5232  97.8428  98.4761  99.3195 102.5411 102.5411 104.4836
   108.5758 108.8409 111.9386 112.2558 112.2558 113.4199 116.0526 116.0526
   121.7915 122.2950 122.2950 125.2149 129.1456 129.1456 129.6037 130.2944
   130.2944 130.9484 131.1341 132.4553 133.7791 136.0548 136.0548 139.2048
   142.5275 144.6222 144.6222 145.1262 150.9855 150.9855 151.6817 152.0514
   152.3299 152.3299 152.7679 152.9127 153.9524 159.7758 159.7758 162.2349
   163.6280 165.0242 165.0242 165.6907 165.6907 166.1154 166.7158 167.2597
   170.9242 170.9242 170.9991 171.0537 171.4071 176.6829 178.0550 178.0550
   178.1597 184.2657 188.0454 188.0454 190.2760 190.2760 191.9423 198.6714
   201.1035 201.1035 202.4927 205.4602 206.2612 207.2530 207.2530 208.5445
   213.9494 214.3590 215.9885 215.9885 216.3121 216.3121 217.8028 218.6081
   219.3871 219.3871 219.5645 219.9059 220.6436 220.6436 221.0732 221.1030
   221.1480 221.1480 221.4393 223.0748 224.6290 224.6290 225.2125 225.2627
   233.4369 234.2566 234.2566 237.2040 237.2040 237.8266 238.5925 238.7853
   239.0244 239.4717 239.4717 240.3216 242.0422 246.2656 246.2656 248.5384
   251.8337 253.1318 253.1318 255.1531 255.1531 255.6708 255.7156 255.7968
   255.9307 256.5051 256.5051 257.2510 260.7243 260.7243 260.7947 260.8247
   261.5206 265.6729 267.8334 268.3360 268.3360 271.9996 271.9996 272.9449
   273.2048 273.6601 274.1376 274.5582 274.5582 275.3206 275.4288 275.4288
   276.0127 276.4891 276.6179 276.6179 276.6241 277.3937 278.3208 278.3208
   287.1759 290.5476 290.5476 292.2133 292.2133 292.9056 293.0432 293.1012
   297.0449 301.1159 301.1159 304.9285 306.9186 306.9186 307.7608 310.7303
   310.7303 310.9946 311.1075 311.2820 311.6501 312.3184 312.3184 314.0839
   314.0839 315.0664 315.1111 316.7002 320.8703 320.8703 321.2770 324.0630
   324.6233 325.9339 325.9339 327.2881 327.2881 327.6828 327.9665 328.2057
   329.1957 329.2424 329.2424 330.6443 332.1581 332.1581 332.2432 332.3246
   333.0387 333.0409 333.0409 333.0626 341.9918 341.9918 342.0682 343.9626
   344.1885 345.4401 345.4401 346.1855 350.1136 350.1136 350.8591 351.1550
   352.7885 352.7885 356.6615 358.0589 359.7616 361.9008 362.3198 362.3198
   363.9954 364.4719 364.5526 364.5526 365.3026 365.3026 365.3570 365.5743
   366.8012 373.9700 374.5905 374.5905 375.3816 378.0949 379.1474 380.8165
   380.8165 382.1509 382.1509 382.7597 382.8557 382.9905 383.0240 383.0240
   383.1947 383.3368 383.3368 383.5754 383.7466 384.8478 386.2933 386.2933
   386.6157 386.7312 386.7312 386.8397 390.5189 392.4718 392.4718 397.0767
   397.0767 397.4679 398.6995 398.7845 398.9963 399.2316 399.2316 400.3222
   400.3222 400.4306 400.6287 400.8992 401.1423 401.3515 401.3515 401.9015
   407.5486 410.6327 410.6327 411.7249 412.3066 414.1250 414.7548 414.7548
   415.4128 415.4128 416.6186 417.2017 417.2017 417.2173 417.3465 419.3051
   419.6500 419.6500 419.7658 420.3309 420.4599 420.6212 420.6212 420.6925
   422.7483 422.7483 422.9261 422.9439 423.0314 423.0314 423.5363 423.5419
   427.4951 427.4951 429.1493 431.6865 432.6040 432.6040 433.0334 433.8853
   435.8550 436.7684 436.7684 436.8316 437.3252 437.3252 437.4124 437.4264
   441.5750 441.5750 441.6125 441.6244 449.9746 449.9746 450.7932 452.5043
   453.4181 453.9347 453.9347 454.2650 454.5152 454.5152 454.6242 454.6242
   454.6464 454.6565 455.0296 455.6204 465.0404 466.8186 466.8186 470.0991
   470.0991 470.2765 470.8051 471.0538 471.5436 471.8230 471.8230 472.5831
   472.8122 472.8128 472.8128 473.0291 478.9695 484.3389 484.3389 487.5080
   487.7595 487.9449 487.9449 489.4084 489.4141 489.5350 489.9238 489.9238
   490.1869 490.2072 490.2072 490.7203 490.7823 490.9620 491.5708 491.5708
   491.6898 491.8039 491.8039 492.2763 492.2804 492.2804 492.2934 492.3248
   492.3985 492.3985 492.7102 492.7856 498.0718 498.8449 500.5590 500.9702
   500.9702 503.2752 507.3996 507.3996 507.8602 508.6989 508.6989 508.8251
   508.8883 509.4023 512.8157 512.8157 513.0427 513.0427 513.0947 513.1008
   520.1535 521.4075 521.4075 522.2426 524.1053 524.1053 524.5816 525.7773
   526.2095 526.7063 526.7063 527.0049 527.0049 527.1828 527.2967 527.3936
   527.3936 527.4594 527.4944 527.5341 531.6948 531.6948 531.7071 531.7329
   534.9822 534.9822 537.5303 538.4356 538.5970 540.6098 540.7792 540.7792
   541.3344 542.6360 542.6360 543.5933 543.6239 543.6239 543.8368 543.9384
   544.6124 544.6124 544.7482 545.0084 545.4285 545.5245 545.5245 545.7677
   548.9939 548.9939 549.7014 549.7152 560.9467 560.9467 562.3285 562.9330
   562.9330 563.2702 563.3926 563.5807 566.9839 566.9839 568.6408 571.1982
   575.3444 576.2894 576.2894 577.5294 577.8475 577.8475 578.0096 578.1162
   578.6627 579.0561 579.0561 579.5608 579.7467 579.8337 579.9387 579.9387
   580.2171 580.4819 580.4819 580.6168 581.8675 582.1446 582.1446 582.1497
   582.7701 582.8858 582.8858 582.9754 584.9771 585.0215 585.0215 585.1181
   586.6972 587.9532 587.9532 590.3919 594.5700 595.3281 595.4874 595.4874
   596.9501 597.1659 597.2681 597.2681 597.8638 597.8638 598.1596 598.2662
   598.2902 598.2902 598.3391 598.5318 598.7415 598.7415 599.0448 599.0565
   599.8275 600.0183 600.0202 600.0202 600.7569 600.7569 600.7933 601.1064
   601.2166 601.2581 601.2581 601.2865 603.1327 603.1327 603.1852 603.1864
   603.8323 603.8323 603.8351 603.8439 614.5418 615.2595 615.2595 615.2682
   615.3646 616.4783 616.6398 616.6398 617.2540 617.2540 617.8005 617.8037
   628.0827 628.0827 628.7944 629.7270 631.2308 631.7545 631.7545 633.0784
   633.0784 633.1123 633.1466 633.6861 633.7821 633.8455 634.3346 634.3346
   634.9956 634.9956 635.0214 635.0323 635.1733 635.2621 635.2721 635.2721
   636.1364 636.1364 636.1689 636.1939 639.2665 639.2665 639.2994 639.3141
   642.0173 643.0098 647.6073 647.8397 647.8710 647.8710 649.8313 649.8313
   650.8146 650.8852 650.8852 651.2687 651.3519 651.4496 652.7610 652.9469
   652.9469 653.1344 653.1516 653.1598 653.1598 653.3952 653.4757 653.6264
   653.6264 653.6512 654.4484 654.4484 654.4601 654.4746 657.2601 657.2601
   657.6884 657.6965 657.6965 657.7068 669.6129 669.6129 669.7415 670.2610
   671.0671 671.0671 671.1942 671.2045 672.3287 672.3510 672.3588 672.3588
   672.5258 672.5458 672.5514 672.5514 681.8117 682.9079 684.3586 684.3586
   684.7915 684.9079 684.9079 684.9817 687.3551 687.3551 687.8494 688.5222
   688.6920 688.6920 688.8294 688.8339 693.2351 693.2351 693.9305 693.9305
   693.9394 693.9400 693.9897 694.0057 696.9823 697.5043 697.5043 698.3735
   706.2088 706.2196 706.2196 706.3085 706.5965 706.5965 707.0062 707.1074
   707.1074 707.1379 707.2052 707.2126 711.5668 711.5668 711.5852 711.5958
   718.1904 718.1904 719.5974 720.1481 720.3619 722.1750 722.3239 722.3239
   722.8278 722.8278 723.4110 723.8019 723.8306 723.8330 723.9777 723.9777
   724.3915 724.3915 724.5016 724.5431 725.3786 725.3918 725.5853 725.5853
   726.2139 726.2568 726.2568 726.3138 740.5897 740.5897 741.1572 741.5132
   742.2942 742.5487 742.6090 742.6090 742.7325 742.7325 742.8281 742.8498
   743.5386 743.6448 743.6478 743.6478 743.8590 743.8590 743.8826 743.8876
   752.0036 752.0036 753.7503 753.8908 755.8966 755.8966 756.0355 756.1609
   757.3618 757.5048 757.5048 758.4547 759.3139 759.5233 759.6799 759.6799
   759.9983 759.9983 760.0515 760.2225 760.2817 760.6547 760.7310 760.7310
   760.8314 761.0337 761.0337 761.0424 761.0424 761.2828 761.3225 761.6315
   761.8392 761.8410 761.8410 761.8440 761.8920 762.1767 762.4088 762.4088
   762.5076 762.5076 762.8174 762.8339 762.8457 762.9384 762.9384 763.1000
   763.2087 763.2823 763.2823 763.3839 765.8777 765.8777 765.8871 765.8916
   778.5764 778.5764 778.7889 778.8183 778.8668 778.8668 779.0563 779.0701
   779.0701 779.1015 779.1808 779.2495 779.3590 779.3646 779.3646 779.3995
   779.6978 779.6978 779.7233 779.7402 780.5452 780.5609 780.5609 780.6123
   781.1824 781.1960 781.1960 781.2243 792.1716 792.3887 792.6997 792.6997
   795.4259 795.4259 795.7891 795.8005 795.8005 795.8731 796.0505 796.0820
   802.0919 802.0954 802.0954 802.0973 805.0269 805.0778 810.7574 810.7574
   810.8030 811.4827 813.0262 813.0262 813.1185 813.2968 813.4638 813.4638
   813.5027 813.5711 814.5082 814.5082 814.7242 814.8431 815.2054 815.2054
   815.2611 815.3206 816.2395 816.2835 816.2835 816.3483 816.7022 816.7631
   816.7631 816.7963 817.2961 817.2961 817.4232 817.4812 817.5806 817.5839
   817.5948 817.5948 819.5644 819.5644 826.6090 826.6499 826.6663 826.6663
   830.8918 830.8918 831.0718 831.2278 832.9364 832.9364 832.9856 833.0080
   833.4279 833.4279 833.5937 833.6461 837.7746 837.7746 837.7885 837.7931
   845.7121 845.7314 846.1724 846.1724 846.2638 846.4364 847.4702 847.4702
   850.0108 850.0108 850.2310 850.2998 850.2998 850.3051 850.3316 850.3756
   851.0230 851.1634 851.1634 851.3220 851.8696 851.8750 851.8750 851.8815
   851.9522 851.9522 852.0421 852.0686 852.1046 852.1046 852.1436 852.1547
   855.5575 855.5575 856.3337 856.3383 856.4193 856.4193 856.4287 856.4368
   866.0252 866.0252 866.1717 866.4407 866.7364 866.8056 866.8056 866.8546
   866.8896 866.8896 867.0162 867.0310 867.4029 867.4029 867.7083 867.7176

     the Fermi energy is     3.1223 ev
     (compare with:     3.1223 eV, computed in scf)

     Writing all to output data dir out/mp-1138.save/
 
     init_run     :      0.06s CPU      0.12s WALL (       1 calls)
     electrons    :    272.42s CPU    293.81s WALL (       1 calls)

     Called by init_run:
     wfcinit      :      0.00s CPU      0.00s WALL (       1 calls)
     potinit      :      0.03s CPU      0.03s WALL (       1 calls)
     hinit0       :      0.01s CPU      0.07s WALL (       1 calls)

     Called by electrons:
     c_bands      :    272.41s CPU    293.80s WALL (       1 calls)
     v_of_rho     :      0.00s CPU      0.00s WALL (       1 calls)

     Called by c_bands:
     init_us_2    :      0.00s CPU      0.00s WALL (      29 calls)
     init_us_2:cp :      0.00s CPU      0.00s WALL (      29 calls)
     cegterg      :    262.34s CPU    282.95s WALL (      29 calls)

     Called by *egterg:
     cdiaghg      :    236.74s CPU    255.65s WALL (     239 calls)
     h_psi        :     13.11s CPU     13.61s WALL (     268 calls)
     g_psi        :      0.03s CPU      0.03s WALL (     210 calls)

     Called by h_psi:
     h_psi:calbec :      0.12s CPU      0.13s WALL (     268 calls)
     vloc_psi     :     12.87s CPU     13.36s WALL (     268 calls)
     add_vuspsi   :      0.07s CPU      0.07s WALL (     268 calls)

     General routines
     calbec       :      0.12s CPU      0.13s WALL (     268 calls)
     fft          :      0.00s CPU      0.06s WALL (      10 calls)
     fftw         :     12.10s CPU     12.55s WALL (  322032 calls)
 
     Parallel routines
 
     PWSCF        :   4m34.97s CPU   4m57.20s WALL

 
   This run was terminated on:  14:22: 8   5Apr2024            

=------------------------------------------------------------------------------=
   JOB DONE.
=------------------------------------------------------------------------------=
