
     Program PWSCF v.7.1 starts on 15Nov2023 at  3:11:39 

     This program is part of the open-source Quantum ESPRESSO suite
     for quantum simulation of materials; please cite
         "P. Giannozzi et al., J. Phys.:Condens. Matter 21 395502 (2009);
         "P. Giannozzi et al., J. Phys.:Condens. Matter 29 465901 (2017);
         "P. Giannozzi et al., J. Chem. Phys. 152 154105 (2020);
          URL http://www.quantum-espresso.org", 
     in publications or presentations arising from this work. More details at
     http://www.quantum-espresso.org/quote

     Parallel version (MPI), running on    24 processors

     MPI processes distributed on     1 nodes
     123249 MiB available memory on the printing compute node when the environment starts
 
     Reading input from pw_mp-2172_scf_k3000_E60.in
Warning: card &CELL ignored
Warning: card / ignored

     Current dimensions of program PWSCF are:
     Max number of different atomic species (ntypx) = 10
     Max number of k-points (npk) =  40000
     Max angular momentum in pseudopotentials (lmaxx) =  4
 
     K-points division:     npool     =       2
     R & G space division:  proc/nbgrp/npool/nimage =      12
     Subspace diagonalization in iterative solution of the eigenvalue problem:
     a serial algorithm will be used

 
     Parallelization info
     --------------------
     sticks:   dense  smooth     PW     G-vecs:    dense   smooth      PW
     Min          79      79     24                 1629     1629     267
     Max          80      80     26                 1633     1633     269
     Sum         955     955    295                19579    19579    3215
 
     Using Slab Decomposition
 


     bravais-lattice index     =            2
     lattice parameter (alat)  =      10.7257  a.u.
     unit-cell volume          =     308.4737 (a.u.)^3
     number of atoms/cell      =            2
     number of atomic types    =            2
     number of electrons       =        16.00
     number of Kohn-Sham states=           16
     kinetic-energy cutoff     =      60.0000  Ry
     charge density cutoff     =     240.0000  Ry
     scf convergence threshold =      1.0E-10
     mixing beta               =       0.7000
     number of iterations used =            8  plain     mixing
     Exchange-correlation= PBE
                           (   1   4   3   4   0   0   0)

     celldm(1)=  10.725710  celldm(2)=   0.000000  celldm(3)=   0.000000
     celldm(4)=   0.000000  celldm(5)=   0.000000  celldm(6)=   0.000000

     crystal axes: (cart. coord. in units of alat)
               a(1) = (  -0.500000   0.000000   0.500000 )  
               a(2) = (   0.000000   0.500000   0.500000 )  
               a(3) = (  -0.500000   0.500000   0.000000 )  

     reciprocal axes: (cart. coord. in units 2 pi/alat)
               b(1) = ( -1.000000 -1.000000  1.000000 )  
               b(2) = (  1.000000  1.000000  1.000000 )  
               b(3) = ( -1.000000  1.000000 -1.000000 )  


     PseudoPot. # 1 for Al read from file:
     /usr/scratch4/magr4985/MG/HTDF/pseudo/SG15/Al.upf
     MD5 check sum: 2d9e7bc02555220d62fad08c3c4858e7
     Pseudo is Norm-conserving, Zval = 11.0
     Generated using ONCVPSP code by D. R. Hamann
     Using radial grid of  602 points,  4 beta functions with: 
                l(1) =   0
                l(2) =   0
                l(3) =   1
                l(4) =   1

     PseudoPot. # 2 for As read from file:
     /usr/scratch4/magr4985/MG/HTDF/pseudo/SG15/As.upf
     MD5 check sum: a2ff92a4799c87c945fff9e6739df4dd
     Pseudo is Norm-conserving, Zval =  5.0
     Generated using ONCVPSP code by D. R. Hamann
     Using radial grid of  602 points,  6 beta functions with: 
                l(1) =   0
                l(2) =   0
                l(3) =   1
                l(4) =   1
                l(5) =   2
                l(6) =   2

     atomic species   valence    mass     pseudopotential
        Al            11.00    26.98150     Al( 1.00)
        As             5.00    74.92160     As( 1.00)

     24 Sym. Ops. (no inversion) found



   Cartesian axes

     site n.     atom                  positions (alat units)
         1           Al  tau(   1) = (   0.0000000   0.0000000   0.0000000  )
         2           As  tau(   2) = (  -0.7500000   0.7500000   0.7500000  )

     number of k points=    72  Gaussian smearing, width (Ry)=  0.0005
                       cart. coord. in units 2pi/alat
        k(    1) = (   0.0000000   0.0000000   0.0000000), wk =   0.0011574
        k(    2) = (  -0.0833333   0.0833333  -0.0833333), wk =   0.0092593
        k(    3) = (  -0.1666667   0.1666667  -0.1666667), wk =   0.0092593
        k(    4) = (  -0.2500000   0.2500000  -0.2500000), wk =   0.0092593
        k(    5) = (  -0.3333333   0.3333333  -0.3333333), wk =   0.0092593
        k(    6) = (  -0.4166667   0.4166667  -0.4166667), wk =   0.0092593
        k(    7) = (   0.5000000  -0.5000000   0.5000000), wk =   0.0046296
        k(    8) = (   0.0000000   0.1666667   0.0000000), wk =   0.0069444
        k(    9) = (  -0.0833333   0.2500000  -0.0833333), wk =   0.0277778
        k(   10) = (  -0.1666667   0.3333333  -0.1666667), wk =   0.0277778
        k(   11) = (  -0.2500000   0.4166667  -0.2500000), wk =   0.0277778
        k(   12) = (  -0.3333333   0.5000000  -0.3333333), wk =   0.0277778
        k(   13) = (   0.5833333  -0.4166667   0.5833333), wk =   0.0277778
        k(   14) = (   0.5000000  -0.3333333   0.5000000), wk =   0.0277778
        k(   15) = (   0.4166667  -0.2500000   0.4166667), wk =   0.0277778
        k(   16) = (   0.3333333  -0.1666667   0.3333333), wk =   0.0277778
        k(   17) = (   0.2500000  -0.0833333   0.2500000), wk =   0.0277778
        k(   18) = (   0.1666667  -0.0000000   0.1666667), wk =   0.0138889
        k(   19) = (   0.0000000   0.3333333   0.0000000), wk =   0.0069444
        k(   20) = (  -0.0833333   0.4166667  -0.0833333), wk =   0.0277778
        k(   21) = (  -0.1666667   0.5000000  -0.1666667), wk =   0.0277778
        k(   22) = (  -0.2500000   0.5833333  -0.2500000), wk =   0.0277778
        k(   23) = (   0.6666667  -0.3333333   0.6666667), wk =   0.0277778
        k(   24) = (   0.5833333  -0.2500000   0.5833333), wk =   0.0277778
        k(   25) = (   0.5000000  -0.1666667   0.5000000), wk =   0.0277778
        k(   26) = (   0.4166667  -0.0833333   0.4166667), wk =   0.0277778
        k(   27) = (   0.3333333   0.0000000   0.3333333), wk =   0.0138889
        k(   28) = (   0.0000000   0.5000000   0.0000000), wk =   0.0069444
        k(   29) = (  -0.0833333   0.5833333  -0.0833333), wk =   0.0277778
        k(   30) = (  -0.1666667   0.6666667  -0.1666667), wk =   0.0277778
        k(   31) = (   0.7500000  -0.2500000   0.7500000), wk =   0.0277778
        k(   32) = (   0.6666667  -0.1666667   0.6666667), wk =   0.0277778
        k(   33) = (   0.5833333  -0.0833333   0.5833333), wk =   0.0277778
        k(   34) = (   0.5000000   0.0000000   0.5000000), wk =   0.0138889
        k(   35) = (   0.0000000   0.6666667   0.0000000), wk =   0.0069444
        k(   36) = (  -0.0833333   0.7500000  -0.0833333), wk =   0.0277778
        k(   37) = (   0.8333333  -0.1666667   0.8333333), wk =   0.0277778
        k(   38) = (   0.7500000  -0.0833333   0.7500000), wk =   0.0277778
        k(   39) = (   0.6666667  -0.0000000   0.6666667), wk =   0.0138889
        k(   40) = (   0.0000000   0.8333333   0.0000000), wk =   0.0069444
        k(   41) = (   0.9166667  -0.0833333   0.9166667), wk =   0.0277778
        k(   42) = (   0.8333333   0.0000000   0.8333333), wk =   0.0138889
        k(   43) = (   0.0000000  -1.0000000   0.0000000), wk =   0.0034722
        k(   44) = (  -0.1666667   0.3333333   0.0000000), wk =   0.0277778
        k(   45) = (  -0.2500000   0.4166667  -0.0833333), wk =   0.0555556
        k(   46) = (  -0.3333333   0.5000000  -0.1666667), wk =   0.0555556
        k(   47) = (   0.5833333  -0.4166667   0.7500000), wk =   0.0555556
        k(   48) = (   0.5000000  -0.3333333   0.6666667), wk =   0.0277778
        k(   49) = (  -0.1666667   0.5000000   0.0000000), wk =   0.0277778
        k(   50) = (  -0.2500000   0.5833333  -0.0833333), wk =   0.0555556
        k(   51) = (   0.6666667  -0.3333333   0.8333333), wk =   0.0555556
        k(   52) = (   0.5833333  -0.2500000   0.7500000), wk =   0.0555556
        k(   53) = (   0.5000000  -0.1666667   0.6666667), wk =   0.0555556
        k(   54) = (   0.4166667  -0.0833333   0.5833333), wk =   0.0555556
        k(   55) = (   0.3333333   0.0000000   0.5000000), wk =   0.0277778
        k(   56) = (  -0.1666667   0.6666667  -0.0000000), wk =   0.0277778
        k(   57) = (   0.7500000  -0.2500000   0.9166667), wk =   0.0555556
        k(   58) = (   0.6666667  -0.1666667   0.8333333), wk =   0.0555556
        k(   59) = (   0.5833333  -0.0833333   0.7500000), wk =   0.0555556
        k(   60) = (   0.5000000   0.0000000   0.6666667), wk =   0.0277778
        k(   61) = (   0.8333333  -0.1666667   1.0000000), wk =   0.0277778
        k(   62) = (   0.7500000  -0.0833333   0.9166667), wk =   0.0555556
        k(   63) = (   0.6666667   0.0000000   0.8333333), wk =   0.0277778
        k(   64) = (  -0.1666667  -1.0000000  -0.0000000), wk =   0.0138889
        k(   65) = (   0.6666667  -0.3333333   1.0000000), wk =   0.0277778
        k(   66) = (   0.5833333  -0.2500000   0.9166667), wk =   0.0555556
        k(   67) = (   0.5000000  -0.1666667   0.8333333), wk =   0.0277778
        k(   68) = (   0.6666667  -0.1666667   1.0000000), wk =   0.0277778
        k(   69) = (   0.5833333  -0.0833333   0.9166667), wk =   0.0555556
        k(   70) = (   0.5000000   0.0000000   0.8333333), wk =   0.0277778
        k(   71) = (  -0.3333333  -1.0000000   0.0000000), wk =   0.0138889
        k(   72) = (  -0.5000000  -1.0000000   0.0000000), wk =   0.0069444

     Dense  grid:    19579 G-vectors     FFT dimensions: (  40,  40,  40)

     Estimated max dynamical RAM per process >       4.03 MB

     Estimated total dynamical RAM >      92.05 MB

     Initial potential from superposition of free atoms

     starting charge      15.8865, renormalised to      16.0000
     Starting wfcs are random

     total cpu time spent up to now is        0.2 secs

     Self-consistent Calculation

     iteration #  1     ecut=    60.00 Ry     beta= 0.70
     Davidson diagonalization with overlap
     ethr =  1.00E-02,  avg # of iterations =  7.9

     Threshold (ethr) on eigenvalues was too large:
     Diagonalizing with lowered threshold

     Davidson diagonalization with overlap
     ethr =  5.33E-04,  avg # of iterations =  1.8

     total cpu time spent up to now is        1.3 secs

     total energy              =    -151.14389125 Ry
     estimated scf accuracy    <       0.08217353 Ry

     iteration #  2     ecut=    60.00 Ry     beta= 0.70
     Davidson diagonalization with overlap
     ethr =  5.14E-04,  avg # of iterations =  2.1

     total cpu time spent up to now is        1.7 secs

     total energy              =    -151.16055010 Ry
     estimated scf accuracy    <       0.01280673 Ry

     iteration #  3     ecut=    60.00 Ry     beta= 0.70
     Davidson diagonalization with overlap
     ethr =  8.00E-05,  avg # of iterations =  2.7

     total cpu time spent up to now is        2.0 secs

     total energy              =    -151.16283123 Ry
     estimated scf accuracy    <       0.00049404 Ry

     iteration #  4     ecut=    60.00 Ry     beta= 0.70
     Davidson diagonalization with overlap
     ethr =  3.09E-06,  avg # of iterations =  4.7

     total cpu time spent up to now is        2.4 secs

     total energy              =    -151.16285400 Ry
     estimated scf accuracy    <       0.00000402 Ry

     iteration #  5     ecut=    60.00 Ry     beta= 0.70
     Davidson diagonalization with overlap
     ethr =  2.51E-08,  avg # of iterations =  2.1

     total cpu time spent up to now is        2.7 secs

     total energy              =    -151.16285539 Ry
     estimated scf accuracy    <       0.00000010 Ry

     iteration #  6     ecut=    60.00 Ry     beta= 0.70
     Davidson diagonalization with overlap
     ethr =  6.15E-10,  avg # of iterations =  2.0

     total cpu time spent up to now is        3.1 secs

     total energy              =    -151.16285543 Ry
     estimated scf accuracy    <          2.8E-09 Ry

     iteration #  7     ecut=    60.00 Ry     beta= 0.70
     Davidson diagonalization with overlap
     ethr =  1.77E-11,  avg # of iterations =  2.0

     total cpu time spent up to now is        3.4 secs

     End of self-consistent calculation

          k = 0.0000 0.0000 0.0000 (  2421 PWs)   bands (ev):

   -97.0255 -58.5141 -58.5141 -58.5141  -5.9335   5.8836   5.8836   5.8836
     7.8556  10.1500  10.1500  10.1500  14.7231  14.9484  14.9485  17.3152

          k =-0.0833 0.0833-0.0833 (  2427 PWs)   bands (ev):

   -97.0256 -58.5141 -58.5141 -58.5141  -5.8656   5.0978   5.8073   5.8073
     8.3887  10.2657  10.2871  10.2871  14.5907  14.5907  15.0956  16.9797

          k =-0.1667 0.1667-0.1667 (  2433 PWs)   bands (ev):

   -97.0258 -58.5141 -58.5141 -58.5141  -5.6680   3.7886   5.6212   5.6212
     8.6510  10.5861  10.5861  11.0355  14.1536  14.1536  15.6018  16.8993

          k =-0.2500 0.2500-0.2500 (  2439 PWs)   bands (ev):

   -97.0261 -58.5142 -58.5141 -58.5141  -5.3624   2.5087   5.4058   5.4058
     8.4528  10.7778  10.7778  12.2796  14.2238  14.2238  15.2678  18.2323

          k =-0.3333 0.3333-0.3333 (  2442 PWs)   bands (ev):

   -97.0263 -58.5143 -58.5141 -58.5141  -4.9972   1.4122   5.2220   5.2220
     8.2094  10.7355  10.7355  13.3375  14.9555  14.9555  15.2213  19.7776

          k =-0.4167 0.4167-0.4167 (  2428 PWs)   bands (ev):

   -97.0259 -58.5143 -58.5141 -58.5141  -4.6702   0.6353   5.1022   5.1022
     8.0429  10.6145  10.6145  13.6253  16.1304  16.1730  16.1730  19.5283

          k = 0.5000-0.5000 0.5000 (  2452 PWs)   bands (ev):

   -97.0266 -58.5143 -58.5141 -58.5141  -4.5313   0.3448   5.0609   5.0609
     7.9851  10.5598  10.5598  13.6192  16.9983  17.4753  17.4753  18.0087

          k = 0.0000 0.1667 0.0000 (  2433 PWs)   bands (ev):

   -97.0257 -58.5141 -58.5141 -58.5141  -5.8429   5.1069   5.6384   5.6384
     8.6712   9.8303  10.5340  10.5340  13.9686  15.0710  15.2488  17.5294

          k =-0.0833 0.2500-0.0833 (  2427 PWs)   bands (ev):

   -97.0256 -58.5141 -58.5141 -58.5141  -5.6882   4.1053   5.3948   5.4952
     9.1196   9.7939  10.9371  11.0728  13.4138  14.9274  15.9188  17.1889

          k =-0.1667 0.3333-0.1667 (  2431 PWs)   bands (ev):

   -97.0258 -58.5142 -58.5141 -58.5141  -5.4174   2.8849   5.1621   5.2744
     8.9804  10.2222  11.2308  11.7128  13.5769  14.9037  15.9556  17.8734

          k =-0.2500 0.4167-0.2500 (  2430 PWs)   bands (ev):

   -97.0259 -58.5142 -58.5141 -58.5141  -5.0681   1.7605   4.9937   5.0065
     8.7366  10.4227  11.2223  12.4032  14.4569  15.4889  15.7242  19.3416

          k =-0.3333 0.5000-0.3333 (  2424 PWs)   bands (ev):

   -97.0258 -58.5143 -58.5141 -58.5141  -4.7187   0.8864   4.7672   4.9150
     8.5519  10.3796  11.0338  13.3246  14.9726  16.4814  16.6049  19.3202

          k = 0.5833-0.4167 0.5833 (  2421 PWs)   bands (ev):

   -97.0257 -58.5143 -58.5141 -58.5141  -4.5043   0.4291   4.5999   4.9330
     8.4652  10.3640  10.8538  13.8673  15.7126  17.3275  17.3897  18.2185

          k = 0.5000-0.3333 0.5000 (  2423 PWs)   bands (ev):

   -97.0258 -58.5143 -58.5141 -58.5141  -4.5516   0.5263   4.5278   5.0422
     8.4870  10.4671  10.7664  13.8818  15.8639  16.0165  17.3472  18.5290

          k = 0.4167-0.2500 0.4167 (  2425 PWs)   bands (ev):

   -97.0258 -58.5143 -58.5141 -58.5141  -4.8291   1.1435   4.5637   5.2265
     8.6144  10.6702  10.7664  13.3657  14.5588  15.4061  16.8463  19.1154

          k = 0.3333-0.1667 0.3333 (  2424 PWs)   bands (ev):

   -97.0257 -58.5142 -58.5141 -58.5141  -5.1907   2.1150   4.7135   5.4560
     8.8256  10.7505  10.8218  12.4031  13.7030  15.1368  16.0324  18.7672

          k = 0.2500-0.0833 0.2500 (  2430 PWs)   bands (ev):

   -97.0257 -58.5142 -58.5141 -58.5141  -5.5197   3.2709   4.9794   5.6798
     9.0324  10.5414  10.5690  11.6334  13.5011  14.5787  16.1791  17.4427

          k = 0.1667-0.0000 0.1667 (  2427 PWs)   bands (ev):

   -97.0256 -58.5141 -58.5141 -58.5141  -5.7543   4.3940   5.3761   5.8213
     8.8711  10.1654  10.3262  10.9663  13.8976  14.5592  15.6683  17.2542

          k = 0.0000 0.3333 0.0000 (  2445 PWs)   bands (ev):

   -97.0262 -58.5141 -58.5141 -58.5141  -5.5783   3.8742   5.1044   5.1044
     9.1541   9.7525  11.4762  11.4762  12.8293  15.4385  16.5129  18.1707

          k =-0.0833 0.4167-0.0833 (  2432 PWs)   bands (ev):

   -97.0258 -58.5142 -58.5141 -58.5141  -5.3493   3.0309   4.8251   4.8421
     9.0026   9.9422  11.6595  11.9479  13.3125  15.5889  17.1354  18.1445

          k =-0.1667 0.5000-0.1667 (  2417 PWs)   bands (ev):

   -97.0255 -58.5142 -58.5141 -58.5141  -5.0309   2.0511   4.4611   4.6613
     8.9541  10.3502  11.4370  12.0808  14.6360  16.0710  16.9240  19.1682

          k =-0.2500 0.5833-0.2500 (  2425 PWs)   bands (ev):

   -97.0258 -58.5143 -58.5141 -58.5141  -4.6853   1.1944   4.0843   4.5871
     8.8546  10.6912  11.8254  11.9072  15.5910  17.0916  17.1245  19.2482

          k = 0.6667-0.3333 0.6667 (  2422 PWs)   bands (ev):

   -97.0257 -58.5143 -58.5141 -58.5141  -4.4254   0.6474   3.7824   4.6264
     8.8313  10.6414  11.6541  12.9888  15.5554  17.3170  17.7546  18.6365

          k = 0.5833-0.2500 0.5833 (  2419 PWs)   bands (ev):

   -97.0257 -58.5143 -58.5141 -58.5141  -4.3856   0.5731   3.6030   4.7728
     8.9300  10.6312  11.4505  14.0022  15.2599  15.7085  17.1776  20.0627

          k = 0.5000-0.1667 0.5000 (  2419 PWs)   bands (ev):

   -97.0257 -58.5143 -58.5141 -58.5141  -4.5910   0.9938   3.5788   5.0057
     9.1373  10.7360  11.3155  13.2966  14.3440  15.9260  17.5385  19.1586

          k = 0.4167-0.0833 0.4167 (  2424 PWs)   bands (ev):

   -97.0257 -58.5142 -58.5141 -58.5141  -4.9245   1.7473   3.7540   5.2854
     9.3950  10.8759  11.1578  12.1834  13.4312  16.2571  17.5895  18.6525

          k = 0.3333 0.0000 0.3333 (  2411 PWs)   bands (ev):

   -97.0252 -58.5142 -58.5141 -58.5141  -5.2593   2.5830   4.2129   5.5427
     9.5054  10.6214  10.8499  11.7628  13.1800  15.4409  17.2577  17.7866

          k = 0.0000 0.5000 0.0000 (  2429 PWs)   bands (ev):

   -97.0259 -58.5142 -58.5141 -58.5141  -5.1652   2.6740   4.5488   4.5488
     8.4575   9.6351  12.6895  12.6895  13.2849  16.0502  18.0959  19.2145

          k =-0.0833 0.5833-0.0833 (  2420 PWs)   bands (ev):

   -97.0256 -58.5142 -58.5141 -58.5141  -4.8888   2.0109   4.1879   4.3413
     8.3673   9.4759  12.6342  13.1150  14.6726  16.5368  18.4271  19.5366

          k =-0.1667 0.6667-0.1667 (  2420 PWs)   bands (ev):

   -97.0257 -58.5143 -58.5141 -58.5141  -4.5709   1.3430   3.6649   4.2477
     8.4050   9.9901  12.3713  13.0731  16.1094  17.4912  18.1848  19.3288

          k = 0.7500-0.2500 0.7500 (  2416 PWs)   bands (ev):

   -97.0256 -58.5143 -58.5142 -58.5141  -4.3031   0.8585   3.1731   4.2776
     8.4399  11.0311  12.2322  12.8076  16.1724  17.3632  18.7703  19.0452

          k = 0.6667-0.1667 0.6667 (  2403 PWs)   bands (ev):

   -97.0252 -58.5143 -58.5142 -58.5141  -4.2047   0.7102   2.8410   4.4269
     8.5959  11.6953  12.5157  12.8384  14.9897  15.7283  18.5263  20.3930

          k = 0.5833-0.0833 0.5833 (  2413 PWs)   bands (ev):

   -97.0254 -58.5143 -58.5142 -58.5141  -4.3312   0.9337   2.7550   4.6770
     8.8918  11.7508  12.2187  13.2059  14.3705  14.6907  18.5768  20.5776

          k = 0.5000 0.0000 0.5000 (  2421 PWs)   bands (ev):

   -97.0257 -58.5143 -58.5142 -58.5141  -4.6100   1.3524   3.0348   4.9880
     9.2627  11.6220  11.7681  12.1599  13.5704  16.1489  18.3697  19.5749

          k = 0.0000 0.6667 0.0000 (  2397 PWs)   bands (ev):

   -97.0250 -58.5143 -58.5141 -58.5141  -4.6617   1.6060   4.1024   4.1024
     7.8736   8.8791  14.0201  14.0201  14.8306  16.9034  19.5035  20.2766

          k =-0.0833 0.7500-0.0833 (  2415 PWs)   bands (ev):

   -97.0256 -58.5143 -58.5142 -58.5141  -4.3937   1.1381   3.7225   3.9782
     7.8574   8.8499  14.0307  14.3515  16.2316  17.6828  19.0301  19.5256

          k = 0.8333-0.1667 0.8333 (  2428 PWs)   bands (ev):

   -97.0259 -58.5143 -58.5142 -58.5142  -4.1599   0.8163   3.1123   3.9820
     7.9768   9.5979  13.7867  14.1690  16.5673  17.5472  18.9231  19.3125

          k = 0.7500-0.0833 0.7500 (  2412 PWs)   bands (ev):

   -97.0254 -58.5143 -58.5142 -58.5141  -4.0534   0.7385   2.5828   4.1129
     8.1580  10.8657  13.5963  13.7844  15.1324  15.9722  20.0494  20.7375

          k = 0.6667-0.0000 0.6667 (  2424 PWs)   bands (ev):

   -97.0258 -58.5143 -58.5142 -58.5141  -4.1238   0.8480   2.3907   4.3563
     8.4746  12.1938  13.1648  13.4549  13.7839  14.8255  20.2051  20.5939

          k = 0.0000 0.8333 0.0000 (  2446 PWs)   bands (ev):

   -97.0265 -58.5143 -58.5142 -58.5142  -4.1946   0.7980   3.8197   3.8197
     7.4722   8.3502  15.3507  15.3507  16.4981  17.9869  19.4075  19.4075

          k = 0.9167-0.0833 0.9167 (  2419 PWs)   bands (ev):

   -97.0257 -58.5143 -58.5142 -58.5142  -4.0376   0.5896   3.4807   3.7896
     7.5694   8.5244  15.4093  15.5054  16.9312  17.9219  18.8159  19.2916

          k = 0.8333 0.0000 0.8333 (  2420 PWs)   bands (ev):

   -97.0257 -58.5143 -58.5142 -58.5142  -3.9852   0.6074   2.9173   3.8909
     7.8227   9.4635  14.9317  15.0019  15.6245  16.6409  19.7971  20.8224

          k = 0.0000-1.0000 0.0000 (  2450 PWs)   bands (ev):

   -97.0266 -58.5143 -58.5142 -58.5142  -3.9882   0.4774   3.7233   3.7233
     7.3261   8.1748  16.1546  16.1546  17.5329  18.5329  18.5330  19.0174

          k =-0.1667 0.3333 0.0000 (  2436 PWs)   bands (ev):

   -97.0259 -58.5141 -58.5141 -58.5141  -5.4963   3.3796   4.8145   5.4260
     9.5685   9.6425  11.2599  11.5167  13.2271  15.0422  16.6910  17.6202

          k =-0.2500 0.4167-0.0833 (  2430 PWs)   bands (ev):

   -97.0258 -58.5142 -58.5141 -58.5141  -5.2005   2.4100   4.3650   5.2402
     9.4079  10.1537  11.4939  11.6328  13.7161  15.5742  16.8890  18.3616

          k =-0.3333 0.5000-0.1667 (  2427 PWs)   bands (ev):

   -97.0259 -58.5143 -58.5141 -58.5141  -4.8495   1.4626   4.0993   4.9996
     9.2122  10.3303  11.5541  12.1537  14.5779  16.0649  17.2797  18.9582

          k = 0.5833-0.4167 0.7500 (  2421 PWs)   bands (ev):

   -97.0257 -58.5143 -58.5141 -58.5141  -4.5382   0.7606   3.9639   4.8099
     9.0797  10.2126  11.4789  13.2255  15.2517  16.4233  17.4320  18.8515

          k = 0.5000-0.3333 0.6667 (  2424 PWs)   bands (ev):

   -97.0258 -58.5143 -58.5141 -58.5141  -4.4072   0.4949   3.9236   4.7384
     9.0342  10.1494  11.4339  14.0107  15.2077  16.4396  17.6254  18.4358

          k =-0.1667 0.5000 0.0000 (  2428 PWs)   bands (ev):

   -97.0258 -58.5142 -58.5141 -58.5141  -5.0956   2.3927   4.2414   4.7501
     8.9451   9.9159  11.6270  12.5494  14.0296  16.0877  17.9284  18.4261

          k =-0.2500 0.5833-0.0833 (  2422 PWs)   bands (ev):

   -97.0257 -58.5143 -58.5141 -58.5141  -4.7741   1.6563   3.7765   4.5337
     9.0486  10.2795  11.3447  12.8464  14.9787  16.9217  17.9524  19.0112

          k = 0.6667-0.3333 0.8333 (  2422 PWs)   bands (ev):

   -97.0257 -58.5143 -58.5142 -58.5141  -4.4609   1.0165   3.4323   4.3688
     9.0555  10.7529  11.5688  12.7926  15.7584  16.9383  18.0777  19.1178

          k = 0.5833-0.2500 0.7500 (  2419 PWs)   bands (ev):

   -97.0257 -58.5143 -58.5142 -58.5141  -4.2763   0.6758   3.1987   4.3548
     9.1368  10.6035  12.4722  12.9998  14.8256  16.9397  18.2287  18.6546

          k = 0.5000-0.1667 0.6667 (  2420 PWs)   bands (ev):

   -97.0257 -58.5143 -58.5142 -58.5141  -4.3226   0.7666   3.1057   4.4944
     9.3371  10.4851  12.4255  13.2370  14.5772  15.9400  17.9403  19.9924

          k = 0.4167-0.0833 0.5833 (  2416 PWs)   bands (ev):

   -97.0255 -58.5143 -58.5142 -58.5141  -4.5708   1.2325   3.2144   4.7464
     9.6208  10.4470  11.8113  12.5708  14.4837  16.2343  18.1473  19.4133

          k = 0.3333 0.0000 0.5000 (  2419 PWs)   bands (ev):

   -97.0256 -58.5142 -58.5141 -58.5141  -4.8983   1.8502   3.6206   5.0362
     9.8519  10.1932  11.2934  12.1835  13.8221  16.6333  17.9168  18.5607

          k =-0.1667 0.6667-0.0000 (  2415 PWs)   bands (ev):

   -97.0255 -58.5143 -58.5141 -58.5141  -4.6125   1.5031   3.7927   4.1285
     8.3717   9.3189  12.6547  13.9613  15.4159  17.3317  18.6791  19.6740

          k = 0.7500-0.2500 0.9167 (  2417 PWs)   bands (ev):

   -97.0256 -58.5143 -58.5142 -58.5141  -4.3292   1.0534   3.2900   3.9555
     8.5552   9.8510  12.3494  14.2100  16.1454  17.2648  19.1566  19.2586

          k = 0.6667-0.1667 0.8333 (  2419 PWs)   bands (ev):

   -97.0257 -58.5143 -58.5142 -58.5141  -4.1357   0.7976   2.8117   3.9619
     8.6947  10.9655  12.1069  14.0438  15.0186  17.2977  18.8435  19.6610

          k = 0.5833-0.0833 0.7500 (  2416 PWs)   bands (ev):

   -97.0255 -58.5143 -58.5142 -58.5141  -4.1236   0.8133   2.5440   4.1281
     8.9383  11.5744  12.5874  13.4278  14.0464  15.9692  19.5323  20.2712

          k = 0.5000 0.0000 0.6667 (  2428 PWs)   bands (ev):

   -97.0259 -58.5143 -58.5142 -58.5141  -4.2971   1.0149   2.6474   4.4128
     9.2970  11.2770  12.0432  13.4751  14.3420  15.1065  19.4013  20.1250

          k = 0.8333-0.1667 1.0000 (  2417 PWs)   bands (ev):

   -97.0256 -58.5143 -58.5142 -58.5142  -4.1718   0.8195   3.5272   3.6983
     7.9744   8.8530  13.9288  15.3378  16.5445  17.6634  19.0100  19.6356

          k = 0.7500-0.0833 0.9167 (  2413 PWs)   bands (ev):

   -97.0255 -58.5143 -58.5142 -58.5142  -4.0220   0.6872   2.9949   3.6630
     8.2739   9.5883  13.5786  15.0368  15.7714  17.6054  18.8582  20.4159

          k = 0.6667 0.0000 0.8333 (  2413 PWs)   bands (ev):

   -97.0255 -58.5143 -58.5142 -58.5142  -4.0056   0.7481   2.5396   3.8313
     8.5577  10.8885  13.0654  13.7577  15.1886  16.4475  19.9091  21.1009

          k =-0.1667-1.0000-0.0000 (  2420 PWs)   bands (ev):

   -97.0257 -58.5143 -58.5142 -58.5142  -3.9805   0.5463   3.4572   3.5290
     7.8310   8.6977  14.9615  15.6304  16.5310  18.2641  18.4059  19.5689

          k = 0.6667-0.3333 1.0000 (  2409 PWs)   bands (ev):

   -97.0254 -58.5143 -58.5142 -58.5141  -4.4781   1.2604   3.1830   4.2465
     9.5462  10.4001  11.0272  13.7787  15.1269  16.5877  18.8989  19.8073

          k = 0.5833-0.2500 0.9167 (  2425 PWs)   bands (ev):

   -97.0258 -58.5143 -58.5142 -58.5141  -4.2259   0.9221   2.8399   3.9764
     9.7635  10.5648  11.4758  14.0798  14.6376  16.4626  19.1791  19.9085

          k = 0.5000-0.1667 0.8333 (  2412 PWs)   bands (ev):

   -97.0254 -58.5143 -58.5142 -58.5141  -4.1234   0.7814   2.7350   3.8708
     9.8123  10.4466  12.5563  13.2857  14.2152  17.3642  18.6834  19.3963

          k = 0.6667-0.1667 1.0000 (  2425 PWs)   bands (ev):

   -97.0259 -58.5143 -58.5142 -58.5142  -4.1147   0.8585   2.9706   3.5488
     9.1834  10.1058  11.9929  14.7688  15.4219  17.1282  19.4378  20.4418

          k = 0.5833-0.0833 0.9167 (  2415 PWs)   bands (ev):

   -97.0255 -58.5143 -58.5142 -58.5142  -4.0061   0.8016   2.6676   3.4221
     9.5777  11.0401  11.7685  13.1698  15.6770  17.6870  18.7691  20.5451

          k = 0.5000 0.0000 0.8333 (  2417 PWs)   bands (ev):

   -97.0256 -58.5143 -58.5142 -58.5142  -4.0509   0.8526   2.5614   3.6081
     9.8576  11.0912  11.7740  12.9456  15.2966  16.7582  19.6820  20.7223

          k =-0.3333-1.0000 0.0000 (  2424 PWs)   bands (ev):

   -97.0258 -58.5143 -58.5142 -58.5142  -3.9649   0.7100   2.9721   3.2142
     9.0536   9.9832  12.9780  13.6838  16.4369  18.2155  18.4389  19.7409

          k =-0.5000-1.0000 0.0000 (  2400 PWs)   bands (ev):

   -97.0250 -58.5143 -58.5142 -58.5142  -3.9570   0.8116   2.7341   3.0805
    10.2127  11.4809  11.5553  11.9433  16.4527  18.2146  18.4609  19.8339

     the Fermi energy is     6.3818 ev

!    total energy              =    -151.16285543 Ry
     estimated scf accuracy    <          6.8E-11 Ry
     smearing contrib. (-TS)   =      -0.00000000 Ry
     internal energy E=F+TS    =    -151.16285543 Ry

     The total energy is F=E-TS. E is the sum of the following terms:
     one-electron contribution =    -108.54694797 Ry
     hartree contribution      =      46.84862698 Ry
     xc contribution           =     -18.83025154 Ry
     ewald contribution        =     -70.63428290 Ry

     convergence has been achieved in   7 iterations

     Writing all to output data dir out/mp-2172.save/
 
     init_run     :      0.12s CPU      0.17s WALL (       1 calls)
     electrons    :      2.84s CPU      3.20s WALL (       1 calls)

     Called by init_run:
     wfcinit      :      0.10s CPU      0.12s WALL (       1 calls)
     potinit      :      0.01s CPU      0.01s WALL (       1 calls)
     hinit0       :      0.00s CPU      0.03s WALL (       1 calls)

     Called by electrons:
     c_bands      :      2.46s CPU      2.71s WALL (       8 calls)
     sum_band     :      0.35s CPU      0.43s WALL (       8 calls)
     v_of_rho     :      0.02s CPU      0.02s WALL (       8 calls)
     mix_rho      :      0.00s CPU      0.01s WALL (       8 calls)

     Called by c_bands:
     init_us_2    :      0.04s CPU      0.04s WALL (     612 calls)
     init_us_2:cp :      0.03s CPU      0.04s WALL (     612 calls)
     cegterg      :      2.16s CPU      2.28s WALL (     288 calls)

     Called by *egterg:
     cdiaghg      :      0.32s CPU      0.34s WALL (    1159 calls)
     h_psi        :      1.74s CPU      1.85s WALL (    1231 calls)
     g_psi        :      0.01s CPU      0.01s WALL (     907 calls)

     Called by h_psi:
     h_psi:calbec :      0.05s CPU      0.05s WALL (    1231 calls)
     vloc_psi     :      1.66s CPU      1.75s WALL (    1231 calls)
     add_vuspsi   :      0.03s CPU      0.03s WALL (    1231 calls)

     General routines
     calbec       :      0.04s CPU      0.05s WALL (    1231 calls)
     fft          :      0.01s CPU      0.03s WALL (      80 calls)
     ffts         :      0.00s CPU      0.00s WALL (       8 calls)
     fftw         :      1.76s CPU      1.86s WALL (   31206 calls)
     davcio       :      0.04s CPU      0.18s WALL (     988 calls)
 
     Parallel routines
 
     PWSCF        :      3.03s CPU      3.60s WALL

 
   This run was terminated on:   3:11:42  15Nov2023            

=------------------------------------------------------------------------------=
   JOB DONE.
=------------------------------------------------------------------------------=
