
     Program PWSCF v.7.1 starts on 15Nov2023 at  1:44:39 

     This program is part of the open-source Quantum ESPRESSO suite
     for quantum simulation of materials; please cite
         "P. Giannozzi et al., J. Phys.:Condens. Matter 21 395502 (2009);
         "P. Giannozzi et al., J. Phys.:Condens. Matter 29 465901 (2017);
         "P. Giannozzi et al., J. Chem. Phys. 152 154105 (2020);
          URL http://www.quantum-espresso.org", 
     in publications or presentations arising from this work. More details at
     http://www.quantum-espresso.org/quote

     Parallel version (MPI), running on     8 processors

     MPI processes distributed on     1 nodes
     123446 MiB available memory on the printing compute node when the environment starts
 
     Reading input from pw_mp-2172_nscf_k60_E60.in
Warning: card &IONS ignored
Warning: card / ignored
Warning: card &CELL ignored
Warning: card / ignored

     Current dimensions of program PWSCF are:
     Max number of different atomic species (ntypx) = 10
     Max number of k-points (npk) =  40000
     Max angular momentum in pseudopotentials (lmaxx) =  4

     Atomic positions and unit cell read from directory:
     out/mp-2172.save/
     Atomic positions from file used, from input discarded
 
 
     R & G space division:  proc/nbgrp/npool/nimage =       8
     Subspace diagonalization in iterative solution of the eigenvalue problem:
     one sub-group per band group will be used
     scalapack distributed-memory algorithm (size of sub-group:  2*  2 procs)

 
     Parallelization info
     --------------------
     sticks:   dense  smooth     PW     G-vecs:    dense   smooth      PW
     Min         119     119     35                 2446     2446     389
     Max         120     120     36                 2450     2450     391
     Sum         955     955    283                19579    19579    3119
 
     Using Slab Decomposition
 


     bravais-lattice index     =            2
     lattice parameter (alat)  =      10.7257  a.u.
     unit-cell volume          =     308.4737 (a.u.)^3
     number of atoms/cell      =            2
     number of atomic types    =            2
     number of electrons       =        16.00
     number of Kohn-Sham states=         1200
     kinetic-energy cutoff     =      60.0000  Ry
     charge density cutoff     =     240.0000  Ry
     Exchange-correlation= PBE
                           (   1   4   3   4   0   0   0)

     celldm(1)=  10.725710  celldm(2)=   0.000000  celldm(3)=   0.000000
     celldm(4)=   0.000000  celldm(5)=   0.000000  celldm(6)=   0.000000

     crystal axes: (cart. coord. in units of alat)
               a(1) = (  -0.500000   0.000000   0.500000 )  
               a(2) = (   0.000000   0.500000   0.500000 )  
               a(3) = (  -0.500000   0.500000   0.000000 )  

     reciprocal axes: (cart. coord. in units 2 pi/alat)
               b(1) = ( -1.000000 -1.000000  1.000000 )  
               b(2) = (  1.000000  1.000000  1.000000 )  
               b(3) = ( -1.000000  1.000000 -1.000000 )  


     PseudoPot. # 1 for Al read from file:
     /usr/scratch4/magr4985/MG/HTDF/pseudo/SG15/Al.upf
     MD5 check sum: 2d9e7bc02555220d62fad08c3c4858e7
     Pseudo is Norm-conserving, Zval = 11.0
     Generated using ONCVPSP code by D. R. Hamann
     Using radial grid of  602 points,  4 beta functions with: 
                l(1) =   0
                l(2) =   0
                l(3) =   1
                l(4) =   1

     PseudoPot. # 2 for As read from file:
     /usr/scratch4/magr4985/MG/HTDF/pseudo/SG15/As.upf
     MD5 check sum: a2ff92a4799c87c945fff9e6739df4dd
     Pseudo is Norm-conserving, Zval =  5.0
     Generated using ONCVPSP code by D. R. Hamann
     Using radial grid of  602 points,  6 beta functions with: 
                l(1) =   0
                l(2) =   0
                l(3) =   1
                l(4) =   1
                l(5) =   2
                l(6) =   2

     atomic species   valence    mass     pseudopotential
        Al            11.00    26.98150     Al( 1.00)
        As             5.00    74.92160     As( 1.00)

     24 Sym. Ops. (no inversion) found



   Cartesian axes

     site n.     atom                  positions (alat units)
         1           Al  tau(   1) = (   0.0000000   0.0000000   0.0000000  )
         2           As  tau(   2) = (  -0.7500000   0.7500000   0.7500000  )

     number of k points=     8  Gaussian smearing, width (Ry)=  0.0005
                       cart. coord. in units 2pi/alat
        k(    1) = (   0.0000000   0.0000000   0.0000000), wk =   0.0312500
        k(    2) = (  -0.2500000   0.2500000  -0.2500000), wk =   0.2500000
        k(    3) = (   0.5000000  -0.5000000   0.5000000), wk =   0.1250000
        k(    4) = (   0.0000000   0.5000000   0.0000000), wk =   0.1875000
        k(    5) = (   0.7500000  -0.2500000   0.7500000), wk =   0.7500000
        k(    6) = (   0.5000000   0.0000000   0.5000000), wk =   0.3750000
        k(    7) = (   0.0000000  -1.0000000   0.0000000), wk =   0.0937500
        k(    8) = (  -0.5000000  -1.0000000   0.0000000), wk =   0.1875000

     Dense  grid:    19579 G-vectors     FFT dimensions: (  40,  40,  40)

     Estimated max dynamical RAM per process >      97.35 MB

     Estimated total dynamical RAM >     778.80 MB

     The potential is recalculated from file :
     out/mp-2172.save/charge-density

     Starting wfcs are random

     Band Structure Calculation
     ParO style diagonalization

     ethr =  5.00E-06,  avg # of iterations =  6.0

     total cpu time spent up to now is      601.3 secs

     End of band structure calculation

          k = 0.0000 0.0000 0.0000 (  2421 PWs)   bands (ev):

   -97.0256 -58.5141 -58.5141 -58.5141  -5.9335   5.8836   5.8836   5.8836
     7.8556  10.1500  10.1500  10.1500  14.7231  14.9484  14.9484  17.3152
    17.3152  17.3152  20.7328  29.7449  29.7449  29.7449  31.6148  31.6148
    31.8144  31.8144  31.8144  33.2925  33.2925  33.2925  41.3915  42.3358
    42.3358  42.3358  44.4109  44.4109  46.2044  46.2044  46.2044  46.3779
    46.3779  46.7576  46.7576  46.7576  46.9675  47.8048  47.8048  47.8048
    48.6038  48.6038  48.6038  49.1387  49.1387  49.1387  52.5603  54.0949
    54.0949  54.0949  54.9867  54.9867  54.9867  57.2431  61.1888  69.0453
    69.0453  70.6342  70.6342  70.6342  73.0542  74.0840  74.0840  74.0840
    76.7015  76.7015  76.7015  77.2147  77.2147  80.8271  80.8271  80.8271
    82.8930  82.8930  82.8930  83.2552  83.2552  84.6387  84.6387  84.6387
    84.8895  86.4024  86.4024  86.4024  86.9152  86.9152  87.5678  87.5678
    87.5678  89.1400  89.1400  89.1400  90.0628  90.3348  90.3348  90.3348
    91.6132  91.6132  91.6132  91.7034  92.7113  92.7113  92.7113  92.8153
    92.8153  93.7243  93.7243  93.7243  97.8937 101.1664 101.3532 101.3532
   101.3532 104.0190 104.0190 104.0190 104.1026 104.1026 106.0614 106.0614
   106.0614 106.7929 106.7929 106.7929 107.5431 107.5431 107.5431 108.2353
   108.2353 112.4275 112.4275 112.4275 112.9045 116.5100 117.7037 117.7037
   118.7919 118.7919 118.7919 119.4855 119.4855 119.4855 119.8306 119.8306
   120.4092 121.6977 121.6977 121.6977 121.7550 122.3866 122.3866 122.3866
   122.4632 122.4632 122.4632 123.2851 123.2851 123.2851 124.3952 124.3952
   124.3952 126.7052 126.7052 126.7052 134.9106 136.9620 136.9620 136.9620
   136.9627 136.9627 136.9627 137.3882 137.9491 137.9491 144.2573 144.2573
   144.2573 146.9879 146.9879 146.9879 147.5070 147.5070 148.3559 148.3559
   148.3559 149.3323 152.9560 152.9560 152.9560 153.9235 153.9235 153.9394
   153.9394 153.9394 154.8549 154.8549 154.8549 157.1001 157.1001 157.3018
   157.3018 157.3018 157.3934 157.4916 157.4916 157.4916 158.3912 158.3912
   158.3912 158.9841 158.9841 159.1933 159.1933 159.1933 159.7546 159.7546
   159.7546 159.8646 160.2735 160.2735 160.2735 160.4739 160.6707 160.6707
   160.6707 161.0286 161.3574 161.3574 161.3574 162.5723 162.6962 162.6962
   163.8158 163.8158 163.8158 165.1317 165.1317 165.3490 165.3490 165.3490
   165.8341 165.8341 165.8341 166.1807 166.1807 166.1807 166.3934 166.3934
   166.3934 166.4388 166.4388 171.8881 171.8881 171.8881 174.4201 174.4201
   174.7892 178.8407 178.8407 178.8407 180.6105 180.6105 180.6105 181.1915
   181.1915 181.1915 181.3581 181.3581 181.3581 182.9814 182.9814 182.9814
   183.4113 184.2883 184.2883 184.3326 184.3326 184.3326 184.4103 186.2421
   186.2421 186.2421 186.2980 189.7168 189.7168 190.6792 190.6792 190.6792
   192.3138 192.3138 192.3138 192.8362 192.8362 192.8362 193.3735 193.3735
   193.3735 193.9516 193.9516 196.0027 196.0027 196.0027 196.3749 199.3841
   199.3841 199.3841 199.7877 199.7877 200.5671 200.5671 200.5671 200.8682
   201.3020 201.3020 201.3020 201.4003 201.4003 201.4003 202.1508 202.1508
   202.1508 202.3780 202.3780 209.0157 209.0157 209.0157 215.5032 215.5032
   215.5032 215.5580 216.3445 218.5190 218.5190 218.5190 220.5930 220.5930
   220.6010 220.6010 220.6010 220.7547 220.7547 220.7547 221.3431 223.1185
   223.1185 223.1185 223.9323 223.9323 225.1329 225.9979 225.9979 225.9979
   226.6567 226.6567 226.6567 226.8694 226.8694 227.1467 227.1467 227.1467
   228.2862 229.6081 229.6081 229.6081 229.6626 229.6626 230.7744 233.2026
   233.2026 233.2026 233.4267 233.4267 233.4267 233.5119 233.5119 233.5119
   233.6764 233.6764 233.6764 237.6825 237.6825 237.6825 237.7280 237.7280
   237.7280 237.7453 237.7453 237.7453 237.7820 237.7820 237.8378 238.8906
   238.8906 238.8906 239.2080 239.7878 239.7878 239.7878 240.3615 240.3615
   240.3658 240.3658 240.3658 242.7047 242.7047 242.7047 244.8158 244.8271
   244.8271 244.8271 246.1186 248.0529 248.0529 248.9147 248.9147 248.9147
   249.1329 249.1329 249.1329 250.4109 250.4109 250.4109 250.5611 250.5611
   250.5611 251.8804 251.8804 254.8714 254.8714 255.5509 255.5509 255.5509
   255.7847 255.7847 255.7847 256.1079 256.1079 256.1079 256.7176 256.7176
   256.7176 257.0826 257.0826 257.3855 258.1511 258.1511 258.1511 258.5050
   258.5050 258.5050 258.5479 258.5479 258.5479 258.8303 261.2061 261.2061
   261.2061 261.2301 262.6075 264.9734 264.9734 265.6035 265.6035 265.6035
   266.8532 266.8532 266.8532 266.9487 266.9487 266.9487 267.1066 267.1066
   267.2500 267.2500 267.2500 268.3845 268.9505 268.9505 268.9505 269.1322
   269.1322 269.1322 269.1986 270.7257 270.7257 270.8335 270.8335 270.8335
   270.8894 270.8894 270.8894 271.2186 271.2186 271.2186 271.2381 271.2381
   271.2381 271.4743 271.5093 271.5093 271.7674 271.7674 271.7674 272.1477
   272.1477 272.1477 272.5429 272.5849 272.5849 272.5951 272.5951 272.5951
   272.6148 272.6148 272.6148 272.7761 272.7761 272.7761 273.0124 273.0124
   273.0124 273.0259 273.0259 289.5594 289.5594 289.5594 290.9227 290.9227
   291.2259 293.3313 293.3313 293.3313 297.0474 297.0474 297.0474 297.7891
   298.2311 298.6839 298.6839 300.0192 300.0192 300.0192 301.8119 301.8119
   301.8119 302.1209 302.1209 302.1209 302.4362 302.4362 302.4362 302.8279
   302.8279 304.3471 305.7984 305.7984 305.7984 306.7368 306.7368 306.8954
   306.8954 306.8954 308.2971 308.3384 308.3384 308.3384 309.3005 311.8293
   311.8293 311.8293 311.8534 311.8534 311.8534 311.9347 311.9347 311.9347
   311.9568 311.9568 311.9568 313.9707 313.9707 314.0874 314.0874 314.0874
   314.1770 314.1770 314.1770 314.3039 314.3039 314.3039 314.3700 314.3700
   314.3700 314.3778 314.3778 314.7219 314.7219 314.7242 314.7242 314.7242
   314.7733 319.8400 319.8400 319.8400 321.2018 321.2018 321.2018 321.2444
   321.2444 321.4179 321.4179 321.4179 322.1830 325.9928 325.9928 326.1776
   326.1776 326.1776 327.7987 329.1341 329.1341 329.1341 329.2282 329.2282
   329.2282 329.4510 329.4510 329.4510 329.6301 329.6301 329.6301 331.2338
   331.3209 331.3209 331.3209 331.3931 331.3931 331.4018 331.4018 331.4018
   331.8748 331.8748 331.8748 332.0479 332.0479 332.0479 332.0566 332.0566
   333.4733 340.1483 340.4750 340.4750 340.4750 340.8700 340.8700 340.8700
   341.3837 342.0915 342.0915 342.0915 342.0930 342.0930 342.2471 342.2471
   342.2471 342.3606 342.3606 342.3606 342.8676 343.7934 343.7934 343.7934
   343.8037 343.8037 343.8037 343.8089 343.8501 343.8501 343.8555 343.8555
   343.8555 345.0989 345.0989 345.0989 345.1103 345.1103 345.3880 345.3880
   345.3880 345.6249 345.6249 345.6249 345.8735 349.8136 349.8136 349.8198
   349.8198 349.8198 349.8296 349.8296 349.8296 349.9011 349.9011 349.9011
   350.2652 351.7663 351.7663 351.7663 351.7803 351.7803 351.7803 351.7835
   351.7944 351.7944 351.8009 351.8009 351.8009 363.7332 363.7332 363.7332
   365.0225 365.0225 365.7919 366.1929 366.1929 366.1929 366.3815 366.3815
   366.3815 366.6990 366.6990 366.6990 366.8916 366.8916 366.8916 367.5966
   367.5966 367.6876 367.6876 367.6876 367.8079 368.6823 368.7650 368.7650
   368.7650 369.6603 369.6603 370.1602 370.1602 370.1602 371.2356 371.7921
   371.7921 371.7921 373.2174 373.2174 373.2174 373.8868 373.8868 373.8868
   374.4780 374.4780 374.4780 375.0654 375.0654 375.4412 376.7576 376.7576
   376.7576 376.9000 376.9000 378.1106 378.1106 378.1106 378.2592 378.3187
   378.3187 380.0761 380.0761 380.0761 380.2608 380.2608 380.2608 380.6201
   380.6201 380.6201 380.9305 380.9305 381.1428 381.1428 381.1428 381.2683
   381.2683 381.8469 381.8469 381.8469 382.5954 382.5954 382.5954 382.6446
   382.8158 382.8158 382.8158 383.0979 383.0979 383.0979 383.2730 383.2730
   383.2730 383.3903 383.4669 383.4669 383.4669 383.8799 384.0641 384.0641
   384.0641 384.5943 384.5943 384.5943 384.6056 385.7990 385.7990 385.8941
   385.8941 385.8941 386.1862 386.1862 386.1862 386.3963 386.3963 386.3963
   386.5492 386.5492 386.5492 386.8500 386.8500 388.5637 388.5637 388.7404
   388.7404 388.7404 389.1569 389.1805 389.1805 389.1805 389.3343 389.3343
   389.3343 389.4022 389.4022 389.4022 389.6734 389.6734 389.6734 389.7391
   389.7391 389.9667 389.9667 389.9667 390.1055 398.2899 398.2899 398.2899
   398.4992 398.7469 398.7469 398.7469 399.1209 406.6873 406.6873 406.7102
   406.7102 406.7102 406.7538 406.7538 406.7538 406.7785 406.7785 406.7785
   406.8436 406.8436 406.8457 406.8457 406.8457 413.2830 413.2830 413.2830
   413.7340 413.7340 414.5738 414.9272 414.9272 415.2177 415.2177 415.2177
   415.3223 415.3223 415.3223 415.3658 415.3658 415.3658 415.4315 415.4315
   415.4315 415.5780 415.7382 415.7382 415.7382 420.1655 420.1655 420.1773
   420.1773 420.1773 420.2038 420.3609 420.3609 420.3609 420.3798 420.3798
   420.3798 420.4313 420.4313 420.4313 420.5100 420.5100 420.5100 421.2354
   421.2354 421.2829 421.2829 421.2829 421.3695 434.4359 434.4359 434.4359
   435.4864 435.4864 435.4864 435.9241 436.6669 437.7150 437.7150 437.9842
   437.9842 437.9842 438.0539 438.0539 438.0539 438.3369 438.3369 438.3369
   438.4038 438.4038 438.4038 438.5058 438.5058 442.8392 442.8392 442.8392
   443.6320 443.6320 443.6320 443.6371 443.6371 443.6671 443.8318 443.8318
   443.8318 448.0252 448.1491 448.1491 448.1491 448.6050 448.6050 448.6050
   449.8488 449.8488 449.8688 449.8688 449.8688 450.0524 450.7444 450.7444
   450.7444 451.5847 451.5847 451.5847 451.9812 453.7339 453.7339 453.9525
   453.9525 453.9525 454.6315 454.6315 454.6315 454.7668 454.7668 454.9325
   454.9325 454.9325 455.0935 455.0935 455.0935 455.6023 456.1792 456.1792
   456.1792 456.3513 456.5236 456.5236 456.5236 458.4714 458.4714 458.5866
   458.5866 458.5866 458.6428 458.6428 458.6537 458.6537 458.6537 458.6571
   458.6571 458.6571 458.7301 458.7301 458.7301 459.7454 459.7454 459.7458
   459.7777 459.7777 459.7777 461.2378 461.3378 461.3378 461.3378 461.4220
   461.4220 461.4220 461.4976 461.4976 461.4976 461.5012 461.5012 464.0264
   464.0264 464.0264 464.0483 464.0483 464.0483 464.0566 464.0566 464.0663
   464.0663 464.0663 464.1518 470.6075 470.6075 470.7490 470.7490 470.7490
   471.5106 472.4959 472.4959 472.4959 472.5871 472.5871 472.5871 473.0285
   473.0285 473.0935 473.0935 473.0935 473.9490 475.3965 475.5234 475.5234
   475.5234 475.5973 475.5973 475.5973 475.6706 475.6706 475.6706 475.6941
   475.6941 477.3051 477.3051 477.3051 477.6846 477.6846 477.6846 477.8598
   477.8598 477.8598 478.2187 478.4385 478.4385 479.6290 479.6290 479.6290
   480.0617 480.0617 480.0617 480.0915 480.0915 480.0915 480.3673 480.3673
   480.3673 480.7339 480.7339 480.7355 480.7355 480.7355 480.8458 480.8458
   480.8458 480.9308 480.9308 480.9308 480.9987 482.7672 482.7672 482.7989
   482.7989 482.7989 482.8568 488.7428 488.7428 488.7428 489.0621 489.0621
   489.0621 489.3519 489.3738 489.3738 489.7258 490.4791 490.4791 490.4791
   490.6431 490.6431 490.6431 491.4266 491.4266 491.4266 491.7863 491.7863
   491.7863 492.0289 492.0289 492.3437 492.3437 492.3437 492.3567 492.3567
   492.6871 492.6871 492.6871 492.7233 492.8814 492.8814 492.8814 493.3274
   493.6747 493.6747 493.6747 494.1328 494.1328 494.1765 494.1765 494.1765
   494.3550 494.3550 494.3550 494.3581 494.3581 494.3581 494.5459 494.5459
   494.5459 494.7400 494.7474 495.2032 495.2032 495.2297 495.2297 495.2297

          k =-0.2500 0.2500-0.2500 (  2439 PWs)   bands (ev):

   -97.0262 -58.5143 -58.5142 -58.5142  -5.3624   2.5087   5.4058   5.4058
     8.4528  10.7778  10.7778  12.2796  14.2238  14.2238  15.2678  18.2323
    20.9450  20.9450  24.1251  24.1315  24.1315  25.2499  31.0874  31.0874
    32.5181  32.5181  33.4294  33.9237  36.4849  36.6591  36.6591  39.6041
    39.6041  40.2530  40.2530  41.7247  42.5802  42.5803  42.6986  43.0718
    45.5746  45.5746  46.0368  47.1429  47.6059  47.6059  48.8542  51.8439
    51.8439  52.7126  52.7126  53.6773  54.0798  54.0798  55.4932  56.1979
    59.3794  59.3794  59.7089  60.1949  60.1949  62.4725  62.4725  62.8865
    64.1007  65.3520  65.3520  68.1075  69.8716  69.9406  69.9406  73.2361
    73.2361  74.5704  75.2027  76.6717  76.6717  77.5616  78.5632  78.7918
    78.7918  80.3392  80.3392  81.3080  81.5660  81.5660  83.7429  83.7429
    83.9271  83.9826  85.1522  85.1522  85.5812  87.2089  87.2089  88.4336
    88.4725  88.4725  89.1995  89.8861  89.8861  90.3951  91.7280  91.7280
    93.2621  94.7953  94.7953  95.9068  95.9068  96.2086  97.0480  97.0480
    97.4689  97.5178  97.5178  98.2520  98.6111 100.3435 100.3435 101.5494
   102.7105 102.7105 102.8653 104.4702 104.6625 104.6625 105.3761 105.8712
   106.1473 106.1473 107.1543 107.1543 107.6885 109.0688 109.0688 110.1135
   110.1135 110.4483 111.8126 111.8126 111.8731 113.5325 114.0553 114.0553
   114.2745 115.5929 116.1793 116.1793 116.4863 116.6315 116.6315 118.9127
   119.1424 119.1424 122.3335 122.3335 123.5881 125.5466 125.5466 126.4912
   127.7492 127.7492 129.0665 129.0665 129.0868 130.9954 131.3282 131.3282
   133.0062 133.6087 133.6087 134.4197 134.9552 134.9552 135.3221 136.5629
   136.5629 137.1327 137.3289 137.3289 137.7161 138.2523 138.2523 140.0979
   140.1538 140.1538 140.5605 141.6701 141.6701 142.1118 142.2705 143.1117
   143.9307 143.9307 145.5805 145.5805 145.8115 146.8666 146.8666 148.0004
   148.4225 149.2600 149.2600 150.7773 150.7773 151.2988 152.3367 152.3367
   152.4875 154.0814 154.0814 154.6450 154.8358 154.8358 156.0662 156.9418
   157.0085 157.0085 158.0057 158.0057 159.2850 159.2850 159.6988 160.2624
   160.3667 160.3667 161.0283 161.5656 161.5656 162.1332 162.6524 162.9662
   162.9662 164.2662 164.2662 164.3362 164.8551 164.8551 164.9559 165.2000
   166.1253 166.1253 167.2520 168.0794 168.0794 168.8164 168.8164 170.9426
   170.9426 171.1005 171.3493 171.3499 171.3499 172.4545 172.7945 172.7945
   173.8815 174.3821 174.3821 174.6951 174.6951 174.7830 175.5392 175.5392
   175.7460 176.2214 176.8835 177.5954 177.5954 177.8778 177.8778 179.2558
   179.7032 179.7032 180.4374 180.4374 180.8287 180.8287 181.0264 182.1803
   182.4425 183.8258 183.8258 184.7726 186.4098 186.7858 186.7858 188.1218
   188.1218 188.4728 189.2879 189.4624 189.4624 189.8287 189.8287 190.0141
   191.5878 191.5878 191.8569 192.5806 192.6091 192.6091 194.3419 195.3238
   195.3238 197.2411 198.1382 198.1382 198.5014 198.5014 198.8724 200.0155
   200.0155 201.2943 202.0943 202.0943 202.4441 202.9079 203.5318 203.5318
   204.0603 204.0603 204.4490 205.7200 206.2290 206.2290 208.0852 208.1516
   208.1516 209.0858 209.0858 209.2002 209.9999 209.9999 210.4969 212.3922
   212.7420 212.7420 213.6290 214.6347 214.6347 214.7804 215.2764 215.5315
   215.5315 216.4281 217.0390 217.0390 217.7411 217.7411 218.2127 218.2696
   218.2696 218.8018 218.8731 218.8731 219.6301 220.3921 220.3921 220.8038
   222.1278 222.1278 222.2400 222.8366 223.1125 223.1125 223.4702 223.4702
   224.8726 225.8807 225.8807 226.3871 226.3871 227.5671 227.7814 228.5960
   228.5960 228.8995 228.8995 230.2429 230.9264 231.4672 231.4672 233.2392
   236.0320 236.0681 236.0681 236.2457 236.2457 236.2599 236.7617 236.7617
   236.9159 238.2259 238.7899 238.7899 240.5197 240.8802 240.8802 241.2673
   241.2673 242.5346 242.8736 242.8736 243.1775 243.4215 243.4387 243.4387
   243.5292 243.5292 244.2464 244.2464 244.2643 244.5833 244.8969 244.8969
   245.5307 246.0953 246.0953 246.1505 246.1505 246.2308 246.7250 246.9354
   247.0390 247.0390 248.1632 248.1632 248.8436 248.9693 248.9693 249.6465
   249.7690 249.7690 250.7421 250.8522 251.2482 251.2482 251.6345 252.0580
   252.0580 253.1696 253.1696 253.5957 253.7006 253.7006 254.1761 255.9277
   256.0331 256.0331 256.6280 256.6280 256.8741 257.7298 257.7298 258.5310
   259.3291 259.4394 259.4394 259.5547 259.5547 259.6298 261.5755 261.5755
   261.5985 262.0724 262.0724 262.3932 262.8387 262.8613 262.8613 262.9972
   263.1010 263.1010 264.0631 264.7130 264.7130 265.4739 265.9923 266.0738
   266.0738 266.2553 266.2553 266.3799 269.9885 270.2527 270.2527 271.4729
   271.4729 272.1945 272.6570 272.6570 273.7120 273.8359 273.8359 273.8621
   274.2993 274.2993 274.7148 275.0521 275.0521 275.4610 277.3769 278.4223
   278.4223 278.8052 278.9336 278.9336 279.3978 279.3978 279.6087 280.6059
   280.6059 280.6192 281.6077 281.6077 281.9809 282.0482 282.0482 282.3017
   282.9982 282.9982 284.2446 284.2446 284.7115 284.7115 286.5913 286.6104
   286.8276 287.1506 287.1744 287.1744 288.3025 288.3025 289.0468 290.8682
   290.8682 291.1895 291.2903 291.2903 291.8043 291.8783 291.8783 292.0693
   292.2422 292.2422 292.6895 293.5473 293.5473 294.8767 294.8767 295.0496
   295.6577 295.7688 295.7688 297.5460 298.1099 298.1099 298.5077 300.2266
   300.2266 300.3648 300.3890 300.3890 300.8588 300.9938 301.3809 301.3809
   301.6552 301.6552 301.7910 302.4056 302.4056 302.8298 303.1871 303.1871
   303.9194 304.4257 304.4257 308.2382 308.7844 308.7844 309.9316 310.1829
   310.1829 310.9028 311.1621 311.3217 311.3217 311.7042 311.7042 311.7247
   311.9980 311.9980 312.4890 315.1520 315.1520 315.4233 315.6386 315.6520
   315.6520 316.7116 316.7116 317.5506 318.0197 318.0197 318.2053 319.6528
   319.7791 319.7791 320.0187 320.0187 320.0823 320.7587 320.7587 320.8238
   321.6218 321.6218 322.0483 322.1779 322.7574 322.7574 323.0778 323.0778
   323.3543 326.0373 326.2868 326.2868 326.5351 326.5351 327.0615 327.8409
   327.8788 327.8788 328.1259 329.2740 329.2740 329.5299 329.9646 329.9646
   330.7224 331.0186 331.0186 331.2783 331.2783 331.3658 332.7155 332.7155
   332.7652 334.2623 334.6071 335.8107 335.8107 337.5865 337.5865 337.6893
   338.1270 338.1270 338.3289 338.3340 338.3340 339.7421 340.1053 340.1053
   340.2960 340.2980 340.3772 340.3772 340.6971 340.7094 340.7577 340.7577
   341.2046 341.2046 343.2447 343.3546 343.3546 343.6310 343.6310 343.7774
   346.1842 346.1842 346.5820 346.9040 346.9040 347.4181 347.4181 347.8902
   347.9454 347.9454 348.2187 348.2187 348.3613 348.7260 348.7260 348.8900
   349.2085 349.4250 349.4423 349.4423 349.5538 350.0260 350.0260 350.3215
   350.7603 350.7603 351.5754 351.5755 351.6101 352.7236 352.7899 352.7899
   352.9250 352.9250 353.2184 354.4707 354.6312 354.6312 355.2454 355.2454
   355.5399 356.3966 356.3966 356.4600 356.6718 357.0107 357.0107 357.3810
   357.3810 357.4309 357.6736 358.1355 358.1355 358.3720 358.3720 358.3885
   359.4161 359.4161 359.5201 359.5587 359.6687 359.6687 359.9860 359.9860
   360.5425 362.4754 362.4754 362.8398 363.3281 364.1074 364.2123 364.2123
   365.0527 365.0527 365.1298 366.2874 366.2874 366.3510 366.4668 366.4668
   366.7055 367.5261 367.6574 367.6574 370.4492 370.4492 370.9472 370.9472
   370.9525 370.9737 371.5114 371.5114 371.6274 371.6274 371.7973 373.2641
   373.2641 373.7650 374.7837 375.1108 375.1108 375.2607 375.3214 375.3214
   375.6001 375.6001 375.7438 375.7937 375.7937 376.0130 376.6920 377.2102
   377.2102 377.2174 377.3510 377.3510 377.5138 380.9523 381.0296 381.0296
   381.4854 381.4854 381.5994 382.5406 382.5406 382.8130 383.5446 383.5446
   383.6915 383.6915 383.8730 384.2262 385.3490 385.4579 385.4579 386.6198
   386.6198 387.0396 387.7328 387.9262 387.9262 389.0204 389.0204 389.6054
   390.1968 390.5135 390.5135 390.9510 390.9510 391.0079 391.7016 391.7016
   391.7895 392.7705 392.7705 392.8708 393.7930 393.7930 393.8835 394.3276
   394.3276 394.6065 395.0740 395.0816 395.0816 395.9695 395.9695 396.2446
   396.5366 396.5942 396.5942 398.4279 398.4279 398.4528 398.4630 398.6057
   398.6058 399.1000 399.1774 399.1774 399.3949 400.0955 400.0955 400.3457
   401.6760 401.9698 401.9698 402.0131 402.0131 402.8612 402.8687 402.8687
   403.3483 403.3483 403.3750 403.5221 403.5221 403.6173 404.3316 404.3803
   404.3803 404.7362 405.3624 405.3624 405.4455 406.2327 406.2327 407.9577
   408.8622 409.2804 409.2804 409.8195 409.8195 409.8546 409.8553 410.1364
   410.1364 411.4196 411.4196 411.7555 411.8040 411.8040 412.0083 412.0854
   412.0854 413.4442 415.9972 415.9972 416.1204 416.1204 416.8536 417.0471
   417.0471 417.0520 417.9857 418.1207 418.8299 418.8299 420.3871 420.3871
   420.4816 420.4876 420.4876 420.6491 420.7554 420.7554 421.9067 421.9067
   422.2065 423.3079 423.3079 423.9897 424.7693 424.7693 424.8221 426.8200
   426.8200 427.2099 429.2666 429.2870 429.2870 431.5081 431.5081 431.8793
   432.7100 432.7100 432.8783 432.8824 432.8824 432.9045 433.6628 433.6628
   433.8038 434.0572 434.0572 434.5002 434.5890 434.5890 435.1503 435.6157
   436.3852 436.3852 436.3909 437.0617 437.0617 437.2470 437.5651 437.7544
   437.7544 438.0619 438.0619 438.2769 439.6151 439.6151 439.6184 442.3678
   442.3678 442.6358 442.8894 442.8894 443.2776 443.6559 443.6559 443.7268
   443.8565 443.8567 443.8567 444.6243 444.6243 444.8161 444.9993 444.9993
   445.2353 445.2353 445.2824 446.0127 446.2846 446.2846 446.7554 446.7554
   446.7975 447.4213 447.4213 447.7506 449.1692 449.1692 449.5472 450.0259
   450.0449 450.0449 450.7332 450.9375 450.9375 451.0435 451.5609 451.5609
   451.8315 451.8315 451.8454 451.9277 452.0282 452.3886 452.3886 453.7780
   453.7780 454.1123 454.6322 454.6322 455.8648 455.8648 455.9075 457.2680
   458.0037 458.0037 458.0538 458.3360 458.3360 458.8977 459.3758 459.3758
   459.6020 459.7152 459.9434 459.9434 460.3873 460.4330 460.4330 460.5586
   460.5586 460.6303 461.7515 461.7515 461.7533 462.9906 462.9976 462.9976
   463.0959 463.0959 463.1594 463.4428 463.4698 463.4698 463.9310 463.9310
   464.4884 465.7937 466.1102 466.1102 466.7209 466.7587 466.7587 466.8316
   466.8316 466.9264 468.6457 468.6513 468.6513 468.6956 468.6956 468.7702
   469.1972 469.2506 469.2506 470.9673 470.9673 471.0789 473.2245 473.6790
   473.6790 474.1825 474.4599 474.4599 474.4875 474.5566 474.5566 474.6958
   475.6874 475.6874 476.3712 476.3712 476.4821 476.7405 476.7405 476.8813
   476.9261 476.9964 476.9964 477.3135 477.3135 477.4775 477.6348 477.7576
   477.7576 478.1065 478.1065 478.2420 478.3192 478.5145 478.5145 480.3993
   481.4933 481.4933 481.6119 482.3257 482.3257 482.5283 483.0719 483.0719
   483.1652 483.1860 483.2110 483.2110 483.4847 483.4847 484.0337 484.0337
   484.1668 484.2941 484.2941 484.4459 486.8155 486.8334 486.8334 487.0068
   487.0068 487.0892 488.3813 488.4371 488.4371 488.7390 488.7390 488.8092
   488.8660 489.1290 489.1441 489.1441 489.3115 489.3115 489.3364 490.4519
   490.4519 490.7058 490.7058 491.2792 491.9708 492.7684 493.4901 493.4901
   493.9130 494.7740 494.8586 494.8586 495.0623 495.0623 497.6159 497.6159
   497.8505 498.1472 498.1472 498.8818 498.8818 498.9684 498.9684 499.1259
   499.2851 499.6749 499.6749 499.7507 499.9828 499.9828 500.2689 500.3550
   500.3550 500.4071 500.5355 500.5355 500.8057 501.1172 501.4466 501.4466

          k = 0.5000-0.5000 0.5000 (  2452 PWs)   bands (ev):

   -97.0267 -58.5144 -58.5142 -58.5142  -4.5313   0.3448   5.0609   5.0609
     7.9851  10.5598  10.5598  13.6192  16.9984  17.4753  17.4753  18.0087
    18.0087  18.8796  25.5586  26.0357  27.5457  27.5457  28.1027  28.1027
    31.3843  32.2610  32.2610  32.7328  33.4146  33.4146  34.8682  38.0596
    38.0596  38.3012  38.3012  38.8931  40.0527  40.9171  45.4757  45.4757
    45.6562  46.5500  46.5500  47.6011  50.9522  50.9522  53.7468  53.7468
    53.7878  55.1976  55.6226  55.6226  56.8987  56.8987  56.9036  58.5956
    58.5956  61.1466  61.5934  61.5934  62.9715  62.9715  63.2743  64.7996
    64.7996  65.2871  65.9217  66.1801  68.1589  68.1589  68.5314  68.9641
    68.9641  70.2494  71.6932  72.5731  72.5731  73.9225  73.9225  74.8618
    76.2621  76.2621  76.6979  81.4809  81.4809  82.5505  83.3846  83.8724
    83.8724  84.5544  85.0282  85.0282  85.8950  88.1710  88.1710  89.1931
    89.9195  89.9195  90.2568  90.2568  90.2681  90.8713  92.1153  92.9117
    92.9511  92.9511  92.9689  92.9689  94.2109  96.0107  96.0107  97.7607
    99.7145  99.7145 100.8822 101.6854 101.6854 102.0422 102.0422 102.4268
   102.9052 103.3748 104.0809 104.0809 104.1711 104.4776 104.4776 105.8961
   105.9292 105.9292 106.9274 106.9274 107.5734 111.9945 111.9945 112.0283
   112.3747 112.3747 112.5452 113.5615 113.5615 114.3845 114.3845 114.4230
   117.1892 117.1892 118.2444 119.0529 119.0529 119.8037 119.8037 121.0272
   121.8272 121.8361 121.8422 124.1969 124.1969 124.6846 124.6846 125.1130
   125.1130 126.0094 127.0008 127.0008 127.5768 127.5768 127.6727 128.5401
   129.3708 130.3992 130.3992 133.2391 135.0881 135.8830 135.8830 136.8895
   136.9824 136.9824 137.7067 137.7067 137.9104 138.3274 138.4766 139.4940
   139.4940 141.2152 141.8717 141.8717 142.5456 142.5456 143.3395 143.5646
   143.5646 144.8006 146.2481 146.2481 146.4302 146.7338 146.7693 146.7693
   147.1456 147.1456 148.1375 148.1375 148.8695 149.0978 149.0978 149.2374
   150.2485 150.2485 151.8407 152.3888 152.3888 152.9940 153.0787 153.0787
   154.0956 154.8069 155.4567 155.4567 156.1519 156.8242 156.8242 157.1508
   157.1508 158.4081 158.4081 158.8894 159.8757 159.8757 159.9786 163.0618
   163.5867 163.8856 163.8856 165.1713 166.5644 166.7105 166.7105 167.4536
   167.4899 167.4899 167.6480 167.8193 167.8193 168.6403 168.7318 168.7318
   170.2985 170.2985 170.6548 170.6548 170.7328 171.4518 171.4891 174.2840
   174.2840 175.0575 175.8298 175.8298 177.2249 177.5315 177.9253 177.9253
   178.2878 178.2878 178.9023 178.9023 179.1091 179.1091 179.2365 179.4203
   179.9419 182.3455 182.3455 184.5843 184.5843 184.9851 187.3207 187.3207
   189.1872 189.7663 189.7663 189.9699 191.2231 191.2231 191.7714 191.7714
   191.9047 192.5497 193.4547 193.4547 193.4781 193.7785 193.7785 194.0864
   194.4211 194.4347 195.8198 195.8478 195.8478 196.7573 196.8205 196.8205
   198.0475 198.0475 198.3070 198.3070 199.8420 199.8420 200.1462 200.1805
   200.1805 200.4057 200.8260 200.8260 201.5397 201.7869 201.7869 201.9718
   203.7563 203.7563 203.7978 203.7978 204.2292 204.4829 204.8634 204.8634
   204.9255 204.9255 205.6938 205.8729 205.8769 207.5961 208.5321 208.5321
   210.9671 211.1552 211.1552 211.3214 213.8203 213.8203 214.4827 214.4827
   214.6165 215.0344 215.0344 215.3652 215.3652 215.8418 217.9815 217.9815
   217.9967 218.6857 218.6857 219.2218 219.2788 219.2788 219.3685 219.6965
   219.6965 219.9678 220.9140 220.9140 221.2074 221.7279 221.7279 221.9513
   223.9685 223.9685 224.0636 224.0636 224.1123 224.2831 225.0154 225.0154
   226.0821 227.8627 228.1022 228.1022 229.0966 229.5047 229.5047 230.0230
   230.1736 230.1736 230.8913 230.8913 231.3544 231.3544 231.4646 231.8488
   235.3334 235.7212 235.7212 236.3108 236.5998 236.5998 236.9522 237.9995
   238.0554 238.4891 238.4891 239.3827 239.3827 240.0219 240.4754 240.9987
   240.9987 241.2987 241.2987 241.6132 243.9763 243.9763 244.2986 244.2986
   246.1068 246.6088 246.6088 247.7625 248.0065 248.0065 249.1763 249.5775
   249.5775 249.8122 250.0199 250.1893 250.1893 250.7560 250.8391 250.8391
   250.9135 251.3220 251.3220 251.3807 253.5197 253.5197 253.5497 253.5497
   255.8693 256.1813 256.1813 257.1373 257.1373 257.1641 257.4338 257.4338
   257.5642 257.7807 257.7807 258.1166 258.9566 258.9566 259.7029 259.7040
   259.7040 259.8624 260.3807 262.8912 262.8912 263.0256 263.2385 263.2385
   263.3049 263.3049 263.7324 263.7709 263.7709 263.8704 266.4779 267.2146
   267.2146 267.9442 267.9442 268.2248 268.2645 268.2645 268.5570 268.5570
   269.3318 269.4279 271.6880 272.0852 272.0852 272.7173 272.7173 272.9195
   273.8242 273.8519 274.1049 274.1049 274.2757 274.2757 274.4494 274.7500
   276.5163 276.5163 276.5754 276.5754 277.3040 277.3604 278.1013 278.1013
   278.1626 278.1626 278.6950 278.9743 281.1458 281.1458 282.3721 282.3768
   282.3768 282.9938 284.1526 284.2668 284.2668 284.3827 284.3827 284.4370
   287.2892 287.2892 287.2928 287.2928 287.3690 287.4198 288.7340 288.7891
   288.7891 288.9507 288.9507 289.0035 289.2589 289.2589 289.3359 289.3370
   289.3370 289.4711 290.4560 290.8642 291.1607 291.1607 291.2067 291.2067
   291.5420 291.7715 291.7715 291.9341 291.9341 292.2402 293.8983 293.8983
   294.3638 294.3638 295.0518 295.1025 295.1419 295.4812 295.7575 295.7575
   295.9667 295.9667 297.3715 297.3715 297.4506 297.4506 297.6451 297.7302
   301.4530 301.4530 301.8223 301.9494 301.9494 301.9883 302.0603 303.5742
   305.7076 305.7076 305.9724 305.9724 306.2277 306.3334 308.2037 308.2037
   308.2526 308.2526 312.3337 312.3337 313.8201 313.8201 313.8637 314.0769
   314.1590 314.1590 314.2008 314.2008 314.5722 314.8768 314.8768 314.8997
   314.8997 314.9779 314.9859 315.0167 316.0247 316.0247 316.0353 316.0353
   317.5683 317.5754 318.0769 319.4226 319.6026 319.6026 321.2804 321.2804
   321.7220 321.7689 321.8784 321.8784 322.0302 322.0302 322.1623 322.6563
   322.6563 323.2874 323.2874 323.6400 326.4775 326.4775 326.5099 326.5099
   326.8001 326.8849 328.2773 328.2773 328.5185 328.6963 328.6963 328.7218
   328.8075 330.3770 331.5532 331.8197 331.8197 332.0657 332.0657 332.1868
   333.5964 334.0380 334.0380 334.7200 334.7200 335.2810 335.8291 335.8291
   335.9202 335.9202 335.9992 335.9992 336.5753 336.5753 336.7224 337.8001
   338.1226 338.5181 339.2530 339.2530 339.5301 339.5301 340.2426 340.2426
   340.3033 340.3816 340.4602 340.4602 342.6496 342.7308 342.7308 342.7614
   342.7614 342.9419 343.6946 343.6946 343.8258 343.8258 344.1706 344.6089
   344.7673 344.8389 345.0393 345.0393 345.0860 345.0860 346.9196 346.9196
   346.9811 346.9811 346.9955 347.1095 349.1515 349.1515 349.4231 349.5744
   349.5744 349.7188 352.1270 352.2690 352.2690 352.6470 352.6470 352.9542
   353.5401 353.8395 353.8395 354.2225 354.2225 354.3702 356.3101 356.5766
   356.5766 356.6808 356.9069 356.9069 357.0769 357.6040 357.6040 357.7207
   357.7207 357.7495 357.7613 357.8330 357.8330 357.8981 357.8981 358.2283
   362.2684 362.2684 362.6172 362.6618 362.6618 362.6975 363.3893 363.3893
   363.4081 363.4081 363.4853 363.4901 363.8825 364.2087 364.2650 364.2650
   364.4686 364.4686 364.5997 364.6216 367.0692 367.0692 367.1268 367.1268
   368.5981 368.9955 368.9955 369.0511 369.0511 369.3775 369.5256 369.8115
   369.8115 369.8552 369.9326 369.9326 370.2443 370.2443 370.2633 370.2633
   370.3160 370.3232 373.5846 373.5948 373.5948 373.6747 373.7957 373.8547
   373.8547 374.7774 380.1507 380.1507 380.3757 380.3757 380.5496 380.6592
   380.6592 380.6866 380.7840 380.7840 380.8766 381.7917 382.5250 382.5250
   382.5379 382.5379 385.6671 385.6671 386.4353 386.4739 386.4739 386.6751
   387.1890 387.7772 387.7772 387.8513 387.8513 388.7392 388.7983 388.7983
   388.9703 388.9703 389.0279 389.1815 389.1815 389.1976 389.2809 389.2809
   389.3325 389.4403 389.5519 389.5519 389.6547 389.6547 389.8767 390.3282
   391.6996 391.7253 391.7253 391.8203 391.8203 391.8991 395.7226 395.7226
   395.8229 395.9785 395.9785 396.2298 399.2465 399.2656 399.2966 399.2966
   399.3133 399.3133 400.7105 400.7105 400.7238 400.7676 400.7676 400.9455
   401.6241 401.9221 401.9221 401.9990 401.9990 402.0930 403.0045 403.4789
   403.4789 403.5788 403.5788 403.8371 404.2096 404.2096 404.2906 404.2906
   404.3509 404.4292 404.6669 404.7020 404.7020 404.8013 404.8013 404.8514
   408.4583 408.4583 408.4787 408.4787 408.8638 408.8682 412.3043 413.1365
   414.2600 414.2600 414.5282 414.8068 414.8068 415.1268 415.9343 415.9343
   416.1114 416.1114 416.7712 416.8802 416.9911 417.1168 417.2326 417.2326
   417.2958 417.2958 418.1291 418.1291 418.1721 418.1721 419.2895 419.5795
   420.0329 420.0329 420.3024 420.3919 420.3919 420.4419 421.8908 421.8908
   422.0064 422.0064 422.4058 422.6967 423.6420 423.6420 423.8132 423.9268
   423.9268 424.0782 425.3967 425.4197 426.0662 426.0662 426.0868 426.0868
   426.8007 426.8949 426.8949 426.9615 426.9615 427.2883 427.5565 427.5565
   427.5658 427.5658 427.9066 427.9205 428.9717 429.0146 429.0146 429.0206
   429.0207 429.0207 429.1337 429.1337 429.1676 429.1676 429.2198 429.2706
   434.3464 434.3885 434.3885 434.5231 434.5231 434.7054 436.2906 436.2906
   436.3408 436.3408 436.9040 436.9830 437.0535 437.0535 437.1582 437.1749
   437.4220 437.4220 437.4852 437.6097 437.6097 437.6457 437.6457 437.7268
   441.7912 442.1685 442.7587 442.7587 442.9449 442.9449 442.9936 443.1157
   443.3362 443.3959 443.3959 443.7323 443.8205 443.8205 445.4409 445.4409
   445.4894 445.4894 445.7306 445.8126 445.8126 445.9600 445.9600 446.0095
   446.9351 447.0558 447.0558 447.2862 447.2862 447.3892 448.0406 448.1982
   448.1982 448.4425 448.4425 448.7340 450.7737 450.9998 450.9998 451.3701
   451.3701 451.9705 452.4147 452.4147 452.4311 452.4311 452.7796 453.2972
   453.2972 453.4063 453.5059 453.5442 453.5442 453.7908 454.0832 454.0979
   454.0979 454.1703 454.1703 454.2443 454.4414 454.4992 456.7331 456.7331
   456.7709 456.7709 459.6273 459.6273 459.6283 459.6283 460.5550 460.5555
   461.2732 461.2732 461.3426 461.3460 461.3460 461.4211 463.8124 463.8124
   463.8207 463.8208 463.8208 463.8387 469.0042 469.0042 469.1947 469.5373
   469.5373 469.9298 471.6115 471.7602 471.7602 472.0288 472.0288 472.1619
   472.4535 472.5213 472.5213 472.6228 472.6228 472.7370 472.9992 472.9992
   473.0124 473.0219 473.0690 473.0690 473.2026 473.2122 473.2122 473.5363
   473.5363 473.6629 474.5724 474.7400 474.7400 475.0378 475.0378 475.1632
   475.9792 476.1020 477.6237 477.6424 477.6424 477.9019 477.9019 478.0569
   478.1426 478.1426 478.3004 478.5223 478.5223 478.6057 478.6057 478.6126
   478.8516 478.8619 478.8805 478.8805 478.9458 478.9458 479.2113 479.3121
   479.3121 479.7322 479.8309 479.9507 479.9507 480.0903 480.0903 480.0942
   484.5998 484.5998 484.6187 484.6187 484.8623 484.8715 485.0162 485.0162
   485.0232 485.0232 485.7023 485.7023 485.7436 485.7436 485.7616 485.7650
   486.0813 486.1311 486.1311 486.1877 486.1877 486.2054 489.4878 489.5457
   489.5457 489.7583 489.7583 490.0357 494.2848 494.2848 494.3119 494.3149
   494.3149 494.3285 498.1661 498.1661 498.2798 498.2900 498.2900 498.3646
   498.5203 498.5203 498.5537 498.5537 498.6107 498.6413 500.7670 501.0304
   501.0304 501.2095 501.2095 501.2867 501.2867 501.3605 501.3605 501.4242
   501.4276 501.4764 507.9979 508.0996 508.0996 508.2686 508.2686 508.6012

          k = 0.0000 0.5000 0.0000 (  2429 PWs)   bands (ev):

   -97.0260 -58.5143 -58.5142 -58.5142  -5.1652   2.6740   4.5488   4.5488
     8.4575   9.6351  12.6895  12.6895  13.2849  16.0502  18.0959  19.2145
    19.2145  19.7911  23.6695  23.6695  24.8745  25.7700  27.1219  31.3424
    32.6597  32.6597  33.1279  34.8115  34.8115  35.0075  36.9269  39.6676
    40.4417  40.7027  40.7027  42.0512  42.0512  43.3675  44.0949  44.0949
    44.5363  44.7495  45.3648  47.4235  47.5985  47.5985  49.9974  52.0052
    52.0052  52.2802  52.2985  53.4968  53.4968  53.7959  54.3143  56.2782
    58.6371  59.7557  59.7557  62.7876  64.3472  64.3472  64.9993  65.0669
    66.3273  66.3273  66.5815  69.4907  70.1936  70.1936  70.6704  71.3044
    71.9286  72.1363  72.2791  72.2791  74.5522  74.5522  75.5159  75.5243
    76.8224  78.6497  78.6497  79.5249  80.8264  81.9359  81.9359  83.3191
    85.4601  86.4486  86.4486  86.9156  87.8507  87.8507  87.8599  88.1368
    90.0748  90.2435  90.2435  90.2606  91.4474  91.4474  91.7214  92.6215
    93.5415  94.0910  94.9601  94.9601  95.8148  96.5514  96.6933  96.6933
    97.7239  97.8396  97.9416  98.1392  98.1392  99.3187  99.4669 100.6946
   100.7517 100.7517 101.9062 101.9062 102.3629 102.6975 102.6975 103.1903
   104.9081 107.7837 108.6528 108.6528 109.6495 110.1623 110.1623 111.4023
   111.4510 112.9316 113.0993 114.7061 114.7061 115.4636 116.8140 116.8772
   116.8772 117.6140 117.6784 117.7624 118.0956 118.0956 119.6788 119.6788
   120.1126 121.1142 123.3844 123.3844 123.3907 124.8578 124.8578 125.9534
   126.7907 126.8065 127.1593 127.1593 127.4661 128.7437 128.7437 129.0497
   131.5632 132.1857 132.3322 132.3322 132.6959 133.6178 134.8281 135.8562
   135.8562 136.6368 136.9884 136.9884 137.5652 137.8471 138.7662 138.9384
   140.2841 140.9616 140.9616 141.4207 142.2975 142.4719 142.4719 143.3173
   143.7050 143.7050 144.7850 146.2498 146.4564 146.4564 146.8257 147.9649
   148.2111 148.2990 148.2990 149.3715 149.3715 149.4866 149.6230 151.4660
   151.5613 151.5613 154.3324 154.7251 154.7251 154.8835 155.0724 155.0724
   155.6764 156.8838 157.3144 157.3144 157.6739 157.7150 157.9685 158.5002
   158.7442 159.7909 159.7910 161.2277 161.2277 162.0111 162.9353 163.0234
   163.6606 163.6948 163.6948 164.4539 164.4539 164.8594 166.2247 166.2247
   168.1049 168.3322 169.2841 170.4567 170.5754 170.5754 170.6422 171.4538
   172.2782 172.2782 172.8125 172.8713 172.8713 173.1611 173.2830 173.5838
   173.5838 174.5400 175.4706 176.6670 176.6670 176.8229 177.6034 177.6034
   177.9644 178.8046 179.4784 180.4180 180.5366 180.5366 180.8614 180.9573
   180.9573 181.1964 181.6297 181.7648 181.7648 181.8563 182.6318 182.7925
   183.0429 183.0429 183.0709 183.2413 183.2413 184.0456 186.1890 186.7736
   186.8015 186.8015 187.2205 187.2205 187.2951 189.6041 190.2613 191.0858
   191.6405 192.1424 192.1424 192.2390 192.2716 192.2716 192.3678 192.7240
   195.5237 195.5237 195.7903 198.2117 198.2117 198.6050 198.8713 199.0580
   199.0941 199.2372 199.2372 200.5462 201.3151 202.4244 202.4244 202.5828
   203.3521 204.4909 204.4909 205.0507 205.3329 205.3329 205.3608 206.4804
   208.5273 208.5273 208.7653 210.4550 210.4550 210.5328 213.2354 213.3549
   213.3592 213.3592 213.5707 213.8805 213.9453 213.9453 214.3604 214.5092
   215.5885 215.5885 217.0878 217.0878 217.6808 218.0809 219.3332 219.6967
   219.6967 219.8526 220.1936 220.3673 221.5205 221.5205 222.5345 222.5345
   223.1762 223.7385 224.1671 224.5211 225.5733 225.9964 225.9964 226.6199
   227.9705 227.9705 227.9953 228.2375 228.6674 228.6674 229.5765 229.5765
   229.7200 229.7976 230.2518 231.0825 232.2605 232.4090 232.4090 234.1733
   234.1733 234.3090 234.6396 235.1353 235.1353 235.4889 235.6195 236.1581
   236.3249 236.4328 236.4328 236.9282 237.0558 237.0558 237.1457 237.5517
   237.8055 237.8055 238.0791 239.0520 239.2578 239.2578 239.4711 240.2289
   240.4222 240.4222 241.1197 241.8316 241.9226 241.9503 241.9503 242.9698
   242.9970 242.9970 243.1123 243.9477 244.2594 244.2594 244.5166 244.7617
   244.7617 244.9074 245.4275 247.8793 247.8793 247.9102 247.9742 248.4886
   249.1778 249.1778 249.4810 249.6755 249.6755 249.8208 250.7248 254.5768
   254.5768 255.0269 255.2120 255.5585 255.7389 255.8479 255.8479 256.3282
   257.4947 257.8250 257.8250 258.0756 258.2843 258.3954 258.3954 258.4837
   258.8208 259.9185 259.9185 260.1171 260.1744 261.3248 263.1860 263.1860
   263.2692 263.6019 264.0538 265.4616 265.4616 266.1430 266.1430 266.4773
   266.5130 266.5384 266.6287 266.6287 266.6455 267.5528 267.8371 268.4820
   268.4820 269.1770 269.1770 270.0822 270.6489 270.6489 270.9117 272.1693
   272.4284 272.4284 272.5848 272.9700 273.2312 273.8088 273.9222 273.9222
   274.4120 275.3239 275.3450 275.3450 275.4991 276.2207 276.2207 277.4000
   278.5684 278.6615 278.6615 279.2420 279.2420 279.3229 280.1838 280.6205
   282.4755 282.4755 282.7069 283.4727 283.9653 284.6123 284.6123 284.6763
   285.2214 285.5599 285.5599 285.9375 285.9639 285.9639 286.1034 286.5572
   286.7418 286.7418 286.8958 287.2266 287.6282 287.9393 287.9393 288.2721
   289.5537 291.7629 291.7629 291.9317 292.3331 292.3331 292.3985 292.6000
   292.6000 292.6337 292.6877 294.5269 294.6090 294.6556 294.6556 295.1463
   295.4240 296.3472 296.4127 296.4127 296.5113 296.5113 296.5288 297.1064
   297.9309 298.1365 298.1365 298.2287 299.2546 299.8387 299.8387 300.4432
   300.6126 300.9422 301.1209 301.1209 303.4753 304.1739 304.1739 304.8208
   305.0560 305.2925 305.2925 306.0486 309.0375 309.0375 310.2042 310.2687
   311.5639 311.8788 311.8788 312.2955 312.3026 312.5285 312.5285 312.7550
   314.7582 314.7583 315.7380 316.0696 316.8490 316.8490 316.8846 317.2843
   317.3992 317.5884 317.5884 317.8505 318.1249 318.3745 318.4143 318.4143
   318.7754 318.7754 318.8179 319.1430 320.2064 320.8906 320.8906 320.9797
   321.0745 321.0745 321.1846 321.9348 322.5045 322.6684 322.7014 322.7014
   322.9553 323.2669 323.2669 323.7421 324.6657 324.7352 324.7971 324.7971
   325.9939 326.0953 326.0953 326.1924 326.2694 326.2941 326.2941 326.4052
   328.8248 329.3126 330.2301 330.2301 330.5247 330.6885 331.2429 331.2429
   331.9965 332.2088 333.1338 333.2630 333.2630 333.5275 333.5464 334.3445
   334.3445 335.3152 337.4912 338.0422 338.0710 338.0710 338.6150 338.6150
   338.6525 340.1913 340.5258 340.5258 340.9318 341.0429 341.1877 341.2770
   341.6669 341.6669 341.7996 341.8566 342.9693 342.9693 342.9756 343.0460
   343.0460 344.3521 344.3521 344.4052 344.4207 344.6997 345.5089 345.5089
   345.5308 345.7606 347.0568 347.3044 347.3044 347.9847 348.3448 348.9387
   348.9387 348.9957 349.4679 349.5933 349.5933 349.9520 349.9520 350.1879
   350.3349 350.3349 350.3717 350.5033 350.6406 350.8057 350.8057 351.1691
   353.0379 353.0855 353.5012 353.5012 354.1256 354.5535 354.6922 354.6922
   355.4938 355.7034 356.4924 356.4924 356.8879 358.1913 358.1913 358.7555
   359.0930 359.4184 359.9611 360.0028 360.0028 363.7990 363.7990 363.8771
   364.1326 364.2827 365.3614 365.3614 365.5801 365.6920 366.2503 366.2503
   366.3013 366.5041 367.0410 367.1760 367.1760 367.5869 367.5869 367.6358
   367.8707 368.2751 368.2751 368.3752 368.4246 368.5194 368.5523 368.5523
   368.7106 368.8456 368.8456 368.8686 369.8217 369.8974 370.1404 370.1404
   370.4365 372.5028 373.3312 373.3312 373.5205 373.8984 373.9227 373.9227
   374.0107 374.3495 374.7237 374.9026 374.9026 374.9312 374.9920 375.0853
   375.1020 375.1020 375.3310 375.3310 375.3314 376.0356 376.0356 376.2086
   376.4491 378.3188 378.4599 378.4599 378.7417 379.1524 379.3676 379.3676
   379.4082 379.5153 379.6741 379.6741 379.7947 379.8104 379.8104 379.9858
   380.0658 380.2632 380.2632 380.2981 380.6022 381.6659 381.8053 381.8053
   381.9188 384.8493 384.8493 384.9888 385.1943 385.2272 385.4272 385.4272
   385.4615 387.7947 387.9152 387.9152 387.9588 388.0520 388.3300 388.3300
   388.7047 388.7957 388.8867 388.8867 388.9227 391.1010 391.2717 391.2717
   391.4112 397.1232 397.1232 397.1638 397.2645 399.4800 400.1674 400.1674
   400.3499 400.4176 400.5699 400.5699 400.9414 400.9562 400.9562 401.0791
   401.1941 401.7298 401.9436 401.9436 402.4243 403.5188 403.5188 403.5394
   403.5484 403.7683 404.1258 404.2314 404.2314 404.5980 404.6196 404.6196
   405.3153 405.8841 406.9157 406.9157 407.6302 408.4332 408.9231 408.9231
   409.2868 409.7595 410.4047 410.5090 410.5090 410.6972 410.6972 411.2452
   411.6360 413.1032 413.6023 414.2890 414.2890 414.6198 414.8981 414.9076
   414.9514 414.9514 414.9713 415.1688 415.1688 415.8508 415.9558 416.1222
   416.1222 416.3991 416.5178 416.7844 416.7844 416.9185 417.8282 418.1418
   419.0724 419.0724 419.9574 419.9574 420.1661 420.3605 420.8182 421.1076
   421.4978 421.5881 421.5881 421.8787 422.3184 422.3184 422.4906 423.0157
   423.0944 423.1538 423.1538 423.4060 423.5090 423.5090 423.5683 423.9219
   423.9219 423.9705 424.3370 424.8727 426.1797 426.2972 426.7921 426.7921
   427.2831 427.2831 427.7913 427.9119 427.9342 427.9342 427.9949 432.0935
   432.1141 432.1141 432.1844 432.4346 432.4346 432.4650 432.6630 433.3018
   433.4082 433.4371 433.4371 433.6990 433.6990 434.0535 434.0918 434.1159
   434.1159 434.3318 434.4579 434.4579 434.8194 435.8559 435.9886 436.0110
   436.0110 436.0370 436.2392 436.2392 436.4809 436.9143 439.0306 439.1507
   439.1507 439.4275 441.2538 441.3111 441.3111 441.4979 441.6600 441.6600
   441.7572 441.8494 442.1062 442.6316 442.6316 442.7500 444.2086 444.4038
   444.4038 444.4148 446.4327 448.6740 448.6740 449.0398 449.0448 449.6345
   449.6345 450.2871 450.4371 450.4371 451.1372 451.2237 451.6094 451.8388
   451.8388 452.8560 453.1342 453.8414 453.8414 454.1550 454.1997 454.5195
   454.5195 454.6312 456.6411 456.9678 456.9678 457.1099 457.1659 457.3568
   457.6065 457.6065 457.7927 458.2823 458.2823 458.2983 459.9437 460.0633
   460.1826 460.1826 460.8132 460.9186 460.9186 461.3867 462.2408 462.2727
   462.2727 462.3154 462.4253 462.4688 462.4688 462.5193 463.2712 463.4810
   463.4810 464.3860 465.6356 465.6356 465.7577 465.8819 466.5049 466.5049
   466.5529 466.6204 466.8677 467.0924 467.0924 467.3856 469.1619 469.2817
   469.2817 469.3753 469.7530 469.8352 469.8352 469.9188 470.3597 470.4299
   470.4299 470.4806 470.7733 470.9278 470.9278 470.9508 471.6365 471.6837
   471.6837 471.7308 472.4580 472.4940 472.4940 472.5301 474.0533 474.0533
   474.0628 474.3080 476.7209 476.7359 476.7359 477.1436 477.4074 478.1088
   478.1088 478.6540 479.0201 479.0867 479.0867 479.0888 480.2772 480.4123
   480.4123 480.5971 481.0369 481.1144 481.2353 481.2353 481.5335 481.8127
   481.8127 482.3404 482.5892 482.5892 482.6672 482.7672 483.9312 484.1487
   484.1487 484.5203 484.8045 484.8045 484.8534 485.0945 486.3919 486.7183
   486.7183 487.0027 488.2430 488.4355 488.4355 488.4745 488.6140 488.8708
   488.8708 489.2009 489.3262 489.3262 489.4165 489.4303 490.1692 490.1878
   490.1944 490.2179 490.2179 490.4070 490.4473 490.4473 490.4782 490.9117
   491.0744 491.0744 491.1397 491.1397 491.3049 491.4907 491.6693 491.6707
   491.6707 491.7688 493.1401 493.2210 493.2210 493.2732 494.6931 495.0171
   495.0171 495.5320 497.5712 498.3369 498.3369 498.6968 498.8287 498.8344
   498.8344 499.0339 499.4231 499.5011 499.5011 499.5998 499.9352 500.0164
   500.0222 500.0222 500.1129 500.3294 500.3294 500.5263 501.4148 501.4987

          k = 0.7500-0.2500 0.7500 (  2416 PWs)   bands (ev):

   -97.0257 -58.5144 -58.5143 -58.5142  -4.3032   0.8585   3.1731   4.2775
     8.4399  11.0310  12.2322  12.8076  16.1724  17.3632  18.7703  19.0452
    19.0625  23.1773  24.0237  24.4427  25.4342  25.6049  26.4527  28.1077
    30.2203  30.6121  31.4082  33.0216  34.0193  34.5651  34.6667  36.4012
    37.4566  39.3458  39.9694  41.2336  42.0443  42.6995  42.8419  45.5776
    47.3488  47.9617  48.6882  48.8233  48.8327  49.8628  50.7489  52.3928
    52.7147  53.4473  54.4211  55.0076  56.5954  57.8406  58.3345  58.3417
    59.9469  61.3150  61.3708  62.7635  63.0605  63.7533  63.8922  65.1015
    66.0193  66.0369  66.3232  67.4483  67.9752  68.4084  69.2497  69.9836
    70.4921  71.7945  72.3533  73.1844  73.5723  73.7515  74.9581  75.1685
    75.8548  77.2765  77.3380  78.9844  79.2079  79.8975  80.4499  81.9311
    82.0381  83.0223  83.4576  84.0352  84.6724  85.7866  86.5845  87.6082
    88.2066  88.5535  89.3409  89.7696  89.8493  90.7200  91.0232  91.9414
    92.0243  93.4599  93.7635  94.1072  96.3905  96.8109  97.5295  98.1117
    98.7278  98.9023  99.8742 100.0111 100.5716 101.7000 102.2842 102.9537
   103.6087 104.2397 104.2727 105.0217 105.9249 106.3400 106.6111 107.5494
   107.8233 108.1063 108.6410 109.0100 109.9155 110.2630 111.3750 112.2421
   113.1926 113.9251 114.8995 115.3326 116.0147 116.7697 117.1104 117.5493
   117.5992 118.2574 118.4863 119.1458 120.3766 120.4929 120.8088 121.5127
   122.3563 122.5805 122.6297 123.0351 123.6973 124.3133 125.0087 126.0469
   126.2449 126.4697 126.6121 127.5498 127.7932 127.8914 128.6325 128.6631
   129.3456 130.0245 130.4755 130.8663 131.9290 132.0731 133.1974 133.3075
   134.2261 134.6103 135.4702 135.8683 136.2530 136.6604 136.7122 136.9618
   137.6846 139.2782 139.6341 140.3161 140.5327 140.6300 141.1782 141.5736
   142.6223 143.3972 143.5386 144.3852 145.1522 145.4974 145.9870 146.6420
   147.4685 147.7619 148.2355 148.3397 148.9899 149.7396 150.0341 150.2808
   150.8277 151.6220 152.0567 152.2068 152.6849 153.3314 154.2720 154.6230
   155.6392 155.6737 156.0967 156.3875 156.6449 156.7564 157.6664 158.2988
   158.5058 158.8236 158.8789 159.5553 160.3532 160.8156 161.3032 161.8279
   162.9563 163.0382 163.4676 164.6962 164.7283 165.6724 165.8352 166.2883
   166.2929 167.2569 167.8657 168.2741 169.6363 170.5806 171.1176 171.9040
   172.0019 172.4941 172.9401 173.7595 174.3023 174.3939 175.0184 175.2881
   175.9095 176.0977 176.9224 177.3551 177.7543 177.8533 178.1454 178.6973
   179.3687 179.6418 180.0071 180.0239 180.2168 180.9912 181.4204 182.2312
   182.6739 183.1357 183.2118 183.5460 183.5810 184.6784 185.0366 185.5014
   186.2233 186.5220 187.6101 187.6410 188.0117 189.0373 189.7431 189.9318
   190.3557 191.0669 191.8156 191.9523 192.0935 192.3324 192.7338 192.9965
   193.4973 193.7388 194.1091 194.1747 195.0454 195.7153 195.8810 196.6531
   197.0486 197.2871 197.4914 198.6292 198.7023 199.1796 199.1932 199.5079
   199.9792 200.5379 201.1787 201.7395 202.1816 202.5133 202.6267 202.9683
   203.0385 203.4787 203.9951 204.5678 205.2762 205.4360 205.7684 206.1789
   207.4226 207.6543 208.0525 208.7608 208.8436 209.4531 209.4684 210.2802
   210.8662 210.9613 211.2950 211.8557 212.3124 212.4653 212.7978 213.0881
   213.5681 214.1151 214.4747 215.7465 215.9731 216.5300 216.7235 216.9459
   217.5328 217.7284 217.9607 218.5229 218.9887 219.3172 219.6051 219.8550
   220.4678 220.8772 220.9181 221.7236 221.9961 222.2188 222.5170 223.6296
   223.7592 224.1915 224.7654 225.4458 226.2114 226.7153 226.9763 227.3074
   227.4074 227.6746 228.1728 228.5160 228.9708 229.4084 229.4252 229.9031
   230.4485 230.6147 231.1718 231.2963 231.6686 231.7296 232.3759 232.6325
   233.1616 234.1041 234.4859 234.5731 235.2238 236.5475 236.5940 236.7514
   238.1304 238.8092 238.9680 239.1427 239.6272 240.1005 240.5218 240.7327
   241.1986 241.2029 241.5487 241.9510 242.2046 242.4692 242.7595 243.0542
   243.6091 243.9056 244.1782 244.4593 244.7353 245.0033 245.4731 245.6479
   246.4759 246.6945 247.0896 247.4104 247.7281 247.9834 248.6159 248.6623
   249.6972 251.0056 252.1907 252.4960 252.9484 253.2422 253.6134 254.1881
   254.4655 254.8588 255.5953 255.7057 256.0674 256.7049 256.8985 257.0385
   257.6969 258.1001 258.3623 259.1582 259.2397 259.4031 260.1514 260.2594
   260.8220 261.5630 261.7056 263.3054 263.8358 264.0174 264.3018 264.3829
   264.6132 265.4318 265.4839 265.9983 266.0848 266.3759 267.6724 267.7439
   268.0251 268.4025 268.7446 268.9145 269.1091 269.2059 269.6840 269.8918
   269.9396 270.1861 270.3301 271.1115 271.4150 272.0730 272.8119 272.8206
   273.7860 274.2634 274.3081 274.5281 274.7142 275.1164 275.2239 275.5104
   275.8411 276.1178 276.4712 276.6593 276.6681 276.9167 277.1953 277.2401
   277.6631 278.4006 279.2802 280.0619 280.2432 281.2704 281.4459 281.6956
   282.8033 283.0653 284.4046 284.7654 284.9277 285.3286 285.4824 286.1426
   286.6214 286.6850 286.7978 287.0351 287.1581 287.4935 288.1532 288.2829
   288.3187 288.6753 289.1250 289.6802 289.7085 289.9974 290.0075 290.1827
   290.3776 290.4051 292.1146 292.3876 292.6566 293.0562 293.0912 293.2668
   293.4822 293.6847 294.2223 294.5482 294.9213 295.0094 295.2939 295.5086
   295.6092 296.9126 297.2783 298.1715 298.5233 299.1049 299.2671 299.5646
   300.2712 300.7345 300.7776 301.6483 301.7940 302.0720 302.6340 302.8322
   302.8973 303.5342 303.5558 303.7361 303.7831 304.1273 304.2451 304.5192
   304.6384 305.0279 305.9701 306.8516 307.2458 307.6737 307.7695 308.5880
   308.9797 309.7629 310.0113 310.1331 310.2181 310.9890 311.4872 311.8574
   311.9935 312.6130 312.7045 313.1131 313.1975 313.4133 313.7284 313.9141
   314.0285 314.1943 314.8990 315.4026 315.6044 315.6294 315.7310 315.8757
   316.1142 316.2855 316.4603 316.5639 317.2021 317.6470 317.9826 318.0137
   318.5079 320.2488 320.7895 320.9951 321.5503 321.7902 321.8948 322.1844
   322.5565 323.1433 323.1493 323.5054 323.7525 323.8214 323.8655 324.3904
   324.4485 324.7526 325.5190 325.6977 326.2068 326.3796 326.4174 326.7033
   326.8311 327.0438 327.1324 327.2401 328.5046 328.9023 328.9225 329.2404
   330.4265 331.1843 331.2627 331.4305 331.6624 331.7695 332.1996 332.7009
   333.1855 333.4238 333.5084 334.1201 334.6064 334.7676 334.9284 335.0227
   335.1558 335.1586 336.3065 336.4795 336.5588 337.0025 337.6750 337.7126
   337.7595 338.0081 339.1897 339.2339 340.0065 340.3730 341.1892 341.5468
   341.7899 342.1965 342.6457 343.0334 343.9181 344.9749 345.3192 345.5058
   345.9517 346.4798 346.6309 346.8462 346.8904 347.0752 347.1132 347.1646
   347.5569 347.6352 347.7323 347.8226 349.0201 349.3448 350.1705 350.7000
   351.1823 351.2366 351.3942 351.5198 351.7001 352.0635 352.3876 352.5818
   352.6355 352.8133 353.1717 353.2529 353.4430 355.0647 355.1834 355.6213
   356.5595 356.6430 356.7621 357.0364 357.2297 357.5555 358.3364 358.6586
   359.3383 359.3444 359.5740 360.0923 360.1012 360.5406 360.6812 361.0620
   361.1446 361.5821 361.6068 361.8417 363.2957 363.8361 365.1462 365.8143
   365.8650 366.1308 366.2561 366.4522 366.7936 366.8166 367.0712 367.1537
   367.2700 367.6336 367.7242 367.7582 368.0322 368.2549 368.5522 369.1085
   369.4826 369.7117 369.8697 370.1955 370.3733 370.7017 370.9398 371.5801
   371.7360 372.1208 373.0575 373.4944 373.6850 374.5941 374.6702 375.0952
   375.6039 376.5590 377.0933 377.1007 377.4154 377.6349 377.7809 377.9945
   378.5750 379.1947 379.6757 379.7012 379.8679 380.1247 380.2528 380.3441
   380.6295 380.7993 381.1970 381.2111 381.6770 381.7971 382.0653 382.2944
   382.3510 382.4108 382.9936 383.1883 383.6600 383.7618 383.8920 384.1668
   384.9644 384.9708 385.0362 385.1000 386.3010 387.0737 387.2930 387.3987
   387.6881 388.1250 388.3067 388.4187 388.8075 388.9215 389.1208 389.5722
   390.1356 390.2906 390.3746 390.5179 391.0931 391.8882 392.2425 393.2295
   394.3075 394.4168 394.9854 395.8017 395.8159 396.2272 397.2716 397.3025
   397.4278 397.5481 397.6251 397.7648 398.6642 398.7549 398.9085 399.3722
   399.4690 399.6127 399.6968 399.9450 399.9690 400.1170 400.3937 401.1148
   401.3289 401.3391 401.7242 401.7293 402.6545 402.8396 402.9250 403.0887
   403.3312 403.9764 404.2515 404.3351 404.6273 404.6859 405.4670 405.6426
   405.8770 407.4430 407.4432 407.5130 407.5525 407.9073 407.9636 408.3198
   408.5656 408.8751 409.2474 409.5522 409.7832 409.8099 410.1898 410.4639
   410.7580 411.3725 411.9065 412.5993 412.6107 412.9083 413.7537 413.7939
   414.1779 414.2925 414.3606 414.3640 414.7378 414.8407 414.8699 414.9716
   415.0365 415.2981 416.0276 416.3380 416.5457 417.3791 417.7109 418.1612
   418.1859 418.4539 418.6321 418.8683 419.0683 419.1850 419.6725 419.9195
   420.0907 420.1855 422.0379 422.3450 422.3489 422.5709 422.8108 422.8464
   423.0016 423.1020 423.2422 423.3264 423.5320 423.9642 424.2766 424.3880
   424.6046 424.8445 425.3936 425.4819 425.6573 426.1737 426.2657 426.2774
   427.9318 428.1696 428.5217 428.9430 429.0396 429.0647 429.8184 429.9548
   430.3923 430.5790 430.7565 430.7800 431.3882 431.4981 431.5318 432.0535
   432.8750 433.3915 433.7220 433.7228 433.8079 434.1171 434.5300 435.2523
   435.8304 436.0911 436.4500 436.4602 437.2552 437.2874 437.3786 437.4468
   437.7889 437.9998 438.0439 438.7545 438.7858 438.8923 439.1702 439.3302
   439.5204 439.7087 440.0861 440.6127 440.6381 440.7550 441.1127 441.1879
   441.3720 441.9678 442.0060 442.1015 442.7810 442.8646 443.2285 443.4848
   443.7018 443.7943 443.9141 443.9168 444.0973 444.1284 444.4135 444.5104
   444.5564 444.7904 445.2692 445.3502 446.8533 448.9740 449.4532 449.5936
   450.0123 450.0358 450.2065 450.4677 450.6379 450.8234 451.1065 451.2740
   451.6336 451.9508 452.1753 452.2728 452.2796 453.0162 453.8223 453.9605
   454.5507 454.9400 455.0871 455.2072 455.3850 455.4643 455.6326 455.7104
   455.9914 456.4089 457.3159 457.5574 457.8261 458.0469 458.1897 458.5978
   458.6822 459.3054 459.4850 459.4997 460.6985 461.0470 461.0576 461.2518
   461.2962 461.4948 461.5546 461.5725 462.0182 462.0534 462.4294 462.4819
   463.0214 463.1172 463.1530 463.5766 464.1715 464.5618 464.5802 465.3835
   465.5461 466.1248 466.1918 467.0851 467.0867 467.9060 467.9476 468.2869
   469.7718 470.2072 470.2362 470.2595 470.6509 470.6594 470.8051 471.0910
   471.6460 471.8166 471.8203 472.0117 472.7057 473.2114 473.2826 473.2915
   473.3490 473.3965 474.7878 475.2200 475.4571 475.7294 475.9374 476.1759
   476.4499 476.6336 476.7516 477.1640 477.2630 477.2884 477.7540 477.9547
   478.0329 478.0632 478.6061 479.0171 479.5297 479.5908 479.9323 479.9352
   480.8287 480.8694 481.3991 481.7266 482.3467 482.5492 483.3987 483.7208
   483.9032 484.1518 484.5262 484.8101 485.1267 485.4066 485.5013 485.7789
   485.7956 485.9450 486.1222 486.2125 487.0155 487.0590 487.0708 487.1896
   487.2440 487.5349 488.1026 488.1437 488.9751 489.0408 489.0648 489.3213
   489.4565 489.5735 489.7378 489.9423 490.2251 490.4020 492.3600 492.9244
   493.1659 493.2037 493.5237 493.5349 494.4498 494.4962 495.7127 495.7556
   496.1713 496.2679 496.3266 496.3880 496.4263 496.8240 497.0215 497.0543
   497.0664 497.3367 497.5349 497.5696 498.5270 498.5785 498.9805 498.9922
   499.3382 499.3811 499.5715 499.6159 499.9151 500.3720 500.4294 500.9099
   500.9140 501.6415 501.6555 501.7371 502.0152 503.5544 503.8788 504.1315

          k = 0.5000 0.0000 0.5000 (  2421 PWs)   bands (ev):

   -97.0258 -58.5144 -58.5143 -58.5142  -4.6100   1.3524   3.0347   4.9880
     9.2627  11.6220  11.7681  12.1599  13.5704  16.1489  18.3697  19.5747
    19.8100  22.6060  23.8821  24.0996  25.2216  27.2703  27.3910  29.3503
    30.3853  31.1912  31.9166  31.9964  34.0383  34.3119  35.8497  36.6167
    39.9929  40.5884  40.6795  41.2138  41.9314  42.3213  42.4565  42.8074
    43.0024  47.1079  48.2017  48.6316  49.8271  50.4805  51.8563  53.3355
    53.8499  54.4770  54.5843  55.3688  55.4489  56.4482  57.1428  58.9073
    59.0320  59.8520  60.1504  60.3859  62.8184  63.0952  63.2376  63.8549
    65.9990  66.1004  67.2358  67.5658  67.9050  67.9562  68.9446  71.0228
    72.3956  72.5819  72.6262  73.6562  74.2094  75.3407  75.4289  75.4412
    76.3728  77.3969  78.0563  78.4622  79.0229  80.4488  80.9110  82.0426
    82.0771  83.9729  84.1654  84.3633  85.0583  86.4395  87.1475  87.2790
    87.6583  88.5734  89.6548  90.2539  90.6571  91.6820  91.8194  93.1976
    95.0772  95.2741  95.6462  95.7173  96.0782  96.4800  97.5675  97.6099
    97.7578  98.8712  99.0940  99.4274 100.1944 101.0145 101.5406 102.0648
   103.0253 103.2286 104.2143 104.5939 105.0116 105.2653 105.3259 106.3676
   107.1483 107.6048 107.8212 108.2871 109.1186 109.1386 110.4744 111.0545
   111.4446 111.5327 112.1608 113.5657 114.5715 114.7746 115.5341 116.5512
   117.1800 118.7158 119.2432 119.2556 119.8331 120.1473 120.9001 121.9618
   122.2618 122.8661 123.0011 123.2973 123.6894 123.7550 124.4279 124.5090
   125.4029 125.5751 126.6053 126.6850 127.7954 128.6075 129.5313 129.8794
   131.0222 131.2098 131.7482 132.7908 133.4305 134.3759 134.5083 134.9422
   135.5633 136.2603 136.6508 136.7204 137.0483 137.4661 137.5215 137.8026
   139.3086 139.7039 139.8560 140.2828 141.4937 141.7343 142.0345 142.3802
   142.9399 143.3173 143.5335 144.5038 144.9290 145.8588 146.2120 147.0046
   147.1158 147.2735 147.3561 148.0104 150.0315 150.0826 150.9019 151.5775
   151.8330 151.8685 152.1153 152.2056 152.7680 153.7947 154.5475 154.5750
   155.6946 155.7225 156.0831 156.1356 156.9911 157.0891 157.4093 157.5632
   158.6699 158.9093 159.7777 160.5155 161.0747 161.5295 162.0153 162.1484
   163.0605 164.3575 164.4178 164.8544 165.1327 165.6745 165.8914 166.1757
   166.6373 166.8171 167.1060 167.4407 168.8228 169.0860 169.2444 169.8587
   170.4019 171.0538 171.4389 172.3858 173.4117 173.4347 174.1034 174.2949
   174.7374 174.9108 175.8446 176.0807 176.0831 176.8754 177.6225 178.1639
   178.5069 178.9458 179.7919 179.7947 180.0733 180.3816 180.4876 180.6185
   181.2022 182.1865 182.7291 183.0940 183.7449 184.6884 184.7586 185.8605
   185.8752 186.3043 187.0479 188.1015 188.5282 189.8202 190.9293 191.0405
   191.5387 191.6217 192.3139 192.3762 192.6418 192.6829 193.0496 193.3480
   193.7835 194.2191 194.4018 194.8049 195.5488 195.7992 195.8373 196.0184
   196.0637 196.8425 196.8947 197.2556 197.7682 197.9789 198.3897 198.4199
   199.1858 201.0600 201.2195 201.7544 201.9401 202.4292 202.6256 202.9412
   203.2307 204.0865 204.6608 204.6631 205.0726 205.0969 205.2433 205.7162
   206.0785 206.1705 206.3127 206.7410 207.4195 209.4341 209.6477 209.8133
   211.1749 211.4612 211.6789 212.8461 212.8774 214.1069 214.6180 214.8802
   215.0128 215.6222 215.7532 216.2240 216.5040 217.4146 217.8673 219.1535
   219.2009 219.3388 219.3532 219.6749 220.4387 220.7549 220.9236 220.9480
   221.2261 221.3560 221.4539 221.5557 221.8168 222.0509 222.5499 222.6299
   222.6372 222.7665 223.3391 223.9740 225.0963 225.8780 226.2191 226.2218
   226.3841 226.9300 227.6763 228.5717 229.2449 230.1088 230.2111 230.2590
   230.4326 230.4442 232.4130 232.7973 232.8892 233.0561 233.4108 233.7465
   234.2498 235.0827 235.3442 235.7844 235.7956 235.8632 235.9527 236.0221
   236.1810 236.7464 237.9250 237.9308 238.1051 239.3192 239.9144 240.6927
   240.9494 241.5543 242.0475 242.6022 243.1425 243.1555 243.9510 244.8828
   244.9691 245.0394 245.4045 245.4368 245.8992 246.2282 246.2942 246.3277
   246.3742 247.9718 249.3232 249.4455 249.7640 250.2284 250.2468 250.7981
   251.5984 252.9016 253.2151 253.2498 254.1007 254.1192 254.8910 255.2624
   255.2739 255.3888 256.0456 256.1109 256.8046 257.3124 257.4675 257.5032
   258.5770 258.6115 258.8192 258.8798 259.2490 259.4099 259.4746 261.0811
   261.4331 261.4607 262.0963 262.2623 262.6201 262.6247 262.7759 262.9422
   263.5342 264.1204 264.1851 264.5202 264.5347 265.0577 265.2763 265.9344
   266.0145 266.0308 266.1087 267.1495 267.8741 267.9861 268.4817 268.9453
   269.0281 269.8688 270.1010 270.3756 271.2277 271.4741 272.0461 272.0643
   272.2178 272.3573 272.4612 272.5806 272.7298 274.3234 274.3374 274.6500
   274.7473 274.8106 274.8472 275.3149 276.0596 276.4093 276.4816 277.0358
   278.6218 279.8760 280.3630 280.7028 280.7199 281.3719 281.6000 281.6781
   282.9046 282.9398 282.9776 283.0031 283.0138 284.6294 284.7460 285.2769
   285.3394 285.5389 285.7199 285.9803 286.2105 286.3012 286.3093 286.6351
   288.1326 288.1701 288.5358 288.7508 288.8104 289.0489 289.4280 289.6582
   290.5542 290.8976 291.3066 291.5999 291.6703 291.8712 292.6451 293.5574
   293.7342 293.7488 294.0750 294.2506 294.4114 294.7208 295.3064 296.1596
   296.8411 297.5116 297.9009 298.5357 299.0156 299.0730 299.3773 299.8672
   299.9342 299.9744 300.0662 300.1381 300.8810 301.2094 301.8406 302.6627
   302.8597 302.9387 303.3821 303.4336 304.1186 304.1250 304.3327 304.9876
   305.1345 305.4471 305.6280 305.7339 306.1670 306.2255 307.1201 307.1332
   307.5185 308.0934 309.0443 309.4175 311.4639 311.7199 311.8532 311.8915
   312.7240 312.8498 312.9827 313.1141 313.3980 313.4946 313.7689 314.0317
   314.0453 314.1960 316.3292 316.4317 316.4838 316.5553 316.6860 317.3400
   317.6239 317.8825 318.3755 318.4747 318.9483 319.0600 319.3329 319.4413
   319.5717 319.7607 319.8516 319.9975 320.2676 320.7090 320.7954 321.4619
   321.8133 322.4276 322.6848 324.7767 324.9789 325.0067 325.0082 325.2703
   325.3032 325.4524 327.3669 327.7372 328.1653 328.2104 328.7733 329.2220
   329.6280 330.1878 330.4349 330.8493 331.0256 331.0403 331.2982 331.3001
   331.4322 331.6872 331.9535 332.1313 332.2891 333.0607 333.2306 333.5075
   333.6890 333.7714 334.0433 334.0647 334.3937 334.5106 335.0452 335.2394
   335.5243 335.8095 336.4280 336.6199 338.1932 338.4240 338.4490 338.4583
   339.5536 339.7547 342.3082 342.4719 342.8838 343.0435 343.2433 343.4632
   343.5146 343.5314 344.1697 344.3472 345.3865 345.4045 345.7421 345.7600
   347.0134 347.2774 347.2876 347.5366 347.9156 348.0454 348.6322 348.7104
   348.9416 349.0228 349.0904 349.1408 349.9091 350.2207 350.4583 350.5794
   350.6656 350.9318 351.2904 351.3112 352.0983 352.1682 352.5311 352.5960
   352.9644 353.0972 353.1187 353.3299 354.2795 354.5685 354.9011 355.0143
   355.5728 355.6454 355.7574 356.1366 357.7934 357.8345 358.1920 358.2259
   358.4764 358.5687 359.4940 359.5137 359.8686 360.1721 360.3034 360.3341
   360.7447 360.8100 361.0151 361.0938 361.6943 361.7526 362.9557 363.0821
   363.1935 363.2429 363.4346 363.4763 363.6277 363.7831 364.3847 364.4268
   364.4999 364.7065 366.3385 366.3953 368.2073 368.2381 368.6499 368.7688
   368.7947 368.8391 369.7583 369.9932 370.2119 370.2703 371.7583 371.9089
   372.4915 372.4991 372.6766 372.9069 374.1643 374.1645 374.2515 374.3084
   374.9398 375.0476 375.1834 375.2079 375.3595 375.6383 376.0110 376.0379
   376.3353 376.8747 377.7047 378.0023 379.0519 379.0884 379.4365 379.5133
   380.0020 380.4103 380.8697 380.8976 381.3309 381.3414 381.5004 381.6780
   381.7014 382.0451 382.1701 382.5229 382.5896 383.9281 384.9656 385.0223
   385.0872 385.2277 385.8486 385.8587 386.0942 386.2281 387.0173 387.2674
   388.1251 388.2063 388.5530 388.5906 388.6288 389.0751 389.2017 389.9092
   390.0330 390.3283 390.4444 390.9296 390.9917 391.3336 392.5795 392.6345
   392.6682 392.6709 392.8808 392.9362 393.2806 393.4900 394.3281 394.7194
   395.0236 395.1214 395.4426 395.5733 397.6208 398.2094 398.3337 398.8029
   398.8232 398.8644 398.9359 400.1800 400.7514 400.9814 401.0602 401.1203
   401.1485 401.1660 401.4887 401.9749 402.0270 402.3318 403.0901 403.4109
   403.6159 403.6520 403.8270 404.1529 404.1659 404.9779 405.0249 405.3190
   405.3934 406.4927 406.5892 406.7854 406.8566 407.7530 407.8568 407.8930
   408.0344 408.1919 408.7810 408.7965 409.0585 409.8582 409.8947 410.0335
   410.0917 410.1516 411.8853 411.9442 412.1518 412.1944 412.8800 413.5774
   413.6475 414.1494 414.4529 414.8170 415.0674 415.1905 415.3816 415.3912
   416.1414 416.1501 416.9546 417.1801 417.3874 417.6237 417.6465 417.8723
   418.0284 418.1710 418.2250 418.2982 418.6567 418.7488 419.0160 419.8871
   420.1420 421.2256 421.2415 421.7116 421.7625 422.5510 422.6603 422.7024
   422.8167 423.7147 424.7592 424.7928 425.7153 426.2781 426.7602 427.6421
   428.5833 428.6650 428.9519 429.2118 429.2717 429.3633 429.6892 429.7675
   429.7753 429.9775 430.0011 430.0432 430.0839 430.1300 430.4790 430.5071
   430.6396 430.6769 430.8431 430.8817 431.5942 432.0483 432.4738 432.6522
   432.7170 432.7197 432.8274 434.1320 434.1548 434.4597 435.0679 435.3445
   435.3620 435.5989 435.7947 435.8032 435.9539 435.9783 436.3223 436.5119
   436.6109 436.6753 436.8599 438.7731 439.3375 439.5701 439.6589 439.7473
   439.8906 440.6011 440.8143 441.3776 441.7419 441.8646 441.8983 441.9610
   442.2225 442.4269 442.4436 442.6256 443.0448 443.9816 444.0667 444.1274
   444.5141 444.6912 445.3608 445.4887 445.6949 445.9756 446.0258 446.1265
   446.8158 446.9485 447.1546 447.4216 447.4554 448.6435 448.7494 448.8268
   448.9353 449.0296 449.2837 450.3475 450.3925 450.4765 450.5798 451.3985
   451.4114 451.4428 451.4701 451.6891 451.7108 455.3450 455.5982 455.6415
   455.6760 455.8616 455.9047 456.9823 456.9906 457.2657 457.4729 457.9954
   458.0514 458.1055 458.1778 458.7935 458.9010 459.0892 459.1680 459.2374
   459.2377 460.0574 460.2332 460.3553 460.4741 460.4906 460.8452 460.9279
   461.1875 461.3460 461.6908 462.0026 462.1829 462.2057 462.3851 462.3904
   462.9416 463.3502 463.4648 463.7080 463.7142 465.3815 465.6464 465.9152
   466.1834 466.2332 466.2945 467.7312 467.7449 467.8682 468.0569 468.4197
   468.5681 468.6862 468.7860 469.2026 469.3115 470.0447 470.0598 470.4936
   470.5750 472.2085 472.3208 473.7712 473.7894 473.8251 473.8586 473.9638
   474.0468 474.1053 474.1768 474.9716 475.3293 475.4815 475.5797 475.6852
   475.9060 475.9195 475.9505 476.2909 476.3125 476.6098 477.0083 477.0547
   477.1199 477.3063 477.4203 477.6083 477.6117 477.9813 478.1454 478.5656
   478.5686 479.1429 479.1467 479.8729 479.9688 481.3906 481.4475 482.7457
   482.8271 483.6082 483.8018 483.9070 484.3279 484.7160 484.7876 485.3675
   485.5111 485.5913 485.7256 486.6639 486.7661 487.3934 487.4979 488.2225
   488.3126 488.9916 489.0137 489.0917 489.1408 490.2654 490.3228 490.3722
   490.3905 491.1588 491.1766 491.3297 491.3852 492.7771 492.7794 494.0021
   494.1797 494.3721 494.5144 494.5193 494.5895 494.7755 494.8348 495.1120
   495.1384 495.4578 495.4933 496.6392 496.7828 497.8406 498.0801 498.1189
   498.1630 498.7381 498.8065 498.8277 498.8381 498.9551 498.9773 499.1008
   499.1935 499.4585 499.4870 499.7138 499.7542 499.9897 499.9974 501.2554
   501.2846 501.3491 501.3799 501.4769 501.6335 502.0154 502.0202 502.1978

          k = 0.0000-1.0000 0.0000 (  2450 PWs)   bands (ev):

   -97.0268 -58.5144 -58.5143 -58.5143  -3.9883   0.4773   3.7233   3.7233
     7.3261   8.1748  16.1545  16.1545  17.5329  18.5329  18.5329  19.0172
    19.2545  19.7419  24.8967  25.0499  25.0499  25.2196  25.9164  25.9164
    26.1012  27.4723  32.4532  34.0280  34.5883  34.5883  38.8673  38.8844
    38.8844  39.4385  40.7848  40.9139  42.3209  42.6133  42.8927  42.8927
    45.3109  45.3109  45.5547  45.7089  50.0883  50.0883  52.6603  54.0596
    54.0596  54.6827  56.7343  58.7826  58.9779  59.0526  59.0526  59.0948
    59.3319  61.2002  61.5328  61.5328  61.6434  61.6434  62.6695  63.2183
    63.6427  63.6427  64.3918  67.8430  70.9461  71.1029  71.1029  71.1949
    73.6135  73.8229  74.2237  74.2237  74.8412  75.5497  75.6549  75.6549
    76.4083  76.4083  76.6089  77.0776  78.9893  78.9893  79.4445  79.5518
    79.7346  80.1596  81.4792  81.4792  82.1895  82.1895  82.9528  84.4795
    89.6118  89.6206  90.5813  90.5813  90.8555  90.8555  91.5758  93.0692
    93.1418  93.3249  93.3249  93.3670  94.4328  94.8357  94.8357  96.8558
    97.6967  99.3160  99.4168  99.4168 100.3469 101.0459 101.0459 102.2392
   104.3336 104.8513 104.8513 105.5847 106.4938 109.0292 109.0292 110.9953
   111.4309 111.6516 111.6516 112.3327 112.8284 114.2950 114.2950 114.4903
   115.0791 115.1666 115.3441 116.0700 116.3030 117.1118 117.1118 117.2186
   117.2956 117.6825 117.6825 118.3190 118.3190 119.1306 119.2283 119.2978
   119.2978 122.0397 122.8473 125.6341 126.1760 126.1760 126.2274 126.2741
   127.0188 127.0188 128.4853 128.9069 128.9070 128.9749 129.3100 129.7552
   131.0399 131.0399 131.4451 131.4451 131.7427 131.7427 131.8807 133.2554
   133.4810 134.0546 134.9071 134.9798 135.3267 135.9303 135.9456 135.9456
   136.5901 136.5901 136.6126 136.8601 136.9181 136.9181 137.2493 138.7663
   138.7663 139.7588 140.8473 142.5885 143.5844 143.8738 143.8738 144.6044
   145.1199 145.1199 145.3939 145.3939 146.3879 147.8126 149.7740 150.6341
   150.6341 151.8932 152.4930 153.1636 153.1915 153.1915 153.7021 154.0776
   154.0776 154.8796 156.3215 156.3215 156.4304 156.5528 157.6605 157.6605
   158.4549 162.2737 162.5053 162.5201 164.3722 166.0065 166.0065 166.4958
   166.6956 166.7770 166.7770 167.1926 167.2341 167.7953 167.7953 167.8596
   168.3926 169.6101 170.2665 170.6245 170.6751 170.6751 171.2480 171.2480
   171.7298 171.8703 172.9625 172.9625 173.0012 173.0012 174.2294 174.2828
   174.2828 177.1763 177.3847 177.3847 177.4665 178.1833 178.4713 179.5544
   179.5544 180.9976 180.9976 181.4329 181.5446 183.3246 183.7556 184.4197
   184.5444 184.5444 185.0467 185.2963 185.2963 185.5259 185.5751 185.6750
   185.6750 185.8092 185.8241 186.0975 186.2186 186.2917 186.2917 187.0879
   187.4296 187.4296 187.9329 187.9329 188.1029 188.3196 191.8950 191.9356
   191.9940 191.9940 192.0166 192.0166 192.1017 192.1433 194.5522 196.7496
   196.7496 197.0951 197.5133 197.5133 198.2509 198.2821 201.6473 201.6473
   202.6857 203.1458 203.2994 203.5778 203.5778 203.7943 203.8760 204.5196
   204.5196 205.0300 205.7159 205.8542 205.8542 206.2597 206.4034 206.4370
   206.4513 206.4513 207.2502 207.3014 207.3014 207.4303 209.8325 209.8325
   211.4623 211.4799 211.9226 211.9226 211.9627 211.9627 212.4671 212.5165
   213.9932 214.0882 215.3450 215.5843 215.5843 215.8299 216.4515 217.0778
   218.7125 218.7125 218.9212 218.9212 218.9827 219.3905 219.3905 220.1184
   220.5046 220.5203 221.5699 221.6551 223.9258 224.7251 224.7389 224.7389
   225.0767 225.0767 225.1702 225.7036 225.7445 225.7445 226.1536 226.2060
   226.6482 226.9448 227.0127 227.0127 230.3572 230.3572 230.3708 230.4819
   230.5201 230.5201 230.5777 230.5839 230.8404 231.5871 231.5871 231.7727
   231.8563 233.3380 238.4296 238.4296 239.4659 239.5498 239.7117 239.7962
   239.7962 239.9862 239.9862 240.1116 240.1116 240.3826 240.4920 241.9950
   242.0667 242.0667 242.6062 242.8504 242.9571 242.9571 243.5645 243.8346
   244.0119 244.0240 244.0240 244.1806 244.1806 244.2527 244.7823 244.7967
   244.9716 244.9716 245.1164 245.1167 245.7574 245.9286 245.9286 246.0701
   246.1417 246.7057 246.7057 246.9873 247.4704 247.7217 247.7217 247.9984
   248.8720 248.9729 248.9729 249.0256 251.9572 254.9149 254.9997 254.9997
   256.3621 256.3621 257.3274 257.5035 259.2387 259.3107 260.2520 260.2520
   260.5423 260.5423 262.0641 262.0963 263.5740 263.5740 264.5375 264.5641
   264.5974 264.7185 264.7185 264.8164 266.8681 266.8681 267.2016 268.3211
   268.5461 268.6917 268.6917 269.5122 270.0403 270.0403 270.6624 270.8962
   271.5649 271.5649 271.8881 272.2682 272.9026 273.4007 273.7816 273.7816
   275.0450 275.0450 275.9084 275.9326 276.6305 277.3519 278.0736 278.0736
   278.6320 278.6320 279.3441 279.3868 281.2184 281.2184 281.6400 281.9295
   283.7750 283.7750 283.8108 283.9743 284.0800 284.1620 284.2423 284.2423
   284.8022 284.8022 284.8339 284.9708 285.0728 285.1599 285.1599 285.1882
   285.8634 285.8634 285.8738 285.9477 289.9402 291.3689 291.3689 292.2102
   292.3036 292.3036 292.9035 292.9446 293.1411 293.1794 294.1585 294.1585
   294.2407 294.2407 294.5156 295.0199 295.3333 295.3864 295.5827 295.5898
   295.5898 295.6931 296.0497 296.3109 296.3802 296.3802 296.7975 297.0862
   298.4513 298.4513 298.4922 298.4922 298.8598 298.8598 299.0220 299.0285
   299.3882 299.6187 299.6496 299.6496 299.7069 300.0559 301.0306 301.0858
   302.1557 302.5514 302.5737 302.5737 302.9185 302.9185 303.2092 303.4174
   303.4419 303.4419 303.4757 303.4757 304.4570 304.5430 304.6035 304.6226
   304.6226 304.6680 304.6680 304.6783 308.4008 308.9544 309.1416 309.1416
   309.2144 309.2144 310.3945 310.3957 312.4020 312.4020 313.6683 313.9651
   314.0150 314.0591 314.0591 314.0595 315.2729 315.2887 315.3376 315.4265
   315.4265 315.5780 315.7719 316.2014 316.2014 316.2249 316.2249 316.2500
   316.2500 316.7242 317.0250 317.0265 318.5300 318.8815 319.0357 319.0357
   319.2042 319.2042 319.3095 320.0163 322.8154 322.8154 323.0000 323.3670
   323.5647 323.5811 323.5893 323.5893 323.5993 323.5993 323.6473 323.6641
   326.7527 326.7527 327.4172 328.2503 332.3845 332.7853 332.7853 333.1145
   333.2295 333.4065 333.4127 333.4127 334.2488 334.7354 334.7354 334.8352
   335.2164 335.3310 335.4610 335.4610 335.4882 335.6899 336.1701 336.5017
   336.6154 336.6154 336.6561 336.6561 336.8886 337.1328 337.1328 337.1735
   337.3637 337.3637 337.4304 337.5062 339.8246 339.8246 339.8411 339.8543
   341.0420 341.0431 341.2588 341.2588 341.2827 341.2827 342.0885 342.0909
   342.6107 342.6107 342.6909 342.7715 346.0850 346.5901 346.5901 346.8764
   346.8764 347.1967 347.6554 348.3714 350.0030 350.7413 350.7413 350.9515
   351.2640 351.3422 351.4916 351.4916 352.2746 352.2746 352.6569 352.8972
   353.0783 353.1933 353.4378 353.4378 354.5863 354.7777 354.7777 354.8305
   355.5961 355.6149 355.6149 355.6801 355.7218 355.7218 355.7224 355.7825
   356.0168 356.0455 356.0455 356.0471 357.7528 357.7815 357.7815 357.8172
   359.7567 359.7712 359.7713 359.7874 364.4523 366.3821 366.6852 366.6852
   366.9044 366.9044 367.2799 367.7034 369.1570 369.1570 369.5040 369.9153
   370.2010 370.4921 370.4955 370.4955 370.5322 370.6865 371.0248 371.3008
   371.4324 371.4324 371.8640 372.0111 372.0111 372.6930 372.8081 373.1932
   373.1932 373.4300 373.9422 374.1139 374.1139 374.2804 375.2337 375.3378
   375.3794 375.3794 375.4185 376.0128 376.0128 376.3600 376.4315 376.6045
   376.6045 376.6383 376.6467 376.6467 377.0109 377.5309 380.3563 380.3811
   380.7964 380.7964 380.9989 381.1749 381.1749 382.1435 383.1767 383.9822
   386.2250 386.2250 386.9969 387.0282 387.2361 387.3800 387.3800 389.4293
   390.9651 390.9651 391.0883 391.0883 391.8249 392.1987 392.1987 392.4112
   392.6389 392.6389 392.6827 392.6879 392.8837 392.8948 392.9402 392.9402
   393.1259 393.1488 393.2657 393.2657 394.0105 394.0772 394.5502 394.5502
   394.5552 394.5890 395.6978 395.7402 395.7478 395.7478 396.8417 396.8598
   396.8668 396.8668 396.8753 396.8825 396.9008 396.9008 402.7666 402.7906
   402.7906 403.3246 403.4037 403.6633 403.7666 403.7666 403.7681 404.2151
   404.3762 404.4550 404.4550 404.6818 404.7988 404.7988 404.8276 404.8871
   405.4632 405.6332 405.6332 405.7310 405.7310 406.0677 406.0748 406.1656
   406.9257 406.9377 406.9377 406.9955 406.9955 407.1927 407.3277 407.3930
   407.9047 407.9047 408.0534 408.0534 410.3972 410.4036 410.6687 410.7398
   410.7398 410.7994 410.8089 410.9061 410.9061 410.9127 412.5498 412.6033
   412.6033 412.7664 412.8990 412.9529 412.9529 413.1334 414.0209 414.0678
   414.0678 414.1890 414.1982 414.2510 414.3478 414.3478 414.6565 414.6980
   415.0423 415.0423 415.0594 415.0594 415.1624 415.3832 416.1351 416.1655
   416.1655 416.1722 416.1964 416.1964 416.2085 416.2320 416.9715 416.9715
   416.9737 416.9940 417.1495 417.1495 417.1582 417.1631 423.4523 423.4523
   423.5744 423.6597 423.7738 423.9321 423.9321 424.2058 425.9417 426.0054
   426.0175 426.0175 426.0210 426.0210 426.0574 426.0791 429.1223 429.1223
   429.5878 429.6880 429.8155 430.3725 430.4550 430.4550 431.3818 431.7569
   431.7569 431.7736 432.4004 432.5002 432.5002 432.5895 432.8480 432.9443
   432.9443 433.4546 433.9340 433.9652 433.9652 433.9710 434.3363 434.3507
   434.3507 434.3654 434.6697 434.6755 434.6755 434.6865 441.4008 442.0727
   442.0727 442.3846 442.5001 442.8961 442.8961 443.1537 443.3759 443.4688
   443.4688 443.6320 444.7824 444.9197 444.9197 444.9902 445.2921 445.2921
   445.3410 446.0808 446.3863 446.3888 447.1613 447.1613 447.1993 447.1993
   447.7257 447.7567 450.3299 450.3299 450.4671 450.4768 450.5257 450.7009
   450.7009 450.7462 450.9321 450.9321 451.0819 451.4595 451.4879 451.5042
   451.5118 451.5118 451.9480 451.9541 452.2707 452.2776 452.2776 452.2875
   452.2875 452.5694 452.5778 452.8495 452.8495 453.0399 456.7039 458.3165
   459.8415 459.8415 459.9439 459.9439 460.9858 461.4475 462.7279 462.7291
   462.9744 462.9744 463.0175 463.0794 463.0848 463.0848 463.5078 463.5266
   463.5337 463.6024 463.6024 464.3231 464.6545 464.6545 464.8013 464.8013
   464.8907 464.9331 464.9331 464.9350 465.3774 465.7923 465.8471 465.9007
   466.1354 466.1640 466.5639 466.6147 466.6147 466.7432 466.8298 466.8298
   466.8786 466.8786 466.9394 466.9979 467.9471 467.9505 468.3783 468.3790
   468.3790 468.3877 468.3877 468.4314 468.8008 468.8008 470.3625 470.3688
   470.3688 470.6985 472.1118 472.1118 472.1137 472.1137 472.6957 472.7516
   472.7845 472.7845 476.9805 476.9805 477.3496 477.7594 478.1582 478.2203
   478.4076 478.4712 478.4712 478.6801 478.6898 478.6898 478.9047 478.9086
   478.9086 478.9557 482.0839 482.2540 482.2540 482.2787 482.2870 482.2970
   482.2970 482.4278 483.3485 483.4128 483.4128 483.4648 484.5655 484.6254
   484.6254 484.6924 488.0396 488.1711 488.1711 488.6246 488.7528 488.8233
   488.8233 488.8768 489.0028 489.3099 489.3099 489.3939 489.5412 489.5412
   489.6421 489.6584 489.6970 489.7297 489.8542 489.8542 489.9481 489.9583
   489.9583 490.0564 496.0026 496.0026 496.0235 496.2759 497.2779 497.4499
   497.4499 497.4754 499.8474 500.8459 500.8459 500.8530 500.8605 501.3775
   501.3775 501.7991 501.7991 501.9605 502.1255 502.1446 502.1528 502.1625
   502.1625 502.3653 502.3940 502.4274 502.4815 502.4815 502.5286 502.6840
   502.8068 502.8068 502.8567 503.1882 503.4193 503.7542 503.7542 503.8009

          k =-0.5000-1.0000 0.0000 (  2400 PWs)   bands (ev):

   -97.0251 -58.5144 -58.5143 -58.5143  -3.9570   0.8116   2.7341   3.0805
    10.2127  11.4809  11.5552  11.9433  16.4527  18.2146  18.4609  19.8339
    22.1995  22.8685  23.6462  24.0684  24.9579  25.8389  26.2058  27.3564
    28.9954  30.1325  32.3828  32.4432  32.5100  32.6154  32.8511  34.8477
    38.9165  39.6226  40.4590  41.2816  42.8692  43.1472  44.7531  45.3474
    47.7554  48.1220  48.2334  49.5525  50.3885  50.6725  51.2464  51.6554
    51.8702  54.0208  54.6543  55.7343  57.7844  58.1638  58.2638  58.8190
    59.9486  60.2472  60.8989  62.2973  62.5811  63.6132  63.6151  64.4597
    65.6379  66.2024  66.5226  66.6340  67.5983  67.9508  68.6462  69.4369
    74.0114  74.0345  74.3789  74.5358  75.0258  75.5460  75.6747  75.7498
    76.8409  76.8808  76.9491  78.1947  78.5918  78.8255  79.8678  81.2292
    81.5072  81.5688  81.6796  81.7181  82.9089  84.3947  85.4494  86.0959
    86.6504  87.1829  87.4544  88.2467  88.2547  88.5817  89.9488  90.0505
    92.2402  92.6864  93.2160  93.5846  95.0924  95.2272  96.3812  96.5540
    98.9370 100.3747 102.2035 102.2428 103.3483 103.5885 104.1432 104.6166
   105.4724 106.4595 106.6478 107.2555 107.4906 108.5536 109.6229 109.7364
   109.7451 110.6855 110.8865 111.3689 111.5896 112.0931 113.0774 113.1849
   113.4258 113.5131 114.9458 115.1497 115.3160 115.4021 115.8065 115.8661
   115.9406 117.2175 117.8452 118.0454 118.5473 120.7393 120.8957 121.4581
   121.5228 121.5383 122.3755 122.4473 122.5460 122.7364 123.3722 124.4110
   124.8615 126.6758 127.2458 127.7605 128.3615 129.2815 129.8054 130.7847
   130.8710 131.3369 131.8355 131.8562 132.1419 132.2933 132.4517 133.7971
   134.0215 134.4543 134.5971 135.8558 135.9966 136.3530 136.3964 136.9542
   137.3238 138.4406 138.4588 138.5149 139.7781 140.7011 140.9679 141.3671
   141.4580 142.2950 142.3128 142.3170 142.4056 142.9394 143.0666 143.3857
   144.6852 145.0658 146.4307 146.5399 147.6110 147.8878 148.3714 148.5184
   149.3795 150.2446 151.0921 153.7996 154.0869 155.2180 155.4193 155.9303
   156.8921 156.9873 157.9211 158.1739 158.1921 159.0653 159.1195 159.3501
   159.6347 159.6842 159.7043 160.0295 160.6515 161.1452 161.4097 163.7565
   165.0444 165.6351 165.8052 165.8976 166.1056 166.5641 166.6561 167.0499
   167.1640 167.3874 167.8183 168.0708 168.2703 168.5908 168.7173 169.1516
   171.8367 171.9304 171.9498 172.0079 172.4614 172.8659 174.9290 175.3660
   176.2571 176.4624 177.1438 177.2135 177.5137 177.9003 178.0425 178.0653
   178.4178 178.4805 178.9634 179.2651 179.3603 180.0028 180.1603 182.5313
   182.5912 182.7393 183.4252 184.1880 184.3834 185.4444 185.8253 186.2497
   186.6777 188.1159 188.9968 189.4058 190.7158 191.2581 191.8534 192.5472
   192.5921 193.2181 193.4513 193.7067 194.5975 194.7245 194.8023 195.2933
   195.4449 195.4530 195.6629 195.8978 196.0517 196.0730 196.0837 196.3156
   196.4279 196.7626 196.7955 197.0576 197.2530 197.5361 197.9127 198.3443
   200.3346 200.3865 201.0081 202.2050 202.2781 202.5710 203.0126 203.0558
   205.8479 205.8648 205.8764 205.9848 206.0101 206.4177 206.5990 206.7340
   206.8921 206.8968 207.0376 207.5062 209.2317 209.4661 209.5358 209.8047
   210.3735 210.5926 210.7625 211.1010 211.5591 211.9595 212.3979 212.5368
   214.6410 214.6445 214.6738 215.3162 215.4254 215.6667 215.7352 215.7964
   215.8271 216.1814 216.1885 216.8114 216.9039 216.9638 217.1536 217.2165
   219.5850 220.0449 220.1251 220.2795 221.5489 221.7514 221.8302 221.8596
   222.6215 222.7448 223.0382 223.1322 224.0810 224.2817 224.5035 225.8227
   226.0353 226.0684 226.7293 227.5568 227.8109 227.8562 227.9838 228.0543
   229.0970 229.1326 229.3815 229.5266 232.1010 232.7601 232.7797 232.7877
   232.9130 233.6007 233.6258 233.6907 235.5801 235.6736 236.9892 238.9558
   239.0752 239.2663 239.2813 239.6985 240.8771 241.0000 241.1824 241.3575
   241.8577 242.2181 242.5100 242.5474 242.9385 242.9772 243.0059 243.0466
   244.4906 244.7655 245.2255 245.4974 246.9826 247.0879 247.4793 247.5992
   248.8866 249.3082 249.6597 249.8061 251.7321 251.7827 251.7936 251.9158
   252.0628 252.2451 252.3672 252.4098 252.4838 252.7633 252.8498 253.0342
   253.8155 253.8583 253.9136 254.3072 254.5315 254.5776 254.6424 254.6609
   257.0287 257.5281 257.5498 258.0368 258.7312 258.8733 258.9026 259.0230
   259.1575 259.2649 259.9428 260.2697 261.4372 261.4694 261.4727 261.5034
   265.0561 265.3902 266.7737 266.9110 266.9407 267.1307 267.2406 267.3331
   267.8820 267.9097 268.0588 268.2573 268.2612 269.0771 270.0545 270.1751
   270.4015 270.8764 271.0980 271.1735 271.7985 271.8346 272.1305 272.2047
   273.0638 273.6967 273.7482 273.8675 274.5202 275.2019 275.4428 275.9369
   277.0144 277.8424 278.1471 278.2811 278.3137 278.3349 278.4027 278.4273
   278.9055 279.2056 279.2404 279.2860 279.6276 279.7228 280.0101 280.0408
   280.0738 280.1446 280.7304 280.8069 285.7401 286.0076 286.3439 286.4015
   287.9346 288.1889 288.4101 289.0465 289.0606 289.0804 289.0977 289.9773
   291.9166 291.9376 291.9740 292.0700 293.6629 293.7220 294.2811 295.3240
   295.3350 295.5478 295.6525 295.7414 296.0873 296.2535 296.2871 296.3814
   297.0072 297.7789 297.8722 297.8858 297.9084 298.0955 298.2811 298.8997
   298.9185 299.2967 299.4521 299.6152 299.7596 299.8219 299.8867 300.1159
   300.3733 300.5167 300.7157 300.8140 301.0659 301.3472 301.4204 301.6136
   303.6512 303.6953 303.7434 303.8869 304.3337 304.3664 304.3963 304.5352
   304.7303 304.7315 304.8601 305.0285 305.7463 305.8214 305.9240 306.1287
   307.2011 307.2188 307.2733 307.2908 307.4660 307.6409 307.6679 307.6859
   310.1256 310.3255 310.4603 310.4890 310.7122 310.8473 310.8838 310.8978
   311.2214 311.2507 311.2728 311.3964 314.2900 315.1906 315.3425 315.4752
   317.1447 317.4056 317.5129 317.7959 317.8858 317.9904 318.0010 318.0499
   319.5117 319.9640 320.0336 320.4449 320.9304 320.9774 321.1608 321.3532
   323.1196 323.3410 323.3880 323.4266 324.0476 324.0774 324.3040 324.8333
   324.8599 324.9509 325.0076 325.0453 325.1247 325.3420 325.4838 325.6491
   325.7123 325.7338 325.9310 326.2069 326.4202 326.4244 326.5367 326.6274
   332.2672 332.3323 332.6229 332.6953 332.9477 333.4659 333.5465 333.8805
   334.3947 334.5640 334.8626 334.9396 334.9565 334.9877 335.0388 335.5369
   335.6537 335.6817 335.7157 335.8043 336.0208 336.0281 336.0482 336.0490
   336.2491 336.2564 336.3008 336.3080 336.3981 336.4217 336.5278 336.5346
   337.6965 337.7070 338.1455 338.1574 342.9658 343.2128 343.6569 343.8818
   344.0308 344.1121 344.2096 344.3149 345.7481 346.0418 346.0787 346.1473
   346.1680 346.1892 346.2128 346.2382 348.2944 348.6268 348.8537 350.2085
   350.2389 350.2610 350.3707 350.5340 350.9076 351.1218 351.2435 351.3818
   352.0046 352.0382 352.3053 352.4297 354.1347 354.1801 354.3674 354.3841
   354.4328 354.4818 354.8314 354.8678 355.1223 355.1406 355.1869 355.3551
   357.9007 358.0953 358.1004 358.5320 362.2456 362.6043 362.6633 362.8845
   362.9618 363.0994 363.2240 363.2363 366.4883 366.5219 366.7841 366.9369
   367.1265 367.5135 367.7573 367.7710 367.9719 368.0462 368.0609 368.1465
   370.8741 370.9110 370.9830 371.1125 371.2257 371.2483 371.3912 371.4096
   371.6354 371.6954 371.7766 372.1968 373.8376 373.9035 373.9160 373.9186
   374.1998 374.2166 374.2364 374.2621 377.0299 377.1029 377.5041 378.1030
   379.1602 379.6029 379.6046 379.8143 380.1756 380.4641 380.5664 381.0437
   381.2237 381.2284 381.2525 381.2888 381.4624 381.5917 381.6378 381.8202
   381.8477 381.9080 382.0194 382.0804 383.8512 383.9513 384.4972 384.7712
   385.0288 385.3224 385.3552 385.6961 387.2193 387.7405 387.8247 388.0526
   389.1496 389.1818 389.2570 389.3132 389.5722 389.8130 389.8156 389.8366
   390.2998 390.4254 390.5475 390.7619 390.7884 390.9017 390.9644 391.0648
   391.8508 391.8914 391.9600 391.9812 392.1126 392.1335 392.2568 392.3243
   392.8109 392.8154 392.8377 392.8383 393.4074 393.4111 393.4423 393.4534
   394.2057 394.2525 394.3332 394.6485 394.8051 394.8279 394.8894 395.0019
   398.2065 398.2284 398.2516 398.4928 399.1367 399.1375 399.3280 399.4929
   400.6179 400.6374 400.7996 400.8574 401.0572 401.1085 401.2426 401.3073
   401.4593 401.4906 401.5363 401.5925 401.6193 401.6428 401.6880 401.6991
   401.7002 401.7333 401.7557 401.7818 409.4097 409.4272 409.5235 409.7795
   409.9205 409.9449 409.9462 410.2060 410.2681 410.3438 410.6111 410.7511
   410.9198 410.9260 410.9904 411.2975 411.5696 411.5810 411.5833 411.6077
   414.2566 414.2743 414.5340 414.7184 415.2005 415.3314 415.3498 415.4774
   416.0012 416.2048 416.2089 416.5530 416.7766 416.9061 416.9740 417.4193
   417.5762 417.8068 418.1837 418.2782 418.3359 418.3430 418.3583 418.7331
   419.8671 420.0558 420.1201 420.1369 420.4423 420.6195 420.6455 420.9722
   422.3618 422.5205 422.6683 422.7219 423.3024 423.4178 423.4916 423.5464
   423.9196 424.2152 424.3673 424.5285 424.6095 425.0736 425.0768 425.1011
   429.0264 429.0284 429.0498 429.0702 429.5500 429.5584 429.5711 429.6061
   433.7011 434.0379 434.1867 434.3629 434.3884 434.5668 435.1300 435.3031
   435.5896 435.6016 435.6392 435.6833 436.0537 436.0580 436.2110 436.2982
   436.3164 436.4713 436.4829 436.5951 436.7768 436.8991 437.0580 437.1353
   437.1395 437.2131 437.3311 437.4417 437.8118 438.0115 438.4279 438.5374
   440.2389 440.4150 440.4675 440.4795 441.6513 441.7369 441.7903 441.8393
   442.4073 442.4364 442.6253 442.7293 443.1458 443.2278 443.2542 443.3643
   444.9293 445.1578 445.4581 445.5874 446.4806 447.0058 447.0283 447.1603
   447.1801 447.1978 447.2386 447.4114 447.5542 447.6446 447.7474 447.8740
   448.2616 448.2879 448.3793 448.4288 448.4324 448.4542 448.4825 448.5250
   448.9949 449.0005 449.0249 449.0877 450.3437 450.4053 450.5178 450.5663
   450.7067 450.7263 450.7400 450.7749 456.4807 456.5918 456.9431 456.9750
   456.9841 457.1312 457.1680 457.1843 457.2184 457.2429 457.2903 457.3942
   459.4105 459.4176 459.4895 459.9818 460.4159 460.7787 460.8124 461.0051
   461.6713 461.6791 461.7208 461.7885 462.9609 462.9716 462.9978 463.0280
   463.5028 463.5313 463.8156 463.9261 464.7586 464.8277 464.9023 465.1580
   466.4377 466.4491 466.4629 466.4787 467.6572 467.8201 467.9872 468.1598
   468.8315 468.8458 469.0681 469.0689 471.6408 471.8818 472.0436 472.4389
   472.4737 472.6623 472.7224 472.9400 473.0024 473.2437 473.2823 473.2945
   473.5520 473.6043 473.6728 473.8126 474.3900 474.3975 474.4658 474.4927
   475.3557 475.3590 475.4307 475.4338 475.5292 475.5527 475.5561 475.5577
   476.2481 476.2538 476.3529 476.3552 476.6561 476.6632 476.6857 476.7106
   477.0605 477.1126 477.1244 477.2050 477.2832 477.3025 477.3555 477.5112
   484.0759 484.1602 484.2326 484.3805 484.4743 484.5775 484.6417 484.7841
   484.9050 485.1364 485.4177 485.5835 485.6812 485.7131 485.8667 485.9944
   486.9763 486.9845 486.9852 487.0037 491.9261 492.0076 492.1072 492.1750
   492.2040 492.2605 492.4023 492.4221 493.4434 493.4949 493.6461 493.8101
   493.9134 494.0585 494.1092 494.2091 494.2254 494.3015 494.3173 494.3352
   494.8769 494.8895 494.8897 494.9081 495.1255 495.1366 495.2021 495.2338
   497.3581 497.3649 497.4373 497.4908 497.9255 498.0023 498.0302 498.2620
   499.8545 499.8758 499.9274 499.9927 501.0597 501.0840 501.0968 501.1061
   503.7115 503.7400 503.7615 503.7860 503.8351 503.8674 503.8809 503.9432

     the Fermi energy is     7.0245 ev
     (compare with:     6.3818 eV, computed in scf)

     Writing all to output data dir out/mp-2172.save/
 
     init_run     :      0.04s CPU      0.05s WALL (       1 calls)
     electrons    :    559.60s CPU    601.06s WALL (       1 calls)

     Called by init_run:
     wfcinit      :      0.00s CPU      0.00s WALL (       1 calls)
     potinit      :      0.01s CPU      0.01s WALL (       1 calls)
     hinit0       :      0.01s CPU      0.02s WALL (       1 calls)

     Called by electrons:
     c_bands      :    559.60s CPU    601.05s WALL (       1 calls)
     v_of_rho     :      0.01s CPU      0.01s WALL (       1 calls)

     Called by c_bands:
     init_us_2    :      0.00s CPU      0.00s WALL (       8 calls)
     init_us_2:cp :      0.00s CPU      0.00s WALL (       8 calls)
     paro_k       :    541.33s CPU    581.61s WALL (       8 calls)

     Called by paro_*:
     h_psi        :     10.37s CPU     10.88s WALL (     846 calls)
     g_psi        :      0.22s CPU      0.25s WALL (   80880 calls)

     Called by h_psi:
     h_psi:calbec :      0.21s CPU      0.22s WALL (     846 calls)
     vloc_psi     :      9.95s CPU     10.44s WALL (     846 calls)
     add_vuspsi   :      0.15s CPU      0.15s WALL (     846 calls)

     General routines
     calbec       :      0.20s CPU      0.22s WALL (     846 calls)
     fft          :      0.00s CPU      0.01s WALL (      10 calls)
     fftw         :      8.88s CPU      9.32s WALL (  133164 calls)
 
     Parallel routines
 
     PWSCF        :   9m20.29s CPU  10m 2.07s WALL

 
   This run was terminated on:   1:54:41  15Nov2023            

=------------------------------------------------------------------------------=
   JOB DONE.
=------------------------------------------------------------------------------=
