
     Program PWSCF v.7.1 starts on  6Dec2023 at 18:53: 4 

     This program is part of the open-source Quantum ESPRESSO suite
     for quantum simulation of materials; please cite
         "P. Giannozzi et al., J. Phys.:Condens. Matter 21 395502 (2009);
         "P. Giannozzi et al., J. Phys.:Condens. Matter 29 465901 (2017);
         "P. Giannozzi et al., J. Chem. Phys. 152 154105 (2020);
          URL http://www.quantum-espresso.org", 
     in publications or presentations arising from this work. More details at
     http://www.quantum-espresso.org/quote

     Parallel version (MPI), running on    24 processors

     MPI processes distributed on     1 nodes
     122691 MiB available memory on the printing compute node when the environment starts
 
     Reading input from pw_mp-406_nscf_k260_E61.in
Warning: card &IONS ignored
Warning: card / ignored
Warning: card &CELL ignored
Warning: card / ignored

     Current dimensions of program PWSCF are:
     Max number of different atomic species (ntypx) = 10
     Max number of k-points (npk) =  40000
     Max angular momentum in pseudopotentials (lmaxx) =  4

     Atomic positions and unit cell read from directory:
     out/mp-406.save/
     Atomic positions from file used, from input discarded
 
 
     K-points division:     npool     =       2
     R & G space division:  proc/nbgrp/npool/nimage =      12
     Subspace diagonalization in iterative solution of the eigenvalue problem:
     one sub-group per band group will be used
     scalapack distributed-memory algorithm (size of sub-group:  3*  3 procs)

 
     Parallelization info
     --------------------
     sticks:   dense  smooth     PW     G-vecs:    dense   smooth      PW
     Min         107     107     31                 2560     2560     408
     Max         108     108     32                 2565     2565     410
     Sum        1285    1285    379                30731    30731    4909
 
     Using Slab Decomposition
 


     bravais-lattice index     =            2
     lattice parameter (alat)  =      12.4046  a.u.
     unit-cell volume          =     477.1856 (a.u.)^3
     number of atoms/cell      =            2
     number of atomic types    =            2
     number of electrons       =        36.00
     number of Kohn-Sham states=         1200
     kinetic-energy cutoff     =      61.0000  Ry
     charge density cutoff     =     244.0000  Ry
     Exchange-correlation= PBE
                           (   1   4   3   4   0   0   0)

     celldm(1)=  12.404591  celldm(2)=   0.000000  celldm(3)=   0.000000
     celldm(4)=   0.000000  celldm(5)=   0.000000  celldm(6)=   0.000000

     crystal axes: (cart. coord. in units of alat)
               a(1) = (  -0.500000   0.000000   0.500000 )  
               a(2) = (   0.000000   0.500000   0.500000 )  
               a(3) = (  -0.500000   0.500000   0.000000 )  

     reciprocal axes: (cart. coord. in units 2 pi/alat)
               b(1) = ( -1.000000 -1.000000  1.000000 )  
               b(2) = (  1.000000  1.000000  1.000000 )  
               b(3) = ( -1.000000  1.000000 -1.000000 )  


     PseudoPot. # 1 for Cd read from file:
     /usr/scratch4/magr4985/MG/HTDF/pseudo/SG15/Cd.upf
     MD5 check sum: 810a600e5a5ac944c8c8f48f0d721646
     Pseudo is Norm-conserving, Zval = 20.0
     Generated using ONCVPSP code by D. R. Hamann
     Using radial grid of  602 points,  6 beta functions with: 
                l(1) =   0
                l(2) =   0
                l(3) =   1
                l(4) =   1
                l(5) =   2
                l(6) =   2

     PseudoPot. # 2 for Te read from file:
     /usr/scratch4/magr4985/MG/HTDF/pseudo/SG15/Te.upf
     MD5 check sum: dd4de4dac1e38587f63aaf3700bb29d3
     Pseudo is Norm-conserving, Zval = 16.0
     Generated using ONCVPSP code by D. R. Hamann
     Using radial grid of  602 points,  6 beta functions with: 
                l(1) =   0
                l(2) =   0
                l(3) =   1
                l(4) =   1
                l(5) =   2
                l(6) =   2

     atomic species   valence    mass     pseudopotential
        Cd            20.00   112.41100     Cd( 1.00)
        Te            16.00   127.60000     Te( 1.00)

     24 Sym. Ops. (no inversion) found



   Cartesian axes

     site n.     atom                  positions (alat units)
         1           Cd  tau(   1) = (   0.0000000   0.0000000   0.0000000  )
         2           Te  tau(   2) = (  -0.2500000   0.2500000   0.2500001  )

     number of k points=    16  Gaussian smearing, width (Ry)=  0.0005
                       cart. coord. in units 2pi/alat
        k(    1) = (   0.0000000   0.0000000   0.0000000), wk =   0.0092593
        k(    2) = (  -0.1666667   0.1666667  -0.1666667), wk =   0.0740741
        k(    3) = (  -0.3333333   0.3333333  -0.3333333), wk =   0.0740741
        k(    4) = (   0.5000000  -0.5000000   0.5000000), wk =   0.0370370
        k(    5) = (   0.0000000   0.3333333   0.0000000), wk =   0.0555556
        k(    6) = (  -0.1666667   0.5000000  -0.1666667), wk =   0.2222222
        k(    7) = (   0.6666667  -0.3333333   0.6666667), wk =   0.2222222
        k(    8) = (   0.5000000  -0.1666667   0.5000000), wk =   0.2222222
        k(    9) = (   0.3333333   0.0000000   0.3333333), wk =   0.1111111
        k(   10) = (   0.0000000   0.6666667   0.0000000), wk =   0.0555556
        k(   11) = (   0.8333333  -0.1666667   0.8333333), wk =   0.2222222
        k(   12) = (   0.6666667  -0.0000000   0.6666667), wk =   0.1111111
        k(   13) = (   0.0000000  -1.0000000   0.0000000), wk =   0.0277778
        k(   14) = (   0.6666667  -0.3333333   1.0000000), wk =   0.2222222
        k(   15) = (   0.5000000  -0.1666667   0.8333333), wk =   0.2222222
        k(   16) = (  -0.3333333  -1.0000000   0.0000000), wk =   0.1111111

     Dense  grid:    30731 G-vectors     FFT dimensions: (  45,  45,  45)

     Estimated max dynamical RAM per process >     109.55 MB

     Estimated total dynamical RAM >       2.57 GB

     The potential is recalculated from file :
     out/mp-406.save/charge-density

     Starting wfcs are random

     Band Structure Calculation
     Davidson diagonalization with overlap

     ethr =  5.00E-06,  avg # of iterations = 10.5

     total cpu time spent up to now is      787.2 secs

     End of band structure calculation

          k = 0.0000 0.0000 0.0000 (  3839 PWs)   bands (ev):

   -94.1234 -55.1676 -55.1676 -55.1676 -28.0177 -28.0177 -28.0177 -28.0101
   -28.0101  -2.9989  -0.1805  -0.1805  -0.1805   0.0556   0.0556   7.9655
     7.9655   7.9655   8.6228  12.6194  12.6194  12.6194  15.4345  17.3645
    17.3645  18.1267  18.1267  18.1267  20.4198  27.8724  27.8724  27.8724
    28.9354  28.9354  28.9354  30.1776  30.1776  30.1776  30.8813  30.8813
    35.3456  36.4960  37.2617  37.2617  37.2617  38.7140  38.7140  38.7140
    38.8266  38.8266  38.8266  39.7732  39.7732  40.7922  40.7922  40.7922
    41.4897  41.4897  41.4897  41.7029  41.7029  41.7029  42.7299  44.4143
    44.4143  46.4296  46.4296  46.4296  46.8681  46.8681  46.8681  47.0534
    51.0111  55.7762  55.7762  55.7762  56.5137  56.5137  56.5137  58.0571
    59.1312  59.1312  62.5838  62.5838  62.5838  63.6167  64.0090  64.0090
    64.0090  64.3949  64.3949  66.1410  66.1410  66.1410  67.3904  67.3904
    67.3904  68.4303  68.4303  69.8301  69.8301  69.8301  70.0957  70.0957
    70.0957  71.4047  71.4047  71.4047  71.8209  71.8209  71.8210  71.8791
    72.8907  73.3775  73.3775  73.7602  73.7602  73.7602  74.6902  74.6902
    74.6902  76.1475  76.1492  76.1492  76.8323  76.8323  76.8323  78.6630
    78.6630  78.6630  80.8899  80.8899  80.8899  82.2048  82.2049  82.2049
    82.9063  82.9063  82.9063  84.2720  84.5078  84.5078  87.0998  88.5267
    88.5787  88.5787  89.1134  89.1134  89.1134  89.6043  89.6043  89.6043
    90.7002  90.7002  90.7002  93.0089  93.9599  93.9599  93.9599  93.9840
    94.7941  94.7941  94.7941  95.0478  95.0478  95.0478  95.8444  95.8444
    97.0059  97.0059  97.0059  97.1513  97.1513  97.1513  97.9976  97.9976
    97.9976  99.7542  99.7542 100.5706 100.5706 100.5706 101.1024 101.1024
   101.1024 103.0998 106.8341 107.6267 107.6267 107.6267 109.2859 109.2859
   110.1038 111.6903 111.6903 111.6903 112.5377 112.5377 112.5377 113.9478
   113.9478 113.9478 115.4322 115.4322 115.4322 117.1895 117.1895 117.1895
   117.7895 117.7895 119.2715 119.2715 119.2715 119.6011 119.6011 119.6011
   120.0372 121.3120 121.3120 121.3120 121.4150 121.6340 121.6340 121.9845
   121.9845 121.9845 122.4973 122.4973 122.4973 123.0482 123.3485 123.3485
   123.3485 123.6864 123.6864 123.8773 123.8773 123.8773 124.1282 124.5292
   124.5564 124.5564 124.5564 124.8813 124.8813 126.9688 126.9688 126.9688
   127.4412 127.4412 127.4412 127.7148 127.7148 127.7148 128.2556 128.2556
   128.6367 128.6367 128.6367 129.4641 129.4641 129.7129 129.7129 129.7129
   131.9240 131.9240 131.9240 133.2971 133.3654 133.3654 134.2957 134.2957
   134.2957 136.9499 138.0919 138.0919 138.0919 138.1436 138.1436 138.1436
   138.3850 138.3850 138.3850 139.2083 139.2083 139.2083 140.1887 141.1595
   141.1595 141.1595 141.6917 141.6917 141.8728 141.8728 141.8728 141.9889
   142.8976 142.8976 142.8976 144.5382 144.5382 144.5382 145.1596 145.1596
   145.1596 145.9349 145.9349 146.6866 146.6866 146.6866 148.3705 148.3705
   148.3705 149.3408 151.2571 151.2571 151.8569 151.8569 151.8569 152.3398
   152.3398 153.0224 153.7891 153.7891 153.7891 153.9789 153.9789 153.9789
   154.7962 154.7962 154.7962 155.7695 155.7695 155.7695 156.5886 156.5886
   159.0805 159.0805 159.0805 160.8250 160.8250 161.2707 161.2707 161.2707
   162.8802 163.3168 163.3168 163.3168 163.8095 163.8522 163.8522 163.8523
   167.1281 167.1281 167.1281 167.3136 167.3136 167.3136 167.3327 167.3327
   167.3327 167.7275 168.1898 168.1898 170.8227 170.8227 170.8227 171.0353
   171.1682 171.1682 172.2146 172.2146 172.2146 172.4780 173.8294 176.1116
   176.1116 176.1116 176.6773 176.6773 176.6773 176.9162 176.9162 176.9162
   177.0508 177.0508 177.0508 179.5598 179.5598 179.5598 180.1960 180.2369
   180.2369 180.2369 180.2761 180.2761 180.2761 180.3688 180.3688 180.5072
   180.5072 180.5072 180.5196 180.8215 180.8215 180.8215 182.6772 182.6772
   183.0598 183.0598 183.0598 183.8376 183.8376 183.9028 183.9763 183.9763
   183.9763 184.3444 184.3444 184.3444 186.0914 186.6687 186.6687 186.6687
   186.9916 186.9916 186.9916 187.2592 187.2592 187.2592 188.0142 188.0142
   188.0142 189.0405 189.0405 189.5191 189.5191 189.5191 192.3075 192.3075
   193.3155 193.3155 193.3155 193.3898 193.3898 193.4561 193.4561 193.4561
   194.0458 194.0458 194.0458 194.1231 194.1231 194.1231 194.5511 195.1469
   195.1469 195.1469 195.3827 196.2418 196.2418 196.6915 196.6915 196.6915
   197.2307 197.2307 197.2307 197.5844 198.5568 199.9125 199.9125 199.9125
   200.6636 200.6636 201.1099 201.1099 201.1099 201.3681 201.3681 201.3681
   201.3952 201.3952 201.3952 203.1364 203.7663 203.7663 203.7663 204.0182
   204.0182 204.0182 204.3041 205.6370 205.6370 205.6520 205.6520 205.6520
   205.8467 205.8467 205.8467 205.8861 205.8861 205.8861 206.0996 206.0996
   206.0996 206.1477 206.1477 206.6406 206.7659 206.7659 206.7659 207.0968
   207.0968 207.0968 207.4783 207.6023 207.6023 207.6023 207.6046 207.6046
   207.8021 207.8021 207.8021 207.9440 207.9440 207.9440 208.2227 208.2227
   208.2827 208.2827 208.2827 215.3302 215.3302 215.5910 215.5910 215.5910
   219.0468 219.0468 219.0757 219.0757 219.0757 219.1451 220.6428 220.6428
   220.6428 222.1895 223.3582 223.3582 223.3582 224.1549 224.5279 224.5279
   224.5279 225.4462 225.4462 225.4462 225.6211 225.6212 225.6212 225.8125
   225.8125 226.2097 226.2097 226.2097 226.5646 229.7760 229.7760 229.7760
   230.5019 230.5019 230.6752 230.6752 230.6752 232.6311 233.3408 234.4167
   234.4167 235.0970 235.0970 235.0970 235.6200 235.6200 235.6200 236.0229
   236.0229 236.0229 236.1453 236.1453 236.1453 237.2456 237.2456 237.2456
   237.3043 237.3043 237.3043 237.6083 237.6083 237.6558 237.6558 237.6558
   237.7781 237.7781 237.7781 238.9849 238.9849 239.0082 239.0082 239.0082
   239.0265 239.0265 239.0265 239.1902 239.2103 239.2103 239.5029 239.5029
   239.5029 239.8502 239.8502 239.8502 241.8736 243.7862 243.7862 244.2140
   244.2140 244.2140 244.7091 244.7091 245.3430 245.3430 245.3430 245.8434
   245.8434 245.8434 246.4510 246.6245 246.6245 246.6245 247.9187 247.9187
   247.9187 248.5356 248.5356 248.5356 248.7326 248.7326 248.7326 248.8105
   248.8105 248.8105 249.3426 250.7536 250.8241 250.8241 250.8241 251.0099
   251.0099 253.6680 253.6680 253.6680 254.5011 254.5011 254.5011 255.0274
   255.5439 257.8391 257.8391 257.8398 257.8398 257.8398 257.9746 257.9746
   257.9746 258.5590 258.5590 258.5590 258.6592 258.6592 259.0171 259.2115
   259.2115 259.2115 259.3293 259.3891 259.3891 259.3891 259.4433 259.4433
   259.4433 260.2640 260.2640 260.6192 260.6192 260.6192 260.7898 260.7898
   260.7898 260.9842 260.9842 260.9842 261.2314 263.5671 263.5671 264.0070
   264.0070 264.0070 264.1024 264.1024 264.1024 264.6029 264.6029 264.6029
   265.2765 266.2997 266.2997 266.4342 266.4342 266.4342 266.4851 266.4851
   266.4851 266.7341 266.7341 266.7341 266.9483 270.8991 270.8991 273.1252
   273.1252 273.1252 273.6413 273.6413 274.5571 274.5571 274.5571 274.7556
   274.9382 274.9382 274.9382 275.3982 275.3982 275.3982 275.9384 275.9384
   275.9384 276.1852 276.1852 276.1852 276.4384 277.6895 277.7324 277.7324
   277.7324 277.7346 277.7346 277.7579 277.7579 277.7579 277.8062 278.2679
   278.2679 278.2679 278.9871 278.9871 278.9871 279.3859 279.3859 279.3859
   279.6188 279.6188 279.6188 280.4991 280.4991 280.7461 281.7781 281.7781
   281.7781 282.4111 282.4111 284.0598 284.0598 284.0969 284.0969 284.0969
   284.1301 284.2314 284.2314 284.2314 285.1688 285.1688 285.1688 285.9194
   285.9194 285.9194 286.1010 286.1010 286.1010 286.6434 286.6434 287.1356
   287.1356 287.1356 287.2740 287.2740 287.6034 287.6034 287.6034 287.8630
   288.5742 289.0082 289.0082 289.0082 289.1456 289.5267 289.5267 289.5267
   289.6330 289.6330 289.6330 290.0980 290.0992 290.0992 290.0992 290.1586
   290.1586 290.1586 290.3092 290.3092 290.3092 290.8544 290.8544 291.4162
   291.4162 291.4162 291.4843 291.4843 291.4843 291.6406 291.6406 291.6406
   291.8235 291.8235 291.9128 291.9128 291.9128 294.0338 294.0338 294.2870
   294.2870 294.2870 294.6369 294.6369 294.6369 294.8478 294.9621 294.9621
   294.9621 294.9965 294.9965 294.9965 295.4489 295.4489 295.4621 295.4621
   295.4621 295.8085 295.8085 295.8085 295.9883 298.3721 298.3721 298.3721
   298.9145 298.9265 298.9265 298.9265 299.4725 306.7455 306.7455 307.2573
   307.2573 307.2573 307.3546 307.3546 307.3546 307.3780 307.3780 307.3780
   307.4488 307.4488 307.4576 307.4576 307.4576 309.3460 309.3460 310.5564
   310.5564 310.5564 311.0993 311.0993 311.0993 311.1187 311.1858 311.1858
   311.5655 311.5655 311.5655 311.7388 311.7388 311.7388 311.7468 311.7468
   311.7468 311.9432 311.9432 311.9432 312.6321 317.0616 317.0616 317.0616
   317.2075 317.2075 317.2075 317.3613 317.3613 317.3909 317.3909 317.3909
   317.4426 317.4426 317.4426 317.5138 317.5138 317.5138 317.5154 318.1229
   318.1229 318.2116 318.2116 318.2116 318.3288 323.6674 323.6674 323.6674
   324.8281 324.8281 324.8281 325.4099 325.7301 326.3870 326.3870 326.6108
   326.6108 326.6108 327.2168 327.2168 327.3337 327.3337 327.3337 327.4411
   327.4411 327.4411 327.8522 327.8522 327.8522 327.8726 327.8726 327.8726
   328.2479 328.2479 328.2479 328.9311 328.9311 329.4320 329.4320 329.4320
   329.9408 333.4182 333.6679 333.6679 333.6679 334.2625 334.2625 334.2625
   334.7924 334.7924 334.9965 334.9965 334.9965 336.5109 336.6179 336.6179
   336.6179 337.2727 337.2727 337.2727 338.1745 339.2815 339.2815 340.3066
   340.3066 340.3066 340.6818 340.6818 341.0595 341.0595 341.0595 341.2869
   341.2869 341.2869 341.4751 341.4751 341.4751 342.3907 343.2262 343.2262
   343.2262 343.5794 343.7187 343.7187 343.7187 345.1406 345.1406 345.6290
   345.6290 345.6290 346.2183 346.2183 346.3024 346.3609 346.3609 346.3609
   346.3916 346.3916 346.3916 346.5288 346.5288 346.5288 346.7390 346.7390
   346.7561 346.7561 346.7561 346.9744 347.2827 347.2827 347.2827 347.5585
   347.5585 347.5585 347.7904 347.7904 347.8216 347.8216 347.8216 349.8277
   349.8277 349.8485 349.8485 349.8485 349.8523 349.8523 349.8523 349.9464
   349.9464 349.9464 350.1159 351.4132 351.4132 352.0679 352.0679 352.0679
   352.4392 354.5534 354.5534 354.5534 354.9074 354.9074 354.9074 354.9167
   354.9167 355.1999 355.1999 355.1999 355.9360 357.0418 357.0418 357.0418
   357.0498 357.0498 357.1658 357.1658 357.1658 357.2425 357.2425 357.2425
   357.4816 357.7273 357.7273 357.7273 357.9189 357.9189 357.9189 358.1925
   358.4611 358.4611 358.4611 358.9652 358.9652 361.0555 361.0555 361.0555
   361.5507 361.5507 361.5507 361.6258 361.6258 361.6258 361.9915 361.9915
   361.9915 362.4352 362.4352 362.4449 362.4449 362.4449 362.5491 362.5491
   362.5491 362.6245 362.6245 362.6245 362.7017 364.6934 364.6934 364.6934
   364.7005 364.7005 364.8024 364.8024 364.8024 364.9655 365.3490 365.3490
   365.3490 365.7216 365.7216 366.0281 366.4158 367.4447 367.4447 367.4447
   368.2403 368.2403 368.2403 368.5261 368.5261 368.5261 368.9043 368.9043
   368.9043 368.9846 369.5592 369.5592 369.5861 369.5861 369.5861 369.7546
   369.7546 370.0493 370.0493 370.0493 370.5690 370.5690 370.5690 370.6185
   370.6185 370.6185 371.4028 371.5632 371.5632 371.5632 372.4495 372.6481
   372.6481 372.7044 372.7044 372.7044 372.8920 372.8920 372.8920 373.0294
   373.0294 373.0294 373.1462 373.4282 373.4282 373.5898 373.5898 373.5898

          k =-0.1667 0.1667-0.1667 (  3801 PWs)   bands (ev):

   -94.1234 -55.1676 -55.1676 -55.1676 -28.0177 -28.0177 -28.0177 -28.0101
   -28.0101  -2.9077  -0.1637  -0.1637  -0.1010   0.0547   0.0547   6.2813
     7.7564   7.7564   9.7336  12.6910  12.9419  12.9419  16.4261  16.4936
    16.4936  17.7647  19.9043  19.9043  22.0966  25.2467  25.2467  25.5977
    28.0489  28.9220  28.9220  30.5970  30.5970  32.0702  33.7262  33.7262
    34.3055  34.3055  34.5036  36.2902  36.7551  36.7652  36.7652  37.2602
    37.5314  38.0735  38.0735  39.7517  40.3130  40.3130  41.4401  41.4401
    41.6919  42.3291  42.3291  43.4514  43.5013  44.1828  44.1828  45.1353
    45.1353  46.1807  46.8255  46.8255  47.5624  49.4604  49.4604  50.9781
    52.7775  53.5022  53.5022  54.2599  54.7589  54.7589  56.3074  59.5520
    59.5520  60.5519  61.2299  61.2299  61.4921  61.7758  61.7758  62.7851
    62.8293  64.7035  64.9520  64.9520  65.0177  65.5188  65.5188  66.3437
    66.8632  66.8632  68.5480  68.5480  69.3170  69.3488  69.3488  70.1303
    70.1303  70.8728  70.9337  71.6054  71.6054  71.9515  71.9515  73.2186
    73.5122  73.5122  74.3535  74.3535  74.5829  74.7811  75.7523  75.7523
    76.4669  76.4669  76.6944  77.5292  77.9902  77.9902  78.9677  78.9869
    79.5432  79.5432  80.3772  81.3348  81.3348  82.1831  82.1831  83.8078
    83.9329  83.9329  84.3687  85.0495  85.1061  85.1061  85.8460  86.1533
    86.7166  87.2567  87.2567  87.9631  87.9631  89.2266  89.6849  89.7840
    90.6117  90.6117  91.0824  91.0824  91.6549  91.7659  91.7659  93.3157
    93.3157  93.4282  93.8156  93.8156  95.1761  95.4374  95.4374  97.4952
    97.7919  98.5178  98.5178  99.5205  99.5205  99.8928 100.3252 100.3252
   101.4904 101.4904 101.8542 102.1636 102.1636 102.2503 103.1125 103.8066
   103.8066 105.4215 106.7327 106.7327 106.9311 106.9929 107.6702 107.6702
   108.0088 110.2612 110.2612 110.7478 111.1921 111.1921 112.0465 112.2595
   112.2595 112.7285 114.1336 114.1336 114.3902 114.7915 114.7915 115.2097
   116.0562 116.4583 116.4583 116.8523 117.2057 117.2057 117.4908 118.0794
   118.0794 118.7166 118.7166 119.3273 119.8085 120.4328 120.4328 120.5137
   120.8407 120.8407 121.6686 121.6686 121.7776 122.8129 122.8129 123.2686
   123.2686 123.5428 124.1725 124.1947 124.1947 124.6704 125.3470 125.3470
   125.6979 126.2945 126.8052 126.8052 126.9525 127.7944 127.7944 128.3006
   128.4688 128.4688 129.5736 129.5737 129.7524 130.2607 130.2607 130.6840
   130.7244 130.8821 130.9956 130.9956 131.7036 131.7036 132.1179 132.1179
   132.8135 133.1796 133.1796 133.4577 133.4741 133.4741 134.0446 134.3184
   134.6584 134.6584 135.0860 135.4079 135.4079 136.3266 136.5787 136.5787
   137.5378 137.5378 138.1323 139.1145 139.4258 139.4258 139.4435 139.9509
   139.9509 141.6603 142.0228 142.0228 142.4208 142.4208 142.9562 143.9855
   143.9895 143.9895 145.1163 145.1163 145.8673 145.8674 145.8747 147.2327
   147.2327 147.3085 147.8188 147.8687 147.9938 147.9938 148.8331 148.8331
   149.4775 149.8959 150.0529 150.0529 150.3247 150.9703 150.9703 151.4724
   151.9346 151.9346 152.7852 153.3393 153.3393 154.1503 154.4583 154.4583
   155.5774 155.5774 155.5922 156.9200 157.4960 157.4960 159.1083 159.3076
   159.3076 160.1025 160.1529 160.1529 160.2976 160.8920 160.8920 162.0242
   162.0242 162.5654 163.4559 163.7362 163.7362 163.8133 164.4358 164.5140
   164.5140 165.4145 165.4145 166.2312 166.3905 166.3905 166.6619 168.2765
   168.4164 168.4164 168.4486 169.1680 169.1680 169.3062 169.8072 169.8072
   171.0739 171.0739 171.1802 171.2023 171.4812 171.4812 171.9795 171.9795
   172.6873 173.3481 173.3481 174.4377 174.8027 174.8027 175.4588 175.4588
   175.6276 176.8122 176.8122 176.9717 177.1322 178.3874 178.6564 178.6564
   179.3073 179.3073 179.4218 179.6046 179.9064 179.9064 180.2293 180.2723
   180.2723 180.9763 181.3075 181.3075 181.8796 181.9414 181.9414 182.8097
   182.8097 183.0283 183.3881 184.0230 184.4609 184.9490 184.9490 185.7207
   185.7207 186.1179 186.1179 186.3267 186.4699 186.4699 186.7986 186.7986
   186.9021 187.3880 187.5879 187.5879 188.6091 188.7006 188.8621 188.8621
   189.8935 189.8935 190.5487 190.6069 190.6069 191.0767 191.0767 191.2475
   191.2997 191.7635 191.7636 191.9026 192.2539 192.2539 192.5080 192.5897
   192.5897 192.6201 192.8574 194.4507 194.4648 194.4648 194.7816 194.7816
   194.8700 195.1005 195.1005 195.2032 195.3238 195.3238 196.5378 196.5378
   196.7455 196.7455 196.8503 197.1144 197.7307 198.9475 198.9475 199.3485
   199.3485 199.4505 199.7603 199.7603 199.8509 200.2334 200.2335 200.6938
   200.8576 200.8576 200.8863 201.9015 201.9015 202.3819 203.1753 203.1753
   203.4021 203.9330 203.9330 203.9365 204.2139 204.2148 204.2149 204.7635
   204.7912 204.7912 206.0319 206.8847 206.8847 207.4155 207.9540 207.9546
   207.9546 208.4480 208.4480 209.3582 209.3582 209.5314 210.1603 210.1603
   210.5109 210.5109 210.5182 210.7494 210.8178 211.4889 211.4889 211.9171
   212.2941 212.2941 213.0755 213.5249 213.5249 213.6167 213.7752 213.7752
   214.8596 214.8596 215.9028 216.1020 216.1020 216.2652 216.4342 216.8122
   216.8122 217.5980 218.0485 218.1071 218.1431 218.1431 219.4312 219.4312
   220.0311 220.1460 220.1460 222.2074 222.2712 222.2712 222.6498 222.6498
   222.7604 222.7604 223.5286 224.0298 224.0298 225.1823 225.3542 225.3542
   226.1074 226.3240 226.3240 226.8061 227.1102 227.1102 227.9309 227.9309
   228.0376 228.8076 229.1108 229.1108 230.4079 230.4079 230.9021 230.9420
   230.9628 230.9628 231.4384 231.7601 231.7601 232.0910 232.0910 232.6268
   232.9968 232.9968 233.3127 233.5120 233.5120 233.5754 234.6408 235.4362
   235.4362 235.5386 236.3010 237.2102 237.2102 237.6455 237.6916 237.6916
   237.7416 238.3375 238.3375 238.6679 239.5103 239.9972 240.1637 240.1637
   240.5648 240.5648 240.5839 240.9603 240.9603 242.3399 242.3399 243.1141
   243.2394 243.2394 243.9800 244.1506 244.1506 244.3940 244.4424 244.4424
   244.7944 244.9579 244.9579 245.0093 245.3423 245.3569 245.3569 245.3581
   245.5396 245.9145 245.9145 246.3290 246.3290 246.7486 247.1515 247.1515
   247.6841 247.6841 247.8468 247.9710 248.2543 248.2543 249.6725 249.6725
   249.7886 249.9137 249.9137 250.0054 250.1552 250.5914 250.5914 251.8234
   251.8234 252.0411 253.8885 254.2483 254.2483 254.6384 254.6720 254.6720
   256.7357 256.7640 256.7640 257.0546 257.0546 257.3131 257.4939 257.4939
   257.7848 257.8521 257.8864 257.8864 258.2420 258.2420 258.4556 258.8979
   258.8979 259.0902 259.3637 259.3637 259.4890 260.1924 260.1924 260.2194
   260.4967 260.4967 260.9785 261.4308 261.4308 261.7348 261.8216 261.8216
   262.1423 262.8547 262.8547 263.0377 263.0377 263.4432 263.4469 263.6487
   263.6487 263.8299 264.0906 264.0906 264.1417 264.2709 264.2709 264.4195
   266.8222 266.8222 266.8332 267.5633 267.5633 268.0819 268.1281 268.1281
   268.4903 268.5415 268.5415 268.7625 269.8765 270.1251 270.1251 270.6272
   270.6272 270.6834 271.1284 272.0952 272.0952 272.1423 272.5118 272.5118
   272.7154 272.8503 272.8503 272.8589 273.3660 273.4034 273.4034 273.7069
   274.3692 274.3692 274.6254 274.8374 274.8374 275.1917 275.1917 275.2822
   275.2822 275.6444 275.6457 276.6954 276.6954 277.1970 277.1970 277.4483
   277.7906 277.7906 278.0184 278.5791 278.6348 278.6348 279.2267 279.7366
   280.0469 280.0469 280.2001 280.2457 280.2457 280.5330 280.5330 280.8009
   280.8903 280.8903 281.0582 281.1815 281.1815 281.4215 281.4972 281.4972
   281.8106 281.8925 281.8925 282.0907 282.2243 282.2838 282.2838 282.4698
   284.2628 284.2628 284.4701 284.4701 284.9218 285.3050 285.9204 286.0587
   286.1931 286.1931 286.4030 286.4030 287.5468 287.5468 288.2425 288.2425
   288.6996 288.7114 288.7966 288.7966 288.9083 289.2240 289.2240 289.2442
   289.2442 289.3531 290.0727 290.0727 290.5731 291.3768 291.3768 291.6363
   291.6933 291.6933 291.8913 292.5904 293.3296 293.3296 293.7837 293.9384
   293.9384 294.2573 294.5114 294.5114 294.6655 294.6655 294.7250 296.0101
   296.1678 296.1678 296.3366 296.3366 296.3433 296.5355 296.8075 296.8075
   297.1077 297.1077 297.4169 298.2095 298.3721 298.3721 299.6230 299.6456
   299.6456 299.9302 299.9302 300.2919 300.5287 300.5287 300.5579 300.7863
   300.8489 300.8489 300.9924 301.0424 301.0424 301.2660 301.4872 301.4872
   302.7392 302.7392 302.9548 303.1463 303.1463 303.2476 303.3988 303.4726
   303.4726 304.0871 304.0871 304.4707 305.1769 305.1769 305.2551 305.2803
   305.8754 305.8754 306.1377 306.1377 306.2691 306.9716 307.0493 307.9457
   308.0168 308.0168 308.3247 308.3247 308.3990 308.3990 308.5225 309.6642
   309.6642 311.4924 311.6764 311.6764 311.8699 311.8699 312.0596 312.4312
   312.4312 312.4771 312.5368 312.5933 312.5933 315.3472 315.3472 315.8868
   315.8868 315.9032 316.1913 316.5831 316.5831 316.8522 317.4133 317.5694
   318.5816 318.5816 318.9833 320.0128 320.0128 320.5199 320.5199 320.6993
   321.1960 321.1960 321.3963 321.4391 323.2929 323.2929 323.5155 323.5155
   323.6396 324.7413 324.7413 325.2435 325.7511 325.7511 326.1288 326.3314
   326.3314 326.4424 326.8234 326.8234 327.1092 327.2209 327.2209 327.5642
   327.5965 327.5965 327.8436 327.8436 328.6138 329.2231 329.2231 329.2936
   329.2936 329.4968 329.5238 330.1204 330.1204 330.3914 330.4285 330.6960
   330.6960 332.2077 332.2077 332.4312 332.6890 332.6890 332.8499 333.0358
   333.3098 333.3098 333.7598 333.7598 333.9112 333.9473 333.9473 334.0006
   334.0678 334.0678 334.4339 334.6888 334.6888 335.0380 335.6378 335.6378
   336.1806 337.6563 337.6563 338.0076 338.1038 338.2659 338.2659 338.4862
   338.4862 338.7763 339.0168 339.0168 339.2779 340.2219 340.2219 340.6602
   340.6602 340.7113 340.9605 341.6079 341.8278 341.8278 342.5387 342.5387
   342.6318 342.9753 342.9753 343.0798 343.7886 345.0348 345.3320 345.3320
   345.8046 345.8046 345.9337 346.1421 346.1421 346.2094 346.7471 346.7938
   346.7938 347.2094 347.4147 347.4147 347.5231 347.5231 347.6013 348.5885
   348.5885 349.1047 349.6161 349.6161 349.8076 349.9879 350.0075 350.0075
   350.4256 350.4256 350.5008 350.5700 350.5700 350.7960 350.8549 350.8549
   351.4726 351.4726 351.5151 351.6679 351.6679 351.7252 352.5701 352.7131
   352.7131 353.0328 353.0328 353.2477 353.6904 353.7311 353.7311 354.1719
   354.2135 354.2135 354.4076 354.4076 354.4363 354.7709 354.7709 354.8135
   354.8879 355.1841 355.1841 355.2679 355.4328 356.1765 356.2352 356.2352
   356.5332 356.5332 357.1061 357.1061 357.1784 357.4345 357.9838 357.9838
   358.0498 358.0984 358.0984 358.1101 358.1939 358.7194 358.7194 358.8161
   358.8268 358.8268 358.8652 358.8652 358.9475 359.4268 359.4268 359.8142
   359.8142 360.1194 360.6461 360.6461 360.8868 361.4995 361.4995 361.6803
   361.8448 363.1230 363.1230 363.3762 363.4633 363.4633 363.6050 363.8208
   364.0676 364.0676 364.2427 364.2427 364.3827 364.4913 364.6127 364.6127
   365.6479 365.6479 366.1017 366.1017 366.1768 366.4108 366.4231 366.5162
   366.5162 366.7683 366.7683 367.2520 367.2520 367.5905 368.5662 368.8519
   369.1298 369.1298 369.5128 369.5128 369.7168 369.8165 369.8165 370.0512
   370.0512 370.0535 370.1339 370.1339 370.2367 370.2584 370.2584 370.4089
   371.5136 371.6936 371.6936 372.5600 372.5600 372.6544 372.6544 372.8722
   373.3232 373.6724 373.6724 373.7342 374.5339 374.5801 374.5801 374.6188
   375.0783 375.0783 375.3741 375.3741 375.4168 375.8213 375.8213 376.0289

          k =-0.3333 0.3333-0.3333 (  3855 PWs)   bands (ev):

   -94.1234 -55.1676 -55.1676 -55.1676 -28.0178 -28.0175 -28.0175 -28.0100
   -28.0100  -2.7258  -0.1347  -0.1347   0.0584   0.0584   0.1555   4.5432
     7.4031   7.4031   9.8535  13.2238  13.2238  14.1285  16.0899  16.8809
    16.8809  20.0656  21.7724  21.7724  22.3026  22.8002  22.8002  25.2735
    28.4726  29.5718  29.5718  29.8795  29.9471  29.9471  31.0363  31.0363
    33.2955  33.4335  34.7400  35.0184  35.0184  35.9206  35.9206  36.1118
    37.1689  38.5484  38.5484  40.1958  40.1958  41.2747  41.3392  41.3392
    41.9979  44.3936  44.3936  45.2547  45.6913  45.6913  47.4743  48.1589
    48.7299  48.7299  49.0952  49.4814  49.4814  50.2865  50.2865  51.5470
    51.7637  51.7637  53.6593  53.6593  53.7957  55.3856  55.8194  55.8194
    56.8128  57.9245  57.9245  58.2932  59.9736  60.6577  60.8394  60.8394
    61.8347  63.5299  63.7012  63.7012  64.7754  64.7754  65.2352  65.9901
    66.6382  66.6382  67.4756  67.7278  67.7278  68.6275  68.6275  69.4253
    69.4253  70.5830  71.1328  71.1328  71.4827  71.8485  72.1293  72.1293
    74.3049  74.5082  74.5082  75.4521  75.8321  75.8321  77.2891  77.2891
    77.3332  77.4481  78.3236  78.6060  78.6060  79.2438  79.2438  80.9927
    80.9927  81.0339  81.5707  81.8886  81.8886  82.7013  82.7013  82.8327
    84.3496  84.9842  85.1976  85.1976  85.3378  86.2796  86.2796  86.5238
    86.5954  86.5954  86.6365  86.9877  86.9877  88.2743  89.1011  89.1011
    90.0814  90.6897  90.6897  91.1131  91.5072  91.5072  92.3318  93.6763
    93.6763  94.5228  94.9217  94.9217  96.2799  97.3200  97.3200  98.1354
    98.1354  98.8888  99.7867  99.7929  99.7929 100.5004 101.4280 101.4280
   101.7415 103.1312 103.1312 103.1732 103.7317 104.1876 104.1876 105.1852
   105.5058 105.5058 105.8894 106.5660 106.5660 107.3016 107.3625 107.3625
   107.6855 108.1327 108.1327 108.9173 109.8938 109.8938 110.2184 110.5405
   110.7412 110.7412 111.3195 111.3195 112.1465 112.1853 112.1853 114.0022
   114.0022 114.2237 114.9845 115.6249 115.6249 116.2781 116.2781 116.4428
   117.5556 117.5556 117.7422 118.9693 119.1509 119.3088 119.3088 120.0499
   120.0499 120.8805 121.3342 121.3342 121.5426 122.2012 122.2448 122.2448
   122.7087 122.7087 123.1664 123.1678 123.3946 123.3946 124.6623 124.6623
   124.9046 125.6070 126.6415 126.6415 127.1746 127.1746 127.3651 127.7193
   128.0725 128.0725 128.8354 128.8354 129.4006 130.0314 130.0314 130.2603
   130.9900 130.9900 132.2023 132.2962 132.2962 132.8468 132.8468 133.4660
   133.4660 133.4920 133.9120 134.3776 134.5776 134.5776 135.2111 135.9214
   135.9214 136.3648 137.6198 138.4773 138.4773 138.7138 138.7809 139.1208
   139.1208 140.0620 140.0620 140.4232 141.0256 141.0256 141.0268 141.8871
   141.8871 142.4801 142.9039 143.1075 143.1075 143.4986 143.4986 143.8882
   143.8883 144.4941 144.6459 144.6459 145.3541 145.8595 146.0329 146.0329
   146.5952 148.4379 148.4379 149.4019 149.7641 150.1522 150.1522 150.6974
   150.6974 150.9933 151.2395 151.2395 152.2467 152.2467 153.5365 154.3999
   154.4215 154.4215 155.1059 155.1059 155.6085 155.6086 155.9219 156.6493
   156.8199 157.2327 157.4665 157.4665 157.9105 158.5562 158.7754 158.7754
   159.1364 159.1364 159.7666 160.4980 160.5162 160.5162 161.0054 161.0054
   161.3215 161.3215 161.4532 161.9589 162.0520 162.0520 162.9322 162.9322
   162.9867 163.0041 163.1911 163.1912 164.9819 165.1440 165.1471 165.1471
   166.1143 166.1143 167.0037 167.0037 167.5744 167.7171 167.7171 168.1056
   168.1450 168.1450 168.6739 168.7677 168.7677 169.2201 169.7457 169.8473
   170.5758 170.5759 172.3584 172.3584 173.1901 174.0828 174.0828 174.7123
   174.7706 174.7706 174.9165 176.2138 176.2138 177.6965 177.6965 178.4205
   178.8504 178.8504 179.1532 179.1554 179.1554 179.7472 179.7472 179.7913
   179.8866 180.5204 180.5204 181.7904 181.7904 182.2905 182.3419 182.5421
   182.5421 182.7094 183.3243 183.3243 183.8323 183.8323 183.8999 184.1821
   184.1821 184.5685 184.6078 184.6078 184.8806 185.3824 185.3824 186.1977
   186.6819 186.8893 187.3111 187.3111 187.9487 187.9487 188.1612 188.3743
   188.5912 188.5912 189.5683 189.5683 189.7619 190.4913 190.5944 190.5944
   191.2361 191.9532 191.9532 193.1356 193.6164 193.7248 193.7248 193.8536
   193.9769 193.9769 194.2412 194.4270 194.4270 195.4078 195.4078 195.4516
   195.6358 195.8195 195.8195 196.3530 196.4290 196.4290 196.5704 196.5704
   197.0414 197.0414 197.2921 198.1132 199.3266 199.5472 199.5472 199.6476
   199.9358 199.9358 200.7470 200.9898 200.9898 201.6889 201.6889 201.7588
   202.1472 202.1472 202.2794 202.9563 203.7921 203.7921 204.3061 204.3061
   204.5067 205.2345 205.5287 205.5287 206.5964 206.6667 206.6667 207.3423
   207.3423 207.6681 208.0215 208.0215 208.7067 208.7067 208.9542 208.9542
   209.0965 210.2277 210.3317 210.3317 210.6505 210.8478 211.5924 211.5924
   211.6145 212.5968 212.6641 212.6641 212.7124 213.4256 213.4256 214.1323
   214.5329 214.5329 214.7869 215.1391 215.1391 215.8435 215.9198 215.9198
   216.0190 216.0934 216.0934 216.2340 217.0032 217.0032 217.5612 217.5612
   217.6916 217.7247 218.4425 218.4425 219.0960 219.0960 220.0178 220.2680
   220.2680 221.5425 221.5425 221.7137 221.9696 222.4265 222.5770 222.5770
   223.3865 224.0129 224.0129 224.5723 225.0103 225.0103 225.1590 225.1981
   225.5227 225.5227 225.8184 225.8184 226.2593 226.2968 226.2968 226.7731
   227.2586 227.4407 227.4407 227.4703 227.9999 227.9999 229.1319 229.1319
   229.7951 230.4147 230.4147 230.8373 230.8373 230.8452 231.8262 231.9585
   231.9585 232.1394 232.2397 232.6244 232.6244 233.0857 233.0857 233.6286
   233.6760 233.9237 233.9237 234.8800 235.1395 235.1395 235.7224 235.7224
   235.8067 236.0401 236.7581 236.7581 237.4029 237.4029 238.3335 238.3335
   238.6234 238.6987 239.2896 239.2896 239.4918 239.8374 239.8374 240.9039
   240.9880 240.9880 241.1449 241.6625 241.6625 241.8024 242.6455 242.8642
   242.8642 243.3769 244.1900 244.2687 244.2688 244.9586 244.9586 245.4231
   245.4231 246.0057 246.0057 246.0876 246.1056 247.5278 247.5278 247.5312
   249.4602 249.4602 250.1419 250.1419 250.6400 250.7170 250.7267 250.7267
   251.0025 252.3266 252.3511 252.3511 252.4471 252.7287 253.1001 253.1001
   253.4572 253.4572 253.7706 254.3939 254.3939 255.5920 255.5920 256.1345
   256.1345 256.1531 256.2839 256.7643 256.7643 257.0073 257.5866 257.7962
   257.7962 258.1188 258.1899 258.1899 258.3740 258.3740 258.3978 258.5592
   258.6140 258.9995 258.9995 259.8788 259.8788 260.0812 260.0812 260.4307
   260.7891 260.9113 260.9113 261.6339 261.7502 261.7502 262.1779 262.3567
   262.3969 262.3969 263.0573 263.0573 263.3744 263.6245 263.6245 263.8443
   264.1550 264.1550 264.4361 264.4362 264.5179 264.6083 265.0311 265.1926
   265.1926 265.5288 265.5728 265.5728 266.5825 266.7833 266.7833 267.2861
   267.2861 267.5596 267.5596 267.7819 267.9495 268.8091 268.9194 268.9194
   269.1123 269.1123 269.3172 269.7300 269.7300 269.7615 269.8949 270.5854
   270.8903 270.8903 271.1949 271.1949 271.6251 271.6251 271.9672 272.0026
   272.0779 272.0779 272.2837 272.2837 272.4649 272.4649 272.7708 272.8141
   272.8141 272.8845 272.9371 272.9371 273.6897 274.0412 274.0412 274.3009
   274.6261 274.6261 274.8323 276.8090 276.8090 277.1141 277.7166 277.7166
   278.2420 279.2425 279.2425 279.8061 280.3562 280.6999 280.6999 280.9902
   280.9902 281.4043 282.0331 282.0331 282.3548 284.2716 284.2716 284.8328
   285.8447 285.8447 286.1573 286.2325 286.2325 286.3725 286.6282 286.6664
   286.6664 286.9512 286.9851 286.9851 287.3029 287.3029 287.4444 287.7083
   287.7083 287.9800 288.2078 288.2078 288.4322 288.4322 288.5694 288.6046
   288.6338 288.8249 288.8249 289.4652 289.6375 289.6375 289.9416 290.3848
   290.3938 290.3938 290.5258 290.5258 290.7247 291.0356 291.5208 291.5208
   291.8311 292.5598 292.5598 292.9043 292.9269 292.9269 294.7076 294.7076
   294.7437 295.2816 295.8606 295.8606 296.3207 296.9399 296.9399 297.2523
   297.3911 297.3911 297.8660 297.8660 298.2327 298.2327 298.4156 299.3013
   299.6645 299.6645 300.1351 300.1987 300.1987 300.2715 300.6007 300.7667
   300.7667 300.9358 300.9358 300.9450 301.5334 301.7289 301.7289 301.9814
   301.9814 302.2174 302.4454 302.4454 302.7369 303.3153 303.3153 303.5237
   304.4299 305.0378 305.0378 305.4677 306.0332 306.0332 306.0750 306.1335
   306.1335 306.5567 307.0097 307.0995 307.0995 307.1351 307.1351 307.1474
   307.5155 307.5155 309.3733 309.5958 309.5958 309.6634 309.6634 310.0220
   310.0861 310.0861 310.2765 310.2765 310.4193 310.6877 310.7427 310.7427
   311.0243 311.3574 312.0990 312.0990 312.3168 312.4915 312.4915 314.0671
   315.4895 315.6642 315.6642 315.8345 315.8345 316.3288 316.3288 316.6767
   317.1361 317.2622 317.2622 317.4382 317.4382 318.0764 318.2422 318.2841
   318.2841 318.4457 318.4457 318.5958 320.4616 320.4616 320.5646 320.9106
   320.9106 321.1843 321.7835 321.7835 322.0616 322.3041 322.3041 322.3970
   323.0466 323.0466 323.2606 324.3867 324.4087 324.4087 324.6859 324.8356
   324.8746 324.8746 325.3913 325.3913 325.5228 325.7810 325.7810 326.2569
   326.2569 326.4825 327.2323 327.3650 327.3650 327.7598 327.9643 327.9643
   328.7016 328.7388 328.7388 329.0109 329.1701 329.1701 329.2212 329.2212
   329.4446 329.9110 329.9110 329.9277 330.2196 330.6214 330.6214 330.7960
   330.8529 330.9109 330.9109 331.2193 331.2193 331.4448 331.6799 331.6799
   331.7354 332.6498 332.6498 333.5132 333.9300 333.9300 334.6803 334.6803
   334.9190 335.1976 335.6780 335.6780 335.7288 335.9136 335.9136 336.2732
   336.3776 336.7155 336.7155 337.4740 337.4740 337.5940 337.9285 338.4433
   338.7980 338.7980 338.8778 338.8778 338.9883 340.8196 340.8995 340.8995
   341.2905 341.2905 341.5804 341.7131 341.7131 341.9844 341.9907 341.9907
   342.2220 342.3977 342.3977 342.8520 342.8520 343.0121 343.3470 343.3727
   344.1701 344.1701 344.2221 344.2221 344.4626 345.5789 345.5789 345.5952
   345.6621 345.6621 346.1230 346.1230 346.1369 346.5550 346.5550 346.6291
   347.6520 347.6520 347.7596 347.8684 347.9389 347.9389 348.4668 348.4668
   349.0310 349.2789 349.4488 349.5585 349.5585 349.9586 349.9586 350.1973
   350.2188 350.2814 350.2814 350.5861 350.5861 350.6683 350.6683 350.8051
   351.2632 351.2632 351.3002 351.4068 351.4068 351.4963 353.5267 353.5267
   353.5717 353.9901 353.9901 354.1026 356.2316 356.2316 356.5143 357.4999
   357.6461 357.6461 357.9042 357.9307 357.9307 358.0327 358.6463 358.6463
   358.7293 358.7293 358.8461 359.2150 359.2150 359.2230 359.4921 359.4921
   359.4926 360.0852 360.0852 360.1888 360.9555 361.5971 361.5971 361.9080
   362.1248 362.3103 362.3479 362.3479 362.3762 362.3762 362.5409 362.5409
   362.8300 362.8882 362.8882 363.0812 364.3323 364.3323 364.5308 364.7176
   364.7176 365.1141 365.1169 365.1169 365.9780 365.9780 366.1536 366.4683
   366.4683 366.5555 366.5793 366.5793 366.9274 366.9786 366.9786 367.3589
   367.3589 367.5696 367.7349 367.7349 367.7907 367.9240 368.5755 368.5755
   368.7235 368.7583 368.7583 368.8042 369.1200 369.1200 369.2495 370.3086
   370.3086 370.3348 370.3548 370.3548 370.4817 371.4663 371.6521 371.6521
   372.0259 372.0259 372.1840 373.6520 373.6520 373.7077 374.8448 376.0005
   376.0639 376.0639 376.3038 377.1403 377.1403 377.3199 377.3199 377.5608
   377.7497 377.7497 377.8618 378.6703 378.6703 378.9507 379.2590 379.2590

          k = 0.5000-0.5000 0.5000 (  3828 PWs)   bands (ev):

   -94.1234 -55.1676 -55.1676 -55.1676 -28.0178 -28.0175 -28.0175 -28.0100
   -28.0100  -2.6367  -0.1233  -0.1233   0.0638   0.0638   0.3732   3.7647
     7.2489   7.2489   9.7537  13.1950  13.1950  15.0243  16.5102  18.2840
    18.2840  19.1761  19.6341  19.6341  23.9261  25.4299  25.4299  26.3052
    26.6623  26.6623  28.7400  29.2634  29.4180  30.2012  30.2012  31.2547
    31.2547  33.5174  33.9303  34.2722  34.2722  34.9397  34.9397  35.2703
    36.8345  39.7753  39.7753  40.8742  40.8742  41.6152  43.2493  43.2493
    44.2580  44.2580  44.6930  46.4916  46.5750  46.5750  47.0571  47.0571
    47.7625  49.6377  49.6377  50.3273  50.9203  51.0380  52.0671  52.0671
    52.6572  52.6572  53.0170  53.4547  53.6956  53.6956  56.2630  56.3357
    56.3357  56.8037  56.8037  57.5686  58.2068  58.2068  58.2578  60.6055
    60.7165  60.7165  62.8351  63.8124  64.6857  64.6857  64.9757  65.4659
    65.4659  67.8888  68.2393  68.2393  68.8683  68.8683  69.0231  69.0231
    69.0260  70.5959  70.9546  71.5477  71.9679  71.9679  72.7167  73.4474
    73.7043  73.7043  74.3400  74.6241  74.6241  76.1691  76.1691  77.2026
    77.2026  77.6475  78.6225  78.6225  79.0269  79.0269  79.4123  80.5256
    81.1210  81.2444  81.2877  81.2877  81.7201  81.7201  82.9509  82.9509
    83.6858  84.5494  84.5494  85.4310  85.9577  86.4304  86.4304  87.2815
    87.9996  87.9996  88.6489  89.3360  89.3360  90.4964  90.4964  91.5787
    91.5787  91.9002  92.5060  92.5060  92.8397  93.1446  93.1514  93.1514
    94.3315  94.6105  94.6105  94.7556  95.5079  96.4680  97.1385  97.1385
    97.5182  97.5182  97.6393  97.8027  97.8027  99.1243  99.9862  99.9862
   102.0098 102.0098 102.1161 102.2730 103.1892 103.1892 103.9036 104.0405
   104.7270 105.7570 105.7570 106.3462 106.6300 106.6300 108.2995 108.3999
   109.1906 109.1906 109.5022 109.5022 109.7307 110.1448 110.1448 110.8512
   110.8512 111.3144 111.7797 111.7798 113.0990 113.0990 113.9271 114.4469
   114.4562 114.4562 114.9486 115.4379 115.5801 115.5801 115.8670 115.8670
   116.5799 116.5799 116.8070 116.9865 116.9865 117.8807 118.8201 119.5453
   119.5453 119.8067 120.1621 120.1621 120.8047 120.8047 121.5121 121.5121
   121.6187 122.0749 122.0749 122.5183 123.1740 124.3855 124.3855 125.2626
   125.2626 125.4070 126.2944 126.2944 126.9401 126.9495 127.6720 127.6720
   127.7926 128.0672 129.1723 129.1783 129.1783 129.8649 129.8649 130.0620
   130.3443 130.4239 130.4239 130.5477 131.5715 132.4854 132.4854 132.7262
   133.6353 133.6354 134.5990 134.5990 134.7990 134.9531 134.9531 135.6999
   136.5859 136.5859 137.0871 137.0871 137.7078 137.8413 139.0216 139.0216
   141.0342 141.0342 141.9816 142.0762 142.0762 143.4211 143.5081 143.5081
   143.6149 143.9038 143.9038 144.5826 145.3908 145.3908 145.7247 146.1478
   146.1478 146.1817 147.0354 147.0354 147.6125 148.0387 148.0524 148.3492
   149.6805 149.6805 150.2464 150.3480 150.3480 150.3738 150.5887 150.5887
   151.3662 151.3662 152.0345 152.3862 152.3862 153.1246 153.2588 153.2588
   154.2281 154.2281 154.5159 154.8756 154.8934 154.8935 155.3035 155.3035
   155.5474 155.6702 156.3336 156.3336 156.5896 156.5896 157.6105 157.6491
   157.7008 157.7008 159.0627 159.0627 159.7348 160.5916 160.5916 160.7419
   160.8838 161.7811 161.7811 162.0656 162.3484 162.3484 163.1786 163.1786
   163.1970 163.6091 163.8435 163.9346 163.9346 164.4424 164.4424 165.2961
   165.2961 165.4670 166.2824 166.2824 166.8035 166.8035 167.1617 167.3070
   167.4347 167.4347 168.6141 168.6141 168.6370 170.5423 170.5423 170.7765
   171.0192 171.0192 171.2309 171.4943 171.4943 171.4976 171.8960 172.8632
   172.8632 173.8734 173.9442 173.9442 174.2389 175.1749 175.1749 175.8950
   176.0869 176.3577 177.3763 177.3763 177.9412 177.9412 178.3360 178.7170
   179.8100 179.8100 180.8271 181.0420 181.0420 181.4240 181.4240 181.7373
   182.2613 182.2613 182.3008 182.7889 182.7889 183.1614 183.1614 183.2070
   183.8603 183.8603 184.1544 184.6847 186.4279 186.4279 186.7081 186.8285
   186.8285 188.4615 188.4615 188.7999 189.1075 189.1075 189.3486 189.9373
   190.1688 190.1688 190.3940 190.6469 191.0964 191.0964 192.0758 192.0758
   192.5967 192.5967 193.3683 193.3683 193.3862 194.0363 194.0363 194.0422
   194.1890 194.1890 194.9445 195.1526 195.1526 195.7943 195.9495 196.1000
   196.1000 196.2225 196.2225 196.4833 196.7035 196.7035 197.1854 197.8639
   198.0715 198.0715 198.3974 198.3974 198.8411 199.3508 199.3508 199.3580
   199.7521 200.2882 200.2882 200.8620 200.8620 201.0283 201.2173 201.2173
   202.8097 203.2522 203.5448 203.9148 204.1504 204.5762 204.5762 205.3879
   205.5267 205.5267 206.2678 206.2678 206.6395 206.6395 207.2102 207.2102
   207.2591 207.3624 207.5057 207.5057 207.9367 208.4894 208.4894 208.7856
   208.7856 209.2657 209.7657 209.8324 209.8324 209.8864 211.1109 211.1109
   212.0095 212.3561 213.3036 213.3036 214.2434 214.2434 214.4578 214.7163
   216.5761 216.5761 216.7647 216.8428 217.0431 217.0431 218.5589 218.5589
   218.7113 218.7113 219.0102 219.3972 219.4697 219.4697 219.4774 219.6031
   219.6098 219.6098 219.8090 219.8149 219.8149 219.8476 219.9061 219.9061
   220.2806 220.5362 220.5362 221.1990 221.3007 221.3007 221.3782 221.3782
   222.3811 222.3811 222.6774 223.0204 223.0474 223.1264 223.1264 223.3198
   223.7201 223.7201 224.4245 224.4245 224.8573 224.8573 225.4808 225.4899
   225.6314 226.5811 226.5811 226.6489 227.0008 227.0008 227.1322 227.3157
   229.3116 229.3116 229.9746 229.9746 230.2656 230.2656 230.9046 230.9046
   231.3515 231.5650 232.8354 232.8354 233.9637 234.9545 234.9545 235.6909
   236.2882 236.2882 237.0788 237.0876 237.0876 237.2470 237.2470 237.4362
   237.5813 237.5813 238.1892 238.2878 238.3274 238.3274 238.5692 238.7317
   238.8628 239.1607 239.1607 239.3117 239.3117 240.1174 240.1174 240.5135
   240.5135 240.8226 240.8613 241.0053 241.0053 241.1535 241.1535 241.3849
   241.8649 241.9452 242.4656 242.4656 242.8290 243.4090 243.4090 244.9692
   244.9692 245.7521 247.0239 247.2636 247.2636 247.3391 247.3391 247.3831
   247.7786 248.0134 248.1703 248.1703 249.2990 249.2990 249.7898 250.1986
   250.4815 250.4815 250.9491 250.9491 251.1947 251.3253 251.4078 251.4078
   251.8512 252.0437 252.0437 253.5227 253.7509 253.9375 254.4835 254.4835
   254.6176 254.6176 254.6736 254.6736 254.7725 254.7725 256.1659 256.1659
   256.3036 256.3421 256.3421 256.4198 257.4233 257.4233 258.3296 258.3726
   258.3726 258.4061 258.6865 258.6865 258.9005 258.9006 259.7458 260.0574
   260.5665 260.5665 261.0119 261.0470 261.0926 261.0926 261.7621 261.7621
   262.1820 262.6616 262.6616 262.6632 262.8190 263.0155 263.1557 263.1557
   263.3731 263.3731 265.5606 265.5606 265.6186 265.6639 265.6639 265.7476
   266.8655 267.1133 267.2225 267.2225 267.3879 267.3879 267.7756 267.7756
   267.9689 268.2188 268.3871 268.3871 268.9192 268.9192 269.2987 269.2987
   269.4958 269.5287 270.0061 270.0104 270.0104 270.2948 270.2948 270.3881
   271.2785 271.2785 271.3774 272.0831 272.0831 272.2862 272.6496 272.8885
   274.1253 274.1253 274.7336 274.7336 274.8517 274.8517 274.9557 274.9959
   274.9959 275.0034 275.2345 275.3217 275.3819 275.3819 275.4209 275.4209
   276.1070 276.7882 277.5387 277.5387 278.0132 278.0132 278.2048 278.2048
   278.2738 278.2738 278.3397 278.3699 278.7292 278.7292 279.0307 279.0307
   279.2110 279.3146 279.4325 279.6974 280.1452 280.1452 280.2553 280.2553
   280.6802 280.8633 281.9540 281.9540 282.8283 282.8283 284.4279 284.5864
   286.7817 286.7817 287.2778 287.2778 287.3147 287.3147 287.3190 287.4035
   287.4035 287.4788 288.2422 288.8673 288.8673 288.9773 288.9773 289.0882
   289.3725 289.3725 289.9813 289.9813 290.1873 290.7679 292.5158 292.5158
   293.2687 293.2687 293.2871 293.2871 293.3078 293.3751 293.3751 293.4876
   293.6401 293.6910 293.8172 293.8317 293.8317 293.8683 293.9159 293.9159
   295.7619 295.7619 295.7994 295.9113 295.9113 296.0848 297.3022 297.3022
   297.5654 297.5654 297.6840 298.1331 300.4224 300.4780 300.4780 300.4972
   300.5142 300.5142 300.7890 300.7890 300.9115 300.9115 301.1102 301.3909
   301.9195 302.2886 302.2886 302.3435 302.6141 302.6141 303.0485 303.0485
   303.2311 303.2517 303.2518 303.4585 303.4585 303.5976 303.8002 303.8002
   303.8053 304.0238 305.5861 305.6620 305.6620 305.7308 305.7308 305.7718
   307.5254 307.5254 307.5869 307.5869 307.8001 307.8513 307.8586 308.4913
   309.3138 309.3138 310.0096 310.5044 310.5044 310.9607 310.9607 311.2380
   311.5898 311.5898 312.3581 312.7021 313.1850 313.1850 313.5772 313.5772
   313.8500 313.9051 314.5105 314.7061 314.7061 314.8712 314.8712 315.1290
   315.5742 315.5742 315.7391 315.7391 316.8060 316.8060 317.0183 317.0564
   317.0564 317.0971 317.4273 317.5061 318.2332 318.2332 318.2583 318.3508
   318.3508 318.6457 320.0878 320.1188 320.5677 320.5677 320.6504 320.6504
   321.4580 321.4580 321.6363 321.6364 321.7573 321.9252 322.3450 322.3450
   322.4023 322.4023 322.6918 322.7266 323.8496 323.8496 324.0981 324.1063
   324.1063 324.1582 324.1582 324.1853 324.1853 324.2488 324.2668 324.2740
   325.7065 325.7065 325.8807 326.2769 326.2769 326.5771 326.7770 326.8858
   326.8858 326.9114 327.2506 327.2506 328.0836 328.0836 328.7131 328.7131
   328.8124 328.8124 328.9749 329.0935 329.1754 329.1754 329.4340 329.6935
   330.0785 330.0844 330.5149 330.5149 330.5528 330.5528 330.6135 330.7674
   332.6687 332.6687 332.7157 332.7157 333.3661 333.3661 333.3930 333.4202
   333.4202 333.4306 333.8932 333.8932 333.9129 335.4455 335.4455 335.9535
   336.1261 336.1261 336.2875 336.2875 336.3101 336.5601 337.3289 337.3289
   337.5176 337.6740 337.8764 337.8764 338.1933 338.1933 338.2388 338.3637
   338.4606 338.4606 339.1096 339.1925 339.9137 339.9137 339.9611 339.9612
   340.4946 340.4946 340.7928 340.7928 340.8331 340.9349 340.9827 340.9827
   341.1163 341.1163 341.1343 341.2074 342.4437 342.4576 343.7843 343.7843
   343.9041 343.9041 347.2342 347.2342 347.2814 347.2814 347.3205 347.3685
   347.5032 347.5032 347.5087 347.5087 348.4049 348.4049 348.4075 348.4314
   348.4314 348.5969 348.6622 348.6634 349.9089 349.9089 350.6079 350.8793
   350.8793 351.2314 354.3994 354.3995 354.4588 354.6071 354.6071 354.6814
   354.8731 354.8809 354.8809 355.0241 355.0241 355.2514 355.2514 355.3198
   355.4092 355.4213 355.4213 355.4871 355.7182 355.7554 355.7554 355.8256
   355.9499 355.9540 355.9540 356.2669 356.9287 357.1646 357.1646 357.9289
   357.9289 358.3156 358.3156 358.3921 358.6131 358.6552 358.6552 358.8158
   358.8890 358.9659 358.9659 359.0369 359.0369 359.1615 359.6497 359.6497
   359.8542 359.8584 359.8588 359.8588 360.0891 360.1358 360.1358 360.2153
   360.2153 360.2184 360.5303 360.5696 360.5696 360.7406 360.7406 360.9073
   365.1410 365.1410 365.1846 365.1846 365.5883 365.6134 365.7161 365.7161
   365.7509 365.7509 365.9939 365.9939 366.0724 366.0724 366.1214 366.1286
   366.3250 366.4383 366.4383 366.5732 366.5732 366.6685 367.3573 367.3573
   367.4752 367.4817 367.4817 367.6367 371.9137 371.9137 371.9419 371.9419
   372.0895 372.1464 374.1692 374.1692 374.2443 374.2443 374.2463 374.4836
   374.4836 374.5078 374.5128 374.7312 374.7312 374.7955 376.5706 376.6029
   376.6029 376.6889 376.6889 376.7378 377.3113 377.3113 377.3810 377.3810
   377.6763 377.7209 379.1564 379.5121 379.7927 379.7927 379.8983 379.8983

          k = 0.0000 0.3333 0.0000 (  3839 PWs)   bands (ev):

   -94.1234 -55.1676 -55.1676 -55.1676 -28.0178 -28.0176 -28.0176 -28.0101
   -28.0100  -2.8777  -0.1467  -0.1467  -0.1002   0.0487   0.0626   6.2583
     7.4100   7.4100  10.3345  11.7521  13.5184  13.5184  15.2122  17.1419
    17.6078  18.8705  18.8705  19.4731  23.0929  25.0790  25.0790  25.5765
    26.1016  28.7044  28.7044  30.2017  32.2855  32.9178  33.5778  33.5778
    33.8005  34.2726  34.2726  34.9539  36.3560  36.3560  37.1973  37.9135
    37.9414  38.3101  38.3101  39.0919  39.5251  40.9578  41.3915  41.3915
    42.0582  42.4998  42.5922  42.5922  43.8135  44.5147  44.5147  45.1258
    45.5323  46.1985  46.1985  46.9282  48.4974  49.4854  51.2251  51.5054
    51.5054  54.1769  54.3052  55.2907  55.2907  56.2004  56.2004  58.0292
    58.4239  59.8019  59.8019  59.8303  61.0327  61.8584  61.8584  62.5458
    62.9014  64.0060  64.0443  64.0443  64.0945  65.1719  66.0435  66.0435
    66.3705  68.2042  68.8956  68.8956  69.4705  69.5635  69.8175  69.8175
    69.9892  70.3962  70.5455  71.7056  71.9637  71.9637  72.1643  72.8196
    72.8196  73.9812  74.7605  75.2840  75.2840  75.2844  76.1061  76.3440
    76.3440  76.9318  77.2774  77.2774  78.1575  78.3925  78.8041  78.8041
    79.0523  79.2716  80.7763  81.0445  81.2585  82.0652  82.0652  82.7326
    83.3322  83.3322  84.1798  84.9788  84.9788  85.0769  86.0963  86.1356
    86.1356  88.1526  88.3345  88.7550  88.9509  88.9509  89.5500  89.7074
    89.7074  90.9302  91.1988  91.7983  91.7983  92.6335  92.7743  92.7743
    93.1562  93.2135  94.8312  96.0169  96.0169  96.1968  96.2855  96.7260
    96.7260  96.9042  97.7480  97.9515  99.5843  99.7030  99.7030 100.3652
   101.1852 101.1852 101.6360 101.9999 102.8468 103.3585 103.3585 104.2787
   105.9428 105.9428 106.4125 107.2947 107.6699 107.9683 107.9683 108.2838
   108.2838 109.1980 109.1980 109.7554 110.4317 110.5627 111.1119 111.1119
   111.8340 112.4162 113.1660 113.2824 113.6635 113.6635 114.1430 115.2964
   115.4840 116.0548 116.0548 117.1353 117.3655 117.9629 118.2434 118.2434
   118.5722 118.6573 118.6573 119.3554 119.6965 119.9692 119.9692 120.3144
   120.5413 120.5413 120.9514 120.9584 121.5816 121.5816 122.9737 122.9957
   123.1458 123.1458 123.6773 124.1288 124.7595 124.7595 125.2847 125.6852
   125.6852 126.0117 126.2327 127.0193 127.5696 127.5696 127.9452 128.2219
   128.2219 128.4661 128.7342 128.7917 128.7917 129.1916 129.3356 129.8426
   129.8426 130.2602 131.0045 131.8182 132.4730 132.4730 133.0920 133.2998
   133.2998 133.5791 133.9235 134.7013 134.7456 134.7456 135.4418 135.9921
   135.9921 136.1612 136.9902 137.3397 137.5313 137.5314 137.7895 137.9690
   138.6627 138.6731 138.6731 138.8277 139.2427 139.2427 139.2427 140.0921
   140.3267 140.3608 140.3608 141.5669 141.9287 141.9287 142.0547 143.6149
   144.0729 144.2901 144.2901 144.3673 144.5463 144.7522 144.8518 144.8518
   146.0042 146.0042 146.6741 146.9786 147.9737 147.9737 148.0638 148.8494
   149.2948 150.7982 150.7982 151.0905 151.8027 151.8027 151.8562 152.0916
   152.0916 152.5152 153.0436 153.2751 153.4760 154.5385 154.5385 155.1217
   155.9426 156.1126 156.4971 156.4971 157.2868 158.0666 158.0691 158.0691
   158.9929 159.5985 159.8856 159.8871 159.8871 160.7380 161.5439 162.0050
   162.0050 162.4236 162.7701 163.1729 163.1769 163.1769 163.8553 163.8553
   165.4670 165.7526 165.7526 166.0295 167.2685 167.2685 167.7004 167.8230
   167.8230 167.9639 169.0523 169.4597 169.4597 169.5389 170.4713 170.4713
   170.8252 171.3746 171.3823 171.3823 172.2087 172.5701 172.8960 173.0961
   173.0961 173.3817 174.2436 174.4292 174.4292 175.4741 175.7977 176.2052
   176.3463 176.7593 176.7593 177.4332 177.6137 177.6257 177.7005 177.7005
   178.1245 178.1245 178.5367 179.0765 179.4222 179.4222 179.4643 179.7800
   179.7800 180.0353 180.0368 180.9278 181.4606 181.5073 181.5073 181.9622
   182.1144 182.3930 182.3930 183.1527 183.1527 183.2840 183.9013 183.9268
   184.1304 184.2250 184.2250 185.0489 186.2427 186.5376 186.6231 186.6231
   187.0552 187.9155 188.6643 188.8749 188.8749 188.9187 189.2246 189.2246
   189.3644 189.5690 189.9100 189.9100 190.3514 190.7862 190.7862 190.9501
   191.0773 191.0988 191.0988 191.5316 192.0184 192.2179 192.4632 192.4632
   193.4983 193.8028 193.9962 193.9962 194.4370 194.6870 194.7425 194.7425
   195.6155 196.2545 196.2766 196.2766 196.6928 196.6955 196.7762 196.7762
   197.2664 197.5207 197.5207 197.7879 198.0137 198.0137 198.8931 199.1258
   199.2061 199.2061 199.5965 200.2793 200.2793 200.4671 200.5854 201.6554
   201.8592 202.0458 202.2799 202.2799 202.3760 203.2320 203.2963 203.2963
   203.3186 203.6898 203.6898 203.7849 203.8526 203.8526 203.9950 204.9682
   205.3666 205.4883 205.8591 205.8591 206.2717 206.3718 206.3718 208.0918
   208.3195 208.9175 209.0754 209.0918 209.0918 209.6736 209.6736 210.3356
   211.5421 211.6669 211.7854 211.7854 212.2011 212.5606 212.5606 212.6218
   212.9404 213.2345 213.2387 213.2387 213.8875 214.2622 215.0184 215.0184
   215.2673 216.1079 216.1884 216.5504 216.5504 217.9109 218.2204 218.2204
   218.3814 218.3814 218.7917 218.8247 218.8310 218.8545 218.8545 219.0008
   219.6080 219.6080 220.0535 220.7064 220.7064 220.7381 220.8405 220.9381
   223.1592 223.1729 223.1729 223.9250 224.2663 224.5243 224.6064 224.6064
   225.0102 225.1059 226.0642 226.0642 226.1520 226.6264 227.3116 227.3116
   227.8283 228.5282 228.5282 229.2614 229.4662 229.7781 229.7781 229.9698
   230.3872 231.1208 231.1208 231.8874 231.8874 231.9752 232.1345 232.4707
   232.9532 233.0045 233.2615 233.2615 233.6329 234.9938 235.0199 235.0199
   235.5733 236.2460 236.5343 236.5343 236.8992 237.0627 237.0680 237.0680
   238.1336 239.0147 239.3356 239.3356 239.7005 239.9422 240.3395 240.3395
   240.8337 241.6343 241.6343 241.6946 241.9309 242.0197 242.0197 242.2242
   242.4206 243.0194 243.0194 243.1013 243.6184 243.6849 243.9771 243.9771
   244.5743 244.7298 245.2152 245.2152 245.3075 245.9602 245.9994 246.0652
   246.0652 246.3909 246.4709 246.5982 246.5982 246.7148 247.1548 247.1548
   247.2231 247.4982 247.6823 247.6823 247.7062 247.8592 250.0679 250.0679
   250.4558 250.6349 251.2333 251.4261 251.4261 251.5696 251.9288 251.9288
   252.3081 252.5371 253.3709 253.3991 253.3991 253.4559 253.8698 253.8698
   253.9274 254.6433 254.8556 254.8556 254.9533 255.1182 255.1225 255.1225
   256.1087 256.5582 256.6548 257.9511 258.1885 258.1885 258.1994 258.2614
   258.2614 258.6287 258.6287 258.6355 258.7001 259.2196 259.2196 259.4493
   259.9680 260.6452 261.1114 261.3324 261.3324 261.9504 261.9504 262.0415
   262.2133 262.5529 262.6649 262.6649 262.9685 263.2449 263.5673 264.5799
   264.6537 264.6537 265.2610 265.8188 266.0692 266.3193 266.3193 266.8126
   266.9420 266.9420 267.2374 267.2374 267.3249 267.5200 268.9609 268.9609
   269.6352 269.6957 270.1683 270.1683 270.2072 270.3603 270.4884 270.6158
   270.6158 270.9599 271.1634 271.4690 271.4690 271.8145 272.0483 272.0483
   272.4088 272.4088 272.4160 273.0180 273.1252 273.3584 273.7546 274.0314
   274.0314 274.7301 274.7659 274.9892 274.9892 275.2268 275.6470 276.1801
   276.3824 276.3824 276.7811 276.7811 276.9988 277.0702 277.2969 277.2969
   277.7096 277.9844 278.1353 278.1353 278.3121 278.4966 278.5502 278.6783
   278.6783 278.7153 278.8489 278.8489 279.4036 279.6531 280.1393 280.1393
   280.6155 280.8128 280.9198 280.9198 281.0854 281.9381 282.1401 282.2407
   282.2407 282.4030 282.8030 282.8030 283.1919 283.2753 283.3175 283.3175
   283.6974 284.4520 285.0296 285.0296 285.1049 286.0390 286.3006 286.3006
   286.6252 286.9152 286.9152 287.0548 287.2353 287.6463 287.9847 287.9847
   288.2186 288.4255 288.7075 288.7190 288.7190 289.2846 289.2846 289.3046
   289.6662 289.7178 290.1533 290.6784 290.6784 291.2936 291.3649 291.3649
   291.4063 291.7563 291.7969 291.8760 291.8760 291.9427 292.2494 292.2494
   292.4423 293.8985 294.0123 294.0123 294.0997 294.5577 295.0272 295.0272
   295.5097 296.0191 296.0191 296.1723 296.2095 296.4136 296.5790 296.9009
   296.9009 296.9932 297.2709 297.2709 297.4725 297.5061 297.5829 297.6052
   297.6052 297.7685 298.0300 298.0300 298.4558 299.0761 299.0761 299.2672
   299.3647 300.6166 302.4219 302.4219 302.5400 303.1824 303.1824 303.6022
   303.8267 304.0415 304.6675 304.9542 305.4001 305.4001 305.4239 305.8152
   305.9115 305.9115 306.2768 306.3698 306.4308 306.4308 306.5167 306.8582
   306.8582 307.9676 308.3562 308.4231 308.4231 308.4861 308.8305 310.4006
   310.4006 311.1638 311.5168 311.5168 311.6770 312.1719 312.1719 312.3525
   312.3617 312.5283 313.2887 313.4904 313.4904 313.7346 313.7557 313.7557
   313.9165 314.1396 314.1509 314.1509 314.3042 315.1276 315.3631 315.5580
   315.5580 315.6971 315.8052 315.9109 315.9109 316.0078 316.3801 316.3801
   316.4966 317.1120 317.4448 317.4448 318.6541 319.3156 319.3547 319.3547
   319.3696 319.4413 319.8907 320.4435 320.4435 321.3475 321.6323 321.6323
   321.6457 321.7388 321.8944 322.1186 322.1186 322.5977 323.1289 323.1322
   323.1322 323.2469 323.5158 323.7380 323.7380 323.8744 323.9600 324.2724
   324.2724 324.9506 327.8723 328.7039 328.9831 328.9831 329.6799 330.2397
   330.4360 330.4360 330.4600 331.1959 331.6858 332.0358 332.0358 332.1734
   332.2064 332.3982 332.3982 332.5522 332.5798 332.5798 332.7656 332.7926
   333.2748 333.2748 333.7319 334.4614 334.8956 334.8956 335.2851 336.2446
   336.4071 336.4146 336.4146 336.6212 336.6408 336.6408 336.6842 336.9875
   337.0528 337.0528 337.1282 337.1282 337.1633 337.6636 337.7077 337.7077
   337.9856 338.2263 338.4364 338.4364 338.6292 338.8221 339.3852 339.5097
   339.5097 340.8954 340.8954 340.8965 340.9061 341.8269 342.4698 342.4698
   343.2578 343.5682 343.6023 343.8320 343.8320 343.9343 344.1798 344.5979
   344.8995 344.8995 345.1186 345.2168 345.2168 345.4966 345.5181 346.4394
   346.5664 346.5664 346.7309 346.8826 346.8826 347.0610 347.3221 347.3433
   347.7448 347.7448 348.0606 348.0606 348.6024 349.2800 349.7868 349.7868
   349.8818 350.0109 350.0109 350.0413 350.1892 350.5248 350.5392 350.7743
   351.1098 351.2069 351.2069 351.5723 351.5723 351.7409 352.0088 352.1504
   352.1504 352.1582 352.3602 352.5407 352.5407 352.5860 352.6308 352.6912
   352.6912 352.9734 352.9734 353.0786 353.3097 353.5556 353.8300 354.0707
   354.0707 354.4410 355.6095 355.7508 355.7508 355.7719 355.9827 356.1944
   356.1944 356.3627 358.0242 358.0708 358.0708 358.0932 358.8045 358.9342
   358.9535 358.9535 359.0781 359.4277 359.4277 359.5122 359.6525 359.7896
   359.7896 359.9837 360.2380 360.2581 360.2581 360.2703 360.6680 361.0922
   361.0922 361.4791 361.5214 361.8774 361.8774 361.9313 362.1132 362.1240
   362.1367 362.1367 363.0245 363.1331 363.1331 363.1467 364.2004 364.6064
   364.6464 364.8169 364.8169 364.8823 364.9607 364.9607 365.5397 365.7238
   365.7238 365.8932 366.3117 366.7298 366.7924 366.7924 366.8727 367.0313
   367.0313 367.0916 367.2001 367.2001 367.2636 367.6630 367.7997 368.4491
   368.4491 368.6398 369.0697 369.2786 369.4485 369.4485 369.7355 370.9144
   370.9546 370.9546 371.0413 371.1651 371.1651 371.1901 371.2922 371.9495
   371.9602 371.9602 371.9614 373.0093 373.0248 373.0248 373.0956 373.1359
   373.2321 373.2321 373.3945 374.3378 374.5943 374.7838 374.7838 375.0627
   375.8282 375.9150 375.9150 376.6986 376.7201 376.7201 376.9582 377.1687

          k =-0.1667 0.5000-0.1667 (  3848 PWs)   bands (ev):

   -94.1234 -55.1676 -55.1676 -55.1676 -28.0179 -28.0175 -28.0175 -28.0101
   -28.0099  -2.7271  -0.1237  -0.1140   0.0138   0.0679   0.1305   4.9568
     6.9219   7.0299  10.7571  12.0384  13.7142  14.0726  15.8174  17.7555
    17.7657  19.6345  20.7930  21.8972  21.9528  22.1358  25.1988  25.8254
    25.8796  26.8388  29.1083  29.2137  31.2206  31.5077  31.7809  32.7461
    32.8285  34.3244  34.3423  34.9211  35.2218  35.9597  36.1107  37.1099
    37.7707  38.1815  38.8989  39.9170  40.0914  41.1155  41.1502  41.9312
    42.6132  42.6867  43.3204  43.9000  44.8967  45.5130  46.5207  47.0005
    47.5238  48.2446  48.6563  49.3427  50.4888  50.7252  51.3976  52.0638
    53.2655  53.5973  54.0045  54.4447  54.9920  55.4491  55.7446  56.1862
    56.6178  57.9824  58.1280  59.7366  60.1647  60.1955  60.7077  61.2228
    61.7318  62.2218  62.9520  63.1845  63.6410  64.1687  64.7753  65.2069
    65.4362  66.4778  66.5207  67.6181  68.4990  68.9007  69.1823  69.6293
    69.7786  70.6144  71.0110  71.7732  72.2386  72.5869  72.7123  73.3197
    74.1604  74.1681  74.8271  75.3184  75.7323  76.0185  76.1269  77.0906
    77.4189  77.4625  78.0862  78.3055  78.3802  78.8737  79.7481  80.0485
    80.1875  80.4167  81.4316  81.6472  81.6952  82.3341  83.1283  83.1728
    83.7118  84.1883  84.6196  85.2432  85.3800  85.5797  85.6670  86.2115
    86.6614  87.2923  87.9955  88.0873  88.4220  88.8396  89.2270  89.5194
    89.7242  90.4574  91.2638  91.6152  92.9208  93.5170  93.6109  94.0905
    94.3370  94.8128  94.9909  95.7059  96.5274  96.5751  97.0710  97.2336
    98.1119  98.3110  99.1569  99.6262  99.6761 100.6239 100.7876 101.1234
   101.5201 101.8456 102.3112 102.7161 102.9587 103.4538 103.7469 104.1674
   104.9841 105.2537 105.8909 106.2235 106.6653 106.7626 107.3078 107.6365
   108.1884 108.4915 108.7393 108.9014 109.5874 109.9573 110.0188 110.3180
   110.8469 110.9387 111.3226 112.5020 112.7967 113.3414 113.3996 114.0384
   114.0895 114.2111 114.5192 115.0919 115.1241 115.8054 116.5034 116.7477
   116.8638 117.2485 117.8411 118.0277 118.4910 118.7490 119.1996 119.4797
   119.8522 120.4675 120.5293 120.6742 120.9699 121.1066 121.8168 122.3082
   122.4402 123.1552 123.2665 124.1411 124.3151 124.4298 124.5694 124.7682
   125.4748 125.6071 126.3504 127.1498 127.2875 127.4304 127.5983 128.1152
   128.3061 128.8407 128.8833 129.3938 129.9430 130.6166 130.6322 131.0402
   131.4888 131.9115 132.2631 132.6194 132.6771 133.0507 133.1807 133.6809
   134.0200 134.0916 134.6834 135.3365 135.3409 135.9571 136.0432 136.6790
   136.9631 137.3771 137.6237 137.8833 138.0346 138.5052 138.6498 138.8283
   139.4480 139.6280 139.7907 140.1866 140.3473 140.7580 140.7864 141.0226
   141.1719 141.5758 141.7455 142.5412 142.9141 143.6255 143.7610 144.1734
   144.3338 144.6233 144.7260 145.0422 145.2010 145.6404 146.3740 146.5362
   146.9619 147.1583 147.3411 148.1315 148.2997 148.4322 149.1173 149.3152
   149.6308 150.0371 150.3762 150.6958 151.2469 152.0190 152.9462 153.1982
   153.5128 153.8250 154.1808 154.3826 154.5260 154.7692 155.0716 155.2619
   155.8642 156.1501 156.7020 156.7522 157.3348 157.5650 157.9760 158.1107
   158.4914 158.6830 159.5180 159.5736 160.3815 160.6310 161.2084 161.4111
   161.6255 162.0607 162.1664 162.9334 162.9442 163.5031 163.5500 164.2259
   164.4161 164.8298 164.9944 165.4862 165.5009 166.1357 166.1708 166.9444
   167.2870 167.6607 167.7549 167.9916 168.5421 168.9338 169.3341 169.5078
   170.1579 170.3493 170.7990 171.1930 171.3674 171.7496 171.8874 172.2068
   172.3357 172.5065 172.8365 173.0469 173.2553 173.6037 173.7470 174.4662
   174.6651 174.8843 175.0038 175.3845 175.6725 175.7030 176.3448 176.8681
   176.9720 177.2813 177.5227 177.7487 178.2292 178.3886 178.6352 179.0633
   179.3985 179.6627 179.9965 180.0131 180.6955 180.9223 180.9243 181.3948
   181.6162 182.3507 182.3563 182.8875 183.6001 183.7145 183.8472 184.0715
   184.3266 184.7230 184.7488 184.7994 185.1588 185.3035 185.7064 185.8884
   185.9158 186.4329 187.0917 187.2862 187.5668 187.6883 188.0029 188.4988
   188.5960 189.1977 189.3335 189.8036 189.8209 190.0212 190.1903 190.2622
   190.7170 190.9550 191.2468 191.3274 191.3990 191.8045 191.9579 192.0942
   192.3923 193.1438 193.2149 193.8578 194.5870 195.4557 195.6907 195.7122
   195.9997 196.3110 196.3517 196.7188 197.1175 197.1478 197.9749 198.0456
   198.1626 198.2805 198.5664 198.8503 199.4909 199.6483 199.7438 200.2965
   200.5508 201.1384 201.3537 201.5902 201.9815 202.4722 202.6438 202.7207
   202.9989 203.1368 203.1705 203.4704 203.8331 203.8938 204.2268 204.5449
   205.3628 205.5558 206.1170 206.2150 206.2308 206.5220 207.0312 207.1778
   207.2672 207.4709 207.5951 207.9464 208.0512 208.3982 208.6952 208.8507
   209.2274 209.7423 210.0503 210.0963 210.6751 210.7313 210.9541 211.2108
   211.5857 211.8198 211.8616 211.9798 212.1529 212.6128 213.0876 213.6025
   213.6039 213.8061 214.2462 214.2900 214.5670 215.0560 215.5908 215.8958
   216.0758 216.4265 216.5929 216.6131 216.9427 216.9787 217.3005 217.8240
   217.9596 218.5725 219.0880 219.3408 219.5847 220.0259 220.0723 220.7582
   221.1390 221.2871 221.4130 221.7739 222.2512 222.5810 222.7352 223.0291
   223.1939 223.3251 223.6981 223.8487 224.4771 224.9564 225.6321 225.9880
   226.0395 226.1108 226.3378 226.5355 226.7967 226.9380 227.2486 227.2970
   227.5599 227.7393 227.7920 228.0794 228.1463 228.3351 229.0630 229.2880
   229.6711 230.1513 230.3886 230.5859 230.5970 230.7985 231.8958 232.1399
   232.3289 232.3852 232.6285 232.8407 232.8867 233.0609 233.1401 233.6003
   233.8387 233.9022 234.2323 234.4249 234.4915 234.5005 234.7133 235.5558
   235.6613 235.6821 236.6089 236.7142 236.9673 237.6618 237.9737 238.0072
   238.2138 238.6553 238.9762 239.1109 240.1450 240.9843 241.7639 241.7861
   242.1737 242.3450 242.5282 242.7953 242.9995 243.2836 243.7029 244.1926
   244.4531 244.6550 244.7963 245.1999 245.5250 245.7141 245.7717 245.9364
   246.2846 246.3200 246.4429 246.4925 247.2353 247.2658 247.4466 248.1182
   248.3882 248.5378 248.6259 248.7734 249.3751 249.7490 249.7634 249.9724
   250.2060 250.8311 250.8638 251.2885 251.4523 251.6053 251.9412 251.9891
   252.3209 252.9120 252.9315 253.4482 253.5827 253.6125 253.9338 254.0599
   254.2224 254.5316 254.7023 254.7619 255.1758 255.2489 255.5942 255.6022
   255.7378 255.9103 256.4854 256.8723 256.9635 257.0208 257.2067 257.3412
   257.8460 258.1773 258.2155 258.8046 259.0045 259.1634 259.3996 259.7449
   259.8194 260.0319 260.1283 260.4530 260.7605 260.8843 261.2900 261.9751
   262.2271 262.6030 262.6088 262.8959 263.1162 263.3714 263.5359 263.6064
   263.7716 263.7767 263.9282 264.4627 264.5234 264.8388 265.1125 265.1848
   265.6800 266.4360 266.6655 267.0230 267.4047 267.5653 268.2824 268.3816
   268.5280 268.8625 269.1756 269.2017 269.4673 269.8517 269.9939 270.0994
   270.1557 270.5227 270.6529 270.8681 270.9818 271.1907 271.2802 271.5466
   271.6659 271.6860 271.7866 272.7553 272.8609 272.9670 273.0992 273.1682
   273.5670 273.5686 273.6891 273.8508 274.1159 274.3313 274.8335 274.9568
   275.2577 275.3044 275.5849 275.7985 275.9051 276.1820 276.2893 276.3923
   276.7608 276.7953 277.5073 277.6675 277.9842 277.9981 278.3969 278.4078
   279.4261 279.4380 279.6567 279.8000 280.1108 280.3746 280.4203 280.7500
   280.7754 280.8825 281.0888 281.9674 282.0109 282.4097 282.4154 282.7207
   282.7780 282.8934 282.9235 283.5169 283.5830 283.9197 283.9352 284.4759
   285.0392 285.3883 285.5999 285.8175 285.9035 286.0900 287.2231 287.2543
   287.5975 287.6481 287.7551 287.7980 288.0587 288.2611 288.3993 288.8510
   288.9205 289.1590 289.3098 289.3152 289.6537 289.8459 290.4125 290.5646
   290.8014 290.8344 291.1562 291.2675 291.6876 291.6906 292.0482 292.0803
   292.3649 292.4347 293.1657 293.1910 293.3436 293.7225 293.9277 294.0265
   294.0370 294.2578 294.4088 294.5538 294.7301 295.9992 296.1202 296.2122
   296.4911 296.7532 296.8440 297.1297 297.4556 297.9541 298.0008 298.2563
   298.8941 299.2287 299.2778 299.6477 299.7021 300.1119 300.1726 300.3156
   300.3441 300.8438 301.2346 301.3089 301.5188 301.6372 302.2295 302.2904
   302.3848 302.8381 303.2245 303.6767 303.7887 304.0539 304.6296 304.6810
   304.7307 304.7575 305.0678 305.0720 305.5245 305.7539 305.7569 305.9804
   306.3325 306.5466 307.0301 307.1682 307.7967 307.9344 308.0887 308.3349
   308.6552 308.9930 310.3024 310.3810 310.6373 310.7186 310.7812 311.0809
   311.3884 311.5765 311.7319 311.9564 312.3398 312.3979 312.9606 313.0645
   313.2976 313.3863 313.8773 313.9935 314.2288 314.4138 314.7339 314.9056
   314.9074 315.0824 315.3744 315.5478 315.5590 315.6799 315.7238 315.8984
   316.0055 316.0223 316.2612 316.6390 316.8177 317.0604 317.6490 317.8046
   317.9448 318.1420 318.3839 318.5358 318.5764 318.7111 318.9002 318.9678
   319.1078 319.5433 319.6342 319.8375 319.9528 320.2967 320.5559 320.5733
   321.5589 321.7658 321.8942 322.1469 322.3331 322.7408 323.4174 323.4233
   323.6414 324.1625 324.2931 324.6666 324.7900 324.9976 325.4306 325.5177
   325.5931 325.7069 326.2329 326.4038 326.4836 326.6851 327.0574 327.1323
   327.6264 327.7945 327.8219 328.1155 328.2500 328.8376 329.1113 329.3416
   329.6879 329.8783 330.2779 330.3633 330.5503 330.5975 330.6094 330.7010
   331.1089 331.1102 331.5864 331.7510 331.8561 332.0311 332.5507 332.8924
   332.9920 333.1785 333.2109 333.9516 333.9790 334.0643 334.3887 335.0656
   335.1112 335.9237 336.1521 336.3072 336.3119 336.5481 336.7504 336.9527
   337.1588 337.5006 337.6935 337.7589 337.7685 337.9907 338.3276 338.4696
   338.5864 338.8938 339.1251 339.1552 339.2120 339.4555 339.6571 339.8070
   339.9589 340.1363 340.4769 340.9243 341.4053 341.4756 342.0041 342.0311
   342.4394 342.4592 342.9037 342.9873 343.6639 343.7258 343.8660 344.1629
   344.2669 344.3324 344.7259 345.2118 345.2540 345.6859 345.9475 346.1884
   346.6141 346.7051 346.7142 346.7843 347.3064 347.6002 347.6800 347.7400
   347.8643 348.0192 348.0602 348.1260 348.1978 348.4961 348.9832 349.0325
   349.0551 349.1337 349.2919 349.8857 350.0154 350.1847 350.3070 350.6164
   350.6875 350.8022 351.1058 351.1688 351.4295 351.5713 351.7271 351.8039
   351.9129 352.0814 352.3713 352.9897 353.0031 353.5304 353.7910 354.3825
   354.6120 354.6134 354.9364 355.0530 355.3632 355.3687 355.4146 355.8362
   356.9289 356.9748 357.3790 357.4860 357.6198 357.6642 357.7645 358.0002
   358.2917 358.3612 358.4368 358.6373 359.2533 359.3198 359.4567 359.7626
   359.8206 360.0563 360.4915 360.9470 361.0281 361.3237 362.0803 362.3194
   362.3537 362.4311 362.6759 362.7263 362.8213 363.0452 363.1009 363.7993
   364.0266 364.1728 364.3215 364.3738 364.7828 365.2204 365.2206 365.4819
   365.7511 365.8752 365.9213 366.4943 366.8910 366.9060 366.9886 367.0061
   367.1743 367.1926 367.2463 367.3308 367.6148 367.7637 367.7948 367.9861
   368.0854 368.3962 368.4022 368.7123 368.7886 368.9856 369.2573 369.2814
   369.5770 369.7189 369.8798 370.2365 370.5831 370.6499 370.7755 370.9510
   370.9764 371.0599 371.1844 371.2537 371.2816 371.7041 371.8440 371.8737
   372.6033 373.0187 373.0734 373.4523 373.6579 373.7180 373.9134 374.1185
   374.1222 374.6946 374.9567 375.0971 375.1619 375.8737 375.9279 376.5187
   376.5589 376.6111 377.2936 377.3894 377.7451 377.8358 378.0534 378.1711

          k = 0.6667-0.3333 0.6667 (  3832 PWs)   bands (ev):

   -94.1234 -55.1676 -55.1676 -55.1676 -28.0178 -28.0175 -28.0174 -28.0100
   -28.0099  -2.6096  -0.1100  -0.0999   0.0421   0.0666   0.3968   3.9551
     6.4256   6.9520  10.6904  12.7012  13.9135  14.5055  16.7602  17.9549
    18.3751  19.1574  19.9027  22.4069  23.2738  23.8478  24.9202  25.9262
    26.3188  27.0265  27.9910  28.8081  29.3162  29.7460  30.4490  30.8463
    31.6281  32.1281  33.9736  34.3797  34.6180  35.1439  36.4705  37.4837
    37.8665  38.8242  39.3127  40.2734  41.9658  42.4500  42.7060  43.1762
    43.1848  44.0339  44.6997  44.7574  45.9145  46.0333  46.5825  48.2441
    49.0071  49.2062  50.1427  50.3990  50.6421  50.9221  51.4000  51.9422
    52.4450  53.0376  53.6783  53.9565  54.3606  54.3769  55.7495  56.0311
    56.6622  57.4553  58.1878  58.8095  58.9968  59.2285  59.5155  60.3123
    60.9201  61.6780  61.9429  61.9512  62.8823  63.7945  64.1622  64.9615
    65.6908  66.1788  66.2918  67.1941  67.7297  68.0979  68.8332  69.4707
    69.5447  70.2058  70.6960  71.3710  72.0857  72.6075  72.9493  73.3973
    73.7859  74.3262  74.4202  74.7958  75.4509  75.9886  75.9986  76.3090
    76.7303  77.2922  77.8450  77.9020  78.9688  79.2748  79.8677  80.6052
    80.8289  81.4278  81.6500  82.4394  82.4943  83.3170  83.6341  83.9669
    84.5802  84.8875  85.0911  85.8687  86.1457  86.7651  87.1677  87.2096
    87.7637  87.9408  88.5734  89.1649  89.3940  89.9170  90.5259  90.8169
    91.1234  91.7955  92.2546  92.7664  92.9713  93.5444  93.7626  94.2419
    94.3537  94.6986  95.0015  95.1254  95.7660  96.2729  97.0415  97.2690
    97.8949  97.9842  98.6916  99.0203  99.7023  99.8601 100.2095 100.8385
   101.1520 101.2343 101.6415 102.0162 102.7791 102.8092 103.6372 103.6925
   103.9157 104.4645 104.7914 105.3675 105.5427 107.1363 107.3339 107.3979
   108.2039 108.3217 109.0693 109.2633 109.5073 109.7689 110.2061 110.7945
   110.7973 111.0754 111.6154 111.6743 112.0493 112.3367 112.4596 113.2557
   113.6532 114.2328 114.2986 114.5876 115.0043 115.2598 115.8416 116.3417
   117.1254 117.3902 117.4129 117.9716 118.2994 118.4981 118.8849 119.4142
   119.8036 119.8542 120.2585 120.4618 120.6771 121.0284 121.1012 121.5897
   121.8313 122.1669 122.3981 122.9957 123.6819 123.7286 124.3281 124.6998
   125.0622 125.4187 125.7813 126.2433 126.4421 126.9819 127.0689 127.3879
   127.4971 127.9442 128.0096 129.2146 129.2736 129.7510 130.2525 130.2681
   131.8016 131.9214 132.0627 132.2985 132.4972 132.7742 133.2842 133.4751
   134.0771 134.4138 134.5631 135.8035 136.0809 136.4201 136.8163 136.8767
   137.1323 137.5281 137.6187 137.9672 138.2458 138.6180 138.7131 139.2051
   140.0922 140.3874 140.5896 141.1447 141.6392 141.9797 142.0081 142.0555
   143.0487 143.5350 143.9873 144.4829 145.3144 145.4037 145.6471 146.0667
   146.5094 146.6536 146.8716 146.9478 147.1819 147.6093 148.1102 148.1832
   148.7115 148.8614 149.2068 149.8049 149.8463 150.0184 150.4755 150.5196
   150.8008 151.1362 151.4102 151.4516 151.8393 152.4953 152.8659 152.9035
   153.5116 153.7341 154.0114 154.1200 154.5470 155.2984 155.3386 155.4888
   155.9490 155.9849 156.3156 156.7737 157.0085 157.5559 157.5783 157.9611
   158.1645 158.5955 159.2117 159.4273 159.8862 159.9075 160.2452 160.5988
   161.0927 161.1794 161.4868 161.8434 162.2800 162.9827 163.2312 163.4746
   164.1711 164.2250 164.3668 164.5750 164.8431 165.0674 165.4375 165.4441
   165.6510 165.9909 166.3663 166.6164 166.8361 167.3461 167.7832 167.9738
   168.3050 168.6478 168.9059 169.3112 169.6938 169.7887 170.2236 170.4934
   170.8052 171.1526 171.2150 171.8102 172.0210 172.1483 172.8393 173.1374
   173.5417 173.9987 174.3971 174.6437 174.9578 175.1945 175.7112 175.9933
   176.6026 176.7489 176.8567 177.3752 177.6668 178.0669 178.4829 178.5639
   178.8568 179.0286 179.5315 179.7952 179.8251 180.2208 180.7672 181.2798
   181.2838 181.5408 181.8752 182.0506 182.1661 182.4521 182.5056 183.0650
   183.9862 184.2038 184.2293 184.6663 185.2643 185.5173 185.7629 186.3390
   186.6130 186.8806 187.1490 187.2183 187.3510 188.4222 188.6996 188.8039
   188.9465 189.2919 189.4211 189.9716 190.0448 190.4597 191.0132 191.2060
   191.5598 191.7789 192.0170 192.3120 192.3863 192.8576 193.0017 193.3555
   194.0408 194.2102 194.6974 195.2281 195.2380 195.3156 196.0035 196.3310
   196.4188 196.7436 197.1087 197.1177 197.7925 198.0108 198.1369 198.9175
   199.1602 199.2367 199.3647 200.0473 200.3392 200.4917 200.5726 200.9183
   201.1252 201.2398 201.6935 202.0908 202.2631 202.7223 202.8852 203.2803
   203.3790 203.8266 203.9146 204.2502 204.2789 204.5107 204.6500 205.4539
   205.7965 205.8612 205.9724 206.3478 206.4251 206.6566 206.7648 207.2983
   207.4685 207.7021 207.8061 208.0311 208.5878 208.6236 209.0070 209.3624
   209.5324 209.6575 210.0597 210.5532 210.8237 211.1385 211.5111 211.7370
   212.0192 212.0260 212.5082 213.0160 213.1043 213.1587 213.5790 213.7343
   214.2538 214.9858 215.2416 215.3438 215.8769 216.1676 216.3504 216.3923
   216.6038 216.6525 217.1082 217.2450 217.5600 217.8037 218.4546 218.4551
   218.8123 218.9050 219.3646 219.8727 220.1396 220.2282 220.5504 220.8044
   220.8317 221.1806 221.1833 222.0015 222.2299 222.3678 222.8154 222.8790
   223.0788 223.5098 223.5350 223.6236 224.5158 224.6586 225.0488 225.2738
   225.3299 225.5988 225.8422 226.2403 226.3889 226.4095 226.9464 227.1094
   227.8160 227.9193 228.4647 228.7873 228.9760 229.2404 229.2792 229.4827
   229.5928 229.9203 230.0791 231.0934 231.1705 231.4801 231.7979 232.1390
   232.3434 232.5993 232.8683 233.2086 233.2756 233.5644 233.8801 233.8972
   234.2003 234.2569 234.6113 234.7375 235.1980 235.3649 235.3993 235.7124
[...]
   203.8342 203.9670 204.2299 204.3509 204.6841 204.9521 205.1007 205.4910
   205.8313 205.9998 206.0953 206.5032 206.7119 207.0425 207.1046 207.5762
   207.7784 207.8522 208.5311 208.7647 209.0298 209.6489 209.8528 210.1071
   210.1580 210.8446 210.9794 211.4432 211.6443 211.9174 212.1317 212.1934
   212.3728 212.7455 213.0428 213.2936 213.6615 213.9945 214.3655 214.6482
   214.8056 214.9454 215.4111 215.5416 215.6572 215.9279 216.1058 216.4062
   216.7527 216.9032 217.3728 217.5938 217.8734 218.3834 218.7076 219.0136
   219.0534 219.5964 219.6562 220.3178 220.5651 220.6329 220.8438 221.2952
   221.5483 221.7450 222.0946 222.2327 222.3417 222.8962 223.1302 223.2462
   223.4204 223.6476 224.0197 224.3827 224.7125 225.1051 225.4552 225.9198
   226.2391 226.4295 226.6608 226.7626 227.2035 227.7043 227.8993 228.6078
   228.7883 228.9587 228.9912 229.1693 229.2596 229.6215 229.8184 229.8735
   230.0728 230.6667 230.8634 231.2890 231.3813 231.4029 231.6332 231.7756
   232.2927 232.5524 232.7866 233.0444 233.4066 233.6299 233.7116 233.9419
   234.0523 234.2433 234.5035 234.8918 235.1442 235.6939 235.8912 236.2787
   236.5525 236.8239 236.8895 237.1251 237.3148 237.5553 237.7883 238.1382
   238.6806 238.6864 239.4705 239.5861 239.6293 240.0725 240.3738 240.4460
   240.6229 240.8512 241.0569 241.3074 241.5076 241.7332 241.8359 241.9289
   242.0433 242.1180 242.2213 242.4194 242.4822 242.7157 243.0534 243.7251
   243.9314 244.7228 245.2466 245.5994 245.9912 246.1155 246.2715 246.7452
   246.8826 247.1715 247.2546 247.4720 247.5117 247.5886 247.6911 247.7849
   248.2251 248.4012 248.7877 248.9383 249.3730 249.6783 249.8354 250.1430
   250.7405 251.0302 251.2255 251.3224 251.6342 251.8136 251.9681 252.0452
   252.2375 252.3854 252.5538 252.8222 253.0051 253.1067 253.7486 254.2260
   254.3824 254.5698 254.9507 255.0032 255.1933 255.4135 255.9021 255.9581
   256.3506 256.4414 256.5654 256.7384 257.7688 257.8529 258.2743 258.3259
   258.4508 258.5413 259.1907 259.3523 260.2291 260.3062 260.3853 260.4594
   261.0468 261.1185 261.1573 261.2292 262.9146 263.0862 263.2960 263.5720
   263.6845 264.0600 264.1498 264.3190 264.6573 264.7126 264.9524 265.2708
   265.5268 265.6029 265.8727 266.0426 266.1817 266.4758 266.7287 266.8726
   267.2032 267.2470 267.2875 267.6246 268.0459 268.5006 269.2893 269.4578
   269.6919 269.8880 270.0534 270.4694 270.6281 270.9735 271.2200 271.4973
   271.7867 272.3123 272.5827 272.7460 272.8915 273.2110 273.5623 273.6228
   274.0246 274.2486 275.1243 275.6330 275.7552 275.9145 276.1478 276.2044
   276.2593 276.4267 277.0987 277.3512 277.3936 277.6527 278.3842 278.5752
   278.7417 279.0178 279.1866 279.2855 279.3840 279.4360 279.9172 280.0505
   281.0722 281.1667 281.5108 281.8069 282.1639 282.2813 282.6852 282.8205
   282.9755 283.1310 283.2926 283.5809 284.2523 284.4816 284.7504 284.9672
   285.1742 285.4262 285.4497 285.5848 286.3972 286.5596 286.6556 286.6840
   286.9134 287.1331 287.3329 287.6377 287.6834 287.7237 288.0057 288.2424
   288.4315 288.6160 288.8690 288.9425 289.0681 289.1095 289.2094 289.3900
   289.5299 289.6607 290.2769 290.7073 291.0341 291.0724 291.5853 291.8834
   292.4064 292.5353 292.7090 292.8287 293.0737 293.1247 293.3224 293.4688
   293.6930 293.8947 293.9571 294.1798 294.2178 294.7813 295.0245 295.5142
   295.6467 295.8492 296.1042 296.4369 296.6339 296.9530 297.1262 297.3929
   297.6343 297.9661 298.3080 298.3260 298.6019 299.0446 299.3972 299.4090
   299.5079 299.7101 299.9382 300.0848 300.3104 301.2796 301.3916 301.5010
   301.5733 301.9368 302.1189 302.2529 302.3392 302.5267 302.8024 302.9858
   303.1628 303.3940 303.6610 303.7172 303.8077 304.1663 304.2931 304.3395
   305.0994 305.1830 305.5602 305.8513 305.9431 306.0055 306.3862 306.4825
   306.8205 306.9211 307.2344 307.2613 307.6076 307.6437 307.8391 308.0016
   308.4836 308.7013 309.3417 309.8310 309.8971 310.3696 310.4816 310.5165
   311.4583 311.6619 311.7357 312.1411 312.3500 312.4941 312.5647 312.6360
   313.1014 313.1635 313.3122 313.5193 313.6659 313.7931 313.8586 314.0868
   314.1511 314.2504 314.5365 314.6003 314.7406 314.7774 314.9041 314.9412
   315.2373 315.3829 315.4389 315.4877 315.9992 316.0154 316.1596 317.0770
   317.1382 317.3190 317.5288 317.5654 317.9663 317.9835 318.5777 318.8996
   319.0937 319.3674 320.7612 320.8201 320.8412 320.9200 321.5256 321.6714
   322.3475 322.4551 322.5034 322.6545 322.8697 322.9523 323.1020 323.3073
   323.5726 323.5998 323.6947 323.8321 324.8131 324.9287 325.1871 325.5563
   325.7335 325.7606 325.7967 325.9309 326.1976 326.2621 327.2493 327.3087
   327.4031 327.5762 327.6907 328.2864 328.7983 328.9183 329.3615 329.4911
   329.6949 329.8052 329.8320 329.9349 330.0393 330.2110 330.3239 330.4054
   330.6299 330.6428 331.1256 331.1458 331.2652 331.5727 331.6372 331.7131
   332.0494 332.0980 332.5032 332.5381 333.0053 333.0963 333.6515 333.6923
   334.1591 334.2955 334.3487 334.5337 335.0894 335.1280 335.2703 335.4038
   335.8696 335.9084 336.5049 336.6091 336.7829 336.8925 336.9738 337.0100
   337.9141 338.0684 338.2341 338.2561 338.5846 338.8884 339.2476 339.4679
   339.8477 339.9169 340.1839 340.2742 340.3631 340.4105 340.8822 340.9104
   341.3090 341.3400 341.5715 341.8005 342.0112 342.0269 342.5978 342.6391
   342.7190 342.7678 343.4163 343.6120 343.6164 343.6723 343.7211 343.7395
   344.0454 344.1258 344.4882 344.5497 345.0904 345.1366 345.2246 345.4238
   346.1071 346.1355 346.7571 346.7784 347.5349 347.6389 347.7960 347.8689
   348.0870 348.1020 348.8727 348.9390 349.2129 349.3598 349.7379 349.9579
   350.0196 350.2111 350.2372 350.2810 350.7202 350.8962 351.1191 351.1726
   351.2382 351.2839 351.3476 351.4362 351.5578 351.7836 352.7171 352.8158
   352.9439 352.9882 353.0242 353.1129 353.7411 353.7920 354.9798 355.3357
   355.6106 355.6186 355.7151 355.8378 356.1455 356.1939 356.8899 357.3221
   357.4503 357.6289 358.3570 358.4071 358.8011 359.0308 359.0959 359.1843
   359.2441 359.3442 359.3844 359.4715 359.5796 359.7049 360.2228 360.2587
   360.5238 360.7311 361.3100 361.6297 361.8232 362.0635 362.0968 362.6765
   362.7231 362.8770 362.9136 363.2909 363.3259 363.8669 363.8885 364.3655
   364.4997 364.5161 364.6540 364.6935 364.7973 365.6607 365.8766 366.1260
   366.1520 366.2475 366.4078 366.8020 366.9210 367.0496 367.2227 367.7392
   367.9535 368.1475 368.4528 368.4886 368.7363 368.7785 369.1934 369.2267
   369.2832 369.3402 369.3506 369.6897 369.7760 369.7825 370.1853 370.2329
   370.9712 370.9808 371.6005 371.6149 372.5245 372.5466 373.4345 373.5253
   373.6195 373.6336 374.6385 374.7520 374.9140 375.1501 375.1778 375.2559
   375.8526 375.8780 376.3335 376.4114 376.8878 376.9000 377.3374 377.3411
   377.5131 377.5316 377.7326 377.7659 379.3395 379.3822 379.4233 379.4719

          k =-0.3333-1.0000 0.0000 (  3840 PWs)   bands (ev):

   -94.1234 -55.1676 -55.1676 -55.1676 -28.0179 -28.0175 -28.0172 -28.0101
   -28.0098  -2.5273  -0.0620  -0.0601   0.0136   0.0679   0.5514   3.9369
     5.9037   6.0033  11.6141  11.8049  14.6039  14.9153  17.3734  19.0481
    19.2735  19.3681  21.8982  22.6362  23.1219  23.1903  23.3949  23.6426
    26.5845  26.6030  27.3930  27.7083  27.9990  28.4348  30.3529  31.1647
    31.1764  32.4212  34.6043  34.7739  35.1544  35.7913  36.3022  37.2078
    38.6654  39.7847  40.0576  40.7440  41.0027  41.2025  43.4916  43.7251
    44.0287  44.3309  44.8534  44.9461  45.8485  45.8523  46.3530  46.6336
    49.0125  49.4216  50.0906  50.4257  51.4649  51.6726  51.7743  52.9322
    53.2508  53.3560  54.0351  54.2716  54.6385  55.3243  56.5014  56.5735
    56.8684  56.9119  57.7554  58.0261  58.8224  58.9904  60.1629  60.8345
    61.5206  61.9009  62.3270  62.4856  63.3343  63.6235  64.1484  64.3585
    64.5638  65.0598  65.5214  66.3971  66.8480  67.5315  67.5519  68.4179
    68.4282  68.5184  69.2643  69.3153  70.4299  70.7058  71.0620  71.3577
    73.3930  73.4926  73.7152  73.8572  74.1970  75.8458  75.8971  76.1139
    77.5779  77.8149  78.6332  79.6275  80.4038  80.4639  80.8993  81.1557
    81.7287  82.0027  83.0149  83.2045  83.5920  84.7041  84.9140  85.1025
    85.5544  85.7157  86.1251  86.8852  87.6783  87.7366  87.9366  88.3107
    88.4421  89.0582  89.1493  89.6994  90.1179  90.2837  91.0340  91.2051
    91.8061  92.1452  92.1576  93.0156  93.6470  94.0091  94.6857  94.7145
    94.7888  94.9544  95.2927  96.0364  96.2023  96.6096  96.6559  96.8984
    97.4303  98.4622  98.7966  99.1176  99.1650  99.4728 100.2575 100.6810
   101.0346 101.3727 101.5510 102.0198 102.6529 102.7261 102.7814 103.3804
   103.9768 104.1675 104.6647 104.9494 105.3264 105.4966 105.5724 105.8007
   106.0573 106.8128 106.9516 107.3644 108.5285 108.6370 108.9363 109.3529
   109.8494 110.0266 110.1394 111.0873 111.1014 111.3112 112.2438 112.7685
   113.1128 113.1365 113.5851 113.8299 114.5147 114.7134 115.4004 115.6600
   115.7490 116.5723 116.7014 117.2308 117.4743 117.8905 117.9343 118.1191
   118.1624 119.4965 119.5263 120.1994 120.7692 121.5446 121.9513 122.5575
   122.8561 123.4801 123.9339 124.5976 125.0887 125.3913 125.4213 125.7783
   126.0942 126.3581 126.5933 127.0790 128.1912 128.2520 128.3427 128.3628
   129.0323 129.5436 129.5453 129.5722 130.5910 130.6439 131.1040 131.1151
   131.8136 132.1961 132.3492 132.6343 132.9927 133.2372 133.7770 133.8384
   134.4889 134.5167 135.2021 135.5675 136.0474 136.3225 136.6255 136.6858
   136.7309 137.2181 137.3979 137.8007 137.9250 138.1130 138.3638 139.4575
   139.9526 140.5520 140.6681 140.9187 141.3271 141.7577 142.1767 142.5801
   142.8169 142.8316 143.2257 143.9417 144.7090 145.1532 145.2805 145.3233
   146.0776 146.3619 146.3620 146.8043 147.2782 147.5391 148.2278 148.6709
   148.7696 149.1502 149.4903 149.8188 150.0612 150.2649 150.4116 150.8966
   150.9328 151.3009 151.4124 151.8683 152.4166 152.8146 154.0785 154.2453
   154.3620 154.5585 154.6657 155.0640 155.0679 155.6159 155.8599 156.0660
   156.3201 156.3892 156.9137 156.9457 157.0845 157.3559 157.8765 157.9087
   158.1590 158.2906 158.5734 158.7314 158.8177 159.0525 160.2127 160.2151
   160.7802 160.8684 161.5314 161.5999 161.8844 162.4847 162.5748 162.7131
   163.6288 163.6751 164.0954 164.6454 165.1235 165.5640 165.7210 166.4046
   166.6952 166.6964 167.1761 167.3424 167.3428 167.8459 168.2727 168.3415
   168.8767 168.8958 169.3134 169.6553 169.8763 169.9812 170.1177 170.4267
   170.7361 170.7679 170.9586 171.1745 171.8769 171.9601 172.3464 172.3881
   172.8571 172.8755 173.2422 173.4312 173.7422 173.9551 174.3072 174.4721
   175.0860 175.3384 175.6429 175.6584 176.3227 176.5067 177.3003 177.5591
   177.9752 178.0846 179.9365 180.2062 180.2442 180.8122 181.4467 181.8326
   181.8846 182.4502 182.4839 182.6200 183.2349 183.4152 183.4990 183.9636
   184.2658 184.4187 184.5528 184.6187 185.0422 185.0711 185.4346 185.4716
   186.2394 186.3215 186.6285 186.9938 187.0590 187.7919 188.0154 188.4494
   188.8346 188.9198 189.0393 189.0771 189.2715 189.3934 190.7610 190.8855
   191.4190 191.5260 191.5490 191.8692 192.4248 192.9328 193.1204 193.2181
   193.3980 193.6999 194.3360 194.4550 194.6916 194.7931 195.1074 195.1206
   195.3338 195.3644 196.3005 196.6228 197.2135 197.2146 197.3624 197.5592
   197.8468 198.3347 199.0630 199.1377 199.4467 199.7167 200.4607 200.6925
   200.7571 200.8787 201.4331 201.6372 202.3862 202.4847 202.9387 203.2561
   203.3246 203.4431 203.6549 203.9331 204.0463 204.2445 204.3048 204.9909
   205.4010 205.5410 205.9591 205.9594 206.0722 206.3192 206.9088 207.4096
   207.8248 207.8393 208.3983 208.4595 208.6499 209.0865 209.7171 210.2280
   210.6254 211.3204 211.6854 212.0018 212.4741 212.6174 213.5904 213.6981
   214.5471 215.0876 215.1876 215.2299 215.3568 215.5956 216.2090 216.2094
   216.3616 216.3896 216.5269 216.6384 216.9433 217.0757 217.3543 217.8222
   218.1567 218.3300 218.5128 218.7185 219.2650 219.2740 219.3647 219.5080
   219.6111 219.9991 220.6598 220.7282 220.9576 221.2368 221.4579 221.8725
   222.3426 222.4452 222.5940 222.9619 223.3830 223.5006 224.1833 224.2941
   224.3140 224.7391 224.9705 225.1056 225.2078 225.6033 225.8666 225.9043
   226.7328 226.7571 227.2521 227.5242 227.6930 227.8608 228.0108 228.1390
   228.2491 228.3291 228.5481 228.7334 229.0805 229.1504 229.6467 229.6825
   229.7765 230.1688 230.2512 230.3358 231.0816 231.2554 231.5018 231.6566
   231.9320 232.1786 232.2533 232.3678 232.7552 232.7843 232.9270 233.0250
   233.5198 233.6574 233.9551 233.9937 234.1155 234.3163 234.5631 234.7536
   234.9598 235.2588 235.9632 236.0549 236.9830 237.1382 237.4127 237.4944
   237.6266 237.6296 237.7652 237.8328 238.2643 238.4335 238.5075 238.9858
   239.6761 239.6900 240.0129 240.1468 240.4886 241.2402 241.3035 241.4780
   241.8137 241.8581 242.7414 242.8126 243.0661 243.1192 243.8624 243.9186
   244.6914 244.9596 245.3255 245.5428 245.7696 245.9519 246.2065 246.3830
   246.9185 247.0056 247.2619 247.5236 247.6928 247.8411 247.9156 248.0180
   248.4278 248.5516 248.6051 248.6372 248.8419 248.9102 249.0324 249.0593
   250.4677 250.6503 251.1175 251.7816 252.0521 252.1519 252.8882 253.1109
   253.1437 253.3102 253.5805 253.6567 253.9180 253.9202 254.7602 254.8317
   255.0351 255.0370 255.2220 255.2603 255.3387 255.4371 255.8564 255.9671
   256.2867 256.4469 256.9171 257.2422 257.2472 257.4273 257.5372 257.5843
   257.7961 257.8940 258.0262 258.3565 258.9391 258.9499 258.9811 259.0029
   259.7068 260.3018 261.0188 261.0343 261.8404 261.9301 262.0827 262.2224
   262.6100 262.6766 262.8884 264.1405 264.3367 264.4891 264.7026 264.7981
   264.9692 265.3583 265.5263 265.5615 265.5691 266.0026 266.2366 266.4701
   267.3387 267.4659 267.6733 267.7735 267.9787 268.0495 268.8767 269.2546
   269.6069 269.6799 270.3761 270.5399 271.4816 271.6985 271.9611 272.1386
   272.4463 272.4981 272.7090 272.7788 272.8833 272.9354 273.7154 273.7275
   274.4108 274.5630 274.6478 275.0897 275.2243 275.5658 275.7647 275.8126
   277.1821 277.6905 277.9667 277.9971 278.8327 278.8445 278.9700 279.5241
   279.9801 280.0459 280.1532 280.3279 280.5789 280.9300 281.0224 281.0908
   281.3423 281.5868 281.7697 281.9144 282.0338 282.2262 282.2630 282.3928
   282.8783 283.0437 283.0733 283.2324 283.7647 283.8640 284.1352 284.2033
   284.7519 284.8071 285.6452 285.6534 286.0040 286.0417 286.0779 286.1208
   286.5525 286.6737 287.4383 287.5854 287.7626 287.8431 288.1641 288.3093
   289.4931 289.5094 289.9144 289.9578 291.1322 291.2719 291.4332 291.4971
   291.9430 291.9774 292.0251 292.0685 292.2191 292.2792 292.4005 292.4757
   292.8237 292.8392 294.5492 294.6245 294.6699 294.8006 295.0353 295.0766
   295.1049 295.1062 295.2228 295.2989 295.3687 295.4491 295.4869 295.7314
   296.7255 296.7628 296.8666 297.0061 297.2356 297.5166 297.7238 298.0488
   298.0558 298.3581 299.0565 299.2101 299.4149 299.4201 299.5839 299.7393
   299.9280 300.0667 300.1281 300.2765 300.4230 300.5162 300.5391 300.5915
   301.7683 301.8415 302.2939 302.3499 302.3561 302.4437 302.6860 302.7228
   302.8402 302.9455 302.9761 303.1119 303.4040 303.4222 303.5070 303.6352
   303.7757 304.2195 304.3184 304.5067 304.5445 304.6720 304.8288 305.0075
   305.1938 305.5327 306.0837 306.1064 306.2813 306.3299 308.2430 308.2504
   308.3315 308.3451 309.7404 309.7769 309.8519 309.9711 310.2137 310.3753
   310.8849 310.9356 311.3226 311.3291 311.5094 311.6007 311.6964 311.8694
   312.0585 312.2998 312.3761 312.4716 312.5697 312.5866 313.6787 313.6862
   314.7219 314.7286 314.9262 314.9685 315.0474 315.0754 315.3659 315.5678
   316.5608 316.6309 316.7899 316.8691 316.9397 316.9577 317.4053 317.4072
   317.6479 317.6546 318.1362 318.1426 318.4876 318.7333 318.9175 319.0723
   319.5146 319.5150 319.6756 319.7536 319.7867 319.9224 320.1456 320.1772
   320.2906 320.3300 320.6589 320.6742 320.8605 321.1873 322.1197 322.1523
   322.2502 322.4120 323.0014 323.0381 323.1748 323.2096 323.2493 323.6797
   323.7593 323.8780 324.7531 325.2704 325.3083 325.6311 325.6750 325.6938
   325.7856 325.7884 327.2841 327.2922 327.9052 327.9201 328.8758 328.8949
   329.8320 329.9724 330.6944 330.7834 330.9670 331.0604 331.3706 331.3845
   331.9979 332.0617 332.0800 332.1074 332.3605 332.3705 332.7218 332.9751
   333.1453 333.1576 333.5354 333.5565 333.6106 333.6413 333.7312 334.0710
   334.4070 334.4398 334.7112 334.7785 336.1509 336.2723 336.3111 336.3304
   336.5399 336.5630 336.9076 336.9505 337.0624 337.1150 337.4128 337.5586
   337.6891 337.7008 338.0865 338.1394 339.0736 339.1408 339.6024 339.6549
   339.9586 340.1276 340.2919 340.3602 340.6587 340.6910 341.1372 341.1721
   341.5115 341.7102 342.0634 342.2031 342.2336 342.2846 342.3342 342.5646
   342.7393 342.8835 342.9958 343.0242 343.0691 343.2452 343.3966 343.4834
   344.8317 344.8591 345.1572 345.1933 345.5152 345.7314 346.3550 346.4042
   346.8272 347.0069 347.2031 347.2735 347.4297 347.4787 347.5922 347.7258
   347.9399 348.0255 348.0681 348.1450 348.2182 348.3033 348.4659 348.4947
   348.7640 348.7819 348.8984 348.9114 349.4585 349.4918 349.6387 349.6425
   350.0963 350.1177 351.0817 351.0995 351.1249 351.4008 351.8787 351.8789
   353.7699 353.7717 353.8281 353.8485 354.6045 354.6129 355.5642 355.5685
   355.6669 355.6789 356.0865 356.0893 357.2498 357.3130 357.4559 357.4879
   357.6027 357.6201 358.4304 358.5295 359.0811 359.1226 359.8423 359.8750
   359.9542 360.0094 360.3036 360.3987 360.5063 360.6165 360.7520 360.7658
   361.1963 361.3423 361.4350 361.4457 361.6348 361.6733 361.9759 362.0617
   362.1203 362.1295 363.4014 363.4480 363.4805 363.5145 363.7632 363.8902
   364.2059 364.2621 364.2794 364.3031 364.6980 364.7310 365.2121 365.2226
   365.7316 365.7690 365.8806 365.9032 366.7816 366.7845 367.1403 367.2261
   367.3716 367.6117 367.9472 368.0007 369.2903 369.3059 369.7290 369.8066
   369.8179 369.8419 370.3737 370.4172 370.5955 370.7348 370.8934 371.2142
   371.2334 371.2630 371.5342 371.7273 371.7737 371.9060 372.1135 372.2358
   372.9353 372.9468 373.7792 373.7928 375.6546 375.6846 375.9443 375.9680
   376.2792 376.3303 377.1685 377.1940 377.3160 377.3916 377.6625 377.7102
   378.4080 378.5433 378.5954 378.6669 379.2652 379.3601 379.4748 379.5177

     the Fermi energy is     8.2563 ev
     (compare with:     8.0798 eV, computed in scf)

     Writing all to output data dir out/mp-406.save/
 
     init_run     :      0.03s CPU      0.04s WALL (       1 calls)
     electrons    :    740.08s CPU    786.82s WALL (       1 calls)

     Called by init_run:
     wfcinit      :      0.00s CPU      0.00s WALL (       1 calls)
     potinit      :      0.01s CPU      0.01s WALL (       1 calls)
     hinit0       :      0.01s CPU      0.01s WALL (       1 calls)

     Called by electrons:
     c_bands      :    740.08s CPU    786.80s WALL (       1 calls)
     v_of_rho     :      0.00s CPU      0.00s WALL (       1 calls)

     Called by c_bands:
     init_us_2    :      0.00s CPU      0.00s WALL (       8 calls)
     init_us_2:cp :      0.00s CPU      0.00s WALL (       8 calls)
     cegterg      :    714.60s CPU    759.54s WALL (       8 calls)

     Called by *egterg:
     cdiaghg      :    665.88s CPU    709.24s WALL (      92 calls)
     h_psi        :     12.95s CPU     13.46s WALL (     100 calls)
     g_psi        :      0.10s CPU      0.10s WALL (      84 calls)

     Called by h_psi:
     h_psi:calbec :      0.28s CPU      0.30s WALL (     100 calls)
     vloc_psi     :     12.27s CPU     12.75s WALL (     100 calls)
     add_vuspsi   :      0.20s CPU      0.21s WALL (     100 calls)

     General routines
     calbec       :      0.28s CPU      0.30s WALL (     100 calls)
     fft          :      0.00s CPU      0.00s WALL (      10 calls)
     fftw         :     11.20s CPU     11.65s WALL (  124460 calls)
 
     Parallel routines
 
     PWSCF        :  12m20.93s CPU  13m 8.18s WALL

 
   This run was terminated on:  19: 6:12   6Dec2023            

=------------------------------------------------------------------------------=
   JOB DONE.
=------------------------------------------------------------------------------=
