
     Program PWSCF v.7.1 starts on 21Dec2023 at  0: 3:30 

     This program is part of the open-source Quantum ESPRESSO suite
     for quantum simulation of materials; please cite
         "P. Giannozzi et al., J. Phys.:Condens. Matter 21 395502 (2009);
         "P. Giannozzi et al., J. Phys.:Condens. Matter 29 465901 (2017);
         "P. Giannozzi et al., J. Chem. Phys. 152 154105 (2020);
          URL http://www.quantum-espresso.org", 
     in publications or presentations arising from this work. More details at
     http://www.quantum-espresso.org/quote

     Parallel version (MPI), running on     8 processors

     MPI processes distributed on     1 nodes
     123252 MiB available memory on the printing compute node when the environment starts
 
     Reading input from pw_mp-2758_nscf_k10_E64.in
Warning: card &IONS ignored
Warning: card / ignored
Warning: card &CELL ignored
Warning: card / ignored

     Current dimensions of program PWSCF are:
     Max number of different atomic species (ntypx) = 10
     Max number of k-points (npk) =  40000
     Max angular momentum in pseudopotentials (lmaxx) =  4

     Atomic positions and unit cell read from directory:
     out/mp-2758.save/
     Atomic positions from file used, from input discarded
 
 
     R & G space division:  proc/nbgrp/npool/nimage =       8
     Subspace diagonalization in iterative solution of the eigenvalue problem:
     one sub-group per band group will be used
     scalapack distributed-memory algorithm (size of sub-group:  2*  2 procs)

 
     Parallelization info
     --------------------
     sticks:   dense  smooth     PW     G-vecs:    dense   smooth      PW
     Min         154     154     45                 3599     3599     547
     Max         155     155     46                 3603     3603     548
     Sum        1237    1237    361                28811    28811    4381
 
     Using Slab Decomposition
 


     bravais-lattice index     =            2
     lattice parameter (alat)  =      11.8664  a.u.
     unit-cell volume          =     417.7298 (a.u.)^3
     number of atoms/cell      =            2
     number of atomic types    =            2
     number of electrons       =        16.00
     number of Kohn-Sham states=         1200
     kinetic-energy cutoff     =      64.0000  Ry
     charge density cutoff     =     256.0000  Ry
     Exchange-correlation= PBE
                           (   1   4   3   4   0   0   0)

     celldm(1)=  11.866386  celldm(2)=   0.000000  celldm(3)=   0.000000
     celldm(4)=   0.000000  celldm(5)=   0.000000  celldm(6)=   0.000000

     crystal axes: (cart. coord. in units of alat)
               a(1) = (  -0.500000   0.000000   0.500000 )  
               a(2) = (   0.000000   0.500000   0.500000 )  
               a(3) = (  -0.500000   0.500000   0.000000 )  

     reciprocal axes: (cart. coord. in units 2 pi/alat)
               b(1) = ( -1.000000 -1.000000  1.000000 )  
               b(2) = (  1.000000  1.000000  1.000000 )  
               b(3) = ( -1.000000  1.000000 -1.000000 )  


     PseudoPot. # 1 for Se read from file:
     /usr/scratch4/magr4985/MG/HTDF/pseudo/SG15/Se.upf
     MD5 check sum: e78e48a4f5d8ce1f8dc76ec1271f249c
     Pseudo is Norm-conserving, Zval =  6.0
     Generated using ONCVPSP code by D. R. Hamann
     Using radial grid of  602 points,  6 beta functions with: 
                l(1) =   0
                l(2) =   0
                l(3) =   1
                l(4) =   1
                l(5) =   2
                l(6) =   2

     PseudoPot. # 2 for Sr read from file:
     /usr/scratch4/magr4985/MG/HTDF/pseudo/SG15/Sr.upf
     MD5 check sum: 3f9bc8d6f3e8472da0cbe0e6a3044a9f
     Pseudo is Norm-conserving, Zval = 10.0
     Generated using ONCVPSP code by D. R. Hamann
     Using radial grid of  602 points,  6 beta functions with: 
                l(1) =   0
                l(2) =   0
                l(3) =   1
                l(4) =   1
                l(5) =   2
                l(6) =   2

     atomic species   valence    mass     pseudopotential
        Se             6.00    78.96000     Se( 1.00)
        Sr            10.00    87.62000     Sr( 1.00)

     48 Sym. Ops., with inversion, found



   Cartesian axes

     site n.     atom                  positions (alat units)
         1           Sr  tau(   1) = (   0.0000000   0.0000000   0.0000000  )
         2           Se  tau(   2) = (  -0.5000000   0.5000000   0.5000000  )

     number of k points=     3  Gaussian smearing, width (Ry)=  0.0005
                       cart. coord. in units 2pi/alat
        k(    1) = (   0.0000000   0.0000000   0.0000000), wk =   0.2500000
        k(    2) = (   0.5000000  -0.5000000   0.5000000), wk =   1.0000000
        k(    3) = (   0.0000000  -1.0000000   0.0000000), wk =   0.7500000

     Dense  grid:    28811 G-vectors     FFT dimensions: (  45,  45,  45)

     Estimated max dynamical RAM per process >     136.87 MB

     Estimated total dynamical RAM >       1.07 GB

     The potential is recalculated from file :
     out/mp-2758.save/charge-density

     Starting wfcs are random

     Band Structure Calculation
     Davidson diagonalization with overlap

     ethr =  5.00E-06,  avg # of iterations = 12.7

     total cpu time spent up to now is      456.5 secs

     End of band structure calculation

          k = 0.0000 0.0000 0.0000 (  3695 PWs)   bands (ev):

   -28.4642 -10.4254 -10.4254 -10.4254  -5.7200   5.5255   5.5255   5.5255
     8.4220   9.5417   9.5417   9.5417  10.3564  10.3564  14.3895  19.7069
    19.7069  19.7069  20.4231  20.4231  20.4231  23.1954  23.1954  25.7302
    27.1847  27.1847  27.1847  28.2923  28.2923  28.2923  29.7603  29.7603
    32.4629  32.4629  32.4629  36.3234  37.3021  37.3021  37.3021  38.4982
    38.4982  38.4982  39.0592  40.8977  40.8977  40.8977  41.5251  41.6851
    41.6851  41.6851  42.8862  42.8862  42.8862  43.7952  43.7952  43.7952
    44.4243  44.4243  45.8913  47.5865  47.5865  50.8916  50.8916  50.8916
    57.3339  57.3339  57.3339  58.8482  61.2065  61.2065  61.2065  62.7357
    62.7357  62.7357  63.3272  63.3272  65.5902  66.5169  66.5169  66.5169
    67.1522  67.1522  67.1522  69.1765  69.1765  69.2449  69.8680  69.8680
    69.8680  70.3267  70.3267  70.3267  70.7872  70.7872  70.7872  71.6128
    71.6128  71.6128  72.1945  72.1945  72.1945  73.3008  73.3008  73.3719
    73.3719  73.3719  74.0755  74.0755  75.3435  75.3435  75.3435  76.2972
    78.6158  79.4557  82.3743  82.3743  82.6503  82.6503  82.6503  84.2506
    84.2506  84.2506  86.5965  86.5965  86.5965  88.9370  88.9370  88.9610
    88.9610  88.9610  89.1043  89.1043  89.1043  89.2394  89.2394  89.2394
    90.1571  90.1571  90.1586  90.1586  90.1586  91.6615  95.3434  95.3434
    95.3434  95.6205  95.8670  97.0853  97.0853  97.0853  97.6819  97.6819
    97.6819  97.8361  97.8361  97.8361  99.6243  99.6243  99.6243 100.1402
   100.1402 100.1402 104.4479 104.4479 104.5782 104.5782 104.5782 104.7878
   105.6140 111.5997 111.5997 111.5997 111.8932 111.8932 112.3604 112.3604
   112.3604 114.5631 114.5631 114.5631 117.8495 117.8495 117.8495 118.7166
   118.7166 118.9521 119.4389 119.4389 119.4389 120.7652 120.7652 120.7652
   122.5731 122.5731 124.1123 124.1649 124.1649 124.1649 125.3304 125.3304
   125.3304 125.5187 125.5187 125.5187 126.2163 126.2163 126.2163 126.7076
   126.7076 126.7233 127.1981 127.7289 127.8442 127.8442 127.8442 129.1825
   129.5221 129.5221 129.5221 130.4834 130.4834 130.5453 130.5453 130.5453
   131.7556 132.4270 132.4270 132.4270 132.7881 132.7881 132.7881 133.5129
   133.5129 133.5129 134.1365 134.1365 134.1365 134.1890 134.1890 134.2460
   134.2460 134.2460 134.4324 134.4324 134.4324 134.5298 134.5298 134.5298
   134.6939 134.6939 134.9082 134.9082 134.9082 134.9225 134.9225 135.0347
   135.0347 135.0347 135.2174 143.4226 143.4226 143.4226 143.4284 143.4284
   143.4284 143.7120 143.7120 143.7120 143.8816 143.8816 144.3761 144.3761
   144.3761 144.5626 145.5885 145.5885 145.5885 150.5897 150.5897 150.6247
   150.6247 150.6247 150.7256 152.0925 152.1588 152.1588 152.1588 153.1134
   153.9355 153.9355 153.9355 159.4251 159.4251 160.2686 160.2686 160.2686
   160.4288 160.4288 160.4288 160.4499 160.4499 160.4499 160.5614 160.5614
   160.6798 160.6798 160.6798 161.5724 162.0482 162.0482 162.0482 162.6394
   162.9307 162.9307 162.9820 162.9820 162.9820 163.1476 163.1476 163.1476
   163.4193 163.4193 163.4193 163.5969 163.5969 163.5969 163.8749 163.8749
   164.2530 164.2530 164.2530 168.0040 168.0040 168.6084 169.9632 169.9632
   169.9632 174.4899 174.4899 174.4899 175.6962 176.0073 176.1424 176.1424
   176.1424 178.1849 178.1849 178.1849 180.0108 180.0108 180.0108 180.0947
   180.0947 180.1259 180.1259 180.1259 181.9721 183.9967 183.9967 183.9967
   184.2294 184.2294 184.6182 184.6182 184.6182 185.1247 186.1780 186.1780
   186.1780 188.3699 188.3699 188.3699 189.0108 189.0108 189.0108 189.1703
   189.1703 189.1703 189.4590 189.4590 189.4590 192.0033 192.3428 192.3428
   192.3428 192.3942 192.3942 192.7833 192.7833 192.7833 193.1371 193.1371
   193.1371 193.1493 193.1493 193.2473 193.2473 193.2473 193.4020 193.4020
   193.4020 193.6778 193.6778 193.6778 193.8929 195.9505 195.9505 195.9691
   195.9691 195.9691 196.0160 200.9524 200.9524 200.9524 201.4318 203.1714
   203.1714 203.1714 204.8778 204.8778 205.0392 205.5240 205.5240 205.8299
   205.8299 205.8299 205.9104 205.9104 205.9104 206.2327 206.2327 206.2327
   207.1844 207.1844 207.1844 207.8891 207.8891 207.8891 208.2205 208.2205
   208.2205 208.2720 208.7853 208.7853 210.9633 210.9976 210.9976 211.0022
   211.0022 211.0022 211.0905 211.0905 211.0905 211.1294 211.1294 211.1294
   211.1853 211.1853 211.1853 211.3193 211.3193 211.3193 211.3606 211.3606
   212.2303 212.2303 212.2303 212.4026 212.4026 212.4026 212.8236 212.8988
   212.9089 212.9089 212.9089 212.9199 212.9199 212.9199 214.6514 214.6514
   214.6514 215.8079 215.9317 215.9317 215.9317 216.3341 216.3341 216.7054
   216.7054 216.7054 217.0355 219.9515 219.9515 220.0380 220.0380 220.9555
   220.9555 220.9555 221.4456 221.4456 221.4456 221.5601 221.5601 221.5601
   222.4472 222.4472 222.4773 222.4773 222.4773 222.5663 223.0015 223.0015
   223.0015 223.0238 223.0238 223.7868 223.7868 223.7868 224.5630 224.5630
   224.5630 224.7400 224.7400 224.7400 224.8478 224.9301 224.9301 224.9301
   225.0777 225.0777 225.0777 226.0121 226.0819 226.0819 226.0819 226.1129
   226.1129 236.1610 236.1610 236.1610 243.6965 243.6965 243.6965 244.3017
   244.3017 245.3387 245.8813 247.6404 247.6404 247.6404 248.0411 248.0411
   248.0411 248.7248 248.7248 248.7248 249.0202 249.1364 249.1364 249.1364
   249.3815 249.4548 249.4548 249.4548 249.4739 249.4739 249.5807 249.5807
   249.5807 249.6746 249.6746 249.6746 249.7094 249.7094 249.7094 249.7782
   249.7782 249.7782 249.8052 249.8052 249.8052 249.8562 249.8562 250.2420
   250.2420 250.2420 250.5248 255.3957 255.3957 255.6000 255.6000 255.6000
   255.7144 255.7144 255.7791 255.7791 255.7791 255.9164 255.9164 255.9164
   256.0719 256.0719 256.0719 257.0289 257.0289 257.1452 257.1452 257.1452
   257.3245 259.2044 259.2044 259.2044 260.5900 260.5900 263.1234 263.1234
   263.1234 263.7834 263.7834 263.7834 264.1781 265.7712 265.7712 265.7751
   265.7751 265.7751 266.4960 266.4960 266.4960 267.4996 267.4996 267.4996
   267.8685 269.2178 269.2878 269.2878 269.2878 269.3224 269.3224 269.9365
   269.9365 270.1650 270.1650 270.1650 270.2114 270.2114 270.2114 270.2200
   270.2200 270.2200 270.4479 270.4479 270.4479 270.8518 270.8518 270.8518
   271.2519 275.2773 275.2773 276.4818 276.4818 276.4818 276.9383 277.8983
   277.8983 277.8983 278.2774 278.2774 278.2774 278.3132 278.3132 278.3132
   278.4303 278.4303 278.4303 278.5782 279.1733 282.0398 282.0398 282.0398
   282.5308 282.5308 282.5308 282.5628 282.5628 282.7627 282.7627 282.8570
   282.8570 282.8570 283.1618 283.6156 283.6156 283.6156 284.1147 284.1147
   284.1147 284.2934 284.5906 284.5906 284.5906 284.6102 284.6102 284.6329
   284.6329 284.6329 284.6667 284.7020 284.7020 284.7020 284.8848 284.8848
   284.8848 285.5355 285.5355 286.0932 286.0932 286.0932 286.1252 286.1252
   286.1765 286.1765 286.1765 286.2522 286.2522 286.2522 286.3232 288.8776
   288.8776 288.8776 289.8492 293.4448 293.4448 294.2335 294.2335 294.2335
   295.5759 295.5759 295.5759 296.0259 296.0259 296.0259 296.3275 296.3275
   296.3275 296.6235 296.6235 296.6235 296.8361 296.8591 297.3071 297.3071
   297.3515 297.3515 297.3515 300.4141 300.4141 300.4141 304.3582 304.3582
   304.3582 304.7255 305.3066 307.0046 307.0046 307.5096 307.5096 307.5096
   307.6217 307.6217 307.6217 307.7199 307.7199 307.7199 308.1018 308.1018
   308.1018 308.1678 308.1678 309.6276 309.6276 309.6276 310.5911 310.5911
   310.5911 310.6832 310.7062 310.7062 310.7062 310.8008 310.8008 310.8008
   310.8802 310.8802 310.8802 311.6854 311.6854 311.8015 311.8015 311.8015
   311.9278 311.9278 311.9278 312.4669 312.4669 312.6452 312.6452 312.6452
   312.7153 312.7153 312.7153 313.1647 313.3635 313.3635 313.3635 313.6951
   313.6951 313.7276 313.7276 313.7276 313.7391 313.7391 313.8523 313.8523
   313.8523 313.8747 313.8747 313.8747 313.9364 313.9364 313.9364 315.4299
   315.4989 315.4989 315.4989 315.5421 315.5421 315.5421 315.5630 317.7528
   317.7528 317.7781 317.7781 317.7781 317.8199 317.8199 317.8199 317.9528
   317.9571 317.9739 317.9739 317.9739 317.9839 317.9839 317.9839 318.0011
   318.0011 318.0454 318.0454 318.0454 318.0834 318.0834 318.1369 318.1369
   318.1369 318.2754 318.2754 318.2754 318.3776 321.9178 321.9178 321.9178
   323.3738 323.3738 323.3738 323.4928 323.5499 327.2067 327.2067 331.6038
   331.6038 331.6038 332.0323 332.0323 332.0323 332.1574 332.1574 332.1962
   332.1962 332.1962 332.2743 332.2743 332.2743 332.3652 332.3652 332.3654
   332.3654 332.3654 332.5008 332.5008 332.5008 332.7321 334.4137 334.4137
   334.4137 334.4900 334.4900 334.4900 334.5293 334.5293 334.5293 338.4431
   338.4431 338.6171 338.6171 338.6171 338.6612 343.2132 343.2132 343.2132
   343.3532 343.3715 343.3715 346.3107 346.3107 346.3107 346.5347 346.5347
   346.5347 346.5439 346.5439 346.5439 346.5616 346.5616 346.5616 346.7057
   346.7057 347.7628 347.7628 347.7628 347.9932 347.9932 348.0129 348.0129
   348.0129 348.0545 357.5825 357.5825 357.5825 357.9533 359.0988 359.0988
   359.0988 359.3793 359.3793 359.3793 359.4540 359.4540 359.4540 359.5095
   359.7887 359.7887 359.7887 359.8610 359.8610 359.8610 359.9573 359.9573
   360.3771 360.3771 360.3771 360.7004 360.7004 360.8538 361.8364 361.8364
   361.8364 361.9416 361.9865 361.9865 362.4766 362.4766 362.4766 362.8612
   364.3107 364.3107 364.3107 364.9440 364.9440 364.9440 365.4996 365.6340
   365.6340 365.6340 365.8398 365.8398 365.9395 365.9395 365.9395 367.2886
   367.2886 367.2886 368.2025 369.7205 369.7205 370.3529 370.3529 370.3529
   370.5094 370.5094 370.5603 370.5603 370.5603 370.8149 370.8149 370.8149
   370.9917 370.9917 370.9917 372.2325 372.2325 372.2325 372.3438 372.4507
   372.4507 372.4507 372.5831 374.7327 374.7327 374.7327 374.7648 374.7648
   374.8466 374.8466 374.8466 374.9716 374.9716 374.9716 375.0072 375.0072
   375.0481 375.0481 375.0481 375.9825 375.9825 375.9825 376.0085 376.0085
   376.0290 376.0290 376.0290 376.0741 376.1420 376.1420 376.1420 376.2898
   376.2898 376.2898 376.2956 376.2956 376.3029 376.3029 376.3029 376.3074
   376.3074 376.3074 376.3607 384.3874 384.3874 384.3874 385.5018 385.5018
   386.6034 386.6034 386.6034 386.6414 386.6414 386.6414 386.7070 386.7070
   386.7070 387.3095 387.3095 387.3095 387.3764 387.5855 387.5855 387.5855
   387.6362 388.1144 388.1144 388.1144 388.1323 388.1323 388.2237 388.2237
   388.2237 389.8007 389.8007 389.8007 390.2778 390.2778 390.3310 390.4273
   390.4273 390.4273 390.6595 390.6595 390.6595 392.7616 392.7616 393.2458
   393.2458 393.2458 393.5677 393.5677 393.5948 393.5948 393.5948 393.6881
   393.6881 393.6881 393.7375 393.7375 393.7375 393.7890 393.7926 393.9346
   393.9346 393.9346 394.0934 394.0934 394.1101 394.1101 394.1101 394.1645
   394.1645 394.1645 394.7760 394.7760 394.8379 394.8379 394.8379 394.9799
   395.4047 395.4047 395.4047 395.4105 395.4105 395.4105 395.6672 395.7533
   395.7533 395.9126 395.9126 395.9126 395.9332 395.9332 395.9332 395.9722
   395.9722 395.9722 396.0132 400.6804 400.6804 400.6804 400.8158 401.2136
   401.2136 401.2136 401.4284 401.4284 401.4373 401.4373 401.4373 402.9202
   402.9202 402.9202 403.1015 403.1811 403.1811 403.1811 403.3038 403.3038
   403.3166 403.3166 403.3166 403.4789 403.4789 403.4789 404.2814 404.2814
   404.2814 404.3086 404.3215 406.4684 406.4684 406.4692 406.4736 406.4736

          k = 0.5000-0.5000 0.5000 (  3600 PWs)   bands (ev):

   -28.4540 -10.6872 -10.4391 -10.4391  -5.0941   2.9025   4.4604   4.4604
    10.1792  11.5032  11.8873  11.8873  13.7730  13.7730  14.3940  14.3940
    15.4923  18.0588  18.0588  18.8996  20.3454  23.9259  23.9259  23.9796
    26.1015  26.1015  26.3290  29.5232  29.5232  29.8218  29.8218  29.9742
    30.4855  31.8185  34.1920  34.1920  35.4400  37.2202  37.2202  37.4613
    37.6849  37.6849  38.2908  39.3045  39.3045  40.7479  42.3839  43.0826
    43.0826  43.3857  43.3857  45.6001  47.9464  47.9464  48.5499  49.2097
    49.6362  49.6362  51.7820  51.7820  52.5079  52.5079  53.0722  53.2275
    53.2275  53.3222  53.6934  53.7476  53.7476  54.7057  57.1086  58.4360
    59.8754  59.8754  61.1546  61.1546  62.4060  62.4060  63.0737  63.0737
    63.8468  64.3726  65.1017  65.1017  65.4409  66.1615  66.7183  66.7183
    67.1555  67.5688  67.7713  67.7713  68.2580  68.2580  71.4944  73.2614
    73.2614  73.3358  73.9558  74.2900  74.2900  77.3127  77.3127  77.3192
    77.3192  77.3553  77.6155  78.6287  79.9438  80.0932  80.0932  80.6905
    80.6905  80.8328  80.8328  81.2345  81.5938  81.9174  81.9174  82.0679
    85.6295  85.6295  86.4707  86.4707  86.7199  87.1830  89.4575  89.4575
    89.8601  89.8601  90.0008  90.2190  90.6346  90.6346  91.5673  91.5673
    91.9301  92.0996  92.8216  92.8216  93.4158  93.4158  93.8606  94.8385
    96.8591  96.8591  97.0892  97.0892  97.7584  98.0403  99.3151  99.3362
    99.8436  99.8436 100.1080 100.1080 101.5315 101.5315 103.6414 103.7382
   103.7382 103.9756 104.8067 104.8067 105.1396 105.1396 107.1901 107.2547
   107.4175 107.4175 107.4839 107.5892 107.5892 109.1106 111.2653 111.2653
   111.3228 111.3228 113.2481 113.5198 113.7542 114.0846 114.0846 114.1929
   115.0395 115.0395 115.0456 116.6366 117.3196 117.3196 118.0693 118.0693
   118.3926 118.3926 118.7460 119.1095 119.3103 119.3103 119.5796 119.5910
   120.0062 120.0062 120.8291 120.8291 121.6849 122.1691 122.1691 122.5998
   122.5998 124.0847 126.2054 126.4701 126.4701 126.7784 127.4012 127.4012
   128.0926 128.6810 128.8361 128.8361 129.0545 129.0545 129.9607 130.4143
   130.4143 130.4846 130.4846 130.6217 131.1175 131.8185 131.8185 131.8323
   131.8323 132.5441 134.2836 134.6320 134.6320 134.7176 134.7176 134.8211
   135.2351 135.2945 137.4631 138.1957 138.1957 138.9072 138.9072 139.4142
   141.5311 141.5311 142.1703 142.9087 142.9087 143.3562 143.6348 143.6348
   143.6459 143.6459 143.7413 144.0669 144.3209 144.7046 144.7046 144.7747
   144.7747 144.9223 145.0398 145.4289 145.4289 145.7708 145.7708 145.8364
   146.7163 146.7163 146.8677 147.3304 147.3304 148.6005 150.0636 150.7226
   150.7226 150.8745 150.8745 154.5344 157.4894 157.4894 157.7675 157.7675
   157.9925 157.9925 158.0423 158.0423 158.0605 158.1412 158.5390 158.5461
   158.6179 158.8776 158.9058 158.9058 159.1769 159.1769 160.3463 161.7820
   161.9389 161.9389 162.5135 162.6387 162.6387 163.0295 164.1055 164.2267
   164.2267 164.2335 164.2335 164.3510 164.4305 164.6686 164.6686 164.8130
   164.8331 164.8331 165.4902 165.4902 165.5473 165.5473 166.0241 167.5259
   168.9631 168.9631 168.9708 168.9708 170.3817 170.3823 172.7519 172.7519
   173.4184 173.4184 174.7971 174.8160 175.2274 175.2274 175.2500 175.2500
   176.2168 176.2168 176.5344 176.6051 176.6051 176.7214 176.7214 177.3800
   177.5733 177.5733 177.6848 178.2784 179.2023 179.2023 179.6666 179.6841
   179.6841 179.7625 179.7855 179.7855 180.3022 180.3555 180.3555 180.4314
   180.6300 182.1512 182.1512 182.1804 183.0459 183.0459 183.5621 184.1439
   184.1439 184.1632 184.1632 184.2356 188.0094 188.0094 188.2131 188.2557
   188.6391 188.6391 189.3737 189.3737 189.6951 189.6951 189.9461 190.0039
   192.3414 192.3414 192.9112 193.8374 193.8374 194.0046 194.1524 194.3387
   194.3387 194.4778 195.1312 195.1312 196.1701 196.2632 196.3709 196.3709
   196.4275 196.4275 196.7264 197.0192 197.1882 197.2188 197.2188 197.4727
   197.4727 197.7531 199.7529 199.7529 199.7858 200.0919 200.0919 200.4613
   200.4998 201.1908 201.1908 201.3122 201.3122 201.7563 202.3451 202.4160
   202.9981 202.9981 203.4034 203.4034 205.1689 205.1689 205.4000 205.4000
   207.3905 207.3905 207.9554 208.1718 208.4891 208.4891 210.1851 210.3253
   210.3253 210.7626 210.7626 211.2277 212.1223 212.1223 212.8384 213.1198
   213.1198 213.4570 213.4570 213.6085 214.5513 214.8313 214.8418 214.8418
   214.9268 214.9910 214.9910 215.0812 215.7712 215.7712 216.5726 216.5726
   216.9016 216.9016 217.5560 217.5735 218.6802 218.8080 218.8080 219.1423
   220.6689 220.6689 221.3191 221.3413 221.8296 221.8296 222.5120 222.5120
   223.9897 223.9897 224.6097 224.9465 225.3902 225.9744 225.9744 226.1160
   226.1490 226.4481 226.4481 226.4776 226.7963 226.7963 226.8502 226.8502
   227.1323 227.1323 227.6394 227.6394 227.8245 227.9601 228.3998 228.3998
   228.8895 228.8895 228.9706 229.1736 229.4333 229.4333 229.6718 229.9704
   232.3338 232.6692 233.0533 233.0533 233.1431 233.1431 233.3639 233.3639
   233.8688 233.8688 234.2421 234.2582 234.3236 234.7852 235.2323 235.2323
   235.2854 235.2854 235.7606 235.7606 235.8851 235.8851 236.2085 236.2445
   240.3549 240.3549 240.8823 241.1013 241.2673 241.2673 241.4568 241.4568
   242.3489 242.4174 242.5653 242.5653 242.8124 242.8124 243.2351 243.2351
   243.3369 243.3539 243.8346 243.8346 244.7369 244.9620 244.9620 245.0336
   245.0357 245.3904 245.3904 247.4794 247.4794 248.0834 248.1501 248.1501
   248.7719 248.7719 248.8418 249.0227 249.3358 249.7165 249.7165 250.3701
   251.8657 252.2016 252.2016 252.2946 252.2946 252.2973 252.2973 252.7868
   253.6006 253.6006 253.9384 253.9548 254.5625 254.5625 254.6611 254.6611
   255.0340 255.1018 255.1167 255.1167 255.3037 255.3037 255.8649 255.8649
   256.2812 256.3391 258.8422 258.8422 259.4006 259.5113 259.5113 259.5294
   259.5294 261.1311 261.3155 261.3156 261.3738 261.3738 261.5965 261.8625
   262.7060 262.7060 263.8478 263.8478 263.8780 263.8780 264.1898 264.4271
   264.5419 264.5419 264.8040 265.6851 265.6851 266.3627 266.3627 266.9679
   267.4269 267.5092 267.9949 267.9949 268.0091 268.0091 268.2242 268.2243
   272.0660 272.0660 274.4485 274.4485 274.4542 274.4542 276.0103 276.0103
   276.2884 276.2884 276.3734 276.3736 276.5738 277.1203 277.1203 277.4631
   277.4631 277.6605 277.8883 277.8883 277.8984 277.8984 277.9279 278.1086
   278.1167 278.1345 278.3435 278.3435 278.6039 278.8545 278.8765 278.8765
   278.9702 278.9702 280.4509 280.4509 280.6042 280.6068 280.6068 280.6964
   280.8981 280.9498 280.9498 281.1000 281.1856 281.1856 281.6954 281.6954
   281.7485 281.7702 281.7702 282.1527 282.7095 282.7095 283.1097 283.5635
   283.7197 283.7197 283.8729 284.5516 284.5516 284.5891 284.5891 285.1757
   286.6156 286.6156 286.7340 288.0125 288.3433 288.3433 289.6788 289.6788
   290.3031 290.3721 290.4450 290.4450 291.5778 291.5778 292.9241 293.7607
   293.7607 293.9627 293.9990 294.1069 294.1069 294.1585 294.4522 294.4522
   294.6202 294.6805 294.6805 294.8137 294.8137 295.2559 295.4210 295.6933
   295.6933 296.2363 296.2363 296.6872 296.6872 296.7551 296.7983 297.0882
   297.0882 297.1525 297.1650 298.4233 298.4233 299.9143 299.9143 300.0175
   300.0175 300.0794 300.1732 300.7221 300.8784 301.2458 301.7684 301.7684
   302.6335 302.6335 303.4140 303.4140 303.4839 303.4859 303.5678 303.5678
   304.1956 304.1956 304.2385 304.2617 305.6717 305.6717 306.4217 306.4217
   306.9777 307.5098 307.5098 307.8105 309.3634 309.9406 309.9406 310.0794
   310.0794 311.3446 311.3446 311.3510 312.0013 312.0013 312.1843 312.1940
   312.5239 312.5239 312.9358 312.9358 312.9768 312.9768 312.9786 313.0091
   313.4470 313.4470 314.3971 314.3971 314.4722 314.6641 314.6641 314.6704
   314.7315 314.7315 314.8205 314.9335 315.4772 315.5908 315.5908 315.6217
   315.6217 315.8755 317.2429 317.2429 318.0989 318.2630 318.2630 318.3333
   318.4146 318.4146 319.6487 319.6984 319.6984 319.7407 319.8947 319.8947
   322.9407 322.9407 324.3709 324.4682 324.9894 324.9894 325.0808 325.0813
   325.3065 325.3394 325.3394 325.3751 325.5621 325.5621 325.7756 325.7756
   326.0459 326.0459 326.2188 326.2689 326.2689 326.3346 328.5953 329.2109
   329.2109 329.2164 329.2164 329.2206 329.2327 329.7278 329.7278 331.0138
   331.5396 331.5396 332.2270 332.2270 332.5013 332.5502 332.5971 332.5971
   332.6217 332.6217 332.8032 332.8567 333.1690 333.1690 335.3989 335.3989
   336.2985 336.3001 336.3001 336.3340 336.3340 336.5059 336.5059 337.5746
   337.5746 338.2173 338.2173 338.3780 338.4373 338.7923 338.9149 339.3273
   339.3460 339.3568 339.3568 339.6363 339.7317 339.7317 339.7676 339.7676
   342.6912 342.6912 343.1081 343.5701 343.5701 343.6385 343.8593 343.8593
   344.4586 344.4586 344.7079 344.7079 344.7414 344.7602 345.0930 345.6180
   345.6511 345.6550 345.6550 345.7380 345.7380 345.7979 345.9824 345.9824
   345.9878 345.9878 346.2126 346.2126 346.4972 346.5516 347.0392 347.0482
   347.2598 347.2598 347.3881 347.3881 350.1982 350.1982 350.4526 350.4526
   350.4562 350.4848 350.8915 350.8915 350.9610 350.9610 351.0535 351.0684
   352.5548 352.5548 353.0074 356.3497 356.3655 356.3655 356.6392 356.6392
   357.1341 357.1571 357.2515 357.2515 357.5036 357.5036 357.7397 357.7397
   357.7471 357.7471 357.8641 357.8678 358.4903 358.7076 358.7076 358.7739
   358.8253 358.8253 359.0996 361.1164 361.1164 361.3747 361.8453 361.9752
   362.1343 362.1343 362.2172 362.2172 362.4184 362.4184 362.7298 362.9841
   362.9841 363.1118 363.3691 363.6295 363.6295 363.9399 363.9399 364.0664
   364.0664 364.0666 364.1212 364.3230 364.4129 364.4129 364.5412 364.6072
   365.4129 365.6699 365.6699 366.1255 366.1255 366.4289 366.4751 366.4751
   367.0730 367.8451 367.8451 367.8609 368.3830 368.3830 368.4552 368.4552
   371.2756 371.2756 371.9966 371.9966 372.0073 372.0325 372.3132 372.3132
   372.7361 372.7542 372.7542 372.7798 373.2943 373.2943 373.3166 373.3166
   373.8602 373.8602 374.0978 374.0978 374.1341 374.1341 375.7040 375.7041
   377.0571 377.0571 378.4966 378.4966 378.6152 378.8157 378.8949 378.8949
   379.0314 379.5838 379.5838 379.6148 379.6148 380.1457 381.0872 381.8167
   381.8167 381.8902 381.9209 381.9209 381.9902 382.0465 382.0465 382.0812
   382.0812 382.1262 382.9133 382.9133 382.9900 383.1312 383.1312 383.2250
   383.4120 383.4120 383.4437 383.6053 383.7248 383.8170 383.8170 383.9457
   384.0498 384.0498 385.2366 385.8913 385.8913 386.4377 386.4377 386.4851
   386.5101 386.5893 389.8973 389.8973 391.2863 391.2863 392.3506 392.4001
   392.4127 392.4127 392.4614 392.5310 392.5310 392.7502 393.1210 393.1210
   393.3274 393.6848 393.6848 393.6852 393.6852 393.6930 393.9923 393.9970
   394.0078 394.0078 394.0192 394.2474 394.2474 394.3132 394.3132 394.3798
   395.0693 395.0693 395.4770 395.6560 395.6560 395.7975 395.7975 395.8382
   395.9862 396.0634 396.0634 396.0887 396.0887 396.2330 396.2330 396.2891
   396.5496 396.5496 397.3139 397.3139 397.7191 397.7191 397.8364 397.8384
   397.8468 397.8468 398.0696 398.1511 398.1880 398.1880 400.4106 400.4106
   400.4972 400.5777 402.3662 402.3662 402.6843 402.6914 402.7608 402.7608
   407.2325 407.2325 407.8825 407.8825 407.9536 408.6653 408.6653 408.7541
   408.9094 408.9481 409.0051 409.0051 409.0315 409.3768 409.3768 409.8199
   409.8199 409.8703 409.8703 409.8789 409.8833 409.8930 409.9031 409.9031

          k = 0.0000-1.0000 0.0000 (  3572 PWs)   bands (ev):

   -28.4508 -10.5838 -10.4885 -10.4885  -5.4038   3.8758   4.9531   4.9531
     7.7485  10.7144  11.3940  12.4243  12.8129  12.8129  14.5100  17.6833
    17.6833  18.7362  19.0445  19.0445  19.7178  24.2007  24.2745  24.3396
    24.8791  25.0272  25.0272  25.5003  28.5137  28.7424  28.7424  31.2536
    31.2536  32.9500  33.1295  33.2366  33.4713  36.3419  36.3419  38.4860
    38.4860  38.5500  39.9321  41.3383  41.3383  43.2432  43.2643  43.9672
    44.8536  44.8536  45.2125  46.5519  46.5519  47.3021  48.2799  48.5529
    49.0764  49.5526  51.2785  52.2859  52.2859  52.5958  52.5958  52.7938
    52.7938  53.1470  54.3165  54.3404  54.3763  57.3693  58.2616  58.4539
    59.1371  59.1371  60.3556  60.3556  60.8367  61.7736  61.9946  61.9946
    62.0943  63.3266  63.3266  64.0580  64.2469  64.4441  64.4441  64.5570
    64.5570  67.0367  67.7305  68.6979  68.6979  69.9112  70.0683  73.0326
    73.2910  74.0594  74.7793  74.7793  75.5011  75.5011  76.6244  76.8199
    78.1072  78.8607  79.1067  79.2929  79.2929  79.3354  79.9387  79.9387
    80.2392  80.2392  80.3916  81.2168  82.1920  84.4866  84.6267  84.6267
    84.9892  84.9892  85.2936  86.7309  86.8275  86.8275  87.3022  87.8910
    87.9686  89.0741  90.6568  90.6568  91.2733  91.2733  91.5804  93.0684
    93.9351  95.0661  95.5003  96.2010  96.4499  96.5225  96.5225  98.2455
    98.2455  98.5995  98.5995  99.9314 100.0230 100.2879 100.3335 101.1860
   101.1860 101.4491 101.5708 101.5708 103.2217 103.2874 103.5229 103.5229
   103.8951 104.3473 104.4605 104.4605 104.7234 104.7234 106.0450 106.3694
   107.4221 107.5925 107.5925 107.7787 107.7993 108.1548 108.3045 108.3045
   108.9709 109.2003 109.2003 109.5114 109.6427 110.7806 111.2189 112.3996
   112.3996 112.5256 112.9972 113.1815 113.1815 113.5223 114.9605 115.1937
   115.1937 116.4208 120.0992 120.2310 120.2501 120.2501 120.8527 121.2132
   121.2726 121.2726 121.4773 121.4773 121.6083 122.3745 122.6358 122.9526
   123.2284 123.2284 123.4388 123.4388 123.9015 123.9160 124.4759 124.6719
   124.9173 124.9173 125.0687 125.3041 125.3041 125.4649 126.0898 127.6514
   127.7048 127.9123 127.9123 128.5173 136.3043 136.3043 137.0492 137.1322
   137.1413 137.7282 137.7282 138.6064 138.7103 138.8212 138.8212 139.1296
   139.1296 139.2612 139.7968 139.7968 140.5076 140.8781 141.3793 141.3793
   141.7631 141.7631 141.7660 142.0465 143.6848 143.7709 143.7709 144.1297
   144.3991 144.3991 144.9475 145.1588 145.4189 145.7716 145.7716 145.8705
   146.3147 146.3395 147.1014 147.4905 147.8168 148.4013 148.4013 148.5149
   148.9076 148.9076 148.9905 149.4826 149.8831 149.8831 149.9232 150.3969
   151.1249 151.1249 151.3728 151.3728 151.8883 152.4286 154.5742 154.6865
   154.6865 155.1697 155.2821 155.7577 155.7577 155.9168 158.3193 158.3545
   158.6298 158.6298 158.7020 158.7020 159.0017 159.0714 161.0528 162.2309
   163.0366 163.1694 163.1694 163.2161 163.3854 163.4076 163.4121 163.4121
   163.8503 163.8503 163.8739 164.0196 164.0196 164.2890 164.8576 164.8576
   165.0598 165.0598 165.1218 166.8429 167.4046 167.7834 167.9480 167.9524
   168.5117 168.5428 169.3185 169.3185 169.3387 169.3387 169.8585 169.8585
   169.8825 169.8995 170.3013 170.4788 171.0231 171.3144 173.5297 174.7166
   174.7166 174.7573 174.7573 176.3683 176.3784 176.9829 176.9829 178.4885
   178.8553 178.8553 179.5879 179.6488 179.9981 180.2469 180.5218 180.5218
   181.1097 181.2700 181.3978 181.3978 181.5743 181.7836 182.1428 182.1428
   182.3493 182.3493 182.3655 182.5162 182.8427 182.9051 182.9515 182.9515
   186.1468 186.3396 186.3396 186.5249 186.6049 186.7403 186.9911 186.9911
   187.3284 187.3615 187.3615 187.5160 188.0913 188.2856 188.2856 188.3954
   191.5293 191.5293 192.2421 192.4105 192.4105 192.5528 193.6391 193.6391
   193.7498 193.8804 194.3604 195.0015 195.0015 195.1259 196.7414 197.2125
   197.4258 197.4258 198.4356 198.4356 198.7806 198.7861 199.4338 199.7204
   199.7446 199.7446 199.8945 200.0418 200.0803 200.3343 200.3343 200.4820
   200.5212 200.8459 200.9499 200.9499 201.0586 201.0586 201.1490 201.4701
   202.3747 202.3801 202.3801 202.3910 203.6937 204.1943 204.1943 204.5258
   204.8355 204.9044 204.9044 204.9733 206.2330 206.2330 207.2762 207.6964
   207.9836 207.9836 208.0343 208.3704 210.5983 212.0301 212.8447 213.0987
   213.3751 213.3751 213.4140 213.6072 213.6072 213.6370 213.6370 213.6667
   213.9013 213.9040 213.9040 213.9107 214.3086 215.4671 215.4671 216.1746
   217.7474 218.3003 218.3003 220.2883 220.6442 221.3801 221.3801 221.5016
   221.5638 221.5926 221.6467 221.7911 221.7911 223.9039 223.9910 224.1274
   224.1274 224.4749 224.6526 224.6526 224.8358 224.9128 225.6734 225.6734
   226.2728 226.3392 228.7342 228.7416 228.9741 228.9741 229.1014 229.1643
   229.4228 229.4228 229.5690 229.5690 229.8286 229.8737 230.2077 230.6691
   230.6691 230.8508 230.8508 230.8995 230.9404 230.9799 231.0168 231.7230
   231.7230 231.8225 234.3928 234.4599 234.5122 234.5122 234.7978 234.7978
   235.1124 235.1289 236.8099 237.2336 237.2336 237.5324 238.6141 238.6141
   239.3611 239.3695 240.0889 240.1098 240.1106 240.1106 240.8401 240.8401
   240.9370 241.2140 241.4371 241.6937 242.1066 242.1066 242.1227 242.1227
   242.3463 242.3662 242.3850 243.0058 243.0058 243.3006 243.4569 243.5762
   243.5762 243.8039 243.8039 243.9671 244.0768 244.2318 244.2318 244.2680
   244.2872 244.3756 245.1650 245.1650 245.2159 245.2912 245.6932 245.6932
   245.7480 245.7480 247.2796 250.0300 250.0300 250.2474 250.5775 250.6585
   250.6670 250.6670 250.6816 250.6816 250.7545 250.7983 251.6197 252.8139
   252.9949 253.0084 254.0280 254.0280 254.1486 254.1486 254.4849 255.0271
   255.5845 255.7658 255.7658 256.2124 257.1897 257.4296 257.4296 257.7895
   257.8772 258.3862 258.3862 258.6926 259.2646 260.4018 260.4018 260.5992
   260.6306 260.7631 260.8225 260.8252 260.8252 260.8564 260.8564 260.9026
   261.1182 261.7848 261.9027 261.9027 261.9076 261.9277 262.7490 263.4310
   263.4310 263.4453 263.4453 263.4668 263.6752 263.6856 263.7220 263.7220
   265.1646 265.5745 265.9577 265.9577 266.2275 267.8219 267.8962 268.1541
   268.1541 270.0810 270.0810 270.1620 270.1620 270.3251 270.3952 270.3952
   270.5618 270.7295 271.9143 273.5536 273.5536 274.0115 274.0271 275.0105
   275.0105 275.3125 275.6754 275.7569 275.9114 276.1299 276.1299 276.2030
   276.2698 276.4242 276.4444 276.4444 276.5191 276.5588 276.6152 276.6152
   278.1579 278.1637 278.1637 278.1656 278.6878 278.6880 279.0853 279.7856
   279.7856 280.3006 281.3696 281.3696 281.7409 281.7409 281.7518 281.7902
   281.7902 281.8544 281.9155 282.2904 283.1829 283.1881 286.2411 286.4902
   286.4902 286.8799 286.8871 286.9597 286.9597 287.7999 287.9139 288.0157
   288.2804 288.2804 288.5676 288.7161 288.9887 288.9887 289.0951 289.0951
   289.2770 289.2770 289.5203 289.5623 289.5913 289.6899 290.1865 291.1765
   291.2080 291.2080 291.2117 291.2555 291.2905 291.2905 291.3239 291.6922
   291.6922 291.8092 294.6888 294.6888 294.7120 294.7234 295.0093 295.1431
   295.1431 295.2639 295.5938 296.1988 296.1988 296.4444 297.0738 297.0738
   297.2513 297.8238 297.8395 297.8395 302.1281 302.1969 302.4793 302.4793
   302.5103 302.5103 302.5190 302.7954 302.9990 303.3240 303.9906 303.9906
   304.2419 304.4721 304.4721 304.5062 304.7383 305.2119 305.9661 305.9661
   306.2105 306.5868 307.4014 307.7276 307.7276 307.8683 307.8792 307.8792
   307.8835 308.4121 308.5094 308.5385 308.5385 308.5534 309.1771 309.1771
   309.2065 311.1007 311.2147 311.3874 311.3874 311.4192 311.6226 311.6226
   312.0004 312.2134 312.3173 312.3173 312.3956 313.0447 315.0451 315.0451
   315.1709 315.2853 315.2854 315.4154 315.4154 316.2354 316.3717 316.4641
   316.4641 318.6160 318.8752 319.0010 319.0010 319.1641 319.5708 319.5708
   319.7451 319.7451 320.4091 320.5129 322.2160 322.2303 323.7061 325.2433
   325.3408 325.3408 325.8640 325.8945 326.0308 326.0308 326.3082 326.4447
   326.5299 326.5881 326.5881 326.7507 326.9570 326.9570 326.9679 327.0306
   327.0737 327.0737 327.8079 329.0104 329.0104 329.1460 329.2337 330.0463
   330.7980 330.7980 331.6233 331.6868 331.7249 331.8893 331.8893 331.9790
   331.9790 332.0206 332.0206 332.0779 332.3360 332.3653 332.3989 332.9175
   333.3782 333.3801 333.4193 333.4193 333.4370 333.7494 333.7494 333.7954
   333.7954 333.8263 333.8263 333.8715 333.9194 334.0931 334.0931 334.1871
   334.2219 334.2484 334.2711 334.2711 334.3872 334.4177 334.4261 334.5484
   334.6772 334.8494 334.8494 334.9026 334.9283 334.9283 335.0591 335.0790
   335.0790 335.2849 335.6618 335.6705 335.9841 335.9841 335.9995 336.0031
   336.0031 336.2859 336.2859 336.3016 336.3515 336.4089 339.2557 339.2557
   339.2900 339.3170 339.5535 339.6082 339.6360 339.6360 341.5530 341.6211
   341.7761 341.7761 341.8941 341.8941 342.1354 342.1568 346.7651 347.7929
   347.7929 347.9627 348.4139 349.5857 349.6528 349.6528 349.6573 349.6752
   349.7770 349.7770 350.5298 350.5480 350.5480 350.6906 350.7303 350.8583
   350.8583 350.9449 351.2111 351.2648 351.4574 351.7881 351.7881 351.9599
   352.0003 352.1015 352.1015 352.2588 352.4993 352.4993 352.6686 353.3105
   353.3105 353.3323 353.3761 353.4049 353.6272 353.6412 353.6412 353.6647
   353.8775 353.8864 353.8864 354.2192 354.2192 354.2800 354.4329 355.4444
   355.7800 357.7893 357.7893 359.2515 359.3051 360.5515 360.5515 360.9320
   360.9320 361.2470 361.3261 361.3921 361.3921 361.4535 361.5106 361.5106
   361.5173 361.5524 361.5872 361.6920 361.9912 362.2653 362.2793 362.3862
   362.3862 362.6170 362.6170 362.8118 362.8293 362.9830 362.9830 363.2192
   364.5743 364.5743 365.1546 365.5088 365.5088 365.5300 365.9915 366.1326
   366.1652 366.7630 366.7630 366.8235 370.8970 370.8970 370.9604 370.9649
   370.9735 370.9735 370.9738 370.9876 372.5956 372.7106 372.7106 372.7140
   372.7140 372.7253 372.7339 372.7565 373.4946 373.4946 373.7788 374.1161
   374.9086 374.9086 375.2020 375.5114 376.8855 376.9603 377.1292 377.1292
   379.0740 379.2346 379.4570 379.4570 379.5589 379.5589 379.7350 380.0723
   380.2410 380.2410 380.7362 380.9767 380.9827 381.0052 381.0486 381.0486
   381.1483 381.1483 381.2762 381.4917 381.5296 381.6156 381.6156 381.6187
   381.6704 382.6414 382.6414 382.8939 382.8939 383.1126 383.1126 383.1535
   383.1773 383.1836 383.1937 383.2719 383.3351 383.3351 383.3364 383.3364
   383.4577 383.4681 383.6126 383.6126 385.2401 385.2618 385.2618 385.2874
   386.3488 387.4348 387.4582 387.4582 388.1201 390.4181 390.4195 390.7918
   390.9096 390.9096 391.6085 391.6085 391.8451 392.5538 393.7547 393.9959
   394.0249 394.0263 394.0263 394.0446 394.0520 394.1976 394.1976 394.2118
   394.2118 394.2835 394.3258 394.4149 394.4751 394.5154 394.5207 394.5207
   395.1400 395.1400 396.0290 396.0290 397.4085 397.5381 397.6073 397.7460
   397.7460 397.8452 398.2201 398.2201 398.3261 398.4047 398.4585 398.5922
   398.6474 398.6474 398.6540 398.8648 398.8648 398.9151 399.2900 399.2978
   399.2978 399.3003 401.6906 403.2095 403.2095 404.4905 405.2668 405.6839
   406.4806 406.4806 407.2329 407.2662 407.2662 407.4703 407.4703 407.5904
   407.6179 407.6189 407.6189 407.6224 407.7368 407.7368 407.7649 407.8176
   407.8415 407.8764 407.8764 408.2480 408.2494 408.2951 408.2951 408.2964
   410.6124 410.7415 412.3973 412.5467 412.5467 412.5478 412.5515 412.6419

     the Fermi energy is     5.9445 ev
     (compare with:     7.6954 eV, computed in scf)

     Writing all to output data dir out/mp-2758.save/
 
     init_run     :      0.04s CPU      0.05s WALL (       1 calls)
     electrons    :    423.28s CPU    456.23s WALL (       1 calls)

     Called by init_run:
     wfcinit      :      0.00s CPU      0.00s WALL (       1 calls)
     potinit      :      0.01s CPU      0.01s WALL (       1 calls)
     hinit0       :      0.01s CPU      0.02s WALL (       1 calls)

     Called by electrons:
     c_bands      :    423.28s CPU    456.23s WALL (       1 calls)
     v_of_rho     :      0.01s CPU      0.01s WALL (       1 calls)

     Called by c_bands:
     init_us_2    :      0.00s CPU      0.00s WALL (       3 calls)
     init_us_2:cp :      0.00s CPU      0.00s WALL (       3 calls)
     cegterg      :    415.52s CPU    448.01s WALL (       3 calls)

     Called by *egterg:
     cdiaghg      :    392.94s CPU    425.05s WALL (      41 calls)
     h_psi        :      6.66s CPU      6.85s WALL (      44 calls)
     g_psi        :      0.04s CPU      0.04s WALL (      38 calls)

     Called by h_psi:
     h_psi:calbec :      0.12s CPU      0.13s WALL (      44 calls)
     vloc_psi     :      6.41s CPU      6.58s WALL (      44 calls)
     add_vuspsi   :      0.09s CPU      0.09s WALL (      44 calls)

     General routines
     calbec       :      0.12s CPU      0.13s WALL (      44 calls)
     fft          :      0.01s CPU      0.02s WALL (      10 calls)
     fftw         :      5.82s CPU      5.97s WALL (   45656 calls)
 
     Parallel routines
 
     PWSCF        :   7m 3.74s CPU   7m36.89s WALL

 
   This run was terminated on:   0:11: 7  21Dec2023            

=------------------------------------------------------------------------------=
   JOB DONE.
=------------------------------------------------------------------------------=
