
     Program PWSCF v.7.1 starts on  3Jan2024 at 20:38: 3 

     This program is part of the open-source Quantum ESPRESSO suite
     for quantum simulation of materials; please cite
         "P. Giannozzi et al., J. Phys.:Condens. Matter 21 395502 (2009);
         "P. Giannozzi et al., J. Phys.:Condens. Matter 29 465901 (2017);
         "P. Giannozzi et al., J. Chem. Phys. 152 154105 (2020);
          URL http://www.quantum-espresso.org", 
     in publications or presentations arising from this work. More details at
     http://www.quantum-espresso.org/quote

     Parallel version (MPI), running on    24 processors

     MPI processes distributed on     1 nodes
     123070 MiB available memory on the printing compute node when the environment starts
 
     Reading input from pw_mp-2201_nscf_k690_E66.in
Warning: card &IONS ignored
Warning: card / ignored
Warning: card &CELL ignored
Warning: card / ignored

     Current dimensions of program PWSCF are:
     Max number of different atomic species (ntypx) = 10
     Max number of k-points (npk) =  40000
     Max angular momentum in pseudopotentials (lmaxx) =  4

     Atomic positions and unit cell read from directory:
     out/mp-2201.save/
     Atomic positions from file used, from input discarded
 
 
     K-points division:     npool     =       2
     R & G space division:  proc/nbgrp/npool/nimage =      12
     Subspace diagonalization in iterative solution of the eigenvalue problem:
     one sub-group per band group will be used
     scalapack distributed-memory algorithm (size of sub-group:  3*  3 procs)

 
     Parallelization info
     --------------------
     sticks:   dense  smooth     PW     G-vecs:    dense   smooth      PW
     Min         103     103     30                 2400     2400     386
     Max         104     104     31                 2404     2404     389
     Sum        1237    1237    367                28811    28811    4645
 
     Using Slab Decomposition
 


     bravais-lattice index     =            2
     lattice parameter (alat)  =      11.6816  a.u.
     unit-cell volume          =     398.5191 (a.u.)^3
     number of atoms/cell      =            2
     number of atomic types    =            2
     number of electrons       =        20.00
     number of Kohn-Sham states=         1200
     kinetic-energy cutoff     =      66.0000  Ry
     charge density cutoff     =     264.0000  Ry
     Exchange-correlation= PBE
                           (   1   4   3   4   0   0   0)

     celldm(1)=  11.681619  celldm(2)=   0.000000  celldm(3)=   0.000000
     celldm(4)=   0.000000  celldm(5)=   0.000000  celldm(6)=   0.000000

     crystal axes: (cart. coord. in units of alat)
               a(1) = (  -0.500000   0.000000   0.500000 )  
               a(2) = (   0.000000   0.500000   0.500000 )  
               a(3) = (  -0.500000   0.500000   0.000000 )  

     reciprocal axes: (cart. coord. in units 2 pi/alat)
               b(1) = ( -1.000000 -1.000000  1.000000 )  
               b(2) = (  1.000000  1.000000  1.000000 )  
               b(3) = ( -1.000000  1.000000 -1.000000 )  


     PseudoPot. # 1 for Pb read from file:
     /usr/scratch4/magr4985/MG/HTDF/pseudo/SG15/Pb.upf
     MD5 check sum: 7f27c247474026287e0dbe0f3167d60b
     Pseudo is Norm-conserving, Zval = 14.0
     Generated using ONCVPSP code by D. R. Hamann
     Using radial grid of  602 points,  8 beta functions with: 
                l(1) =   0
                l(2) =   0
                l(3) =   1
                l(4) =   1
                l(5) =   2
                l(6) =   2
                l(7) =   3
                l(8) =   3

     PseudoPot. # 2 for Se read from file:
     /usr/scratch4/magr4985/MG/HTDF/pseudo/SG15/Se.upf
     MD5 check sum: e78e48a4f5d8ce1f8dc76ec1271f249c
     Pseudo is Norm-conserving, Zval =  6.0
     Generated using ONCVPSP code by D. R. Hamann
     Using radial grid of  602 points,  6 beta functions with: 
                l(1) =   0
                l(2) =   0
                l(3) =   1
                l(4) =   1
                l(5) =   2
                l(6) =   2

     atomic species   valence    mass     pseudopotential
        Pb            14.00   207.20000     Pb( 1.00)
        Se             6.00    78.96000     Se( 1.00)

     48 Sym. Ops., with inversion, found



   Cartesian axes

     site n.     atom                  positions (alat units)
         1           Pb  tau(   1) = (   0.0000000   0.0000000   0.0000000  )
         2           Se  tau(   2) = (  -0.5000000   0.5000000   0.5000000  )

     number of k points=    29  Gaussian smearing, width (Ry)=  0.0005
                       cart. coord. in units 2pi/alat
        k(    1) = (   0.0000000   0.0000000   0.0000000), wk =   0.0039062
        k(    2) = (  -0.1250000   0.1250000  -0.1250000), wk =   0.0312500
        k(    3) = (  -0.2500000   0.2500000  -0.2500000), wk =   0.0312500
        k(    4) = (  -0.3750000   0.3750000  -0.3750000), wk =   0.0312500
        k(    5) = (   0.5000000  -0.5000000   0.5000000), wk =   0.0156250
        k(    6) = (   0.0000000   0.2500000   0.0000000), wk =   0.0234375
        k(    7) = (  -0.1250000   0.3750000  -0.1250000), wk =   0.0937500
        k(    8) = (  -0.2500000   0.5000000  -0.2500000), wk =   0.0937500
        k(    9) = (   0.6250000  -0.3750000   0.6250000), wk =   0.0937500
        k(   10) = (   0.5000000  -0.2500000   0.5000000), wk =   0.0937500
        k(   11) = (   0.3750000  -0.1250000   0.3750000), wk =   0.0937500
        k(   12) = (   0.2500000   0.0000000   0.2500000), wk =   0.0468750
        k(   13) = (   0.0000000   0.5000000   0.0000000), wk =   0.0234375
        k(   14) = (  -0.1250000   0.6250000  -0.1250000), wk =   0.0937500
        k(   15) = (   0.7500000  -0.2500000   0.7500000), wk =   0.0937500
        k(   16) = (   0.6250000  -0.1250000   0.6250000), wk =   0.0937500
        k(   17) = (   0.5000000   0.0000000   0.5000000), wk =   0.0468750
        k(   18) = (   0.0000000   0.7500000   0.0000000), wk =   0.0234375
        k(   19) = (   0.8750000  -0.1250000   0.8750000), wk =   0.0937500
        k(   20) = (   0.7500000   0.0000000   0.7500000), wk =   0.0468750
        k(   21) = (   0.0000000  -1.0000000   0.0000000), wk =   0.0117188
        k(   22) = (  -0.2500000   0.5000000   0.0000000), wk =   0.0937500
        k(   23) = (   0.6250000  -0.3750000   0.8750000), wk =   0.1875000
        k(   24) = (   0.5000000  -0.2500000   0.7500000), wk =   0.0937500
        k(   25) = (   0.7500000  -0.2500000   1.0000000), wk =   0.0937500
        k(   26) = (   0.6250000  -0.1250000   0.8750000), wk =   0.1875000
        k(   27) = (   0.5000000   0.0000000   0.7500000), wk =   0.0937500
        k(   28) = (  -0.2500000  -1.0000000   0.0000000), wk =   0.0468750
        k(   29) = (  -0.5000000  -1.0000000   0.0000000), wk =   0.0234375

     Dense  grid:    28811 G-vectors     FFT dimensions: (  45,  45,  45)

     Estimated max dynamical RAM per process >     147.51 MB

     Estimated total dynamical RAM >       3.46 GB

     The potential is recalculated from file :
     out/mp-2201.save/charge-density

     Starting wfcs are random

     Band Structure Calculation
     Davidson diagonalization with overlap

     ethr =  5.00E-06,  avg # of iterations = 10.2

     total cpu time spent up to now is     1157.2 secs

     End of band structure calculation

          k = 0.0000 0.0000 0.0000 (  3695 PWs)   bands (ev):

    -8.5123  -8.5123  -8.5123  -8.5052  -8.5052  -5.0612   1.9325   6.5473
     6.5473   6.5473  12.9285  12.9285  12.9285  14.8784  14.8784  14.8784
    16.5008  16.5594  17.2923  17.2923  28.0228  28.0228  28.0228  29.2444
    29.2444  29.2444  30.9202  30.9202  30.9202  32.2522  32.2522  35.0737
    36.7194  36.7194  36.7194  37.5863  39.5524  39.5524  39.5524  40.9514
    40.9514  41.7887  41.7887  41.7887  42.9876  42.9876  42.9876  43.7386
    43.7386  43.7386  44.4987  46.8375  46.8375  46.8375  46.9630  46.9630
    46.9630  47.5987  47.5987  48.4119  50.0213  50.0213  50.0213  52.8679
    56.1317  56.1317  56.1317  58.3313  58.3313  58.3313  62.9572  62.9572
    63.5881  65.8119  69.4178  69.4178  69.4178  69.9573  69.9573  69.9573
    70.3881  70.3881  70.3881  71.7586  71.7586  72.6617  72.6617  72.6617
    74.6253  74.6253  74.6253  75.9641  75.9641  75.9641  76.0883  76.0883
    76.0883  77.2994  77.2994  77.3262  77.3262  77.3262  78.1957  78.1957
    78.8018  79.2793  79.2793  79.2793  80.1845  80.2338  80.6121  80.6121
    82.0478  82.0478  82.0478  83.3255  83.3255  83.3255  85.8045  85.9236
    85.9236  85.9236  91.6719  91.6719  91.6719  92.8303  92.8303  92.8303
    93.3438  93.3438  93.8944  93.8944  93.8944  94.1142  94.1142  94.1142
    94.7343  94.7610  94.7610  96.4040  96.4040  96.4040  97.3815  97.6761
    97.6761  97.6761  98.4079  98.4079  98.4079 101.7669 103.5437 103.5437
   103.5437 104.8401 104.8401 104.8401 104.9814 104.9814 104.9814 108.0379
   108.0379 108.0379 109.5283 109.5997 109.5997 109.6837 109.6837 109.6837
   109.7168 110.5855 110.5855 111.0886 111.0886 111.0886 111.4965 111.4965
   111.4965 118.7051 118.7051 118.7051 121.5042 121.5042 121.5042 122.1552
   122.4089 122.4089 123.6835 123.7985 123.7985 123.7985 126.0141 126.0141
   126.0141 129.6576 129.6576 129.9658 129.9658 129.9658 130.2691 131.9077
   132.3993 132.3993 132.3993 132.4932 132.4932 133.0179 133.0179 133.0179
   133.0761 133.0761 133.0761 133.4985 133.9505 133.9505 133.9505 134.8373
   135.7274 135.7274 135.7274 137.0603 137.1484 137.1484 137.7818 137.7818
   137.7818 138.4951 138.4951 138.4951 138.7553 138.7553 138.7553 139.1811
   139.1811 139.1811 139.4309 139.4309 139.4309 139.9025 139.9025 140.0323
   140.0323 140.0323 140.4669 140.4669 140.4669 140.6936 140.6936 140.6936
   140.8730 140.8730 140.9413 140.9413 140.9413 141.1102 141.1102 141.1252
   141.2893 141.2893 141.2893 149.0768 149.0768 149.0768 149.1935 149.1935
   149.1935 149.2460 149.2460 149.8387 149.8387 149.8387 151.1391 151.6501
   151.6501 151.6501 153.8482 153.8482 153.8482 156.4102 157.1399 157.1399
   157.1399 157.1537 157.1537 157.2804 158.4371 158.4371 158.4371 160.9925
   160.9925 160.9925 161.7123 165.0707 165.0707 166.5071 166.5071 166.5071
   167.4060 167.6593 167.6593 167.6593 167.7730 167.7730 167.7730 168.1576
   168.1576 168.1576 168.2018 168.2018 169.0162 169.0162 169.0162 170.1101
   170.1101 170.1101 170.1224 170.1224 170.1224 170.1427 170.1427 170.3260
   170.3260 170.3260 170.7282 170.7282 170.9878 171.2151 171.2151 171.2151
   172.4210 172.4210 172.4210 175.1421 175.1421 179.4623 179.4623 179.4623
   181.0949 182.1902 182.1902 182.1902 182.8209 184.9238 184.9238 184.9238
   185.5914 186.3580 186.3580 186.3580 187.3874 187.3874 187.3874 190.7148
   190.7148 191.4016 191.4016 191.4016 191.4348 191.4348 191.4348 191.6326
   192.7879 192.7879 192.7879 193.7674 193.7674 196.8968 196.8968 196.8968
   197.1933 197.1933 197.1933 197.5354 197.5354 197.5354 197.8189 197.8189
   197.8189 197.9895 197.9895 197.9895 198.7476 199.5681 200.9834 200.9834
   200.9834 201.0599 201.0599 201.0599 201.3830 201.3830 201.4398 201.4398
   201.4398 201.4462 201.4462 201.4945 201.4945 201.4945 202.2125 202.2125
   202.2125 202.3073 202.3073 202.3073 202.3270 204.0147 204.0147 204.0153
   204.0258 204.0258 204.0258 209.7035 211.6003 211.6003 211.6003 212.8736
   212.8736 212.8736 213.8241 215.4610 215.4610 215.4610 215.4900 215.4900
   215.7679 215.7679 215.8279 215.8279 215.8279 215.8505 215.8505 215.8505
   215.9373 215.9373 215.9373 218.1591 218.1591 218.1591 218.6355 218.6355
   219.4547 219.4547 219.6603 219.6603 219.6603 219.6692 219.6692 219.6692
   219.8172 219.8172 219.8172 219.8225 219.8225 219.8225 220.1210 220.1210
   220.4547 220.5883 220.5883 220.5883 220.9307 221.1703 221.1703 221.1703
   221.3554 221.3554 221.3554 221.5459 221.6963 221.6963 221.6963 222.4551
   222.4551 222.4551 222.5623 223.7422 223.7422 223.7422 225.5215 225.5215
   225.5215 226.0577 226.1329 226.1329 226.1426 226.1426 226.1426 226.2554
   226.2554 226.2554 226.5628 230.0477 230.0477 230.5428 230.5428 230.5428
   230.8161 230.8161 230.8161 230.8993 230.8993 230.8993 231.2903 231.2903
   231.2903 231.3055 231.3055 231.6996 231.9651 231.9651 231.9651 231.9909
   231.9909 233.4864 233.4864 233.4864 233.5871 233.5871 233.5871 233.7011
   233.7011 233.7011 233.8100 233.8100 233.8100 234.8222 234.8960 234.8960
   234.8960 234.9114 234.9114 235.9557 235.9557 239.2714 239.2714 239.2714
   240.9195 255.6801 255.6801 255.6801 255.9062 255.9062 255.9062 256.5529
   257.0594 258.9440 258.9440 258.9440 259.0422 259.0422 259.1792 259.1792
   259.1792 259.3740 259.3740 259.3740 259.6264 259.6264 259.6264 260.2390
   260.2390 260.2390 260.4682 260.4682 260.7480 260.7480 260.9482 261.1710
   261.1710 261.1710 261.3094 261.9194 261.9194 261.9194 262.0136 262.0136
   262.0136 262.0162 262.0162 262.0162 262.4745 262.4745 262.4745 262.6718
   262.9038 262.9038 262.9038 266.0307 266.0307 266.1138 266.1138 266.1138
   266.2169 266.2169 266.2169 266.2871 266.2871 266.2871 266.3125 266.3125
   266.3818 266.3818 266.3818 267.2289 267.2289 267.2831 267.2831 267.2831
   267.3848 275.1894 275.1894 275.1894 275.2163 275.2163 275.2577 275.2577
   275.2577 275.3470 275.3470 275.3470 275.8787 280.0519 280.1442 280.1442
   280.1442 280.2075 280.2075 280.8242 280.8242 280.8242 281.1167 281.1167
   281.1167 281.1458 281.1458 281.1458 281.1935 281.1935 281.1935 281.4006
   281.4006 281.4006 281.4453 281.4453 281.5494 281.6553 281.6553 281.6553
   282.1915 282.1915 282.9190 282.9190 282.9190 284.2604 284.3660 284.3660
   284.3660 289.4784 289.6818 289.6818 289.9437 289.9437 289.9437 290.0036
   290.0036 290.0036 290.0137 290.0137 290.0137 290.0966 290.0966 290.0966
   290.1952 290.6929 290.6929 290.6929 291.2827 294.6609 294.6609 294.6838
   294.6838 294.6838 294.8001 294.8001 294.8001 294.8224 294.8224 294.8224
   294.9000 295.6606 295.6606 295.6606 295.8708 295.8708 295.8708 295.8763
   295.8763 295.8954 295.8954 295.8954 295.9147 296.5853 296.5853 296.5853
   296.8110 296.8110 296.9086 296.9086 296.9086 297.0555 297.0555 297.0884
   297.0884 297.0884 297.1075 297.1143 297.1143 297.1143 297.1452 297.1758
   297.1758 297.1758 297.1851 297.1851 297.1851 304.2210 304.2210 304.6610
   304.6610 304.6610 305.5356 308.8768 308.8768 308.8768 309.0010 309.0010
   309.0010 309.0172 309.0172 309.0172 309.0682 309.0682 309.0682 309.6686
   309.6686 309.8020 309.8798 309.8798 309.8798 310.0044 310.0044 311.3735
   311.5909 311.5909 311.5909 317.5326 317.5326 317.5326 317.6001 318.2786
   318.2786 318.2786 318.8336 321.0692 321.0692 321.0692 321.0852 321.0852
   321.0852 321.0986 321.0986 321.0986 321.2305 321.2305 321.4606 321.4606
   321.4709 321.4709 321.4709 323.4637 323.4637 323.4637 323.5055 323.5055
   323.5055 323.5337 323.5337 323.5337 323.5613 323.5613 323.5613 325.5023
   325.5023 325.5023 325.5403 325.5403 325.6903 325.6903 325.6999 325.6999
   325.6999 325.7000 325.7274 325.7274 325.7274 325.7358 325.7358 325.7358
   325.7534 325.7534 325.7534 325.8628 325.8628 326.0692 326.0692 326.0692
   326.5167 326.5167 326.5167 326.5176 326.5176 326.5176 326.5193 326.5193
   326.5193 326.6883 326.6883 327.0261 327.0908 327.0908 327.0908 327.1468
   327.2047 327.2047 327.2047 327.2417 327.2417 327.2417 327.2584 329.5957
   329.5957 329.6228 329.6228 329.6228 329.6979 329.9914 329.9954 329.9954
   329.9954 329.9976 329.9976 330.0119 330.0119 330.0119 330.0850 330.0850
   330.0850 330.1143 330.1143 330.1143 330.1740 330.1740 330.1740 330.3686
   330.3686 330.4521 330.4521 330.4521 330.5345 338.2147 338.2147 338.2147
   338.4574 338.4999 338.4999 338.4999 338.5441 344.9010 344.9010 344.9499
   344.9499 344.9499 345.0118 345.0118 345.0118 345.0122 345.0122 345.0122
   345.0960 345.0960 345.0960 345.1205 345.1205 346.6289 346.6289 347.0013
   347.0013 347.0013 347.1795 349.1557 349.1557 349.1557 349.3233 349.3233
   349.3233 349.3445 349.3445 349.3445 349.3555 349.3555 349.3555 352.1666
   352.1666 352.2071 352.2071 352.2071 352.2925 356.9592 356.9592 356.9612
   356.9623 356.9623 356.9623 359.3733 359.3733 359.3733 359.3748 359.3748
   359.3748 359.3816 359.3816 359.3816 359.3874 359.3874 359.3874 360.7447
   360.7447 360.7505 360.7505 360.7505 360.7586 371.9811 372.0300 372.0300
   372.0300 372.4160 372.4160 372.4160 373.2123 373.5161 373.5161 373.7370
   373.7370 373.7370 374.1104 374.1104 374.1104 374.2243 374.2243 374.2243
   374.3162 374.3162 374.3162 374.4509 374.4509 377.6306 377.6306 377.6419
   377.6419 377.6419 377.8610 377.8610 377.8610 378.1060 378.1060 378.1060
   378.3224 380.4286 380.4286 380.5914 380.6277 380.6277 380.6277 380.9352
   381.1752 381.1752 381.1752 381.7214 381.7214 381.7214 382.2506 384.8997
   384.8997 384.8997 384.9731 384.9731 384.9731 385.2268 385.2268 385.3386
   385.3386 385.3386 385.4025 385.4025 385.4025 385.5635 385.7695 385.7695
   385.7695 385.8284 385.8284 386.0357 386.0357 386.0357 386.1911 386.1911
   386.1911 386.3339 386.3339 386.9673 386.9782 386.9782 386.9782 387.3178
   387.3178 387.3178 387.5648 388.7053 388.7053 388.7053 388.7342 388.7342
   388.8174 388.8174 388.8174 388.8220 388.8220 388.8220 388.8516 388.8516
   388.8516 388.9331 388.9331 390.3159 390.3159 390.3201 390.3201 390.3201
   390.3420 390.3420 390.3420 390.3548 390.3550 390.3550 390.3550 390.7148
   390.7885 390.7885 390.7885 390.8770 390.8770 390.8770 390.9008 390.9008
   390.9050 390.9050 390.9050 402.4821 402.4821 402.4841 402.4841 402.4841
   402.5931 402.7622 402.7622 402.7622 402.7769 402.7769 402.7769 402.7823
   402.7823 402.7823 402.7921 402.7921 402.7921 403.6052 403.8369 403.8369
   403.8369 403.9620 403.9620 403.9620 404.0293 404.0293 404.0587 404.0587
   404.0587 405.5698 405.5698 405.5856 405.6367 405.6367 405.6367 405.6519
   405.6519 405.6519 405.7375 405.7375 405.7375 408.1307 408.1307 408.1307
   408.1416 408.1416 408.1416 408.1427 408.1427 408.1826 408.1826 408.1826
   408.2226 408.4422 408.5989 408.5989 408.5989 408.6299 408.6299 408.7936
   408.7936 408.7936 408.8502 408.8502 408.8502 409.1066 409.1066 409.1913
   409.1913 409.1913 409.2774 412.4714 412.4714 412.4714 412.6182 412.6182
   412.6182 412.6665 412.6665 412.6665 412.6957 412.6957 412.7432 412.7432
   412.7432 412.7517 412.8101 412.8101 412.8101 412.8681 412.8681 412.9095
   412.9095 412.9095 412.9680 416.3059 416.6415 416.6415 416.6415 416.9849
   416.9849 416.9849 417.5069 417.5069 417.5465 417.5465 417.5465 417.7613
   418.1969 418.1969 418.1969 418.3750 418.3750 418.3750 418.5338 418.5338
   418.5338 418.5626 418.5626 421.1981 421.1981 421.2721 421.2721 421.2721
   421.3113 421.3904 421.3904 421.3904 421.4208 421.4316 421.4316 421.4316

          k =-0.1250 0.1250-0.1250 (  3623 PWs)   bands (ev):

    -8.5117  -8.5112  -8.5112  -8.5051  -8.5051  -4.9492   1.5793   6.5865
     6.5865   6.7901  11.9083  12.2919  12.2919  14.6916  15.2111  15.2111
    17.5185  17.9192  18.1795  18.1795  26.3502  26.7455  26.7455  28.7220
    28.7220  29.3885  31.2394  31.2394  31.4667  33.8068  33.8068  35.4288
    35.7943  35.7943  37.1081  37.7530  38.3754  38.8453  39.1294  39.1294
    39.2996  39.2996  41.8945  41.8945  42.3035  44.2750  44.2750  44.3456
    44.8277  44.8277  45.2388  45.2781  45.2781  45.8611  47.2312  47.2312
    48.7279  49.5365  49.9973  49.9973  50.8013  50.8013  51.1359  54.0066
    56.0420  56.0420  57.0277  58.2339  58.2339  58.2928  63.0119  63.0119
    63.1523  65.3126  65.3126  65.7257  67.1365  68.8153  69.2921  69.2921
    70.0875  70.0875  70.5002  71.3700  71.3700  72.2965  72.2965  72.5068
    73.8241  74.6069  74.6069  74.7665  75.9940  75.9940  76.1906  76.1906
    76.4198  76.9740  76.9740  77.5915  77.6305  77.6305  78.1176  78.1176
    78.2185  78.6387  80.5435  81.5663  81.5663  81.8796  82.5879  82.5879
    82.8413  83.0870  83.0870  84.9099  85.1442  85.1442  86.3121  86.3121
    86.4708  87.6391  87.6391  89.4132  89.4280  90.2236  90.2236  90.5523
    92.2044  92.2044  92.9372  93.2557  93.2557  94.5832  94.9143  94.9464
    95.0692  95.0692  96.2379  96.2379  96.8475  98.1141  98.4157  98.4157
    99.2092  99.5525  99.5525 100.7438 100.7438 101.9966 101.9966 102.5159
   103.1501 104.2125 104.2125 104.3692 105.2600 105.2600 105.2680 105.7421
   105.9913 105.9913 108.8775 108.8775 109.2331 109.2331 109.3749 110.2980
   110.2980 111.0785 112.2808 113.9069 114.9136 114.9136 115.2069 115.2069
   115.3880 116.9321 117.0958 117.0958 118.8660 118.8660 120.0634 121.1978
   121.9009 122.8906 123.0960 123.0960 123.8662 123.8662 125.8613 125.8613
   126.6302 126.6998 128.2648 128.6948 128.6948 128.8819 128.8819 129.4733
   129.7957 130.1992 130.1992 130.9259 130.9259 131.1727 131.1727 131.7318
   132.4507 132.4507 132.5670 133.1658 133.1658 133.5098 133.6804 133.6804
   134.0824 135.1052 135.1052 135.5331 135.7164 135.7164 135.8787 136.8428
   136.8428 137.3207 137.4736 137.4736 137.7781 138.1684 138.1901 138.6862
   138.6862 139.2704 139.2704 139.6248 139.7720 139.7720 140.5711 140.8557
   140.8557 141.7041 142.1897 142.1897 142.6576 142.6576 142.7813 142.8193
   143.4014 143.4014 143.8748 143.8748 144.1476 144.4769 145.0201 145.3754
   145.3754 146.0013 146.0013 146.7452 147.3749 147.9663 147.9663 148.2334
   148.2334 148.9941 149.6219 150.1704 150.1704 151.6636 151.9639 151.9639
   154.2891 154.2891 154.3922 155.6507 155.6507 155.7325 155.8489 156.1482
   156.1482 157.2746 157.2746 157.9200 157.9200 158.5302 160.8144 160.9863
   160.9863 162.4800 162.4800 162.6922 162.7016 163.1199 163.1199 163.6444
   163.6444 163.8940 164.6108 164.6108 164.7713 164.7713 164.9943 165.2169
   165.3719 165.7740 165.7740 167.5362 168.4725 168.4725 169.2436 169.2436
   169.6213 171.1352 171.3079 171.3079 172.0709 172.4714 172.8950 172.8950
   172.9657 173.1113 173.1113 175.2608 175.9877 175.9877 176.0158 176.5300
   176.5300 176.6026 177.9963 177.9963 178.2032 178.2032 179.1133 179.7000
   180.0483 180.0483 180.7367 180.7367 181.6445 183.1423 183.1423 183.9974
   183.9974 185.3276 185.9016 186.2634 187.6989 187.6989 188.5485 188.7115
   188.7115 189.7086 189.8643 189.8643 190.5760 191.0304 191.0304 191.3855
   191.6145 191.6145 191.7690 191.9023 191.9023 192.3427 192.3695 192.3695
   193.0436 193.3626 193.3626 194.1637 195.2432 195.2432 196.2201 197.4813
   197.5580 197.5580 198.4721 198.4721 200.0013 200.7893 200.9978 201.3071
   201.3071 201.5372 201.5372 201.6511 201.7927 201.9429 201.9429 202.0820
   202.0820 202.6242 203.4415 203.4415 204.0904 204.0904 204.5357 204.5631
   204.5631 204.9377 205.0927 205.0927 206.2155 206.6790 206.7155 206.7155
   208.2844 208.2844 209.5361 209.5762 210.2791 210.2791 210.3876 210.5953
   210.8562 210.8562 211.2311 211.2311 211.4527 211.4527 211.6745 211.6745
   211.6801 212.1126 212.2483 212.7236 212.7236 213.0884 213.0884 213.6081
   214.3539 214.3539 214.6500 215.1022 215.1113 215.1113 215.1182 217.1171
   217.1838 217.1838 217.9265 217.9265 218.0295 218.0295 218.1034 218.3613
   218.5569 218.8014 218.8014 219.2920 219.2920 220.1449 220.2010 220.2010
   220.3198 220.4235 220.7037 220.7037 221.5143 221.5143 222.1933 222.1933
   222.3075 222.8359 223.0979 223.0979 223.8600 223.9156 223.9156 224.6366
   224.8652 224.9533 224.9533 225.2326 225.2326 225.4821 225.6420 225.6420
   226.7339 226.9539 226.9539 227.4599 227.5063 227.5063 227.7671 227.7671
   228.0187 228.1570 228.1570 228.1716 229.0167 229.0321 229.0321 229.4311
   229.9193 229.9193 230.3921 230.3921 230.7119 230.7119 230.7657 231.5182
   231.5182 231.7342 231.9911 231.9911 232.4796 233.1774 233.8956 233.8956
   234.0690 234.4791 234.4791 234.9769 235.8066 236.9797 236.9797 237.2106
   237.5644 237.5644 238.1233 238.4584 238.4584 238.4918 242.1217 242.1217
   242.8363 243.3041 243.8160 243.8160 244.4989 244.9749 244.9749 245.4770
   245.4770 247.5262 247.5262 247.6267 248.4152 250.0142 250.0142 250.9822
   251.1661 251.1661 251.8897 252.5638 252.6637 252.6637 253.4252 253.4252
   253.9017 253.9017 254.5599 254.5599 254.6485 254.7051 255.1246 255.1246
   255.4418 259.3202 259.3202 259.3778 259.8301 259.9788 259.9788 260.5602
   260.5602 260.7411 260.9542 260.9542 261.0956 262.2018 262.2018 262.4404
   263.1728 263.1890 263.1890 264.2094 264.2094 264.2777 266.1878 266.5343
   266.5343 266.7140 266.7140 266.9550 267.5164 268.0448 268.0448 268.9072
   268.9072 269.3008 269.4723 269.5240 269.5452 269.5452 269.8378 269.8378
   270.3872 270.5367 270.5367 270.8242 270.8242 271.0554 272.2125 272.2125
   272.2717 272.5376 273.0147 273.0147 273.2930 273.3962 273.3962 273.4029
   273.8727 273.8727 274.7993 275.1463 275.1463 275.5524 275.5991 275.7615
   275.7615 276.0392 276.0392 276.2083 276.2540 277.7086 277.7160 277.7160
   278.1588 278.1588 278.4174 280.0617 280.0617 281.2249 281.2249 281.7221
   282.4202 282.7450 282.7852 282.7852 282.9149 282.9149 283.1130 283.1644
   283.1644 285.2444 285.3122 285.3122 285.5995 285.5995 285.6224 285.8366
   285.8436 285.8436 286.7429 286.7429 287.1001 287.1001 287.1008 287.3446
   288.7731 288.7731 288.9336 289.0708 289.2989 289.2989 290.6071 290.6071
   290.7002 290.7480 290.7480 290.8278 292.8630 292.8630 292.9451 293.0926
   293.0926 293.2633 293.8854 293.8854 293.8862 294.2400 294.2400 294.4852
   294.5311 294.5311 294.6426 294.6426 294.6936 295.1063 295.1063 295.1214
   295.6423 296.2021 296.2021 296.2755 297.8297 297.9155 297.9155 298.2898
   298.2898 298.3681 298.4523 298.4634 298.4634 298.5524 298.5524 298.6290
   298.6690 298.7219 298.7219 299.5331 299.5331 300.0737 301.7655 301.7655
   301.8903 303.7240 304.4538 305.4909 305.4909 305.6141 305.6141 305.6444
   305.8757 306.3823 306.3823 306.5390 306.7053 306.7053 307.0519 307.0519
   307.4360 309.1707 309.1707 309.2400 310.2709 310.2709 310.3041 310.9441
   310.9441 311.1604 311.1604 311.2607 311.4046 311.4046 311.6124 312.4824
   312.5681 312.5681 312.6530 313.5255 313.5255 313.5403 314.0029 314.5214
   314.5214 314.7805 314.9198 314.9198 315.5195 315.5195 315.9312 316.1786
   316.1786 316.3468 316.3468 316.4660 316.7791 317.4284 317.4284 317.4788
   317.8928 317.8928 318.0982 318.2093 318.2093 318.2938 319.7084 319.7084
   319.7446 320.4796 320.4796 320.5479 321.1172 321.2445 321.2445 321.3547
   321.3547 321.6430 321.7909 321.7909 321.9310 322.1898 322.1898 322.2049
   322.9329 323.1355 323.1355 323.2107 323.2107 323.2119 323.2155 324.8715
   324.8715 324.8946 325.3361 325.3361 325.3388 325.4020 325.4020 325.4332
   327.2548 327.2548 327.3435 328.1063 328.1063 328.1259 328.1314 328.1314
   328.2383 329.1563 329.2622 329.2622 329.5107 329.5107 331.7473 331.7473
   331.9056 331.9668 332.0288 332.1950 332.1950 332.2186 332.3072 332.3072
   332.3820 332.3820 332.8360 332.8360 332.8945 333.2904 333.3890 333.3890
   333.6886 333.9962 333.9962 334.0982 335.2093 335.2093 335.2181 335.9933
   335.9933 336.2002 336.2002 336.2169 338.6846 338.7431 338.7431 338.8916
   338.8916 338.9682 338.9682 339.0071 339.1128 339.3004 339.3042 339.3042
   339.3242 339.3767 339.3767 340.4052 340.4052 340.4213 340.7190 340.7190
   341.2556 341.2556 341.3074 342.1254 342.3560 342.3606 342.3606 343.4312
   343.4312 343.4965 343.8985 343.8985 344.0390 344.6794 344.6794 344.7160
   346.9345 346.9457 346.9457 348.5704 348.5704 348.5816 349.1696 349.1696
   349.1733 352.1632 352.1632 352.1727 352.5426 352.5429 352.5429 353.6834
   353.6834 353.8103 354.2122 354.6717 354.6717 354.6731 356.7021 356.7021
   356.7127 356.9784 358.6104 358.6104 359.9291 359.9291 360.0988 360.9854
   360.9854 362.3450 362.3450 362.4064 362.9895 362.9895 363.0793 364.6242
   364.6280 364.6280 365.0410 366.2826 366.2826 366.2966 366.4684 366.4684
   366.5462 366.5462 366.5573 367.0631 369.8646 369.8646 370.1930 370.1979
   370.1979 370.5097 371.3200 371.3200 371.6653 371.6653 371.8813 372.3715
   372.3715 372.3887 372.5706 372.7766 372.7766 373.0785 373.1329 373.1329
   373.8326 373.8326 373.9960 375.4183 375.4183 375.5312 375.9771 376.5043
   376.5043 376.9274 376.9274 376.9536 377.1022 377.2441 377.2441 378.0408
   378.0408 378.2432 378.3737 378.4142 378.4142 378.5281 378.5281 378.6596
   381.4966 381.4966 381.5896 381.8970 381.9768 381.9768 382.4841 382.4841
   382.5202 383.1844 383.2449 383.2449 384.3283 384.3283 384.3314 384.7970
   384.9252 384.9252 385.1840 385.1840 385.2278 386.8252 386.8252 386.8356
   387.8857 388.7770 388.7770 388.9158 388.9917 389.2779 389.2779 389.5475
   389.5475 390.4095 390.4095 390.4235 390.6202 390.6270 390.6270 391.1779
   391.1779 391.1784 391.2193 391.2193 391.3023 391.3023 391.3069 391.4077
   391.4861 391.4861 391.7994 391.8162 391.8162 392.1771 392.3773 392.3773
   392.5430 393.1072 393.1072 393.1645 393.3405 393.5323 393.5323 393.5981
   393.5981 393.6487 394.1714 394.3979 394.3979 394.9571 394.9619 394.9619
   396.0445 396.0445 396.2773 396.5314 396.6995 396.6995 396.8178 396.8178
   396.8384 397.7178 398.6233 398.7622 398.7622 399.0763 399.0763 399.2184
   399.2184 399.2802 399.4639 399.8279 399.8279 399.8408 400.8665 400.8665
   401.1083 401.9517 401.9517 402.0265 402.0582 402.1183 402.1183 402.1843
   402.1843 402.2123 404.1113 404.2252 404.2252 404.4313 404.6517 404.7872
   404.7872 405.5567 405.5567 405.7655 405.7719 405.7719 405.9757 405.9766
   405.9766 406.5812 406.6315 406.6315 407.4161 407.4234 407.4234 407.6738
   407.6738 407.6755 408.2553 408.2553 408.4247 408.9845 408.9850 409.0297
   409.0297 409.0503 409.0503 409.1050 409.1730 409.1730 409.5199 409.5199
   409.5557 410.6538 410.6554 410.6554 411.0972 411.0972 411.0982 411.7866
   411.7952 411.7952 412.5871 412.5905 412.5905 413.0558 413.0558 413.0592
   413.4421 413.4473 413.4473 413.7039 413.7212 413.7212 414.4630 414.4630
   414.5501 414.8942 414.9079 414.9079 416.0669 416.1226 416.1226 416.6628
   416.6758 416.6758 416.8426 416.8552 416.8552 417.1854 417.2503 417.2503
   417.3374 417.3374 417.3712 418.3330 418.3424 418.3424 418.3534 418.3616
   418.3616 419.3658 419.4139 419.4139 420.5383 420.5383 420.5432 420.5950
   420.7598 420.7598 421.0004 421.0285 421.0285 421.3732 421.3732 421.3825

          k =-0.2500 0.2500-0.2500 (  3602 PWs)   bands (ev):

    -8.5173  -8.5173  -8.5105  -8.4961  -8.4961  -4.6432   0.7842   6.7009
     6.7009   7.2946  10.4562  11.2149  11.2149  14.8708  16.0617  16.0617
    19.3611  20.1100  20.1100  20.5244  24.0565  24.1754  24.1754  28.9494
    28.9494  29.7951  31.2257  31.2257  31.6106  33.4106  33.4106  33.4881
    35.9673  36.1370  36.1370  36.5340  36.8587  36.8587  36.8958  39.6285
    39.6679  39.6679  40.9669  41.6118  41.6118  43.0929  43.9166  43.9166
    46.4925  46.4925  46.5799  46.9626  46.9626  47.9826  47.9826  48.0256
    48.9455  50.8864  50.8864  51.7973  54.8319  54.8640  54.8640  55.5811
    55.8432  55.8432  58.1299  58.1723  58.1723  58.7840  60.6130  60.6130
    61.6890  62.4658  62.4658  63.2595  65.7217  65.7217  66.6896  66.8504
    67.8392  67.8392  69.8328  70.8741  70.8741  71.0861  71.9355  71.9522
    71.9522  72.5587  73.7547  73.7547  76.0693  76.0693  76.5098  76.6865
    76.6865  77.4110  77.4110  78.3399  78.6096  79.0070  79.0070  79.3573
    79.3573  79.6415  80.3366  80.3366  80.6724  82.5801  82.5801  83.7250
    84.7069  85.8970  86.3448  86.3448  86.5538  86.9193  86.9193  87.6925
    87.6925  88.5159  89.2102  89.2102  89.7284  89.7284  90.6757  90.6887
    90.8437  90.8437  92.1889  92.5273  93.0663  93.0663  93.5348  94.9266
    95.1064  95.1064  96.9721  96.9721  97.4436  97.9025  97.9025  98.9336
    99.1579  99.1579 100.0024 100.7720 100.7720 101.2692 102.3591 102.7680
   102.7680 103.2031 103.2031 105.0915 106.7500 106.7500 106.8436 106.8436
   107.3870 108.5327 109.1679 109.1679 109.2237 110.4424 110.4424 111.6851
   113.2603 113.2603 113.5841 113.5841 114.9327 115.1319 116.9961 117.0548
   117.0548 117.9638 117.9638 118.4803 118.4838 119.2005 120.6247 120.6247
   120.9009 121.5524 121.5524 121.7255 122.1414 122.2431 122.2431 122.6611
   122.6611 123.1001 123.6304 123.6304 124.7772 124.7772 125.5736 125.5736
   126.1932 126.2923 127.8033 127.8033 128.0133 129.5486 130.4799 130.4799
   132.3620 132.3620 132.4670 133.3732 133.3732 133.6173 134.3418 134.3418
   134.4197 135.1434 135.4986 135.4986 135.7589 135.7589 136.3384 136.3927
   136.3927 137.1400 137.1400 137.3070 137.4808 137.6623 137.6623 137.6843
   138.5643 138.5643 139.1143 139.4707 139.7155 139.7155 141.2582 142.9073
   142.9073 142.9213 143.1541 143.1541 143.7454 143.9105 144.4682 144.5848
   144.5848 144.7334 144.7334 145.3836 145.3836 145.8952 146.8198 146.8198
   147.7399 148.0276 148.0276 148.1598 148.1598 149.6125 150.2963 150.6460
   151.5716 151.5716 152.0287 152.1525 152.1525 152.2634 152.2634 152.9073
   154.2608 154.2608 154.6374 156.8709 156.8709 157.8803 157.8803 157.9317
   158.0259 158.4754 158.6595 158.6595 159.2674 159.2674 159.5598 159.6545
   159.6545 159.7489 160.8139 160.8139 161.4127 161.4419 161.6815 161.6815
   162.6988 162.6988 163.7443 164.9770 164.9770 165.3847 165.6620 165.6620
   166.2654 166.6898 166.6898 167.6227 167.6227 167.9194 169.3902 169.7943
   169.7943 170.9324 171.0441 171.0441 171.4361 173.5165 173.5165 174.5226
   174.5651 174.5651 175.3568 175.5605 175.5605 177.1562 177.4869 178.0337
   178.0337 178.0847 178.3139 178.3139 181.2866 181.9522 181.9522 182.0848
   182.0975 182.0975 182.2775 182.4859 182.4859 182.7730 182.9297 183.3476
   183.3476 183.3934 183.4485 183.4485 183.8306 184.2646 184.2646 187.6275
   187.6275 188.0630 188.9379 189.0664 189.4942 189.4942 190.2097 190.5024
   190.5024 190.7802 190.7802 190.9461 191.5109 191.5109 191.8144 192.2938
   192.2938 192.6428 192.9067 192.9067 192.9141 192.9141 193.8392 194.0229
   194.0229 195.2523 195.2523 196.5146 197.1040 197.1040 198.3089 198.4902
   199.7868 199.7868 200.2624 200.7428 200.7428 201.5758 202.2130 202.2130
   202.4633 202.4633 202.4912 203.0231 203.5542 203.5542 203.8041 203.8041
   203.8542 204.2039 204.5270 204.5270 204.6691 204.8458 204.8458 206.2676
   206.7325 206.7325 207.4275 207.4275 207.4876 209.4514 210.1578 210.2715
   210.2715 210.9316 210.9316 210.9883 211.1065 211.1183 211.1183 211.6719
   211.6719 211.8034 212.5348 212.5348 212.8206 212.9430 212.9430 213.8206
   213.8206 213.9897 214.3259 214.9180 214.9180 215.1289 215.6714 215.7203
   215.7203 216.5241 216.5241 216.5673 217.4618 217.4618 217.5458 217.7616
   217.7616 217.9904 219.2354 219.4974 219.4974 219.6588 219.7722 219.7722
   220.9172 220.9172 220.9316 221.4663 221.4663 221.6451 221.9113 221.9113
   222.0007 222.1727 222.1727 222.3838 222.9228 222.9228 224.4584 224.6778
   224.6778 224.7902 225.7461 225.7461 225.7718 225.7781 226.0655 226.0655
   226.2789 226.2917 226.2917 227.7866 227.7866 227.8191 230.0335 230.0335
   230.0823 230.6224 230.6404 230.6404 231.7229 233.0003 233.3172 233.3172
   233.3193 234.2592 234.2592 235.5473 235.5473 235.6590 236.4109 236.4109
   236.5198 236.6776 237.5062 237.5062 237.6969 239.0437 239.0437 239.3110
   239.3110 240.4039 240.4039 240.7056 241.4153 241.4153 241.9734 242.4367
   242.5101 242.5101 243.0330 243.0330 243.3164 243.3232 243.3232 243.7928
   243.7928 243.9641 244.3916 244.3916 244.5367 245.3835 245.6082 246.0115
   246.0115 246.0230 246.4700 246.4700 247.3775 247.3775 247.7961 248.6926
   248.6926 249.0454 249.3799 249.3799 249.4318 249.6725 252.4858 252.4858
   252.7764 252.7764 252.9657 253.6542 253.6985 253.8612 253.8612 254.0251
   254.0251 255.1325 255.1325 255.2409 255.2409 255.3290 255.3551 256.0413
   257.6406 257.6406 258.3420 258.4801 258.4801 258.7554 258.7554 258.8303
   259.2763 259.2763 260.0777 261.2691 261.2691 261.2739 262.5847 263.1727
   263.1727 263.3130 265.5599 265.5599 265.6718 265.6718 265.8367 265.9074
   266.2574 266.3279 266.3279 266.8241 266.8241 267.1195 269.5906 269.9043
   269.9043 271.9188 271.9844 271.9844 272.5243 272.7031 272.7031 272.8717
   272.8717 273.1952 273.3091 273.3091 273.3107 274.7339 274.7339 274.7583
   274.7673 275.0615 275.0615 275.7555 275.7555 276.0506 276.1877 276.1877
   276.4474 276.4614 276.4614 276.7800 277.0066 277.0066 277.1138 277.2012
   277.2012 277.2194 278.8458 278.8458 279.0459 280.2194 280.2795 280.2795
   280.5285 280.5285 280.8954 281.6936 282.0187 282.0187 282.5506 282.8548
   282.8548 284.5323 284.5323 284.7566 284.9957 285.3672 285.3672 285.5592
   286.6327 286.6964 286.6964 286.9084 286.9084 288.4260 289.5239 289.5239
   289.6750 289.8083 289.8083 289.9840 290.9358 291.6238 291.6238 291.7250
   291.8788 291.9019 291.9019 292.7780 292.7780 292.8112 293.0025 293.0025
   293.0756 293.0756 293.0897 293.3521 293.3521 293.4477 293.5334 293.6203
   293.6203 294.2596 294.2596 296.9929 296.9929 297.0745 297.1026 297.1026
   297.4829 297.4829 297.8146 298.4841 298.8875 299.2841 299.2841 299.4747
   299.5868 299.5868 299.7612 299.7612 299.8813 300.2862 300.2862 300.4129
   301.0614 301.0614 301.1116 301.1699 301.1699 301.2571 302.0086 302.0086
   302.1777 302.2278 302.2278 302.3773 302.6455 302.6455 302.7345 303.3541
   303.3541 303.4722 303.7483 303.7483 303.7919 305.0539 305.0539 305.1444
   306.2007 306.2198 306.3293 306.3293 306.5169 306.5169 306.9385 306.9385
   307.4230 307.7721 307.7721 308.1024 308.1133 308.7752 308.7752 308.8306
   308.9129 308.9129 309.0703 313.6193 313.6193 313.7427 313.7427 313.7548
   313.7886 314.0348 314.0348 314.0438 314.3680 314.3680 314.7812 314.7812
   314.8162 316.4924 316.4986 316.4986 316.9350 316.9350 316.9818 317.6175
   317.6389 317.6389 317.6598 317.6598 317.7262 318.0815 318.0815 318.0943
   318.2286 319.2699 319.2699 321.0403 321.0473 321.0473 321.3873 321.3873
   321.4184 321.4923 321.8953 321.8953 321.9956 324.2269 324.2856 324.2856
   324.3772 324.3772 324.5393 324.5393 324.7056 324.7759 324.7772 324.7772
   324.7809 325.0788 325.0788 325.6202 326.2526 326.2526 326.4550 326.6790
   326.6809 326.6809 327.6303 327.6303 327.6480 328.0103 328.0103 328.1362
   330.7800 330.7823 330.7823 332.3790 332.3790 332.7634 332.9619 333.1391
   333.1391 334.1678 334.1678 334.3025 334.4411 334.4411 334.5640 334.7262
   334.7262 334.7527 334.8648 334.8648 334.8732 335.2717 335.2717 335.2856
   336.2209 336.2445 336.2445 337.9819 337.9819 338.0261 338.2800 338.3104
   338.3104 339.3749 339.3749 339.5538 339.6857 339.8155 339.8155 339.8541
   339.9609 339.9609 341.1199 341.1199 341.2556 341.5209 341.5220 341.5220
   341.8919 342.3018 342.3018 342.3712 343.5587 343.5587 344.4091 344.4091
   344.4252 346.9735 346.9739 346.9739 347.6086 348.0278 348.0278 348.1284
   348.2527 349.0231 349.0231 349.2204 349.3417 349.3417 349.4120 349.4535
   349.4535 349.6458 349.7259 349.7259 349.7509 350.0621 350.0621 351.4056
   351.4056 351.4818 353.6696 353.6696 353.6719 354.6078 354.6127 354.6127
   355.0713 355.0713 355.9325 355.9325 357.3583 357.4123 357.5058 357.5058
   357.9815 357.9815 358.1315 358.1315 358.2120 358.3322 359.1454 359.1454
   359.2460 359.3893 359.3893 359.4857 359.8290 359.8290 359.9061 360.2403
   360.2403 360.2511 361.8780 361.8780 362.1489 363.3305 363.3308 363.3308
   363.7707 363.7707 363.8072 363.8624 364.0693 364.0693 367.7737 367.7737
   367.9986 368.9515 369.2208 369.2208 370.1339 370.1339 370.2027 370.4227
   370.7216 370.7216 370.8488 371.6128 371.6128 371.6203 373.5815 373.5815
   373.6226 374.0076 374.0076 374.0312 374.0956 374.4685 374.4685 374.8678
   374.8678 375.0351 375.1456 375.1456 375.1912 375.2537 375.3138 375.3138
   377.2393 377.2393 377.6661 377.7874 377.7874 377.8486 377.8486 377.9822
   378.1443 378.1443 378.2524 380.2343 380.2774 380.2774 381.0154 381.0733
   381.0733 381.2994 381.2994 381.8650 381.8650 381.8832 381.8862 382.0469
   382.4561 382.4561 382.4588 382.5884 382.5884 383.4886 384.1038 384.1975
   384.1975 384.3187 384.3193 384.3193 384.4261 384.4261 385.1559 385.1559
   385.1792 385.2767 385.2767 385.3620 386.1616 386.1616 386.2620 386.4571
   387.0983 387.0983 387.4582 387.4846 387.4846 387.5610 388.7997 388.7997
   388.8281 390.3555 390.3555 390.3813 391.4251 391.4494 391.4494 391.5212
   391.5212 391.5527 391.7452 391.7493 391.7493 392.1214 392.1931 392.1931
   392.4290 392.4290 392.4737 393.3010 393.3094 393.3094 394.1044 394.1150
   394.1150 394.7347 394.8064 394.8064 395.4494 395.4494 395.5562 396.5625
   396.5625 396.5735 397.7427 397.7432 397.7432 399.0479 399.0589 399.0589
   399.3044 399.3044 399.3491 399.3682 399.4184 399.4184 400.6961 400.6961
   400.9080 402.0618 402.2647 402.2647 403.5603 403.5603 403.5880 403.7077
   403.7571 403.7696 403.7696 404.4411 404.4411 404.8046 404.8097 404.8097
   405.2069 405.2352 405.2352 405.2897 405.4936 405.5487 405.5487 405.6940
   405.6940 407.0195 407.0634 407.0634 407.1831 407.1831 407.2578 407.2767
   407.2767 407.6289 407.8285 407.8285 407.8525 408.1908 408.2058 408.2058
   409.5515 409.5582 409.5582 411.4641 411.4641 411.4858 411.5328 412.7513
   412.7930 412.7930 413.0264 413.0639 413.0639 413.1323 413.1860 413.1860
   413.6698 413.6698 414.7265 415.0239 415.0258 415.0258 415.0445 415.0445
   415.0504 415.6384 415.6384 415.6493 415.6620 415.6788 415.6788 416.0477
   416.0477 416.3603 417.2351 417.2351 417.5803 418.8296 418.8540 418.8540
   418.9354 418.9354 418.9494 419.0733 419.0733 419.0763 419.1001 419.1001
   419.1673 420.1999 420.1999 420.2033 420.7021 420.7021 422.0488 422.0756
   422.0756 422.3214 422.5906 422.6190 422.6190 422.6606 422.6606 423.2805
   423.3353 423.3353 423.9612 423.9612 424.0858 424.3247 424.3534 424.3534

          k =-0.3750 0.3750-0.3750 (  3615 PWs)   bands (ev):

    -8.5245  -8.5245  -8.5095  -8.4859  -8.4859  -4.2610  -0.0050   6.8553
     6.8553   7.8223   9.3123  10.3682  10.3682  15.7876  17.3404  17.3404
    19.6343  21.4065  21.4065  22.7859  22.7859  22.9140  24.8102  28.3268
    28.3268  29.5674  30.3443  31.3008  31.3008  31.6196  32.1159  32.1159
    32.9558  34.7915  34.7915  35.0327  36.8541  36.8541  37.1327  38.1834
    40.6777  40.6777  41.4289  41.4289  42.6916  44.4403  44.4403  44.9713
    46.0955  46.6997  46.6997  48.8038  48.8038  49.5551  50.0945  50.0945
    50.9613  52.7049  52.7049  54.4148  55.0254  55.1150  55.1150  55.6670
    55.6670  55.8333  57.6438  57.9737  57.9737  60.3672  60.3672  60.7745
    60.7745  60.8987  61.3185  62.8058  62.8058  63.0493  63.8360  65.7185
    66.2201  66.2201  67.8928  70.0082  70.6417  70.6417  71.1755  71.1755
    71.4551  72.0736  72.0736  73.7905  73.9917  73.9917  75.5445  76.1135
    76.1135  78.1826  78.1826  78.2875  78.5559  78.5559  79.5423  79.8653
    80.4562  80.4562  81.5350  81.8244  82.6284  82.6284  83.8421  83.8421
    84.3537  84.8371  85.1404  85.1404  86.9440  86.9440  87.5407  87.9389
    87.9389  88.6057  89.0799  90.2223  91.1888  91.1888  91.6912  91.6912
    92.8172  92.9164  92.9164  93.4330  94.4752  94.4752  95.0552  96.2765
    96.2765  96.9434  97.0657  97.0657  97.2364  98.0807  98.0807  98.1659
    98.1659  98.8042  99.7789  99.7789 101.0033 101.9289 101.9289 103.1050
   103.9295 103.9295 104.2635 105.1881 105.9610 105.9610 107.6495 107.6495
   108.3201 109.0423 109.2018 109.9703 109.9703 111.0988 111.0988 111.9084
   112.1756 113.3891 113.3891 113.7724 115.5657 115.8674 115.8674 116.8491
   116.8491 117.3040 117.8549 117.8549 118.2439 118.4284 118.4284 118.6042
   118.6042 119.2667 119.5377 119.8515 119.8515 121.0346 121.2428 121.2428
   122.7677 122.9305 123.6961 123.6961 124.0845 124.0845 126.3900 126.6943
   126.6943 127.1577 128.2170 128.2170 128.7813 128.9748 128.9748 130.0476
   130.4690 130.4690 131.0404 131.1960 131.8600 131.8600 132.1854 133.1057
   133.2065 133.2065 133.9293 133.9293 134.7857 135.5079 135.5079 135.7417
   136.6171 136.6171 136.6612 137.1007 137.1270 137.1270 137.5485 137.5485
   138.1913 138.1913 138.4238 140.2788 140.5320 140.5320 141.9035 141.9035
   143.1583 143.4213 143.6232 143.6232 144.7780 144.7780 145.0379 145.4152
   145.4152 145.7372 146.1035 146.1035 146.3408 146.8258 146.8258 147.1150
   148.0021 148.3844 148.3844 149.0453 149.0453 149.6958 149.6958 149.8134
   150.8469 152.4420 154.0840 154.0840 154.3052 154.6586 154.6586 154.8116
   155.1583 155.1583 155.1743 156.0842 156.0842 156.9425 156.9425 157.4636
   158.1132 158.6922 158.6922 159.3382 160.1593 160.6359 160.6359 162.2325
   162.9702 163.1439 163.1439 163.9103 163.9103 164.5540 164.5540 164.5622
   165.1516 165.5787 165.5787 165.9885 166.2701 166.2701 166.7606 166.7606
   167.0753 167.4260 167.5436 167.5436 168.3562 169.1298 169.1298 169.5247
   170.4035 170.4035 172.4999 172.4999 172.5984 173.7249 173.7249 173.8258
   174.1743 174.1743 174.2020 175.3351 175.3351 176.2517 176.7446 176.8015
   177.1591 177.1591 178.1605 178.1605 178.9177 178.9177 179.4536 179.5836
   179.6659 179.6659 180.0694 180.2209 180.2209 181.0147 182.8150 182.8150
   183.4086 183.6428 183.6428 184.5630 186.3878 186.3878 186.8345 186.8345
   187.0345 187.7162 187.8212 187.8312 187.9511 187.9511 189.4777 189.5160
   189.5160 189.7555 189.7555 190.0147 190.7183 190.7183 191.1503 191.1503
   191.6870 191.7901 191.7954 191.7954 193.2676 193.2676 193.2728 194.1956
   194.1956 194.7213 194.7213 195.2898 195.8657 195.9009 195.9009 196.8018
   196.9776 196.9776 197.8246 198.2300 198.4127 198.4127 198.9425 198.9425
   199.7856 201.3043 201.3043 202.2046 202.3175 202.3175 202.8690 203.2443
   203.2443 203.8235 203.9526 203.9526 204.1561 204.6998 204.6998 205.1839
   205.1839 205.5059 205.5059 205.8321 205.9224 206.3363 206.9470 206.9470
   208.1610 208.1906 208.1906 208.3319 208.3319 208.6790 209.0837 209.2454
   209.2454 211.2718 211.5519 211.5519 213.1839 213.1839 213.2511 214.3179
   214.3179 215.2012 216.5949 216.5949 216.8276 216.8276 216.9416 217.5125
   217.8582 217.9029 217.9029 218.5493 218.9708 218.9708 219.4023 219.4483
   220.1143 220.1143 220.4513 220.7697 220.9393 220.9393 221.5492 221.5492
   221.8686 221.8686 221.9182 221.9402 222.1859 222.1859 222.6504 223.6261
   223.6261 223.8086 223.9689 223.9689 224.2905 224.7098 224.7098 225.3690
   225.3690 225.3834 226.3936 226.3936 227.1807 228.1505 228.3795 228.3795
   230.3441 230.3441 230.5954 230.6376 230.7402 230.7402 232.5027 233.0394
   233.0394 233.2273 233.2273 233.3433 233.5293 233.5293 234.0495 234.2577
   234.2577 234.7699 234.7699 234.8442 235.3143 235.3143 235.6345 236.0444
   237.7953 238.6180 238.6180 239.5220 239.8112 239.8112 241.3047 241.3047
   241.4155 241.4155 241.4428 241.6541 241.6541 241.7314 242.0105 242.2164
   242.2164 242.2462 243.5286 243.8811 243.8811 244.6956 244.6956 244.8665
   245.2692 245.2692 245.3421 246.5203 246.5203 246.5750 246.9075 247.3159
   247.3159 247.4782 247.4782 247.5173 248.0622 248.3032 248.3032 248.4884
   248.4884 248.6249 248.9300 250.1289 250.2388 250.2388 250.3725 250.9309
   250.9309 251.5801 251.8246 251.8246 253.9498 253.9498 254.1563 254.9192
   254.9192 255.0656 255.2555 255.3721 255.3721 256.7799 256.7799 256.9684
   257.3034 257.3034 258.1863 258.6365 258.6365 258.9095 259.0696 259.0696
   259.0919 259.4905 259.4905 259.6215 259.8337 259.8337 259.9233 261.5286
   261.5286 261.5309 261.6209 262.6565 262.6565 263.4812 263.4812 263.8272
   264.4510 264.4510 264.4934 265.1736 265.1736 265.7631 266.1014 266.5374
   266.5374 266.6932 267.7048 267.7048 268.1135 268.2510 268.2510 268.3623
   271.1943 271.1943 271.4514 271.4514 271.5308 273.4514 273.6738 273.6738
   274.6895 274.7157 274.7157 275.5469 275.6474 275.6474 275.8089 275.8529
   275.8529 276.6211 277.6563 277.6563 278.2649 279.1357 279.1357 279.6739
   279.6739 280.6847 280.6847 280.8299 280.9323 280.9811 281.2372 281.2372
   281.7717 281.7717 281.9228 281.9228 281.9228 281.9344 282.2776 282.7038
   282.7038 283.2230 283.2230 283.5047 283.5047 283.7268 284.0385 284.0385
   284.2350 284.6789 285.6316 285.6316 285.7357 286.4502 287.1380 287.1380
   290.6682 290.6682 290.7928 290.8881 290.8881 290.9404 291.7263 291.7263
   291.8230 291.9299 291.9299 292.0581 292.1023 292.3023 292.3023 292.4913
   292.4913 292.6197 293.2965 293.8781 293.8781 293.9153 294.2803 294.2803
   294.2922 295.1164 295.1164 295.5405 295.5565 295.5565 295.7493 295.8432
   295.8432 295.9542 296.5606 296.5606 296.6389 296.9336 297.5603 297.5603
   298.5370 299.0775 299.0775 299.3017 299.5145 299.5145 299.6361 299.6361
   299.8236 300.0926 300.0926 300.2260 300.2756 300.2756 300.3471 300.4799
   300.4799 300.5227 300.5599 300.5599 302.9102 303.1800 303.1800 303.2019
   303.7561 303.7561 303.8266 304.5634 304.5634 304.5669 304.5894 304.5894
   304.6640 306.4052 306.4388 306.4388 306.7808 306.7808 306.9792 307.2163
   307.2163 307.2188 307.5420 307.5420 307.6470 308.8009 308.8009 310.0921
   310.0921 310.1126 310.6733 310.6733 310.7210 312.1727 312.1727 312.3467
   312.6920 312.7319 312.7319 312.7710 312.7710 312.8461 313.2099 313.2099
   313.4211 316.9514 316.9514 317.1583 317.6253 317.6253 317.7166 318.7003
   318.7003 318.8405 319.3409 319.3409 319.8196 320.3870 320.3870 320.4171
   320.8021 320.8021 320.8744 322.5555 322.5555 322.6568 322.7679 322.7899
   322.7899 324.7415 324.7415 324.7541 325.2192 325.2192 325.2312 325.5591
   325.5591 325.5595 325.7850 325.7850 325.8997 325.9546 325.9811 325.9811
   326.1708 326.1708 326.1711 327.1105 328.0009 328.0009 328.0305 328.8434
   328.8434 329.7046 329.7046 329.7410 330.8040 330.8040 330.8289 331.5973
   332.3209 332.3209 332.3546 332.3546 332.3810 332.8697 333.5223 333.5223
   333.6157 333.7229 333.7229 333.9385 334.7454 334.7454 334.8217 335.1092
   335.1092 335.2976 335.3597 335.3597 335.3661 336.4442 336.8076 336.8076
   338.0841 338.0841 338.0898 338.1050 338.9333 338.9333 339.1838 339.1838
   339.3807 339.5363 339.6754 339.7714 339.7714 339.8630 339.8630 342.3096
   342.3096 342.3158 343.9676 344.0210 344.0210 344.7828 344.7828 344.9869
   344.9869 345.0071 345.2789 345.2789 345.3385 345.3755 345.3868 345.3868
   345.5368 347.2312 347.2387 347.2387 347.5286 347.5357 347.5357 350.2807
   350.2807 350.3526 350.3559 350.3559 350.6382 350.8813 350.9172 350.9172
   350.9779 350.9779 350.9977 351.8525 351.8525 351.8897 352.2737 352.2737
   352.2923 352.5236 352.5236 352.6591 353.0501 353.1090 353.1090 353.4930
   353.4930 353.5655 354.1027 354.1027 354.1255 358.4825 358.4825 358.4916
   359.4961 359.7174 359.8223 359.8223 359.9142 359.9142 360.0100 360.0100
   360.0884 360.3103 360.3467 360.3467 360.6604 360.6604 360.9637 361.0658
   361.3727 361.3727 363.2221 363.2221 363.3336 363.5358 364.1258 364.1258
   364.1811 366.1199 366.1199 366.1888 366.6090 366.6090 367.4151 368.6175
   368.6175 368.8523 368.8523 368.8595 369.2779 369.2824 369.2824 369.3776
   369.4375 369.4375 369.4400 369.5640 369.5640 369.9712 369.9777 369.9777
   370.5146 370.5146 370.8061 370.8402 371.1543 371.5749 371.5749 371.8146
   371.8146 372.6509 372.7669 372.7669 372.9371 372.9371 373.2023 373.3295
   373.6394 373.6394 373.7091 374.3121 374.3444 374.3444 374.8092 374.8092
   374.8374 375.4226 375.4226 375.6962 377.4753 377.6884 377.6884 377.8961
   377.8961 377.9590 378.3737 378.4527 378.4527 379.0753 379.1029 379.1029
   379.2736 379.4605 379.4605 380.0656 380.0656 380.3489 380.7393 380.7393
   380.7471 382.7556 382.7721 382.7721 383.1391 383.1459 383.1459 383.4317
   383.5209 383.5209 383.8291 383.8330 383.8330 384.1262 384.1262 384.1464
   384.5400 384.5400 384.5487 385.3137 385.3137 385.3568 386.6573 386.6573
   386.7374 387.0299 387.5617 387.5617 387.5681 392.1045 392.1289 392.1289
   392.5086 392.5086 392.5146 393.8203 393.8203 394.6826 394.6826 394.6885
   394.7883 394.7883 394.7904 395.0112 395.0112 395.0345 395.1001 395.2136
   395.2136 395.2365 395.3217 395.3217 395.3354 395.4607 395.4607 395.4938
   396.9925 396.9925 397.0510 397.0973 397.2008 397.2008 397.5216 397.5216
   397.5576 397.7804 397.7804 398.4851 398.4851 398.5049 399.6318 399.6318
   399.6373 399.8129 399.8129 399.8144 400.2373 400.7751 400.7751 401.4889
   401.4889 401.4910 401.6493 401.6853 401.6853 403.1701 403.1701 403.1949
   403.9767 403.9767 404.1822 404.2189 404.2189 405.6057 406.2209 406.2209
   406.2378 406.5715 406.5715 406.5810 407.8190 407.8376 407.8376 408.1224
   408.1353 408.1353 409.1033 409.1033 409.1159 409.1681 409.1761 409.1761
   410.0525 410.0525 410.1858 410.3831 410.3831 410.4226 410.8090 410.8545
   410.8545 410.9225 410.9439 410.9439 411.0027 411.1410 411.1410 411.2920
   411.2920 411.3466 412.7146 412.7165 412.7165 412.7844 412.7856 412.7856
   414.5570 414.5570 414.7398 415.2286 415.3364 415.3364 417.7786 417.7989
   417.7989 418.3027 418.3027 418.3263 418.8544 419.5221 419.5221 420.2184
   420.2318 420.2318 420.2710 420.2958 420.2958 421.1905 422.8383 422.8383
   422.9196 423.1301 423.1722 423.1722 423.2371 423.2371 423.2803 424.7708
   424.7740 424.7740 425.1078 425.1478 425.1478 426.4590 426.4666 426.4666
   426.7158 426.7158 426.7811 427.5629 427.5629 427.7258 428.0971 428.1502

          k = 0.5000-0.5000 0.5000 (  3600 PWs)   bands (ev):

    -8.5276  -8.5276  -8.5091  -8.4817  -8.4817  -4.0655  -0.3529   6.9372
     6.9372   8.2695   8.6469  10.0418  10.0418  16.8129  18.4003  18.4825
    18.4825  20.0604  20.0604  24.2394  24.2394  25.7313  26.2190  26.9739
    26.9739  27.0918  30.2857  30.6570  31.5024  31.5024  31.6167  32.3007
    32.3007  33.5629  33.5629  34.3942  36.9023  36.9023  37.3823  37.7363
    40.8291  40.8291  42.0808  42.0808  42.7781  43.7656  43.7656  45.4493
    48.3750  48.9534  48.9534  49.1701  49.1701  49.3516  51.5746  51.5746
    51.6114  51.6114  52.6501  52.7372  54.1840  54.1840  54.5688  56.2543
    56.2543  57.0041  57.7955  57.8850  57.8850  58.0342  58.0342  60.3439
    62.2796  62.2796  62.4013  62.5276  62.5592  63.8153  63.8153  66.2278
    66.2278  67.2044  67.6970  67.6970  68.0681  69.7260  69.8083  70.3269
    70.3269  71.6869  71.6869  72.0233  73.5359  73.5359  74.8421  74.8421
    76.4943  78.9386  79.4636  79.4636  79.9461  80.7720  80.8439  80.8439
    81.4859  81.4859  81.5073  81.8657  82.1711  82.1711  83.3547  83.3547
    83.4765  83.4765  83.8764  84.6357  84.6675  86.2777  87.0025  87.0025
    89.1524  89.1524  89.1765  91.0580  91.6376  91.6376  91.9737  91.9737
    94.1082  94.1082  94.3721  94.3721  94.4149  95.9406  95.9406  96.1595
    96.2324  96.5931  96.5931  96.6349  98.0065  98.0065  98.1979  98.5613
   100.3251 100.3251 101.6274 101.6922 101.6922 102.5030 102.8830 102.8830
   104.3127 104.4752 104.4752 105.3014 105.3014 106.5283 106.9429 106.9429
   107.0120 107.0120 107.0932 108.7519 110.4660 111.5617 111.7649 111.7649
   112.6302 112.6317 112.6317 112.7500 112.7500 112.9297 112.9790 114.5915
   114.5915 114.7773 117.1233 117.1233 117.8733 119.1284 119.5856 119.5856
   120.3632 120.4950 120.4950 122.6190 122.6693 122.6693 123.2540 123.2540
   124.0599 124.0599 124.7480 125.3034 125.3034 125.4042 125.5954 126.2002
   126.2002 126.4421 126.4421 126.4571 126.6962 127.7676 127.9495 127.9495
   127.9954 127.9954 128.7103 131.6440 132.2923 132.2923 132.6096 133.2157
   133.2157 133.3748 134.5638 134.5638 134.5936 134.5936 135.6303 135.6303
   135.9445 136.0000 136.0000 136.0322 136.0964 137.1665 137.1665 137.9430
   137.9430 138.1242 139.4478 139.4478 139.9335 140.2509 140.2605 140.2605
   140.7671 141.6552 143.4984 143.4984 144.2669 144.2669 144.4295 145.6636
   145.6636 145.7921 147.1259 148.0518 148.0518 149.8404 150.2934 150.2934
   150.4005 150.4005 150.6963 150.8026 150.8601 150.8601 151.0287 151.2358
   151.4560 151.6505 151.6505 151.6800 151.6800 152.3112 152.3596 152.3596
   153.9085 153.9085 153.9525 153.9525 153.9825 156.8399 156.8399 157.8527
   157.8527 158.6787 160.3763 160.4380 164.1183 164.1188 164.1188 164.1406
   164.1406 165.1925 165.4658 165.4658 165.5523 165.5765 165.5765 165.6746
   165.7199 165.9129 165.9129 166.3557 166.3822 166.3822 167.4053 167.7575
   169.3102 169.3102 169.4411 170.2242 170.2242 170.3331 170.5134 171.4698
   171.4698 171.7170 172.2048 172.2048 172.3937 172.3937 172.4664 172.5145
   172.5145 173.0672 173.2351 173.2351 173.3559 173.3559 175.2660 175.4527
   176.1096 176.1096 176.1279 176.1279 177.3643 177.3646 180.5602 180.5602
   180.7509 180.7509 182.5337 182.7474 182.8459 182.8459 183.0653 183.0653
   184.2127 184.2500 184.2500 184.4241 184.4241 184.9416 184.9416 185.4217
   185.7353 186.4320 186.4320 186.9426 187.3441 187.3441 187.4291 187.4509
   187.4509 187.7154 188.3714 188.4322 188.4322 189.2996 189.3559 189.3559
   189.4273 191.6115 191.6115 191.7579 191.7579 191.9039 191.9648 191.9648
   191.9873 192.9569 193.7135 193.7135 196.5251 196.8414 196.8414 197.0893
   197.0893 197.1117 197.5655 197.5655 197.7584 197.7584 197.9288 198.4610
   202.4763 202.7798 202.7890 202.7890 202.9312 202.9312 204.1184 204.1184
   204.2155 204.3937 204.5852 204.5852 204.8187 204.8187 205.4346 205.6071
   205.7088 205.8961 205.8961 206.4180 206.4180 206.8522 206.9601 207.3167
   207.3167 207.6560 208.6914 208.6914 208.8030 209.5863 209.5863 209.7989
   210.0541 210.2076 210.2076 210.5216 211.3900 211.3900 212.3613 212.3613
   212.7714 212.7714 213.2657 213.9540 213.9540 214.1871 214.1871 214.4168
   217.2249 217.7024 217.7024 217.8581 217.8597 217.8597 219.7368 219.7846
   219.7846 220.2585 220.3566 220.3566 222.0434 222.0925 222.2357 222.2357
   222.2458 222.2458 223.3010 223.3812 223.3812 223.5285 223.5285 223.6103
   224.8884 224.8884 225.5098 225.6833 225.6833 225.6980 226.5542 226.5542
   226.7236 226.7236 227.1984 227.6617 230.4707 230.5456 230.9223 230.9223
   231.0282 231.0282 232.7244 232.7244 233.2096 234.3342 234.4180 234.4180
   234.8535 235.6882 235.6882 235.7661 235.8199 235.8199 235.8613 236.1053
   236.5880 236.5880 237.2080 237.2080 237.3600 237.6284 237.8335 237.8335
   237.8803 237.9886 237.9886 238.5554 238.8334 238.8334 239.2883 239.2883
   239.3065 239.3065 239.8003 239.9815 240.1201 241.0705 241.0705 241.1140
   242.5689 242.9102 243.2708 243.2708 243.4515 243.4515 243.7785 243.7785
   243.8098 243.8098 244.1081 244.1761 244.7514 245.0853 245.1805 245.1805
   245.1857 245.1857 245.5926 245.5926 245.6819 245.7331 245.7331 245.8830
   251.2656 251.3355 251.4109 251.4109 251.5663 251.5663 252.4588 252.4588
   252.7146 252.7146 252.8812 253.0458 253.1685 253.1685 253.2121 253.2700
   253.3623 253.3623 254.6927 254.6927 254.7402 254.7402 254.7564 254.8042
   258.8987 258.8987 259.0866 259.1034 259.1034 259.1232 259.1839 259.1839
   259.5845 259.6062 259.6825 259.6825 261.2281 261.6096 262.7929 262.7929
   262.8671 262.8671 264.2415 265.2014 265.2014 265.2112 265.2365 265.2365
   265.2522 265.5053 265.9552 265.9552 266.4147 266.4147 266.4741 266.4741
   266.7727 266.9411 267.0373 267.0373 269.5149 269.5149 269.7715 269.7715
   270.1980 270.1980 271.2444 271.2453 272.7224 272.7224 272.8182 272.8576
   272.8576 272.9989 273.1460 273.7225 273.8176 273.8176 273.9651 274.8062
   275.0279 275.0279 275.0435 275.1266 275.1266 276.1224 276.1224 277.0403
   277.0403 277.7311 278.4020 278.4020 278.4040 278.4040 278.5268 278.5327
   278.9926 279.3765 280.0593 280.0593 280.7187 280.8016 281.5132 281.5132
   285.1853 285.1853 285.1993 285.1993 287.4247 287.4247 287.4561 287.4561
   287.5806 288.2577 288.9007 289.0266 289.0266 289.0303 289.0303 289.0335
   289.3376 289.4018 289.8530 289.8530 290.1192 290.1192 290.6921 290.6921
   291.2506 291.2506 291.3530 291.3530 291.5173 291.5722 291.7673 291.9293
   291.9293 291.9939 292.0056 292.0410 292.0410 292.1025 292.1025 292.1300
   292.3803 292.3803 292.3946 292.4545 292.4545 292.4566 292.9394 293.0288
   293.0288 293.1115 293.1115 293.2719 295.9479 295.9479 296.2597 296.3635
   296.3635 296.3913 296.5377 296.8294 296.8294 297.0620 297.0620 297.1363
   300.6213 300.7296 300.7296 300.8036 300.8036 300.8150 302.1338 302.1338
   302.3614 302.5570 302.5570 302.6634 305.8027 305.8027 305.9675 305.9675
   305.9827 306.1093 306.2414 306.3239 306.3239 306.6003 306.6003 306.8031
   306.9581 306.9964 306.9964 307.1798 307.1798 307.2433 308.3354 308.3354
   308.4845 308.4845 308.5011 308.5069 308.5664 308.5664 308.5826 308.5993
   308.6468 308.6468 312.5163 312.6750 313.1368 313.1368 313.3951 313.4792
   313.4979 313.4979 314.4003 314.4003 314.5209 314.5209 315.5675 315.6251
   315.6251 315.6617 315.6617 315.7492 316.1864 316.1864 316.2775 316.2936
   316.2936 316.3019 317.3205 318.0826 320.2042 320.2315 320.2315 320.2751
   320.2751 320.4096 323.1788 323.1788 323.2348 323.2348 324.8440 324.8510
   324.8510 324.8582 324.8582 324.8744 324.9717 325.1582 325.2277 325.2277
   325.2443 325.2443 326.3618 326.3618 326.5953 326.8050 326.9058 326.9058
   328.0137 328.0200 328.0200 328.0552 328.0552 328.1839 328.4146 328.6682
   328.6682 328.7577 328.7577 328.9624 330.6570 330.6570 330.6664 330.6664
   330.6797 330.7194 331.6738 331.6738 332.1027 332.1077 332.1077 332.1681
   332.2116 332.2116 332.2587 332.3009 332.3009 332.7552 338.0308 338.0308
   338.1357 338.1357 338.1358 338.1558 338.1558 338.1782 338.1851 338.1851
   338.2054 338.2062 339.3528 339.3528 339.3887 339.4221 339.4262 339.4262
   341.4724 341.4767 341.4767 341.4870 341.4870 341.4945 342.7315 342.7315
   343.3334 343.3530 343.3530 343.5666 344.9297 345.0024 345.1819 345.1819
   345.2269 345.2269 345.8949 345.9340 346.0524 346.0524 346.0654 346.0654
   346.1621 346.1707 346.3061 346.3061 346.3449 346.3449 349.0199 349.0199
   349.0199 349.0199 349.0962 349.0962 351.8491 351.8839 352.9068 352.9068
   353.0964 353.0964 353.3905 353.3996 353.5123 353.5693 353.6510 353.6510
   353.7981 353.7981 353.9427 353.9427 353.9459 353.9459 354.6783 354.8784
   357.9647 357.9647 357.9889 358.0300 358.0300 358.0858 358.0858 358.1273
   358.1923 358.1923 358.5419 358.6793 358.8404 358.8489 359.0283 359.0283
   359.0735 359.0735 360.8815 360.9565 361.0958 361.0958 361.1342 361.1342
   361.2295 361.2295 361.4871 361.4871 361.5888 361.6104 362.0195 362.0195
   362.0469 362.0514 362.0514 362.0567 363.6477 363.6477 363.6518 363.6639
   363.6639 363.6846 364.3236 364.3236 364.3294 364.3294 364.3354 364.3543
   370.8660 370.8957 370.9241 370.9241 370.9471 370.9471 371.1095 371.1095
   371.1916 371.2263 371.2263 371.3784 371.3814 371.4522 371.4522 371.5136
   371.5461 371.5461 372.4348 372.4348 372.4607 372.6539 372.6539 372.8437
   375.5782 375.8019 375.8019 376.0682 376.0682 376.1927 376.8461 376.8895
   376.8895 376.9504 376.9574 376.9574 377.9610 377.9610 377.9658 377.9658
   377.9712 377.9771 378.3282 378.3520 378.3520 378.3910 378.4093 378.4093
   378.9211 379.0765 379.0765 379.1739 379.1953 379.4624 379.4624 379.7006
   382.0763 382.0763 382.0783 382.0783 383.4340 383.5250 383.5250 383.5725
   383.5926 383.5926 384.5639 384.5877 384.8075 384.8075 384.8314 384.8314
   386.4033 386.4033 386.4212 386.4384 386.4384 386.4914 386.9801 387.0106
   387.0106 387.0374 387.0374 387.0513 387.5943 387.5943 387.5956 387.5956
   387.7990 387.7990 387.8002 387.8013 387.8013 387.8022 389.2387 389.2388
   393.9726 394.0065 394.0065 394.0368 394.0368 394.0790 394.2088 394.3126
   394.3126 394.4751 394.4751 394.5365 397.6199 397.6199 397.6669 397.6725
   397.6725 397.7015 398.0204 398.0518 398.0518 398.1493 398.1493 398.2709
   398.5303 398.5530 398.5530 398.5916 398.5916 398.6284 398.8453 398.8453
   398.8849 398.9681 398.9681 398.9981 399.5373 399.6475 399.6475 399.8010
   399.8118 399.8118 401.6675 401.7214 401.7214 401.7882 401.7882 401.8441
   403.9154 403.9656 408.0376 408.0694 408.0694 408.1606 408.1606 408.1853
   408.1934 408.2882 408.2882 408.4557 408.4557 408.5964 408.8687 408.8687
   408.9174 408.9174 408.9475 409.0009 409.2428 409.2630 409.2630 409.3738
   409.3738 409.4540 409.4915 409.5637 409.5637 409.5906 409.5906 409.5999
   410.7643 410.7948 410.8119 410.8119 410.8299 410.8299 410.8320 410.8320
   410.8503 410.8503 410.8649 410.8685 410.9050 410.9050 410.9084 410.9084
   412.2970 412.2970 412.2981 412.2981 412.3083 412.3085 414.6716 414.6952
   414.6952 414.7288 414.7288 414.7506 418.2696 418.2696 418.2723 418.2723
   418.2760 418.3142 420.9849 420.9849 421.0197 421.0477 421.1239 421.1239
   424.0903 424.0903 424.1320 424.1320 424.1329 424.2135 424.9521 424.9693
   424.9693 424.9910 425.0067 425.0067 425.8203 425.8203 425.8431 425.8431
   425.8574 425.8830 425.8991 425.9203 425.9568 425.9568 425.9866 425.9866

          k = 0.0000 0.2500 0.0000 (  3623 PWs)   bands (ev):

    -8.5146  -8.5138  -8.5067  -8.5067  -8.5027  -4.9105   1.5283   6.3319
     6.3319   7.2742  10.9496  12.8028  12.8028  13.9683  15.8315  15.8315
    16.9693  17.4723  17.9362  19.6811  26.2949  26.6430  26.6430  27.3210
    28.9875  28.9875  30.9721  32.0785  32.0785  33.0119  34.2773  34.7549
    36.6861  36.6861  36.8636  37.0231  37.8232  37.8232  39.0964  40.0274
    40.0465  40.0465  40.8665  41.0861  42.7367  42.9386  43.1463  43.8729
    43.8729  45.4142  45.4142  46.3262  46.7257  47.5803  47.5803  47.8102
    47.8102  48.6791  50.3282  50.5371  50.5371  50.5821  52.9351  53.7427
    55.2714  57.0945  57.0945  57.1664  59.1783  59.1783  62.0648  63.0748
    63.9749  64.7856  64.7856  65.4732  66.3611  68.4926  68.6794  68.6794
    70.2882  70.6033  70.6033  71.0757  71.0757  71.5095  71.6726  72.2729
    72.6770  73.9113  74.1640  74.1640  75.1221  75.2819  76.2591  76.5270
    76.5270  77.1273  77.2194  77.8112  77.8112  78.7150  78.7150  79.7033
    79.9683  80.4655  80.4960  81.0387  81.0387  81.8071  82.5192  82.5192
    82.9151  83.4453  83.6395  83.6395  85.3631  86.9728  87.0656  87.7788
    87.7994  87.7994  88.2521  88.2819  88.2819  89.6047  89.8144  89.8144
    90.1961  90.2113  91.9653  91.9653  92.7944  92.8014  94.8563  94.8563
    96.1343  97.3114  97.3114  97.4252  97.8086  99.3563  99.5399  99.6428
    99.6428  99.9169 100.2135 100.2135 100.3917 100.4620 102.1607 102.5022
   102.5022 103.1882 103.2507 103.2507 103.7706 105.5312 106.2957 106.2957
   106.3373 107.4686 109.1192 109.1192 110.1585 110.3470 110.4378 110.6507
   110.6507 111.0462 112.6057 112.6057 112.7408 114.1950 115.6744 115.6744
   115.9289 116.4221 116.4221 116.8254 119.5334 120.3794 120.3794 121.0023
   121.7867 122.2181 123.3509 123.3509 124.1692 124.5305 125.2219 125.2219
   125.4747 126.0542 127.0161 127.7365 127.8284 127.8284 129.1230 129.1230
   129.5754 130.0521 130.7634 131.0185 131.4759 131.4759 131.4971 131.6008
   131.6381 132.6697 132.6697 132.9815 133.0326 133.0802 133.0802 133.7740
   133.7740 134.0038 134.4373 134.5322 134.5533 134.5533 134.6156 135.9406
   136.0596 136.0596 136.2305 137.4103 137.5464 137.5464 137.5729 139.0581
   139.1655 139.1655 139.4021 139.4021 139.7005 140.0698 140.8139 141.0433
   141.1834 141.1834 141.9976 141.9976 143.2875 143.4770 143.7401 144.6970
   144.6970 144.9886 145.2476 145.8327 145.8327 146.2204 146.3462 147.2339
   147.7411 147.8578 147.8578 147.9409 148.5221 148.6298 148.6298 148.8231
   148.9500 149.2981 149.2981 150.5939 150.8245 150.8245 151.8469 152.1469
   152.2064 152.2064 152.3235 152.5501 154.1356 154.1356 155.1029 157.6719
   157.8912 158.1967 158.3626 158.3626 158.5357 159.0352 159.0352 160.0037
   160.0226 160.0226 160.1790 160.4439 161.4316 161.4316 162.4299 162.5778
   162.6141 162.6141 164.0939 164.5953 165.4942 166.4455 166.4455 166.6320
   166.7783 166.7783 167.2479 168.0323 168.1076 168.1076 169.0619 169.0920
   170.7056 172.7540 173.2301 173.2301 173.6045 173.6045 174.2204 174.2452
   174.6190 174.6190 174.6320 174.7732 174.8815 175.4691 175.7521 175.7521
   175.9764 176.9083 176.9083 176.9291 177.2895 178.4436 178.4436 179.6512
   180.1149 180.1149 180.6491 181.4433 181.9755 182.1915 182.1915 183.0693
   183.0693 183.1246 183.9575 184.7552 184.7552 185.9476 187.2260 188.9071
   188.9071 190.0605 190.1548 190.3142 191.0208 191.3266 191.7062 191.7062
   191.8876 191.9039 191.9039 191.9831 192.4059 193.3517 193.3517 193.7743
   193.7743 193.7981 193.9230 195.8183 196.1014 196.5934 196.5934 196.9335
   197.2579 197.2579 197.5231 197.7848 200.1636 200.1636 200.5580 200.7803
   201.3379 201.3843 201.3843 201.5035 201.6220 201.6924 201.6924 202.0655
   202.3491 202.5352 202.5352 202.9533 203.5939 203.5939 203.9603 204.7796
   204.7943 204.7943 204.8287 206.2849 206.6222 207.2026 207.2026 207.4449
   207.9811 208.3234 208.3234 208.6711 209.0565 209.2177 209.2177 210.3894
   210.5786 210.5786 210.6838 210.7525 210.7588 210.7588 211.5259 211.5259
   211.5481 211.6635 211.6886 212.4880 212.6179 212.6179 212.9514 213.6213
   213.6909 213.6909 213.8662 214.9461 215.0248 215.0248 215.2283 216.4735
   216.4735 216.5395 216.5407 217.1305 217.1305 217.1841 217.9866 218.0615
   218.4224 218.7218 218.7218 218.9854 219.9796 219.9796 220.6711 221.1472
   221.3164 221.3164 221.5550 221.8001 221.8863 221.8863 222.0387 222.0387
   222.0427 222.4735 222.4735 223.2582 223.8213 223.9043 223.9043 223.9276
   224.1287 224.6925 224.6925 224.8566 225.0011 225.1664 225.1664 225.9343
   226.1945 226.6523 226.6523 226.7827 227.3930 227.8060 227.8060 228.0106
   228.4255 228.4255 228.6401 228.6872 228.9838 228.9838 228.9882 229.4016
   230.1230 231.4899 231.4899 231.8596 232.2464 232.2464 232.5929 233.2704
   233.3694 233.8624 233.8624 234.1757 234.3770 234.4353 234.4353 234.5410
   235.1060 235.8782 236.5904 236.5904 238.5268 239.1093 239.1093 239.2421
   239.3042 239.3042 239.4981 239.6470 239.8272 239.9469 240.1128 240.1128
   241.4000 241.4000 241.4944 241.7464 243.9911 244.0219 244.0219 245.3685
   246.4879 247.0055 247.3250 247.3250 247.5533 247.5533 248.4120 248.7674
   248.7674 248.8624 249.4694 251.7489 253.9164 254.1899 254.2346 254.2346
   254.4896 254.5698 254.5698 254.6389 254.8452 256.2205 256.5496 256.6484
   256.6484 256.9281 257.8317 257.8317 258.6151 259.0161 259.4035 259.4035
   259.5099 260.4432 261.0742 261.0742 261.5989 261.8067 261.9696 261.9696
   262.0425 263.7239 263.7239 263.8037 264.1293 264.7199 265.3617 265.5889
   265.5889 265.6937 266.1904 266.1904 266.3799 266.6615 266.8052 266.8052
   266.9622 267.6419 267.6419 267.6611 268.6091 268.6431 268.7186 268.7186
   268.8888 270.4388 270.5430 270.5430 271.5093 273.4228 273.4228 273.4596
   274.1213 274.2820 274.2820 274.3536 274.3670 275.0892 275.0892 275.2277
   275.3188 276.7641 276.8389 276.8389 277.2616 277.3260 277.3536 277.3536
   277.5419 277.6920 277.6920 277.7541 277.7552 278.0207 278.3143 278.3143
   279.0149 279.1632 279.2479 279.3885 279.3885 280.4591 280.4591 281.2978
   281.6492 282.0803 282.3649 282.3649 282.6187 282.8849 283.0868 283.2180
   283.2180 284.3587 284.3846 284.3846 284.4306 284.6757 284.7723 284.7723
   284.8943 284.9122 285.0306 285.0306 285.2615 285.3219 285.3611 285.3611
   285.5166 286.6165 286.6577 286.6577 286.6680 287.6524 287.7920 287.7920
   287.7988 288.2652 289.5425 289.7522 289.7682 289.7682 292.7802 292.8918
   292.9091 292.9091 293.4997 293.4997 294.1158 294.1158 294.1679 294.4682
   294.4797 294.9412 295.0316 295.0780 295.0780 295.2791 296.0606 297.1599
   297.1599 297.6529 297.8333 297.8575 297.8575 297.8708 299.4788 299.7180
   299.7180 299.8701 300.8652 300.8652 300.8757 300.8935 301.0607 301.3570
   301.3570 301.7685 302.5424 302.5791 302.6164 302.6164 305.1026 305.1026
   305.3373 305.5412 305.6404 305.6404 305.7159 305.8169 306.1816 306.1816
   306.3424 306.8336 307.0075 307.0075 307.7648 307.8239 307.8239 307.8764
   308.8422 308.8422 308.8435 308.8490 309.0044 309.0424 309.0424 309.0950
   310.0424 310.1455 310.2359 310.2359 310.2848 310.4251 310.4252 310.7151
   310.7151 310.7721 310.9238 310.9618 310.9618 311.1032 311.1032 311.6662
   312.5104 312.7806 312.9330 313.0025 313.0025 313.9293 314.3260 314.3260
   314.4898 314.7448 314.8607 314.8607 315.0411 317.2224 317.2926 317.2977
   317.2977 317.3825 317.4675 317.4675 317.5374 319.0246 319.1212 319.1543
   319.1543 319.8818 320.1141 320.1141 320.1937 320.5762 320.6195 320.6480
   320.6480 321.6002 323.0203 323.1912 323.1912 323.2054 324.0527 324.0527
   324.1513 324.1893 324.8186 324.8186 324.9406 325.1972 325.1972 325.2365
   325.4420 325.4495 325.4495 325.4692 325.7523 325.8923 326.0385 326.0385
   326.3068 327.8405 327.8405 327.8416 327.8675 327.9475 329.2754 329.5536
   329.5878 329.5878 329.9563 330.6031 330.8463 330.8463 330.9696 331.3532
   331.5594 331.5594 331.5744 331.7182 331.7927 331.7928 331.7928 331.8876
   331.8876 332.4973 332.6250 332.6250 332.9046 333.3983 333.5299 333.5299
   333.5904 334.4142 334.4611 334.4611 334.5011 334.8133 336.4403 336.4951
   336.4951 336.5408 336.5772 336.5789 336.5860 336.5860 336.8285 336.8285
   336.8955 336.9523 337.3853 337.3933 337.3933 337.4508 339.5377 340.1330
   340.1330 340.1463 340.1487 340.8483 340.8483 341.4358 341.9230 341.9230
   342.6945 342.6945 342.8080 343.0991 343.2862 343.3102 343.3102 343.3667
   345.5768 346.0647 346.0647 346.3875 347.9376 348.3894 348.3911 348.3911
   348.5531 348.6661 348.8015 348.8520 348.8520 349.6927 349.7699 349.7733
   349.7733 353.7825 353.7957 353.7957 353.8032 354.9975 355.0418 355.0418
   355.1160 355.1854 355.2754 355.2754 355.3921 357.0981 357.1161 357.1161
   357.1245 357.5021 358.0721 358.0721 358.6331 359.2709 359.2878 359.2878
   359.2981 360.4174 360.4265 360.4265 360.4376 361.4883 363.0919 363.0919
   363.1267 363.3299 364.7891 365.4206 365.5307 365.5327 365.5329 365.5329
   366.0029 366.0029 366.6982 366.7948 367.0022 367.0022 367.1694 367.1725
   367.1725 368.3361 368.5437 368.5437 369.0733 370.1257 370.6392 370.6503
   370.6503 370.8377 371.2223 371.3354 371.3354 371.6580 374.8852 375.5936
   375.5936 375.6014 375.6274 376.4314 376.6093 376.6093 376.7874 377.0329
   377.3007 377.3007 377.3282 377.3282 377.4992 377.7133 377.7133 377.7149
   377.8269 378.2136 378.4420 378.4420 378.5577 378.7061 379.8958 380.0666
   380.0666 380.2176 381.2591 381.2835 381.2835 381.3394 381.6298 381.7740
   381.7740 381.8512 382.1369 382.2827 382.2827 382.4501 382.7637 382.8193
   382.8193 382.8541 383.2252 383.5821 383.5821 385.3168 385.3420 385.3420
   385.4087 388.0237 388.4412 388.4412 389.3400 389.4429 389.4972 389.6500
   389.6500 389.8063 390.3076 390.5512 390.5512 390.5700 390.5705 390.6587
   390.6931 390.6931 390.9123 390.9927 391.0818 391.0818 391.2126 391.3997
   391.3997 391.5565 391.8191 392.0448 392.0448 392.4717 393.1553 393.2564
   393.2564 393.4081 393.8139 393.8139 393.8183 393.8542 395.3575 395.3575
   395.4110 395.4173 395.4587 395.4587 395.4916 395.5934 396.0746 396.0823
   396.0897 396.0897 398.4476 398.4957 398.4957 398.5180 398.8739 398.8754
   398.8754 398.9004 399.8294 400.0189 400.0189 400.0305 400.0469 400.7379
   400.8499 400.8499 401.2115 401.3020 401.3020 401.3314 401.4763 401.9299
   402.8891 402.8951 402.8951 402.9534 402.9699 403.0386 403.0386 403.0579
   403.0579 403.2055 403.2626 403.5226 403.8149 403.8149 404.1845 404.2264
   404.2264 404.2501 404.2918 404.3342 404.3342 404.5356 404.6869 404.7247
   404.7247 404.9829 405.0354 405.0574 405.0835 405.0946 405.0946 405.1865
   405.2711 405.2711 405.2749 405.3839 405.3905 405.4188 405.4188 405.4872
   405.7777 405.7777 406.0287 408.6098 408.6233 408.6233 408.6364 409.2389
   409.2404 409.2439 409.2439 410.2432 410.2668 410.2668 410.2798 411.5129
   411.5188 411.5188 411.6348 411.9889 412.0128 412.0128 412.0506 412.3945
   412.4065 412.4065 412.4144 413.1404 413.1404 413.1672 413.1728 414.0409
   414.0704 414.0704 414.1168 417.0330 417.1003 417.1003 417.1675 418.4885
   418.4950 418.4950 418.5167 419.0095 419.0095 419.0176 419.0225 419.7637
   419.7662 419.7662 419.7698 421.7795 421.8125 421.8125 421.8296 422.1162
   422.2211 422.2211 422.4924 422.4931 422.5106 422.5106 422.8450 422.8844
   422.9251 422.9330 422.9330 423.0175 423.0175 423.0266 423.7403 423.9573

          k =-0.1250 0.3750-0.1250 (  3613 PWs)   bands (ev):

    -8.5250  -8.5144  -8.5082  -8.5002  -8.4943  -4.6658   0.9984   6.2140
     6.2728   7.5401  10.0692  12.1058  12.3101  13.9643  16.3502  16.7173
    18.2267  18.5687  19.7957  21.6549  24.0202  24.2286  26.2159  27.4311
    27.8291  29.2027  31.2877  31.6322  31.6839  32.5394  34.8414  35.0781
    35.5410  36.1636  36.2370  36.3207  37.0568  38.1352  38.3118  38.7050
    39.3161  40.3972  40.4077  41.3968  41.4621  42.6895  43.9817  44.1303
    44.3132  45.5865  46.3307  46.7634  47.3098  47.8876  48.5840  48.9418
    49.6171  50.2726  51.6418  51.6606  52.4566  52.5240  54.3277  56.3445
    56.3879  56.7213  57.4390  58.0973  59.6855  59.8676  60.7280  61.0601
    61.5460  62.5146  64.1680  64.8790  65.3170  65.6832  65.7116  67.2686
    67.9672  68.1674  68.8870  69.7628  70.9812  71.1618  71.5034  72.2752
    72.6103  72.7529  73.0039  73.1500  74.5767  75.4422  75.6415  75.9398
    77.1170  77.1573  77.7256  77.8215  78.3987  78.9842  80.1747  80.2088
    80.6558  81.3262  81.8135  82.3022  82.7300  83.1572  83.4281  83.7332
    84.2504  84.6257  84.8753  85.2132  85.3593  85.7079  85.9756  86.4880
    87.1972  87.8226  88.8819  88.9789  89.3084  89.8035  90.5196  90.5354
    90.9477  91.1878  91.9075  92.1853  92.6834  93.4119  93.8325  94.9370
    95.1369  95.3579  96.7374  97.1289  97.1625  97.6229  97.6794  99.1502
    99.2914  99.9426 100.2902 100.8029 101.6480 102.7698 102.8190 103.5619
   103.6866 104.0727 104.6799 105.5103 105.7861 106.1163 106.6798 106.7721
   106.9120 108.4042 108.8124 109.2157 109.4361 110.0604 110.7045 111.2584
   111.5370 112.4506 113.1021 114.4037 114.7108 115.2623 115.6915 116.5144
   116.6423 117.6057 117.7243 118.5237 118.8357 119.3578 119.5955 119.6453
   120.3887 121.1693 121.1905 121.5130 122.2219 122.6566 122.9996 123.8590
   124.1136 124.4347 125.3786 125.6150 126.0304 126.1547 126.4248 126.5325
   126.6370 127.1616 127.5366 128.0384 128.5420 128.9233 129.8316 130.3722
   130.5395 130.8307 131.2779 131.8109 131.8740 132.8107 132.8568 133.2329
   133.3462 133.4360 133.9715 134.2502 134.2505 135.0653 135.3947 135.5565
   136.0260 136.2418 136.3617 137.4007 137.5940 138.1362 138.5567 139.4999
   140.0595 140.1176 140.3303 140.5065 140.8619 141.4738 142.2196 142.3034
   142.5786 143.1723 143.3033 143.5605 143.8264 144.1077 144.3668 144.5238
   144.8579 145.7844 146.0744 147.2705 147.8702 148.1108 148.1439 148.5059
   148.8203 148.8814 149.1289 149.4861 149.4992 149.9149 150.1384 150.1968
   151.1688 151.2380 152.1844 152.4603 152.8235 152.9629 153.3131 153.3178
   153.5350 153.8376 154.0857 154.6335 154.7845 155.0007 155.2112 156.0159
   156.2572 156.4619 156.5891 156.8520 157.4429 157.8262 157.8546 158.2329
   158.5557 159.0475 159.7616 160.1101 160.6444 161.1077 161.7705 161.8551
   162.6651 164.8080 165.2661 165.5023 165.5707 166.4201 166.4503 166.6399
   167.5159 167.8713 168.2915 168.9256 169.1510 169.3330 169.8463 170.1942
   170.9321 170.9942 171.3419 171.7197 172.1247 172.8412 173.3277 173.3645
   173.8471 173.8623 174.8854 175.1356 175.7857 175.9530 176.3402 176.8505
   177.6854 178.0017 178.1518 179.5301 179.8108 180.0255 180.6045 181.0589
   181.2553 181.4007 182.1359 182.1912 182.3366 182.5363 182.6098 183.4528
   183.5033 183.6979 183.8576 184.3416 184.5696 184.7559 184.8214 186.4379
   186.9956 187.9232 188.0724 188.6935 188.7483 188.9725 189.2759 190.4029
   190.5726 190.6868 191.1438 191.6088 191.8055 192.2118 192.2150 192.3941
   192.8461 192.9860 193.6110 194.3544 194.3663 195.6549 196.0583 196.3096
   197.0736 197.2410 197.7216 197.9435 198.6773 198.9011 198.9354 198.9598
   199.3582 199.8645 200.4714 200.5053 201.1777 201.4735 201.5619 202.1225
   202.2497 202.4176 202.7841 202.7860 202.8837 203.1474 203.4132 203.4931
   203.7796 204.0803 204.2589 204.3845 204.5307 205.1136 205.2832 205.7490
   206.0797 206.1668 207.0033 207.7504 208.0206 209.1945 209.2218 209.3682
   209.3787 210.0652 210.2937 210.5322 210.6851 211.1815 211.3049 211.3148
   211.4416 211.5249 211.7625 211.7842 212.0049 212.1871 212.8647 213.0059
   213.1420 213.2187 213.4097 213.7675 214.2016 214.2760 214.4583 214.7171
   215.2256 215.6490 216.0878 216.1135 216.3584 216.7005 217.1722 217.4080
   217.4329 217.5916 218.4693 218.7693 218.9233 219.3948 219.5259 220.1519
   220.4384 221.3039 221.3090 221.5653 221.6535 221.8163 221.8631 222.0134
   222.1208 222.4674 222.8491 222.8562 223.4503 223.6110 224.6769 225.0193
   225.4414 225.4496 225.6305 226.2946 226.4123 226.9311 227.0888 227.2253
   227.4215 227.6027 228.7141 229.6554 229.7363 230.3725 230.4941 230.5769
[...]
   229.2825 229.3007 229.3119 230.7637 231.5072 231.5507 231.6269 232.7266
   234.3842 234.6719 234.8153 234.9485 235.0905 235.3161 235.4078 235.5689
   235.6191 236.6222 236.8833 237.1443 237.5838 238.2733 238.3721 239.1172
   239.5956 239.9436 240.7232 240.8796 240.9221 241.2604 241.5713 241.9372
   243.2953 243.4054 243.4896 243.8431 243.9477 243.9638 244.3330 244.4000
   244.5306 245.0144 245.3017 245.6057 245.6281 246.0324 246.0946 246.2298
   246.4574 246.5461 246.7914 247.3327 247.3812 247.9210 247.9369 248.4153
   248.7991 249.0462 249.3529 249.4101 249.4466 249.4730 249.7532 249.9795
   250.6738 250.7078 250.9247 251.1210 251.4784 251.8008 251.9705 252.2299
   253.6752 253.9930 254.2074 254.2870 255.1203 255.1913 255.3561 255.5818
   256.2494 256.2610 256.2868 256.3172 256.4449 256.7316 256.7328 257.3108
   257.3803 257.3893 257.6810 258.7420 258.9227 259.6356 259.7254 259.7416
   259.7744 260.4254 260.4452 261.1291 261.1785 261.2046 261.3652 261.8570
   262.0910 262.1643 262.2376 263.5364 263.5617 264.0409 264.0447 264.3022
   264.3621 264.3693 264.8000 265.5328 265.5675 265.9204 266.0271 266.1696
   266.2553 266.3522 266.3865 266.4235 266.5119 266.7539 266.8201 267.3169
   267.3293 267.4216 267.4998 267.6894 267.8192 268.6455 268.6895 269.7427
   270.6180 271.1893 271.8780 271.9967 272.1519 272.1953 274.2058 274.2300
   274.4570 274.5420 274.6595 274.7815 275.8403 275.8898 276.2223 276.2281
   276.2968 276.6491 277.0679 277.0797 277.1768 277.3025 277.4138 277.4192
   277.8791 277.9728 278.0981 278.5963 278.6075 280.8353 281.2156 281.2244
   281.2401 281.3267 281.9588 282.1019 282.6908 282.7148 282.8388 282.9077
   283.0547 283.1596 283.2031 283.2319 283.2587 283.3184 283.3538 283.5030
   283.6760 284.1867 286.3770 286.5517 286.7693 286.8780 287.0063 287.0270
   287.1813 287.2964 287.8864 288.1914 288.6616 288.6675 289.3740 289.8546
   289.8648 290.8505 291.3523 292.2753 292.3171 292.4148 292.4346 292.4475
   292.5162 293.2863 293.4914 293.5648 293.5679 293.8424 293.9046 294.8968
   295.0145 295.2407 295.2515 295.2914 295.5775 295.5892 295.8174 296.9615
   296.9862 297.2516 297.2539 297.3920 297.7849 298.6480 298.6514 299.5123
   299.7315 300.2593 300.5831 301.7883 302.0169 302.2637 302.3656 302.4731
   302.5549 303.0124 303.1799 303.2288 303.3757 303.4549 303.5662 304.5684
   304.7343 305.1295 305.1458 305.1912 305.2076 305.6467 306.2333 306.2631
   306.2925 306.3202 307.1469 307.6072 307.6504 307.7639 307.7749 308.3209
   310.2568 311.4785 311.9373 311.9532 312.0016 312.0521 312.1862 312.1894
   313.0001 313.3108 313.3142 313.6731 313.7454 313.9046 314.4472 314.5370
   314.7869 315.4685 315.7988 316.1356 316.1748 316.9810 317.6934 317.9986
   318.6684 318.6769 318.8807 318.9185 319.6511 319.6896 321.2295 321.5366
   321.8984 321.9032 321.9547 322.1804 322.6258 322.6994 323.2786 323.4495
   323.6246 323.7529 324.1451 324.9228 325.0420 325.0841 325.3536 325.4881
   325.6795 325.7679 325.7839 325.9067 325.9987 326.1520 326.1954 326.3689
   326.7204 326.7342 326.9900 328.1865 328.6610 328.6945 328.7062 328.7330
   328.8072 328.9382 328.9982 329.3447 329.5765 330.0117 330.1198 330.3959
   330.4332 330.4732 330.5659 330.6502 330.8050 331.2676 331.8896 331.9214
   331.9801 332.7275 332.7813 335.1666 335.1795 335.2172 335.2502 335.6302
   335.6599 335.6967 335.7654 336.3494 336.3517 336.4390 336.5459 337.5212
   337.6395 337.6949 337.7038 338.5067 338.5165 338.8064 338.9207 339.4800
   339.5698 339.5708 339.5898 339.9141 339.9585 339.9739 339.9757 340.0038
   341.9543 341.9670 342.0159 342.0502 343.1144 343.2005 343.2097 343.4049
   343.4474 343.5141 343.6205 343.6253 344.1909 344.2030 344.2162 344.2517
   344.2758 344.3542 344.8992 344.9094 345.3439 345.3541 345.4780 345.5462
   345.5542 345.5650 346.0939 346.2321 346.3034 346.4287 347.3830 347.6056
   347.7555 347.9713 348.2425 349.6080 349.6890 350.0767 350.1349 350.3507
   351.2546 351.3370 351.5538 351.5769 352.0415 352.0458 352.3868 352.4012
   352.9394 352.9620 353.2128 353.2584 353.3813 353.3967 353.3968 353.4290
   354.8395 354.8447 355.6139 355.6198 355.6438 355.6597 356.2180 356.2377
   356.3362 356.3661 356.5739 356.9481 358.6789 358.7060 358.8792 358.9360
   359.3100 359.4614 359.4666 359.6498 359.6927 359.8961 359.9032 360.0456
   360.1388 360.2257 361.1779 361.2275 361.2279 361.2349 361.6295 361.6332
   361.7036 361.7486 361.8331 361.8354 362.5927 362.9593 363.0810 363.3545
   363.4327 363.6048 363.8048 365.0024 365.0096 365.5317 365.5437 365.6218
   365.6452 365.6803 365.7008 366.2323 366.2758 367.2441 367.6448 367.6519
   367.6857 367.6897 367.7273 367.7675 367.7917 369.0940 369.1521 371.3222
   371.4958 371.8076 371.8583 372.2423 372.2666 372.3914 372.3983 372.5150
   372.5271 373.2732 373.2795 373.5442 373.5477 375.3707 375.3831 375.8784
   375.8860 377.1296 377.1407 377.2404 377.4900 377.4957 378.1468 378.1532
   378.1659 378.1730 378.8166 378.9004 379.0216 379.0361 379.4332 379.5342
   380.7427 380.7507 380.8535 380.8752 381.3392 381.4104 381.4320 381.4900
   381.7625 381.7864 382.1782 382.1846 382.5812 382.6027 384.1936 384.3451
   384.3506 384.4611 384.5107 384.6916 384.8705 385.1821 385.5551 385.5892
   385.7542 386.4269 386.4354 386.8011 386.8444 386.8990 387.0374 387.1076
   387.1696 387.3031 387.3109 387.3406 387.3444 387.3862 387.3930 387.4110
   387.5863 387.6145 387.8424 387.8692 389.1274 389.1629 389.4756 389.5478
   391.6723 391.6809 392.3452 392.3484 392.4323 392.4361 392.9179 393.3677
   393.4057 393.4743 393.7024 393.7036 393.7421 393.7443 394.8404 394.8545
   394.9521 394.9672 395.0854 395.4510 396.6615 396.7665 396.7913 396.7978
   396.8126 396.9690 397.0489 397.0603 397.6254 397.6379 398.5591 398.6051
   398.8346 398.8356 399.1973 399.2206 399.7499 399.7537 401.6554 401.6648
   401.9898 402.0380 402.0433 402.0778 402.2041 402.4308 402.4480 403.2924
   403.2945 403.5801 403.6057 404.1306 404.1310 404.3081 404.4528 404.5128
   404.7376 405.5748 405.5762 406.4763 406.5741 407.1669 407.1860 407.2074
   407.2179 407.6678 407.6698 408.2149 408.2224 409.3733 409.3869 409.5308
   409.5373 409.6009 409.6047 409.6055 409.6122 410.5881 410.5962 411.8052
   411.8262 412.5417 412.6113 413.1414 413.1608 413.4272 413.5111 413.9810
   414.0635 414.1114 414.2105 414.4209 414.4506 415.4087 415.4422 415.4462
   415.4622 416.5350 416.5694 416.5812 417.4264 417.4357 417.4401 417.4512
   418.3142 418.3160 419.9282 419.9591 419.9899 420.0020 420.2276 420.2912
   420.3039 420.4914 420.4948 420.8427 420.8504 421.0132 421.5886 421.5962
   421.8349 422.1943 422.2048 422.2549 422.8202 422.9630 423.1806 423.2222
   423.3076 423.9092 423.9153 424.2868 424.3427 424.4342 424.4353 424.7549
   425.2172 425.3492 425.8119 426.3203 426.3400 426.7891 428.4987 428.4995

          k =-0.5000-1.0000 0.0000 (  3636 PWs)   bands (ev):

    -8.5824  -8.5051  -8.5011  -8.5011  -8.4726  -3.7086   0.3742   4.2803
     4.2803   7.5553  10.1950  13.2193  13.2193  15.9644  15.9644  19.9817
    20.8356  20.9965  21.8292  21.8292  24.0109  24.6383  25.6100  26.3162
    26.3162  28.1112  28.2608  29.1047  29.5124  29.5124  31.0792  31.0792
    31.4233  33.4638  33.4638  35.9672  38.3305  39.3324  39.3324  40.3466
    40.6976  41.7962  42.5013  42.5013  42.8011  44.0458  45.7120  45.7793
    45.7793  47.3885  47.3885  48.2939  49.3450  49.3450  49.6619  50.9109
    51.8562  51.8562  52.8246  53.0557  53.8778  54.8202  56.0827  56.0827
    56.4297  57.5180  57.5180  58.2194  59.8911  59.8911  60.4537  60.9021
    62.1975  62.1975  62.4459  63.6214  63.6214  63.8549  63.9317  66.0094
    67.4970  67.6494  68.3387  68.5080  68.5080  68.5973  69.4464  69.4464
    70.2772  70.7022  72.0582  72.1764  72.2777  72.2777  74.1083  74.1083
    75.3901  75.6345  76.0266  76.2415  76.2415  76.9212  76.9212  77.2281
    79.3616  80.1551  80.3640  80.3640  80.4217  82.2216  82.2216  83.8964
    83.8964  83.9351  85.2180  86.4114  86.9474  87.2841  87.2841  90.0923
    90.0923  90.5567  92.2078  93.0785  93.2753  93.2753  93.3718  93.3874
    94.8438  94.8438  95.0406  95.6194  95.9729  96.9324  96.9324  97.4419
    97.7955  97.7955  97.9185  99.1929  99.8704  99.9879 100.0156 101.4188
   101.4188 101.6171 101.8465 102.5161 102.5161 103.1054 103.4968 103.6756
   103.8323 103.8323 105.4933 105.4933 106.3277 106.6937 106.6937 106.8239
   107.1534 108.3435 108.4876 108.4876 109.7848 109.9153 110.1570 110.1570
   111.3217 111.7479 111.7479 112.2649 113.0433 113.2505 115.4158 116.1228
   116.1228 116.2507 116.2705 116.3617 116.3617 116.6791 117.5272 118.4078
   118.4078 118.9102 119.5335 119.5335 120.0155 120.3523 120.4708 120.9116
   120.9116 121.3920 121.3920 121.6472 121.7399 122.3365 123.6814 123.6814
   124.0769 124.0769 125.9388 126.3308 126.3308 126.6781 126.8142 127.4510
   128.9869 128.9869 130.1827 130.3166 131.0382 131.0382 132.4398 132.4398
   132.5628 132.9538 132.9787 134.6821 135.0773 135.9731 136.1368 136.1368
   136.6848 136.9936 137.4780 137.4780 137.5703 138.1592 138.5583 138.6157
   138.6157 140.0107 140.1068 140.1068 141.1517 141.1759 141.2697 142.2114
   142.2114 143.1188 143.1188 143.4382 144.4074 145.0185 145.0185 145.7306
   146.5811 146.9227 146.9538 146.9538 147.0259 147.2677 147.4140 148.1249
   148.1249 149.2811 149.2811 149.8834 149.9745 151.8028 152.3025 152.3918
   152.3918 153.4811 154.7436 155.1988 155.1988 155.7543 156.1517 156.1517
   156.1580 157.0297 157.2315 157.2315 157.9888 158.4420 158.6260 159.3499
   159.3499 159.4856 160.0530 161.6926 161.8029 161.8029 164.9208 164.9208
   165.6605 166.1801 166.3301 166.3301 166.5535 166.5535 166.7334 167.1407
   167.2722 167.4801 167.5629 167.5629 167.9130 168.2808 168.3850 168.3850
   168.6370 168.8997 168.9483 168.9483 169.2435 170.2717 170.2717 170.5235
   171.2707 171.4824 171.4824 172.4737 172.8693 172.9617 172.9967 172.9967
   173.0879 173.0879 173.7626 173.8479 174.0776 174.1145 174.5134 174.5134
   174.8032 175.0712 175.0712 175.1967 177.2468 177.2468 177.4784 178.5260
   179.6678 179.7257 179.7257 181.7683 182.0094 182.0094 182.0440 182.2388
   182.2599 182.9802 182.9837 182.9837 183.2386 183.3362 183.5328 183.5328
   183.5626 183.6855 184.2252 184.2252 186.1950 186.1950 186.3568 186.3852
   186.5678 186.5678 186.6829 186.8721 187.2867 187.3504 187.6028 187.6028
   190.7559 190.7808 190.7808 190.9119 191.0505 191.1756 191.1756 191.6039
   194.7249 194.7361 194.8521 194.8521 195.9034 196.4207 196.7639 196.7639
   196.8009 196.9403 196.9837 196.9837 197.6042 198.2148 198.2888 198.2888
   198.4970 198.7129 198.7129 198.7417 199.5495 201.1770 201.1770 201.9167
   202.8097 202.8097 203.2561 203.3507 204.1195 204.2170 204.4182 204.4692
   204.4692 204.9304 205.3995 205.3995 206.5152 206.7941 209.4115 209.4115
   210.6582 210.6827 211.0714 211.0714 212.1848 212.4576 212.7777 212.7777
   213.3524 213.3524 213.5441 213.5477 213.6212 213.8998 214.0957 214.0957
   214.1671 214.5978 214.6686 214.6801 214.6801 215.2660 215.4040 215.4040
   215.4776 215.6480 215.6666 215.7331 215.7331 216.0549 216.4748 216.7234
   216.7234 216.8417 221.4771 221.8936 221.8936 221.9436 222.1991 222.3390
   222.4724 222.4724 224.0432 224.0432 225.3158 225.4562 225.4831 225.6454
   225.6454 225.9195 225.9195 226.0417 228.3449 228.3568 228.3568 228.4503
   228.8394 229.4970 229.4970 229.7130 229.7745 229.8556 229.8859 229.8859
   230.2608 230.2608 230.7123 230.8069 231.6383 231.6383 231.7340 231.9445
   231.9445 232.0958 232.2621 233.4896 233.8813 233.9134 233.9134 234.1705
   234.4868 235.1105 235.1105 235.2813 235.5561 235.5561 235.8656 235.9781
   236.7094 236.7094 236.7171 236.7845 236.8349 236.8349 236.9955 237.1757
   237.6472 240.1083 240.1083 240.3560 241.4603 241.4603 241.7320 241.7636
   246.3146 246.3474 246.3474 246.3662 246.5532 246.9092 246.9792 246.9792
   249.7874 249.8811 249.8811 250.0606 250.0982 250.5864 250.9671 251.0403
   251.0792 251.0792 251.4997 251.4997 251.8182 251.8182 251.9100 252.1563
   252.1771 252.2933 252.2933 252.7753 252.8759 253.0149 253.0456 253.0456
   253.7976 253.8925 253.8925 254.0369 254.5197 254.6318 254.6318 254.7230
   255.6819 255.7900 255.7900 256.0381 257.3934 257.3934 257.8841 258.6433
   258.6909 258.7036 258.7036 258.8950 261.1853 261.2559 261.2559 261.3963
   261.4823 261.6767 261.6818 261.7186 261.7186 261.9853 261.9853 262.0196
   262.1670 262.1728 262.1728 262.3387 263.0750 263.3886 263.4413 263.4413
   263.4502 263.4502 263.4612 263.4645 264.9787 265.0203 265.0247 265.0247
   265.9290 265.9303 265.9303 265.9560 267.1464 267.4005 267.4295 267.4295
   268.5433 268.5433 268.5750 268.7482 269.0318 269.0566 269.7744 269.7744
   271.2534 271.5090 271.9022 271.9022 272.5012 273.8325 274.5118 274.5626
   274.5684 274.5684 275.1631 275.1631 275.2993 275.4335 276.4896 276.7617
   276.7617 277.0100 277.4252 277.4517 277.4517 277.4783 277.6659 277.6999
   277.6999 277.7002 278.1330 278.1330 278.5160 278.5374 279.4067 279.8745
   279.8745 279.9638 280.3430 280.3430 280.4200 281.2686 282.0199 282.4018
   282.4018 282.4235 283.2400 283.4483 283.5369 283.5369 284.7634 284.7794
   284.8143 284.8143 285.0625 285.0625 285.1355 285.1450 286.0663 286.1455
   286.1670 286.1670 286.8311 286.8696 286.8696 286.9306 287.6298 287.6298
   288.9140 288.9140 289.0067 289.0090 292.0390 292.0390 292.0474 292.3001
   293.4114 293.4114 293.4130 293.4194 293.9743 293.9973 294.0057 294.0057
   294.1405 294.1405 294.4693 294.4766 294.4817 294.4817 296.3699 297.0115
   297.3345 297.3345 297.3575 297.3848 298.4926 298.4926 298.9215 298.9514
   300.4564 300.5385 300.5594 300.5594 301.6212 301.7119 301.7119 301.7916
   304.3411 304.3411 304.6379 304.6499 304.8024 305.1036 305.1048 305.1048
   305.1107 305.6410 305.6410 305.7791 306.2600 306.2723 306.2723 306.7727
   308.2617 308.4599 308.4676 308.4676 308.7802 309.2987 309.6313 309.6313
   312.0687 312.0687 312.1204 312.1757 312.9546 313.1324 313.8155 313.8155
   313.8259 313.8259 314.4946 314.5510 314.6950 314.8974 314.9602 314.9602
   315.2211 315.2211 315.2720 315.3838 316.6937 316.7862 317.0189 317.0189
   317.2115 317.2115 317.3042 317.4619 323.0806 323.0806 323.1153 323.1257
   323.5093 323.6249 323.6249 323.6316 323.6541 323.7766 323.7766 323.9840
   323.9949 323.9949 324.0729 324.2437 324.3190 324.3994 324.3994 324.5354
   325.5228 325.5465 325.5465 325.6341 327.7572 327.8563 327.9340 327.9340
   328.0628 328.5314 328.5314 329.1909 329.5318 330.1308 330.1530 330.1530
   330.5050 330.5873 330.7603 330.7603 331.6393 331.6650 331.6650 331.9198
   332.0652 332.0652 332.1243 332.1518 332.2080 332.2360 332.3898 332.3898
   332.4262 332.4524 332.6748 332.6748 333.1266 333.1401 333.1639 333.1639
   333.2156 333.2653 333.2995 333.2995 333.3206 333.3350 333.6831 333.6831
   334.1143 334.1143 334.2088 334.3015 336.0652 336.0796 336.0796 336.0907
   338.7940 338.7940 338.8026 338.8305 339.9254 339.9327 339.9327 339.9968
   340.4158 340.4158 340.4333 340.4368 340.8765 340.8765 340.8862 340.9525
   341.0807 341.2555 341.2555 341.2919 341.7419 341.8372 341.8372 341.8565
   341.9790 342.0779 342.3457 342.3457 342.3541 342.3543 343.5608 343.5608
   345.0387 345.2757 345.2761 345.3000 345.3000 345.5929 345.7320 346.0138
   346.0248 346.0248 349.9636 349.9636 350.0669 350.1957 352.1487 352.1487
   352.1770 352.1790 353.4864 353.6041 353.6041 353.9320 353.9617 354.1939
   354.1939 354.4592 355.7969 355.9752 355.9752 356.0335 356.2147 356.2878
   356.2878 356.4559 356.6017 356.6017 356.6113 356.6578 356.8828 356.9750
   356.9750 357.0520 357.4214 357.4214 357.5175 357.5277 357.7382 357.8193
   357.8193 357.8848 357.9123 357.9823 357.9823 357.9984 358.3374 358.3374
   360.4931 360.4931 360.4938 360.5536 363.2323 363.2556 363.2556 363.2750
   363.9969 364.0257 364.0297 364.0297 365.4706 365.4706 367.1755 367.1923
   367.3355 367.3355 367.3514 367.3514 367.3590 367.3607 368.4494 368.4854
   370.2332 370.2792 370.3193 370.3193 370.3309 370.3309 370.3920 370.4558
   371.3034 371.3136 371.3303 371.3303 372.3978 372.3978 372.4062 372.4430
   372.5320 372.5320 372.5345 372.5663 372.6240 372.6240 372.6543 372.6826
   374.9451 374.9451 375.3750 375.3797 375.6255 375.6255 375.6294 375.6299
   375.7163 375.7267 375.7277 375.7277 376.2948 376.2948 376.3048 376.3092
   377.0400 377.0471 377.0471 377.1206 378.4976 378.4976 378.6192 378.6829
   379.0078 379.0603 379.2280 379.2280 379.5073 379.6017 379.6017 379.6273
   379.8022 379.8623 379.9033 379.9033 379.9669 379.9669 379.9729 380.0631
   380.3191 380.3298 380.3298 380.3729 380.4213 380.4213 380.4230 380.4311
   380.5279 380.5279 380.5448 380.5464 382.7065 382.8039 382.8039 382.8592
   385.4623 385.4764 385.9021 385.9021 389.2529 389.2595 389.2595 389.2673
   389.2972 389.3008 389.3008 389.3034 391.8657 391.8657 391.8735 391.8842
   393.5058 393.5264 393.5264 393.5370 394.3849 394.3992 394.3992 394.4137
   395.2519 395.2565 395.2932 395.2932 395.4985 395.4985 395.4986 395.5101
   396.0520 396.0673 396.0710 396.0710 396.7736 396.7736 396.8467 396.8686
   397.3543 397.3543 397.3580 397.3671 400.1419 400.1632 400.1632 400.1658
   401.0658 401.0658 401.1003 401.1714 401.1739 401.2529 401.3575 401.3575
   402.5622 402.5622 402.6745 402.6811 402.8629 402.8629 402.9638 403.0066
   403.2307 403.2307 403.3291 403.3436 403.5901 403.5918 403.9104 403.9104
   404.3732 404.3791 404.3791 404.3896 404.3960 404.4293 404.4331 404.4331
   405.7466 405.7550 405.8591 405.8591 407.6439 407.6439 407.6485 407.6487
   410.7912 410.8189 410.8361 410.8361 410.8834 410.8834 410.8878 410.9029
   411.6656 411.6774 411.6774 411.6909 411.9246 412.0051 412.0051 412.0398
   412.5686 412.5715 412.5715 412.5865 413.5682 413.5765 413.8297 413.8297
   413.9570 413.9570 413.9785 413.9873 419.2663 419.2811 419.2811 419.2976
   419.2987 419.3030 419.3030 419.3055 420.7227 420.7276 420.7276 420.7781
   421.6859 421.7894 422.1997 422.1997 422.4430 422.4496 422.4496 422.4556
   422.9431 422.9850 422.9850 422.9913 422.9918 422.9951 423.4860 423.5912
   423.5912 423.7149 424.8868 424.9871 424.9871 425.0733 425.6141 425.6147
   425.6147 425.6427 425.6435 425.6460 425.6460 425.6568 426.9382 426.9647

     the Fermi energy is     8.4382 ev
     (compare with:     8.3284 eV, computed in scf)

     Writing all to output data dir out/mp-2201.save/
 
     init_run     :      0.05s CPU      0.08s WALL (       1 calls)
     electrons    :   1090.39s CPU   1156.65s WALL (       1 calls)

     Called by init_run:
     wfcinit      :      0.00s CPU      0.00s WALL (       1 calls)
     potinit      :      0.01s CPU      0.01s WALL (       1 calls)
     hinit0       :      0.01s CPU      0.04s WALL (       1 calls)

     Called by electrons:
     c_bands      :   1090.38s CPU   1156.60s WALL (       1 calls)
     v_of_rho     :      0.00s CPU      0.01s WALL (       1 calls)

     Called by c_bands:
     init_us_2    :      0.00s CPU      0.00s WALL (      15 calls)
     init_us_2:cp :      0.00s CPU      0.00s WALL (      15 calls)
     cegterg      :   1040.07s CPU   1102.70s WALL (      15 calls)

     Called by *egterg:
     cdiaghg      :    960.54s CPU   1020.53s WALL (     168 calls)
     h_psi        :     23.18s CPU     24.02s WALL (     183 calls)
     g_psi        :      0.17s CPU      0.17s WALL (     153 calls)

     Called by h_psi:
     h_psi:calbec :      0.60s CPU      0.64s WALL (     183 calls)
     vloc_psi     :     21.74s CPU     22.54s WALL (     183 calls)
     add_vuspsi   :      0.51s CPU      0.51s WALL (     183 calls)

     General routines
     calbec       :      0.60s CPU      0.64s WALL (     183 calls)
     fft          :      0.00s CPU      0.03s WALL (      10 calls)
     fftw         :     19.81s CPU     20.54s WALL (  222152 calls)
 
     Parallel routines
 
     PWSCF        :  18m11.68s CPU  19m19.13s WALL

 
   This run was terminated on:  20:57:22   3Jan2024            

=------------------------------------------------------------------------------=
   JOB DONE.
=------------------------------------------------------------------------------=
