
     Program PWSCF v.7.1 starts on  3Jan2024 at  7:42:14 

     This program is part of the open-source Quantum ESPRESSO suite
     for quantum simulation of materials; please cite
         "P. Giannozzi et al., J. Phys.:Condens. Matter 21 395502 (2009);
         "P. Giannozzi et al., J. Phys.:Condens. Matter 29 465901 (2017);
         "P. Giannozzi et al., J. Chem. Phys. 152 154105 (2020);
          URL http://www.quantum-espresso.org", 
     in publications or presentations arising from this work. More details at
     http://www.quantum-espresso.org/quote

     Parallel version (MPI), running on    24 processors

     MPI processes distributed on     1 nodes
     123064 MiB available memory on the printing compute node when the environment starts
 
     Reading input from pw_mp-2201_nscf_k260_E66.in
Warning: card &IONS ignored
Warning: card / ignored
Warning: card &CELL ignored
Warning: card / ignored

     Current dimensions of program PWSCF are:
     Max number of different atomic species (ntypx) = 10
     Max number of k-points (npk) =  40000
     Max angular momentum in pseudopotentials (lmaxx) =  4

     Atomic positions and unit cell read from directory:
     out/mp-2201.save/
     Atomic positions from file used, from input discarded
 
 
     K-points division:     npool     =       2
     R & G space division:  proc/nbgrp/npool/nimage =      12
     Subspace diagonalization in iterative solution of the eigenvalue problem:
     one sub-group per band group will be used
     scalapack distributed-memory algorithm (size of sub-group:  3*  3 procs)

 
     Parallelization info
     --------------------
     sticks:   dense  smooth     PW     G-vecs:    dense   smooth      PW
     Min         103     103     30                 2400     2400     384
     Max         104     104     31                 2404     2404     388
     Sum        1237    1237    367                28811    28811    4621
 
     Using Slab Decomposition
 


     bravais-lattice index     =            2
     lattice parameter (alat)  =      11.6816  a.u.
     unit-cell volume          =     398.5191 (a.u.)^3
     number of atoms/cell      =            2
     number of atomic types    =            2
     number of electrons       =        20.00
     number of Kohn-Sham states=         1200
     kinetic-energy cutoff     =      66.0000  Ry
     charge density cutoff     =     264.0000  Ry
     Exchange-correlation= PBE
                           (   1   4   3   4   0   0   0)

     celldm(1)=  11.681619  celldm(2)=   0.000000  celldm(3)=   0.000000
     celldm(4)=   0.000000  celldm(5)=   0.000000  celldm(6)=   0.000000

     crystal axes: (cart. coord. in units of alat)
               a(1) = (  -0.500000   0.000000   0.500000 )  
               a(2) = (   0.000000   0.500000   0.500000 )  
               a(3) = (  -0.500000   0.500000   0.000000 )  

     reciprocal axes: (cart. coord. in units 2 pi/alat)
               b(1) = ( -1.000000 -1.000000  1.000000 )  
               b(2) = (  1.000000  1.000000  1.000000 )  
               b(3) = ( -1.000000  1.000000 -1.000000 )  


     PseudoPot. # 1 for Pb read from file:
     /usr/scratch4/magr4985/MG/HTDF/pseudo/SG15/Pb.upf
     MD5 check sum: 7f27c247474026287e0dbe0f3167d60b
     Pseudo is Norm-conserving, Zval = 14.0
     Generated using ONCVPSP code by D. R. Hamann
     Using radial grid of  602 points,  8 beta functions with: 
                l(1) =   0
                l(2) =   0
                l(3) =   1
                l(4) =   1
                l(5) =   2
                l(6) =   2
                l(7) =   3
                l(8) =   3

     PseudoPot. # 2 for Se read from file:
     /usr/scratch4/magr4985/MG/HTDF/pseudo/SG15/Se.upf
     MD5 check sum: e78e48a4f5d8ce1f8dc76ec1271f249c
     Pseudo is Norm-conserving, Zval =  6.0
     Generated using ONCVPSP code by D. R. Hamann
     Using radial grid of  602 points,  6 beta functions with: 
                l(1) =   0
                l(2) =   0
                l(3) =   1
                l(4) =   1
                l(5) =   2
                l(6) =   2

     atomic species   valence    mass     pseudopotential
        Pb            14.00   207.20000     Pb( 1.00)
        Se             6.00    78.96000     Se( 1.00)

     48 Sym. Ops., with inversion, found



   Cartesian axes

     site n.     atom                  positions (alat units)
         1           Pb  tau(   1) = (   0.0000000   0.0000000   0.0000000  )
         2           Se  tau(   2) = (  -0.5000000   0.5000000   0.5000000  )

     number of k points=    16  Gaussian smearing, width (Ry)=  0.0005
                       cart. coord. in units 2pi/alat
        k(    1) = (   0.0000000   0.0000000   0.0000000), wk =   0.0092593
        k(    2) = (  -0.1666667   0.1666667  -0.1666667), wk =   0.0740741
        k(    3) = (  -0.3333333   0.3333333  -0.3333333), wk =   0.0740741
        k(    4) = (   0.5000000  -0.5000000   0.5000000), wk =   0.0370370
        k(    5) = (   0.0000000   0.3333333   0.0000000), wk =   0.0555556
        k(    6) = (  -0.1666667   0.5000000  -0.1666667), wk =   0.2222222
        k(    7) = (   0.6666667  -0.3333333   0.6666667), wk =   0.2222222
        k(    8) = (   0.5000000  -0.1666667   0.5000000), wk =   0.2222222
        k(    9) = (   0.3333333   0.0000000   0.3333333), wk =   0.1111111
        k(   10) = (   0.0000000   0.6666667   0.0000000), wk =   0.0555556
        k(   11) = (   0.8333333  -0.1666667   0.8333333), wk =   0.2222222
        k(   12) = (   0.6666667  -0.0000000   0.6666667), wk =   0.1111111
        k(   13) = (   0.0000000  -1.0000000   0.0000000), wk =   0.0277778
        k(   14) = (   0.6666667  -0.3333333   1.0000000), wk =   0.2222222
        k(   15) = (   0.5000000  -0.1666667   0.8333333), wk =   0.2222222
        k(   16) = (  -0.3333333  -1.0000000   0.0000000), wk =   0.1111111

     Dense  grid:    28811 G-vectors     FFT dimensions: (  45,  45,  45)

     Estimated max dynamical RAM per process >     109.06 MB

     Estimated total dynamical RAM >       2.56 GB

     The potential is recalculated from file :
     out/mp-2201.save/charge-density

     Starting wfcs are random

     Band Structure Calculation
     Davidson diagonalization with overlap

     ethr =  5.00E-06,  avg # of iterations = 10.6

     total cpu time spent up to now is      636.4 secs

     End of band structure calculation

          k = 0.0000 0.0000 0.0000 (  3695 PWs)   bands (ev):

    -8.5123  -8.5123  -8.5123  -8.5052  -8.5052  -5.0612   1.9325   6.5473
     6.5473   6.5473  12.9285  12.9285  12.9285  14.8784  14.8784  14.8784
    16.5008  16.5594  17.2923  17.2923  28.0228  28.0228  28.0228  29.2444
    29.2444  29.2444  30.9202  30.9202  30.9202  32.2522  32.2522  35.0737
    36.7194  36.7194  36.7194  37.5863  39.5524  39.5524  39.5524  40.9514
    40.9514  41.7887  41.7887  41.7887  42.9876  42.9876  42.9876  43.7386
    43.7386  43.7386  44.4987  46.8375  46.8375  46.8375  46.9630  46.9630
    46.9630  47.5987  47.5987  48.4119  50.0213  50.0213  50.0213  52.8679
    56.1317  56.1317  56.1317  58.3313  58.3313  58.3313  62.9572  62.9572
    63.5881  65.8119  69.4178  69.4178  69.4178  69.9573  69.9573  69.9573
    70.3881  70.3881  70.3881  71.7586  71.7586  72.6617  72.6617  72.6617
    74.6253  74.6253  74.6253  75.9641  75.9641  75.9641  76.0883  76.0883
    76.0883  77.2994  77.2994  77.3262  77.3262  77.3262  78.1957  78.1957
    78.8018  79.2793  79.2793  79.2793  80.1845  80.2338  80.6121  80.6121
    82.0478  82.0478  82.0478  83.3255  83.3255  83.3255  85.8045  85.9236
    85.9236  85.9236  91.6719  91.6719  91.6719  92.8303  92.8303  92.8303
    93.3438  93.3438  93.8944  93.8944  93.8944  94.1142  94.1142  94.1142
    94.7343  94.7610  94.7610  96.4040  96.4040  96.4040  97.3815  97.6761
    97.6761  97.6761  98.4079  98.4079  98.4079 101.7669 103.5437 103.5437
   103.5437 104.8401 104.8401 104.8401 104.9814 104.9814 104.9814 108.0379
   108.0379 108.0379 109.5283 109.5997 109.5997 109.6837 109.6837 109.6837
   109.7168 110.5855 110.5855 111.0886 111.0886 111.0886 111.4965 111.4965
   111.4965 118.7051 118.7051 118.7051 121.5042 121.5042 121.5042 122.1552
   122.4089 122.4089 123.6835 123.7985 123.7985 123.7985 126.0141 126.0141
   126.0141 129.6576 129.6576 129.9658 129.9658 129.9658 130.2691 131.9077
   132.3993 132.3993 132.3993 132.4932 132.4932 133.0179 133.0179 133.0179
   133.0761 133.0761 133.0761 133.4985 133.9505 133.9505 133.9505 134.8373
   135.7274 135.7274 135.7274 137.0603 137.1484 137.1484 137.7818 137.7818
   137.7818 138.4951 138.4951 138.4951 138.7553 138.7553 138.7553 139.1811
   139.1811 139.1811 139.4309 139.4309 139.4309 139.9025 139.9025 140.0323
   140.0323 140.0323 140.4669 140.4669 140.4669 140.6936 140.6936 140.6936
   140.8730 140.8730 140.9413 140.9413 140.9413 141.1102 141.1102 141.1252
   141.2893 141.2893 141.2893 149.0768 149.0768 149.0768 149.1935 149.1935
   149.1935 149.2460 149.2460 149.8387 149.8387 149.8387 151.1391 151.6501
   151.6501 151.6501 153.8482 153.8482 153.8482 156.4102 157.1399 157.1399
   157.1399 157.1537 157.1537 157.2804 158.4371 158.4371 158.4371 160.9925
   160.9925 160.9925 161.7123 165.0707 165.0707 166.5071 166.5071 166.5071
   167.4060 167.6593 167.6593 167.6593 167.7730 167.7730 167.7730 168.1576
   168.1576 168.1576 168.2018 168.2018 169.0162 169.0162 169.0162 170.1101
   170.1101 170.1101 170.1224 170.1224 170.1224 170.1427 170.1427 170.3260
   170.3260 170.3260 170.7282 170.7282 170.9878 171.2151 171.2151 171.2151
   172.4210 172.4210 172.4210 175.1421 175.1421 179.4623 179.4623 179.4623
   181.0949 182.1902 182.1902 182.1902 182.8209 184.9238 184.9238 184.9238
   185.5914 186.3580 186.3580 186.3580 187.3874 187.3874 187.3874 190.7148
   190.7148 191.4016 191.4016 191.4016 191.4348 191.4348 191.4348 191.6326
   192.7879 192.7879 192.7879 193.7674 193.7674 196.8968 196.8968 196.8968
   197.1933 197.1933 197.1933 197.5354 197.5354 197.5354 197.8189 197.8189
   197.8189 197.9895 197.9895 197.9895 198.7476 199.5681 200.9834 200.9834
   200.9834 201.0599 201.0599 201.0599 201.3830 201.3830 201.4398 201.4398
   201.4398 201.4462 201.4462 201.4945 201.4945 201.4945 202.2125 202.2125
   202.2125 202.3073 202.3073 202.3073 202.3270 204.0147 204.0147 204.0153
   204.0258 204.0258 204.0258 209.7035 211.6003 211.6003 211.6003 212.8736
   212.8736 212.8736 213.8241 215.4610 215.4610 215.4610 215.4900 215.4900
   215.7679 215.7679 215.8279 215.8279 215.8279 215.8505 215.8505 215.8505
   215.9373 215.9373 215.9373 218.1591 218.1591 218.1591 218.6355 218.6355
   219.4547 219.4547 219.6603 219.6603 219.6603 219.6692 219.6692 219.6692
   219.8172 219.8172 219.8172 219.8225 219.8225 219.8225 220.1210 220.1210
   220.4547 220.5883 220.5883 220.5883 220.9307 221.1703 221.1703 221.1703
   221.3554 221.3554 221.3554 221.5459 221.6963 221.6963 221.6963 222.4551
   222.4551 222.4551 222.5623 223.7422 223.7422 223.7422 225.5215 225.5215
   225.5215 226.0577 226.1329 226.1329 226.1426 226.1426 226.1426 226.2554
   226.2554 226.2554 226.5628 230.0477 230.0477 230.5428 230.5428 230.5428
   230.8161 230.8161 230.8161 230.8993 230.8993 230.8993 231.2903 231.2903
   231.2903 231.3055 231.3055 231.6996 231.9651 231.9651 231.9651 231.9909
   231.9909 233.4864 233.4864 233.4864 233.5871 233.5871 233.5871 233.7011
   233.7011 233.7011 233.8100 233.8100 233.8100 234.8222 234.8960 234.8960
   234.8960 234.9114 234.9114 235.9557 235.9557 239.2714 239.2714 239.2714
   240.9195 255.6801 255.6801 255.6801 255.9062 255.9062 255.9062 256.5529
   257.0594 258.9440 258.9440 258.9440 259.0422 259.0422 259.1792 259.1792
   259.1792 259.3740 259.3740 259.3740 259.6264 259.6264 259.6264 260.2390
   260.2390 260.2390 260.4682 260.4682 260.7480 260.7480 260.9482 261.1710
   261.1710 261.1710 261.3094 261.9194 261.9194 261.9194 262.0136 262.0136
   262.0136 262.0162 262.0162 262.0162 262.4745 262.4745 262.4745 262.6718
   262.9038 262.9038 262.9038 266.0307 266.0307 266.1138 266.1138 266.1138
   266.2169 266.2169 266.2169 266.2871 266.2871 266.2871 266.3125 266.3125
   266.3818 266.3818 266.3818 267.2289 267.2289 267.2831 267.2831 267.2831
   267.3848 275.1894 275.1894 275.1894 275.2163 275.2163 275.2577 275.2577
   275.2577 275.3470 275.3470 275.3470 275.8787 280.0519 280.1442 280.1442
   280.1442 280.2075 280.2075 280.8242 280.8242 280.8242 281.1167 281.1167
   281.1167 281.1458 281.1458 281.1458 281.1935 281.1935 281.1935 281.4006
   281.4006 281.4006 281.4453 281.4453 281.5494 281.6553 281.6553 281.6553
   282.1915 282.1915 282.9190 282.9190 282.9190 284.2604 284.3660 284.3660
   284.3660 289.4784 289.6818 289.6818 289.9437 289.9437 289.9437 290.0036
   290.0036 290.0036 290.0137 290.0137 290.0137 290.0966 290.0966 290.0966
   290.1952 290.6929 290.6929 290.6929 291.2827 294.6609 294.6609 294.6838
   294.6838 294.6838 294.8001 294.8001 294.8001 294.8224 294.8224 294.8224
   294.9000 295.6606 295.6606 295.6606 295.8708 295.8708 295.8708 295.8763
   295.8763 295.8954 295.8954 295.8954 295.9147 296.5853 296.5853 296.5853
   296.8110 296.8110 296.9086 296.9086 296.9086 297.0555 297.0555 297.0884
   297.0884 297.0884 297.1075 297.1143 297.1143 297.1143 297.1452 297.1758
   297.1758 297.1758 297.1851 297.1851 297.1851 304.2210 304.2210 304.6610
   304.6610 304.6610 305.5356 308.8768 308.8768 308.8768 309.0010 309.0010
   309.0010 309.0172 309.0172 309.0172 309.0682 309.0682 309.0682 309.6686
   309.6686 309.8020 309.8798 309.8798 309.8798 310.0044 310.0044 311.3735
   311.5909 311.5909 311.5909 317.5326 317.5326 317.5326 317.6001 318.2786
   318.2786 318.2786 318.8336 321.0692 321.0692 321.0692 321.0852 321.0852
   321.0852 321.0986 321.0986 321.0986 321.2305 321.2305 321.4606 321.4606
   321.4709 321.4709 321.4709 323.4637 323.4637 323.4637 323.5055 323.5055
   323.5055 323.5337 323.5337 323.5337 323.5613 323.5613 323.5613 325.5023
   325.5023 325.5023 325.5403 325.5403 325.6903 325.6903 325.6999 325.6999
   325.6999 325.7000 325.7274 325.7274 325.7274 325.7358 325.7358 325.7358
   325.7534 325.7534 325.7534 325.8628 325.8628 326.0692 326.0692 326.0692
   326.5167 326.5167 326.5167 326.5176 326.5176 326.5176 326.5193 326.5193
   326.5193 326.6883 326.6883 327.0261 327.0908 327.0908 327.0908 327.1468
   327.2047 327.2047 327.2047 327.2417 327.2417 327.2417 327.2584 329.5957
   329.5957 329.6228 329.6228 329.6228 329.6979 329.9914 329.9954 329.9954
   329.9954 329.9976 329.9976 330.0119 330.0119 330.0119 330.0850 330.0850
   330.0850 330.1143 330.1143 330.1143 330.1740 330.1740 330.1740 330.3686
   330.3686 330.4521 330.4521 330.4521 330.5345 338.2147 338.2147 338.2147
   338.4574 338.4999 338.4999 338.4999 338.5441 344.9010 344.9010 344.9499
   344.9499 344.9499 345.0118 345.0118 345.0118 345.0122 345.0122 345.0122
   345.0960 345.0960 345.0960 345.1205 345.1205 346.6289 346.6289 347.0013
   347.0013 347.0013 347.1795 349.1557 349.1557 349.1557 349.3233 349.3233
   349.3233 349.3445 349.3445 349.3445 349.3555 349.3555 349.3555 352.1666
   352.1666 352.2071 352.2071 352.2071 352.2925 356.9592 356.9592 356.9612
   356.9623 356.9623 356.9623 359.3733 359.3733 359.3733 359.3748 359.3748
   359.3748 359.3816 359.3816 359.3816 359.3874 359.3874 359.3874 360.7447
   360.7447 360.7505 360.7505 360.7505 360.7586 371.9811 372.0300 372.0300
   372.0300 372.4160 372.4160 372.4160 373.2123 373.5161 373.5161 373.7370
   373.7370 373.7370 374.1104 374.1104 374.1104 374.2243 374.2243 374.2243
   374.3162 374.3162 374.3162 374.4509 374.4509 377.6306 377.6306 377.6419
   377.6419 377.6419 377.8610 377.8610 377.8610 378.1060 378.1060 378.1060
   378.3224 380.4286 380.4286 380.5914 380.6277 380.6277 380.6277 380.9352
   381.1752 381.1752 381.1752 381.7214 381.7214 381.7214 382.2506 384.8997
   384.8997 384.8997 384.9731 384.9731 384.9731 385.2268 385.2268 385.3386
   385.3386 385.3386 385.4025 385.4025 385.4025 385.5635 385.7695 385.7695
   385.7695 385.8284 385.8284 386.0357 386.0357 386.0357 386.1911 386.1911
   386.1911 386.3339 386.3339 386.9673 386.9782 386.9782 386.9782 387.3178
   387.3178 387.3178 387.5648 388.7053 388.7053 388.7053 388.7342 388.7342
   388.8174 388.8174 388.8174 388.8220 388.8220 388.8220 388.8516 388.8516
   388.8516 388.9331 388.9331 390.3159 390.3159 390.3201 390.3201 390.3201
   390.3420 390.3420 390.3420 390.3548 390.3550 390.3550 390.3550 390.7148
   390.7885 390.7885 390.7885 390.8770 390.8770 390.8770 390.9008 390.9008
   390.9050 390.9050 390.9050 402.4821 402.4821 402.4841 402.4841 402.4841
   402.5931 402.7622 402.7622 402.7622 402.7769 402.7769 402.7769 402.7823
   402.7823 402.7823 402.7921 402.7921 402.7921 403.6052 403.8369 403.8369
   403.8369 403.9620 403.9620 403.9620 404.0293 404.0293 404.0587 404.0587
   404.0587 405.5698 405.5698 405.5856 405.6367 405.6367 405.6367 405.6519
   405.6519 405.6519 405.7375 405.7375 405.7375 408.1307 408.1307 408.1307
   408.1416 408.1416 408.1416 408.1427 408.1427 408.1826 408.1826 408.1826
   408.2226 408.4422 408.5989 408.5989 408.5989 408.6299 408.6299 408.7936
   408.7936 408.7936 408.8502 408.8502 408.8502 409.1066 409.1066 409.1913
   409.1913 409.1913 409.2774 412.4714 412.4714 412.4714 412.6182 412.6182
   412.6182 412.6665 412.6665 412.6665 412.6957 412.6957 412.7432 412.7432
   412.7432 412.7517 412.8101 412.8101 412.8101 412.8681 412.8681 412.9095
   412.9095 412.9095 412.9680 416.3059 416.6415 416.6415 416.6415 416.9849
   416.9849 416.9849 417.5069 417.5069 417.5465 417.5465 417.5465 417.7613
   418.1969 418.1969 418.1969 418.3750 418.3750 418.3750 418.5338 418.5338
   418.5338 418.5626 418.5626 421.1981 421.1981 421.2721 421.2721 421.2721
   421.3113 421.3904 421.3904 421.3904 421.4208 421.4316 421.4316 421.4316

          k =-0.1667 0.1667-0.1667 (  3620 PWs)   bands (ev):

    -8.5125  -8.5125  -8.5113  -8.5029  -8.5029  -4.8654   1.3407   6.6168
     6.6168   6.9465  11.4052  11.9334  11.9334  14.6724  15.4422  15.4422
    18.1014  18.7430  18.7562  18.7562  25.5122  25.8967  25.8967  28.7818
    28.7818  29.4979  31.2528  31.2528  31.5787  34.3943  34.3943  35.3071
    35.3305  35.3305  36.7047  37.7554  37.7566  38.3651  38.3651  38.7676
    39.3223  39.3223  41.4302  41.7985  41.7985  43.8057  44.1649  44.1649
    45.3087  45.3087  45.9093  45.9093  46.1065  46.1536  47.3603  47.3603
    49.1387  49.9054  50.1320  50.1320  52.1318  52.1318  52.4532  54.4430
    55.9785  55.9785  57.6950  58.2019  58.2019  58.2580  62.7597  62.9373
    62.9373  63.6962  63.6962  65.1063  66.5602  68.2988  68.5891  68.5891
    69.0311  69.0311  70.5327  70.9404  70.9404  72.2126  72.2752  72.2752
    72.7076  74.6758  74.8952  74.8952  75.5596  75.7210  75.7210  76.2906
    76.2906  77.1930  77.1930  77.7213  77.7213  77.7873  78.5676  78.6451
    79.0484  79.0484  80.9988  80.9988  81.5026  82.4362  83.1195  83.7605
    83.7605  84.1412  84.1412  85.1521  85.1521  86.5284  86.5284  86.7596
    86.8177  87.8734  88.3526  88.3526  88.4427  89.1191  89.1191  91.3584
    91.3584  91.9910  92.6696  93.1152  93.1152  94.1589  94.3082  95.2571
    95.6440  95.6440  95.6485  95.8715  95.8715  98.9779  99.0707  99.3735
    99.3735  99.6808  99.6808 100.6407 100.6407 102.0882 102.6470 102.6470
   103.3968 103.8776 103.8776 104.0821 104.4992 104.4992 105.7899 106.0559
   106.6578 106.6578 108.4869 108.4869 109.4629 110.4472 110.4472 110.5196
   110.5196 112.5197 112.9483 113.8072 113.8072 115.1394 115.3943 116.8256
   116.8256 117.6386 117.9401 117.9401 119.2189 119.2189 119.5544 120.8556
   121.2862 121.3948 121.3948 121.8825 123.7060 123.7060 124.5236 124.8928
   125.2006 125.2006 127.7308 127.7308 127.9775 127.9775 127.9957 128.4823
   128.4823 129.2454 129.3265 129.3265 129.4060 130.3923 130.3923 130.4044
   131.7508 131.7508 132.3428 133.3841 133.4877 133.4877 134.1408 134.1580
   134.1580 135.1488 135.1488 135.2982 135.8675 135.8675 135.9822 136.3986
   136.3986 137.3559 137.3575 137.3575 137.6196 137.8519 138.4245 138.4245
   139.2750 139.2750 139.3099 140.5560 140.5560 140.8320 141.3807 141.4747
   141.4747 141.9890 141.9890 142.2235 142.6869 143.0061 143.0061 143.7143
   143.7143 143.7760 143.7760 143.7901 144.5464 144.7721 145.9310 145.9632
   145.9632 147.0565 147.5215 148.0608 148.0608 148.7871 148.7871 148.8235
   150.1977 150.4857 150.4857 150.9472 150.9472 151.9133 152.9781 152.9781
   153.4124 153.4124 154.5519 154.5519 154.7515 155.8943 156.3220 156.3220
   157.2208 157.3102 157.6416 157.6416 158.7606 158.7606 160.0164 160.0164
   160.7957 161.2224 161.2224 161.3350 162.5616 162.5616 163.0652 163.0652
   163.2878 163.3041 164.1550 164.1550 164.3284 165.0110 165.0110 165.3005
   165.9919 165.9919 166.3299 167.1013 167.9891 167.9891 168.5975 168.5975
   168.9401 170.8049 172.1225 172.1225 172.1548 173.6914 173.6914 173.8239
   174.1526 174.2085 174.2085 174.7405 175.1987 175.1987 177.4561 177.8523
   177.8523 178.2034 178.4169 178.4169 178.6492 179.3728 179.3728 180.1403
   180.9745 180.9745 181.3340 181.6832 181.6832 183.7285 183.7285 184.2727
   185.3134 185.3434 185.3434 186.9014 187.0413 187.0413 187.3777 187.7473
   187.7473 188.4804 188.5021 188.5021 188.7091 189.0704 189.0704 189.8133
   189.8133 190.6330 190.8829 191.0143 191.0143 191.3790 191.7193 191.7193
   191.9306 193.0862 193.0862 194.1537 195.1978 195.1978 195.5646 195.6406
   195.6406 197.6556 199.6030 200.4523 200.4523 200.9039 200.9039 200.9823
   201.7891 201.7891 201.8903 201.8952 201.9658 201.9658 202.3122 202.3122
   202.9606 202.9606 203.0998 203.4309 204.1512 204.1987 204.1987 204.7199
   204.7199 205.6825 205.8683 206.0719 206.0719 206.4249 206.4249 206.7847
   207.4911 207.5959 207.5959 207.8553 207.8553 208.4255 208.6337 208.6337
   210.0038 210.2638 210.2638 210.7697 211.7155 212.0815 212.2149 212.2149
   213.2473 213.2473 213.4327 213.4545 213.9177 213.9177 214.1883 214.2962
   214.2962 214.6131 214.6131 214.7734 214.9046 214.9046 215.1571 215.1571
   215.4760 216.3526 216.3526 216.4080 216.8676 216.8676 217.0308 217.3133
   217.4972 217.4972 218.3634 219.0371 219.0674 219.0674 219.9507 219.9507
   220.4833 220.4833 220.5199 220.6163 220.6163 220.7064 221.7721 221.7721
   221.8727 222.0224 222.1514 222.1514 223.3907 223.3907 223.4725 223.8745
   223.9131 223.9131 225.6258 225.6258 226.1343 226.8686 226.8686 227.1338
   227.1338 227.2103 227.2117 227.6913 227.6986 227.6986 228.2131 228.2131
   229.0337 229.2932 229.2932 229.5173 229.6891 229.6891 229.8468 230.0558
   230.2785 230.8092 230.8092 231.0319 231.4913 231.4913 231.5722 231.5722
   234.4142 234.4142 235.0373 235.2900 235.4084 235.4084 235.7086 235.7086
   236.9493 236.9493 237.1999 237.6442 238.1753 238.8372 238.8372 239.1314
   239.4192 239.7321 239.7321 240.3468 240.5163 240.5163 241.5696 243.4741
   243.4741 243.9298 245.5117 245.5117 246.3205 246.8405 246.8405 247.6360
   247.6360 248.0424 248.0729 248.0729 248.2717 248.2717 248.3568 249.0037
   249.0037 249.1722 249.1722 249.3250 250.2030 250.6512 250.9802 250.9802
   251.7069 251.7069 252.3042 252.5319 252.5319 252.9565 253.3778 253.3778
   253.4532 257.6966 257.8555 257.8555 258.7342 258.7342 258.8932 259.1738
   259.2030 259.2030 259.9783 259.9783 260.0648 261.4886 261.4886 261.5757
   262.8222 262.8222 262.9994 263.5272 263.5272 263.6711 265.7607 265.8457
   265.8457 266.5733 266.5733 267.3223 268.4489 268.7179 268.7179 268.8025
   268.8025 269.0878 270.0813 270.3566 270.3566 270.6345 270.6345 270.8011
   270.8810 270.9097 270.9097 271.5531 271.5531 271.7778 271.8647 272.1512
   272.1512 272.1759 273.0163 273.4422 273.4422 274.2415 274.2415 274.2689
   274.3374 274.3374 274.5676 274.9400 274.9400 275.1405 276.0260 276.1331
   276.1331 276.4459 276.9558 276.9558 277.0284 277.9840 278.0830 278.0830
   278.5240 278.5240 278.8976 278.8976 279.0747 279.0926 279.1940 279.1940
   279.3763 281.0895 281.0895 281.8768 281.9109 281.9329 281.9329 282.2268
   282.5314 282.5314 283.3634 283.3738 283.3738 284.7522 284.7522 285.1514
   285.1514 285.2064 286.8427 286.8607 286.8607 290.1780 290.1780 290.2155
   290.5327 290.5327 290.6610 290.7905 290.7905 291.1935 291.6481 291.6481
   292.0362 292.0362 292.1156 292.3631 292.4184 292.7490 292.7490 293.0496
   293.0496 293.1114 293.5245 293.5397 293.5397 293.9019 293.9019 293.9781
   294.0713 294.2699 294.2699 294.3389 294.3389 294.3854 295.8847 295.8847
   296.6886 296.8796 296.8796 296.9537 296.9537 296.9649 297.2413 298.8050
   298.8050 298.8668 299.0996 299.1119 299.1119 299.3472 299.3477 299.3477
   299.4296 299.4296 299.4606 299.6633 299.8525 299.8940 299.8940 302.2391
   302.2391 304.3336 304.3336 304.4203 304.4203 304.4377 304.5144 305.7259
   305.7259 305.8416 306.3931 306.3931 307.8928 307.9981 308.1830 308.1830
   308.5734 308.5734 308.8322 308.9993 309.8770 309.8770 310.1032 310.8251
   310.8251 311.3479 311.8285 311.8285 311.8608 311.9397 311.9759 311.9759
   312.0056 312.0056 312.1091 312.9339 312.9339 312.9625 312.9625 313.1201
   313.3492 313.3492 313.3493 313.4228 314.5698 314.5698 314.7161 314.8249
   314.8249 315.0041 315.0041 315.0076 315.0367 315.0367 315.0400 315.0530
   316.8384 316.8384 316.8392 317.9119 317.9496 317.9496 318.0102 318.8678
   318.8678 318.8793 319.0265 319.0265 319.6908 320.7978 320.8535 320.8535
   321.1690 321.1690 321.3021 321.5541 321.5541 321.5780 321.6560 321.6560
   321.6902 324.4205 324.4205 324.4909 324.4909 324.5093 324.9809 325.0952
   325.0952 325.1021 325.1330 325.1330 325.3397 325.3397 325.7337 326.2544
   326.2544 326.3502 327.6229 327.6229 327.6308 328.7936 328.7936 328.8488
   329.3590 329.3590 329.5277 330.6954 330.7494 330.7494 330.9313 330.9313
   330.9823 332.1687 332.1687 332.4057 332.9706 332.9706 332.9783 334.3472
   334.3472 334.5044 334.6915 335.1271 335.1271 335.3094 335.3094 335.3436
   335.4131 335.4131 335.4766 335.7463 335.7463 336.0220 336.5272 336.5272
   336.6346 337.7761 337.7847 337.7847 337.9090 338.2116 338.2116 338.2210
   339.8846 339.8846 340.1112 340.1957 340.4052 340.4052 340.9943 340.9943
   342.0614 342.0962 342.0962 342.2318 342.2318 342.2812 342.3022 342.3022
   342.3323 342.6352 342.6873 342.6873 343.6354 343.6456 343.6456 345.0055
   345.0055 345.0441 345.1332 345.1332 345.1541 345.1882 345.1882 345.1999
   345.7252 345.7252 347.1690 348.5951 348.5951 348.7504 350.6073 350.6073
   350.6092 350.6185 350.6185 350.6209 351.9168 352.9681 352.9681 352.9702
   353.5584 353.5584 354.8066 354.8066 354.8165 355.7271 355.7271 355.8367
   358.2765 358.7706 358.7706 358.9281 358.9281 358.9332 359.5708 360.5869
   363.6500 363.6500 363.7442 363.7442 363.7594 363.9588 363.9588 363.9882
   364.0939 365.2674 365.2674 365.7282 365.7282 365.8248 366.3476 366.3476
   366.4591 367.0803 367.0803 367.2494 367.2764 367.2764 367.3502 367.3502
   367.7398 368.7451 368.7451 368.7628 368.7881 368.7881 368.8161 371.3754
   371.3754 371.5482 372.4753 372.6008 372.6008 372.6190 372.7173 372.7173
   373.7369 373.7369 373.9384 374.1954 374.1954 374.1976 374.2908 374.5952
   374.5952 374.7587 374.7587 374.8073 375.9514 375.9514 376.0939 376.5656
   376.5656 376.5827 377.4771 377.6839 377.6839 378.1173 378.1173 378.2999
   379.8065 379.8065 379.8170 382.4289 382.5149 382.5149 383.4046 383.4046
   383.4296 383.9547 384.0782 384.0782 384.1292 384.3244 384.3244 384.4272
   384.5614 384.5614 384.9279 384.9279 384.9614 385.2700 385.2700 385.2892
   387.2189 387.2189 387.6643 387.9340 388.2240 388.2240 388.3975 388.4040
   388.4040 388.7181 388.7181 389.1393 389.4905 389.8633 389.8633 390.1828
   390.1961 390.1961 390.6796 390.6860 390.6860 390.9268 390.9308 390.9308
   391.7729 391.7729 391.9011 392.1001 392.2935 392.2935 392.6043 392.6043
   392.6673 392.7874 392.9811 392.9811 393.0098 393.6307 393.6307 393.7058
   394.0879 394.0879 394.5027 394.5027 394.5817 394.7906 394.7906 394.8904
   394.9387 395.4196 395.4196 396.1166 396.7871 396.8592 396.8592 396.9839
   396.9839 397.0317 397.0324 397.0324 397.0756 397.0756 397.6897 398.4705
   399.1070 399.1070 399.3404 399.3893 399.5912 399.5912 401.0982 401.1395
   401.1395 401.2546 401.2546 401.2735 402.7474 402.8101 402.8101 403.0433
   403.7436 403.7436 403.9469 403.9469 404.0900 404.3047 405.0172 405.0913
   405.0913 405.2167 405.2167 405.2635 405.7324 405.7345 405.7345 405.8871
   405.8871 405.9662 405.9662 405.9673 407.1445 407.4132 407.4297 407.4297
   407.6520 407.6593 407.6593 407.9796 408.0205 408.0205 408.0378 408.0506
   408.0506 409.0587 409.0587 409.2723 409.3503 409.5130 409.5130 410.0203
   410.0203 410.0323 410.4062 410.4285 410.4285 411.1957 411.1957 412.2381
   412.2606 412.2606 412.5123 412.5123 412.5217 412.5768 412.5772 412.5772
   413.9276 413.9276 413.9280 414.1183 414.1183 414.1496 414.8896 415.0129
   415.0129 415.1741 415.1741 415.1986 415.4221 415.4415 415.4415 417.1455
   417.1487 417.1487 417.1888 417.1888 417.1888 418.4464 418.4464 418.5252
   418.7044 418.7384 418.7386 418.7386 418.7630 418.7630 420.7913 420.7913
   420.8124 422.0737 422.1043 422.1043 422.4024 422.4024 422.4078 422.5379
   423.1301 423.2222 423.2222 424.3979 424.3979 424.6735 424.6735 424.7165

          k =-0.3333 0.3333-0.3333 (  3633 PWs)   bands (ev):

    -8.5224  -8.5224  -8.5097  -8.4889  -8.4889  -4.3838   0.2307   6.8047
     6.8047   7.6468   9.6524  10.6046  10.6046  15.4087  16.8752  16.8752
    19.9549  21.4382  21.4382  22.0990  22.7328  22.7328  24.0368  28.7443
    28.7443  30.1610  30.7800  31.2213  31.2213  31.7182  32.3445  32.3445
    34.0994  35.4350  35.4350  35.4669  36.7508  36.7508  37.0167  38.5059
    40.3563  40.3563  41.4184  41.4184  42.6729  43.7023  44.3929  44.3929
    46.3305  46.3839  46.3839  48.2187  48.2187  49.2735  49.4556  49.4556
    50.0156  52.0772  52.0772  53.9670  54.7631  55.6501  55.6501  56.1785
    56.1785  56.5831  57.8612  57.9258  57.9258  59.5405  59.5405  59.7385
    61.4854  61.4854  61.5879  62.4740  63.3199  63.3199  64.7152  66.7354
    66.7354  66.9500  67.7771  70.2488  70.9144  70.9144  71.5658  71.5658
    71.5973  72.3020  72.3020  73.0886  75.4709  75.4709  76.6957  76.6957
    77.3709  77.5708  77.5708  77.7211  77.7378  77.7378  79.0969  79.3113
    79.8248  79.8248  80.9440  81.8306  81.8306  82.1980  84.7030  84.7030
    84.9454  85.7348  85.7348  85.9555  86.3491  86.3491  87.4247  87.4247
    87.7165  88.5253  89.6706  90.1797  90.4950  90.4950  91.7551  91.7551
    91.8377  93.2081  93.3628  93.3628  94.1008  94.1008  94.5555  94.5555
    95.0126  95.1349  96.7504  96.7504  97.3304  97.3839  97.3839  98.6046
    98.6046  99.3732 100.2268 100.7881 100.7881 101.3210 101.3210 103.0711
   103.4492 105.1908 105.1908 105.2505 105.7575 105.7575 106.5028 106.5028
   108.4380 108.5831 109.1186 109.3891 109.3891 111.4786 112.7709 112.7709
   114.2027 114.3328 114.9021 114.9021 115.7496 115.7496 116.1840 116.1840
   116.6754 116.7241 116.7241 117.4623 117.6854 117.8379 117.8379 119.1306
   119.5284 119.5284 120.0699 120.1807 120.5516 120.5516 122.1706 122.1706
   123.2908 123.5232 123.5232 123.7070 124.0611 124.0611 124.7746 125.6015
   125.6015 127.2884 127.4008 127.4008 128.3308 129.1312 130.4657 130.4657
   131.4568 131.4568 131.7970 132.0303 132.0303 132.8255 133.0351 133.1839
   133.1839 133.4535 134.3562 134.3562 135.0079 135.5632 135.5632 135.7281
   136.5633 136.5633 137.0577 137.2354 137.2354 137.6470 137.6470 138.0265
   138.0338 139.5289 139.5289 140.0603 140.3677 140.3677 142.1117 142.1628
   142.1628 143.7958 143.7958 143.9325 144.2052 144.6597 144.6597 145.2138
   145.3423 145.3423 145.7969 145.7969 146.0973 146.7804 146.7804 147.2223
   147.2936 147.5390 147.5390 148.2082 148.2082 149.5150 149.5150 149.6455
   150.4586 153.4928 153.4928 154.4095 154.6806 154.8786 155.1618 155.1618
   155.6615 155.9128 155.9128 156.3911 156.3911 156.6431 156.7134 156.7134
   156.7781 157.0943 158.6053 158.6053 159.7249 160.2147 160.2147 161.1664
   162.7982 162.7982 162.8998 162.8998 163.1424 163.1424 163.8090 164.2129
   164.3343 164.5908 164.5908 164.7791 165.2723 165.8513 165.8513 166.1003
   166.1003 167.2811 167.3935 167.3935 167.8100 168.2877 168.2877 168.9070
   168.9070 171.0910 171.3393 171.3393 173.4184 174.4602 174.5555 174.5555
   175.9073 175.9073 176.4248 176.6791 176.6939 176.6939 176.8439 176.8439
   177.1157 178.3471 178.3471 178.3852 178.4796 178.6705 178.6705 178.7781
   179.1391 179.1391 179.3920 180.1787 180.1787 181.8507 181.8507 182.0200
   182.9967 185.6214 186.1721 186.1721 186.5396 186.5396 186.7797 187.4836
   187.6456 187.6456 188.3721 188.3721 188.6104 189.0159 189.1799 189.1799
   189.2128 189.9445 189.9445 190.4307 190.9812 191.0119 191.0119 191.2837
   191.3684 191.3684 192.8965 192.8965 193.7108 193.7108 194.2259 195.1255
   195.6602 195.6602 196.4318 196.4318 196.6793 196.6793 196.9554 196.9730
   197.7728 197.7728 198.1751 198.1751 198.6515 198.7752 198.7752 199.2688
   199.4869 199.4869 200.2220 200.2220 200.3932 200.3963 202.4011 202.9433
   202.9433 203.3458 203.4126 203.4126 204.7141 204.7141 204.7673 205.6525
   206.0144 206.0144 206.4762 207.2261 207.2261 207.7277 207.7277 208.4456
   208.7872 208.8919 208.8919 209.1891 209.1891 209.4624 210.9425 211.1292
   211.1292 212.3667 212.6562 212.6562 213.4600 213.4600 213.9981 214.5023
   214.5893 214.5893 215.2736 215.9345 215.9345 216.3573 216.3573 216.7126
   216.7126 216.7863 216.8638 217.6318 217.8444 217.8444 218.5906 218.5906
   219.0187 219.8982 219.9451 219.9451 220.1456 220.3836 220.7000 220.7000
   221.5194 221.5194 221.5552 222.0303 222.1939 222.1939 222.9182 223.0157
   223.0157 224.0983 224.4250 224.6099 224.6099 225.1806 225.3687 225.3687
   226.0943 226.0943 226.1195 227.6259 227.6259 228.0431 228.1508 228.1508
   228.5893 228.6989 228.8389 228.8389 229.1221 229.7592 229.7592 230.0864
   230.0864 230.1761 230.5388 230.5388 232.7986 232.7986 233.1869 233.3494
   233.3494 234.5390 236.1442 236.7395 236.7395 236.8309 237.1142 237.1142
   237.5707 237.5707 238.4533 239.0455 239.1408 239.1408 240.0167 240.0167
   240.1857 241.7889 242.1017 242.1017 242.3051 242.3051 242.3690 243.3169
   243.3169 243.6285 244.1610 244.2014 244.2014 244.5973 244.5973 244.9517
   245.2018 245.4109 245.4109 245.6804 245.6876 245.7753 245.7753 246.7550
   246.7550 246.7762 247.6359 247.6359 248.6325 248.6325 248.7290 249.8553
   250.2023 250.2023 250.2490 250.3645 250.3645 251.0705 251.0705 251.2149
   251.7235 251.7235 251.7777 251.8583 251.8583 251.9943 252.0682 252.0682
   252.4697 252.6306 252.6306 253.9185 254.1021 257.4630 258.1799 258.1799
   258.7642 258.7642 258.8680 258.9946 259.4201 259.4201 259.7746 259.7746
   260.0764 260.9916 261.0062 261.0062 261.3715 261.3871 261.3871 261.4919
   261.4919 261.6829 261.7352 261.7352 261.8616 262.1981 262.6935 262.6935
   262.8511 264.3658 264.3658 264.6396 264.9831 265.0043 265.0043 266.6230
   266.6230 267.5379 267.5379 267.7843 267.8340 267.8340 267.8576 270.8810
   270.8810 271.1369 271.8311 271.8311 271.8675 274.3997 274.5686 274.5686
   275.3112 275.3112 275.5763 277.2262 277.2336 277.2336 278.3231 278.3231
   278.4306 278.5985 278.5985 279.0688 279.3193 279.3602 279.3602 279.6822
   279.7120 279.7120 279.7700 279.7705 279.7705 280.5371 280.6528 280.6528
   280.9420 280.9420 281.1119 281.2030 281.6262 281.6262 281.8236 281.9201
   282.0668 282.0668 283.2749 283.2749 283.4479 283.5909 283.5909 284.3454
   284.3454 284.9656 287.4341 287.4719 287.4719 287.7801 287.7801 289.2394
   290.5636 291.2370 291.2370 291.6516 291.6516 291.7627 291.9133 291.9133
   292.0750 292.0843 292.0843 292.1613 292.3075 292.4277 292.4277 292.6796
   292.6796 292.8295 293.3359 293.3359 293.3690 293.7159 293.7159 293.7193
   293.8338 294.2835 294.2835 294.4029 294.8547 294.8547 294.9754 295.9185
   295.9185 297.4613 297.4613 297.7984 297.9556 298.3689 298.3689 298.4108
   298.5779 299.0077 299.5046 299.5046 300.9818 301.0309 301.0309 301.3885
   301.4438 301.4438 301.7922 301.7922 302.0153 302.4948 302.4948 302.6257
   302.6822 302.6822 302.9364 302.9364 303.0088 303.0184 303.1792 303.1792
   303.2714 303.4951 303.5175 303.5175 303.5457 303.5457 303.5867 303.7588
   303.7741 303.7741 303.8379 303.8379 304.1394 304.1394 304.1705 304.4841
   304.4841 305.5675 305.5675 305.6324 308.0980 308.0980 308.2974 309.4315
   309.4418 309.4418 311.3146 311.3146 311.3410 311.9884 311.9884 312.0316
   313.3990 313.3990 313.4883 314.3033 314.3033 314.3198 314.3532 314.3532
   314.4156 315.1705 315.1705 315.6973 316.9210 316.9210 317.0829 318.5471
   318.5471 318.6649 320.5773 320.5773 320.7954 320.9701 320.9701 321.0737
   321.1385 321.1971 321.1971 321.3543 321.3543 321.4174 321.8088 321.8088
   321.8995 322.3531 322.3531 322.4401 324.2441 324.2666 324.2666 324.6797
   324.6797 324.6881 325.4258 325.4270 325.4270 325.9115 325.9115 325.9143
   327.1295 327.9336 327.9336 328.4662 328.4662 328.5030 328.9702 328.9702
   329.0106 329.5206 329.5206 329.5310 330.4079 330.4079 330.8081 330.9572
   330.9572 331.0418 331.3573 331.4871 331.4871 331.6106 332.0110 333.7069
   333.7069 334.0765 334.0765 334.1737 334.1924 334.1924 334.3801 334.3801
   334.4171 334.6180 335.2649 335.4413 335.4413 335.7250 335.7250 335.8801
   337.0080 337.0080 337.2011 337.2466 337.2466 337.3135 337.6529 337.8644
   337.8644 337.9298 341.2189 341.2189 341.3264 341.3264 341.4047 341.5703
   341.5703 341.8799 342.5178 343.8158 343.8158 343.8322 344.4756 344.5192
   344.5192 344.6798 344.6815 344.6815 344.8375 344.8375 346.7790 346.7790
   346.7795 347.1815 347.1815 347.2454 347.7580 347.7580 347.7704 348.4525
   348.5520 348.5520 348.6105 348.6105 348.6390 349.2514 349.2514 349.6960
   350.8227 350.8227 350.8443 351.6432 351.6432 351.7260 353.7582 353.7582
   353.9859 354.0768 354.0768 354.2281 355.5467 355.5467 355.6030 355.7303
   355.7520 355.7520 355.9932 356.0148 356.0553 356.0553 356.1492 356.1492
   356.2703 356.2703 356.2930 356.5948 356.6452 356.6452 356.9539 356.9539
   356.9585 358.4611 361.4871 361.4871 362.9262 362.9262 363.1849 363.6633
   363.9445 363.9445 363.9617 363.9617 364.0194 364.4051 364.4360 364.4360
   364.4558 364.8243 364.8243 365.9241 365.9241 365.9412 366.3181 366.3181
   366.3528 366.3528 366.4030 367.5867 367.7156 367.7156 367.7231 367.8616
   367.8616 368.0471 368.0471 368.1720 368.2159 371.2793 371.2793 371.2819
   372.2599 372.7319 372.7319 373.4535 373.6114 373.6114 374.3654 374.3654
   374.3816 374.5477 374.6700 374.6787 374.6787 375.0677 375.0677 375.3008
   375.4156 375.4156 375.6911 375.6911 375.8309 376.0934 376.5645 376.6341
   376.6341 377.0435 377.0435 377.1454 377.8038 377.8536 377.8536 377.9851
   377.9851 378.0545 378.2042 378.2042 378.2284 378.4474 378.4474 378.4786
   379.6852 379.8996 379.8996 380.5238 380.5238 380.7405 381.1679 381.2885
   381.2885 381.6304 382.7059 382.7059 382.7121 382.7219 382.7219 382.8016
   383.6750 383.7900 383.7900 384.0868 384.0911 384.0911 386.6000 386.6000
   386.6895 386.7153 386.9029 386.9029 387.2345 387.2345 387.3505 388.2004
   388.2004 388.2199 388.2593 388.2593 390.8700 390.8750 390.8750 390.9370
   390.9839 390.9839 391.4144 391.4144 391.4705 391.9960 392.0015 392.0015
   393.6641 393.6641 393.6843 393.9775 393.9775 393.9906 394.0401 394.0401
   394.0967 394.4269 394.5498 394.5498 396.1674 396.1674 396.2285 396.7576
   396.7734 396.7734 396.8312 396.8396 396.8396 397.3462 397.3462 397.3492
   397.5461 397.5461 397.5672 398.1757 398.2122 398.2122 398.4292 398.4292
   398.4486 400.6190 402.5653 402.5653 402.5660 402.7543 402.7940 402.7940
   403.0483 403.0483 404.0581 404.0581 404.0701 405.5547 405.6582 405.6982
   405.6982 406.2080 406.2080 406.8509 406.8509 406.9910 407.2794 407.2794
   407.2856 407.5365 407.5365 407.5832 408.0293 408.2115 408.2115 408.3668
   408.3700 408.3700 408.3835 408.3835 408.4075 408.7958 408.8064 408.8064
   408.8999 408.8999 408.9019 409.5168 409.5168 411.1450 411.2575 411.2575
   411.3804 411.4681 411.4681 411.5448 411.5821 411.5934 411.5934 411.8999
   412.0644 412.0644 413.4626 413.4710 413.4710 413.5377 413.5386 413.5386
   413.9163 414.7042 414.7042 414.7132 414.8114 414.8114 415.4888 415.4888
   415.5574 417.7562 417.7562 417.8360 418.5723 418.5800 418.5800 418.5996
   418.6047 418.6047 420.9469 420.9723 420.9723 421.5174 421.5174 421.5454
   422.7343 422.7343 422.7891 423.0612 423.0612 423.1309 423.5373 423.5788
   423.5788 425.6072 426.0365 426.0586 426.0586 426.2880 426.2880 426.6437
   426.7784 426.7784 426.8876 426.9954 426.9954 427.1024 427.2327 427.3346

          k = 0.5000-0.5000 0.5000 (  3600 PWs)   bands (ev):

    -8.5276  -8.5276  -8.5091  -8.4817  -8.4817  -4.0655  -0.3529   6.9372
     6.9372   8.2695   8.6469  10.0418  10.0418  16.8129  18.4003  18.4825
    18.4825  20.0604  20.0604  24.2394  24.2394  25.7313  26.2190  26.9739
    26.9739  27.0918  30.2857  30.6570  31.5024  31.5024  31.6167  32.3007
    32.3007  33.5629  33.5629  34.3942  36.9023  36.9023  37.3823  37.7363
    40.8291  40.8291  42.0808  42.0808  42.7781  43.7656  43.7656  45.4493
    48.3750  48.9534  48.9534  49.1701  49.1701  49.3516  51.5746  51.5746
    51.6114  51.6114  52.6501  52.7372  54.1840  54.1840  54.5688  56.2543
    56.2543  57.0041  57.7955  57.8850  57.8850  58.0342  58.0342  60.3439
    62.2796  62.2796  62.4013  62.5276  62.5592  63.8153  63.8153  66.2278
    66.2278  67.2044  67.6970  67.6970  68.0681  69.7260  69.8083  70.3269
    70.3269  71.6869  71.6869  72.0233  73.5359  73.5359  74.8421  74.8421
    76.4943  78.9386  79.4636  79.4636  79.9461  80.7720  80.8439  80.8439
    81.4859  81.4859  81.5073  81.8657  82.1711  82.1711  83.3547  83.3547
    83.4765  83.4765  83.8764  84.6357  84.6675  86.2777  87.0025  87.0025
    89.1524  89.1524  89.1765  91.0580  91.6376  91.6376  91.9737  91.9737
    94.1082  94.1082  94.3721  94.3721  94.4149  95.9406  95.9406  96.1595
    96.2324  96.5931  96.5931  96.6349  98.0065  98.0065  98.1979  98.5613
   100.3251 100.3251 101.6274 101.6922 101.6922 102.5030 102.8830 102.8830
   104.3127 104.4752 104.4752 105.3014 105.3014 106.5283 106.9429 106.9429
   107.0120 107.0120 107.0932 108.7519 110.4660 111.5617 111.7649 111.7649
   112.6302 112.6317 112.6317 112.7500 112.7500 112.9297 112.9790 114.5915
   114.5915 114.7773 117.1233 117.1233 117.8733 119.1284 119.5856 119.5856
   120.3632 120.4950 120.4950 122.6190 122.6693 122.6693 123.2540 123.2540
   124.0599 124.0599 124.7480 125.3034 125.3034 125.4042 125.5954 126.2002
   126.2002 126.4421 126.4421 126.4571 126.6962 127.7676 127.9495 127.9495
   127.9954 127.9954 128.7103 131.6440 132.2923 132.2923 132.6096 133.2157
   133.2157 133.3748 134.5638 134.5638 134.5936 134.5936 135.6303 135.6303
   135.9445 136.0000 136.0000 136.0322 136.0964 137.1665 137.1665 137.9430
   137.9430 138.1242 139.4478 139.4478 139.9335 140.2509 140.2605 140.2605
   140.7671 141.6552 143.4984 143.4984 144.2669 144.2669 144.4295 145.6636
   145.6636 145.7921 147.1259 148.0518 148.0518 149.8404 150.2934 150.2934
   150.4005 150.4005 150.6963 150.8026 150.8601 150.8601 151.0287 151.2358
   151.4560 151.6505 151.6505 151.6800 151.6800 152.3112 152.3596 152.3596
   153.9085 153.9085 153.9525 153.9525 153.9825 156.8399 156.8399 157.8527
   157.8527 158.6787 160.3763 160.4380 164.1183 164.1188 164.1188 164.1406
   164.1406 165.1925 165.4658 165.4658 165.5523 165.5765 165.5765 165.6746
   165.7199 165.9129 165.9129 166.3557 166.3822 166.3822 167.4053 167.7575
   169.3102 169.3102 169.4411 170.2242 170.2242 170.3331 170.5134 171.4698
   171.4698 171.7170 172.2048 172.2048 172.3937 172.3937 172.4664 172.5145
   172.5145 173.0672 173.2351 173.2351 173.3559 173.3559 175.2660 175.4527
   176.1096 176.1096 176.1279 176.1279 177.3643 177.3646 180.5602 180.5602
   180.7509 180.7509 182.5337 182.7474 182.8459 182.8459 183.0653 183.0653
   184.2127 184.2500 184.2500 184.4241 184.4241 184.9416 184.9416 185.4217
   185.7353 186.4320 186.4320 186.9426 187.3441 187.3441 187.4291 187.4509
   187.4509 187.7154 188.3714 188.4322 188.4322 189.2996 189.3559 189.3559
   189.4273 191.6115 191.6115 191.7579 191.7579 191.9039 191.9648 191.9648
   191.9873 192.9569 193.7135 193.7135 196.5251 196.8414 196.8414 197.0893
   197.0893 197.1117 197.5655 197.5655 197.7584 197.7584 197.9288 198.4610
   202.4763 202.7798 202.7890 202.7890 202.9312 202.9312 204.1184 204.1184
   204.2155 204.3937 204.5852 204.5852 204.8187 204.8187 205.4346 205.6071
   205.7088 205.8961 205.8961 206.4180 206.4180 206.8522 206.9601 207.3167
   207.3167 207.6560 208.6914 208.6914 208.8030 209.5863 209.5863 209.7989
   210.0541 210.2076 210.2076 210.5216 211.3900 211.3900 212.3613 212.3613
   212.7714 212.7714 213.2657 213.9540 213.9540 214.1871 214.1871 214.4168
   217.2249 217.7024 217.7024 217.8581 217.8597 217.8597 219.7368 219.7846
   219.7846 220.2585 220.3566 220.3566 222.0434 222.0925 222.2357 222.2357
   222.2458 222.2458 223.3010 223.3812 223.3812 223.5285 223.5285 223.6103
   224.8884 224.8884 225.5098 225.6833 225.6833 225.6980 226.5542 226.5542
   226.7236 226.7236 227.1984 227.6617 230.4707 230.5456 230.9223 230.9223
   231.0282 231.0282 232.7244 232.7244 233.2096 234.3342 234.4180 234.4180
   234.8535 235.6882 235.6882 235.7661 235.8199 235.8199 235.8613 236.1053
   236.5880 236.5880 237.2080 237.2080 237.3600 237.6284 237.8335 237.8335
   237.8803 237.9886 237.9886 238.5554 238.8334 238.8334 239.2883 239.2883
   239.3065 239.3065 239.8003 239.9815 240.1201 241.0705 241.0705 241.1140
   242.5689 242.9102 243.2708 243.2708 243.4515 243.4515 243.7785 243.7785
   243.8098 243.8098 244.1081 244.1761 244.7514 245.0853 245.1805 245.1805
   245.1857 245.1857 245.5926 245.5926 245.6819 245.7331 245.7331 245.8830
   251.2656 251.3355 251.4109 251.4109 251.5663 251.5663 252.4588 252.4588
   252.7146 252.7146 252.8812 253.0458 253.1685 253.1685 253.2121 253.2700
   253.3623 253.3623 254.6927 254.6927 254.7402 254.7402 254.7564 254.8042
   258.8987 258.8987 259.0866 259.1034 259.1034 259.1232 259.1839 259.1839
   259.5845 259.6062 259.6825 259.6825 261.2281 261.6096 262.7929 262.7929
   262.8671 262.8671 264.2415 265.2014 265.2014 265.2112 265.2365 265.2365
   265.2522 265.5053 265.9552 265.9552 266.4147 266.4147 266.4741 266.4741
   266.7727 266.9411 267.0373 267.0373 269.5149 269.5149 269.7715 269.7715
   270.1980 270.1980 271.2444 271.2453 272.7224 272.7224 272.8182 272.8576
   272.8576 272.9989 273.1460 273.7225 273.8176 273.8176 273.9651 274.8062
   275.0279 275.0279 275.0435 275.1266 275.1266 276.1224 276.1224 277.0403
   277.0403 277.7311 278.4020 278.4020 278.4040 278.4040 278.5268 278.5327
   278.9926 279.3765 280.0593 280.0593 280.7187 280.8016 281.5132 281.5132
   285.1853 285.1853 285.1993 285.1993 287.4247 287.4247 287.4561 287.4561
   287.5806 288.2577 288.9007 289.0266 289.0266 289.0303 289.0303 289.0335
   289.3376 289.4018 289.8530 289.8530 290.1192 290.1192 290.6921 290.6921
   291.2506 291.2506 291.3530 291.3530 291.5173 291.5722 291.7673 291.9293
   291.9293 291.9939 292.0056 292.0410 292.0410 292.1025 292.1025 292.1300
   292.3803 292.3803 292.3946 292.4545 292.4545 292.4566 292.9394 293.0288
   293.0288 293.1115 293.1115 293.2719 295.9479 295.9479 296.2597 296.3635
   296.3635 296.3913 296.5377 296.8294 296.8294 297.0620 297.0620 297.1363
   300.6213 300.7296 300.7296 300.8036 300.8036 300.8150 302.1338 302.1338
   302.3614 302.5570 302.5570 302.6634 305.8027 305.8027 305.9675 305.9675
   305.9827 306.1093 306.2414 306.3239 306.3239 306.6003 306.6003 306.8031
   306.9581 306.9964 306.9964 307.1798 307.1798 307.2433 308.3354 308.3354
   308.4845 308.4845 308.5011 308.5069 308.5664 308.5664 308.5826 308.5993
   308.6468 308.6468 312.5163 312.6750 313.1368 313.1368 313.3951 313.4792
   313.4979 313.4979 314.4003 314.4003 314.5209 314.5209 315.5675 315.6251
   315.6251 315.6617 315.6617 315.7492 316.1864 316.1864 316.2775 316.2936
   316.2936 316.3019 317.3205 318.0826 320.2042 320.2315 320.2315 320.2751
   320.2751 320.4096 323.1788 323.1788 323.2348 323.2348 324.8440 324.8510
   324.8510 324.8582 324.8582 324.8744 324.9717 325.1582 325.2277 325.2277
   325.2443 325.2443 326.3618 326.3618 326.5953 326.8050 326.9058 326.9058
   328.0137 328.0200 328.0200 328.0552 328.0552 328.1839 328.4146 328.6682
   328.6682 328.7577 328.7577 328.9624 330.6570 330.6570 330.6664 330.6664
   330.6797 330.7194 331.6738 331.6738 332.1027 332.1077 332.1077 332.1681
   332.2116 332.2116 332.2587 332.3009 332.3009 332.7552 338.0308 338.0308
   338.1357 338.1357 338.1358 338.1558 338.1558 338.1782 338.1851 338.1851
   338.2054 338.2062 339.3528 339.3528 339.3887 339.4221 339.4262 339.4262
   341.4724 341.4767 341.4767 341.4870 341.4870 341.4945 342.7315 342.7315
   343.3334 343.3530 343.3530 343.5666 344.9297 345.0024 345.1819 345.1819
   345.2269 345.2269 345.8949 345.9340 346.0524 346.0524 346.0654 346.0654
   346.1621 346.1707 346.3061 346.3061 346.3449 346.3449 349.0199 349.0199
   349.0199 349.0199 349.0962 349.0962 351.8491 351.8839 352.9068 352.9068
   353.0964 353.0964 353.3905 353.3996 353.5123 353.5693 353.6510 353.6510
   353.7981 353.7981 353.9427 353.9427 353.9459 353.9459 354.6783 354.8784
   357.9647 357.9647 357.9889 358.0300 358.0300 358.0858 358.0858 358.1273
   358.1923 358.1923 358.5419 358.6793 358.8404 358.8489 359.0283 359.0283
   359.0735 359.0735 360.8815 360.9565 361.0958 361.0958 361.1342 361.1342
   361.2295 361.2295 361.4871 361.4871 361.5888 361.6104 362.0195 362.0195
   362.0469 362.0514 362.0514 362.0567 363.6477 363.6477 363.6518 363.6639
   363.6639 363.6846 364.3236 364.3236 364.3294 364.3294 364.3354 364.3543
   370.8660 370.8957 370.9241 370.9241 370.9471 370.9471 371.1095 371.1095
   371.1916 371.2263 371.2263 371.3784 371.3814 371.4522 371.4522 371.5136
   371.5461 371.5461 372.4348 372.4348 372.4607 372.6539 372.6539 372.8437
   375.5782 375.8019 375.8019 376.0682 376.0682 376.1927 376.8461 376.8895
   376.8895 376.9504 376.9574 376.9574 377.9610 377.9610 377.9658 377.9658
   377.9712 377.9771 378.3282 378.3520 378.3520 378.3910 378.4093 378.4093
   378.9211 379.0765 379.0765 379.1739 379.1953 379.4624 379.4624 379.7006
   382.0763 382.0763 382.0783 382.0783 383.4340 383.5250 383.5250 383.5725
   383.5926 383.5926 384.5639 384.5877 384.8075 384.8075 384.8314 384.8314
   386.4033 386.4033 386.4212 386.4384 386.4384 386.4914 386.9801 387.0106
   387.0106 387.0374 387.0374 387.0513 387.5943 387.5943 387.5956 387.5956
   387.7990 387.7990 387.8002 387.8013 387.8013 387.8022 389.2387 389.2388
   393.9726 394.0065 394.0065 394.0368 394.0368 394.0790 394.2088 394.3126
   394.3126 394.4751 394.4751 394.5365 397.6199 397.6199 397.6669 397.6725
   397.6725 397.7015 398.0204 398.0518 398.0518 398.1493 398.1493 398.2709
   398.5303 398.5530 398.5530 398.5916 398.5916 398.6284 398.8453 398.8453
   398.8849 398.9681 398.9681 398.9981 399.5373 399.6475 399.6475 399.8010
   399.8118 399.8118 401.6675 401.7214 401.7214 401.7882 401.7882 401.8441
   403.9154 403.9656 408.0376 408.0694 408.0694 408.1606 408.1606 408.1853
   408.1934 408.2882 408.2882 408.4557 408.4557 408.5964 408.8687 408.8687
   408.9174 408.9174 408.9475 409.0009 409.2428 409.2630 409.2630 409.3738
   409.3738 409.4540 409.4915 409.5637 409.5637 409.5906 409.5906 409.5999
   410.7643 410.7948 410.8119 410.8119 410.8299 410.8299 410.8320 410.8320
   410.8503 410.8503 410.8649 410.8685 410.9050 410.9050 410.9084 410.9084
   412.2970 412.2970 412.2981 412.2981 412.3083 412.3085 414.6716 414.6952
   414.6952 414.7288 414.7288 414.7506 418.2696 418.2696 418.2723 418.2723
   418.2760 418.3142 420.9849 420.9849 421.0197 421.0477 421.1239 421.1239
   424.0903 424.0903 424.1320 424.1320 424.1329 424.2135 424.9521 424.9693
   424.9693 424.9910 425.0067 425.0067 425.8203 425.8203 425.8431 425.8431
   425.8574 425.8830 425.8991 425.9203 425.9568 425.9568 425.9866 425.9866

          k = 0.0000 0.3333 0.0000 (  3627 PWs)   bands (ev):

    -8.5216  -8.5162  -8.5028  -8.5028  -8.5010  -4.7964   1.3145   6.1850
     6.1850   7.5162  10.3240  12.8110  12.8110  13.5930  16.4362  16.4362
    17.1511  17.6121  18.6734  21.0070  25.4345  25.8749  25.8749  26.4469
    29.0572  29.0572  31.0060  32.1057  32.1057  32.6983  34.1272  35.1618
    36.5742  36.8821  36.8821  37.0557  37.0557  37.6850  39.0936  39.5035
    39.7188  39.7188  40.4164  41.2297  42.3455  42.6054  42.8299  43.4226
    43.4226  46.0146  46.0146  46.3842  47.3530  48.2117  48.2117  48.6218
    48.6218  49.3750  50.6789  51.2897  51.2897  51.6062  52.7138  54.9929
    56.5179  56.5765  57.3331  57.3331  60.0373  60.0373  61.5139  62.7046
    62.9425  62.9425  63.9911  64.9425  65.6500  67.6966  67.6966  68.1509
    69.6943  69.6943  69.9026  70.1471  70.3143  70.6111  70.7201  70.7201
    71.9793  73.3430  74.2560  74.2560  75.3313  76.3868  76.4048  76.4048
    76.6250  76.6644  77.5497  77.6702  77.6702  79.0847  79.0847  79.9702
    80.5773  80.9776  81.3676  81.9359  81.9359  82.0063  84.1217  84.5061
    84.5061  84.6165  84.6165  85.2420  85.5982  85.9597  85.9597  86.4804
    86.6000  87.4378  87.4378  88.6967  89.1867  89.3031  89.8774  90.2215
    90.2215  90.5017  91.0354  91.0354  91.6603  92.7537  93.4781  93.4781
    96.6480  97.1461  97.5706  98.6195  98.6195  99.2737  99.5873  99.7216
    99.7216  99.9333 100.4064 101.1325 101.1325 101.9927 101.9927 102.0967
   102.9728 102.9736 103.8430 103.8430 103.9620 104.9439 106.1201 106.8140
   106.8140 108.7077 109.8378 109.8931 109.9912 109.9912 111.0214 111.0214
   111.0289 112.0151 112.7471 112.9091 113.7649 113.7649 115.0594 115.0594
   116.4784 116.8298 116.8298 117.0107 119.9917 120.2429 121.2751 121.5485
   121.5485 122.3874 122.3874 123.1854 123.2786 123.3274 123.7459 123.9583
   123.9583 124.2569 126.2529 126.2529 126.3511 127.2505 127.6416 127.6416
   128.1543 128.5093 130.2993 130.4320 130.4954 130.4954 130.5553 130.8666
   130.9656 130.9656 131.7000 132.1680 132.4815 132.4815 132.5634 133.0556
   133.0556 133.5703 133.9188 134.2146 134.4980 134.6414 134.6414 135.4204
   135.6633 135.6633 135.7250 136.7237 136.7237 137.2654 138.4427 138.4427
   138.6311 139.1869 140.3995 140.4409 140.4409 140.6754 141.5766 141.8618
   142.3570 142.3570 143.3603 143.7170 143.7170 145.4028 145.4691 145.5806
   146.5868 146.7893 146.7893 146.8159 147.0671 147.5474 147.5474 148.3212
   148.5140 148.5140 148.9429 148.9429 148.9960 149.5603 149.9803 150.2471
   150.5928 150.5928 151.0494 151.6610 152.2049 152.3379 152.3379 152.3407
   152.6681 152.6681 153.6041 153.7191 153.7191 153.8501 154.0410 154.3259
   155.2249 155.9517 155.9517 157.2095 157.6580 158.0885 158.0885 158.7132
   159.0336 159.3663 159.3663 159.4707 160.1262 160.1262 160.8238 162.0199
   164.2368 165.2501 165.2501 165.4071 165.5563 165.8010 165.8010 166.2753
   166.4631 167.0455 167.3145 167.3145 168.7697 168.7697 170.8429 171.0564
   172.4364 172.4364 173.2274 173.2506 174.2633 174.5768 174.8128 174.8187
   174.8187 175.3734 175.3734 175.6860 176.0302 176.0744 176.0744 176.3522
   176.5536 177.0387 177.0387 177.4211 178.7602 178.8893 178.8893 179.1785
   179.9418 179.9418 180.4268 180.4268 180.5075 180.7816 181.3232 181.4660
   181.4660 184.5892 184.8305 185.6856 186.0056 186.0056 186.3752 187.6791
   188.4651 188.4651 188.7326 188.8119 189.2451 189.2451 189.4635 189.5313
   190.0674 190.0674 190.3955 191.2039 192.9036 194.0295 194.0295 195.1110
   195.1471 195.1471 195.8167 196.5856 196.7339 196.7902 196.8962 196.8962
   197.2376 197.2376 197.2700 198.5318 199.0643 199.0643 199.5765 200.3077
   201.2240 201.7786 201.8025 201.8025 201.9631 201.9631 202.3386 202.6726
   202.8647 202.8647 203.2980 203.5904 203.7912 203.8599 203.8599 203.9451
   203.9960 203.9960 204.9034 205.3563 205.3686 205.3686 205.4178 205.5801
   206.2065 206.2065 206.4700 206.8243 207.2507 207.2507 207.7675 208.0913
   208.1936 208.1936 208.3278 208.6849 209.4206 211.7998 211.7998 212.1190
   212.3010 212.9877 213.0539 213.0539 213.3869 213.9707 214.2234 214.4453
   214.4453 215.0054 215.0327 215.0327 215.0511 215.3296 215.3296 215.3844
   215.4143 215.5419 215.5419 216.0260 216.0260 216.5572 216.7074 216.7780
   217.0246 217.0246 218.3926 218.5811 218.7014 218.7014 218.9368 219.0325
   220.0164 220.0164 220.1736 220.2383 221.2434 221.2434 222.1636 222.4122
   222.7364 222.7364 222.7659 223.0574 223.6689 223.8779 223.8779 223.9726
   224.4296 224.5758 224.7758 224.7758 226.2166 226.5436 226.5436 226.7073
   227.0404 227.6203 227.6203 228.3830 228.7217 229.0755 229.0755 229.2394
   230.1135 230.1135 230.1810 231.1158 231.3681 232.3888 232.4776 232.4776
   232.6486 233.0833 233.0833 233.8874 235.0604 235.2527 235.2527 235.3585
   235.5491 235.5491 235.7479 235.8989 236.0064 236.2964 236.2964 236.4095
   236.6663 237.6471 238.8241 238.8241 239.3732 239.6397 239.6397 240.3518
   240.3518 240.4821 241.1367 241.4362 241.5130 241.5130 242.3394 242.4163
   242.7511 242.8522 242.8522 243.0062 243.5970 243.5970 243.9052 244.8195
   244.8383 244.8383 244.9976 245.5324 245.5324 245.8394 246.2334 246.7193
   250.0955 252.1102 252.1982 252.1982 252.2521 252.3152 252.3209 252.3209
   252.7548 252.7548 253.1200 253.4754 253.6389 254.0190 254.1373 254.1373
   254.9118 255.7023 255.7023 256.2432 257.9318 258.0671 258.0671 258.0838
   259.4542 259.6879 259.7353 259.7353 259.9208 260.5890 260.6553 261.2037
   261.2037 261.6678 261.6678 261.6716 262.1124 262.6561 262.7582 262.7582
   262.9101 265.5971 265.5971 266.3555 267.2371 267.4809 267.4902 267.4902
   267.8673 268.2725 268.6728 268.6728 269.0498 269.7145 269.7683 269.8928
   269.8928 270.3400 271.2490 271.2490 271.6731 274.6339 274.6339 274.6396
   274.6917 275.1225 275.3090 275.3090 275.4218 276.0774 276.2428 276.4969
   276.4969 276.8889 276.9147 277.0192 277.0192 277.1188 277.1188 277.1260
   277.1678 277.4457 277.4457 277.5770 277.7791 278.2851 278.2851 278.3065
   278.4548 278.5691 278.6234 278.6234 279.2827 280.2504 280.6519 280.6662
   280.6662 280.9417 281.0830 281.0830 281.3996 281.4316 281.5618 281.5630
   281.5630 282.1371 282.2219 283.1023 283.1023 283.2765 283.3543 283.4480
   283.4480 283.4594 283.5061 283.5061 283.5225 286.0911 286.1934 286.1934
   286.2186 286.5063 286.7727 286.7727 286.8634 288.4945 288.6602 288.6602
   289.3343 289.5224 289.5981 289.6065 289.6065 289.6800 291.5610 291.6479
   291.6479 291.8306 291.8377 292.0025 292.0025 292.0295 295.4133 295.4133
   295.4199 295.5193 297.7349 297.7349 297.8679 298.3955 298.4191 298.4191
   298.4882 298.6446 298.7060 298.7276 298.7276 298.8231 299.8505 299.8505
   301.1072 301.4433 301.4433 301.4905 301.5000 301.5663 302.3911 302.3911
   302.5053 302.5116 302.5116 302.8757 304.0215 304.4612 304.4612 304.9558
   304.9639 305.5451 305.8618 305.8618 305.8832 305.9567 305.9567 306.6171
   306.6861 306.7485 306.7485 306.8034 306.8529 307.1637 307.1766 307.1766
   307.3786 308.5019 308.6613 308.6613 308.7505 309.0253 309.2127 309.2127
   309.2575 309.2608 309.5071 309.5071 309.8239 309.9452 310.0676 310.3430
   310.3430 310.4042 310.8469 311.2843 311.2843 311.3726 311.4250 311.4250
   311.4349 311.9283 311.9517 311.9517 312.0209 312.9692 312.9692 313.0409
   313.2107 314.8323 314.9360 314.9360 314.9902 315.1790 315.2583 315.2583
   315.3053 316.8163 316.9200 316.9555 316.9555 317.6868 317.8080 317.8080
   317.9322 318.7059 318.7428 318.7501 318.7501 319.9359 320.0873 320.1257
   320.1257 322.8738 322.9380 322.9441 322.9441 323.4768 323.4784 323.6733
   323.6733 323.9243 324.2173 324.2833 324.2833 324.3832 324.5560 324.5560
   324.6923 324.7609 324.8014 324.8095 324.8095 324.9029 326.2190 326.2190
   327.2505 327.8967 328.1498 328.1498 328.5243 328.9762 329.7955 329.7955
   329.8071 329.8620 330.2438 330.2438 330.7653 331.0742 331.0742 331.1426
   331.3516 332.2250 332.2565 332.2565 332.2930 332.9567 333.1966 333.2285
   333.2285 333.5208 333.6070 333.6187 333.6187 333.7232 333.7469 333.9833
   334.0034 334.0034 334.1091 336.1671 336.2141 336.2141 336.3102 336.3102
   336.5449 337.5745 337.6041 337.6541 337.6541 337.7034 339.1922 339.2060
   339.2060 339.2213 340.0788 340.0788 340.0813 340.1154 341.0780 341.1233
   341.1233 341.3577 341.5349 341.7275 341.7275 341.8021 344.8336 344.8336
   344.8339 344.8425 346.5135 346.5135 346.7775 348.1332 348.1793 348.2802
   348.2802 348.3104 348.4236 348.4236 349.5931 349.6060 349.6428 349.6428
   351.0053 351.4620 351.4620 351.6700 351.7858 351.7858 351.8152 351.8571
   352.3608 352.4983 352.5097 352.5182 352.5182 353.1026 353.1026 353.6244
   354.0299 355.4063 356.7750 356.8240 356.8240 356.9022 358.7419 358.7419
   358.7809 358.7985 358.7985 358.8254 358.8958 359.0406 359.7269 359.7440
   359.7440 359.7475 361.1345 361.2032 361.2032 361.2925 361.3066 361.3441
   361.3441 361.3622 362.1883 362.9586 362.9586 363.3850 363.3850 363.5266
   363.5930 363.9263 364.3719 364.5329 364.5590 364.5590 366.5443 366.5781
   366.5781 366.6343 366.7553 366.7901 366.7901 367.0754 367.5977 367.6014
   367.6016 367.6016 370.8641 372.1593 372.2889 372.2889 372.3594 372.5505
   372.5605 372.5605 372.6227 373.2382 373.2382 373.4139 373.5938 373.5938
   373.7421 375.1649 375.3001 375.3001 375.4022 376.2072 376.8976 377.1034
   377.1034 377.1149 377.1581 377.2717 377.2717 378.5977 378.8217 378.8217
   379.0932 379.4319 379.5795 379.5795 379.6509 380.9682 381.6605 381.7900
   381.7900 381.8537 383.1359 383.4197 383.4197 384.2234 384.2915 384.2915
   384.3788 384.6328 384.7811 384.7811 384.8006 384.9437 385.1231 385.1572
   385.1572 385.2187 385.7093 385.7448 385.7448 385.7896 386.0021 386.0973
   386.0973 386.2073 389.7907 389.7907 389.8762 389.9709 390.9419 390.9674
   390.9674 391.0004 391.1590 391.1917 391.1917 391.1936 391.5000 391.5000
   391.5028 391.5112 392.2602 392.2828 392.2828 392.2836 392.4809 392.7836
   392.7836 393.5443 393.6361 394.2622 394.2622 394.4938 394.8618 395.0026
   395.0026 395.2743 395.7855 396.6249 397.0944 397.0944 397.1757 397.1757
   397.2126 397.2146 397.3544 397.3544 397.8365 397.9001 397.9541 398.1045
   398.1045 398.1798 398.1869 398.2716 398.2716 398.3014 399.9161 399.9789
   399.9789 400.0053 400.1229 400.2382 400.2382 400.4236 400.4904 400.5976
   400.6196 400.6196 401.8213 401.8400 401.8400 401.8740 401.8760 401.9979
   401.9979 402.1123 402.9264 403.0589 403.0589 403.2038 403.2766 403.2766
   403.2796 403.3627 403.9105 404.0679 404.0679 404.1814 405.1060 405.1910
   405.1910 405.2453 405.4258 405.5806 405.5806 405.6091 405.6135 405.6157
   405.6291 405.6291 406.8994 409.0200 409.0740 409.0740 409.1019 409.2923
   409.2955 409.2955 409.2955 409.5636 409.5688 409.5688 409.5760 409.8643
   409.8643 410.3391 410.5034 410.5034 410.5227 410.5242 410.5642 410.9332
   411.1751 411.1751 411.2531 411.3282 411.3975 411.3975 411.8295 412.2168
   412.2377 412.2377 412.3159 413.5999 413.6178 413.6178 413.6917 414.2701
   414.2734 414.2734 414.2983 418.0497 418.0497 418.0575 418.0596 418.7567
   418.7606 418.7606 418.7662 421.3086 421.3653 421.3653 421.4274 421.5273
   422.3969 422.4459 422.4459 422.4875 422.4875 422.5332 422.6028 422.7251
   422.7251 422.8243 423.0057 423.0711 423.0711 423.1090 423.5184 425.2658
   425.8264 425.8264 425.8758 426.2782 426.3148 426.3148 426.3170 426.6381

          k =-0.1667 0.5000-0.1667 (  3599 PWs)   bands (ev):

    -8.5397  -8.5150  -8.5080  -8.4941  -8.4867  -4.4004   0.6121   6.0528
     6.0776   7.0078  10.2960  11.9365  12.1455  13.8918  17.2376  17.7601
    19.0556  19.3923  21.4168  21.9884  22.6907  24.4142  25.5327  26.8870
    27.2785  29.3814  29.4015  30.8539  31.5012  31.6708  33.5375  34.1113
    34.9590  35.7556  36.3001  36.6134  37.3944  37.6518  38.1551  38.2931
    39.0185  39.8202  40.9173  41.9537  42.4270  43.0782  44.0990  44.6372
    44.6478  45.7082  46.8629  47.0511  48.0005  48.6071  48.9073  50.0981
    50.3562  51.0593  52.6272  53.5308  53.5363  54.4516  55.6470  56.1947
    57.3329  57.6809  57.6840  58.2943  58.8365  60.2840  60.5456  60.6182
    60.8699  62.5413  62.7978  63.0288  63.8019  64.0081  64.4511  65.5577
    66.8943  66.9842  68.9446  69.0554  69.4924  70.3460  70.3993  71.2439
    71.8658  72.3193  72.5030  73.0026  73.4983  74.5697  75.8489  76.7272
    77.0854  77.4123  77.9029  78.3352  78.5831  78.8550  79.3436  80.4147
    80.5559  81.2727  81.3201  82.0552  82.2026  82.9669  83.7309  84.1118
    84.3184  85.1777  85.7817  85.8454  86.0445  86.3487  86.8225  87.0340
    88.3285  88.7285  89.0373  89.4549  89.7340  90.4764  90.9378  91.5173
    91.5530  91.7685  92.1714  92.8735  93.9243  93.9800  94.3406  95.1129
    95.4575  95.9458  96.1099  96.1714  96.9048  97.2204  97.8640  98.0842
    99.4211  99.8505 100.8552 101.6055 102.0003 102.6603 102.8931 103.8438
   104.4150 104.5819 106.1380 106.5384 106.6658 106.9815 107.4498 107.7751
   108.1048 109.0738 109.5182 109.6735 110.5184 111.4026 111.5162 111.5681
   112.3537 112.6830 113.4230 113.9164 114.3351 114.5948 114.6994 115.6089
   115.9287 116.8447 117.2728 118.1819 118.3174 118.7624 119.1046 119.2401
   119.3303 119.8306 120.3230 120.6257 121.0093 121.5156 121.7636 122.6593
   122.9073 123.1391 123.2521 124.1732 124.6117 125.1338 125.2403 125.5540
   125.7158 126.4234 126.7378 127.0508 127.5533 127.8886 128.2287 128.5170
   129.0593 130.8715 131.1696 131.2136 131.6679 132.3119 132.5331 132.6866
   132.8301 132.9880 133.1645 134.1668 134.4206 134.4259 134.7825 135.5149
   135.9054 136.4048 136.6894 137.0878 137.5544 137.8226 138.3293 138.7754
   138.9931 140.5067 141.4918 141.8318 142.1343 142.1779 142.6325 142.8247
   143.4524 143.9848 144.4099 144.5914 144.6387 144.9703 145.0134 145.2952
   145.6854 146.1202 146.3896 146.8556 147.1536 147.5959 147.7778 148.2335
   148.3616 149.1723 149.3570 149.7281 150.4662 151.0671 151.6462 152.0667
   152.5741 152.6747 153.1436 153.1505 153.4237 153.4479 153.7871 154.4368
   154.5108 154.6623 154.8922 155.1375 155.2588 155.7777 156.2654 157.3114
   157.6621 157.7328 158.0629 158.2617 158.3545 158.3832 158.9738 159.0245
   159.4804 159.6808 160.2011 161.6560 162.1329 162.4925 162.7094 162.7357
   163.7040 164.5581 165.0099 165.2588 165.3175 165.4849 167.0848 167.3987
   167.4625 167.9468 168.5083 168.5527 169.1857 169.6906 170.1502 170.5516
   170.6592 171.1838 171.5139 171.5437 171.7232 172.3501 172.7643 173.2904
   173.5271 174.1879 174.5060 174.6417 175.1885 175.3828 176.4520 176.7561
   176.9281 177.0817 177.3981 177.8365 178.0128 178.6902 179.1176 179.1541
   179.6873 180.9073 181.4648 181.7111 181.7150 182.6347 183.6489 184.2180
   184.7830 184.7987 185.1048 185.8363 186.1193 186.8936 187.6326 187.6947
   188.3644 188.6564 188.7524 188.8974 189.2755 189.4505 189.4996 189.7794
   189.8380 190.1829 190.4513 190.8856 191.0316 191.1427 191.5373 191.7528
   191.8452 191.9271 192.5740 192.9586 193.0407 193.2656 193.4904 193.9025
   194.9996 195.3000 195.4159 195.5162 197.5122 197.8350 197.8588 198.0144
   198.0509 198.2821 198.5880 198.9543 199.9710 200.2814 200.4178 200.4525
   200.7121 201.0638 201.5104 201.5645 202.0722 202.6178 202.8388 202.9650
   203.0777 203.3632 203.6138 203.8581 204.0890 204.4284 204.7029 204.8639
   204.9525 205.6280 206.0350 206.2044 206.3591 206.8144 206.9878 207.3074
   207.7830 207.9054 208.3792 209.0327 209.2592 209.4839 209.5087 209.8404
   210.2540 210.3593 211.1085 211.7119 212.0332 212.9203 213.1852 213.2121
   213.4822 213.5116 213.7194 214.8637 215.3201 215.3495 215.3854 215.6235
   215.6886 215.9032 216.2378 216.6722 216.8405 217.2182 217.4648 217.6337
   217.7215 218.1003 218.7151 219.5994 219.6744 219.8512 220.5587 220.6541
   221.6834 221.7211 221.9851 222.5490 222.7676 223.4445 223.9137 224.2122
   224.5336 225.1305 225.7267 225.9616 226.3903 226.4589 226.7167 227.2303
   227.4726 227.5263 228.0425 228.1040 228.6888 228.8567 228.9978 229.0851
   229.1228 229.4203 229.4643 229.8757 230.1137 230.3608 230.4133 230.6615
   230.6754 231.1823 231.7127 232.2730 232.4516 233.0874 233.2633 233.9177
   234.1467 235.5713 235.6793 236.5211 236.5258 236.6151 236.6835 236.6979
   237.0960 237.4952 237.6195 237.9290 237.9830 238.1108 238.2275 238.7373
   238.9796 239.3906 239.6956 240.4012 240.5264 240.7216 241.2601 241.4212
   241.5278 241.7723 243.4225 243.6659 243.8664 244.7106 244.8047 244.9493
   245.2697 245.8077 245.9458 246.0963 246.2142 246.5771 246.7622 247.0771
   247.0997 247.2701 247.4006 247.9387 248.4213 248.4430 248.8148 249.0721
   249.1723 249.6975 250.1533 250.1936 250.2270 250.5246 250.8585 251.3057
   251.4295 252.6771 252.8299 252.8693 252.9703 253.0304 253.0416 254.5593
   254.6530 254.9776 255.2899 255.4442 255.7202 255.8844 255.9288 256.8310
   257.7792 257.8772 258.7777 259.4778 259.5209 259.6463 259.9633 260.0941
   260.1554 260.1707 260.8207 261.5067 261.5803 261.6981 262.2853 262.4368
   262.5328 262.8196 262.8209 263.1676 263.3429 263.5863 263.7733 264.5895
   264.8577 265.0895 265.2466 265.7723 266.7134 266.8569 267.0982 267.3160
   267.5020 267.5576 267.8313 267.8498 268.3632 268.4251 268.7277 268.7659
   269.9101 270.1983 270.4727 270.5420 271.5242 272.1781 272.2652 273.4894
   274.1712 274.5365 274.5857 274.7200 274.9554 275.6314 275.7389 275.8297
   276.1392 276.8920 276.9244 277.0524 277.2603 277.7698 277.8475 278.5094
   278.6237 278.7614 279.2683 279.4214 280.9198 281.2876 281.5301 281.6766
   282.1382 282.3152 282.3486 282.5044 282.6448 283.1378 283.2731 283.4499
   283.5465 283.8149 284.1663 284.1800 284.2044 284.3784 284.7693 285.3501
   285.3842 285.9870 286.6576 286.8761 287.1491 287.3904 287.9175 287.9883
   288.1002 288.2838 288.3143 288.9251 289.1180 289.3116 289.7078 289.9010
   290.0450 290.0837 290.2681 290.5327 290.6189 290.7969 291.1298 291.4763
   291.7151 292.1032 292.1851 292.4123 292.6287 292.8530 293.3987 293.6910
   293.8620 294.8210 294.9066 295.0668 295.3086 295.4484 295.7027 296.0439
   296.0652 296.2491 296.8110 297.1741 297.4449 297.7432 297.7934 297.9249
   298.5797 299.0049 299.3981 299.4399 299.6527 299.9171 300.2479 300.4135
   300.4313 300.4961 300.7478 301.1125 301.2279 301.6163 301.6227 302.6438
   302.6833 302.9166 303.4137 303.5974 304.1509 304.6428 304.7837 304.9337
   305.0722 305.2181 305.8931 306.2931 306.4479 306.4666 306.8868 307.0024
   307.3055 307.3509 307.5460 307.6045 307.8338 308.0023 308.9616 309.0231
   309.2428 309.3335 309.5638 309.6214 309.8369 310.6640 310.6725 310.9418
   310.9672 311.2694 311.3096 311.7058 311.7372 312.6070 312.6871 312.8532
   312.9080 313.7205 313.8612 313.9979 314.2264 314.3663 314.8536 314.9383
   315.2245 315.4692 315.8177 315.9786 315.9810 317.0036 317.1147 317.1654
   317.2094 317.2183 317.4047 317.4055 317.6669 317.7704 317.7878 318.4133
   318.4510 318.6594 319.2714 319.2957 319.5361 320.3807 320.4806 320.8765
   320.8911 321.0014 321.0838 321.5512 321.5857 322.4502 322.4653 323.2314
   323.2435 323.9384 323.9421 324.3350 324.6909 324.9889 325.7494 326.2296
   326.4395 326.6054 326.7213 326.8071 326.9496 327.0309 327.5839 327.6155
   327.8044 327.9235 329.6587 329.6594 329.9283 329.9420 330.2317 330.6522
   330.8669 331.0845 331.3264 331.3468 331.3945 331.7040 331.7152 332.4727
   332.5112 332.8968 332.9305 333.0850 333.5534 333.7064 334.7395 334.7617
   335.0957 335.4015 335.4439 335.8117 336.6438 336.6450 336.7578 337.5866
   337.6024 338.0160 338.1983 338.3934 338.4111 338.9073 338.9202 339.6945
   339.7290 339.8932 340.1527 340.8443 341.8343 341.8893 341.9504 341.9733
   342.0350 342.8129 343.0037 343.4733 343.8976 344.1518 344.1684 344.6949
   344.9311 344.9637 344.9952 345.0045 345.3252 345.3818 346.0696 346.5300
   347.3686 348.2836 348.6108 348.6312 348.8165 348.9360 350.1165 350.1563
   350.1761 350.2489 350.5531 350.5684 350.6190 351.3035 351.3237 351.6964
   352.0285 352.4087 353.3207 353.3487 353.5415 353.5685 353.7004 353.7795
   353.9077 353.9323 354.0480 354.1233 354.6542 355.1262 355.1730 355.8244
   355.9011 356.2433 356.2872 356.5203 356.8546 357.0452 357.0670 357.2138
   357.3710 357.7075 357.7834 357.9666 358.3491 358.4655 358.7405 358.7775
   358.8568 359.0454 359.7821 359.8734 360.2435 360.2738 360.3269 360.4595
   360.6584 360.6640 360.9005 361.1946 361.6190 362.3798 363.9131 363.9413
   364.0471 364.5186 364.5453 365.2371 365.2781 365.3927 365.4279 365.5146
   365.5346 365.6105 365.6353 365.6462 365.6779 365.7528 366.5044 366.9187
   367.3104 367.3245 367.4658 367.6083 368.8714 368.8767 369.2633 369.4600
   370.1898 370.2232 370.4587 370.5613 371.0050 371.1065 371.2795 371.2825
   371.7306 371.7839 371.7954 372.3117 372.4367 373.0946 373.0980 373.2833
   373.5337 373.9353 374.1139 374.2414 375.2693 375.2765 375.6191 375.6614
   376.6661 376.7502 376.8543 376.8598 377.4390 377.4536 377.6107 377.6196
   377.8073 378.3781 379.6882 380.1511 380.4913 380.5800 381.1024 381.1280
   381.4546 381.4869 381.8820 382.1350 382.1582 382.8989 383.0189 383.1579
   383.1916 383.3706 383.7939 383.8063 383.9747 384.1509 384.1997 384.2622
   384.2855 384.3270 384.3309 384.8780 385.0971 385.5443 385.7765 385.7795
   386.1219 386.1357 386.5304 386.5333 387.0600 387.1646 387.7339 388.2181
   388.5676 389.1623 389.5474 389.8971 390.2168 390.9304 390.9311 391.1948
   391.3728 391.7095 391.9267 391.9328 391.9931 392.0007 392.4548 392.4556
   393.0442 393.0534 393.2586 393.3173 394.0411 394.1528 394.1987 394.2970
   394.5592 394.5722 394.8882 394.9721 395.3731 395.9573 396.1086 396.2083
   396.2444 396.3717 396.5133 396.5290 397.4791 397.5451 397.5479 397.7447
   397.7475 398.6569 398.9811 398.9821 399.1658 400.5174 400.5220 401.0514
   401.5134 401.5304 401.5519 402.0213 402.2074 402.4983 402.5663 402.6180
   403.5457 403.8425 403.8432 404.1320 404.3973 405.7089 405.7244 405.9645
   406.0707 406.1529 406.2529 406.4725 406.5546 406.6130 406.6857 406.7254
   406.7336 406.7348 406.8179 406.9160 406.9198 407.4035 407.7060 408.3019
   408.3097 409.8997 409.9502 409.9563 410.3515 410.3578 410.6841 411.1784
   411.6739 411.7183 411.9843 411.9945 412.4074 412.4161 412.7102 412.8169
   412.8686 413.0106 413.6405 413.7668 414.0623 414.0782 414.8696 414.8975
   415.1772 415.2509 415.4605 415.6230 415.6251 415.6847 415.7539 415.7851
   415.8799 416.0170 416.2306 416.2579 417.2270 417.5448 417.7563 418.0500
   418.0836 418.2017 418.2692 418.3669 418.7135 418.9846 419.0115 419.2398
   419.2572 419.3386 419.3972 419.4323 419.6356 420.3080 420.4594 420.4717
   420.6315 420.8968 420.9368 421.4523 421.5184 421.5884 421.8098 421.8137
   422.1144 422.1333 422.2539 422.3577 422.8701 423.0930 423.4525 423.5920
   423.7004 423.7838 423.9807 423.9816 424.0535 424.9557 425.3976 425.4059

          k = 0.6667-0.3333 0.6667 (  3610 PWs)   bands (ev):

    -8.5460  -8.5170  -8.5071  -8.4898  -8.4802  -3.9915  -0.0907   5.6763
     6.3235   6.9444  10.1387  11.0549  11.7053  15.2994  17.9799  18.7151
    19.0121  20.2611  22.3884  23.0295  23.5733  24.5586  25.6250  27.6894
    27.9649  28.2508  28.4769  29.3546  29.5293  30.7155  31.5657  31.7693
    32.5040  34.0448  35.1158  36.1624  37.0716  37.3902  37.9783  38.4993
    40.3226  40.7541  41.4169  42.0760  43.4745  44.6246  45.1774  45.5832
    46.4240  47.8178  47.8399  48.8395  48.9394  49.4563  49.7633  51.0660
    51.6468  51.9725  52.0191  52.8659  54.5899  54.8332  55.7468  55.9864
    56.3515  57.8069  57.8790  58.5943  59.0990  59.2811  59.7747  59.9525
    60.4320  61.8049  62.2992  63.5398  63.5617  64.0088  65.2607  65.3842
    65.5164  66.6678  66.7104  67.5940  68.1573  69.7337  69.9908  70.4710
    71.1007  71.5281  71.9732  72.5629  72.9318  73.6994  74.6776  74.9463
    75.6465  76.6137  76.9413  77.6834  78.0751  78.3291  79.0190  80.4078
    80.7326  80.8760  81.5385  81.7277  82.0638  82.2345  83.8050  84.1866
    84.3700  85.7467  85.8583  86.1193  87.3317  87.4142  87.4577  88.7778
    89.0844  89.7689  90.0873  90.3320  90.6782  90.9459  91.4423  91.5329
    91.8862  92.7086  93.6047  93.6381  95.2287  95.2992  95.4784  95.6636
    96.3229  96.5317  97.5206  97.6252  98.3816  99.4268  99.8245 101.0872
   101.3391 101.7749 101.8211 102.2392 102.6021 102.8004 103.4111 104.1064
   104.1308 104.5927 104.7005 105.4964 105.5259 105.8815 106.4857 106.5285
   107.5694 107.8229 108.7146 108.8945 109.7997 110.2762 111.3723 111.7584
   112.0452 112.1804 112.6774 112.6988 113.5059 113.6370 113.9758 114.9903
   115.3928 115.5483 116.2078 116.3466 116.7533 117.5322 118.1413 118.6093
   119.1102 119.3773 119.5450 120.8680 121.4969 121.6852 122.1842 122.6555
   122.8247 123.2987 123.8604 123.9961 124.6303 125.0252 125.0565 125.4991
   126.0776 126.1500 126.6813 127.1590 127.6614 127.9589 128.3905 129.0141
   130.1102 130.6233 130.8077 130.9083 131.1072 131.4083 131.4570 132.4939
   132.5364 132.6270 133.0150 133.3024 133.3864 133.9089 134.0307 134.7067
   134.9217 135.3039 135.6489 136.8814 136.9678 137.2276 137.8775 138.6869
   139.3686 139.9158 140.0867 140.2792 140.3601 140.8632 141.1558 141.9209
   142.4903 142.7038 143.0228 143.7988 144.3547 144.8130 145.2027 145.3145
   146.1380 146.1508 146.5371 147.2244 147.3713 147.8577 148.3388 148.4571
   148.9736 149.0853 149.5572 149.6128 150.5294 151.1312 151.3216 152.1417
   152.8190 152.8584 153.0705 153.2819 153.9088 154.0359 155.1182 155.1535
   155.7350 156.4240 156.7159 157.3774 157.8831 157.9687 158.2200 158.7431
   159.3053 160.0963 160.3691 160.3925 161.5339 161.6443 162.0884 162.1771
   162.5219 162.7224 162.9593 163.2541 163.8275 164.6041 165.0526 165.2211
   165.2567 165.2657 165.4989 165.6617 166.0525 166.0702 166.1176 166.4550
   167.3248 167.7429 168.2500 168.5711 170.0001 170.2713 170.7138 170.9533
   171.6093 171.8789 172.0081 172.6525 173.5051 173.7229 174.1821 174.5375
   174.7406 174.9884 175.1600 175.7888 176.1095 176.2987 176.8757 177.1916
   177.3526 177.7941 178.0792 178.2334 178.5812 178.6102 178.9634 179.1333
   179.5430 179.5485 179.6274 180.1402 180.5765 180.9952 181.1161 181.5839
   181.6122 181.8962 182.3386 182.5458 182.5799 182.8014 183.8362 184.4835
   185.1585 185.9737 186.0669 186.7499 187.1382 187.8145 188.0276 188.2600
   188.8425 189.4645 189.5817 189.6291 189.8165 190.4960 190.5411 190.9050
   191.0482 191.4974 191.5082 191.9823 192.1341 192.4047 192.6613 193.2822
   194.0401 194.0413 194.3960 194.5261 194.7481 194.9057 195.3057 195.7351
   196.1381 196.2253 196.6154 196.6617 197.3345 197.3929 198.0662 198.8709
   199.1203 199.7345 200.7690 201.3497 201.7474 201.9740 202.5232 202.5247
   202.6755 203.9438 203.9957 204.1930 204.5070 204.9331 205.3671 205.7548
   205.8505 206.0683 206.1627 206.2365 206.3408 206.6212 206.6749 206.7620
   207.1808 208.6193 208.7350 208.9896 209.3751 209.8458 209.9799 210.1734
   210.3521 210.3645 211.0770 211.4739 211.5994 212.9211 212.9662 213.5715
   214.4555 215.5173 215.6920 216.1001 216.7486 216.8903 216.8933 217.0455
   217.1144 217.4254 217.5887 217.6178 218.0585 218.2274 218.5632 218.8196
   219.1265 219.1795 219.3863 219.9930 220.4988 220.5448 221.1503 221.3705
   221.6551 222.1348 222.4297 222.5732 222.9323 222.9630 224.0635 224.2232
   224.7371 225.3320 225.8749 226.5300 226.8817 227.2176 227.3899 227.5948
   228.0412 228.3219 228.6851 229.1609 229.2990 229.8103 230.0733 230.1313
   230.4485 230.6919 231.0673 231.2272 231.9070 232.5194 233.0522 233.3900
   233.6193 233.9502 234.0349 234.2462 234.4334 234.5197 234.6838 235.4040
   235.5471 235.9963 236.0519 236.0903 236.2996 236.3774 236.6218 236.7863
   236.9149 237.3305 237.4430 238.0810 238.5181 238.6866 238.7118 238.9713
   238.9804 239.2437 240.5695 240.8993 240.9802 241.8763 241.9104 242.2210
   242.3929 242.9406 243.6988 243.7025 244.1224 244.6504 244.9527 245.2315
   245.2630 245.3244 245.4192 246.5294 246.5547 246.5911 246.9639 247.4537
   247.4915 248.5064 248.5239 248.6855 248.7080 249.0143 249.0905 249.8684
   249.8999 250.3636 250.6213 251.0075 251.0578 251.7875 252.0138 252.2221
   252.3268 252.5225 252.9993 253.4162 253.9093 254.4562 254.6011 254.9084
   254.9751 255.2450 256.0454 256.1144 256.5960 256.6494 257.2273 257.3494
   257.5215 257.8831 258.1474 258.1958 258.2515 258.5113 258.6266 258.7558
   258.8007 259.0222 260.0554 260.1346 260.2041 261.2966 261.3569 262.3881
   262.5585 262.5734 263.0751 263.3139 263.4529 263.8450 264.3154 264.5936
   264.6497 264.9927 265.4375 265.7611 265.9769 267.0267 267.1134 267.4289
[...]
   230.3446 230.5121 230.7243 230.7974 231.2904 231.4803 232.2423 232.2587
   233.2587 233.5181 233.7917 234.0381 234.3113 234.3670 234.5515 235.4424
   235.7128 235.7138 236.0035 236.0253 236.1820 236.4626 237.0766 237.2314
   238.8095 238.9153 239.2945 239.3592 239.6108 239.6113 239.8373 239.9590
   240.5226 240.7581 241.1175 241.9397 242.3462 242.6899 244.1852 244.2928
   244.4053 244.4342 244.5676 244.5952 244.7124 244.7622 245.3268 245.7561
   245.8394 246.1168 246.4711 247.6236 247.7544 247.7640 247.9902 248.0153
   248.0954 248.4328 248.4661 248.6250 248.6368 248.8190 248.8832 249.0933
   249.2117 249.2329 249.4339 249.6638 250.1154 250.5807 250.9582 251.2048
   252.8164 252.9421 254.4874 254.8994 255.1476 255.2620 255.6618 255.7662
   256.2396 256.6891 257.6296 257.6792 258.6029 258.6875 258.8665 258.9494
   259.4368 259.4849 260.3077 260.3505 260.7341 260.9325 260.9898 261.1066
   261.1921 261.2392 261.4017 261.4365 261.6556 261.9433 262.8242 262.8716
   263.0070 263.1030 263.5951 263.6527 263.8327 263.9743 264.7412 264.7561
   264.9955 265.2053 265.6209 265.7235 266.3715 266.5540 266.9808 267.1872
   267.5639 267.6247 267.9202 268.0060 268.0228 268.1053 268.6774 268.6866
   268.9674 269.0813 269.6825 269.9664 270.5702 270.7502 270.8682 271.0335
   271.2508 271.4767 272.1093 272.3709 272.3861 272.8419 273.1936 273.3227
   274.2690 274.2917 274.6239 274.8270 274.9335 274.9491 275.4274 275.5136
   275.9768 276.0603 276.2585 276.3430 276.4668 276.5730 276.7832 276.8693
   276.8729 277.0011 277.0793 277.3118 277.9619 278.0084 279.4761 279.5819
   280.2850 280.3158 280.9803 281.1268 281.6715 281.7430 282.1028 282.1048
   282.2923 282.3249 283.5455 283.7548 284.4194 284.4204 284.8238 284.9379
   285.4230 285.4310 285.8139 285.8918 286.0715 286.2564 286.6823 286.7835
   287.9242 288.0574 288.2918 288.4205 288.6012 288.6050 289.1232 289.2530
   290.0272 290.0565 290.2972 290.4239 291.2659 291.3752 292.0904 292.1721
   293.0832 293.0888 293.3573 293.4623 294.4782 294.5325 294.7771 294.7992
   294.8449 295.1359 295.2148 295.6613 296.8790 296.8885 297.0743 297.1211
   297.3276 297.5373 297.6385 297.7830 298.2461 298.3652 298.5225 298.8547
   299.4393 299.6558 300.4932 300.6929 300.8516 300.8527 302.3334 302.4406
   302.5196 302.5325 304.1468 304.2479 304.9803 305.0133 305.0220 305.1234
   306.5244 306.5690 306.6015 306.6142 307.2905 307.3605 307.6707 307.7649
   307.9177 308.5970 308.6945 309.4703 309.4816 311.0299 311.0771 311.6837
   311.7082 312.1716 312.2188 313.0537 313.2129 313.2465 313.7559 313.8141
   313.8609 313.9269 314.2236 314.3039 314.9536 315.2924 315.3600 315.7102
   315.7409 315.9231 316.0875 316.0929 316.8235 316.8799 317.0048 317.0539
   317.1243 317.1913 317.6725 317.8964 318.5398 318.6789 318.9033 319.0221
   319.0771 319.0775 319.3041 319.3344 320.0936 320.1435 320.6480 320.6706
   321.9130 321.9135 323.1847 323.2566 323.2833 323.3808 324.1242 324.2170
   324.2480 324.5968 324.7081 324.7264 325.2215 325.3846 325.7144 325.7201
   325.8696 325.9250 326.0993 326.1251 326.5994 326.6194 327.2390 327.2801
   327.9582 328.0050 328.6733 328.8804 328.9029 329.2203 329.2602 329.2712
   329.2947 329.4397 329.6040 329.6485 330.3734 330.8525 331.2882 331.3228
   331.6347 331.7116 332.8111 332.8137 333.9374 334.0049 334.8438 334.8793
   335.8897 335.9232 335.9779 335.9822 336.6180 336.6529 336.8147 336.8476
   337.7548 337.7721 337.9673 338.2280 338.2322 338.4859 338.5607 338.6005
   338.6397 338.6918 339.4456 339.4731 339.7563 339.9741 340.2408 340.2653
   340.2971 340.4185 340.8919 340.9340 340.9815 341.6561 341.7417 341.8604
   341.8684 342.7931 342.8687 342.8706 342.9197 343.1611 343.1720 343.3308
   343.6443 343.9117 344.2300 344.3818 345.0114 346.4466 346.6065 347.1925
   347.2219 347.3944 347.3981 347.4367 347.4656 347.6127 347.7843 347.9014
   348.0015 348.0594 348.6049 348.7811 348.9940 349.0175 349.2711 349.3357
   350.3378 350.3776 350.6940 350.7394 351.8029 351.8072 352.4890 352.4961
   352.8801 352.9205 354.1124 354.1209 354.9080 354.9400 355.3202 355.3697
   355.5095 355.5716 356.3033 356.3613 356.7749 356.7891 357.1907 357.1967
   357.3235 357.4121 357.8560 357.8575 358.0394 358.0539 358.3065 358.6631
   358.6687 358.7472 359.5054 359.5401 359.5569 359.5944 359.8631 359.8833
   360.5323 360.5661 361.6596 361.6664 362.4807 362.9765 363.0755 363.2691
   363.9900 363.9921 365.4051 365.4198 365.6834 365.7001 365.8103 365.8445
   365.8902 365.9098 366.0494 366.0717 366.3396 366.3680 367.5910 367.6081
   367.9323 367.9652 368.6901 368.9343 369.1819 369.1950 369.2022 369.2048
   369.7504 369.7553 370.4610 370.5123 371.0083 371.0346 371.1334 371.1564
   371.5103 371.5142 371.7804 371.7808 372.6260 372.6608 373.1472 373.3352
   373.4438 373.4599 373.4959 373.6330 374.4666 374.4814 375.0048 375.0255
   375.4890 375.4913 376.7720 376.7806 376.8271 376.8291 377.4673 377.4689
   377.5882 377.6070 378.1812 378.1829 378.3592 378.3672 378.4698 378.4775
   379.2113 379.2115 379.3567 379.3776 379.9087 379.9128 380.7495 380.7736
   381.1968 381.2033 381.9880 381.9972 382.1936 382.2066 382.8965 382.9059
   382.9425 382.9492 383.1908 383.2062 383.3100 383.3261 384.5106 384.5183
   384.9834 384.9889 385.2148 385.2199 385.9237 385.9448 386.5410 386.5439
   386.8710 386.9513 387.4289 387.4677 387.7077 387.7764 388.0957 388.0958
   389.3463 389.3652 389.4649 389.5133 389.9140 389.9183 390.0514 390.0615
   390.1370 390.1446 391.8421 391.8439 391.9441 391.9615 392.3952 392.5060
   392.6964 392.7015 394.4262 394.4517 394.7616 394.7666 395.2125 395.2553
   395.5228 395.5492 395.7493 395.9020 396.2436 396.2892 396.4594 396.4636
   396.8475 397.1771 397.3389 397.3474 397.7119 397.7161 397.8720 397.8824
   398.2437 398.2500 399.4981 399.5060 400.2276 400.2319 400.5510 400.5630
   401.1920 401.2230 402.4783 402.5133 402.6022 402.6022 402.8260 402.8562
   403.2820 403.2872 404.2996 404.3058 404.7307 404.7434 405.0202 405.0360
   405.1279 405.1286 406.2813 406.4548 406.4848 406.5813 407.1725 407.1885
   408.8937 408.8991 408.9975 409.0081 409.0581 409.1040 409.9552 410.0147
   410.0411 410.0459 410.1508 410.1508 410.6594 410.6933 410.7336 410.7538
   411.0779 411.0908 411.7936 411.8001 412.4126 412.4227 412.6163 412.6235
   413.5081 413.5202 413.9533 413.9660 414.5710 414.5820 415.1593 415.1678
   415.5443 415.7580 415.7594 415.8133 415.9048 416.5637 416.5901 418.1897
   418.1918 418.5417 418.5445 418.6627 418.6845 418.6901 418.7728 418.9585
   418.9912 419.9870 420.0116 420.7717 420.7729 421.1425 421.1787 421.1806
   421.3530 421.3533 421.8826 421.8832 422.2121 422.2610 422.5411 422.6873
   423.1903 423.1948 423.2501 423.2545 423.7274 423.7367 423.9263 423.9398
   426.4021 426.4048 426.7129 426.7198 427.4033 427.4055 427.9468 427.9614

          k =-0.3333-1.0000 0.0000 (  3628 PWs)   bands (ev):

    -8.5912  -8.5148  -8.4998  -8.4871  -8.4726  -3.7163   0.4993   3.8963
     4.7190   6.7559  11.2199  12.7152  13.7038  14.7638  17.5055  19.8534
    20.9905  21.1281  21.4684  22.3625  22.6374  24.7720  24.7790  25.6221
    27.5870  27.6056  27.6176  27.6872  29.5814  31.3262  31.4724  32.0877
    32.3545  33.3477  34.4857  35.7881  37.8470  38.2040  39.7322  40.2895
    40.6111  40.7060  42.1784  42.4270  42.9789  43.6652  45.6026  46.2168
    46.3762  46.5116  47.5282  48.1454  48.4034  49.9397  50.6107  51.6769
    51.8084  52.8493  53.0934  53.1979  54.0765  54.6568  54.9552  55.0816
    55.3371  57.6870  58.5006  58.7528  59.1683  60.4044  60.4800  61.7120
    62.2839  62.5503  62.6078  63.0676  64.0853  64.1808  64.5304  65.2388
    65.6186  66.6429  67.1161  67.3338  68.1064  68.6784  70.0266  70.5660
    70.6460  71.2275  72.2463  72.5868  73.9140  73.9243  74.5037  74.6387
    75.0427  75.2688  75.7861  76.0101  76.0358  76.1130  77.3909  77.9488
    78.9035  79.4223  79.5594  79.5662  81.3344  81.9791  82.7909  82.9304
    83.7322  84.9883  85.5141  86.3893  86.4909  86.9625  88.0487  89.5403
    90.1716  90.5376  90.8175  92.4129  93.0787  93.1494  93.6479  94.1258
    94.3670  94.5494  94.7118  94.9263  96.1915  96.2562  96.6382  96.7495
    97.1952  97.2378  97.5997  98.8265 100.0493 100.1906 100.9685 101.5716
   101.5995 102.1635 103.1963 103.6203 103.8310 103.9012 104.8136 104.9582
   105.0360 105.3635 105.4274 105.8638 105.9940 106.1810 106.6374 106.9951
   107.0507 107.6079 108.2943 108.4633 109.0741 109.6188 109.8457 110.0688
   110.6120 111.1623 112.3856 112.7019 113.1284 113.1716 114.6833 114.7492
   115.2419 115.8403 115.9528 116.0665 117.1367 117.2189 117.5839 118.1201
   118.7965 119.1355 119.3108 119.5892 119.6170 120.3676 120.5270 120.9865
   121.1224 121.3222 121.3831 122.1698 122.8235 123.0247 123.0885 123.3217
   123.7549 123.8950 124.8313 124.9771 125.3145 127.2999 127.3010 127.3824
   129.0633 129.5143 129.6594 129.8015 131.2712 131.5703 131.9046 131.9057
   132.0198 132.6399 133.7602 134.2833 134.3446 134.3626 134.9003 135.4899
   135.6976 137.0348 137.2366 137.6366 138.0279 138.0948 138.2134 138.6782
   140.3891 140.5223 140.9087 141.0369 141.2830 141.3248 141.4002 142.3127
   142.3819 142.7552 143.4502 144.3526 144.6160 144.9269 145.1167 145.8406
   146.4217 146.5606 146.5796 147.2814 147.4905 148.0876 148.4597 149.3157
   149.7160 149.9655 151.5783 152.1184 152.3951 152.5285 152.8107 152.9481
   153.3397 154.1081 154.1454 154.2297 154.9915 155.1380 155.3780 155.5833
   156.2025 156.7532 156.8504 157.5735 157.6602 157.8876 157.9431 159.1018
   159.9240 160.1438 160.3423 160.6777 161.1762 161.4853 162.7888 162.9628
   163.7321 163.9477 164.0628 164.2442 164.3783 164.8091 165.0262 165.8181
   166.4928 166.4990 166.8406 167.2367 167.4546 168.1725 168.4403 168.5072
   169.2035 169.2218 169.2492 169.3888 170.1484 170.2381 170.3636 170.4569
   170.7229 171.4600 171.7606 172.1413 172.7988 172.9465 173.0196 173.0777
   173.3958 173.9128 174.3357 174.3478 175.1187 175.2634 175.3463 176.7622
   177.2542 177.3738 177.7430 177.8028 178.2277 178.4841 178.5908 178.7007
   179.0160 179.2851 179.4232 179.5937 179.6170 179.9388 180.0764 180.7063
   181.0907 181.3262 181.5244 182.4472 183.0713 183.1696 184.2974 184.3087
   184.6832 184.9621 185.2409 185.3419 185.3605 185.3825 185.8096 185.9213
   185.9350 186.1262 186.3246 186.5622 186.7888 188.6993 188.8710 189.1129
   190.3332 190.4368 191.6468 191.9957 193.4964 193.6134 194.0478 194.0709
   194.7618 194.8205 195.1205 195.2426 195.3320 195.9268 196.7342 196.7656
   196.9338 197.2214 197.4794 197.8391 197.8623 198.3012 198.6376 199.0287
   199.4631 199.5510 199.7467 201.0558 201.3373 201.4304 201.7227 201.8037
   202.1600 202.5707 203.0708 203.3712 203.5491 203.6423 203.9813 204.1685
   204.6740 205.1508 205.3830 205.5699 206.0276 206.1984 206.6332 206.8449
   207.3908 207.5290 207.6604 207.9785 208.0483 208.4778 208.7686 209.1922
   209.8454 210.5922 210.6839 213.6195 213.7762 214.2831 214.2902 214.5556
   214.6961 215.8909 216.3163 216.5528 217.0677 217.0789 217.2821 217.3090
   217.3730 217.5903 217.6751 217.8425 217.9131 218.0324 218.9076 219.4673
   219.5975 220.0782 220.2077 220.4589 220.6445 221.2446 221.3810 222.0693
   222.6155 222.7387 223.0584 223.0950 223.2125 223.2483 223.4525 223.9645
   224.8872 224.9223 225.5968 225.9532 225.9546 226.4641 226.5830 226.8793
   226.9822 227.0271 227.0359 229.9098 229.9886 230.1680 230.2922 230.2990
   231.0596 231.1073 231.5169 231.6586 231.7447 231.8784 231.9252 232.0037
   232.0285 233.0772 233.1348 233.3128 233.6038 233.9163 233.9737 234.0492
   234.4211 235.1757 235.2065 235.4713 236.6205 236.9209 236.9352 237.0498
   237.6465 239.2953 239.6781 239.8311 241.1194 241.3524 241.5544 241.6187
   241.7251 241.7525 242.1234 242.4634 242.7583 243.2507 243.2623 244.7116
   244.8321 244.9470 245.1124 245.4183 245.4661 245.5825 246.2820 246.4290
   246.4390 246.8902 247.6371 248.0069 248.1731 248.4235 248.4666 248.8269
   248.9027 249.3675 250.0234 250.4717 250.4913 250.5050 250.9937 251.0712
   251.4476 251.4972 251.7017 251.9575 252.0884 252.2051 253.2157 253.3996
   253.5696 253.7738 255.2012 255.5022 255.9083 255.9789 256.6227 256.6513
   257.4763 257.4803 257.7502 257.9256 258.0464 258.1878 258.2702 258.3366
   258.5137 258.5612 258.6827 258.8366 258.8646 258.9197 259.0764 259.2156
   259.4912 259.5577 259.7572 260.2474 260.8654 261.1312 261.3433 261.3800
   261.7164 261.7403 261.7532 261.7817 261.7842 261.9906 262.5632 264.3423
   264.3449 265.1079 265.1715 265.1773 265.2124 265.3403 265.3852 265.4907
   265.5634 265.6573 266.6562 267.4955 267.5431 267.6369 267.6437 268.1251
   268.3324 268.9462 268.9643 269.3017 269.6630 269.7012 269.9521 269.9545
   270.1636 270.3401 270.4862 270.8257 271.4968 272.5011 272.5021 273.6073
   273.6464 273.7088 273.7386 273.8408 273.9256 274.7964 275.1601 276.6077
   277.1226 277.1980 278.1994 278.5541 278.6274 278.9072 278.9261 279.0321
   279.5735 279.5840 279.6624 279.7034 279.9197 279.9780 280.0180 280.1126
   280.4869 280.5949 281.2460 281.2463 281.6749 281.6935 282.2063 282.5897
   282.6606 282.8722 282.9006 282.9864 283.1538 283.1591 283.2823 283.3291
   283.4853 283.9477 285.6179 285.6422 285.6644 285.7320 286.0931 286.1707
   286.4118 286.5260 286.5630 286.6340 287.0457 289.7192 289.7466 289.7529
   289.7742 290.0696 290.2996 290.3034 290.7239 291.0595 291.2564 292.0917
   292.1421 292.7255 292.7682 292.9518 292.9539 293.3462 293.6211 294.4551
   294.4608 295.2173 295.3587 295.9399 296.0273 296.2016 296.2100 296.2263
   296.2630 298.1636 298.4826 298.5732 298.6500 298.8899 299.8896 299.8951
   300.7222 300.7253 301.0300 301.0602 301.8983 301.9083 302.6381 302.8706
   303.4542 303.5634 303.6009 303.9320 304.1362 304.4815 304.9307 305.1213
   305.2070 305.2450 305.3659 305.3845 305.4988 306.1365 306.4984 306.7958
   306.8697 307.0030 307.1528 307.4239 307.6712 308.2951 309.0385 309.1635
   309.2113 309.2883 309.4676 309.7402 309.7639 309.7663 311.8691 311.9768
   312.4035 312.5747 313.6557 314.0241 315.5739 315.7918 315.8123 315.8776
   315.9367 315.9685 316.9637 316.9663 317.8949 317.9765 319.8574 319.8990
   320.6178 320.7708 321.0014 321.1344 321.2358 321.4396 321.5163 321.5334
   321.5394 322.2702 323.2440 323.2983 323.3252 323.4286 323.4697 323.5569
   323.5664 323.6110 323.9732 324.0832 324.3719 324.4734 324.8523 324.8635
   324.9012 325.3129 326.1975 326.2297 326.4449 326.5089 326.7472 326.8927
   327.3853 327.4358 327.9017 327.9137 327.9424 328.0118 328.5095 329.1510
   329.2563 329.5540 329.7823 329.9746 330.0849 330.1130 330.4187 330.5340
   330.7380 330.8249 330.9201 331.0102 331.3332 331.3364 331.5112 331.5976
   331.8506 332.1028 332.1562 332.3656 332.3873 332.4862 332.4927 332.5219
   332.5406 333.2902 334.0674 334.2153 334.2726 336.3528 336.3731 336.3922
   336.3989 336.6330 336.7015 338.7847 338.8288 338.8859 338.9184 339.7653
   339.8011 339.8127 339.8221 340.3078 340.3164 340.4499 340.4586 341.0431
   341.1814 341.6330 341.7298 341.7615 341.7760 342.4712 342.5388 342.5554
   342.6320 342.6513 342.7176 342.7560 342.7754 342.8972 342.9891 343.5083
   343.5333 343.9980 344.0011 344.0190 344.3239 344.6265 344.7069 345.1684
   345.1892 345.1915 345.2231 345.8396 345.9959 346.0912 346.0990 346.2138
   347.2478 347.2718 347.2981 347.5081 348.3276 348.4086 348.7915 348.8313
   349.0157 349.0323 352.6384 352.7122 352.9492 352.9693 353.3450 353.4996
   353.5062 353.5101 353.9258 353.9801 354.5707 355.7403 355.7629 356.1136
   356.1225 356.1550 356.1576 356.1703 357.2675 357.5676 357.5713 357.6857
   357.7051 357.8859 358.0019 358.0804 358.0828 358.7004 358.7050 359.0027
   359.0558 359.7032 359.7378 359.7744 359.7864 359.8899 359.9146 359.9620
   359.9833 360.7894 360.7976 362.0887 362.1325 362.2843 362.5204 362.5338
   362.6101 363.1108 363.1916 363.2019 363.2440 363.4078 363.4653 363.5405
   363.5911 363.8730 364.0227 365.2570 365.2691 366.5738 366.5955 366.6689
   366.8283 367.8006 368.1089 368.3662 368.5226 368.5493 368.7078 368.9807
   368.9953 369.1789 369.1889 369.2346 369.2382 369.5991 369.6094 370.3301
   370.3627 370.4113 370.4181 370.8850 373.2298 373.6524 374.1772 374.1935
   374.2824 374.3053 374.7286 374.7502 374.8711 374.9687 375.0044 375.0612
   375.5151 375.5221 375.5939 375.6052 376.6385 376.6437 376.9041 376.9138
   377.1549 377.1563 377.5792 377.5878 377.5972 377.6015 377.8369 378.0056
   378.0216 378.0249 378.1854 379.9549 379.9725 380.6418 381.2501 381.5446
   382.0020 382.0171 382.5764 382.5909 383.0728 383.0770 384.0201 384.0357
   384.0917 384.1597 384.3293 384.3549 384.4933 384.5501 384.6956 384.7084
   385.3268 385.3337 385.5723 385.5737 385.9467 386.0174 387.0969 387.2350
   387.2400 387.6763 387.8317 387.8325 387.8410 387.8434 387.9220 387.9719
   389.2171 389.2699 389.6231 389.7050 389.8610 389.8808 390.2239 390.2401
   390.6386 390.9292 391.0234 391.1539 391.1602 391.1729 391.2141 391.2146
   391.2879 391.2914 391.3207 391.5347 393.1007 393.1623 393.3293 393.3658
   396.2027 396.2143 396.8597 396.8789 396.9021 396.9069 396.9850 397.0086
   397.3112 397.3139 397.6817 397.6834 397.9714 398.3989 398.8410 398.8452
   399.1934 399.1984 399.6990 399.7163 399.9420 399.9689 400.2008 400.2349
   401.1984 401.5258 402.0445 402.0729 403.3808 403.4087 404.4332 404.4399
   404.5917 404.6122 404.8807 404.8983 404.9137 404.9165 405.8720 405.8733
   406.1299 406.1313 406.2693 406.2702 406.5162 406.5369 406.8738 406.8763
   406.9298 406.9927 407.8706 407.9711 408.7569 409.4867 409.5007 409.7386
   409.7699 409.9211 409.9224 410.3311 410.5062 410.5300 410.5830 411.0913
   411.1316 411.2237 411.2383 411.5665 411.6040 411.6056 411.6269 411.9032
   411.9954 413.7850 413.7906 414.3013 414.3241 415.4632 415.8177 416.2146
   416.4636 416.4732 416.4874 417.0365 417.0641 417.0749 417.2104 417.3982
   417.4263 417.6931 417.7351 417.7804 417.7931 418.3905 418.4051 418.5255
   418.5279 419.7693 419.7948 420.1654 420.1674 420.6576 420.6582 421.6946
   421.7226 422.2999 422.3414 422.5042 422.5049 422.6504 422.7001 423.2922
   424.0704 424.0711 424.1957 424.2425 424.6797 424.7101 425.6645 425.6686
   426.1305 426.3385 427.1931 427.1967 427.8133 427.8309 427.8483 427.8491

     the Fermi energy is     8.4481 ev
     (compare with:     8.3284 eV, computed in scf)

     Writing all to output data dir out/mp-2201.save/
 
     init_run     :      0.03s CPU      0.07s WALL (       1 calls)
     electrons    :    599.36s CPU    635.95s WALL (       1 calls)

     Called by init_run:
     wfcinit      :      0.00s CPU      0.00s WALL (       1 calls)
     potinit      :      0.01s CPU      0.01s WALL (       1 calls)
     hinit0       :      0.01s CPU      0.04s WALL (       1 calls)

     Called by electrons:
     c_bands      :    599.36s CPU    635.92s WALL (       1 calls)
     v_of_rho     :      0.00s CPU      0.00s WALL (       1 calls)

     Called by c_bands:
     init_us_2    :      0.00s CPU      0.00s WALL (       8 calls)
     init_us_2:cp :      0.00s CPU      0.00s WALL (       8 calls)
     cegterg      :    575.81s CPU    610.79s WALL (       8 calls)

     Called by *egterg:
     cdiaghg      :    532.52s CPU    566.14s WALL (      94 calls)
     h_psi        :     12.40s CPU     12.95s WALL (     102 calls)
     g_psi        :      0.09s CPU      0.09s WALL (      86 calls)

     Called by h_psi:
     h_psi:calbec :      0.32s CPU      0.34s WALL (     102 calls)
     vloc_psi     :     11.64s CPU     12.15s WALL (     102 calls)
     add_vuspsi   :      0.27s CPU      0.28s WALL (     102 calls)

     General routines
     calbec       :      0.32s CPU      0.34s WALL (     102 calls)
     fft          :      0.00s CPU      0.02s WALL (      10 calls)
     fftw         :     10.59s CPU     11.06s WALL (  119122 calls)
 
     Parallel routines
 
     PWSCF        :  10m 0.19s CPU  10m37.34s WALL

 
   This run was terminated on:   7:52:51   3Jan2024            

=------------------------------------------------------------------------------=
   JOB DONE.
=------------------------------------------------------------------------------=
