
     Program PWSCF v.7.1 starts on  3Jan2024 at  0:45:19 

     This program is part of the open-source Quantum ESPRESSO suite
     for quantum simulation of materials; please cite
         "P. Giannozzi et al., J. Phys.:Condens. Matter 21 395502 (2009);
         "P. Giannozzi et al., J. Phys.:Condens. Matter 29 465901 (2017);
         "P. Giannozzi et al., J. Chem. Phys. 152 154105 (2020);
          URL http://www.quantum-espresso.org", 
     in publications or presentations arising from this work. More details at
     http://www.quantum-espresso.org/quote

     Parallel version (MPI), running on     8 processors

     MPI processes distributed on     1 nodes
     123122 MiB available memory on the printing compute node when the environment starts
 
     Reading input from pw_mp-2201_nscf_k10_E66.in
Warning: card &IONS ignored
Warning: card / ignored
Warning: card &CELL ignored
Warning: card / ignored

     Current dimensions of program PWSCF are:
     Max number of different atomic species (ntypx) = 10
     Max number of k-points (npk) =  40000
     Max angular momentum in pseudopotentials (lmaxx) =  4

     Atomic positions and unit cell read from directory:
     out/mp-2201.save/
     Atomic positions from file used, from input discarded
 
 
     R & G space division:  proc/nbgrp/npool/nimage =       8
     Subspace diagonalization in iterative solution of the eigenvalue problem:
     one sub-group per band group will be used
     scalapack distributed-memory algorithm (size of sub-group:  2*  2 procs)

 
     Parallelization info
     --------------------
     sticks:   dense  smooth     PW     G-vecs:    dense   smooth      PW
     Min         154     154     45                 3599     3599     547
     Max         155     155     46                 3603     3603     548
     Sum        1237    1237    361                28811    28811    4381
 
     Using Slab Decomposition
 


     bravais-lattice index     =            2
     lattice parameter (alat)  =      11.6816  a.u.
     unit-cell volume          =     398.5191 (a.u.)^3
     number of atoms/cell      =            2
     number of atomic types    =            2
     number of electrons       =        20.00
     number of Kohn-Sham states=         1200
     kinetic-energy cutoff     =      66.0000  Ry
     charge density cutoff     =     264.0000  Ry
     Exchange-correlation= PBE
                           (   1   4   3   4   0   0   0)

     celldm(1)=  11.681619  celldm(2)=   0.000000  celldm(3)=   0.000000
     celldm(4)=   0.000000  celldm(5)=   0.000000  celldm(6)=   0.000000

     crystal axes: (cart. coord. in units of alat)
               a(1) = (  -0.500000   0.000000   0.500000 )  
               a(2) = (   0.000000   0.500000   0.500000 )  
               a(3) = (  -0.500000   0.500000   0.000000 )  

     reciprocal axes: (cart. coord. in units 2 pi/alat)
               b(1) = ( -1.000000 -1.000000  1.000000 )  
               b(2) = (  1.000000  1.000000  1.000000 )  
               b(3) = ( -1.000000  1.000000 -1.000000 )  


     PseudoPot. # 1 for Pb read from file:
     /usr/scratch4/magr4985/MG/HTDF/pseudo/SG15/Pb.upf
     MD5 check sum: 7f27c247474026287e0dbe0f3167d60b
     Pseudo is Norm-conserving, Zval = 14.0
     Generated using ONCVPSP code by D. R. Hamann
     Using radial grid of  602 points,  8 beta functions with: 
                l(1) =   0
                l(2) =   0
                l(3) =   1
                l(4) =   1
                l(5) =   2
                l(6) =   2
                l(7) =   3
                l(8) =   3

     PseudoPot. # 2 for Se read from file:
     /usr/scratch4/magr4985/MG/HTDF/pseudo/SG15/Se.upf
     MD5 check sum: e78e48a4f5d8ce1f8dc76ec1271f249c
     Pseudo is Norm-conserving, Zval =  6.0
     Generated using ONCVPSP code by D. R. Hamann
     Using radial grid of  602 points,  6 beta functions with: 
                l(1) =   0
                l(2) =   0
                l(3) =   1
                l(4) =   1
                l(5) =   2
                l(6) =   2

     atomic species   valence    mass     pseudopotential
        Pb            14.00   207.20000     Pb( 1.00)
        Se             6.00    78.96000     Se( 1.00)

     48 Sym. Ops., with inversion, found



   Cartesian axes

     site n.     atom                  positions (alat units)
         1           Pb  tau(   1) = (   0.0000000   0.0000000   0.0000000  )
         2           Se  tau(   2) = (  -0.5000000   0.5000000   0.5000000  )

     number of k points=     3  Gaussian smearing, width (Ry)=  0.0005
                       cart. coord. in units 2pi/alat
        k(    1) = (   0.0000000   0.0000000   0.0000000), wk =   0.2500000
        k(    2) = (   0.5000000  -0.5000000   0.5000000), wk =   1.0000000
        k(    3) = (   0.0000000  -1.0000000   0.0000000), wk =   0.7500000

     Dense  grid:    28811 G-vectors     FFT dimensions: (  45,  45,  45)

     Estimated max dynamical RAM per process >     140.92 MB

     Estimated total dynamical RAM >       1.10 GB

     The potential is recalculated from file :
     out/mp-2201.save/charge-density

     Starting wfcs are random

     Band Structure Calculation
     Davidson diagonalization with overlap

     ethr =  5.00E-06,  avg # of iterations =  9.7

     total cpu time spent up to now is      376.4 secs

     End of band structure calculation

          k = 0.0000 0.0000 0.0000 (  3695 PWs)   bands (ev):

    -8.5123  -8.5123  -8.5123  -8.5052  -8.5052  -5.0612   1.9325   6.5473
     6.5473   6.5473  12.9285  12.9285  12.9285  14.8784  14.8784  14.8784
    16.5008  16.5594  17.2923  17.2923  28.0228  28.0228  28.0228  29.2444
    29.2444  29.2444  30.9202  30.9202  30.9202  32.2522  32.2522  35.0737
    36.7194  36.7194  36.7194  37.5863  39.5524  39.5524  39.5524  40.9514
    40.9514  41.7887  41.7887  41.7887  42.9876  42.9876  42.9876  43.7386
    43.7386  43.7386  44.4987  46.8375  46.8375  46.8375  46.9630  46.9630
    46.9630  47.5987  47.5987  48.4119  50.0213  50.0213  50.0213  52.8679
    56.1317  56.1317  56.1317  58.3313  58.3313  58.3313  62.9572  62.9572
    63.5881  65.8119  69.4178  69.4178  69.4178  69.9573  69.9573  69.9573
    70.3881  70.3881  70.3881  71.7586  71.7586  72.6617  72.6617  72.6617
    74.6253  74.6253  74.6253  75.9641  75.9641  75.9641  76.0883  76.0883
    76.0883  77.2994  77.2994  77.3262  77.3262  77.3262  78.1957  78.1957
    78.8018  79.2793  79.2793  79.2793  80.1845  80.2338  80.6121  80.6121
    82.0478  82.0478  82.0478  83.3255  83.3255  83.3255  85.8045  85.9236
    85.9236  85.9236  91.6719  91.6719  91.6719  92.8303  92.8303  92.8303
    93.3438  93.3438  93.8944  93.8944  93.8944  94.1142  94.1142  94.1142
    94.7343  94.7610  94.7610  96.4040  96.4040  96.4040  97.3815  97.6761
    97.6761  97.6761  98.4079  98.4079  98.4079 101.7669 103.5437 103.5437
   103.5437 104.8401 104.8401 104.8401 104.9814 104.9814 104.9814 108.0379
   108.0379 108.0379 109.5283 109.5997 109.5997 109.6837 109.6837 109.6837
   109.7168 110.5855 110.5855 111.0886 111.0886 111.0886 111.4965 111.4965
   111.4965 118.7051 118.7051 118.7051 121.5042 121.5042 121.5042 122.1552
   122.4089 122.4089 123.6835 123.7985 123.7985 123.7985 126.0141 126.0141
   126.0141 129.6576 129.6576 129.9658 129.9658 129.9658 130.2691 131.9077
   132.3993 132.3993 132.3993 132.4932 132.4932 133.0179 133.0179 133.0179
   133.0761 133.0761 133.0761 133.4985 133.9505 133.9505 133.9505 134.8373
   135.7274 135.7274 135.7274 137.0603 137.1484 137.1484 137.7818 137.7818
   137.7818 138.4951 138.4951 138.4951 138.7553 138.7553 138.7553 139.1811
   139.1811 139.1811 139.4309 139.4309 139.4309 139.9025 139.9025 140.0323
   140.0323 140.0323 140.4669 140.4669 140.4669 140.6936 140.6936 140.6936
   140.8730 140.8730 140.9413 140.9413 140.9413 141.1102 141.1102 141.1252
   141.2893 141.2893 141.2893 149.0768 149.0768 149.0768 149.1935 149.1935
   149.1935 149.2460 149.2460 149.8387 149.8387 149.8387 151.1391 151.6501
   151.6501 151.6501 153.8482 153.8482 153.8482 156.4102 157.1399 157.1399
   157.1399 157.1537 157.1537 157.2804 158.4371 158.4371 158.4371 160.9925
   160.9925 160.9925 161.7123 165.0707 165.0707 166.5071 166.5071 166.5071
   167.4060 167.6593 167.6593 167.6593 167.7730 167.7730 167.7730 168.1576
   168.1576 168.1576 168.2018 168.2018 169.0162 169.0162 169.0162 170.1101
   170.1101 170.1101 170.1224 170.1224 170.1224 170.1427 170.1427 170.3260
   170.3260 170.3260 170.7282 170.7282 170.9878 171.2151 171.2151 171.2151
   172.4210 172.4210 172.4210 175.1421 175.1421 179.4623 179.4623 179.4623
   181.0949 182.1902 182.1902 182.1902 182.8209 184.9238 184.9238 184.9238
   185.5914 186.3580 186.3580 186.3580 187.3874 187.3874 187.3874 190.7148
   190.7148 191.4016 191.4016 191.4016 191.4348 191.4348 191.4348 191.6326
   192.7879 192.7879 192.7879 193.7674 193.7674 196.8968 196.8968 196.8968
   197.1933 197.1933 197.1933 197.5354 197.5354 197.5354 197.8189 197.8189
   197.8189 197.9895 197.9895 197.9895 198.7476 199.5681 200.9834 200.9834
   200.9834 201.0599 201.0599 201.0599 201.3830 201.3830 201.4398 201.4398
   201.4398 201.4462 201.4462 201.4945 201.4945 201.4945 202.2125 202.2125
   202.2125 202.3073 202.3073 202.3073 202.3270 204.0147 204.0147 204.0153
   204.0258 204.0258 204.0258 209.7035 211.6003 211.6003 211.6003 212.8736
   212.8736 212.8736 213.8241 215.4610 215.4610 215.4610 215.4900 215.4900
   215.7679 215.7679 215.8279 215.8279 215.8279 215.8505 215.8505 215.8505
   215.9373 215.9373 215.9373 218.1591 218.1591 218.1591 218.6355 218.6355
   219.4547 219.4547 219.6603 219.6603 219.6603 219.6692 219.6692 219.6692
   219.8172 219.8172 219.8172 219.8225 219.8225 219.8225 220.1210 220.1210
   220.4547 220.5883 220.5883 220.5883 220.9307 221.1703 221.1703 221.1703
   221.3554 221.3554 221.3554 221.5459 221.6963 221.6963 221.6963 222.4551
   222.4551 222.4551 222.5623 223.7422 223.7422 223.7422 225.5215 225.5215
   225.5215 226.0577 226.1329 226.1329 226.1426 226.1426 226.1426 226.2554
   226.2554 226.2554 226.5628 230.0477 230.0477 230.5428 230.5428 230.5428
   230.8161 230.8161 230.8161 230.8993 230.8993 230.8993 231.2903 231.2903
   231.2903 231.3055 231.3055 231.6996 231.9651 231.9651 231.9651 231.9909
   231.9909 233.4864 233.4864 233.4864 233.5871 233.5871 233.5871 233.7011
   233.7011 233.7011 233.8100 233.8100 233.8100 234.8222 234.8960 234.8960
   234.8960 234.9114 234.9114 235.9557 235.9557 239.2714 239.2714 239.2714
   240.9195 255.6801 255.6801 255.6801 255.9062 255.9062 255.9062 256.5529
   257.0594 258.9440 258.9440 258.9440 259.0422 259.0422 259.1792 259.1792
   259.1792 259.3740 259.3740 259.3740 259.6264 259.6264 259.6264 260.2390
   260.2390 260.2390 260.4682 260.4682 260.7480 260.7480 260.9482 261.1710
   261.1710 261.1710 261.3094 261.9194 261.9194 261.9194 262.0136 262.0136
   262.0136 262.0162 262.0162 262.0162 262.4745 262.4745 262.4745 262.6718
   262.9038 262.9038 262.9038 266.0307 266.0307 266.1138 266.1138 266.1138
   266.2169 266.2169 266.2169 266.2871 266.2871 266.2871 266.3125 266.3125
   266.3818 266.3818 266.3818 267.2289 267.2289 267.2831 267.2831 267.2831
   267.3848 275.1894 275.1894 275.1894 275.2163 275.2163 275.2577 275.2577
   275.2577 275.3470 275.3470 275.3470 275.8787 280.0519 280.1442 280.1442
   280.1442 280.2075 280.2075 280.8242 280.8242 280.8242 281.1167 281.1167
   281.1167 281.1458 281.1458 281.1458 281.1935 281.1935 281.1935 281.4006
   281.4006 281.4006 281.4453 281.4453 281.5494 281.6553 281.6553 281.6553
   282.1915 282.1915 282.9190 282.9190 282.9190 284.2604 284.3660 284.3660
   284.3660 289.4784 289.6818 289.6818 289.9437 289.9437 289.9437 290.0036
   290.0036 290.0036 290.0137 290.0137 290.0137 290.0966 290.0966 290.0966
   290.1952 290.6929 290.6929 290.6929 291.2827 294.6609 294.6609 294.6838
   294.6838 294.6838 294.8001 294.8001 294.8001 294.8224 294.8224 294.8224
   294.9000 295.6606 295.6606 295.6606 295.8708 295.8708 295.8708 295.8763
   295.8763 295.8954 295.8954 295.8954 295.9147 296.5853 296.5853 296.5853
   296.8110 296.8110 296.9086 296.9086 296.9086 297.0555 297.0555 297.0884
   297.0884 297.0884 297.1075 297.1143 297.1143 297.1143 297.1452 297.1758
   297.1758 297.1758 297.1851 297.1851 297.1851 304.2210 304.2210 304.6610
   304.6610 304.6610 305.5356 308.8768 308.8768 308.8768 309.0010 309.0010
   309.0010 309.0172 309.0172 309.0172 309.0682 309.0682 309.0682 309.6686
   309.6686 309.8020 309.8798 309.8798 309.8798 310.0044 310.0044 311.3735
   311.5909 311.5909 311.5909 317.5326 317.5326 317.5326 317.6001 318.2786
   318.2786 318.2786 318.8336 321.0692 321.0692 321.0692 321.0852 321.0852
   321.0852 321.0986 321.0986 321.0986 321.2305 321.2305 321.4606 321.4606
   321.4709 321.4709 321.4709 323.4637 323.4637 323.4637 323.5055 323.5055
   323.5055 323.5337 323.5337 323.5337 323.5613 323.5613 323.5613 325.5023
   325.5023 325.5023 325.5403 325.5403 325.6903 325.6903 325.6999 325.6999
   325.6999 325.7000 325.7274 325.7274 325.7274 325.7358 325.7358 325.7358
   325.7534 325.7534 325.7534 325.8628 325.8628 326.0692 326.0692 326.0692
   326.5167 326.5167 326.5167 326.5176 326.5176 326.5176 326.5193 326.5193
   326.5193 326.6883 326.6883 327.0261 327.0908 327.0908 327.0908 327.1468
   327.2047 327.2047 327.2047 327.2417 327.2417 327.2417 327.2584 329.5957
   329.5957 329.6228 329.6228 329.6228 329.6979 329.9914 329.9954 329.9954
   329.9954 329.9976 329.9976 330.0119 330.0119 330.0119 330.0850 330.0850
   330.0850 330.1143 330.1143 330.1143 330.1740 330.1740 330.1740 330.3686
   330.3686 330.4521 330.4521 330.4521 330.5345 338.2147 338.2147 338.2147
   338.4574 338.4999 338.4999 338.4999 338.5441 344.9010 344.9010 344.9499
   344.9499 344.9499 345.0118 345.0118 345.0118 345.0122 345.0122 345.0122
   345.0960 345.0960 345.0960 345.1205 345.1205 346.6289 346.6289 347.0013
   347.0013 347.0013 347.1795 349.1557 349.1557 349.1557 349.3233 349.3233
   349.3233 349.3445 349.3445 349.3445 349.3555 349.3555 349.3555 352.1666
   352.1666 352.2071 352.2071 352.2071 352.2925 356.9592 356.9592 356.9612
   356.9623 356.9623 356.9623 359.3733 359.3733 359.3733 359.3748 359.3748
   359.3748 359.3816 359.3816 359.3816 359.3874 359.3874 359.3874 360.7447
   360.7447 360.7505 360.7505 360.7505 360.7586 371.9811 372.0300 372.0300
   372.0300 372.4160 372.4160 372.4160 373.2123 373.5161 373.5161 373.7370
   373.7370 373.7370 374.1104 374.1104 374.1104 374.2243 374.2243 374.2243
   374.3162 374.3162 374.3162 374.4509 374.4509 377.6306 377.6306 377.6419
   377.6419 377.6419 377.8610 377.8610 377.8610 378.1060 378.1060 378.1060
   378.3224 380.4286 380.4286 380.5914 380.6277 380.6277 380.6277 380.9352
   381.1752 381.1752 381.1752 381.7214 381.7214 381.7214 382.2506 384.8997
   384.8997 384.8997 384.9731 384.9731 384.9731 385.2268 385.2268 385.3386
   385.3386 385.3386 385.4025 385.4025 385.4025 385.5635 385.7695 385.7695
   385.7695 385.8284 385.8284 386.0357 386.0357 386.0357 386.1911 386.1911
   386.1911 386.3339 386.3339 386.9673 386.9782 386.9782 386.9782 387.3178
   387.3178 387.3178 387.5648 388.7053 388.7053 388.7053 388.7342 388.7342
   388.8174 388.8174 388.8174 388.8220 388.8220 388.8220 388.8516 388.8516
   388.8516 388.9331 388.9331 390.3159 390.3159 390.3201 390.3201 390.3201
   390.3420 390.3420 390.3420 390.3548 390.3550 390.3550 390.3550 390.7148
   390.7885 390.7885 390.7885 390.8770 390.8770 390.8770 390.9008 390.9008
   390.9050 390.9050 390.9050 402.4821 402.4821 402.4841 402.4841 402.4841
   402.5931 402.7622 402.7622 402.7622 402.7769 402.7769 402.7769 402.7823
   402.7823 402.7823 402.7921 402.7921 402.7921 403.6052 403.8369 403.8369
   403.8369 403.9620 403.9620 403.9620 404.0293 404.0293 404.0587 404.0587
   404.0587 405.5698 405.5698 405.5856 405.6367 405.6367 405.6367 405.6519
   405.6519 405.6519 405.7375 405.7375 405.7375 408.1307 408.1307 408.1307
   408.1416 408.1416 408.1416 408.1427 408.1427 408.1826 408.1826 408.1826
   408.2226 408.4422 408.5989 408.5989 408.5989 408.6299 408.6299 408.7936
   408.7936 408.7936 408.8502 408.8502 408.8502 409.1066 409.1066 409.1913
   409.1913 409.1913 409.2774 412.4714 412.4714 412.4714 412.6182 412.6182
   412.6182 412.6665 412.6665 412.6665 412.6957 412.6957 412.7432 412.7432
   412.7432 412.7517 412.8101 412.8101 412.8101 412.8681 412.8681 412.9095
   412.9095 412.9095 412.9680 416.3059 416.6415 416.6415 416.6415 416.9849
   416.9849 416.9849 417.5069 417.5069 417.5465 417.5465 417.5465 417.7613
   418.1969 418.1969 418.1969 418.3750 418.3750 418.3750 418.5338 418.5338
   418.5338 418.5626 418.5626 421.1981 421.1981 421.2721 421.2721 421.2721
   421.3113 421.3904 421.3904 421.3904 421.4208 421.4316 421.4316 421.4316

          k = 0.5000-0.5000 0.5000 (  3600 PWs)   bands (ev):

    -8.5276  -8.5276  -8.5091  -8.4817  -8.4817  -4.0655  -0.3529   6.9372
     6.9372   8.2695   8.6469  10.0418  10.0418  16.8129  18.4003  18.4825
    18.4825  20.0604  20.0604  24.2394  24.2394  25.7313  26.2190  26.9739
    26.9739  27.0918  30.2857  30.6570  31.5024  31.5024  31.6167  32.3007
    32.3007  33.5629  33.5629  34.3942  36.9023  36.9023  37.3823  37.7363
    40.8291  40.8291  42.0808  42.0808  42.7781  43.7656  43.7656  45.4493
    48.3750  48.9534  48.9534  49.1701  49.1701  49.3516  51.5746  51.5746
    51.6114  51.6114  52.6501  52.7372  54.1840  54.1840  54.5688  56.2543
    56.2543  57.0041  57.7955  57.8850  57.8850  58.0342  58.0342  60.3439
    62.2796  62.2796  62.4013  62.5276  62.5592  63.8153  63.8153  66.2278
    66.2278  67.2044  67.6970  67.6970  68.0681  69.7260  69.8083  70.3269
    70.3269  71.6869  71.6869  72.0233  73.5359  73.5359  74.8421  74.8421
    76.4943  78.9386  79.4636  79.4636  79.9461  80.7720  80.8439  80.8439
    81.4859  81.4859  81.5073  81.8657  82.1711  82.1711  83.3547  83.3547
    83.4765  83.4765  83.8764  84.6357  84.6675  86.2777  87.0025  87.0025
    89.1524  89.1524  89.1765  91.0580  91.6376  91.6376  91.9737  91.9737
    94.1082  94.1082  94.3721  94.3721  94.4149  95.9406  95.9406  96.1595
    96.2324  96.5931  96.5931  96.6349  98.0065  98.0065  98.1979  98.5613
   100.3251 100.3251 101.6274 101.6922 101.6922 102.5030 102.8830 102.8830
   104.3127 104.4752 104.4752 105.3014 105.3014 106.5283 106.9429 106.9429
   107.0120 107.0120 107.0932 108.7519 110.4660 111.5617 111.7649 111.7649
   112.6302 112.6317 112.6317 112.7500 112.7500 112.9297 112.9790 114.5915
   114.5915 114.7773 117.1233 117.1233 117.8733 119.1284 119.5856 119.5856
   120.3632 120.4950 120.4950 122.6190 122.6693 122.6693 123.2540 123.2540
   124.0599 124.0599 124.7480 125.3034 125.3034 125.4042 125.5954 126.2002
   126.2002 126.4421 126.4421 126.4571 126.6962 127.7676 127.9495 127.9495
   127.9954 127.9954 128.7103 131.6440 132.2923 132.2923 132.6096 133.2157
   133.2157 133.3748 134.5638 134.5638 134.5936 134.5936 135.6303 135.6303
   135.9445 136.0000 136.0000 136.0322 136.0964 137.1665 137.1665 137.9430
   137.9430 138.1242 139.4478 139.4478 139.9335 140.2509 140.2605 140.2605
   140.7671 141.6552 143.4984 143.4984 144.2669 144.2669 144.4295 145.6636
   145.6636 145.7921 147.1259 148.0518 148.0518 149.8404 150.2934 150.2934
   150.4005 150.4005 150.6963 150.8026 150.8601 150.8601 151.0287 151.2358
   151.4560 151.6505 151.6505 151.6800 151.6800 152.3112 152.3596 152.3596
   153.9085 153.9085 153.9525 153.9525 153.9825 156.8399 156.8399 157.8527
   157.8527 158.6787 160.3763 160.4380 164.1183 164.1188 164.1188 164.1406
   164.1406 165.1925 165.4658 165.4658 165.5523 165.5765 165.5765 165.6746
   165.7199 165.9129 165.9129 166.3557 166.3822 166.3822 167.4053 167.7575
   169.3102 169.3102 169.4411 170.2242 170.2242 170.3331 170.5134 171.4698
   171.4698 171.7170 172.2048 172.2048 172.3937 172.3937 172.4664 172.5145
   172.5145 173.0672 173.2351 173.2351 173.3559 173.3559 175.2660 175.4527
   176.1096 176.1096 176.1279 176.1279 177.3643 177.3646 180.5602 180.5602
   180.7509 180.7509 182.5337 182.7474 182.8459 182.8459 183.0653 183.0653
   184.2127 184.2500 184.2500 184.4241 184.4241 184.9416 184.9416 185.4217
   185.7353 186.4320 186.4320 186.9426 187.3441 187.3441 187.4291 187.4509
   187.4509 187.7154 188.3714 188.4322 188.4322 189.2996 189.3559 189.3559
   189.4273 191.6115 191.6115 191.7579 191.7579 191.9039 191.9648 191.9648
   191.9873 192.9569 193.7135 193.7135 196.5251 196.8414 196.8414 197.0893
   197.0893 197.1117 197.5655 197.5655 197.7584 197.7584 197.9288 198.4610
   202.4763 202.7798 202.7890 202.7890 202.9312 202.9312 204.1184 204.1184
   204.2155 204.3937 204.5852 204.5852 204.8187 204.8187 205.4346 205.6071
   205.7088 205.8961 205.8961 206.4180 206.4180 206.8522 206.9601 207.3167
   207.3167 207.6560 208.6914 208.6914 208.8030 209.5863 209.5863 209.7989
   210.0541 210.2076 210.2076 210.5216 211.3900 211.3900 212.3613 212.3613
   212.7714 212.7714 213.2657 213.9540 213.9540 214.1871 214.1871 214.4168
   217.2249 217.7024 217.7024 217.8581 217.8597 217.8597 219.7368 219.7846
   219.7846 220.2585 220.3566 220.3566 222.0434 222.0925 222.2357 222.2357
   222.2458 222.2458 223.3010 223.3812 223.3812 223.5285 223.5285 223.6103
   224.8884 224.8884 225.5098 225.6833 225.6833 225.6980 226.5542 226.5542
   226.7236 226.7236 227.1984 227.6617 230.4707 230.5456 230.9223 230.9223
   231.0282 231.0282 232.7244 232.7244 233.2096 234.3342 234.4180 234.4180
   234.8535 235.6882 235.6882 235.7661 235.8199 235.8199 235.8613 236.1053
   236.5880 236.5880 237.2080 237.2080 237.3600 237.6284 237.8335 237.8335
   237.8803 237.9886 237.9886 238.5554 238.8334 238.8334 239.2883 239.2883
   239.3065 239.3065 239.8003 239.9815 240.1201 241.0705 241.0705 241.1140
   242.5689 242.9102 243.2708 243.2708 243.4515 243.4515 243.7785 243.7785
   243.8098 243.8098 244.1081 244.1761 244.7514 245.0853 245.1805 245.1805
   245.1857 245.1857 245.5926 245.5926 245.6819 245.7331 245.7331 245.8830
   251.2656 251.3355 251.4109 251.4109 251.5663 251.5663 252.4588 252.4588
   252.7146 252.7146 252.8812 253.0458 253.1685 253.1685 253.2121 253.2700
   253.3623 253.3623 254.6927 254.6927 254.7402 254.7402 254.7564 254.8042
   258.8987 258.8987 259.0866 259.1034 259.1034 259.1232 259.1839 259.1839
   259.5845 259.6062 259.6825 259.6825 261.2281 261.6096 262.7929 262.7929
   262.8671 262.8671 264.2415 265.2014 265.2014 265.2112 265.2365 265.2365
   265.2522 265.5053 265.9552 265.9552 266.4147 266.4147 266.4741 266.4741
   266.7727 266.9411 267.0373 267.0373 269.5149 269.5149 269.7715 269.7715
   270.1980 270.1980 271.2444 271.2453 272.7224 272.7224 272.8182 272.8576
   272.8576 272.9989 273.1460 273.7225 273.8176 273.8176 273.9651 274.8062
   275.0279 275.0279 275.0435 275.1266 275.1266 276.1224 276.1224 277.0403
   277.0403 277.7311 278.4020 278.4020 278.4040 278.4040 278.5268 278.5327
   278.9926 279.3765 280.0593 280.0593 280.7187 280.8016 281.5132 281.5132
   285.1853 285.1853 285.1993 285.1993 287.4247 287.4247 287.4561 287.4561
   287.5806 288.2577 288.9007 289.0266 289.0266 289.0303 289.0303 289.0335
   289.3376 289.4018 289.8530 289.8530 290.1192 290.1192 290.6921 290.6921
   291.2506 291.2506 291.3530 291.3530 291.5173 291.5722 291.7673 291.9293
   291.9293 291.9939 292.0056 292.0410 292.0410 292.1025 292.1025 292.1300
   292.3803 292.3803 292.3946 292.4545 292.4545 292.4566 292.9394 293.0288
   293.0288 293.1115 293.1115 293.2719 295.9479 295.9479 296.2597 296.3635
   296.3635 296.3913 296.5377 296.8294 296.8294 297.0620 297.0620 297.1363
   300.6213 300.7296 300.7296 300.8036 300.8036 300.8150 302.1338 302.1338
   302.3614 302.5570 302.5570 302.6634 305.8027 305.8027 305.9675 305.9675
   305.9827 306.1093 306.2414 306.3239 306.3239 306.6003 306.6003 306.8031
   306.9581 306.9964 306.9964 307.1798 307.1798 307.2433 308.3354 308.3354
   308.4845 308.4845 308.5011 308.5069 308.5664 308.5664 308.5826 308.5993
   308.6468 308.6468 312.5163 312.6750 313.1368 313.1368 313.3951 313.4792
   313.4979 313.4979 314.4003 314.4003 314.5209 314.5209 315.5675 315.6251
   315.6251 315.6617 315.6617 315.7492 316.1864 316.1864 316.2775 316.2936
   316.2936 316.3019 317.3205 318.0826 320.2042 320.2315 320.2315 320.2751
   320.2751 320.4096 323.1788 323.1788 323.2348 323.2348 324.8440 324.8510
   324.8510 324.8582 324.8582 324.8744 324.9717 325.1582 325.2277 325.2277
   325.2443 325.2443 326.3618 326.3618 326.5953 326.8050 326.9058 326.9058
   328.0137 328.0200 328.0200 328.0552 328.0552 328.1839 328.4146 328.6682
   328.6682 328.7577 328.7577 328.9624 330.6570 330.6570 330.6664 330.6664
   330.6797 330.7194 331.6738 331.6738 332.1027 332.1077 332.1077 332.1681
   332.2116 332.2116 332.2587 332.3009 332.3009 332.7552 338.0308 338.0308
   338.1357 338.1357 338.1358 338.1558 338.1558 338.1782 338.1851 338.1851
   338.2054 338.2062 339.3528 339.3528 339.3887 339.4221 339.4262 339.4262
   341.4724 341.4767 341.4767 341.4870 341.4870 341.4945 342.7315 342.7315
   343.3334 343.3530 343.3530 343.5666 344.9297 345.0024 345.1819 345.1819
   345.2269 345.2269 345.8949 345.9340 346.0524 346.0524 346.0654 346.0654
   346.1621 346.1707 346.3061 346.3061 346.3449 346.3449 349.0199 349.0199
   349.0199 349.0199 349.0962 349.0962 351.8491 351.8839 352.9068 352.9068
   353.0964 353.0964 353.3905 353.3996 353.5123 353.5693 353.6510 353.6510
   353.7981 353.7981 353.9427 353.9427 353.9459 353.9459 354.6783 354.8784
   357.9647 357.9647 357.9889 358.0300 358.0300 358.0858 358.0858 358.1273
   358.1923 358.1923 358.5419 358.6793 358.8404 358.8489 359.0283 359.0283
   359.0735 359.0735 360.8815 360.9565 361.0958 361.0958 361.1342 361.1342
   361.2295 361.2295 361.4871 361.4871 361.5888 361.6104 362.0195 362.0195
   362.0469 362.0514 362.0514 362.0567 363.6477 363.6477 363.6518 363.6639
   363.6639 363.6846 364.3236 364.3236 364.3294 364.3294 364.3354 364.3543
   370.8660 370.8957 370.9241 370.9241 370.9471 370.9471 371.1095 371.1095
   371.1916 371.2263 371.2263 371.3784 371.3814 371.4522 371.4522 371.5136
   371.5461 371.5461 372.4348 372.4348 372.4607 372.6539 372.6539 372.8437
   375.5782 375.8018 375.8018 376.0682 376.0682 376.1927 376.8461 376.8895
   376.8895 376.9504 376.9574 376.9574 377.9610 377.9610 377.9658 377.9658
   377.9712 377.9771 378.3282 378.3520 378.3520 378.3910 378.4093 378.4093
   378.9211 379.0765 379.0765 379.1739 379.1953 379.4624 379.4624 379.7006
   382.0763 382.0763 382.0783 382.0783 383.4340 383.5250 383.5250 383.5725
   383.5926 383.5926 384.5639 384.5877 384.8075 384.8075 384.8314 384.8314
   386.4033 386.4033 386.4212 386.4384 386.4384 386.4914 386.9801 387.0106
   387.0106 387.0374 387.0374 387.0513 387.5943 387.5943 387.5956 387.5956
   387.7990 387.7990 387.8002 387.8013 387.8013 387.8022 389.2387 389.2388
   393.9726 394.0065 394.0065 394.0368 394.0368 394.0790 394.2088 394.3126
   394.3126 394.4751 394.4751 394.5365 397.6199 397.6199 397.6669 397.6725
   397.6725 397.7015 398.0204 398.0518 398.0518 398.1493 398.1493 398.2709
   398.5303 398.5530 398.5530 398.5916 398.5916 398.6284 398.8453 398.8453
   398.8849 398.9681 398.9681 398.9981 399.5373 399.6475 399.6475 399.8010
   399.8118 399.8118 401.6675 401.7214 401.7214 401.7882 401.7882 401.8441
   403.9154 403.9656 408.0376 408.0694 408.0694 408.1606 408.1606 408.1853
   408.1934 408.2882 408.2882 408.4557 408.4557 408.5964 408.8687 408.8687
   408.9174 408.9174 408.9475 409.0009 409.2428 409.2630 409.2630 409.3738
   409.3738 409.4540 409.4915 409.5637 409.5637 409.5906 409.5906 409.5999
   410.7643 410.7948 410.8119 410.8119 410.8299 410.8299 410.8320 410.8320
   410.8503 410.8503 410.8649 410.8685 410.9050 410.9050 410.9084 410.9084
   412.2970 412.2970 412.2981 412.2981 412.3083 412.3085 414.6716 414.6952
   414.6952 414.7288 414.7288 414.7506 418.2696 418.2696 418.2723 418.2723
   418.2760 418.3142 420.9849 420.9849 421.0197 421.0477 421.1239 421.1239
   424.0903 424.0903 424.1320 424.1320 424.1329 424.2135 424.9521 424.9693
   424.9693 424.9910 425.0067 425.0067 425.8203 425.8203 425.8431 425.8431
   425.8574 425.8830 425.8991 425.9203 425.9568 425.9568 425.9866 425.9866

          k = 0.0000-1.0000 0.0000 (  3572 PWs)   bands (ev):

    -8.6132  -8.5281  -8.4883  -8.4726  -8.4726  -3.7384   0.9495   3.5518
     5.2405   5.2405  12.1120  13.7820  13.7820  14.2072  19.5621  19.7191
    20.9727  20.9727  21.1143  21.5122  22.5407  23.2140  23.2140  25.7157
    25.7157  25.9999  27.2980  29.8182  29.8182  31.8811  32.9746  34.2454
    34.5885  35.8564  35.8564  37.6730  37.8081  37.8081  37.8650  37.8650
    37.9899  38.5526  41.3882  41.6957  42.9490  43.2663  45.0221  45.0221
    45.7958  47.7840  47.7840  48.4995  50.2090  51.4793  51.6326  51.8901
    51.8901  52.4691  52.4691  53.0485  53.3889  55.5701  55.5701  57.1792
    57.6292  57.7339  57.7339  57.8548  58.1313  59.0803  59.0803  59.4465
    60.1361  61.8287  61.8287  63.5579  64.9162  64.9910  67.0903  67.0903
    67.1659  67.1659  67.3313  67.5641  67.5641  68.8797  70.2106  70.4494
    70.4494  70.8996  71.9940  72.0307  72.6897  72.6897  72.9151  73.1791
    73.1791  74.1494  76.5733  77.2726  77.4144  77.6137  78.2004  79.6913
    79.6913  81.6608  81.8218  82.1787  82.4262  82.4262  83.2817  83.2817
    84.4187  84.5056  84.5056  84.5564  86.2602  86.2602  86.4037  86.5685
    86.5685  86.7299  87.5715  88.9743  92.8109  93.0970  93.3284  93.6977
    95.2916  95.2916  95.4966  95.4966  96.0038  96.1377  96.1804  96.1804
    96.4373  98.4907 101.7094 101.7646 102.7232 102.7979 102.7979 102.9299
   102.9299 103.0672 103.8210 103.8210 104.0145 104.0145 104.0488 104.1271
   104.1271 104.1953 104.8158 104.8185 104.8385 105.3551 106.3565 107.7659
   108.5121 108.5121 109.7509 110.1168 110.1168 110.4453 110.4453 111.9010
   112.5627 113.1083 113.1339 113.2112 113.2112 113.3981 113.4575 113.4575
   113.8271 114.2142 114.2443 114.2443 114.5997 114.7187 116.2289 116.4884
   118.5726 118.5726 118.8889 118.8889 118.9228 118.9696 119.9775 120.0770
   120.0770 121.1285 122.2390 123.8843 123.8843 124.2633 124.2633 124.6243
   124.6627 125.0544 126.2855 126.3463 126.3463 127.2013 127.2086 128.6623
   128.8953 128.8953 129.5942 129.5942 129.6463 130.3106 130.5233 130.6570
   130.6570 130.8034 131.0696 131.4343 131.5747 131.7447 132.1593 132.1593
   133.0804 133.0804 134.4278 134.5012 138.4723 139.4428 139.4428 142.3133
   142.7906 143.4163 143.4163 143.6556 144.4515 144.4515 144.8943 145.0616
   145.0763 146.0606 146.0606 146.0914 146.0914 146.3014 147.9543 147.9543
   148.3758 148.7862 148.7862 148.8751 148.8953 149.0601 149.0601 149.5400
   149.5400 150.7941 151.5995 151.8800 152.1686 152.5584 152.5584 152.8195
   152.8319 152.8383 153.0154 153.8526 154.8558 155.0833 155.5395 155.5395
   156.2555 156.2555 156.5450 157.5114 157.5114 157.6204 157.6432 157.7035
   157.7035 158.3741 158.4468 158.4814 158.4814 159.2752 161.5608 161.9437
   161.9437 162.0734 162.1212 162.4566 162.4566 162.5065 164.4807 165.2557
   165.2557 165.2701 165.8725 165.8725 166.1335 166.1831 167.1669 169.5867
   169.5867 169.6782 169.9483 169.9483 170.0276 170.2854 170.3165 170.3292
   171.1945 171.8758 171.8758 171.9478 171.9478 172.0486 172.0486 172.1643
   172.6078 173.2431 173.2431 174.6640 175.0899 175.2188 175.8106 175.8242
   175.9373 176.4342 176.4342 176.5684 176.5684 176.9122 177.0318 177.4281
   178.4822 178.5832 178.9496 178.9496 179.4613 182.1442 182.1442 182.1606
   182.3133 182.3133 182.7275 183.6307 183.6512 186.8534 187.1709 187.1709
   187.2056 187.5227 187.8779 187.8779 188.2410 188.2410 188.6821 189.3836
   189.4266 189.4266 189.5691 189.7373 190.0140 190.1060 190.5066 190.5066
   190.6683 191.0284 191.0284 191.5277 192.0497 192.0497 192.1331 192.7281
   194.0942 194.9088 194.9088 195.0798 195.1399 195.2984 195.4313 195.4313
   195.6809 195.6809 195.6908 196.2478 196.4068 196.4244 196.4244 196.5227
   201.1643 201.1643 201.4525 201.4525 201.5222 201.7874 202.4256 203.0254
   203.1633 203.4329 203.4329 203.4447 203.4447 203.8084 205.3222 206.2309
   206.3517 206.3517 207.4393 207.6919 207.6919 207.8484 208.2522 208.3182
   208.8006 208.8006 208.8159 208.8649 208.8948 209.1530 209.1530 209.3432
   209.4568 209.4568 209.5781 209.6654 209.9440 210.0875 210.0875 210.5131
   210.5870 210.5870 210.6046 210.6937 213.0726 213.0726 213.0796 213.2553
   213.2685 213.2712 213.2925 213.2925 217.2490 217.2490 217.4683 218.2397
   218.6262 218.6262 219.1904 219.1952 221.9002 221.9113 222.4537 222.6151
   222.6151 222.7290 222.7290 222.7667 222.7900 222.8891 222.8891 222.9710
   223.0043 223.1428 223.1428 223.4719 228.6970 229.3805 229.7272 230.1703
   230.1703 230.4052 230.6067 230.6067 231.3173 231.3173 232.4876 233.1729
   233.4525 234.2480 234.2754 234.2754 234.3858 235.1364 235.1364 235.2442
   235.5590 235.5590 235.7612 236.7695 237.5163 237.5163 237.5896 238.1189
   238.5963 238.6717 238.7780 238.7780 238.7871 238.8776 239.2465 239.4294
   239.4294 239.7668 240.0087 240.2471 240.2471 240.3503 240.5005 240.8586
   240.8586 240.9191 241.1583 241.3726 241.3726 241.4301 241.8550 242.8136
   243.1554 243.1554 244.2109 244.3300 244.5473 244.5473 244.5840 244.5840
   244.7448 244.7532 248.9306 248.9379 248.9379 249.1223 249.1223 249.7010
   250.0805 250.3350 251.0447 251.0447 251.4236 251.5684 251.6110 251.6905
   252.0274 252.1685 252.1685 252.2686 252.2686 252.3445 252.3445 252.5762
   252.7238 252.7503 253.8127 253.8127 254.1021 254.1795 254.3043 254.3237
   254.3770 254.3770 254.7107 254.9460 254.9460 255.0412 255.3799 255.4378
   255.7133 255.7133 255.8863 255.8863 256.1365 256.1560 256.6569 256.6569
   256.7752 256.7752 260.4045 260.4843 260.4843 260.5450 260.6016 260.6522
   260.6522 260.6596 261.4680 262.2183 262.2183 262.6434 262.9647 262.9666
   264.8350 264.8860 265.1857 265.1857 266.1158 266.1393 266.5596 266.5596
   266.6227 266.6227 267.1188 267.2462 269.7974 269.7974 270.3555 270.3931
   270.4385 270.4758 270.4758 270.6407 270.6518 271.0601 271.0756 271.0756
   271.1608 271.1608 271.4355 271.4561 271.9048 271.9048 271.9213 272.0863
   272.2002 272.2002 272.2009 272.2140 274.0031 274.0712 274.1564 274.1564
   274.1854 274.1854 274.2614 274.2983 275.4241 275.4241 275.4744 275.7167
   279.4823 280.3777 280.5932 281.3618 281.4784 281.4784 281.7573 281.8583
   281.8583 282.0904 282.1167 282.5566 282.5566 282.6133 282.6133 282.6591
   283.1993 283.1993 285.4125 285.4275 286.6641 286.8034 286.8034 286.8110
   286.9492 287.2708 287.3853 287.3853 288.0743 288.1232 288.1232 288.1970
   288.2384 288.2384 288.2438 288.3045 288.3554 288.3554 288.4392 288.5126
   289.1809 289.1930 289.1938 289.1938 290.1198 290.1242 292.4822 292.4822
   292.4868 292.4868 293.8464 293.8500 294.8840 294.9597 294.9597 295.4639
   295.8084 296.0108 296.0108 296.1570 298.8712 298.9321 298.9321 298.9742
   299.2942 299.4692 299.4692 299.8723 300.0569 300.1216 300.1216 300.2584
   300.3521 300.8075 300.8075 301.1045 302.1408 302.1408 302.1761 302.2731
   302.2731 302.3040 302.3140 302.3167 302.3957 302.4172 302.4172 302.4633
   303.3235 303.5847 303.7664 303.7664 305.1306 305.2118 305.9615 305.9885
   305.9885 306.0199 306.3520 306.3520 306.3588 306.5706 307.1202 307.2294
   307.3742 307.3742 309.8935 310.5706 310.5706 310.6294 310.9086 311.0683
   311.7376 311.7376 314.7841 314.7841 314.8447 314.8447 314.8487 315.0045
   315.3085 315.3473 315.3473 315.3704 315.3786 315.4636 316.3241 316.3613
   316.3642 316.3642 318.9413 318.9413 319.0778 319.1720 319.1720 319.2946
   319.6119 319.6517 319.6517 319.6836 319.6940 319.7294 320.0241 320.0639
   320.0639 320.1010 321.9247 322.0104 322.0232 322.0232 323.8101 324.1256
   324.2626 324.2626 324.5336 324.5336 324.6898 325.2177 328.0413 328.0572
   328.0572 328.1815 328.7349 328.7349 329.3589 329.5116 329.5116 329.5886
   330.0075 330.4609 330.4639 330.4639 330.5967 330.5967 330.8523 330.9366
   332.3566 332.3729 332.4333 332.4333 333.1440 333.3365 333.6697 333.6697
   333.7935 333.7935 334.2542 334.2694 334.3044 334.3109 338.4673 338.5687
   338.5687 338.5915 338.6890 338.7913 338.7913 338.8641 339.2033 339.2337
   339.2337 339.2520 339.3120 339.3262 339.3262 339.3331 343.5569 343.5966
   343.5966 343.7471 343.7571 343.7571 343.7827 343.8442 345.0901 345.1062
   345.2913 345.2913 345.3179 345.4143 345.4143 345.5178 345.5292 345.5292
   345.8404 345.8404 345.9660 346.0109 346.1726 346.2903 346.3952 346.4753
   346.6285 346.7923 346.7923 346.9613 347.0035 347.1043 347.1043 347.1922
   347.1922 347.2531 347.4590 347.4590 347.5389 347.5535 347.6072 347.6941
   348.5657 348.5657 348.6683 348.6683 348.6942 348.9174 348.9282 348.9282
   348.9414 348.9414 348.9438 348.9548 348.9557 349.1918 349.2801 349.2948
   349.3221 349.3946 349.3946 349.3999 349.3999 349.4795 349.5484 349.5484
   349.5838 349.7315 349.7868 349.8958 349.8958 349.9418 352.6458 352.6970
   352.6970 352.7273 352.7526 352.7784 352.7784 352.8074 354.7885 354.7945
   354.9403 354.9403 354.9420 354.9420 355.0242 355.0288 362.9900 363.0106
   363.0106 363.0481 363.0838 363.1136 363.1136 363.1504 363.7017 363.7334
   363.7334 363.7624 363.8768 363.8768 363.8811 363.8953 366.2059 366.2059
   366.3089 366.3191 366.4187 366.4238 366.4711 366.4711 366.5168 366.5631
   366.5631 366.6213 366.6411 366.7900 366.7900 366.8840 367.0500 367.1026
   367.1026 367.1769 367.2843 367.3440 367.3440 367.3768 367.3935 367.4831
   367.4831 367.6151 367.7590 367.9008 367.9008 367.9837 373.6471 373.6799
   375.3694 375.3694 375.3747 375.3747 376.0620 376.1472 376.1797 376.1797
   376.5239 376.5349 376.9266 377.0113 377.0210 377.0210 377.0740 377.0946
   377.1156 377.1156 377.5515 377.5745 377.5745 377.5804 378.1203 378.2607
   378.2607 378.2966 380.4881 380.5475 380.8727 380.8727 380.9032 380.9032
   381.1737 381.2140 382.3451 382.5331 382.5331 382.5630 383.0465 383.0837
   384.8217 384.8217 384.8251 384.8259 384.8289 384.8300 384.8300 384.8316
   385.2813 385.3580 385.3580 385.5075 386.5198 386.5379 386.5379 386.5535
   386.5803 386.5875 386.5875 386.5881 390.6703 390.7503 390.9773 390.9773
   390.9822 390.9822 391.5237 391.5270 392.0651 392.0945 392.0945 392.1435
   393.8829 393.9118 393.9583 393.9583 393.9809 393.9809 394.7135 394.7554
   395.5587 395.5701 395.5916 395.6202 395.6202 395.6328 395.6328 395.6389
   396.4392 396.5046 396.5046 396.6406 396.6570 396.8056 396.8056 396.8632
   397.0074 397.0151 397.2723 397.2723 397.2744 397.2744 397.6418 397.6445
   397.9202 397.9589 397.9589 397.9617 398.6062 398.6062 398.6316 398.6316
   399.0854 399.1157 399.1157 399.1891 399.3529 399.3647 399.3647 399.3753
   403.3849 403.5181 403.5181 403.7034 404.7443 404.7448 406.2148 406.3629
   406.3629 406.5089 408.9426 409.0280 409.0280 409.1337 409.3156 409.3274
   409.3530 409.3530 409.3994 409.4940 409.4940 409.5903 409.6544 409.6945
   409.6945 409.7283 411.6444 411.6444 411.7286 411.7839 411.9245 411.9843
   411.9843 412.0590 412.9214 412.9320 412.9431 412.9431 413.3765 413.4125
   413.4125 413.4182 414.1377 414.1394 414.1394 414.1482 414.3119 414.3264
   414.3264 414.3634 414.4220 414.4815 414.4815 414.5098 414.5266 414.5577
   414.5986 414.5986 421.3942 421.4354 423.3553 423.3553 423.3772 423.3788
   423.4269 423.4269 423.5215 423.5251 423.5912 423.5912 423.6524 423.6739
   423.7435 423.7435 423.7931 423.7931 424.0405 424.0903 424.1144 424.1144
   426.4026 426.4724 426.4943 426.5010 426.5010 426.5182 426.5951 426.5951
   426.7655 426.7730 427.9644 427.9677 427.9677 427.9852 427.9909 428.0055

     the Fermi energy is     8.3846 ev
     (compare with:     8.3284 eV, computed in scf)

     Writing all to output data dir out/mp-2201.save/
 
     init_run     :      0.06s CPU      0.08s WALL (       1 calls)
     electrons    :    349.56s CPU    376.11s WALL (       1 calls)

     Called by init_run:
     wfcinit      :      0.00s CPU      0.00s WALL (       1 calls)
     potinit      :      0.01s CPU      0.01s WALL (       1 calls)
     hinit0       :      0.02s CPU      0.03s WALL (       1 calls)

     Called by electrons:
     c_bands      :    349.56s CPU    376.10s WALL (       1 calls)
     v_of_rho     :      0.01s CPU      0.01s WALL (       1 calls)

     Called by c_bands:
     init_us_2    :      0.00s CPU      0.00s WALL (       3 calls)
     init_us_2:cp :      0.00s CPU      0.00s WALL (       3 calls)
     cegterg      :    341.70s CPU    367.83s WALL (       3 calls)

     Called by *egterg:
     cdiaghg      :    319.89s CPU    345.66s WALL (      32 calls)
     h_psi        :      6.74s CPU      6.93s WALL (      35 calls)
     g_psi        :      0.04s CPU      0.04s WALL (      29 calls)

     Called by h_psi:
     h_psi:calbec :      0.16s CPU      0.17s WALL (      35 calls)
     vloc_psi     :      6.39s CPU      6.57s WALL (      35 calls)
     add_vuspsi   :      0.14s CPU      0.14s WALL (      35 calls)

     General routines
     calbec       :      0.16s CPU      0.17s WALL (      35 calls)
     fft          :      0.01s CPU      0.02s WALL (      10 calls)
     fftw         :      5.78s CPU      5.95s WALL (   44904 calls)
 
     Parallel routines
 
     PWSCF        :   5m50.02s CPU   6m16.76s WALL

 
   This run was terminated on:   0:51:35   3Jan2024            

=------------------------------------------------------------------------------=
   JOB DONE.
=------------------------------------------------------------------------------=
