
     Program PWSCF v.7.1 starts on  5Apr2024 at 10:12:27 

     This program is part of the open-source Quantum ESPRESSO suite
     for quantum simulation of materials; please cite
         "P. Giannozzi et al., J. Phys.:Condens. Matter 21 395502 (2009);
         "P. Giannozzi et al., J. Phys.:Condens. Matter 29 465901 (2017);
         "P. Giannozzi et al., J. Chem. Phys. 152 154105 (2020);
          URL http://www.quantum-espresso.org", 
     in publications or presentations arising from this work. More details at
     http://www.quantum-espresso.org/quote

     Parallel version (MPI), running on     8 processors

     MPI processes distributed on     1 nodes
     241287 MiB available memory on the printing compute node when the environment starts
 
     Reading input from pw_ZrCl2_nscf_k0_E43.in
Warning: card &IONS ignored
Warning: card / ignored
Warning: card &CELL ignored
Warning: card / ignored

     Current dimensions of program PWSCF are:
     Max number of different atomic species (ntypx) = 10
     Max number of k-points (npk) =  40000
     Max angular momentum in pseudopotentials (lmaxx) =  4

     Atomic positions and unit cell read from directory:
     out/ZrCl2.save/
     Atomic positions from file used, from input discarded
 
 
     R & G space division:  proc/nbgrp/npool/nimage =       8
     Subspace diagonalization in iterative solution of the eigenvalue problem:
     one sub-group per band group will be used
     scalapack distributed-memory algorithm (size of sub-group:  2*  2 procs)

 
     Parallelization info
     --------------------
     sticks:   dense  smooth     PW     G-vecs:    dense   smooth      PW
     Min          62      62     15                 7596     7596     945
     Max          63      63     16                 7619     7619     970
     Sum         499     499    121                60875    60875    7629
 
     Using Slab Decomposition
 


     bravais-lattice index     =            4
     lattice parameter (alat)  =       6.4390  a.u.
     unit-cell volume          =    1592.7080 (a.u.)^3
     number of atoms/cell      =            3
     number of atomic types    =            2
     number of electrons       =        26.00
     number of Kohn-Sham states=         1200
     kinetic-energy cutoff     =      43.0000  Ry
     charge density cutoff     =     172.0000  Ry
     Exchange-correlation= PBE
                           (   1   4   3   4   0   0   0)

     celldm(1)=   6.438957  celldm(2)=   0.000000  celldm(3)=   6.889044
     celldm(4)=   0.000000  celldm(5)=   0.000000  celldm(6)=   0.000000

     crystal axes: (cart. coord. in units of alat)
               a(1) = (   1.000000   0.000000   0.000000 )  
               a(2) = (  -0.500000   0.866025   0.000000 )  
               a(3) = (   0.000000   0.000000   6.889044 )  

     reciprocal axes: (cart. coord. in units 2 pi/alat)
               b(1) = (  1.000000  0.577350  0.000000 )  
               b(2) = (  0.000000  1.154701  0.000000 )  
               b(3) = (  0.000000  0.000000  0.145158 )  


     PseudoPot. # 1 for Cl read from file:
     /usr/scratch4/magr4985/FGWC/FGWC/pseudo/SG15/Cl.upf
     MD5 check sum: 0f993535b366f580ecbcdacce103c843
     Pseudo is Norm-conserving, Zval =  7.0
     Generated using ONCVPSP code by D. R. Hamann
     Using radial grid of  602 points,  4 beta functions with: 
                l(1) =   0
                l(2) =   0
                l(3) =   1
                l(4) =   1

     PseudoPot. # 2 for Zr read from file:
     /usr/scratch4/magr4985/FGWC/FGWC/pseudo/SG15/Zr.upf
     MD5 check sum: ee74f20ae918ae65efd70112ea888f9c
     Pseudo is Norm-conserving, Zval = 12.0
     Generated using ONCVPSP code by D. R. Hamann
     Using radial grid of  602 points,  6 beta functions with: 
                l(1) =   0
                l(2) =   0
                l(3) =   1
                l(4) =   1
                l(5) =   2
                l(6) =   2

     atomic species   valence    mass     pseudopotential
        Cl             7.00    35.45300     Cl( 1.00)
        Zr            12.00    91.22400     Zr( 1.00)

     12 Sym. Ops. (no inversion) found



   Cartesian axes

     site n.     atom                  positions (alat units)
         1           Zr  tau(   1) = (   0.5000000   0.2886752   0.0000000  )
         2           Cl  tau(   2) = (   0.0000000   0.5773502   6.3856674  )
         3           Cl  tau(   3) = (   0.0000000   0.5773502   0.5033771  )

     number of k points=     1  Gaussian smearing, width (Ry)=  0.0005
                       cart. coord. in units 2pi/alat
        k(    1) = (   0.0000000   0.0000000   0.0000000), wk =   2.0000000

     Dense  grid:    60875 G-vectors     FFT dimensions: (  27,  27, 192)

     Estimated max dynamical RAM per process >     158.42 MB

     Estimated total dynamical RAM >       1.24 GB

     The potential is recalculated from file :
     out/ZrCl2.save/charge-density

     Starting wfcs are random

     Band Structure Calculation
     Davidson diagonalization with overlap

     ethr =  5.00E-06,  avg # of iterations = 13.0

     total cpu time spent up to now is       95.8 secs

     End of band structure calculation

          k = 0.0000 0.0000 0.0000 (  7629 PWs)   bands (ev):

   -50.0008 -28.2632 -27.7812 -27.7812 -18.1005 -17.5137  -7.4780  -5.4681
    -4.8934  -4.8934  -4.6537  -4.6537  -0.8825   0.8419   0.8419   1.6970
     1.6970   1.9824   3.2257   3.4327   3.9805   4.4331   5.2480   5.4595
     6.6627   7.6485   9.0773   9.0773   9.2798   9.5682  10.3589  10.7065
    10.7065  12.3919  12.6193  12.9585  13.6074  13.6074  13.9805  13.9805
    15.6211  15.8281  16.5361  17.1259  19.2782  19.2782  19.7721  20.0263
    20.0263  20.3062  20.3772  20.5229  20.5229  20.5834  20.5834  20.8150
    20.8304  20.9855  20.9855  21.0237  21.1429  21.1758  21.1758  21.3869
    21.5691  21.5691  21.6705  21.8075  21.8075  21.8277  21.8277  22.0544
    22.5294  22.5649  22.5649  22.8719  23.1592  23.1592  23.2864  23.2864
    23.3550  23.6886  23.6886  24.0489  24.0787  24.4463  24.4463  24.6779
    25.2423  25.2423  25.2546  25.3274  25.3274  25.6477  25.9069  26.2074
    26.2074  26.4829  26.4829  26.8890  26.9575  27.6241  27.6241  27.6911
    27.9184  27.9184  28.5800  29.0594  29.0817  29.0817  29.2790  29.2790
    29.9271  29.9441  29.9441  30.1641  30.9299  30.9299  31.1539  31.2017
    31.6571  31.6571  32.1762  32.2205  32.5724  32.5724  32.8408  32.8408
    33.1431  33.1444  33.9466  34.0068  34.0068  34.7048  34.7048  35.3976
    35.6017  35.6017  35.7437  35.8947  35.8947  36.2428  37.1025  37.1025
    37.4557  37.7101  37.9615  37.9615  37.9638  37.9638  38.7598  39.2985
    39.2985  40.0129  40.0491  40.0491  40.2274  40.7108  41.1976  41.5132
    41.5132  42.8222  42.8222  43.1141  43.3423  43.3423  43.5252  43.5594
    44.0614  44.8419  44.8419  45.2462  45.4935  45.9109  45.9109  46.2971
    46.4707  46.4707  46.7845  47.4884  47.7349  47.7349  48.1690  48.1690
    48.4883  49.3087  49.3087  49.3931  49.8596  49.8596  50.0413  50.1779
    50.1779  51.2019  51.2409  51.4144  51.6846  51.6846  51.8462  52.5570
    52.5570  52.8105  53.1234  53.1234  53.4387  54.0720  54.1059  54.1059
    54.1076  54.1076  54.2482  54.8370  54.8370  54.9612  55.3374  55.3374
    55.4681  55.5207  55.5637  55.5637  55.5644  55.5944  55.6182  55.6182
    55.7995  55.7995  55.8304  55.8304  55.8934  55.8934  55.9634  56.2141
    56.2141  56.2443  56.6015  56.6785  56.7377  56.7707  56.7990  56.7990
    56.9711  57.0526  57.0526  57.2482  57.2482  57.2703  57.2703  57.7130
    57.8233  57.8233  58.5211  58.5211  58.5336  58.5336  58.6614  58.6967
    58.7190  58.7847  59.0489  59.0489  59.1726  59.3449  59.3449  59.4156
    59.4156  59.5106  59.8270  60.2637  60.2637  60.4088  60.4088  60.4122
    61.3381  61.3416  61.5141  61.5141  61.5979  61.5979  61.8182  61.8716
    61.9485  62.2673  62.2673  62.4370  62.4889  62.4889  62.5055  62.5055
    63.3315  63.3315  63.4829  63.4829  63.9635  64.1057  64.1057  64.1617
    64.2524  64.6295  64.6375  64.6595  64.6595  65.0695  65.0695  65.4919
    65.9781  65.9781  66.5599  66.5599  66.5692  66.9980  67.1471  67.1471
    67.4124  67.5437  67.8042  67.8042  68.4219  68.4219  68.4927  68.5147
    68.5594  68.6250  68.9383  68.9383  69.6088  69.6359  69.6359  69.7283
    69.7283  70.0946  70.0946  70.3213  70.3213  70.4666  70.5687  71.1964
    71.1964  71.2497  71.2497  71.4730  71.5130  71.6598  71.6598  71.9921
    71.9921  72.1692  72.5151  72.6059  72.6059  72.6120  72.6120  72.7023
    72.8039  72.8039  72.8564  72.8934  72.9028  72.9350  72.9350  72.9425
    72.9425  73.0813  73.0854  73.4853  73.4853  73.6190  73.6455  73.6455
    73.6865  73.6865  73.7845  73.7845  73.8874  73.8890  73.9713  74.2854
    74.6412  74.7735  74.7735  74.8652  74.8652  75.2188  75.2188  75.3594
    75.3782  75.3782  75.7402  75.7840  75.7899  75.9405  75.9405  75.9619
    75.9753  75.9753  76.0723  76.5193  76.5193  76.6592  76.6592  76.9191
    77.1975  77.1975  77.4764  77.6059  77.6059  77.7820  77.8444  77.8994
    78.0615  78.0615  78.0850  78.0850  78.1801  78.3919  78.3919  78.4163
    78.4163  78.6196  78.6196  78.6402  78.6402  78.6444  78.7314  78.9057
    79.0133  80.4038  80.4038  80.4229  80.4229  80.5206  80.5773  80.5773
    80.7626  80.9088  80.9088  81.5400  81.6286  81.6286  81.6442  81.7167
    81.8237  82.2013  82.2013  82.8218  82.8218  82.9437  82.9437  82.9870
    83.1698  83.4764  83.7656  83.7656  83.8252  83.9745  84.1077  84.3464
    84.3464  84.5534  84.5534  84.8986  84.8986  84.9249  84.9918  85.4320
    85.4320  85.5430  85.5510  85.5510  85.7686  85.8963  86.2348  86.2348
    86.5342  86.5342  86.6559  86.8487  86.8487  87.0292  87.0292  87.2523
    87.4778  87.7891  87.9648  87.9648  88.1444  88.1444  88.8529  88.8807
    88.8807  88.9186  89.4244  89.4244  89.6516  89.6516  89.7876  89.8989
    89.9797  89.9962  89.9962  90.1426  90.1426  90.2436  90.4864  90.8270
    91.1971  91.1971  91.2563  91.7130  91.8124  92.0632  92.0632  92.9590
    92.9590  93.2999  93.2999  93.3206  93.7357  93.7357  93.9527  93.9527
    94.2517  94.2517  94.3983  94.3983  94.4946  94.6219  94.9052  94.9052
    94.9496  95.2175  95.6246  95.6794  95.6794  95.8897  95.8897  96.0567
    96.1112  96.1112  96.1329  96.1329  96.5607  96.5794  96.5794  96.6264
    96.9610  97.2790  97.5416  97.7585  97.7585  98.5991  98.5991  99.3289
    99.6332  99.6912  99.6912  99.7650  99.9226  99.9226 100.1961 100.1961
   100.4971 100.5680 100.8390 101.2985 101.4236 101.4601 101.4601 101.5384
   101.8600 101.8600 101.9497 101.9497 102.4098 102.4098 102.7261 103.0827
   103.0827 103.0901 103.0901 103.5769 103.5769 104.0190 104.3144 104.3196
   104.3196 104.3869 104.4353 104.5348 104.5348 104.7634 104.9516 104.9516
   105.4605 105.4605 105.7290 106.0990 106.0990 106.1631 106.1631 106.2621
   106.5347 106.5347 106.6583 106.8656 106.9558 107.4968 107.4968 107.7266
   107.8414 108.2616 108.2616 108.2942 108.5259 108.5259 109.3234 109.3234
   109.3982 109.3982 109.7255 109.9233 109.9233 110.2535 110.5567 110.5567
   110.8744 111.0122 111.1442 111.1930 111.1930 111.8925 111.9717 112.1999
   112.2109 112.2109 112.4781 112.4781 112.8561 112.9642 112.9642 113.1218
   113.3347 113.3347 113.4860 113.5081 113.5081 113.8748 113.8748 114.2622
   114.3878 114.3878 114.6360 114.7838 114.8670 114.8670 115.0522 115.3025
   115.3025 115.4294 115.4294 115.7383 115.9786 115.9786 116.4492 116.4492
   116.7164 116.7557 116.7557 116.9571 117.2649 117.2649 117.9257 118.1137
   118.2033 118.2033 118.3232 118.3232 118.4252 119.0637 119.0752 119.3932
   119.3932 119.8762 119.8762 119.9080 119.9274 120.2415 120.4866 120.5722
   120.5722 120.6464 120.6464 121.1616 121.1616 121.4414 121.4414 121.4791
   121.6782 121.6990 121.8808 121.8808 122.1205 122.1800 122.1800 122.2935
   122.3889 123.1397 123.1649 123.4618 123.4618 123.6828 123.6828 123.6985
   123.6985 123.8181 123.8181 123.8790 124.1668 124.1668 124.1908 124.2284
   124.2284 124.2548 124.2666 124.4947 124.4947 124.5046 124.5620 124.5620
   124.5943 124.6228 124.6247 124.6247 124.6688 124.6688 124.7023 124.7023
   124.7336 124.7336 124.7377 124.7421 124.7548 124.8846 124.8846 124.8851
   124.8851 124.8922 125.1315 125.1315 125.1923 125.1923 125.2830 125.2830
   125.3017 125.3730 125.4222 125.4222 125.4678 125.5069 125.5448 125.5448
   125.5707 125.7121 125.7121 125.7698 125.7698 125.8124 125.8765 125.9473
   125.9584 125.9584 126.0066 126.1173 126.1173 126.1516 126.1516 126.3898
   126.3898 126.3994 126.3994 126.5673 127.0229 127.0473 127.2407 127.2412
   127.2894 127.2894 127.3710 127.3710 127.4048 127.4374 127.4374 127.4414
   127.4414 127.8235 127.8235 127.8366 127.8367 127.9490 127.9793 128.0880
   128.0880 128.0912 128.0912 128.3098 128.4218 128.5634 128.7509 128.7509
   128.8627 128.8627 128.9515 129.0766 129.0803 129.1865 129.1865 129.1907
   129.1907 129.4190 129.6355 129.6528 129.6528 129.7531 129.8000 129.8000
   129.9546 129.9546 129.9936 130.1014 130.1014 130.1937 130.2029 130.2441
   130.4033 130.4476 130.5598 130.5598 130.5717 130.5717 130.7317 130.7317
   130.8275 130.8321 130.8546 130.8546 131.4119 131.4119 131.7406 132.1651
   132.1651 132.2225 132.2225 132.3461 132.3461 132.5392 132.5947 133.0868
   133.0986 133.1627 133.2299 133.3346 133.3346 133.4880 133.6114 133.6114
   133.7339 133.7339 133.8691 133.8691 134.0644 134.0644 134.0874 134.0907
   134.1317 134.1317 134.5454 134.5454 134.6993 135.0226 135.0226 135.1271
   135.1271 135.1312 135.2167 135.2167 135.2792 135.2792 135.6535 135.6969
   135.6969 135.7148 135.9050 135.9050 136.0175 136.5058 136.5898 136.6373
   136.6465 136.7499 136.7499 136.7893 136.9147 136.9147 137.2220 137.2220
   137.2810 137.2810 137.3476 137.4425 137.4425 137.5326 137.6532 137.6532
   137.8903 137.8903 137.9020 137.9020 137.9660 137.9929 137.9938 138.3997
   138.3997 138.4159 138.4159 138.6161 138.6221 138.6221 138.6405 138.6405
   138.6567 138.7228 138.7228 139.0111 139.0239 139.0652 139.6301 139.6301
   139.6576 139.7476 139.7476 140.0166 140.0977 140.4774 140.4774 140.8359
   141.1192 141.2276 141.2276 141.3641 141.3641 141.5029 141.5171 141.5582
   141.9557 141.9557 141.9571 141.9571 142.2466 142.2466 142.4832 142.4832
   142.5628 142.5709 142.6452 143.1155 143.3953 143.3953 143.4361 143.4361
   143.8431 143.8936 143.8936 143.9819 144.0956 144.0956 144.3140 144.3354
   144.3354 144.3410 144.7125 144.7125 144.7303 145.3263 145.6304 145.6304
   145.6651 145.9266 145.9763 145.9763 146.0871 146.2704 146.2704 146.3527
   146.3527 146.3813 146.6609 146.6609 146.8484 146.8484 146.9281 146.9447
   146.9447 147.0801 147.0801 147.2504 147.6250 147.6479 147.6978 147.6978
   147.7943 147.9206 147.9206 147.9955 147.9955 148.2981 148.3224 148.3927
   148.3927 148.5714 148.5714 148.6106 148.6106 148.6798 148.8936 148.8936
   149.0223 149.0223 149.0460 149.0460 149.1267 149.1303 149.2323 149.3428
   149.9344 149.9344 150.4983 150.4983 150.7305 150.8940 151.0440 151.0440
   151.6067 151.7576 151.7576 151.9639 152.1453 152.2840 152.2840 152.4524
   152.6865 152.6865 152.7590 152.7590 152.8094 152.8094 153.1620 153.1973
   153.2699 153.3521 153.5985 153.5985 154.1465 154.1465 154.3307 154.3307
   154.4211 154.4539 154.6738 154.6738 154.6835 154.6835 154.9192 154.9192
   155.1157 155.4661 155.7357 155.7492 155.7492 156.1259 156.1259 156.2046
   156.4437 156.4523 156.8314 156.8314 156.9068 157.1236 157.1236 157.3565
   157.4489 157.5408 157.5408 157.6456 157.8090 157.8123 157.8123 158.0988
   158.1393 158.1393 158.3441 158.3441 158.6063 158.6069 158.6069 158.6639
   158.9474 159.0581 159.0581 159.0683 159.0683 159.2272 159.2329 159.2329
   159.2449 159.2449 159.2628 159.3483 159.3483 159.3531 159.3793 159.3793
   159.4379 159.4544 159.4544 159.4986 159.5726 159.6399 159.6399 159.6585
   159.6585 159.6971 159.7675 159.7675 159.8373 159.8373 160.1907 160.1907
   160.2036 160.2221 160.2552 160.2933 160.2933 160.3538 160.3670 160.4394
   160.4394 160.4464 160.4464 160.9835 160.9880 161.0526 161.0526 161.0579
   161.0579 161.3021 161.3266 161.3266 161.4020 161.4020 161.6658 161.7560
   161.7560 161.7954 161.7978 162.1056 162.1056 162.2521 162.6259 162.6259
   162.8281 162.8281 162.8584 163.2291 163.2291 163.2814 163.2814 163.5157
   163.8772 164.0157 164.0157 164.2187 164.4612 164.4795 164.4795 164.5630
   164.7571 164.7652 164.7652 164.8446 164.8446 164.8884 165.0475 165.0475
   165.0591 165.0591 165.2790 165.4526 165.4833 165.4834 165.4932 165.4932

     the Fermi energy is     0.4724 ev
     (compare with:     0.1195 eV, computed in scf)

     Writing all to output data dir out/ZrCl2.save/
 
     init_run     :      0.16s CPU      0.18s WALL (       1 calls)
     electrons    :     92.69s CPU     95.35s WALL (       1 calls)

     Called by init_run:
     wfcinit      :      0.00s CPU      0.00s WALL (       1 calls)
     potinit      :      0.02s CPU      0.02s WALL (       1 calls)
     hinit0       :      0.05s CPU      0.06s WALL (       1 calls)

     Called by electrons:
     c_bands      :     92.69s CPU     95.35s WALL (       1 calls)
     v_of_rho     :      0.01s CPU      0.02s WALL (       1 calls)

     Called by c_bands:
     init_us_2    :      0.00s CPU      0.00s WALL (       1 calls)
     init_us_2:cp :      0.00s CPU      0.00s WALL (       1 calls)
     cegterg      :     90.52s CPU     93.10s WALL (       1 calls)

     Called by *egterg:
     cdiaghg      :     80.86s CPU     83.31s WALL (      14 calls)
     h_psi        :      2.56s CPU      2.61s WALL (      15 calls)
     g_psi        :      0.02s CPU      0.02s WALL (      13 calls)

     Called by h_psi:
     h_psi:calbec :      0.05s CPU      0.05s WALL (      15 calls)
     vloc_psi     :      2.45s CPU      2.49s WALL (      15 calls)
     add_vuspsi   :      0.05s CPU      0.05s WALL (      15 calls)

     General routines
     calbec       :      0.05s CPU      0.05s WALL (      15 calls)
     fft          :      0.01s CPU      0.02s WALL (      10 calls)
     fftw         :      2.27s CPU      2.31s WALL (   20580 calls)
 
     Parallel routines
 
     PWSCF        :   1m33.19s CPU   1m36.01s WALL

 
   This run was terminated on:  10:14: 3   5Apr2024            

=------------------------------------------------------------------------------=
   JOB DONE.
=------------------------------------------------------------------------------=
