
     Program PWSCF v.7.1 starts on  5Apr2024 at 10:13: 8 

     This program is part of the open-source Quantum ESPRESSO suite
     for quantum simulation of materials; please cite
         "P. Giannozzi et al., J. Phys.:Condens. Matter 21 395502 (2009);
         "P. Giannozzi et al., J. Phys.:Condens. Matter 29 465901 (2017);
         "P. Giannozzi et al., J. Chem. Phys. 152 154105 (2020);
          URL http://www.quantum-espresso.org", 
     in publications or presentations arising from this work. More details at
     http://www.quantum-espresso.org/quote

     Parallel version (MPI), running on     8 processors

     MPI processes distributed on     1 nodes
     247511 MiB available memory on the printing compute node when the environment starts
 
     Reading input from pw_WS2_nscf_k0_E47.in
Warning: card &IONS ignored
Warning: card / ignored
Warning: card &CELL ignored
Warning: card / ignored

     Current dimensions of program PWSCF are:
     Max number of different atomic species (ntypx) = 10
     Max number of k-points (npk) =  40000
     Max angular momentum in pseudopotentials (lmaxx) =  4

     Atomic positions and unit cell read from directory:
     out/WS2.save/
     Atomic positions from file used, from input discarded
 
 
     R & G space division:  proc/nbgrp/npool/nimage =       8
     Subspace diagonalization in iterative solution of the eigenvalue problem:
     one sub-group per band group will be used
     scalapack distributed-memory algorithm (size of sub-group:  2*  2 procs)

 
     Parallelization info
     --------------------
     sticks:   dense  smooth     PW     G-vecs:    dense   smooth      PW
     Min          59      59     15                 7479     7479     933
     Max          60      60     16                 7492     7492     950
     Sum         475     475    121                59873    59873    7547
 
     Using Slab Decomposition
 


     bravais-lattice index     =            4
     lattice parameter (alat)  =       6.0229  a.u.
     unit-cell volume          =    1375.6981 (a.u.)^3
     number of atoms/cell      =            3
     number of atomic types    =            2
     number of electrons       =        40.00
     number of Kohn-Sham states=         1200
     kinetic-energy cutoff     =      47.0000  Ry
     charge density cutoff     =     188.0000  Ry
     Exchange-correlation= PBE
                           (   1   4   3   4   0   0   0)

     celldm(1)=   6.022906  celldm(2)=   0.000000  celldm(3)=   7.270665
     celldm(4)=   0.000000  celldm(5)=   0.000000  celldm(6)=   0.000000

     crystal axes: (cart. coord. in units of alat)
               a(1) = (   1.000000   0.000000   0.000000 )  
               a(2) = (  -0.500000   0.866025   0.000000 )  
               a(3) = (   0.000000   0.000000   7.270665 )  

     reciprocal axes: (cart. coord. in units 2 pi/alat)
               b(1) = (  1.000000  0.577350  0.000000 )  
               b(2) = (  0.000000  1.154701  0.000000 )  
               b(3) = (  0.000000  0.000000  0.137539 )  


     PseudoPot. # 1 for S  read from file:
     /usr/scratch4/magr4985/FGWC/FGWC/pseudo/SG15/S.upf
     MD5 check sum: f9d020296ee6110346977bfd66d424f6
     Pseudo is Norm-conserving, Zval =  6.0
     Generated using ONCVPSP code by D. R. Hamann
     Using radial grid of  602 points,  4 beta functions with: 
                l(1) =   0
                l(2) =   0
                l(3) =   1
                l(4) =   1

     PseudoPot. # 2 for W  read from file:
     /usr/scratch4/magr4985/FGWC/FGWC/pseudo/SG15/W.upf
     MD5 check sum: b6096f31a98cdd82a46cfdcd1f902baf
     Pseudo is Norm-conserving, Zval = 28.0
     Generated using ONCVPSP code by D. R. Hamann
     Using radial grid of  602 points,  8 beta functions with: 
                l(1) =   0
                l(2) =   0
                l(3) =   1
                l(4) =   1
                l(5) =   2
                l(6) =   2
                l(7) =   3
                l(8) =   3

     atomic species   valence    mass     pseudopotential
        S              6.00    32.06500     S ( 1.00)
        W             28.00   183.84000     W ( 1.00)

     12 Sym. Ops. (no inversion) found



   Cartesian axes

     site n.     atom                  positions (alat units)
         1           W   tau(   1) = (   0.0000000   0.5773502   3.6353328  )
         2           S   tau(   2) = (   0.5000000   0.2886752   4.1286326  )
         3           S   tau(   3) = (   0.5000000   0.2886752   3.1420330  )

     number of k points=     1  Gaussian smearing, width (Ry)=  0.0005
                       cart. coord. in units 2pi/alat
        k(    1) = (   0.0000000   0.0000000   0.0000000), wk =   2.0000000

     Dense  grid:    59873 G-vectors     FFT dimensions: (  27,  27, 192)

     Estimated max dynamical RAM per process >     160.84 MB

     Estimated total dynamical RAM >       1.26 GB

     The potential is recalculated from file :
     out/WS2.save/charge-density

     Starting wfcs are random

     Band Structure Calculation
     Davidson diagonalization with overlap

     ethr =  5.00E-06,  avg # of iterations = 13.0

     total cpu time spent up to now is      112.7 secs

     End of band structure calculation

          k = 0.0000 0.0000 0.0000 (  7547 PWs)   bands (ev):

   -74.3778 -38.6238 -38.4725 -38.4724 -28.5535 -28.5524 -28.5524 -28.5332
   -28.4867 -28.4867 -28.4614 -15.0496 -13.4345  -6.6295  -3.1524  -3.1524
    -2.4270  -1.9296  -1.9296  -0.3506   2.5559   2.5559   2.6964   2.6964
     4.6469   5.0619   5.2710   5.7328   6.3679   7.2028   8.3354   8.3824
     9.3779  10.3125  10.3125  11.0696  11.6916  12.5816  12.5816  12.8397
    14.4229  15.2418  15.4834  15.9884  15.9884  16.3097  16.3097  17.8029
    18.3885  19.0513  19.8963  22.2951  22.2951  22.5339  22.9042  23.8719
    23.8719  24.2141  24.4405  24.4405  24.4478  24.5458  24.5458  24.7630
    24.9432  25.0742  25.0742  25.3239  25.3299  25.3299  25.3749  25.6818
    25.6818  25.7059  25.7059  25.7766  25.9718  25.9718  26.2195  26.2435
    26.6656  26.6656  26.7524  27.1835  27.1835  27.2815  27.2815  27.3273
    27.3869  27.8517  27.8517  27.9146  28.3361  28.5735  28.5735  28.8517
    29.0094  29.2291  29.2291  29.5794  29.5794  29.7284  30.4493  30.4542
    30.4542  30.6536  30.6536  31.1433  31.4890  31.7676  31.7676  32.4011
    32.4011  32.6706  32.7084  33.3037  33.3037  33.4690  33.6149  33.6149
    33.8988  34.5726  34.7268  34.7849  34.7849  35.4103  35.4103  36.3496
    36.6606  36.8572  36.8572  36.9487  36.9487  37.1114  37.1114  37.9426
    38.0488  38.3430  38.8180  38.8180  39.0202  39.2852  39.2852  39.7546
    40.7281  40.7416  40.7416  41.1866  41.3700  41.3700  41.4924  42.4963
    42.4963  42.9678  43.1648  43.1648  44.0691  44.2326  44.2326  45.0490
    45.0490  45.1616  45.6938  45.7963  45.7963  46.1070  46.5984  46.6370
    46.6370  46.7486  47.0565  47.0565  48.6385  48.6990  48.6990  49.7155
    49.7155  49.7254  49.8220  50.2713  51.2353  51.2353  51.5481  52.7383
    52.7383  52.8536  52.8536  52.9222  53.7608  54.6993  54.9082  54.9082
    55.2498  55.4804  55.4804  55.6765  55.6765  55.8257  56.2992  56.2992
    56.5789  57.5208  57.5887  57.5887  58.1636  58.7055  58.7875  58.9649
    58.9649  60.0069  60.0069  60.2215  60.2215  60.3497  60.4695  61.1726
    61.1726  61.3087  61.4046  61.8392  61.8392  62.1170  62.1929  62.1929
    62.8125  63.0705  63.0705  63.6454  63.7378  63.9303  63.9303  64.0425
    64.0425  64.3657  64.6285  64.6285  64.6430  64.6583  64.7028  64.7514
    64.7514  64.8322  64.8444  64.8444  64.8616  65.1526  65.1526  65.2853
    65.2853  65.5091  65.5511  65.6239  65.7260  65.9555  65.9807  65.9807
    66.1503  66.1503  66.1775  66.1775  66.2857  66.2857  66.7340  66.7340
    67.1314  67.2073  67.2073  67.4995  67.5739  67.6663  67.8746  67.8749
    67.8749  67.9877  67.9877  68.0258  68.0258  68.1045  68.3326  68.3326
    68.7390  68.7390  69.3441  69.9395  69.9395  69.9492  69.9492  70.2284
    70.3209  70.3682  70.4325  70.4325  70.5323  70.6945  70.6945  70.7599
    71.2039  71.2039  71.4478  71.7043  71.9604  71.9604  72.1724  72.8059
    72.8059  73.3880  73.3880  73.5448  73.6730  73.6730  73.7487  73.8397
    74.1167  74.2863  74.5549  74.5549  74.7085  74.7085  74.9575  74.9575
    74.9884  75.7607  75.7607  76.0287  76.0287  76.6217  76.6440  76.6440
    77.3676  77.3676  77.5130  77.5228  77.6015  77.7245  77.7314  77.9143
    77.9143  78.2446  78.2446  79.0381  79.7394  79.7394  79.7559  80.0807
    80.1340  80.3259  80.3259  80.6790  80.6790  80.8579  81.3458  81.3458
    81.3882  81.3882  82.0845  82.1198  82.3065  82.5203  82.5203  82.5463
    82.5463  82.7299  82.8017  82.8017  82.8681  83.1917  83.1917  83.2170
    83.4404  83.4404  83.9324  83.9324  84.0354  84.0354  84.0824  84.1825
    84.2862  84.3624  84.3624  84.3966  84.3966  84.4416  84.4810  84.6012
    84.9545  84.9545  84.9951  84.9951  85.1489  85.1489  85.2825  85.2825
    85.3139  85.4135  85.4346  85.6593  85.9405  85.9405  86.0653  86.0653
    86.4028  86.4028  86.5860  86.5938  86.5938  86.9542  86.9542  87.0066
    87.1732  87.1732  87.2936  87.3155  87.3271  87.4634  87.4735  87.4735
    87.6067  87.6067  87.8967  88.2594  88.4493  88.7963  89.0148  89.0148
    89.2136  89.2136  89.2634  89.5757  89.5757  89.7753  89.7753  89.8287
    90.0361  90.0959  90.2451  90.3584  90.3584  90.4874  90.4874  91.0487
    91.0487  91.1495  91.2131  91.2131  91.5881  91.5881  91.9178  92.2223
    92.2803  92.2803  92.5992  92.5992  92.6023  92.6023  92.9472  92.9472
    93.0881  93.1036  93.1036  93.1823  93.1979  93.3587  93.4227  93.4227
    93.5116  93.5477  93.5477  93.6705  94.1505  94.9070  95.7482  95.7482
    95.9744  95.9744  96.0966  96.4426  96.4428  96.4428  96.5656  96.5656
    96.9188  97.1534  97.1534  97.3096  97.7656  98.0467  98.0467  98.4116
    98.4637  98.4681  98.4681  98.6606  98.6606  98.8919  99.2157  99.2157
    99.4073  99.5135  99.8582  99.8582  99.9983 100.2501 100.2501 100.4668
   100.5331 100.5331 100.9048 100.9048 101.1977 101.3227 101.3227 101.4571
   101.6084 101.6084 101.6604 101.6604 101.9382 102.0047 102.4005 102.4016
   102.4016 102.8752 103.6586 103.6586 103.8428 103.9581 103.9581 104.3547
   104.3547 105.1924 105.1924 105.2199 105.4001 106.0997 106.0997 106.2568
   106.3626 106.4010 106.4010 106.5984 106.6515 106.6515 106.7767 106.8602
   106.8603 106.9715 107.4927 107.5313 108.0026 108.7968 108.7968 108.8730
   108.8730 109.4120 109.4120 109.4368 109.4368 109.6041 109.6788 109.8493
   109.8493 110.1731 110.1731 110.2558 110.7991 110.9266 110.9266 111.1927
   111.1927 111.4702 111.4702 111.4983 111.6446 111.7254 111.7254 112.3601
   112.9329 112.9329 112.9382 113.0646 113.1510 113.1818 113.3645 113.3645
   113.4551 113.4868 113.4868 113.8848 114.1863 114.1863 114.4146 114.5583
   114.5583 115.3727 115.4892 116.3436 116.5829 116.5829 117.2738 117.2738
   117.2820 117.6004 117.6004 117.8653 118.2584 118.2584 118.9950 118.9976
   118.9976 119.0507 119.1455 119.1455 119.5120 119.5120 119.8952 119.8952
   120.0690 120.1703 120.1703 120.3211 120.3653 120.6776 120.9668 120.9668
   121.2752 121.2752 121.3734 121.5215 121.7549 121.7549 121.7915 121.7915
   121.8064 122.2555 122.6636 122.6636 123.0282 123.1078 123.6522 123.6522
   124.1219 124.1219 124.4603 124.6495 124.9723 124.9723 125.1698 125.1698
   125.2090 125.2644 125.2644 125.5398 125.6724 125.7980 125.7980 126.2593
   126.2935 126.8096 127.0317 127.0803 127.0803 127.3772 127.3772 127.6433
   128.1933 128.1933 128.7840 128.7840 129.2013 129.3947 129.4074 129.4074
   129.6922 129.6922 130.5420 130.5420 130.6382 130.6382 130.8119 130.8435
   131.0610 131.0610 131.1670 131.2672 131.2672 131.2804 131.7312 131.7312
   131.9198 132.0385 132.2161 132.2161 132.4600 132.4600 132.5037 132.5037
   133.3176 133.5112 133.5112 133.5510 133.6777 133.6777 133.7743 133.8588
   133.8588 134.0967 134.5164 135.0484 135.0914 135.2804 135.2804 135.3003
   135.3003 135.5935 136.2829 136.6964 136.6964 137.6067 137.6067 137.7936
   137.8820 137.8820 138.1392 138.1477 138.2699 139.1451 139.1451 139.4011
   139.4011 139.6393 139.6393 139.7692 139.8665 140.1029 140.1029 140.1296
   140.2188 140.5642 140.5642 140.5973 141.2867 141.2867 141.3588 141.4281
   141.5323 141.5323 141.5348 141.5348 141.9393 141.9682 142.1689 142.1689
   142.2909 142.2909 142.6049 142.6049 142.6288 142.6885 142.7769 142.7769
   142.8835 142.8835 142.9275 142.9662 142.9894 142.9894 143.0781 143.3168
   143.3168 143.4764 143.4989 143.4989 143.5243 143.5243 143.5546 143.5690
   143.6057 143.6410 143.6410 143.6526 143.6526 143.7164 143.7164 143.7520
   143.7791 143.7791 143.7911 143.7911 143.7970 143.8697 144.0142 144.0143
   144.1755 144.2189 144.2189 144.2507 144.2507 144.2507 144.3533 144.4049
   144.4049 144.4162 144.5673 144.6170 144.6170 144.7689 144.7862 144.7862
   144.8305 144.8337 144.8338 144.8738 144.8738 144.9286 145.1742 145.3885
   145.3885 145.4126 145.4126 145.4334 145.7263 145.7263 145.8690 146.0785
   146.2355 146.2355 146.2478 146.4398 146.4398 146.5063 146.5079 146.5546
   146.5546 146.7001 146.7002 146.7828 146.8153 146.8153 146.8405 147.0967
   147.0968 147.1457 147.1457 147.3131 147.4645 147.4720 147.4720 148.0352
   148.0352 148.2561 148.3126 148.3764 148.6039 148.6039 148.6360 148.6360
   148.7600 148.7889 149.0817 149.0818 149.1520 149.1537 149.1537 149.2304
   149.2304 149.3246 149.3246 149.3694 149.4104 149.5203 149.5203 149.7107
   149.7385 149.8920 149.8920 149.9353 150.0400 150.0533 150.0533 150.1253
   150.3439 150.3439 150.4841 150.6711 150.8415 150.8415 150.8622 150.8622
   150.9293 151.3656 151.5603 151.5603 151.6146 151.6147 151.7506 151.7506
   152.0267 152.1525 152.1525 152.2854 152.2981 152.3986 152.5996 152.5996
   152.6965 152.6965 152.9326 152.9532 152.9532 153.0163 153.0352 153.0352
   153.0939 153.4963 153.4963 153.5788 154.0667 154.0667 154.1926 154.2263
   154.2263 154.5289 154.5289 154.7406 154.7662 154.7662 154.8015 154.9736
   154.9736 155.3592 155.3592 155.5553 155.6685 155.6702 155.6702 155.7731
   155.7731 155.8081 156.1227 156.1468 156.4451 156.4451 156.4889 156.4889
   156.6642 156.6642 156.7632 156.8945 156.8961 156.8961 156.9586 157.4054
   157.4054 157.4707 157.4707 157.5105 157.6265 157.9129 157.9129 158.1519
   158.1520 158.5400 158.5444 158.9244 158.9244 158.9913 159.0223 159.0223
   159.2300 159.3163 159.3163 159.5865 159.7099 159.7099 159.9075 159.9075
   159.9146 159.9150 160.0266 160.0266 160.0870 160.2202 160.4637 160.6449
   160.6449 160.8292 160.8520 160.8836 160.8836 160.9775 161.0401 161.0811
   161.0812 161.1916 161.1916 161.4748 161.4748 161.5983 161.9353 161.9417
   161.9417 162.1752 162.1752 162.2628 162.3247 162.5906 162.6402 162.6402
   162.7975 162.7975 163.4720 163.4720 163.5154 164.2302 164.2302 164.6102
   165.1869 165.3602 165.5385 165.5605 165.5605 165.6564 165.6564 165.7152
   165.7912 165.7912 165.8495 166.0300 166.0300 166.2144 166.2144 166.3772
   166.3772 166.3878 166.5212 166.7105 166.7105 166.7424 166.9390 167.0179
   167.0179 167.1049 167.1049 167.4320 167.4857 167.4857 167.5187 167.5187
   167.6456 167.6456 168.1272 168.3685 168.3685 168.5887 168.5887 168.6283
   169.0301 169.0474 169.0474 169.1554 169.7345 169.7345 169.7550 169.7973
   169.9539 170.2107 170.2107 170.2367 170.4656 170.4656 170.5179 170.9070
   170.9070 171.0133 171.0133 171.3906 171.3906 171.6029 171.6098 171.8197
   171.8197 171.8699 171.8700 171.9137 171.9213 171.9213 172.0298 172.0529
   172.0618 172.0618 172.3359 172.5842 172.5842 172.5857 172.5904 172.9662
   172.9662 173.1971 173.2211 173.2211 173.6395 173.8692 174.1992 174.9298
   174.9298 175.0274 175.0274 175.4409 175.6720 175.6720 175.9951 176.3029
   176.3029 177.0137 177.0137 177.0489 177.2029 177.2302 177.2302 177.4862
   177.5168 177.8007 177.8007 177.9664 177.9664 178.2356 178.4501 178.4501
   178.4598 178.7274 178.7274 178.7710 178.9364 179.0577 179.0577 179.1226
   179.3779 179.3779 179.4416 179.4719 179.5600 179.5600 179.9459 179.9459
   179.9732 180.0931 180.0931 180.1333 180.1333 180.5917 180.6872 180.6872
   180.7305 180.7305 180.8091 180.8412 180.9740 180.9740 181.1573 181.4353
   181.4353 181.4902 181.4902 181.6977 181.6977 181.9566 182.0238 182.0336
   182.0881 182.0881 182.1291 182.1329 182.4079 182.4079 182.4260 182.4261
   182.7737 182.8182 182.8182 183.0184 183.0184 183.0496 183.0496 183.0819
   183.1051 183.1991 183.3651 183.3651 183.3655 183.5111 183.5111 183.6690
   183.6690 183.7642 183.8870 183.9575 183.9575 184.2287 184.4278 184.4800

     the Fermi energy is     2.4452 ev
     (compare with:     0.1412 eV, computed in scf)

     Writing all to output data dir out/WS2.save/
 
     init_run     :      0.15s CPU      0.16s WALL (       1 calls)
     electrons    :    108.98s CPU    112.25s WALL (       1 calls)

     Called by init_run:
     wfcinit      :      0.00s CPU      0.00s WALL (       1 calls)
     potinit      :      0.02s CPU      0.02s WALL (       1 calls)
     hinit0       :      0.04s CPU      0.05s WALL (       1 calls)

     Called by electrons:
     c_bands      :    108.98s CPU    112.25s WALL (       1 calls)
     v_of_rho     :      0.02s CPU      0.02s WALL (       1 calls)

     Called by c_bands:
     init_us_2    :      0.00s CPU      0.00s WALL (       1 calls)
     init_us_2:cp :      0.00s CPU      0.00s WALL (       1 calls)
     cegterg      :    106.98s CPU    110.17s WALL (       1 calls)

     Called by *egterg:
     cdiaghg      :     96.72s CPU     99.76s WALL (      14 calls)
     h_psi        :      2.62s CPU      2.67s WALL (      15 calls)
     g_psi        :      0.02s CPU      0.02s WALL (      13 calls)

     Called by h_psi:
     h_psi:calbec :      0.06s CPU      0.06s WALL (      15 calls)
     vloc_psi     :      2.47s CPU      2.51s WALL (      15 calls)
     add_vuspsi   :      0.08s CPU      0.08s WALL (      15 calls)

     General routines
     calbec       :      0.06s CPU      0.06s WALL (      15 calls)
     fft          :      0.01s CPU      0.02s WALL (      10 calls)
     fftw         :      2.29s CPU      2.32s WALL (   20958 calls)
 
     Parallel routines
 
     PWSCF        :   1m49.54s CPU   1m52.95s WALL

 
   This run was terminated on:  10:15: 1   5Apr2024            

=------------------------------------------------------------------------------=
   JOB DONE.
=------------------------------------------------------------------------------=
