
     Program PWSCF v.7.1 starts on  5Apr2024 at 11:22:33 

     This program is part of the open-source Quantum ESPRESSO suite
     for quantum simulation of materials; please cite
         "P. Giannozzi et al., J. Phys.:Condens. Matter 21 395502 (2009);
         "P. Giannozzi et al., J. Phys.:Condens. Matter 29 465901 (2017);
         "P. Giannozzi et al., J. Chem. Phys. 152 154105 (2020);
          URL http://www.quantum-espresso.org", 
     in publications or presentations arising from this work. More details at
     http://www.quantum-espresso.org/quote

     Parallel version (MPI), running on    32 processors

     MPI processes distributed on     1 nodes
     242747 MiB available memory on the printing compute node when the environment starts
 
     Reading input from pw_WS2_scf_k3000_E47.in
Warning: card &CELL ignored
Warning: card / ignored

     Current dimensions of program PWSCF are:
     Max number of different atomic species (ntypx) = 10
     Max number of k-points (npk) =  40000
     Max angular momentum in pseudopotentials (lmaxx) =  4
 
     R & G space division:  proc/nbgrp/npool/nimage =      32
     Subspace diagonalization in iterative solution of the eigenvalue problem:
     a serial algorithm will be used

 
     Parallelization info
     --------------------
     sticks:   dense  smooth     PW     G-vecs:    dense   smooth      PW
     Min          14      14      4                 1864     1864     302
     Max          15      15      5                 1879     1879     325
     Sum         475     475    151                59873    59873    9891
 
     Using Slab Decomposition
 


     bravais-lattice index     =            4
     lattice parameter (alat)  =       6.0229  a.u.
     unit-cell volume          =    1375.6981 (a.u.)^3
     number of atoms/cell      =            3
     number of atomic types    =            2
     number of electrons       =        40.00
     number of Kohn-Sham states=           40
     kinetic-energy cutoff     =      47.0000  Ry
     charge density cutoff     =     188.0000  Ry
     scf convergence threshold =      1.0E-10
     mixing beta               =       0.7000
     number of iterations used =            8  plain     mixing
     Exchange-correlation= PBE
                           (   1   4   3   4   0   0   0)

     celldm(1)=   6.022906  celldm(2)=   0.000000  celldm(3)=   7.270665
     celldm(4)=   0.000000  celldm(5)=   0.000000  celldm(6)=   0.000000

     crystal axes: (cart. coord. in units of alat)
               a(1) = (   1.000000   0.000000   0.000000 )  
               a(2) = (  -0.500000   0.866025   0.000000 )  
               a(3) = (   0.000000   0.000000   7.270665 )  

     reciprocal axes: (cart. coord. in units 2 pi/alat)
               b(1) = (  1.000000  0.577350  0.000000 )  
               b(2) = (  0.000000  1.154701  0.000000 )  
               b(3) = (  0.000000  0.000000  0.137539 )  


     PseudoPot. # 1 for S  read from file:
     /usr/scratch4/magr4985/FGWC/FGWC/pseudo/SG15/S.upf
     MD5 check sum: f9d020296ee6110346977bfd66d424f6
     Pseudo is Norm-conserving, Zval =  6.0
     Generated using ONCVPSP code by D. R. Hamann
     Using radial grid of  602 points,  4 beta functions with: 
                l(1) =   0
                l(2) =   0
                l(3) =   1
                l(4) =   1

     PseudoPot. # 2 for W  read from file:
     /usr/scratch4/magr4985/FGWC/FGWC/pseudo/SG15/W.upf
     MD5 check sum: b6096f31a98cdd82a46cfdcd1f902baf
     Pseudo is Norm-conserving, Zval = 28.0
     Generated using ONCVPSP code by D. R. Hamann
     Using radial grid of  602 points,  8 beta functions with: 
                l(1) =   0
                l(2) =   0
                l(3) =   1
                l(4) =   1
                l(5) =   2
                l(6) =   2
                l(7) =   3
                l(8) =   3

     atomic species   valence    mass     pseudopotential
        S              6.00    32.06500     S ( 1.00)
        W             28.00   183.84000     W ( 1.00)

     12 Sym. Ops. (no inversion) found



   Cartesian axes

     site n.     atom                  positions (alat units)
         1           W   tau(   1) = (   0.0000000   0.5773502   3.6353328  )
         2           S   tau(   2) = (   0.5000000   0.2886752   4.1286326  )
         3           S   tau(   3) = (   0.5000000   0.2886752   3.1420330  )

     number of k points=    44  Gaussian smearing, width (Ry)=  0.0018
                       cart. coord. in units 2pi/alat
        k(    1) = (   0.0000000   0.0000000   0.0000000), wk =   0.0050000
        k(    2) = (   0.0000000   0.0577350   0.0000000), wk =   0.0300000
        k(    3) = (   0.0000000   0.1154701   0.0000000), wk =   0.0300000
        k(    4) = (   0.0000000   0.1732051   0.0000000), wk =   0.0300000
        k(    5) = (   0.0000000   0.2309401   0.0000000), wk =   0.0300000
        k(    6) = (   0.0000000   0.2886751   0.0000000), wk =   0.0300000
        k(    7) = (   0.0000000   0.3464102   0.0000000), wk =   0.0300000
        k(    8) = (   0.0000000   0.4041452   0.0000000), wk =   0.0300000
        k(    9) = (   0.0000000   0.4618802   0.0000000), wk =   0.0300000
        k(   10) = (   0.0000000   0.5196152   0.0000000), wk =   0.0300000
        k(   11) = (   0.0000000  -0.5773503   0.0000000), wk =   0.0150000
        k(   12) = (   0.0500000   0.0866025   0.0000000), wk =   0.0300000
        k(   13) = (   0.0500000   0.1443376   0.0000000), wk =   0.0600000
        k(   14) = (   0.0500000   0.2020726   0.0000000), wk =   0.0600000
        k(   15) = (   0.0500000   0.2598076   0.0000000), wk =   0.0600000
        k(   16) = (   0.0500000   0.3175426   0.0000000), wk =   0.0600000
        k(   17) = (   0.0500000   0.3752777   0.0000000), wk =   0.0600000
        k(   18) = (   0.0500000   0.4330127   0.0000000), wk =   0.0600000
        k(   19) = (   0.0500000   0.4907477   0.0000000), wk =   0.0600000
        k(   20) = (   0.0500000   0.5484828   0.0000000), wk =   0.0600000
        k(   21) = (   0.1000000   0.1732051   0.0000000), wk =   0.0300000
        k(   22) = (   0.1000000   0.2309401   0.0000000), wk =   0.0600000
        k(   23) = (   0.1000000   0.2886751   0.0000000), wk =   0.0600000
        k(   24) = (   0.1000000   0.3464102   0.0000000), wk =   0.0600000
        k(   25) = (   0.1000000   0.4041452   0.0000000), wk =   0.0600000
        k(   26) = (   0.1000000   0.4618802   0.0000000), wk =   0.0600000
        k(   27) = (   0.1000000   0.5196152   0.0000000), wk =   0.0600000
        k(   28) = (   0.1000000   0.5773503   0.0000000), wk =   0.0300000
        k(   29) = (   0.1500000   0.2598076   0.0000000), wk =   0.0300000
        k(   30) = (   0.1500000   0.3175426   0.0000000), wk =   0.0600000
        k(   31) = (   0.1500000   0.3752777   0.0000000), wk =   0.0600000
        k(   32) = (   0.1500000   0.4330127   0.0000000), wk =   0.0600000
        k(   33) = (   0.1500000   0.4907477   0.0000000), wk =   0.0600000
        k(   34) = (   0.1500000   0.5484828   0.0000000), wk =   0.0600000
        k(   35) = (   0.2000000   0.3464102   0.0000000), wk =   0.0300000
        k(   36) = (   0.2000000   0.4041452   0.0000000), wk =   0.0600000
        k(   37) = (   0.2000000   0.4618802   0.0000000), wk =   0.0600000
        k(   38) = (   0.2000000   0.5196152   0.0000000), wk =   0.0600000
        k(   39) = (   0.2000000   0.5773503   0.0000000), wk =   0.0300000
        k(   40) = (   0.2500000   0.4330127   0.0000000), wk =   0.0300000
        k(   41) = (   0.2500000   0.4907477   0.0000000), wk =   0.0600000
        k(   42) = (   0.2500000   0.5484828   0.0000000), wk =   0.0600000
        k(   43) = (   0.3000000   0.5196152   0.0000000), wk =   0.0300000
        k(   44) = (   0.3000000   0.5773503   0.0000000), wk =   0.0300000

     Dense  grid:    59873 G-vectors     FFT dimensions: (  27,  27, 192)

     Estimated max dynamical RAM per process >       7.63 MB

     Estimated total dynamical RAM >     244.02 MB

     Initial potential from superposition of free atoms

     starting charge      39.9123, renormalised to      40.0000

     negative rho (up, down):  4.262E-04 0.000E+00
     Starting wfcs are random

     total cpu time spent up to now is        0.6 secs

     Self-consistent Calculation

     iteration #  1     ecut=    47.00 Ry     beta= 0.70
     Davidson diagonalization with overlap
     ethr =  1.00E-02,  avg # of iterations = 11.4

     Threshold (ethr) on eigenvalues was too large:
     Diagonalizing with lowered threshold

     Davidson diagonalization with overlap
     ethr =  4.98E-04,  avg # of iterations =  2.6

     negative rho (up, down):  7.446E-05 0.000E+00

     total cpu time spent up to now is        5.6 secs

     total energy              =    -584.95192381 Ry
     estimated scf accuracy    <       0.18624219 Ry

     iteration #  2     ecut=    47.00 Ry     beta= 0.70
     Davidson diagonalization with overlap
     ethr =  4.66E-04,  avg # of iterations =  2.6

     negative rho (up, down):  5.803E-05 0.000E+00

     total cpu time spent up to now is        7.0 secs

     total energy              =    -584.85628467 Ry
     estimated scf accuracy    <       1.07426439 Ry

     iteration #  3     ecut=    47.00 Ry     beta= 0.70
     Davidson diagonalization with overlap
     ethr =  4.66E-04,  avg # of iterations =  2.2

     negative rho (up, down):  2.781E-05 0.000E+00

     total cpu time spent up to now is        8.1 secs

     total energy              =    -585.03864854 Ry
     estimated scf accuracy    <       0.05982092 Ry

     iteration #  4     ecut=    47.00 Ry     beta= 0.70
     Davidson diagonalization with overlap
     ethr =  1.50E-04,  avg # of iterations =  2.2

     negative rho (up, down):  1.463E-07 0.000E+00

     total cpu time spent up to now is        9.3 secs

     total energy              =    -585.04720326 Ry
     estimated scf accuracy    <       0.00090378 Ry

     iteration #  5     ecut=    47.00 Ry     beta= 0.70
     Davidson diagonalization with overlap
     c_bands:  1 eigenvalues not converged
     ethr =  2.26E-06,  avg # of iterations =  8.6

     negative rho (up, down):  2.125E-08 0.000E+00

     total cpu time spent up to now is       11.0 secs

     total energy              =    -585.04736189 Ry
     estimated scf accuracy    <       0.00003031 Ry

     iteration #  6     ecut=    47.00 Ry     beta= 0.70
     Davidson diagonalization with overlap
     ethr =  7.58E-08,  avg # of iterations =  2.0

     total cpu time spent up to now is       12.1 secs

     total energy              =    -585.04736539 Ry
     estimated scf accuracy    <       0.00000222 Ry

     iteration #  7     ecut=    47.00 Ry     beta= 0.70
     Davidson diagonalization with overlap
     ethr =  5.55E-09,  avg # of iterations =  2.0

     total cpu time spent up to now is       13.3 secs

     total energy              =    -585.04736574 Ry
     estimated scf accuracy    <       0.00000004 Ry

     iteration #  8     ecut=    47.00 Ry     beta= 0.70
     Davidson diagonalization with overlap
     ethr =  9.66E-11,  avg # of iterations =  2.9

     total cpu time spent up to now is       14.6 secs

     total energy              =    -585.04736575 Ry
     estimated scf accuracy    <          2.2E-09 Ry

     iteration #  9     ecut=    47.00 Ry     beta= 0.70
     Davidson diagonalization with overlap
     ethr =  5.55E-12,  avg # of iterations =  2.0

     total cpu time spent up to now is       15.9 secs

     End of self-consistent calculation

          k = 0.0000 0.0000 0.0000 (  7547 PWs)   bands (ev):

   -74.3778 -38.6238 -38.4725 -38.4725 -28.5535 -28.5525 -28.5525 -28.5332
   -28.4867 -28.4867 -28.4614 -15.0496 -13.4345  -6.6295  -3.1524  -3.1524
    -2.4270  -1.9296  -1.9296  -0.3507   2.5559   2.5559   2.6964   2.6964
     4.6469   5.0619   5.2709   5.7328   6.3679   7.2028   8.3354   8.3824
     9.3779  10.3125  10.3125  11.0696  11.6916  12.5816  12.5816  12.8397

          k = 0.0000 0.0577 0.0000 (  7577 PWs)   bands (ev):

   -74.3775 -38.6224 -38.4806 -38.4744 -28.5533 -28.5525 -28.5524 -28.5335
   -28.4869 -28.4868 -28.4613 -15.0086 -13.4193  -6.5798  -3.2642  -3.1121
    -2.6041  -1.9969  -1.8228  -0.3698   2.5108   2.5841   2.6353   2.6585
     4.7823   5.1118   5.3798   5.8001   6.4163   7.2572   8.3899   8.5579
     9.3994  10.1354  10.4305  11.1056  11.8437  12.2361  12.5768  12.8542

          k = 0.0000 0.1155 0.0000 (  7561 PWs)   bands (ev):

   -74.3763 -38.6181 -38.5042 -38.4799 -28.5526 -28.5526 -28.5520 -28.5344
   -28.4873 -28.4868 -28.4610 -14.8877 -13.3745  -6.4353  -3.5668  -2.9945
    -2.9434  -2.1790  -1.7045  -0.4412   2.3335   2.4359   2.5572   2.8500
     5.0610   5.2592   5.6939   6.0479   6.5604   7.4187   8.5247   9.0340
     9.3597   9.8990  10.7712  11.1468  11.6321  12.1100  12.5863  12.8486

          k = 0.0000 0.1732 0.0000 (  7521 PWs)   bands (ev):

   -74.3745 -38.6115 -38.5406 -38.4884 -28.5527 -28.5515 -28.5514 -28.5357
   -28.4879 -28.4870 -28.4605 -14.6937 -13.3027  -6.2124  -3.9856  -3.3302
    -2.8103  -2.4321  -1.7000  -0.5985   2.0936   2.4241   2.4410   3.1452
     5.3586   5.4988   6.0378   6.5821   6.7967   7.6936   8.7307   9.0854
     9.5374   9.9746  10.8503  11.2877  11.5836  12.2373  12.6549  12.8157

          k = 0.0000 0.2309 0.0000 (  7513 PWs)   bands (ev):

   -74.3722 -38.6032 -38.5863 -38.4991 -28.5529 -28.5508 -28.5500 -28.5374
   -28.4888 -28.4872 -28.4599 -14.4377 -13.2085  -5.9507  -4.4341  -3.7382
    -2.7125  -2.5776  -1.8075  -0.8563   1.9714   2.2974   2.5793   3.4621
     5.6835   5.8229   6.3893   7.1180   7.1338   8.0912   8.8661   8.9177
     9.5303  10.2157  11.0153  11.8387  11.8912  12.0666  12.8272  12.8744

          k = 0.0000 0.2887 0.0000 (  7505 PWs)   bands (ev):

   -74.3697 -38.6365 -38.5939 -38.5110 -28.5530 -28.5500 -28.5484 -28.5393
   -28.4897 -28.4874 -28.4592 -14.1361 -13.0985  -5.7594  -4.7908  -4.1520
    -2.9869  -2.3221  -1.9730  -1.1634   1.9951   2.2130   2.8260   3.7546
     6.0338   6.2165   6.7895   7.3462   7.5038   8.3654   8.7242   9.0971
     9.6268  10.5598  11.3476  11.8762  12.2107  12.3356  12.8414  13.1304

          k = 0.0000 0.3464 0.0000 (  7489 PWs)   bands (ev):

   -74.3672 -38.6863 -38.5846 -38.5228 -28.5532 -28.5493 -28.5468 -28.5411
   -28.4906 -28.4876 -28.4585 -13.8110 -12.9820  -5.8558  -4.8623  -4.5507
    -3.2329  -2.1402  -2.0747  -1.4148   2.1343   2.1961   3.1168   3.9950
     6.3389   6.6457   7.0321   7.4157   7.8575   8.4972   8.5273   9.5331
     9.9818  11.0342  11.3021  11.8587  12.1785  12.7101  12.7570  13.5669

          k = 0.0000 0.4041 0.0000 (  7476 PWs)   bands (ev):

   -74.3649 -38.7309 -38.5762 -38.5335 -28.5534 -28.5486 -28.5454 -28.5428
   -28.4914 -28.4877 -28.4578 -13.4917 -12.8702  -6.1657  -4.9064  -4.7619
    -3.4358  -2.2768  -1.8649  -1.5128   2.2525   2.3466   3.3841   4.1728
     6.2311   6.9989   7.0219   7.9300   7.9890   8.7759   8.7791   9.9299
    10.2580  11.0993  11.2396  11.6337  12.1598  12.9366  13.0697  13.7373

          k = 0.0000 0.4619 0.0000 (  7456 PWs)   bands (ev):

   -74.3630 -38.7660 -38.5696 -38.5420 -28.5535 -28.5480 -28.5443 -28.5440
   -28.4921 -28.4878 -28.4573 -13.2153 -12.7764  -6.4732  -5.1888  -4.7036
    -3.5863  -2.3722  -1.7121  -1.4416   2.3586   2.5963   3.5779   4.2907
     5.6472   7.2174   7.2317   8.2439   8.5703   9.1647   9.2969  10.1314
    10.2721  11.0491  11.0821  11.4494  12.1672  12.6422  12.7115  13.1121

          k = 0.0000 0.5196 0.0000 (  7430 PWs)   bands (ev):

   -74.3619 -38.7884 -38.5653 -38.5474 -28.5536 -28.5477 -28.5449 -28.5436
   -28.4924 -28.4879 -28.4570 -13.0241 -12.7135  -6.6885  -5.3708  -4.7015
    -3.6787  -2.4269  -1.6223  -1.3010   2.4623   2.8384   3.6835   4.3564
     5.0785   7.3402   7.4388   8.5983   9.1508   9.5708   9.6762  10.2199
    10.3747  10.6887  11.2227  11.4806  11.5848  11.8459  12.1393  13.0368

          k = 0.0000-0.5774 0.0000 (  7458 PWs)   bands (ev):

   -74.3615 -38.7961 -38.5638 -38.5492 -28.5536 -28.5476 -28.5452 -28.5433
   -28.4926 -28.4880 -28.4569 -12.9553 -12.6913  -6.7659  -5.4337  -4.7083
    -3.7098  -2.4446  -1.5931  -1.2324   2.5056   2.9567   3.7149   4.3774
     4.8299   7.3846   7.5413   8.7620   9.2092   9.7440  10.1945  10.3773
    10.5453  10.6924  10.7696  11.0621  11.1542  11.9960  12.2943  12.4653

          k = 0.0500 0.0866 0.0000 (  7569 PWs)   bands (ev):

   -74.3767 -38.6195 -38.4963 -38.4782 -28.5528 -28.5526 -28.5521 -28.5341
   -28.4871 -28.4868 -28.4611 -14.9276 -13.3893  -6.4826  -3.4701  -3.0343
    -2.8406  -2.1425  -1.7099  -0.4149   2.4081   2.4428   2.5850   2.7902
     4.9841   5.2105   5.5978   5.9557   6.5126   7.3651   8.4811   8.8885
     9.3999   9.9351  10.6496  11.1533  11.7820  12.0481  12.5528  12.8586

          k = 0.0500 0.1443 0.0000 (  7530 PWs)   bands (ev):

   -74.3752 -38.6141 -38.5259 -38.4856 -28.5526 -28.5519 -28.5517 -28.5352
   -28.4877 -28.4870 -28.4607 -14.7701 -13.3309  -6.2976  -3.8266  -3.1692
    -2.8876  -2.4048  -1.6334  -0.5289   2.1704   2.3916   2.4636   3.0609
     5.2561   5.4043   5.9234   6.3723   6.7031   7.5820   8.6544   9.2223
     9.4070   9.9002  10.9633  11.0387  11.5247  12.2613  12.5257  12.8346

          k = 0.0500 0.2021 0.0000 (  7518 PWs)   bands (ev):

   -74.3731 -38.6066 -38.5664 -38.4959 -28.5528 -28.5511 -28.5506 -28.5367
   -28.4884 -28.4871 -28.4601 -14.5449 -13.2478  -6.0497  -4.2557  -3.5398
    -2.7115  -2.6892  -1.6657  -0.7365   1.9854   2.3430   2.4490   3.3808
     5.5617   5.6873   6.2516   6.9720   6.9831   7.9243   8.8791   8.9427
     9.6651  10.0891  10.7888  11.5017  11.7054  12.2879  12.5601  12.8663

          k = 0.0500 0.2598 0.0000 (  7507 PWs)   bands (ev):

   -74.3707 -38.6136 -38.5978 -38.5079 -28.5529 -28.5504 -28.5491 -28.5385
   -28.4893 -28.4873 -28.4595 -14.2657 -13.1453  -5.8029  -4.6639  -3.9399
    -3.0040  -2.4679  -1.7943  -1.0160   1.9110   2.2733   2.6341   3.6931
     5.9066   6.0489   6.6300   7.3416   7.3726   8.2937   8.9349   8.9373
     9.5459  10.3741  11.1734  11.7387  11.9717  12.3320  12.7253  12.8304

          k = 0.0500 0.3175 0.0000 (  7500 PWs)   bands (ev):

   -74.3682 -38.6629 -38.5885 -38.5205 -28.5531 -28.5496 -28.5475 -28.5403
   -28.4902 -28.4876 -28.4588 -13.9515 -13.0313  -5.7387  -4.8759  -4.3514
    -3.2501  -2.2655  -1.9690  -1.2746   1.9407   2.2905   2.9041   3.9568
     6.2662   6.4681   7.0371   7.3792   7.7412   8.4665   8.6393   9.3722
     9.8168  10.7907  11.3343  11.7341  12.1704  12.3742  12.7767  13.0939

          k = 0.0500 0.3753 0.0000 (  7485 PWs)   bands (ev):

   -74.3658 -38.7093 -38.5797 -38.5324 -28.5532 -28.5489 -28.5460 -28.5421
   -28.4910 -28.4877 -28.4581 -13.6277 -12.9161  -5.9794  -4.8060  -4.7419
    -3.4417  -2.1421  -2.1242  -1.3926   2.0521   2.3946   3.1974   4.1455
     6.4746   6.8958   6.9963   7.6812   8.0103   8.6286   8.6799   9.7807
    10.1639  11.1061  11.2568  11.6187  11.9967  12.8417  12.8916  13.5939

          k = 0.0500 0.4330 0.0000 (  7473 PWs)   bands (ev):

   -74.3638 -38.7486 -38.5722 -38.5425 -28.5534 -28.5483 -28.5447 -28.5435
   -28.4917 -28.4879 -28.4575 -13.3273 -12.8121  -6.2994  -5.0746  -4.7095
    -3.5814  -2.2844  -2.0258  -1.3422   2.2221   2.5565   3.4610   4.2459
     6.0391   7.1433   7.2323   8.1660   8.2809   9.0044   9.0694  10.1188
    10.3068  10.7967  11.3452  11.3459  12.3282  12.9313  13.0267  13.3096

          k = 0.0500 0.4907 0.0000 (  7448 PWs)   bands (ev):

   -74.3623 -38.7769 -38.5667 -38.5499 -28.5535 -28.5479 -28.5446 -28.5438
   -28.4922 -28.4880 -28.4571 -13.0905 -12.7324  -6.5620  -5.3171  -4.6843
    -3.6727  -2.3824  -1.9302  -1.2121   2.3893   2.7572   3.6610   4.2674
     5.4096   7.4096   7.4389   8.4794   8.9442   9.4177   9.5568  10.0837
    10.3014  10.6453  11.3318  11.5642  11.8403  12.3148  12.3646  13.2315

          k = 0.0500 0.5485 0.0000 (  7449 PWs)   bands (ev):

   -74.3615 -38.7918 -38.5638 -38.5538 -28.5535 -28.5477 -28.5452 -28.5433
   -28.4925 -28.4881 -28.4569 -12.9583 -12.6891  -6.7085  -5.4448  -4.6931
    -3.7179  -2.4316  -1.8679  -1.1047   2.4812   2.9412   3.7745   4.2512
     4.9646   7.5646   7.6113   8.7378   9.2587   9.7577   9.8932  10.2508
    10.5681  10.5950  10.9047  11.3182  11.4063  12.0581  12.0635  12.8421

          k = 0.1000 0.1732 0.0000 (  7509 PWs)   bands (ev):

   -74.3734 -38.6078 -38.5588 -38.4955 -28.5527 -28.5512 -28.5508 -28.5365
   -28.4883 -28.4871 -28.4602 -14.5813 -13.2611  -6.0840  -4.1874  -3.4378
    -2.7775  -2.7355  -1.5736  -0.6931   1.9916   2.3551   2.3741   3.3736
     5.5246   5.6424   6.2078   6.9155   6.9381   7.8653   8.8590   9.0074
     9.7666  10.0278  10.6669  11.3242  11.6506  12.3867  12.4164  12.8861

          k = 0.1000 0.2309 0.0000 (  7517 PWs)   bands (ev):

   -74.3713 -38.5999 -38.5996 -38.5082 -28.5528 -28.5506 -28.5494 -28.5381
   -28.4890 -28.4874 -28.4596 -14.3324 -13.1692  -5.8319  -4.5748  -3.7509
    -3.1575  -2.5734  -1.6065  -0.9229   1.8475   2.3109   2.4607   3.7047
     5.8521   5.9658   6.5548   7.2592   7.4326   8.2400   8.8919   9.0751
     9.6518  10.2540  10.8456  11.4787  11.8336  12.4793  12.4941  12.7674

          k = 0.1000 0.2887 0.0000 (  7515 PWs)   bands (ev):

   -74.3689 -38.6443 -38.5910 -38.5225 -28.5529 -28.5500 -28.5480 -28.5398
   -28.4898 -28.4876 -28.4590 -14.0394 -13.0618  -5.6576  -4.8614  -4.1405
    -3.4344  -2.4559  -1.7337  -1.1476   1.7874   2.3577   2.6594   3.9955
     6.2267   6.3608   6.9721   7.5853   7.6512   8.4400   8.9615   9.2784
     9.6949  10.5606  11.1682  11.4528  12.0468  12.0941  12.7588  12.7881

          k = 0.1000 0.3464 0.0000 (  7482 PWs)   bands (ev):

   -74.3665 -38.6886 -38.5822 -38.5368 -28.5530 -28.5493 -28.5464 -28.5416
   -28.4906 -28.4879 -28.4583 -13.7242 -12.9476  -5.7817  -4.8498  -4.5675
    -3.5983  -2.4286  -1.9161  -1.2620   1.8467   2.4695   2.9292   4.2055
     6.6070   6.8014   7.2210   7.5299   8.0548   8.6745   8.7432   9.7352
    10.0360  10.9240  11.2442  11.2909  11.8519  12.3734  12.8875  13.2549

          k = 0.1000 0.4041 0.0000 (  7477 PWs)   bands (ev):

   -74.3643 -38.7282 -38.5742 -38.5497 -28.5531 -28.5487 -28.5451 -28.5431
   -28.4914 -28.4881 -28.4577 -13.4155 -12.8378  -6.0769  -4.9611  -4.7121
    -3.6877  -2.4449  -2.1091  -1.2346   2.0221   2.6043   3.2194   4.3055
     6.5382   7.1227   7.2375   8.0820   8.2963   8.9431   8.9596  10.0572
    10.3170  10.5425  11.3412  11.4720  12.0808  12.7319  13.1521  13.7003

          k = 0.1000 0.4619 0.0000 (  7471 PWs)   bands (ev):

   -74.3626 -38.7595 -38.5679 -38.5599 -28.5532 -28.5482 -28.5445 -28.5439
   -28.4919 -28.4882 -28.4572 -13.1494 -12.7453  -6.3547  -5.2733  -4.6467
    -3.7297  -2.4214  -2.2763  -1.1194   2.2475   2.7462   3.4961   4.2851
     5.8969   7.4540   7.6149   8.5189   8.7301   9.3203   9.4258   9.9802
    10.3629  10.4850  11.3978  11.5434  12.2894  12.6998  12.7980  13.3681

          k = 0.1000 0.5196 0.0000 (  7456 PWs)   bands (ev):

   -74.3615 -38.7795 -38.5665 -38.5638 -28.5533 -28.5479 -28.5452 -28.5433
   -28.4923 -28.4883 -28.4569 -12.9661 -12.6832  -6.5465  -5.4731  -4.6495
    -3.7443  -2.3899  -2.3715  -0.9872   2.3921   2.9255   3.7446   4.1660
     5.3274   7.7690   7.9299   8.7509   9.2998   9.6067   9.7752   9.8876
    10.4933  10.5785  11.3948  11.5898  11.7596  12.1161  12.2485  13.1237

          k = 0.1000 0.5774 0.0000 (  7460 PWs)   bands (ev):

   -74.3611 -38.7864 -38.5688 -38.5624 -28.5533 -28.5478 -28.5455 -28.5430
   -28.4924 -28.4884 -28.4568 -12.9004 -12.6612  -6.6151  -5.5419  -4.6596
    -3.7470  -2.4303  -2.3483  -0.9265   2.4251   3.0362   3.9228   4.0251
     5.0858   7.9257   8.0873   8.8083   9.2834   9.7601   9.8552  10.3873
    10.5783  10.8202  10.9489  11.2819  11.3622  12.1064  12.3945  12.7368

          k = 0.1500 0.2598 0.0000 (  7489 PWs)   bands (ev):

   -74.3691 -38.6369 -38.5919 -38.5242 -28.5528 -28.5501 -28.5481 -28.5397
   -28.4897 -28.4877 -28.4590 -14.0693 -13.0721  -5.6292  -4.8504  -4.0112
    -3.5675  -2.5310  -1.6292  -1.1000   1.7310   2.3783   2.5532   4.0193
     6.2115   6.3252   6.9423   7.6182   7.7214   8.4299   9.1729   9.2405
     9.6310  10.4608  10.9802  11.3015  11.9702  12.0757  12.7002  12.7507

          k = 0.1500 0.3175 0.0000 (  7483 PWs)   bands (ev):

   -74.3668 -38.6751 -38.5835 -38.5418 -28.5529 -28.5495 -28.5467 -28.5413
   -28.4904 -28.4880 -28.4584 -13.7742 -12.9635  -5.6411  -4.8883  -4.4175
    -3.7674  -2.6150  -1.7500  -1.1923   1.7294   2.5072   2.7379   4.2659
     6.6165   6.7498   7.4014   7.5718   8.0405   8.6908   9.0165   9.7907
     9.8937  10.7139  10.8519  11.2065  11.7793  12.1180  12.9192  13.1126

          k = 0.1500 0.3753 0.0000 (  7476 PWs)   bands (ev):

   -74.3647 -38.7106 -38.5756 -38.5589 -28.5529 -28.5490 -28.5453 -28.5429
   -28.4910 -28.4883 -28.4578 -13.4716 -12.8531  -5.8706  -4.8582  -4.7222
    -3.8270  -2.7757  -1.9371  -1.1780   1.8741   2.6450   2.9779   4.4136
     6.9376   7.1925   7.2119   7.9666   8.4459   8.9864   8.9915   9.8809
    10.2470  10.5148  11.3109  11.4276  11.8342  12.3083  13.1092  13.5983

          k = 0.1500 0.4330 0.0000 (  7472 PWs)   bands (ev):

   -74.3628 -38.7405 -38.5738 -38.5688 -28.5529 -28.5486 -28.5445 -28.5438
   -28.4916 -28.4885 -28.4573 -13.1932 -12.7529  -6.1198  -5.2350  -4.5994
    -3.8214  -2.8942  -2.1441  -1.0804   2.1037   2.7659   3.2263   4.4514
     6.4265   7.5054   7.6750   8.5750   8.7172   9.1307   9.3519   9.8476
    10.4801  10.5925  11.5586  11.5666  12.1669  12.6026  13.3744  13.5575

          k = 0.1500 0.4907 0.0000 (  7468 PWs)   bands (ev):

   -74.3615 -38.7619 -38.5847 -38.5639 -28.5529 -28.5483 -28.5453 -28.5432
   -28.4920 -28.4887 -28.4569 -12.9757 -12.6758  -6.3145  -5.5062  -4.5822
    -3.7852  -2.9241  -2.3244  -0.9335   2.2588   2.9309   3.4439   4.4008
     5.8203   7.8859   8.1299   8.9683   8.9871   9.4148   9.7978   9.9855
    10.5278  10.6745  11.6371  11.7278  12.1625  12.5394  12.5944  13.1535

          k = 0.1500 0.5485 0.0000 (  7461 PWs)   bands (ev):

   -74.3608 -38.7732 -38.5904 -38.5613 -28.5529 -28.5481 -28.5458 -28.5428
   -28.4922 -28.4888 -28.4567 -12.8552 -12.6337  -6.4213  -5.6480  -4.6062
    -3.7525  -2.9151  -2.4321  -0.8136   2.2718   3.1271   3.5858   4.3293
     5.4094   8.1923   8.5822   8.9720   8.9732   9.8397   9.9726  10.2961
    10.8457  10.8827  11.2272  11.5708  11.7100  12.2612  12.3695  13.0895

          k = 0.2000 0.3464 0.0000 (  7473 PWs)   bands (ev):

   -74.3648 -38.7033 -38.5760 -38.5634 -28.5528 -28.5492 -28.5454 -28.5428
   -28.4909 -28.4884 -28.4578 -13.4909 -12.8583  -5.7809  -4.8116  -4.7310
    -3.8925  -2.9033  -1.8663  -1.1608   1.8207   2.6594   2.8801   4.4624
     7.0019   7.1991   7.3413   7.9287   8.4805   9.0048   9.0869   9.7544
    10.1769  10.7711  10.8976  11.4729  11.8194  12.1544  13.1196  13.5549

          k = 0.2000 0.4041 0.0000 (  7479 PWs)   bands (ev):

   -74.3630 -38.7269 -38.5846 -38.5692 -28.5526 -28.5489 -28.5445 -28.5438
   -28.4913 -28.4888 -28.4573 -13.2165 -12.7563  -5.9508  -5.2098  -4.5608
    -3.8887  -3.2031  -2.0533  -1.0694   2.0192   2.7812   3.0480   4.5824
     6.8137   7.5389   7.6784   8.4793   8.8621   8.8951   9.3515   9.8231
    10.5404  10.9242  11.4792  11.7417  11.9186  12.2771  13.4178  13.4722

          k = 0.2000 0.4619 0.0000 (  7478 PWs)   bands (ev):

   -74.3615 -38.7445 -38.6025 -38.5639 -28.5525 -28.5486 -28.5453 -28.5432
   -28.4916 -28.4891 -28.4569 -12.9834 -12.6698  -6.0876  -5.5316  -4.4973
    -3.8235  -3.4003  -2.2616  -0.9152   2.1462   2.9421   3.1963   4.6381
     6.3172   7.8304   8.1541   8.6490   9.1914   9.2960   9.8511  10.2370
    10.7518  10.9340  11.7823  11.7882  12.2462  12.6462  13.0876  13.1398

          k = 0.2000 0.5196 0.0000 (  7474 PWs)   bands (ev):

   -74.3606 -38.7553 -38.6145 -38.5604 -28.5525 -28.5485 -28.5460 -28.5427
   -28.4919 -28.4893 -28.4567 -12.8251 -12.6114  -6.1722  -5.7383  -4.5366
    -3.7451  -3.4692  -2.4325  -0.7412   2.0910   3.1949   3.2950   4.6523
     5.8551   7.9520   8.6129   8.8956   9.4891  10.0170  10.1716  10.4431
    10.8560  11.0295  11.7497  11.8755  12.1191  12.5130  12.5233  12.9905

          k = 0.2000 0.5774 0.0000 (  7460 PWs)   bands (ev):

   -74.3602 -38.7589 -38.6188 -38.5592 -28.5524 -28.5484 -28.5462 -28.5425
   -28.4919 -28.4894 -28.4566 -12.7688 -12.5907  -6.2005  -5.8095  -4.5688
    -3.7086  -3.4796  -2.5012  -0.6589   2.0314   3.3294   3.3318   4.6525
     5.6544   7.9879   8.8925   9.0811   9.5042  10.1870  10.2099  10.8873
    11.0273  11.2084  11.4095  11.6567  11.7512  12.3475  12.5513  12.9570

          k = 0.2500 0.4330 0.0000 (  7479 PWs)   bands (ev):

   -74.3615 -38.7366 -38.6107 -38.5639 -28.5524 -28.5488 -28.5453 -28.5432
   -28.4915 -28.4893 -28.4569 -12.9863 -12.6676  -5.9869  -5.5410  -4.4422
    -3.8391  -3.6125  -2.2354  -0.9115   2.1032   2.9470   3.1049   4.7340
     6.5758   7.7060   8.1519   8.5415   9.2528   9.2579   9.8783  10.3265
    10.9219  11.1770  11.8580  11.8956  12.0767  12.5233  12.7571  13.6408

          k = 0.2500 0.4907 0.0000 (  7477 PWs)   bands (ev):

   -74.3605 -38.7402 -38.6330 -38.5599 -28.5522 -28.5488 -28.5461 -28.5426
   -28.4916 -28.4897 -28.4566 -12.8102 -12.5988  -5.9736  -5.7900  -4.4531
    -3.8745  -3.7382  -2.4309  -0.7025   1.9727   3.1330   3.2290   4.8597
     6.2769   7.5125   8.5814   8.9573   9.7009   9.9905  10.4597  10.8314
    11.0654  11.2014  11.9347  11.9464  12.4270  12.5351  12.8896  12.9452

          k = 0.2500 0.5485 0.0000 (  7467 PWs)   bands (ev):

   -74.3599 -38.7403 -38.6464 -38.5579 -28.5520 -28.5488 -28.5465 -28.5422
   -28.4916 -28.4899 -28.4565 -12.7144 -12.5611  -5.9415  -5.9226  -4.5592
    -3.9460  -3.6519  -2.5672  -0.5287   1.7936   3.1413   3.4727   4.9314
     6.0157   7.4247   8.9007   9.4308  10.1298  10.5149  10.6259  10.9463
    11.3295  11.5350  11.6978  11.8839  12.0466  12.3657  12.7073  12.8374

          k = 0.3000 0.5196 0.0000 (  7476 PWs)   bands (ev):

   -74.3598 -38.7293 -38.6606 -38.5574 -28.5518 -28.5489 -28.5466 -28.5421
   -28.4914 -28.4902 -28.4565 -12.6958 -12.5506  -5.9630  -5.8046  -4.5776
    -4.1328  -3.6262  -2.5950  -0.4734   1.6930   3.0737   3.5212   5.0417
     6.2726   7.0934   8.8909   9.5492  10.2705  10.7552  10.9239  11.1676
    11.3981  11.4605  11.6897  11.9476  12.5079  12.6699  12.6830  12.7084

          k = 0.3000 0.5774 0.0000 (  7452 PWs)   bands (ev):

   -74.3595 -38.7211 -38.6745 -38.5566 -28.5517 -28.5490 -28.5467 -28.5420
   -28.4912 -28.4905 -28.4564 -12.6558 -12.5334  -6.0236  -5.7021  -4.7173
    -4.1713  -3.5702  -2.6689  -0.3608   1.5509   3.0502   3.6478   5.1116
     6.2691   6.9316   9.0173   9.9096  10.6739  10.9081  10.9836  11.3501
    11.4011  11.6975  11.8229  12.0573  12.3525  12.3623  12.4610  12.6228

     the Fermi energy is     0.1412 ev

!    total energy              =    -585.04736575 Ry
     estimated scf accuracy    <          1.6E-11 Ry
     smearing contrib. (-TS)   =      -0.00000000 Ry
     internal energy E=F+TS    =    -585.04736575 Ry

     The total energy is F=E-TS. E is the sum of the following terms:
     one-electron contribution =   -3633.10404256 Ry
     hartree contribution      =    1817.81025578 Ry
     xc contribution           =     -51.62754814 Ry
     ewald contribution        =    1281.87396917 Ry

     convergence has been achieved in   9 iterations

     Writing all to output data dir out/WS2.save/
 
     init_run     :      0.47s CPU      0.53s WALL (       1 calls)
     electrons    :     14.47s CPU     15.33s WALL (       1 calls)

     Called by init_run:
     wfcinit      :      0.36s CPU      0.40s WALL (       1 calls)
     potinit      :      0.06s CPU      0.07s WALL (       1 calls)
     hinit0       :      0.02s CPU      0.03s WALL (       1 calls)

     Called by electrons:
     c_bands      :     12.77s CPU     13.44s WALL (      10 calls)
     sum_band     :      1.65s CPU      1.80s WALL (      10 calls)
     v_of_rho     :      0.04s CPU      0.04s WALL (      10 calls)
     mix_rho      :      0.01s CPU      0.01s WALL (      10 calls)

     Called by c_bands:
     init_us_2    :      0.05s CPU      0.05s WALL (     924 calls)
     init_us_2:cp :      0.05s CPU      0.05s WALL (     924 calls)
     cegterg      :     12.37s CPU     12.65s WALL (     440 calls)

     Called by *egterg:
     cdiaghg      :      2.46s CPU      2.49s WALL (    2093 calls)
     h_psi        :      9.37s CPU      9.61s WALL (    2181 calls)
     g_psi        :      0.02s CPU      0.02s WALL (    1697 calls)

     Called by h_psi:
     h_psi:calbec :      0.21s CPU      0.21s WALL (    2181 calls)
     vloc_psi     :      9.05s CPU      9.27s WALL (    2181 calls)
     add_vuspsi   :      0.09s CPU      0.10s WALL (    2181 calls)

     General routines
     calbec       :      0.20s CPU      0.21s WALL (    2181 calls)
     fft          :      0.03s CPU      0.04s WALL (     100 calls)
     ffts         :      0.00s CPU      0.00s WALL (      10 calls)
     fftw         :     10.29s CPU     10.56s WALL (  127786 calls)
     davcio       :      0.07s CPU      0.50s WALL (    1494 calls)
 
     Parallel routines
 
     PWSCF        :     15.29s CPU     16.60s WALL

 
   This run was terminated on:  11:22:50   5Apr2024            

=------------------------------------------------------------------------------=
   JOB DONE.
=------------------------------------------------------------------------------=
