
     Program PWSCF v.7.1 starts on  5Apr2024 at 10:22:31 

     This program is part of the open-source Quantum ESPRESSO suite
     for quantum simulation of materials; please cite
         "P. Giannozzi et al., J. Phys.:Condens. Matter 21 395502 (2009);
         "P. Giannozzi et al., J. Phys.:Condens. Matter 29 465901 (2017);
         "P. Giannozzi et al., J. Chem. Phys. 152 154105 (2020);
          URL http://www.quantum-espresso.org", 
     in publications or presentations arising from this work. More details at
     http://www.quantum-espresso.org/quote

     Parallel version (MPI), running on     8 processors

     MPI processes distributed on     1 nodes
     244909 MiB available memory on the printing compute node when the environment starts
 
     Reading input from pw_WS2_nscf_k12_E47.in
Warning: card &IONS ignored
Warning: card / ignored
Warning: card &CELL ignored
Warning: card / ignored

     Current dimensions of program PWSCF are:
     Max number of different atomic species (ntypx) = 10
     Max number of k-points (npk) =  40000
     Max angular momentum in pseudopotentials (lmaxx) =  4

     Atomic positions and unit cell read from directory:
     out/WS2.save/
     Atomic positions from file used, from input discarded
 
 
     R & G space division:  proc/nbgrp/npool/nimage =       8
     Subspace diagonalization in iterative solution of the eigenvalue problem:
     one sub-group per band group will be used
     scalapack distributed-memory algorithm (size of sub-group:  2*  2 procs)

 
     Parallelization info
     --------------------
     sticks:   dense  smooth     PW     G-vecs:    dense   smooth      PW
     Min          59      59     17                 7479     7479    1187
     Max          60      60     18                 7492     7492    1202
     Sum         475     475    139                59873    59873    9553
 
     Using Slab Decomposition
 


     bravais-lattice index     =            4
     lattice parameter (alat)  =       6.0229  a.u.
     unit-cell volume          =    1375.6981 (a.u.)^3
     number of atoms/cell      =            3
     number of atomic types    =            2
     number of electrons       =        40.00
     number of Kohn-Sham states=         1200
     kinetic-energy cutoff     =      47.0000  Ry
     charge density cutoff     =     188.0000  Ry
     Exchange-correlation= PBE
                           (   1   4   3   4   0   0   0)

     celldm(1)=   6.022906  celldm(2)=   0.000000  celldm(3)=   7.270665
     celldm(4)=   0.000000  celldm(5)=   0.000000  celldm(6)=   0.000000

     crystal axes: (cart. coord. in units of alat)
               a(1) = (   1.000000   0.000000   0.000000 )  
               a(2) = (  -0.500000   0.866025   0.000000 )  
               a(3) = (   0.000000   0.000000   7.270665 )  

     reciprocal axes: (cart. coord. in units 2 pi/alat)
               b(1) = (  1.000000  0.577350  0.000000 )  
               b(2) = (  0.000000  1.154701  0.000000 )  
               b(3) = (  0.000000  0.000000  0.137539 )  


     PseudoPot. # 1 for S  read from file:
     /usr/scratch4/magr4985/FGWC/FGWC/pseudo/SG15/S.upf
     MD5 check sum: f9d020296ee6110346977bfd66d424f6
     Pseudo is Norm-conserving, Zval =  6.0
     Generated using ONCVPSP code by D. R. Hamann
     Using radial grid of  602 points,  4 beta functions with: 
                l(1) =   0
                l(2) =   0
                l(3) =   1
                l(4) =   1

     PseudoPot. # 2 for W  read from file:
     /usr/scratch4/magr4985/FGWC/FGWC/pseudo/SG15/W.upf
     MD5 check sum: b6096f31a98cdd82a46cfdcd1f902baf
     Pseudo is Norm-conserving, Zval = 28.0
     Generated using ONCVPSP code by D. R. Hamann
     Using radial grid of  602 points,  8 beta functions with: 
                l(1) =   0
                l(2) =   0
                l(3) =   1
                l(4) =   1
                l(5) =   2
                l(6) =   2
                l(7) =   3
                l(8) =   3

     atomic species   valence    mass     pseudopotential
        S              6.00    32.06500     S ( 1.00)
        W             28.00   183.84000     W ( 1.00)

     12 Sym. Ops. (no inversion) found



   Cartesian axes

     site n.     atom                  positions (alat units)
         1           W   tau(   1) = (   0.0000000   0.5773502   3.6353328  )
         2           S   tau(   2) = (   0.5000000   0.2886752   4.1286326  )
         3           S   tau(   3) = (   0.5000000   0.2886752   3.1420330  )

     number of k points=     4  Gaussian smearing, width (Ry)=  0.0005
                       cart. coord. in units 2pi/alat
        k(    1) = (   0.0000000   0.0000000   0.0000000), wk =   0.1250000
        k(    2) = (   0.0000000   0.2886751   0.0000000), wk =   0.7500000
        k(    3) = (   0.0000000  -0.5773503   0.0000000), wk =   0.3750000
        k(    4) = (   0.2500000   0.4330127   0.0000000), wk =   0.7500000

     Dense  grid:    59873 G-vectors     FFT dimensions: (  27,  27, 192)

     Estimated max dynamical RAM per process >     229.32 MB

     Estimated total dynamical RAM >       1.79 GB

     The potential is recalculated from file :
     out/WS2.save/charge-density

     Starting wfcs are random

     Band Structure Calculation
     Davidson diagonalization with overlap

     ethr =  5.00E-06,  avg # of iterations = 11.5

     total cpu time spent up to now is      317.6 secs

     End of band structure calculation

          k = 0.0000 0.0000 0.0000 (  7547 PWs)   bands (ev):

   -74.3778 -38.6238 -38.4725 -38.4724 -28.5535 -28.5524 -28.5524 -28.5332
   -28.4867 -28.4867 -28.4614 -15.0496 -13.4345  -6.6295  -3.1524  -3.1524
    -2.4270  -1.9296  -1.9296  -0.3506   2.5559   2.5559   2.6964   2.6964
     4.6469   5.0619   5.2710   5.7328   6.3679   7.2028   8.3354   8.3824
     9.3779  10.3125  10.3125  11.0696  11.6916  12.5816  12.5816  12.8397
    14.4229  15.2418  15.4834  15.9884  15.9884  16.3097  16.3097  17.8029
    18.3885  19.0513  19.8963  22.2951  22.2951  22.5339  22.9042  23.8719
    23.8719  24.2141  24.4405  24.4405  24.4478  24.5458  24.5458  24.7630
    24.9432  25.0742  25.0742  25.3239  25.3299  25.3299  25.3749  25.6818
    25.6818  25.7059  25.7059  25.7766  25.9718  25.9718  26.2195  26.2435
    26.6656  26.6656  26.7524  27.1835  27.1835  27.2815  27.2815  27.3273
    27.3869  27.8517  27.8517  27.9146  28.3361  28.5735  28.5735  28.8517
    29.0094  29.2291  29.2291  29.5794  29.5794  29.7284  30.4493  30.4542
    30.4542  30.6536  30.6536  31.1433  31.4890  31.7676  31.7676  32.4011
    32.4011  32.6706  32.7084  33.3037  33.3037  33.4690  33.6149  33.6149
    33.8988  34.5726  34.7268  34.7849  34.7849  35.4103  35.4103  36.3496
    36.6606  36.8572  36.8572  36.9487  36.9487  37.1114  37.1114  37.9426
    38.0488  38.3430  38.8180  38.8180  39.0202  39.2852  39.2852  39.7546
    40.7281  40.7416  40.7416  41.1866  41.3700  41.3700  41.4924  42.4963
    42.4963  42.9678  43.1648  43.1648  44.0691  44.2326  44.2326  45.0490
    45.0490  45.1616  45.6938  45.7963  45.7963  46.1070  46.5984  46.6370
    46.6370  46.7486  47.0565  47.0565  48.6385  48.6990  48.6990  49.7155
    49.7155  49.7254  49.8220  50.2713  51.2353  51.2353  51.5481  52.7383
    52.7383  52.8536  52.8536  52.9222  53.7608  54.6993  54.9082  54.9082
    55.2498  55.4804  55.4804  55.6765  55.6765  55.8257  56.2992  56.2992
    56.5789  57.5208  57.5887  57.5887  58.1636  58.7055  58.7875  58.9649
    58.9649  60.0069  60.0069  60.2215  60.2215  60.3497  60.4695  61.1726
    61.1726  61.3087  61.4046  61.8392  61.8392  62.1170  62.1929  62.1929
    62.8125  63.0705  63.0705  63.6454  63.7378  63.9303  63.9303  64.0425
    64.0425  64.3657  64.6285  64.6285  64.6430  64.6583  64.7028  64.7514
    64.7514  64.8322  64.8444  64.8444  64.8616  65.1526  65.1526  65.2853
    65.2853  65.5091  65.5511  65.6239  65.7260  65.9555  65.9807  65.9807
    66.1503  66.1503  66.1775  66.1775  66.2857  66.2857  66.7340  66.7340
    67.1314  67.2073  67.2073  67.4995  67.5739  67.6663  67.8746  67.8749
    67.8749  67.9877  67.9877  68.0258  68.0258  68.1045  68.3326  68.3326
    68.7390  68.7390  69.3441  69.9395  69.9395  69.9492  69.9492  70.2284
    70.3209  70.3682  70.4325  70.4325  70.5323  70.6945  70.6945  70.7599
    71.2039  71.2039  71.4478  71.7043  71.9604  71.9604  72.1724  72.8059
    72.8059  73.3880  73.3880  73.5448  73.6730  73.6730  73.7487  73.8397
    74.1167  74.2863  74.5549  74.5549  74.7085  74.7085  74.9575  74.9575
    74.9884  75.7607  75.7607  76.0287  76.0287  76.6217  76.6440  76.6440
    77.3676  77.3676  77.5130  77.5228  77.6015  77.7245  77.7314  77.9143
    77.9143  78.2446  78.2446  79.0381  79.7394  79.7394  79.7559  80.0807
    80.1340  80.3259  80.3259  80.6790  80.6790  80.8579  81.3458  81.3458
    81.3882  81.3882  82.0845  82.1198  82.3065  82.5203  82.5203  82.5463
    82.5463  82.7299  82.8017  82.8017  82.8681  83.1917  83.1917  83.2170
    83.4404  83.4404  83.9324  83.9324  84.0354  84.0354  84.0824  84.1825
    84.2862  84.3624  84.3624  84.3966  84.3966  84.4416  84.4810  84.6012
    84.9545  84.9545  84.9951  84.9951  85.1489  85.1489  85.2825  85.2825
    85.3139  85.4135  85.4346  85.6593  85.9405  85.9405  86.0653  86.0653
    86.4028  86.4028  86.5860  86.5938  86.5938  86.9542  86.9542  87.0066
    87.1732  87.1732  87.2936  87.3155  87.3271  87.4634  87.4735  87.4735
    87.6067  87.6067  87.8967  88.2594  88.4493  88.7963  89.0148  89.0148
    89.2136  89.2136  89.2634  89.5757  89.5757  89.7753  89.7753  89.8287
    90.0361  90.0959  90.2451  90.3584  90.3584  90.4874  90.4874  91.0487
    91.0487  91.1495  91.2131  91.2131  91.5881  91.5881  91.9178  92.2223
    92.2803  92.2803  92.5992  92.5992  92.6023  92.6023  92.9472  92.9472
    93.0881  93.1036  93.1036  93.1823  93.1979  93.3587  93.4227  93.4227
    93.5116  93.5477  93.5477  93.6705  94.1505  94.9070  95.7482  95.7482
    95.9744  95.9744  96.0966  96.4426  96.4428  96.4428  96.5656  96.5656
    96.9188  97.1534  97.1534  97.3096  97.7656  98.0467  98.0467  98.4116
    98.4637  98.4681  98.4681  98.6606  98.6606  98.8919  99.2157  99.2157
    99.4073  99.5135  99.8582  99.8582  99.9983 100.2501 100.2501 100.4668
   100.5331 100.5331 100.9048 100.9048 101.1977 101.3227 101.3227 101.4571
   101.6084 101.6084 101.6604 101.6604 101.9382 102.0047 102.4005 102.4016
   102.4016 102.8752 103.6586 103.6586 103.8428 103.9581 103.9581 104.3547
   104.3547 105.1924 105.1924 105.2199 105.4001 106.0997 106.0997 106.2568
   106.3626 106.4010 106.4010 106.5984 106.6515 106.6515 106.7767 106.8602
   106.8603 106.9715 107.4927 107.5313 108.0026 108.7968 108.7968 108.8730
   108.8730 109.4120 109.4120 109.4368 109.4368 109.6041 109.6788 109.8493
   109.8493 110.1731 110.1731 110.2558 110.7991 110.9266 110.9266 111.1927
   111.1927 111.4702 111.4702 111.4983 111.6446 111.7254 111.7254 112.3601
   112.9329 112.9329 112.9382 113.0646 113.1510 113.1817 113.3645 113.3645
   113.4551 113.4868 113.4868 113.8848 114.1863 114.1863 114.4146 114.5583
   114.5583 115.3727 115.4892 116.3436 116.5829 116.5829 117.2738 117.2738
   117.2820 117.6004 117.6004 117.8653 118.2584 118.2584 118.9950 118.9976
   118.9976 119.0507 119.1455 119.1455 119.5120 119.5120 119.8952 119.8952
   120.0690 120.1703 120.1703 120.3211 120.3653 120.6776 120.9668 120.9668
   121.2752 121.2752 121.3734 121.5215 121.7549 121.7549 121.7915 121.7915
   121.8064 122.2555 122.6636 122.6636 123.0282 123.1078 123.6522 123.6522
   124.1219 124.1219 124.4603 124.6495 124.9723 124.9723 125.1698 125.1698
   125.2090 125.2644 125.2644 125.5398 125.6724 125.7980 125.7980 126.2593
   126.2935 126.8096 127.0317 127.0803 127.0803 127.3772 127.3772 127.6433
   128.1933 128.1933 128.7840 128.7840 129.2013 129.3947 129.4074 129.4074
   129.6922 129.6922 130.5420 130.5420 130.6382 130.6382 130.8119 130.8435
   131.0610 131.0610 131.1670 131.2672 131.2672 131.2804 131.7312 131.7312
   131.9198 132.0385 132.2161 132.2161 132.4600 132.4600 132.5037 132.5037
   133.3176 133.5112 133.5112 133.5510 133.6777 133.6777 133.7743 133.8588
   133.8588 134.0967 134.5164 135.0484 135.0914 135.2804 135.2804 135.3003
   135.3003 135.5935 136.2829 136.6964 136.6964 137.6067 137.6067 137.7936
   137.8820 137.8820 138.1392 138.1477 138.2699 139.1451 139.1451 139.4011
   139.4011 139.6393 139.6393 139.7692 139.8665 140.1029 140.1029 140.1296
   140.2188 140.5642 140.5642 140.5973 141.2867 141.2867 141.3588 141.4281
   141.5323 141.5323 141.5348 141.5348 141.9393 141.9682 142.1689 142.1689
   142.2909 142.2909 142.6049 142.6049 142.6288 142.6885 142.7769 142.7769
   142.8835 142.8835 142.9275 142.9662 142.9894 142.9894 143.0781 143.3168
   143.3168 143.4764 143.4989 143.4989 143.5243 143.5243 143.5546 143.5690
   143.6057 143.6410 143.6410 143.6526 143.6526 143.7164 143.7164 143.7520
   143.7791 143.7791 143.7911 143.7911 143.7970 143.8697 144.0142 144.0142
   144.1755 144.2189 144.2189 144.2507 144.2507 144.2507 144.3532 144.4049
   144.4049 144.4162 144.5673 144.6170 144.6170 144.7689 144.7862 144.7862
   144.8305 144.8337 144.8337 144.8738 144.8738 144.9286 145.1742 145.3885
   145.3885 145.4126 145.4126 145.4334 145.7263 145.7263 145.8690 146.0785
   146.2355 146.2355 146.2478 146.4398 146.4398 146.5063 146.5079 146.5546
   146.5546 146.7002 146.7002 146.7828 146.8153 146.8153 146.8405 147.0968
   147.0968 147.1457 147.1457 147.3131 147.4645 147.4720 147.4720 148.0352
   148.0352 148.2561 148.3126 148.3764 148.6039 148.6039 148.6360 148.6360
   148.7600 148.7889 149.0818 149.0818 149.1520 149.1537 149.1537 149.2304
   149.2304 149.3246 149.3246 149.3694 149.4104 149.5203 149.5203 149.7107
   149.7385 149.8920 149.8920 149.9353 150.0400 150.0533 150.0533 150.1253
   150.3439 150.3439 150.4841 150.6711 150.8415 150.8415 150.8622 150.8622
   150.9293 151.3656 151.5603 151.5603 151.6147 151.6147 151.7506 151.7506
   152.0267 152.1525 152.1525 152.2854 152.2981 152.3986 152.5996 152.5996
   152.6965 152.6965 152.9326 152.9532 152.9532 153.0163 153.0352 153.0352
   153.0939 153.4963 153.4963 153.5788 154.0667 154.0667 154.1926 154.2263
   154.2263 154.5289 154.5289 154.7406 154.7662 154.7662 154.8015 154.9736
   154.9736 155.3591 155.3592 155.5553 155.6685 155.6702 155.6702 155.7731
   155.7731 155.8080 156.1227 156.1468 156.4451 156.4451 156.4889 156.4889
   156.6642 156.6642 156.7632 156.8945 156.8961 156.8961 156.9586 157.4053
   157.4054 157.4707 157.4707 157.5105 157.6265 157.9129 157.9129 158.1519
   158.1519 158.5400 158.5444 158.9244 158.9244 158.9913 159.0223 159.0223
   159.2300 159.3163 159.3163 159.5865 159.7099 159.7099 159.9075 159.9075
   159.9146 159.9150 160.0266 160.0266 160.0870 160.2202 160.4637 160.6449
   160.6449 160.8292 160.8520 160.8836 160.8836 160.9775 161.0401 161.0811
   161.0812 161.1916 161.1916 161.4748 161.4748 161.5983 161.9353 161.9417
   161.9417 162.1752 162.1752 162.2628 162.3247 162.5906 162.6402 162.6402
   162.7974 162.7975 163.4720 163.4720 163.5154 164.2302 164.2302 164.6102
   165.1869 165.3602 165.5385 165.5605 165.5605 165.6564 165.6564 165.7152
   165.7912 165.7912 165.8495 166.0300 166.0300 166.2144 166.2144 166.3772
   166.3772 166.3878 166.5212 166.7105 166.7105 166.7424 166.9390 167.0179
   167.0179 167.1049 167.1049 167.4320 167.4857 167.4857 167.5187 167.5187
   167.6456 167.6456 168.1272 168.3685 168.3685 168.5887 168.5887 168.6283
   169.0301 169.0474 169.0474 169.1554 169.7345 169.7345 169.7550 169.7973
   169.9539 170.2107 170.2107 170.2367 170.4656 170.4656 170.5179 170.9070
   170.9070 171.0133 171.0133 171.3906 171.3906 171.6029 171.6098 171.8197
   171.8197 171.8699 171.8700 171.9137 171.9213 171.9213 172.0298 172.0529
   172.0618 172.0618 172.3359 172.5842 172.5842 172.5857 172.5904 172.9662
   172.9662 173.1971 173.2211 173.2211 173.6395 173.8692 174.1992 174.9298
   174.9298 175.0274 175.0274 175.4409 175.6720 175.6720 175.9951 176.3029
   176.3029 177.0137 177.0137 177.0489 177.2029 177.2302 177.2302 177.4862
   177.5168 177.8007 177.8007 177.9664 177.9664 178.2356 178.4501 178.4501
   178.4598 178.7274 178.7274 178.7710 178.9364 179.0577 179.0577 179.1226
   179.3779 179.3779 179.4416 179.4719 179.5600 179.5600 179.9459 179.9459
   179.9732 180.0931 180.0931 180.1333 180.1333 180.5917 180.6872 180.6872
   180.7305 180.7305 180.8091 180.8412 180.9740 180.9740 181.1573 181.4353
   181.4353 181.4902 181.4902 181.6977 181.6977 181.9566 182.0238 182.0336
   182.0881 182.0881 182.1291 182.1329 182.4079 182.4079 182.4261 182.4261
   182.7737 182.8182 182.8182 183.0184 183.0184 183.0496 183.0496 183.0819
   183.1051 183.1991 183.3651 183.3651 183.3655 183.5111 183.5111 183.6690
   183.6690 183.7642 183.8870 183.9575 183.9575 184.2287 184.4278 184.4800

          k = 0.0000 0.2887 0.0000 (  7505 PWs)   bands (ev):

   -74.3697 -38.6365 -38.5939 -38.5110 -28.5530 -28.5500 -28.5484 -28.5392
   -28.4897 -28.4874 -28.4591 -14.1361 -13.0985  -5.7594  -4.7908  -4.1520
    -2.9869  -2.3221  -1.9730  -1.1633   1.9951   2.2130   2.8260   3.7546
     6.0338   6.2165   6.7896   7.3462   7.5039   8.3654   8.7242   9.0971
     9.6268  10.5598  11.3476  11.8763  12.2107  12.3356  12.8414  13.1304
    13.6110  14.2344  14.7144  15.7219  16.2273  16.3318  16.8091  17.2481
    17.3188  17.4698  18.3854  19.1332  19.3967  19.9832  20.1626  20.3697
    20.5602  20.8702  21.0568  21.2767  21.5279  21.5733  21.9450  22.1326
    22.3392  22.3599  22.5907  22.6053  23.3863  23.4963  23.9010  23.9307
    23.9472  24.1780  24.6177  24.9462  25.2659  25.5861  25.9628  26.5508
    26.7675  27.0470  27.3835  28.2613  28.4247  28.6368  28.6413  28.7996
    29.4310  29.9562  30.0632  30.1299  30.2220  30.4741  30.5378  30.9067
    31.0449  31.2928  31.2986  31.3555  31.7824  31.8226  31.8294  32.0714
    32.5776  32.9068  32.9439  33.0436  33.3640  33.7222  33.8368  33.9008
    34.3423  34.4335  34.7642  34.8049  34.9123  35.0467  35.4162  35.7002
    35.8576  36.1825  36.3725  36.7552  36.8637  37.1058  37.1478  37.3880
    37.4491  38.0619  38.1054  38.1370  38.6674  38.8341  39.2678  39.3463
    39.4627  39.8930  40.0389  40.3679  40.7230  40.9552  41.3056  41.3488
    41.5296  42.3875  42.4099  42.4837  42.8139  42.8612  43.0659  43.3910
    43.7718  43.9729  44.6758  44.6954  44.8114  44.9580  45.4068  45.6623
    45.8161  46.0005  46.0064  46.3778  46.7826  47.2827  47.3445  47.7809
    47.8156  47.9353  48.2911  48.5057  48.7558  49.0939  49.1048  49.4361
    49.5941  49.8760  50.1570  50.2401  50.8115  50.9370  50.9900  51.0991
    51.2529  51.5325  51.6095  51.7268  51.7737  52.1185  52.1546  52.5828
    52.7156  52.7802  52.8012  53.2170  53.3120  53.5971  53.8767  54.1171
    54.1693  54.3370  54.3997  54.7369  54.9963  55.1976  55.2529  55.4577
    55.7732  56.0198  56.0901  56.1762  56.5236  56.5693  56.9831  57.2617
    57.3020  57.9519  58.0483  58.2315  58.4424  58.8165  58.8229  59.2488
    59.5810  59.6385  59.9190  60.0513  60.3297  60.3499  60.4257  60.6402
    60.7963  60.9853  62.1625  62.1723  62.2123  62.6677  62.7865  62.8176
    63.2759  63.3521  63.5498  63.7669  64.0187  64.0409  64.1164  64.5962
    64.6272  65.1407  65.3972  65.4276  65.4966  65.6441  65.7534  65.8618
    65.9391  66.0075  66.0402  66.0921  66.3874  66.4378  66.5219  66.5717
    66.7725  66.8687  67.0375  67.2593  67.3299  67.4975  67.8788  68.1384
    68.2163  68.2334  68.2514  68.5234  68.6178  68.6954  68.8706  69.5143
    69.7674  69.8251  70.0612  70.1097  70.1844  70.2610  70.4263  70.6349
    71.0279  71.1028  71.1397  71.6175  71.7106  71.7600  71.9001  72.0474
    72.0631  72.3574  72.4809  72.7874  72.8264  72.8597  73.0491  73.2754
    73.4252  73.5014  73.6500  74.0683  74.1769  74.3951  74.4529  74.4962
    74.5921  74.8654  75.0796  75.1620  75.1908  75.4918  75.7454  75.8010
    75.9698  76.0996  76.1924  76.4658  76.5941  76.6682  76.6683  76.8316
    76.9410  77.2513  77.2635  77.3323  77.6339  77.9973  78.0066  78.1326
    78.1334  78.3732  78.4226  78.8101  78.8135  78.9290  79.0557  79.1093
    79.3075  79.4430  79.5411  79.7322  79.9337  79.9726  80.0772  80.1430
    80.4598  80.4657  80.6554  80.6669  80.7237  80.7451  80.9175  81.0337
    81.1511  81.1915  81.3478  81.4934  81.7556  81.8233  81.9627  81.9959
    82.0246  82.2826  82.3105  82.3181  82.5418  82.7444  82.7570  83.2458
    83.4607  83.5905  83.5988  83.6049  83.8220  84.0001  84.1086  84.4511
    84.4578  84.7807  84.8015  85.1886  85.2791  85.4597  85.5043  85.6139
    85.6210  85.6891  85.9424  86.1303  86.3058  86.5319  86.7251  86.8410
    86.9752  86.9837  87.3154  87.4144  87.6954  87.9280  87.9553  87.9975
    88.4038  88.4275  88.4596  88.8213  88.8448  88.8527  89.0966  89.2232
    89.4267  89.4691  89.7186  89.8036  89.8497  89.8946  90.4615  90.9272
    90.9778  91.0708  91.1039  91.3015  91.8008  91.9230  91.9642  92.0852
    92.1047  92.4795  92.5543  92.6532  92.9890  93.0265  93.4728  93.5145
    93.6642  93.8480  93.8897  93.9966  94.0704  94.1627  94.2556  94.2848
    94.5059  94.9841  95.1438  95.2282  95.4279  95.4516  95.5072  95.6153
    95.7735  95.8759  96.1036  96.1292  96.4453  96.4969  96.5030  96.5495
    96.5986  96.8212  96.8492  96.9397  97.3888  97.3994  97.7518  97.8914
    97.9436  98.0106  98.2234  98.3143  98.3888  98.4528  98.4906  98.5384
    98.9302  99.0402  99.2358  99.2553  99.8042  99.8916 100.1482 100.1530
   100.1985 100.3001 100.3977 100.7342 100.9469 101.0167 101.0249 101.2351
   101.3917 101.4199 101.9087 102.0046 102.1421 102.2138 102.3190 102.3389
   102.9655 103.0595 103.1460 103.2010 103.2471 103.5334 103.7858 104.0669
   104.1489 104.2245 104.2614 104.6110 104.6276 104.6418 105.0058 105.1047
   105.1718 105.2495 105.4933 105.7221 105.7859 105.7878 106.1820 106.1911
   106.1995 106.3237 106.3749 106.6425 106.8767 106.8859 107.1635 107.1880
   107.4684 107.5987 107.6601 107.7021 107.8297 107.8619 108.1452 108.2515
   108.4619 108.5138 108.7190 108.7868 108.8232 108.8442 108.9413 109.0123
   109.3372 109.3615 109.5936 109.7403 109.9867 110.6243 110.6482 110.8273
   111.0328 111.1393 111.3914 111.4789 111.6967 111.8979 111.9128 112.0872
   112.1337 112.1683 112.5362 112.7373 112.8280 112.9144 113.1505 113.2947
   113.4373 113.4667 113.7339 113.8532 114.0029 114.1037 114.3077 114.5020
   114.7089 115.1043 115.1149 115.4166 115.4840 115.6038 115.8258 115.8792
   116.1659 116.2731 116.5886 116.6010 116.7351 116.8455 117.1383 117.2200
   117.2967 117.3109 117.5070 117.6026 117.8496 117.8534 117.9721 118.1459
   118.2653 118.3551 118.4299 118.4651 118.7006 118.8728 119.2716 119.3804
   119.7732 119.9443 120.1214 120.1345 120.2830 120.3641 120.3829 120.5259
   120.7272 120.9138 120.9803 121.1207 121.2222 121.4910 121.7747 121.8830
   121.9313 121.9374 122.2211 122.2644 122.5301 122.5459 122.5516 122.6683
   122.8892 122.8970 123.1191 123.1499 123.1715 123.4403 123.4976 123.6630
   123.7478 123.7729 124.0483 124.1399 124.3972 124.4893 124.4961 124.6950
   124.7635 124.8312 124.9661 125.0920 125.0947 125.1213 125.1883 125.2692
   125.3621 125.6050 125.6583 125.9596 126.0199 126.0847 126.0878 126.1263
   126.2971 126.3110 126.3465 126.5681 126.6017 126.8906 126.9963 127.0942
   127.3601 127.4784 127.6411 127.7097 127.8327 127.8419 127.9256 127.9536
   128.0100 128.2235 128.3808 128.5537 128.6038 128.6210 128.7706 129.0155
   129.0679 129.3109 129.4595 129.5571 129.6089 129.9878 130.1523 130.1601
   130.2037 130.3339 130.5999 130.6906 130.8074 130.8372 130.9537 131.0169
   131.2694 131.6960 131.7050 131.7099 131.7165 131.8705 132.3589 132.4694
   132.4876 132.5755 132.7966 133.0024 133.1925 133.2108 133.3019 133.3260
   133.5241 133.5456 133.6108 134.0180 134.0481 134.1873 134.3173 134.5395
   134.6683 134.7282 134.7632 135.1838 135.3909 135.4257 135.6067 135.7935
   135.8145 135.8447 136.1801 136.2876 136.3191 136.5819 136.7374 136.7455
   137.1723 137.1850 137.3187 137.3261 137.4129 137.5875 137.6609 137.8290
   137.9760 138.0129 138.0610 138.2051 138.3863 138.5178 138.5399 138.9507
   138.9626 139.0262 139.2005 139.3201 139.3874 139.5194 139.5298 139.6177
   139.7249 139.7408 139.8684 140.0254 140.0653 140.2450 140.2991 140.4559
   140.6000 140.7553 140.8570 140.8735 140.8911 141.2000 141.3942 141.7276
   141.7421 141.9142 141.9612 142.1682 142.1930 142.1976 142.2327 142.4269
   142.5305 142.6260 142.6637 142.8740 142.9196 143.1123 143.1889 143.3121
   143.3131 143.5252 143.6811 143.7484 143.8545 144.0933 144.1369 144.2424
   144.4083 144.5278 144.9353 145.0427 145.0946 145.2716 145.3056 145.5421
   145.5746 145.7970 145.9188 145.9399 146.3238 146.3947 146.5367 146.6442
   147.0000 147.0212 147.1712 147.2492 147.2784 147.3189 147.4776 147.6252
   147.8199 147.8460 148.1085 148.2086 148.2572 148.3075 148.3361 148.5274
   148.7267 148.7561 148.7611 148.8818 148.9222 148.9489 149.0586 149.1079
   149.3040 149.4409 149.4564 149.7002 149.8409 149.8679 149.8961 149.9135
   150.2227 150.2425 150.4398 150.5483 150.5808 150.7715 150.8166 150.8408
   151.0259 151.0857 151.1806 151.2476 151.2833 151.5244 151.5456 151.7834
   151.7898 151.8788 151.9199 152.2439 152.3638 152.3826 152.4326 152.4772
   152.6767 152.7907 152.7971 152.9351 153.0094 153.1160 153.1905 153.2823
   153.3666 153.4577 153.4854 153.8170 153.9648 154.1173 154.1208 154.4152
   154.6059 154.6950 154.6983 154.7318 154.7433 154.7683 155.0913 155.1394
   155.1599 155.3425 155.3777 155.4170 155.4885 155.5280 155.6599 155.7561
   155.9574 156.2007 156.3472 156.3771 156.5000 156.5900 156.7990 156.9143
   157.1311 157.2100 157.3263 157.4141 157.5561 157.5850 157.8265 158.3653
   158.4084 158.4645 158.5430 158.6863 158.8366 158.9006 158.9512 159.0067
   159.2806 159.4256 159.5142 159.6359 159.6935 159.7625 159.8044 160.0427
   160.1371 160.3556 160.3825 160.3874 160.8307 160.8373 160.8856 161.1056
   161.2310 161.3302 161.3834 161.6117 161.6361 161.7409 161.7843 161.7949
   161.9095 162.0204 162.0536 162.0751 162.1399 162.3883 162.3977 162.4691
   162.6199 162.6638 162.7787 162.8373 163.1357 163.1361 163.1522 163.3287
   163.4586 163.6478 163.6884 163.6959 163.8016 163.9481 164.0145 164.2553
   164.4269 164.4442 164.4881 164.5842 164.6774 164.8793 164.9601 165.1268
   165.1630 165.4189 165.4703 165.4783 165.5055 165.7101 165.8472 165.9150
   166.1220 166.2537 166.3246 166.5248 166.5290 166.6114 166.9105 166.9220
   166.9779 167.0774 167.2187 167.2521 167.2926 167.3807 167.5323 167.6362
   167.8827 167.9165 167.9512 168.1943 168.2369 168.2596 168.3827 168.4486
   168.8103 168.8604 168.8843 168.9873 168.9926 169.1216 169.2384 169.3599
   169.3923 169.4074 169.4544 169.5258 169.5648 169.5803 169.6043 169.6430
   169.7464 169.8135 169.8875 169.9555 169.9917 170.1988 170.2243 170.2333
   170.3230 170.3483 170.4486 170.4911 170.5403 170.6759 170.7406 170.7966
   170.8212 170.9997 171.0645 171.0776 171.2959 171.4273 171.5204 171.6480
   171.7779 171.8133 171.8585 171.9555 172.0140 172.1409 172.1864 172.1868
   172.2358 172.3391 172.4813 172.4935 172.5606 172.5674 172.7758 172.8295
   172.8677 172.9514 173.0128 173.0871 173.2118 173.2571 173.3546 173.4598
   173.6049 173.6921 173.7162 173.7528 173.9923 174.0524 174.1099 174.3029
   174.4880 174.6113 174.6225 174.7805 174.8065 174.8477 174.8577 175.0510
   175.0955 175.2100 175.3334 175.4272 175.4424 175.4658 175.4792 175.7373
   175.8338 176.2061 176.3234 176.3500 176.5507 176.5908 176.6290 176.8607
   176.9131 176.9249 177.2147 177.2354 177.3911 177.4856 177.5112 177.5265
   177.6213 177.6758 177.8832 178.0548 178.0859 178.0882 178.2069 178.3829
   178.4700 178.4769 178.4970 178.7458 178.8135 179.0998 179.2269 179.2841
   179.3480 179.3932 179.6651 179.8129 179.8274 179.8359 179.9107 180.1334
   180.2621 180.7441 180.7836 180.7962 180.8778 181.1192 181.1896 181.3219
   181.3925 181.4390 181.6330 181.7275 181.8481 181.8486 181.8719 182.1021
   182.2238 182.3202 182.4507 182.4999 182.5779 182.5831 182.6957 182.7586
   182.9584 182.9824 183.0339 183.1621 183.3284 183.3857 183.5588 183.6126
   183.7360 183.8352 183.9626 183.9759 184.3901 184.4566 184.4957 184.7641

          k = 0.0000-0.5774 0.0000 (  7458 PWs)   bands (ev):

   -74.3615 -38.7961 -38.5638 -38.5492 -28.5536 -28.5476 -28.5451 -28.5433
   -28.4926 -28.4879 -28.4569 -12.9553 -12.6913  -6.7659  -5.4336  -4.7083
    -3.7098  -2.4446  -1.5931  -1.2324   2.5056   2.9567   3.7149   4.3774
     4.8299   7.3847   7.5413   8.7620   9.2092   9.7440  10.1946  10.3773
    10.5453  10.6924  10.7697  11.0621  11.1542  11.9960  12.2943  12.4653
    12.9933  14.0692  14.2723  14.6082  15.2934  15.4749  16.5229  16.6547
    16.8981  16.9084  17.5167  17.6854  18.3367  18.7144  19.0221  19.0266
    19.2256  19.6395  20.0887  20.2970  20.3664  20.4065  20.5046  21.2686
    21.3085  21.3393  21.3957  22.1414  22.3477  22.3995  22.9503  23.3099
    23.3246  23.7176  23.8432  24.3428  24.5445  24.9139  25.3371  25.3831
    25.3971  26.0271  26.3898  26.7643  27.1712  28.2964  28.3651  28.4999
    28.6439  29.3758  29.5463  29.6415  30.5223  30.7053  31.3854  31.4120
    31.8697  32.0425  32.4459  32.6487  32.8593  32.8961  33.2957  33.8591
    34.0328  34.5559  35.5663  35.7471  35.7943  35.9738  37.0016  37.3319
    37.5108  37.6134  37.8407  37.8942  38.1581  38.4718  38.6940  38.8643
    39.5064  39.5548  39.6650  39.7436  39.8473  39.8631  39.9935  40.0523
    40.2574  40.3537  40.4164  40.4271  40.7701  40.8210  40.8640  40.9414
    40.9560  41.5240  41.6645  41.6808  41.8914  41.9885  42.3194  42.4168
    42.4435  42.7383  42.7441  42.8718  42.9048  43.3248  43.7180  44.0762
    44.2500  44.4239  44.4704  44.8099  44.9305  45.1128  45.3312  45.5379
    45.8434  46.0794  46.1334  46.1351  46.3899  46.8554  47.0227  47.0453
    47.3023  47.5141  47.7810  48.0779  48.1120  48.2117  48.6431  48.6911
    48.9447  48.9716  49.0418  49.2656  49.8822  49.8922  49.9728  50.0164
    50.2738  50.4176  50.5550  50.5766  50.6921  50.8946  51.2098  51.2567
    51.2721  51.5668  51.7635  51.8563  51.8759  52.1441  52.3805  52.5773
    52.6988  52.9615  52.9957  53.2857  53.4477  53.5018  53.8134  54.0274
    54.2204  54.4044  54.4311  54.8957  54.9306  55.1490  55.2215  55.3730
    55.5002  56.4226  56.4531  56.7349  56.9636  57.0145  57.4570  57.4696
    57.5996  57.6482  57.9119  57.9176  58.5090  58.5930  58.8062  58.8374
    59.0550  59.1172  59.1221  59.5445  60.0165  60.0801  60.9874  61.0331
    61.7600  61.9043  61.9274  62.0755  62.3042  62.4050  62.7129  62.7818
    62.7946  63.0280  63.0861  63.6534  63.6732  63.7230  63.7642  64.2660
    64.8290  65.3302  65.6719  65.8166  66.0897  66.1066  66.5497  66.5598
    67.1736  67.3053  67.3397  67.3738  67.6778  67.9055  67.9543  68.0504
    68.2113  68.3525  68.4304  68.6782  68.6910  68.7737  68.8381  69.0939
    69.2140  69.4598  69.4641  69.6105  69.6483  69.6558  69.6911  69.6953
    69.9219  70.0778  70.0828  70.1974  70.3981  70.4826  70.5303  70.5730
    70.6933  70.8348  71.2712  71.4063  71.4112  71.6709  71.8813  72.0820
    72.1285  72.2698  72.3129  72.3574  72.6613  72.6718  72.8714  73.4042
    73.4220  73.5502  73.5719  73.7131  74.0388  74.0490  74.2770  74.2885
    74.3552  74.5449  74.8224  74.9677  75.2241  75.3938  75.5063  75.5640
    75.9668  75.9781  76.2520  76.5754  76.6894  76.6900  76.8145  76.9812
    77.0824  77.4588  77.5932  77.6715  78.0355  78.1036  78.1080  78.1994
    78.2390  78.5672  78.6229  78.6948  78.9637  79.0093  79.1584  79.4160
    80.0034  80.2708  80.2991  80.6513  80.8892  81.0214  81.1605  81.3172
    81.5592  81.6318  81.9030  82.0077  82.0123  82.0927  82.4714  82.5366
    82.5400  83.0023  83.0359  83.9546  84.0087  84.3568  84.5398  84.6790
    84.7663  84.9053  85.1812  85.2574  85.3275  85.3751  85.5581  85.9849
    85.9984  86.3691  86.3853  86.4435  86.9984  87.0967  87.1073  87.4774
    87.5324  87.5534  87.6211  87.9133  87.9831  88.1735  88.2663  88.5741
    88.7952  88.9150  89.1558  89.7334  89.8152  90.0300  90.2244  90.4476
    90.4771  90.8756  91.1109  91.2789  91.4153  91.5400  91.5921  91.9427
    92.0139  92.5216  92.6019  93.0301  93.0576  93.1038  93.2562  93.7376
    94.0516  94.3755  94.3870  94.6995  94.7099  94.7733  95.2074  95.3959
    95.5234  95.7211  95.8739  96.1089  96.2210  96.3019  96.3028  96.4086
    96.7701  96.9165  96.9208  96.9947  97.0493  97.4324  97.5585  97.7415
    97.9018  97.9435  97.9667  98.0208  98.5283  98.6776  98.9492  98.9517
    98.9544  98.9937  99.0912  99.2373  99.2450  99.2493  99.2538  99.2843
    99.4754  99.6333  99.8996 100.0609 100.0895 100.1552 100.1873 100.2078
   100.2251 100.5773 100.8710 100.9481 101.0343 101.2884 101.3254 101.4243
   101.8099 101.8220 101.8549 102.0125 102.1571 102.1703 102.2540 102.2664
   102.5929 102.8838 102.9895 103.2320 103.2998 103.5289 103.6242 103.7670
   103.8310 103.8641 104.1401 104.2443 104.2881 104.5557 104.6872 104.6878
   104.7831 104.8732 104.8977 105.0250 105.3059 105.3548 105.3660 105.5088
   105.5296 105.5345 105.8494 105.8523 106.1134 106.1522 106.3072 106.3079
   106.5138 106.8325 106.9093 106.9222 106.9722 107.1542 107.4037 107.7558
   107.7746 108.0386 108.0797 108.0905 108.1179 108.1182 108.1689 108.2297
   108.3905 108.4834 108.6012 108.6508 108.6755 108.7735 109.0641 109.1010
   109.1597 109.2546 109.3216 109.3259 109.4587 109.4915 109.6419 109.7248
   109.7925 109.9778 110.0413 110.1438 110.3242 110.3644 110.3738 110.4517
   110.5924 110.5950 110.6190 110.7349 110.8952 110.9463 110.9876 111.1921
   111.2408 111.3114 111.7842 111.7987 111.8043 111.8899 112.0645 112.1061
   112.1374 112.2088 112.3206 112.3899 112.4829 112.5049 113.0138 113.1293
   113.2679 113.3145 113.4453 113.5339 113.6463 113.7994 114.0711 114.4272
   114.4550 114.5303 114.5435 114.6809 114.7754 114.7870 114.7939 114.8383
   114.9947 115.0947 115.3870 115.4282 115.6005 115.7148 115.7252 115.9485
   116.1850 116.3298 116.3510 116.5053 116.5866 116.6826 116.7087 116.7945
   116.9450 116.9727 116.9844 117.2449 117.3923 117.5081 117.6270 117.6388
   117.8566 117.8757 118.0279 118.1844 118.2526 118.4161 118.4359 118.4682
   118.4861 118.8417 118.9616 119.1511 119.1972 119.7486 119.9151 120.1059
   120.3933 120.4870 120.4934 120.6566 121.1515 121.4205 121.5973 121.8510
   122.0092 122.0346 122.1505 122.1799 122.3027 122.3708 122.5778 122.9068
   123.0974 123.1532 123.2606 123.4403 123.5160 123.6125 123.8423 124.0411
   124.1683 124.6007 124.7881 124.8796 125.0585 125.0826 125.1479 125.3315
   125.3700 125.5419 125.6153 125.9396 126.0083 126.1534 126.2333 126.4997
   126.5063 126.5663 126.5854 126.5901 126.9188 126.9276 127.0750 127.1149
   127.2910 127.3471 127.4636 127.5632 127.5932 127.6283 127.8573 127.8896
   128.0184 128.0413 128.0640 128.2043 128.4322 128.6664 128.6933 128.8185
   128.8393 129.0755 129.1769 129.2801 129.4191 129.5062 129.5742 129.5973
   129.7091 129.9153 130.0038 130.1952 130.3132 130.7575 131.0052 131.0123
   131.1069 131.1773 131.5081 131.6726 131.9030 131.9291 132.1125 132.2649
   132.3885 132.6628 132.8645 132.9217 132.9256 133.0192 133.2228 133.2841
   133.3739 133.4094 133.7223 133.9474 134.0298 134.1824 134.2794 134.3259
   134.4435 134.4663 134.7057 134.8667 134.9978 135.0300 135.0511 135.1999
   135.2546 135.5560 135.6079 135.6380 135.7113 135.8299 135.8930 135.9963
   136.3208 136.3498 136.5265 136.5854 136.6269 136.7542 136.7824 136.9717
   137.0263 137.2567 137.5000 137.5219 137.6319 137.7062 137.8359 137.8553
   137.8826 138.1071 138.1987 138.3862 138.4216 138.6189 138.6528 138.7084
   138.7176 138.9121 139.0475 139.0869 139.3962 139.4165 139.5154 139.7664
   139.8120 139.9044 139.9377 140.0787 140.1297 140.1435 140.1670 140.5674
   140.6191 140.9248 141.0575 141.0869 141.1040 141.3910 141.4956 141.5245
   141.5596 141.8721 141.9406 141.9892 142.0375 142.1258 142.2649 142.7760
   143.2336 143.2530 143.4013 143.4092 143.5480 143.5545 143.6804 143.8617
   143.8916 144.2608 144.3624 144.4927 144.6186 144.7104 144.7758 144.8068
   144.8835 144.9779 145.0344 145.1812 145.2660 145.3564 145.7400 145.7839
   145.8034 145.9167 145.9564 146.1354 146.1380 146.3269 146.4310 146.5097
   146.7181 146.7700 147.0800 147.1115 147.2560 147.4029 147.4719 147.4849
   147.6508 147.6752 147.8823 147.9142 148.0066 148.2452 148.2467 148.5433
   148.6799 149.1145 149.2977 149.4950 149.6834 149.7317 149.8404 149.9994
   150.1271 150.4019 150.4813 150.6152 150.6292 150.7559 151.0796 151.1361
   151.2526 151.3168 151.5013 151.5393 151.6461 151.7797 152.0303 152.1423
   152.3793 152.5892 152.6644 152.6684 152.7635 152.8754 152.9036 153.0795
   153.3570 153.6611 153.9183 154.0082 154.1208 154.3862 154.4429 154.4450
   154.5077 155.1645 155.2863 155.3033 155.5028 155.5766 155.7524 155.8074
   155.8799 155.9742 155.9850 155.9872 156.2072 156.4046 156.4255 156.5209
   156.6766 156.6893 156.7020 156.8296 157.0426 157.3151 157.3179 157.5587
   157.5642 157.6997 157.7583 157.8404 157.8461 157.8705 157.9059 158.1317
   158.1517 158.1626 158.2692 158.2782 158.3038 158.4282 158.5073 158.5304
   158.5307 158.5633 158.6536 158.8483 158.9026 159.0286 159.0330 159.1300
   159.3872 159.3985 159.4247 159.4285 159.5113 159.5769 159.6332 159.7279
   160.2927 160.4111 160.5213 160.5561 160.8003 160.8767 161.0031 161.0964
   161.2813 161.3017 161.3810 161.4048 161.4718 161.5675 161.8455 161.8911
   161.9532 162.1884 162.2382 162.3997 162.4367 162.7809 162.9128 162.9309
   162.9675 163.0091 163.0697 163.2227 163.3149 163.6109 163.6839 163.7003
   163.7981 164.0746 164.0821 164.1866 164.3525 164.3559 164.3823 164.5489
   164.9245 165.0279 165.1124 165.1798 165.3693 165.4204 165.5994 165.6213
   165.7938 165.9672 166.0559 166.0593 166.1377 166.4281 166.4316 166.4671
   166.5556 166.6490 166.6740 166.7344 166.8939 166.9580 167.1638 167.1654
   167.1795 167.3052 167.3395 167.3446 167.4238 167.7053 167.7605 167.7918
   167.9360 167.9664 168.4101 168.4998 168.7045 168.9937 169.1056 169.2759
   169.4790 169.5416 169.6926 169.7655 169.9194 170.0273 170.2044 170.2839
   170.4233 170.4403 170.4988 170.6508 170.8165 171.0954 171.1982 171.2859
   171.3033 171.3164 171.3914 171.4950 171.7131 171.7744 172.4555 172.4917
   172.5612 172.7662 172.8017 172.9539 173.1237 173.1902 173.7677 173.7893
   173.9691 174.1450 174.3246 174.4429 174.5248 174.5689 174.7600 174.7949
   174.8151 174.8338 174.8540 175.2053 175.3615 175.4156 175.4200 175.4789
   175.5219 175.5688 175.6360 175.8370 175.8756 175.9159 175.9956 176.1274
   176.1330 176.3290 176.3739 176.5884 176.6049 176.6426 176.7429 176.9329
   176.9617 177.3528 177.5356 177.7920 177.8898 178.1976 178.2301 178.2716
   178.5864 178.9659 179.0957 179.2136 179.2240 179.5425 179.6122 179.7864
   179.9219 179.9318 179.9787 180.0969 180.3393 180.3757 180.5437 180.6154
   180.8402 180.8465 181.0273 181.2337 181.2583 181.3703 181.4697 181.4907
   181.6498 181.6836 181.7480 181.8894 182.2725 182.4251 182.4493 182.5932
   182.7137 182.8351 182.9214 183.0854 183.2139 183.3161 183.4444 183.7330
   183.7413 183.8652 183.9907 184.0134 184.2257 184.2448 184.5144 184.5756
   184.6079 184.8757 184.8882 185.1153 185.2340 185.4808 185.5700 185.6292
   185.6710 185.7638 185.9184 185.9415 186.0076 186.3618 186.4132 186.6574
   186.6883 186.7742 186.8409 186.9484 187.0701 187.1256 187.3777 187.4235
   187.4437 187.6662 187.6685 187.6908 187.7376 187.9249 187.9474 187.9800
   188.0044 188.0344 188.0485 188.1091 188.2767 188.3291 188.3920 188.4891

          k = 0.2500 0.4330 0.0000 (  7479 PWs)   bands (ev):

   -74.3615 -38.7365 -38.6107 -38.5638 -28.5524 -28.5488 -28.5453 -28.5432
   -28.4915 -28.4893 -28.4569 -12.9863 -12.6676  -5.9869  -5.5410  -4.4422
    -3.8391  -3.6125  -2.2354  -0.9115   2.1032   2.9470   3.1049   4.7340
     6.5758   7.7060   8.1519   8.5415   9.2528   9.2580   9.8783  10.3266
    10.9220  11.1770  11.8580  11.8956  12.0767  12.5233  12.7571  13.6404
    13.8837  13.9402  14.0350  14.2879  14.4526  14.5153  14.6398  15.3919
    15.6338  15.7969  16.0514  16.7609  16.9370  17.5176  17.6566  17.8293
    18.1873  18.8929  19.5535  19.8546  20.1215  20.1775  20.3923  21.3722
    21.5788  21.7950  22.2643  22.6634  23.0587  23.1330  23.7046  24.0459
    24.3321  24.8679  25.6991  25.8765  26.2969  26.7070  27.1095  27.3889
    27.6012  27.9640  28.2732  28.3461  28.7849  28.9646  28.9974  29.1658
    29.2409  29.5325  29.7284  29.8563  29.9381  30.5287  30.6210  30.6983
    31.1630  31.1966  31.5202  31.7229  32.0887  32.4912  32.6532  32.6735
    33.1598  33.3276  33.8160  33.9142  34.3458  34.5276  34.9573  35.4264
    35.8080  35.9534  36.3949  36.9399  37.0996  37.3248  37.3354  37.4572
    37.7109  37.9039  38.5474  38.5680  38.6558  38.7930  39.0229  39.1691
    39.7665  39.8865  40.0839  40.8144  40.8407  41.1444  41.5057  41.5833
    41.8712  41.9214  42.1482  42.1830  42.2921  42.3949  42.9162  43.0804
    43.2335  43.5104  43.5761  43.7404  43.9051  44.0488  44.1473  44.4293
    44.5176  44.6043  44.7013  44.8403  44.9428  45.3010  45.4329  45.6338
    46.0064  46.0167  46.1297  46.5642  46.6944  46.9257  47.0943  47.1598
    47.4879  47.5450  47.7712  48.1371  48.5599  48.6200  48.9614  48.9655
    49.2294  49.5445  49.6815  49.8682  50.1048  50.5497  50.7260  51.1057
    51.1907  51.2921  51.5711  51.6462  52.0760  52.3481  52.3942  52.6020
    52.8720  52.9587  53.1495  53.1804  53.4946  53.7024  53.9974  54.0330
    54.2126  54.2248  54.4615  54.6921  54.8678  55.1688  55.2444  55.2723
    55.5081  55.5341  55.7879  55.8181  56.1345  56.3275  56.3803  56.4766
    56.6226  56.7119  56.8462  56.9354  57.0490  57.4526  57.6070  57.8361
    57.8611  57.9504  58.1977  58.3479  58.4782  58.5289  58.8054  58.9356
    58.9718  58.9999  59.1893  59.3007  59.3784  59.4397  59.7107  59.8057
    60.0068  60.3231  60.3650  60.6418  60.7855  60.8820  61.1899  61.3345
    61.4045  61.6321  61.8141  61.9157  61.9787  62.3976  62.5407  62.8198
    62.9175  63.0540  63.1993  63.2228  63.3759  63.5706  63.8048  63.8158
    64.2415  64.2474  64.3914  64.9308  65.2089  65.4360  65.6517  65.7054
    65.9547  66.0683  66.1379  66.1597  66.6726  66.7652  66.9375  67.1652
    67.2547  67.5567  67.7661  67.8707  68.2061  68.5336  68.5556  68.5918
    68.7685  69.2548  69.3153  69.4492  69.9706  70.0255  70.2285  70.3583
    70.5091  71.0257  71.0349  71.3325  71.3395  71.6438  71.7678  71.8931
    71.9867  72.1622  72.2413  72.5739  72.8490  73.3634  73.4386  73.4543
    73.8841  74.0577  74.6105  74.7922  74.9670  75.1408  75.1805  75.3689
    75.5965  75.9893  76.0485  76.4637  76.6335  76.9537  77.0262  77.4471
    77.6120  77.8223  78.2121  78.2362  78.2459  78.3955  78.6231  78.7617
    79.2273  79.3171  79.5391  79.8000  80.0144  80.1474  80.2283  80.5941
    80.7647  80.8803  81.1436  81.1542  81.4161  81.8116  81.8616  82.2592
    82.3529  82.4913  82.6482  82.9020  83.0589  83.0945  83.2145  83.3522
    83.3631  83.5512  83.6157  83.8383  83.8508  84.2764  84.3707  84.3872
    84.5894  84.8300  84.9523  84.9667  85.2733  85.2845  85.5792  85.8991
    85.9577  86.1111  86.2386  86.2536  86.2708  86.3548  86.4227  86.8097
    86.8741  87.0146  87.3749  87.4473  87.6261  87.7188  87.7822  87.8271
    88.1327  88.1589  88.1923  88.2626  88.3415  88.4736  88.6333  88.6376
    88.8436  88.9366  89.1845  89.2742  89.3093  89.4440  89.4496  89.8006
    90.1037  90.1473  90.2782  90.4972  90.5750  90.7078  90.9121  90.9340
    90.9481  91.2156  91.6281  91.6643  91.8523  91.9008  92.0983  92.4179
    92.4212  92.6647  92.8060  93.0476  93.1543  93.2991  93.3125  93.5736
    93.5960  93.6459  93.7028  93.9742  94.0382  94.2176  94.5014  94.6021
    94.7574  94.7991  95.1460  95.2384  95.5430  95.5687  95.7557  96.0003
    96.0652  96.1642  96.2363  96.3466  96.4798  96.8367  97.0140  97.0387
    97.1531  97.2565  97.5792  97.7275  97.9731  97.9966  98.1830  98.4956
    98.6561  98.6607  98.8255  99.0339  99.0611  99.2126  99.3459  99.5218
    99.6500  99.7640  99.8309  99.8936  99.9525 100.2385 100.4531 100.7501
   100.7705 100.8998 101.0791 101.1734 101.3058 101.5791 101.7304 101.8030
   101.9213 102.0832 102.2431 102.2499 102.4519 102.5067 102.7866 102.7963
   102.9691 103.0132 103.1143 103.1653 103.5168 103.5361 103.5816 103.7848
   103.7933 103.8837 103.9167 103.9928 104.1252 104.2024 104.3295 104.4271
   104.4830 104.6818 104.9434 105.1454 105.2520 105.4623 105.5315 105.5991
   105.7444 105.9194 106.1615 106.2391 106.4162 106.4328 106.6669 106.6902
   106.8944 106.9109 107.0694 107.2489 107.6612 107.8378 107.8914 108.1176
   108.2242 108.3215 108.4907 108.5157 108.6295 108.8854 109.0291 109.1047
   109.2872 109.4404 109.5441 109.6941 109.7568 109.9921 110.0372 110.0648
   110.1915 110.4472 110.5546 110.6891 110.7397 110.8800 110.9312 111.1817
   111.3436 111.4647 111.4871 111.9030 111.9633 112.4504 112.4881 112.6299
   112.6594 112.7084 112.9405 113.0092 113.3678 113.4293 113.4795 113.6605
   113.7484 113.9965 114.0952 114.1003 114.4344 114.5917 114.7385 114.9295
   114.9755 115.0023 115.1569 115.4459 115.5551 115.7915 115.8523 115.9658
   116.2358 116.3054 116.3200 116.3953 116.4850 116.7049 116.9817 117.0387
   117.2397 117.3023 117.3643 117.4516 117.5247 117.6011 117.6603 117.7572
   117.7986 117.8086 117.8581 117.9118 118.0893 118.2115 118.2859 118.4498
   118.4658 118.6277 118.6905 118.7218 118.7630 118.8022 118.8330 118.8596
   119.0897 119.1986 119.2360 119.2396 119.4112 119.4146 119.7544 119.8535
   120.0509 120.1030 120.2157 120.3853 120.4381 120.4797 120.5039 120.5521
   120.7287 120.7734 120.9087 120.9282 120.9959 121.5414 121.5882 121.6285
   121.6671 121.7097 121.8699 122.1327 122.2214 122.2363 122.6979 122.7114
   122.8991 122.9849 123.0564 123.1875 123.3646 123.4751 123.5573 123.7645
   123.8742 124.0224 124.1711 124.2425 124.3204 124.3527 124.4411 124.5518
   124.7713 124.8474 125.1043 125.1214 125.4061 125.4137 125.6109 125.6721
   125.9348 126.0336 126.1379 126.1436 126.3922 126.4693 126.5103 126.5528
   126.8762 126.8793 126.9820 127.1114 127.1198 127.2161 127.6558 127.9406
   128.0261 128.1016 128.1906 128.4915 128.5793 128.6177 128.7112 128.7710
   128.9604 129.0587 129.2904 129.6811 129.9891 130.0892 130.2110 130.2797
   130.3457 130.5128 130.5259 130.7636 130.7659 130.8216 130.9708 130.9731
   131.1467 131.1718 131.4642 131.5469 131.8291 131.9017 132.0580 132.1792
   132.2173 132.2860 132.3884 132.4725 132.5521 132.5736 132.6883 132.7368
   132.9997 133.0596 133.2050 133.3556 133.5017 133.5046 133.5831 133.6465
   133.6971 133.7710 133.9754 134.1437 134.3743 134.4650 134.5723 134.7518
   134.8220 134.9164 134.9606 134.9683 135.1712 135.3625 135.4363 135.4490
   135.5423 135.5850 135.6024 135.7075 135.9964 136.0386 136.5178 136.5735
   136.6769 136.9379 137.1301 137.1444 137.3066 137.3480 137.5174 137.9037
   137.9856 138.0564 138.0797 138.1160 138.1994 138.2381 138.4653 138.5968
   138.8026 138.9719 139.1122 139.2024 139.3838 139.4690 139.7822 139.8025
   139.8392 140.0901 140.1340 140.1979 140.2730 140.3751 140.4183 140.5366
   140.5711 140.6261 140.8043 140.9131 140.9705 141.2787 141.3773 141.4239
   141.6170 141.7443 141.9181 142.0488 142.1825 142.2431 142.3592 142.5392
   142.6252 142.8074 142.9189 143.0540 143.1308 143.1912 143.3057 143.4855
   143.5364 143.7515 143.8743 143.9325 144.4011 144.4098 144.5329 144.5779
   144.6994 144.7800 144.8996 144.9727 145.1400 145.1972 145.3489 145.4318
   145.5347 145.5697 145.6361 145.6845 145.6940 145.8852 145.9347 145.9685
   146.0557 146.2371 146.3821 146.4054 146.5340 146.5699 146.7690 146.8112
   147.1489 147.2811 147.2920 147.3890 147.5156 147.7425 147.8782 148.0067
   148.4401 148.5396 148.5828 148.7409 148.7562 148.9496 149.0046 149.3446
   149.4710 149.5023 149.5442 149.6886 149.7121 149.9861 150.0070 150.0946
   150.2320 150.4074 150.4199 150.7988 150.9033 151.0769 151.3085 151.3267
   151.5404 151.6323 151.7196 151.8891 151.9111 152.0034 152.2433 152.3711
   152.4598 152.5659 152.8511 152.9583 153.1619 153.1690 153.4855 153.5563
   153.5721 153.8655 153.8687 154.0270 154.0853 154.2919 154.5053 154.6579
   154.6899 154.8374 154.9450 154.9912 155.1755 155.2507 155.4206 155.4761
   155.6528 155.7475 155.9144 156.2056 156.5661 156.6726 156.6803 156.7532
   156.8549 157.0315 157.1126 157.1821 157.5661 157.6234 157.9669 158.0369
   158.0963 158.2373 158.5446 158.6412 158.6756 158.7560 158.9990 159.0645
   159.1187 159.1313 159.3465 159.5041 159.6138 159.7326 159.8525 159.9269
   159.9882 160.1789 160.2188 160.2699 160.3366 160.5329 160.6268 160.6630
   160.8078 160.9108 161.0486 161.1962 161.3128 161.4233 161.5535 161.6534
   161.7931 161.9793 161.9895 162.1306 162.3062 162.3136 162.3998 162.6499
   162.6724 162.8494 162.8854 163.0515 163.0607 163.2357 163.2911 163.4056
   163.5405 163.6090 163.7560 163.7982 163.8623 164.0134 164.1967 164.3821
   164.4073 164.6469 164.8206 164.8377 164.8933 164.9952 165.0797 165.1781
   165.3851 165.7469 165.8094 165.9556 166.1510 166.3134 166.3934 166.3973
   166.5119 166.5404 166.7183 166.8576 166.9026 167.2006 167.2962 167.3023
   167.4488 167.4970 167.6611 167.6975 167.8054 168.0516 168.0780 168.2198
   168.4484 168.5097 168.7160 168.8579 169.0451 169.2451 169.3163 169.3348
   169.5490 169.7751 169.8011 169.8298 169.9002 170.0459 170.2335 170.2481
   170.4483 170.4620 170.5843 170.7324 170.7733 170.8871 170.9375 171.0142
   171.1499 171.3123 171.4303 171.7249 171.7307 172.0609 172.0803 172.1305
   172.1680 172.4718 172.5388 172.8436 172.8613 172.9971 173.0363 173.3543
   173.7231 173.7469 173.8589 173.9040 173.9711 174.1056 174.1727 174.4113
   174.5065 174.5456 174.6720 174.8860 174.9221 175.1121 175.1523 175.3137
   175.4216 175.4978 175.6144 175.7251 175.8176 175.9910 176.1802 176.2847
   176.2927 176.4076 176.4453 176.5259 176.6794 176.6835 176.9608 177.0008
   177.0151 177.1148 177.4287 177.5275 177.5284 177.7509 177.7637 177.8272
   177.8675 178.0034 178.2860 178.3225 178.3241 178.4250 178.7856 178.9325
   178.9955 179.0111 179.1958 179.3507 179.3842 179.5572 179.6409 179.8433
   179.9231 179.9982 180.2342 180.3296 180.3905 180.5173 180.5733 180.6239
   180.7155 180.8971 181.0908 181.0942 181.1385 181.3176 181.7437 181.8027
   181.8516 182.0278 182.0850 182.2220 182.3304 182.3572 182.5310 182.6802
   182.7000 182.8009 182.9896 183.0693 183.2367 183.3262 183.4280 183.4949
   183.5829 183.6276 183.7165 183.8073 183.9149 183.9796 184.0018 184.1156
   184.1566 184.1961 184.3383 184.4657 184.5144 184.6050 184.7288 184.7361
   184.8441 185.0343 185.0369 185.2383 185.3184 185.4933 185.6369 185.7678
   185.8726 185.8792 185.9552 186.0340 186.1034 186.1509 186.4013 186.4530
   186.4958 186.6132 186.6336 186.7648 186.8117 186.8651 186.8998 186.9508
   186.9812 187.0308 187.1742 187.3573 187.5281 187.5497 187.7108 187.7673

     the Fermi energy is     1.5808 ev
     (compare with:     0.1412 eV, computed in scf)

     Writing all to output data dir out/WS2.save/
 
     init_run     :      0.18s CPU      0.19s WALL (       1 calls)
     electrons    :    308.20s CPU    317.20s WALL (       1 calls)

     Called by init_run:
     wfcinit      :      0.00s CPU      0.00s WALL (       1 calls)
     potinit      :      0.03s CPU      0.03s WALL (       1 calls)
     hinit0       :      0.05s CPU      0.06s WALL (       1 calls)

     Called by electrons:
     c_bands      :    308.20s CPU    317.20s WALL (       1 calls)
     v_of_rho     :      0.02s CPU      0.02s WALL (       1 calls)

     Called by c_bands:
     init_us_2    :      0.00s CPU      0.00s WALL (       4 calls)
     init_us_2:cp :      0.00s CPU      0.00s WALL (       4 calls)
     cegterg      :    301.29s CPU    310.09s WALL (       4 calls)

     Called by *egterg:
     cdiaghg      :    267.51s CPU    275.79s WALL (      50 calls)
     h_psi        :      8.72s CPU      8.86s WALL (      54 calls)
     g_psi        :      0.05s CPU      0.05s WALL (      46 calls)

     Called by h_psi:
     h_psi:calbec :      0.19s CPU      0.20s WALL (      54 calls)
     vloc_psi     :      8.21s CPU      8.33s WALL (      54 calls)
     add_vuspsi   :      0.26s CPU      0.26s WALL (      54 calls)

     General routines
     calbec       :      0.19s CPU      0.20s WALL (      54 calls)
     fft          :      0.02s CPU      0.02s WALL (      10 calls)
     fftw         :      7.60s CPU      7.72s WALL (   73626 calls)
 
     Parallel routines
 
     PWSCF        :   5m 9.07s CPU   5m18.50s WALL

 
   This run was terminated on:  10:27:50   5Apr2024            

=------------------------------------------------------------------------------=
   JOB DONE.
=------------------------------------------------------------------------------=
