
     Program PWSCF v.7.1 starts on  5Apr2024 at 21:16:43 

     This program is part of the open-source Quantum ESPRESSO suite
     for quantum simulation of materials; please cite
         "P. Giannozzi et al., J. Phys.:Condens. Matter 21 395502 (2009);
         "P. Giannozzi et al., J. Phys.:Condens. Matter 29 465901 (2017);
         "P. Giannozzi et al., J. Chem. Phys. 152 154105 (2020);
          URL http://www.quantum-espresso.org", 
     in publications or presentations arising from this work. More details at
     http://www.quantum-espresso.org/quote

     Parallel version (MPI), running on    32 processors

     MPI processes distributed on     1 nodes
     209372 MiB available memory on the printing compute node when the environment starts
 
     Reading input from pw_MoS2_scf_k3000_E45.in
Warning: card &CELL ignored
Warning: card / ignored

     Current dimensions of program PWSCF are:
     Max number of different atomic species (ntypx) = 10
     Max number of k-points (npk) =  40000
     Max angular momentum in pseudopotentials (lmaxx) =  4
 
     R & G space division:  proc/nbgrp/npool/nimage =      32
     Subspace diagonalization in iterative solution of the eigenvalue problem:
     a serial algorithm will be used

 
     Parallelization info
     --------------------
     sticks:   dense  smooth     PW     G-vecs:    dense   smooth      PW
     Min          13      13      4                 1717     1717     283
     Max          14      14      6                 1770     1770     298
     Sum         439     439    139                55897    55897    9301
 
     Using Slab Decomposition
 


     bravais-lattice index     =            4
     lattice parameter (alat)  =       6.0206  a.u.
     unit-cell volume          =    1373.5622 (a.u.)^3
     number of atoms/cell      =            3
     number of atomic types    =            2
     number of electrons       =        26.00
     number of Kohn-Sham states=           26
     kinetic-energy cutoff     =      45.0000  Ry
     charge density cutoff     =     180.0000  Ry
     scf convergence threshold =      1.0E-10
     mixing beta               =       0.7000
     number of iterations used =            8  plain     mixing
     Exchange-correlation= PBE
                           (   1   4   3   4   0   0   0)

     celldm(1)=   6.020601  celldm(2)=   0.000000  celldm(3)=   7.267720
     celldm(4)=   0.000000  celldm(5)=   0.000000  celldm(6)=   0.000000

     crystal axes: (cart. coord. in units of alat)
               a(1) = (   1.000000   0.000000   0.000000 )  
               a(2) = (  -0.500000   0.866025   0.000000 )  
               a(3) = (   0.000000   0.000000   7.267720 )  

     reciprocal axes: (cart. coord. in units 2 pi/alat)
               b(1) = (  1.000000  0.577350  0.000000 )  
               b(2) = (  0.000000  1.154701  0.000000 )  
               b(3) = (  0.000000  0.000000  0.137595 )  


     PseudoPot. # 1 for Mo read from file:
     /usr/scratch4/magr4985/FGWC/FGWC/pseudo/SG15/Mo.upf
     MD5 check sum: 2665c9f4159700498d9a5f7573bd8e9f
     Pseudo is Norm-conserving, Zval = 14.0
     Generated using ONCVPSP code by D. R. Hamann
     Using radial grid of  602 points,  6 beta functions with: 
                l(1) =   0
                l(2) =   0
                l(3) =   1
                l(4) =   1
                l(5) =   2
                l(6) =   2

     PseudoPot. # 2 for S  read from file:
     /usr/scratch4/magr4985/FGWC/FGWC/pseudo/SG15/S.upf
     MD5 check sum: f9d020296ee6110346977bfd66d424f6
     Pseudo is Norm-conserving, Zval =  6.0
     Generated using ONCVPSP code by D. R. Hamann
     Using radial grid of  602 points,  4 beta functions with: 
                l(1) =   0
                l(2) =   0
                l(3) =   1
                l(4) =   1

     atomic species   valence    mass     pseudopotential
        Mo            14.00    95.94000     Mo( 1.00)
        S              6.00    32.06500     S ( 1.00)

     12 Sym. Ops. (no inversion) found



   Cartesian axes

     site n.     atom                  positions (alat units)
         1           Mo  tau(   1) = (   0.5000000   0.2886752   3.6338604  )
         2           S   tau(   2) = (   0.0000000   0.5773502   3.1431775  )
         3           S   tau(   3) = (   0.0000000   0.5773502   4.1245433  )

     number of k points=    44  Gaussian smearing, width (Ry)=  0.0018
                       cart. coord. in units 2pi/alat
        k(    1) = (   0.0000000   0.0000000   0.0000000), wk =   0.0050000
        k(    2) = (   0.0000000   0.0577350   0.0000000), wk =   0.0300000
        k(    3) = (   0.0000000   0.1154701   0.0000000), wk =   0.0300000
        k(    4) = (   0.0000000   0.1732051   0.0000000), wk =   0.0300000
        k(    5) = (   0.0000000   0.2309401   0.0000000), wk =   0.0300000
        k(    6) = (   0.0000000   0.2886751   0.0000000), wk =   0.0300000
        k(    7) = (   0.0000000   0.3464102   0.0000000), wk =   0.0300000
        k(    8) = (   0.0000000   0.4041452   0.0000000), wk =   0.0300000
        k(    9) = (   0.0000000   0.4618802   0.0000000), wk =   0.0300000
        k(   10) = (   0.0000000   0.5196152   0.0000000), wk =   0.0300000
        k(   11) = (   0.0000000  -0.5773503   0.0000000), wk =   0.0150000
        k(   12) = (   0.0500000   0.0866025   0.0000000), wk =   0.0300000
        k(   13) = (   0.0500000   0.1443376   0.0000000), wk =   0.0600000
        k(   14) = (   0.0500000   0.2020726   0.0000000), wk =   0.0600000
        k(   15) = (   0.0500000   0.2598076   0.0000000), wk =   0.0600000
        k(   16) = (   0.0500000   0.3175426   0.0000000), wk =   0.0600000
        k(   17) = (   0.0500000   0.3752777   0.0000000), wk =   0.0600000
        k(   18) = (   0.0500000   0.4330127   0.0000000), wk =   0.0600000
        k(   19) = (   0.0500000   0.4907477   0.0000000), wk =   0.0600000
        k(   20) = (   0.0500000   0.5484828   0.0000000), wk =   0.0600000
        k(   21) = (   0.1000000   0.1732051   0.0000000), wk =   0.0300000
        k(   22) = (   0.1000000   0.2309401   0.0000000), wk =   0.0600000
        k(   23) = (   0.1000000   0.2886751   0.0000000), wk =   0.0600000
        k(   24) = (   0.1000000   0.3464102   0.0000000), wk =   0.0600000
        k(   25) = (   0.1000000   0.4041452   0.0000000), wk =   0.0600000
        k(   26) = (   0.1000000   0.4618802   0.0000000), wk =   0.0600000
        k(   27) = (   0.1000000   0.5196152   0.0000000), wk =   0.0600000
        k(   28) = (   0.1000000   0.5773503   0.0000000), wk =   0.0300000
        k(   29) = (   0.1500000   0.2598076   0.0000000), wk =   0.0300000
        k(   30) = (   0.1500000   0.3175426   0.0000000), wk =   0.0600000
        k(   31) = (   0.1500000   0.3752777   0.0000000), wk =   0.0600000
        k(   32) = (   0.1500000   0.4330127   0.0000000), wk =   0.0600000
        k(   33) = (   0.1500000   0.4907477   0.0000000), wk =   0.0600000
        k(   34) = (   0.1500000   0.5484828   0.0000000), wk =   0.0600000
        k(   35) = (   0.2000000   0.3464102   0.0000000), wk =   0.0300000
        k(   36) = (   0.2000000   0.4041452   0.0000000), wk =   0.0600000
        k(   37) = (   0.2000000   0.4618802   0.0000000), wk =   0.0600000
        k(   38) = (   0.2000000   0.5196152   0.0000000), wk =   0.0600000
        k(   39) = (   0.2000000   0.5773503   0.0000000), wk =   0.0300000
        k(   40) = (   0.2500000   0.4330127   0.0000000), wk =   0.0300000
        k(   41) = (   0.2500000   0.4907477   0.0000000), wk =   0.0600000
        k(   42) = (   0.2500000   0.5484828   0.0000000), wk =   0.0600000
        k(   43) = (   0.3000000   0.5196152   0.0000000), wk =   0.0300000
        k(   44) = (   0.3000000   0.5773503   0.0000000), wk =   0.0300000

     Dense  grid:    55897 G-vectors     FFT dimensions: (  25,  25, 192)

     Estimated max dynamical RAM per process >       3.87 MB

     Estimated total dynamical RAM >     123.98 MB

     Initial potential from superposition of free atoms

     starting charge      25.8886, renormalised to      26.0000

     negative rho (up, down):  2.506E-04 0.000E+00
     Starting wfcs are random

     total cpu time spent up to now is        1.0 secs

     Self-consistent Calculation

     iteration #  1     ecut=    45.00 Ry     beta= 0.70
     Davidson diagonalization with overlap
     ethr =  1.00E-02,  avg # of iterations = 10.1

     Threshold (ethr) on eigenvalues was too large:
     Diagonalizing with lowered threshold

     Davidson diagonalization with overlap
     ethr =  3.73E-04,  avg # of iterations =  2.8

     negative rho (up, down):  2.920E-05 0.000E+00

     total cpu time spent up to now is        3.7 secs

     total energy              =    -178.22167931 Ry
     estimated scf accuracy    <       0.09112285 Ry

     iteration #  2     ecut=    45.00 Ry     beta= 0.70
     Davidson diagonalization with overlap
     ethr =  3.50E-04,  avg # of iterations =  2.7

     negative rho (up, down):  1.420E-05 0.000E+00

     total cpu time spent up to now is        4.5 secs

     total energy              =    -178.23190320 Ry
     estimated scf accuracy    <       0.06551705 Ry

     iteration #  3     ecut=    45.00 Ry     beta= 0.70
     Davidson diagonalization with overlap
     ethr =  2.52E-04,  avg # of iterations =  2.2

     negative rho (up, down):  8.859E-06 0.000E+00

     total cpu time spent up to now is        5.2 secs

     total energy              =    -178.23945591 Ry
     estimated scf accuracy    <       0.08976129 Ry

     iteration #  4     ecut=    45.00 Ry     beta= 0.70
     Davidson diagonalization with overlap
     ethr =  2.52E-04,  avg # of iterations =  1.5

     negative rho (up, down):  2.730E-07 0.000E+00

     total cpu time spent up to now is        5.9 secs

     total energy              =    -178.25217598 Ry
     estimated scf accuracy    <       0.00093893 Ry

     iteration #  5     ecut=    45.00 Ry     beta= 0.70
     Davidson diagonalization with overlap
     c_bands:  1 eigenvalues not converged
     ethr =  3.61E-06,  avg # of iterations =  9.5

     negative rho (up, down):  3.225E-08 0.000E+00

     total cpu time spent up to now is        7.1 secs

     total energy              =    -178.25237001 Ry
     estimated scf accuracy    <       0.00002221 Ry

     iteration #  6     ecut=    45.00 Ry     beta= 0.70
     Davidson diagonalization with overlap
     ethr =  8.54E-08,  avg # of iterations =  2.3

     total cpu time spent up to now is        7.8 secs

     total energy              =    -178.25237365 Ry
     estimated scf accuracy    <       0.00000175 Ry

     iteration #  7     ecut=    45.00 Ry     beta= 0.70
     Davidson diagonalization with overlap
     ethr =  6.73E-09,  avg # of iterations =  2.1

     total cpu time spent up to now is        8.5 secs

     total energy              =    -178.25237404 Ry
     estimated scf accuracy    <       0.00000015 Ry

     iteration #  8     ecut=    45.00 Ry     beta= 0.70
     Davidson diagonalization with overlap
     ethr =  5.76E-10,  avg # of iterations =  2.0

     total cpu time spent up to now is        9.1 secs

     total energy              =    -178.25237406 Ry
     estimated scf accuracy    <          5.4E-09 Ry

     iteration #  9     ecut=    45.00 Ry     beta= 0.70
     Davidson diagonalization with overlap
     ethr =  2.07E-11,  avg # of iterations =  3.3

     total cpu time spent up to now is        9.8 secs

     total energy              =    -178.25237406 Ry
     estimated scf accuracy    <          1.4E-09 Ry

     iteration # 10     ecut=    45.00 Ry     beta= 0.70
     Davidson diagonalization with overlap
     ethr =  5.40E-12,  avg # of iterations =  2.0

     total cpu time spent up to now is       10.5 secs

     End of self-consistent calculation

          k = 0.0000 0.0000 0.0000 (  6981 PWs)   bands (ev):

   -62.5415 -36.6828 -36.4836 -36.4836 -15.7443 -14.4429  -7.2587  -4.2770
    -4.2770  -3.4272  -3.1665  -3.1665  -1.6583   1.1006   1.1006   1.3356
     1.3356   3.7543   3.9500   4.4451   4.7610   5.2603   6.0776   7.2430
     7.4167   8.2586

          k = 0.0000 0.0577 0.0000 (  7021 PWs)   bands (ev):

   -62.5406 -36.6810 -36.4928 -36.4857 -15.7074 -14.4278  -7.2158  -4.3625
    -4.2381  -3.6770  -3.2277  -2.9708  -1.6755   1.0425   1.1674   1.2253
     1.2927   3.8283   3.9991   4.5280   4.8922   5.3085   6.1289   7.2882
     7.5965   8.2890

          k = 0.0000 0.1155 0.0000 (  7043 PWs)   bands (ev):

   -62.5380 -36.6758 -36.5195 -36.4918 -15.5988 -14.3835  -7.0935  -4.5949
    -4.1244  -4.0462  -3.3943  -2.7803  -1.7395   0.9320   0.9686   1.1754
     1.3481   4.0109   4.1446   4.7152   5.3094   5.4521   6.2841   7.4213
     8.0591   8.3433

          k = 0.0000 0.1732 0.0000 (  7057 PWs)   bands (ev):

   -62.5340 -36.6676 -36.5609 -36.5012 -15.4248 -14.3124  -6.9140  -4.9141
    -4.4342  -3.9446  -3.6275  -2.7254  -1.8801   0.7053   0.8938   1.0124
     1.5960   4.2637   4.3821   4.9722   5.6881   5.9061   6.5615   7.6297
     8.2644   8.5001

          k = 0.0000 0.2309 0.0000 (  7047 PWs)   bands (ev):

   -62.5288 -36.6573 -36.6126 -36.5131 -15.1957 -14.2191  -6.7287  -5.2397
    -4.8286  -3.8877  -3.7140  -2.8117  -2.1096   0.5424   0.8387   1.0016
     1.8616   4.5784   4.7050   5.3078   6.0105   6.4180   7.0102   7.8296
     8.0383   8.3693

          k = 0.0000 0.2887 0.0000 (  7053 PWs)   bands (ev):

   -62.5231 -36.6695 -36.6459 -36.5263 -14.9269 -14.1104  -6.6400  -5.4699
    -5.2208  -4.1438  -3.4548  -2.9826  -2.3778   0.5120   0.6861   1.2366
     2.1066   4.9455   5.1009   5.7252   6.4024   6.7091   7.3374   7.5966
     7.9277   8.4553

          k = 0.0000 0.3464 0.0000 (  7021 PWs)   bands (ev):

   -62.5174 -36.7258 -36.6345 -36.5394 -14.6388 -13.9952  -6.7418  -5.5960
    -5.5438  -4.3745  -3.1948  -3.1690  -2.5777   0.5787   0.5864   1.5319
     2.3087   5.3377   5.5415   6.2193   6.6044   6.7677   7.3135   7.3245
     8.2171   8.7960

          k = 0.0000 0.4041 0.0000 (  7017 PWs)   bands (ev):

   -62.5123 -36.7762 -36.6241 -36.5512 -14.3580 -13.8849  -6.9655  -5.9311
    -5.5644  -4.5654  -3.3272  -2.9643  -2.6184   0.5275   0.7221   1.8171
     2.4595   5.6342   5.9476   6.0937   6.8093   6.8230   7.5627   7.5984
     8.6156   9.0183

          k = 0.0000 0.4619 0.0000 (  6999 PWs)   bands (ev):

   -62.5082 -36.8159 -36.6159 -36.5605 -14.1173 -13.7925  -7.1933  -6.1980
    -5.6212  -4.7073  -3.4403  -2.7883  -2.5081   0.5253   0.8792   2.0388
     2.5607   5.2226   6.1725   6.2054   6.9887   7.4447   7.9576   8.0981
     8.9105   9.0423

          k = 0.0000 0.5196 0.0000 (  6994 PWs)   bands (ev):

   -62.5056 -36.8413 -36.6106 -36.5665 -13.9526 -13.7305  -7.3560  -6.3706
    -5.6891  -4.7945  -3.5064  -2.6808  -2.3575   0.5459   1.0143   2.1709
     2.6179   4.7299   6.2672   6.4748   7.2411   7.9846   8.4396   8.4648
     9.1002   9.2541

          k = 0.0000-0.5774 0.0000 (  7002 PWs)   bands (ev):

   -62.5046 -36.8500 -36.6088 -36.5685 -13.8937 -13.7086  -7.4148  -6.4304
    -5.7183  -4.8239  -3.5279  -2.6450  -2.2899   0.5576   1.0706   2.2134
     2.6362   4.5373   6.3067   6.5936   7.3278   8.0877   8.6128   9.0353
     9.2700   9.5516

          k = 0.0500 0.0866 0.0000 (  7031 PWs)   bands (ev):

   -62.5389 -36.6775 -36.5106 -36.4900 -15.6347 -14.3981  -7.1330  -4.5206
    -4.1625  -3.9386  -3.3590  -2.8069  -1.7161   0.9505   1.0461   1.2093
     1.2985   3.9548   4.0964   4.6588   5.1729   5.4044   6.2319   7.3777
     7.9207   8.3351

          k = 0.0500 0.1443 0.0000 (  7045 PWs)   bands (ev):

   -62.5355 -36.6708 -36.5442 -36.4982 -15.4933 -14.3403  -6.9808  -4.7938
    -4.2749  -4.0188  -3.5973  -2.6825  -1.8186   0.7932   0.8588   1.0650
     1.5276   4.1693   4.2881   4.8740   5.5945   5.6997   6.4441   7.5509
     8.3354   8.4181

          k = 0.0500 0.2021 0.0000 (  7055 PWs)   bands (ev):

   -62.5309 -36.6616 -36.5900 -36.5096 -15.2916 -14.2580  -6.7933  -5.1127
    -4.6382  -3.8796  -3.8212  -2.6841  -2.0062   0.5805   0.8774   0.9023
     1.7977   4.4529   4.5690   5.1687   5.8745   6.2807   6.8120   7.7816
     8.1578   8.5724

          k = 0.0500 0.2598 0.0000 (  7053 PWs)   bands (ev):

   -62.5255 -36.6507 -36.6435 -36.5229 -15.0423 -14.1566  -6.6455  -5.3871
    -5.0203  -4.1527  -3.5937  -2.8066  -2.2586   0.4698   0.7649   1.0397
     2.0610   4.7977   4.9303   5.5462   6.2355   6.6823   7.2835   7.8413
     7.9477   8.3784

          k = 0.0500 0.3175 0.0000 (  7027 PWs)   bands (ev):

   -62.5198 -36.6993 -36.6393 -36.5368 -14.7631 -14.0440  -6.6536  -5.5188
    -5.4087  -4.3850  -3.3723  -2.9928  -2.4846   0.4495   0.6945   1.3032
     2.2842   5.1868   5.3546   6.0062   6.6458   6.8240   7.3377   7.4941
     8.0856   8.6484

          k = 0.0500 0.3753 0.0000 (  7024 PWs)   bands (ev):

   -62.5144 -36.7519 -36.6284 -36.5501 -14.4773 -13.9303  -6.8306  -5.7772
    -5.5369  -4.5661  -3.1957  -3.1844  -2.5657   0.4717   0.7192   1.6016
     2.4472   5.5720   5.8002   6.3899   6.5609   6.9025   7.4423   7.4768
     8.4553   8.9615

          k = 0.0500 0.4330 0.0000 (  7000 PWs)   bands (ev):

   -62.5098 -36.7962 -36.6191 -36.5613 -14.2146 -13.8277  -7.0601  -6.0924
    -5.5708  -4.6973  -3.3449  -3.0580  -2.4809   0.5101   0.8235   1.8792
     2.5391   5.5450   6.1502   6.1645   6.9602   7.1671   7.8082   7.8863
     8.8256   9.0663

          k = 0.0500 0.4907 0.0000 (  6988 PWs)   bands (ev):

   -62.5064 -36.8283 -36.6123 -36.5694 -14.0097 -13.7493  -7.2540  -6.3229
    -5.6421  -4.7824  -3.4567  -2.9404  -2.3283   0.5476   0.9619   2.1007
     2.5610   4.9930   6.3647   6.4449   7.1791   7.8094   8.2344   8.3429
     8.9782   9.1373

          k = 0.0500 0.5485 0.0000 (  6982 PWs)   bands (ev):

   -62.5046 -36.8451 -36.6088 -36.5737 -13.8963 -13.7066  -7.3636  -6.4447
    -5.6976  -4.8242  -3.5134  -2.8719  -2.2130   0.5674   1.0682   2.2388
     2.5389   4.6312   6.4755   6.6759   7.3326   8.1277   8.6011   8.7858
     9.2255   9.4770

          k = 0.1000 0.1732 0.0000 (  7057 PWs)   bands (ev):

   -62.5317 -36.6630 -36.5814 -36.5092 -15.3242 -14.2712  -6.8168  -5.0625
    -4.5393  -3.9379  -3.8636  -2.6004  -1.9699   0.5971   0.8037   0.9196
     1.7951   4.4130   4.5237   5.1236   5.8290   6.2430   6.7398   7.7566
     8.2230   8.7467

          k = 0.1000 0.2309 0.0000 (  7043 PWs)   bands (ev):

   -62.5268 -36.6532 -36.6276 -36.5234 -15.1018 -14.1803  -6.6532  -5.3250
    -4.8403  -4.2915  -3.6884  -2.6214  -2.1869   0.4360   0.8078   0.8579
     2.0771   4.7294   4.8449   5.4603   6.1506   6.7182   7.2233   7.9820
     8.0271   8.5434

          k = 0.1000 0.2887 0.0000 (  7039 PWs)   bands (ev):

   -62.5214 -36.6782 -36.6424 -36.5393 -14.8412 -14.0742  -6.5896  -5.4820
    -5.2099  -4.5522  -3.5421  -2.7524  -2.4021   0.3492   0.7640   1.0383
     2.3237   5.1051   5.2402   5.8828   6.5464   7.0374   7.4364   7.8627
     8.0678   8.5560

          k = 0.1000 0.3464 0.0000 (  7005 PWs)   bands (ev):

   -62.5159 -36.7284 -36.6315 -36.5552 -14.5624 -13.9614  -6.6953  -5.6153
    -5.4982  -4.7059  -3.4728  -2.9491  -2.5008   0.3583   0.7778   1.3016
     2.5041   5.5125   5.6874   6.3885   6.8178   6.9642   7.5179   7.5985
     8.4044   8.8799

          k = 0.1000 0.4041 0.0000 (  7004 PWs)   bands (ev):

   -62.5110 -36.7732 -36.6216 -36.5695 -14.2917 -13.8532  -6.8925  -5.9904
    -5.4963  -4.7871  -3.4430  -3.1594  -2.4458   0.4504   0.8275   1.5910
     2.5992   5.7976   6.1404   6.3224   6.9790   7.1705   7.7657   7.8165
     8.7580   9.1214

          k = 0.1000 0.4619 0.0000 (  6981 PWs)   bands (ev):

   -62.5072 -36.8086 -36.6138 -36.5809 -14.0607 -13.7623  -7.0853  -6.2889
    -5.5561  -4.8220  -3.3854  -3.3423  -2.3044   0.5474   0.9269   1.8651
     2.6020   5.3713   6.5142   6.5276   7.2883   7.6339   8.1917   8.2394
     8.8883   9.1785

          k = 0.1000 0.5196 0.0000 (  6973 PWs)   bands (ev):

   -62.5047 -36.8312 -36.6088 -36.5882 -13.9031 -13.7012  -7.2207  -6.4804
    -5.6354  -4.8312  -3.4670  -3.3241  -2.1572   0.5725   1.0737   2.0975
     2.5266   4.8897   6.8256   6.8617   7.4137   8.2187   8.5301   8.5978
     8.8166   9.3786

          k = 0.1000 0.5774 0.0000 (  6968 PWs)   bands (ev):

   -62.5038 -36.8390 -36.6070 -36.5907 -13.8470 -13.6796  -7.2693  -6.5464
    -5.6699  -4.8319  -3.5114  -3.2997  -2.0926   0.5680   1.1483   2.2237
     2.4499   4.7009   6.9798   7.0333   7.4112   8.2250   8.7272   8.7680
     9.2409   9.4645

          k = 0.1500 0.2598 0.0000 (  7035 PWs)   bands (ev):

   -62.5219 -36.6699 -36.6434 -36.5412 -14.8678 -14.0843  -6.5663  -5.4643
    -5.0872  -4.6765  -3.6090  -2.6431  -2.3716   0.3119   0.7858   0.9225
     2.3454   5.0786   5.2017   5.8423   6.5101   7.1170   7.5152   8.0826
     8.0924   8.5342

          k = 0.1500 0.3175 0.0000 (  7009 PWs)   bands (ev):

   -62.5168 -36.7130 -36.6331 -36.5609 -14.6066 -13.9773  -6.6084  -5.4765
    -5.4682  -4.8602  -3.6478  -2.7721  -2.4690   0.2865   0.8125   1.0904
     2.5530   5.4795   5.6256   6.3107   6.9362   7.1339   7.5855   7.9281
     8.4995   8.7957

          k = 0.1500 0.3753 0.0000 (  6986 PWs)   bands (ev):

   -62.5119 -36.7533 -36.6233 -36.5801 -14.3410 -13.8686  -6.7477  -5.8993
    -5.4163  -4.9092  -3.7657  -2.9744  -2.4398   0.3851   0.8521   1.3240
     2.6794   5.8671   6.0914   6.6536   6.8754   7.3563   7.8670   7.9132
     8.7267   9.1233

          k = 0.1500 0.4330 0.0000 (  6972 PWs)   bands (ev):

   -62.5077 -36.7870 -36.6149 -36.5967 -14.0988 -13.7701  -6.9015  -6.2611
    -5.4354  -4.8947  -3.8405  -3.1985  -2.3195   0.5258   0.9214   1.5705
     2.7212   5.7718   6.5594   6.5862   7.4975   7.5889   8.1773   8.1927
     8.7718   9.2687

          k = 0.1500 0.4907 0.0000 (  6977 PWs)   bands (ev):

   -62.5047 -36.8113 -36.6088 -36.6088 -13.9115 -13.6945  -7.0217  -6.5219
    -5.5290  -4.8503  -3.8445  -3.3941  -2.1568   0.5492   1.0978   1.7845
     2.6957   5.2591   6.9789   6.9957   7.7473   8.0821   8.3422   8.6395
     8.7861   9.4087

          k = 0.1500 0.5485 0.0000 (  6963 PWs)   bands (ev):

   -62.5031 -36.8240 -36.6152 -36.6056 -13.8086 -13.6532  -7.0862  -6.6583
    -5.6081  -4.8118  -3.8300  -3.5114  -2.0316   0.5028   1.2659   1.9192
     2.6503   4.9181   7.3553   7.3851   7.7318   7.9658   8.7862   8.8454
     9.1808   9.6798

          k = 0.2000 0.3464 0.0000 (  7001 PWs)   bands (ev):

   -62.5121 -36.7450 -36.6238 -36.5852 -14.3579 -13.8737  -6.6893  -5.8585
    -5.3772  -4.9669  -3.8970  -2.8969  -2.4411   0.3591   0.8628   1.2168
     2.7133   5.8764   6.0702   6.7882   6.8749   7.3797   7.9488   8.0179
     8.7016   9.0950

          k = 0.2000 0.4041 0.0000 (  6981 PWs)   bands (ev):

   -62.5080 -36.7717 -36.6155 -36.6090 -14.1192 -13.7737  -6.7776  -6.2431
    -5.3166  -4.9499  -4.1633  -3.0981  -2.3389   0.5044   0.9269   1.3826
     2.8066   6.0558   6.5458   6.6275   7.4072   7.7826   8.0152   8.2549
     8.8025   9.4370

          k = 0.2000 0.4619 0.0000 (  6972 PWs)   bands (ev):

   -62.5047 -36.7917 -36.6291 -36.6088 -13.9182 -13.6890  -6.8366  -6.5535
    -5.3764  -4.8724  -4.3229  -3.3235  -2.1760   0.5162   1.1244   1.5383
     2.8489   5.6638   6.8746   7.0137   7.7949   8.0866   8.2306   8.7214
     9.1321   9.6449

          k = 0.2000 0.5196 0.0000 (  6967 PWs)   bands (ev):

   -62.5025 -36.8039 -36.6426 -36.6045 -13.7830 -13.6319  -6.8596  -6.7529
    -5.5054  -4.7824  -4.3720  -3.5103  -2.0033   0.4092   1.3755   1.6460
     2.8604   5.2467   7.0917   7.4303   7.9281   8.3398   8.9197   9.0694
     9.3776   9.7399

          k = 0.2000 0.5774 0.0000 (  6948 PWs)   bands (ev):

   -62.5018 -36.8080 -36.6473 -36.6031 -13.7352 -13.6116  -6.8630  -6.8215
    -5.5684  -4.7401  -4.3795  -3.5863  -1.9244   0.3478   1.4872   1.6844
     2.8613   5.0773   7.1599   7.6416   8.0142   8.4160   9.0562   9.3113
     9.7004   9.8866

          k = 0.2500 0.4330 0.0000 (  6974 PWs)   bands (ev):

   -62.5047 -36.7827 -36.6383 -36.6088 -13.9208 -13.6869  -6.7587  -6.5652
    -5.2636  -4.8822  -4.5619  -3.2939  -2.1859   0.5017   1.1353   1.4468
     2.9086   5.8996   6.7168   7.0121   7.6981   8.1955   8.1965   8.7763
     9.2682   9.8475

          k = 0.2500 0.4907 0.0000 (  6964 PWs)   bands (ev):

   -62.5022 -36.7869 -36.6634 -36.6040 -13.7704 -13.6199  -6.8066  -6.6873
    -5.3503  -4.8113  -4.7630  -3.5077  -1.9918   0.3452   1.4376   1.4909
     2.9904   5.5915   6.6384   7.4443   8.0040   8.6219   8.8937   9.3517
     9.7265   9.9817

          k = 0.2500 0.5485 0.0000 (  6958 PWs)   bands (ev):

   -62.5010 -36.7872 -36.6784 -36.6014 -13.6891 -13.5832  -6.9349  -6.6057
    -5.5171  -4.8750  -4.6602  -3.6615  -1.8378   0.1949   1.5106   1.6525
     3.0377   5.3447   6.5844   7.7580   8.3534   9.0103   9.4299   9.6084
     9.9875  10.1760

          k = 0.3000 0.5196 0.0000 (  6968 PWs)   bands (ev):

   -62.5007 -36.7751 -36.6941 -36.6009 -13.6733 -13.5731  -6.9753  -6.4705
    -5.4655  -5.1264  -4.6246  -3.6945  -1.8022   0.1309   1.4477   1.7126
     3.1056   5.5510   6.2675   7.7985   8.4731   9.1443   9.6407   9.8867
    10.1425  10.1489

          k = 0.3000 0.5774 0.0000 (  6994 PWs)   bands (ev):

   -62.5002 -36.7665 -36.7093 -36.5998 -13.6395 -13.5565  -7.0342  -6.3221
    -5.6410  -5.1750  -4.5522  -3.7837  -1.7133   0.0285   1.4303   1.8232
     3.1498   5.5329   6.1237   7.9566   8.7311   9.4113   9.8765   9.9777
    10.2004  10.3223

     the Fermi energy is    -0.8908 ev

!    total energy              =    -178.25237406 Ry
     estimated scf accuracy    <          2.5E-12 Ry
     smearing contrib. (-TS)   =      -0.00000000 Ry
     internal energy E=F+TS    =    -178.25237406 Ry

     The total energy is F=E-TS. E is the sum of the following terms:
     one-electron contribution =   -1376.90731723 Ry
     hartree contribution      =     687.44531205 Ry
     xc contribution           =     -24.68876829 Ry
     ewald contribution        =     535.89839941 Ry

     convergence has been achieved in  10 iterations

     Writing all to output data dir out/MoS2.save/
 
     init_run     :      0.61s CPU      0.81s WALL (       1 calls)
     electrons    :      8.89s CPU      9.68s WALL (       1 calls)

     Called by init_run:
     wfcinit      :      0.55s CPU      0.67s WALL (       1 calls)
     potinit      :      0.01s CPU      0.03s WALL (       1 calls)
     hinit0       :      0.02s CPU      0.08s WALL (       1 calls)

     Called by electrons:
     c_bands      :      7.72s CPU      8.29s WALL (      11 calls)
     sum_band     :      1.09s CPU      1.20s WALL (      11 calls)
     v_of_rho     :      0.03s CPU      0.03s WALL (      11 calls)
     mix_rho      :      0.05s CPU      0.07s WALL (      11 calls)

     Called by c_bands:
     init_us_2    :      0.04s CPU      0.04s WALL (    1012 calls)
     init_us_2:cp :      0.04s CPU      0.04s WALL (    1012 calls)
     cegterg      :      7.47s CPU      7.67s WALL (     484 calls)

     Called by *egterg:
     cdiaghg      :      1.18s CPU      1.21s WALL (    2225 calls)
     h_psi        :      6.30s CPU      6.49s WALL (    2313 calls)
     g_psi        :      0.01s CPU      0.02s WALL (    1785 calls)

     Called by h_psi:
     h_psi:calbec :      0.12s CPU      0.13s WALL (    2313 calls)
     vloc_psi     :      6.10s CPU      6.29s WALL (    2313 calls)
     add_vuspsi   :      0.06s CPU      0.06s WALL (    2313 calls)

     General routines
     calbec       :      0.12s CPU      0.12s WALL (    2313 calls)
     fft          :      0.02s CPU      0.08s WALL (     110 calls)
     ffts         :      0.00s CPU      0.00s WALL (      11 calls)
     fftw         :      6.92s CPU      7.13s WALL (   87602 calls)
     davcio       :      0.05s CPU      0.50s WALL (    1646 calls)
 
     Parallel routines
 
     PWSCF        :      9.83s CPU     12.39s WALL

 
   This run was terminated on:  21:16:56   5Apr2024            

=------------------------------------------------------------------------------=
   JOB DONE.
=------------------------------------------------------------------------------=
