
     Program PWSCF v.7.1 starts on  5Apr2024 at 12:23:25 

     This program is part of the open-source Quantum ESPRESSO suite
     for quantum simulation of materials; please cite
         "P. Giannozzi et al., J. Phys.:Condens. Matter 21 395502 (2009);
         "P. Giannozzi et al., J. Phys.:Condens. Matter 29 465901 (2017);
         "P. Giannozzi et al., J. Chem. Phys. 152 154105 (2020);
          URL http://www.quantum-espresso.org", 
     in publications or presentations arising from this work. More details at
     http://www.quantum-espresso.org/quote

     Parallel version (MPI), running on     8 processors

     MPI processes distributed on     1 nodes
     247951 MiB available memory on the printing compute node when the environment starts
 
     Reading input from pw_MoS2_nscf_k52_E45.in
Warning: card &IONS ignored
Warning: card / ignored
Warning: card &CELL ignored
Warning: card / ignored

     Current dimensions of program PWSCF are:
     Max number of different atomic species (ntypx) = 10
     Max number of k-points (npk) =  40000
     Max angular momentum in pseudopotentials (lmaxx) =  4

     Atomic positions and unit cell read from directory:
     out/MoS2.save/
     Atomic positions from file used, from input discarded
 
 
     R & G space division:  proc/nbgrp/npool/nimage =       8
     Subspace diagonalization in iterative solution of the eigenvalue problem:
     one sub-group per band group will be used
     scalapack distributed-memory algorithm (size of sub-group:  2*  2 procs)

 
     Parallelization info
     --------------------
     sticks:   dense  smooth     PW     G-vecs:    dense   smooth      PW
     Min          54      54     17                 6964     6964    1167
     Max          55      55     18                 6997     6997    1179
     Sum         439     439    139                55897    55897    9373
 
     Using Slab Decomposition
 


     bravais-lattice index     =            4
     lattice parameter (alat)  =       6.0206  a.u.
     unit-cell volume          =    1373.5622 (a.u.)^3
     number of atoms/cell      =            3
     number of atomic types    =            2
     number of electrons       =        26.00
     number of Kohn-Sham states=         1200
     kinetic-energy cutoff     =      45.0000  Ry
     charge density cutoff     =     180.0000  Ry
     Exchange-correlation= PBE
                           (   1   4   3   4   0   0   0)

     celldm(1)=   6.020601  celldm(2)=   0.000000  celldm(3)=   7.267720
     celldm(4)=   0.000000  celldm(5)=   0.000000  celldm(6)=   0.000000

     crystal axes: (cart. coord. in units of alat)
               a(1) = (   1.000000   0.000000   0.000000 )  
               a(2) = (  -0.500000   0.866025   0.000000 )  
               a(3) = (   0.000000   0.000000   7.267720 )  

     reciprocal axes: (cart. coord. in units 2 pi/alat)
               b(1) = (  1.000000  0.577350  0.000000 )  
               b(2) = (  0.000000  1.154701  0.000000 )  
               b(3) = (  0.000000  0.000000  0.137595 )  


     PseudoPot. # 1 for Mo read from file:
     /usr/scratch4/magr4985/FGWC/FGWC/pseudo/SG15/Mo.upf
     MD5 check sum: 2665c9f4159700498d9a5f7573bd8e9f
     Pseudo is Norm-conserving, Zval = 14.0
     Generated using ONCVPSP code by D. R. Hamann
     Using radial grid of  602 points,  6 beta functions with: 
                l(1) =   0
                l(2) =   0
                l(3) =   1
                l(4) =   1
                l(5) =   2
                l(6) =   2

     PseudoPot. # 2 for S  read from file:
     /usr/scratch4/magr4985/FGWC/FGWC/pseudo/SG15/S.upf
     MD5 check sum: f9d020296ee6110346977bfd66d424f6
     Pseudo is Norm-conserving, Zval =  6.0
     Generated using ONCVPSP code by D. R. Hamann
     Using radial grid of  602 points,  4 beta functions with: 
                l(1) =   0
                l(2) =   0
                l(3) =   1
                l(4) =   1

     atomic species   valence    mass     pseudopotential
        Mo            14.00    95.94000     Mo( 1.00)
        S              6.00    32.06500     S ( 1.00)

     12 Sym. Ops. (no inversion) found



   Cartesian axes

     site n.     atom                  positions (alat units)
         1           Mo  tau(   1) = (   0.5000000   0.2886752   3.6338604  )
         2           S   tau(   2) = (   0.0000000   0.5773502   3.1431775  )
         3           S   tau(   3) = (   0.0000000   0.5773502   4.1245433  )

     number of k points=     7  Gaussian smearing, width (Ry)=  0.0005
                       cart. coord. in units 2pi/alat
        k(    1) = (   0.0000000   0.0000000   0.0000000), wk =   0.0555556
        k(    2) = (   0.0000000   0.1924501   0.0000000), wk =   0.3333333
        k(    3) = (   0.0000000   0.3849002   0.0000000), wk =   0.3333333
        k(    4) = (   0.0000000  -0.5773503   0.0000000), wk =   0.1666667
        k(    5) = (   0.1666667   0.2886751   0.0000000), wk =   0.3333333
        k(    6) = (   0.1666667   0.4811252   0.0000000), wk =   0.6666667
        k(    7) = (   0.3333333   0.5773503   0.0000000), wk =   0.1111111

     Dense  grid:    55897 G-vectors     FFT dimensions: (  25,  25, 192)

     Estimated max dynamical RAM per process >     263.63 MB

     Estimated total dynamical RAM >       2.06 GB

     The potential is recalculated from file :
     out/MoS2.save/charge-density

     Starting wfcs are random

     Band Structure Calculation
     Davidson diagonalization with overlap

     ethr =  5.00E-06,  avg # of iterations = 11.0

     total cpu time spent up to now is      501.2 secs

     End of band structure calculation

          k = 0.0000 0.0000 0.0000 (  6981 PWs)   bands (ev):

   -62.5416 -36.6828 -36.4836 -36.4836 -15.7443 -14.4429  -7.2587  -4.2770
    -4.2770  -3.4272  -3.1666  -3.1666  -1.6583   1.1006   1.1006   1.3356
     1.3356   3.7543   3.9500   4.4451   4.7609   5.2602   6.0775   7.2430
     7.4167   8.2585   9.2863   9.2863   9.9668  10.6395  11.3304  11.3304
    11.7127  13.3322  14.2195  14.5744  14.6503  14.6503  14.8303  14.8303
    16.7424  17.3047  18.1502  18.6521  21.0978  21.0978  21.5836  21.8266
    22.6755  22.6755  23.1378  23.2280  23.2280  23.2410  23.4273  23.4273
    23.6636  23.8530  23.9539  23.9539  24.2025  24.2156  24.2156  24.3004
    24.5394  24.5394  24.5795  24.5795  24.6889  24.8705  24.8705  25.1316
    25.1799  25.4782  25.4782  25.6956  26.0172  26.0172  26.1210  26.1210
    26.2712  26.3054  26.7478  26.7478  26.8450  27.2488  27.3032  27.3032
    27.6796  27.9430  28.0482  28.0482  28.3849  28.3849  28.6503  29.3471
    29.3471  29.4176  29.4176  29.4988  30.0587  30.4811  30.5937  30.5937
    31.1585  31.1585  31.5375  31.6292  32.1817  32.1817  32.4003  32.4911
    32.4911  32.8872  33.4845  33.5744  33.5744  33.8579  34.1288  34.1288
    35.2540  35.5637  35.5637  35.6866  35.9205  35.9205  35.9714  35.9714
    36.2716  36.8361  36.9154  37.5751  37.5751  38.1311  38.1566  38.1566
    38.6821  39.6064  39.7105  39.7105  40.3049  40.3049  40.3073  40.3235
    41.1142  41.1142  41.8528  41.9748  41.9748  43.0691  43.2870  43.2870
    44.0289  44.0585  44.0585  44.6120  44.7097  44.7097  45.1771  45.1771
    45.3381  45.6650  45.7147  45.9802  45.9802  47.4927  47.4927  47.5625
    48.5701  48.5701  48.6290  48.7806  48.8613  49.6432  49.6432  50.4197
    51.4611  51.4611  51.6752  51.6752  51.7452  52.6981  52.7506  53.4933
    53.4933  53.8454  54.1386  54.3283  54.3283  54.6188  54.6188  54.8573
    55.0616  55.0616  55.8939  55.8939  56.0417  56.8339  57.4393  57.6506
    57.6506  58.0846  58.9866  58.9866  59.3122  59.3122  59.4279  59.7529
    59.9745  59.9745  60.1839  60.4011  60.8678  60.8678  61.0749  61.0749
    61.1395  61.6358  62.2052  62.2052  62.2269  62.8123  62.8540  62.8540
    62.9835  62.9835  63.3635  63.5770  63.5918  63.5918  63.6319  63.6345
    63.6872  63.6872  63.7794  63.7794  63.9222  64.0782  64.0782  64.1266
    64.1802  64.1802  64.4051  64.4499  64.6083  64.6239  64.7560  64.7560
    64.9019  64.9019  64.9184  65.0617  65.0617  65.2411  65.2411  65.6893
    65.6893  65.9108  66.1974  66.1974  66.4486  66.5459  66.5816  66.6440
    66.7732  66.7732  66.9390  66.9390  67.0274  67.0274  67.0445  67.3153
    67.3153  67.7027  67.7027  68.1840  68.3982  68.3982  68.8887  68.8887
    69.2301  69.2381  69.2556  69.3120  69.3120  69.3774  69.5931  69.5931
    69.6197  70.0284  70.1345  70.1345  70.3714  70.9212  70.9212  71.1690
    71.6370  71.6370  72.2663  72.2663  72.4060  72.4060  72.5850  72.5866
    72.7258  72.8010  72.9598  73.4447  73.4447  73.6198  73.6198  73.7408
    73.7408  73.8929  74.4961  74.4961  74.8808  74.8808  74.8955  74.8955
    75.2542  76.3530  76.3697  76.3697  76.5311  76.5378  76.5739  76.8984
    76.8984  76.9656  77.2185  77.2185  78.0578  78.2506  78.2995  78.2995
    78.7628  78.7628  78.8430  78.8526  79.4087  79.4087  79.6598  79.9753
    79.9753  80.3023  80.3023  80.8052  81.0719  81.1842  81.3552  81.3552
    81.4350  81.4350  81.6697  81.6899  81.8207  81.8207  82.0312  82.1194
    82.1194  82.1638  82.1638  82.6329  82.6329  82.9973  82.9973  83.0283
    83.1517  83.1928  83.1928  83.2261  83.3558  83.3558  83.3899  83.4318
    83.5185  83.7211  83.7211  83.7279  83.7279  84.0220  84.0220  84.0257
    84.0257  84.2219  84.3019  84.3883  84.4555  84.7351  84.7351  84.8394
    84.8394  85.0070  85.0070  85.2475  85.2475  85.4930  85.6010  85.6010
    85.6275  85.9859  86.0533  86.0533  86.1241  86.1668  86.3956  86.4213
    86.4213  86.6067  86.6067  86.7419  86.9024  87.0324  87.0324  87.2630
    87.3399  87.3425  87.3425  87.8534  87.8534  88.1802  88.2316  88.2316
    88.2783  88.9201  89.0598  89.1461  89.2779  89.2779  89.3617  89.3617
    89.3791  89.3791  89.5852  89.5852  90.1026  90.1344  90.1344  90.1473
    90.1473  90.5458  91.1057  91.5727  91.5727  91.6101  91.6101  91.7770
    91.7812  91.7812  91.8455  91.8455  92.0617  92.1379  92.1379  92.1888
    92.2241  92.2901  92.2901  92.4036  92.6199  92.6199  92.6768  93.0574
    93.2925  93.2925  93.4251  93.9559  94.7023  94.7023  94.8951  94.8951
    95.3337  95.8172  96.0832  96.1816  96.1816  96.3437  96.3437  96.3835
    96.7634  96.7634  97.1515  97.2346  97.2346  97.2400  97.4574  97.4574
    97.5649  97.5720  98.3286  98.3286  98.5332  98.8437  98.8437  98.9179
    98.9179  98.9938  99.0605  99.5193  99.5193  99.8026  99.9313  99.9313
   100.3361 100.3361 100.3529 100.5031 100.5031 100.9090 100.9587 101.0017
   101.0017 101.1054 101.2519 101.6277 101.8318 101.8318 101.8374 102.4906
   102.4906 102.5521 102.5521 102.9548 102.9548 103.1794 104.2349 104.3378
   104.3378 105.0079 105.0079 105.1135 105.1135 105.2943 105.3033 105.3033
   105.4142 105.6549 105.6650 105.8594 106.0265 106.0265 106.2493 106.5135
   106.9984 106.9984 107.0792 107.8638 108.0231 108.0231 108.4251 108.4251
   108.5699 108.5699 108.9030 108.9030 109.1901 109.1901 109.4943 109.4943
   109.5692 110.0719 110.0719 110.1183 110.3737 110.6748 110.6748 110.9539
   111.1035 111.4244 111.4653 111.5995 111.5995 111.7719 112.1113 112.1113
   112.1744 112.3807 112.3807 112.4720 112.4720 112.4827 112.6552 112.9677
   113.0382 113.2568 113.2568 113.3400 113.3400 114.6320 115.1128 115.6603
   115.6984 115.6984 115.7826 116.2011 116.2871 116.2871 116.4065 116.4065
   116.5438 117.7351 117.7422 117.9859 117.9859 118.1590 118.1835 118.1835
   118.3100 118.3100 118.5024 118.5024 118.7517 118.7517 119.3158 119.4775
   119.4775 119.9896 120.0622 120.0622 120.0955 120.0955 120.4082 120.4082
   120.5298 120.7003 120.8892 120.8892 120.9001 121.2600 121.2600 121.2660
   121.7796 122.0122 122.0122 122.1842 122.3976 122.4640 123.5325 123.5325
   123.9365 123.9365 123.9796 123.9796 124.2782 124.2782 124.3603 124.5701
   124.8367 125.2989 125.3401 125.3401 125.5183 125.5183 125.5798 125.7689
   125.7689 126.1118 126.3066 126.3066 126.6913 126.9291 127.2382 127.6420
   127.6420 128.7081 128.7081 129.1599 129.1599 129.2087 129.2087 129.3357
   129.3847 129.4377 129.7186 129.7186 129.8412 129.8412 129.9578 129.9578
   130.0270 130.3583 130.5030 130.5030 130.7140 130.8607 130.8607 131.3272
   131.6712 131.6712 131.8055 131.8055 132.0333 132.3382 132.3382 132.4808
   132.6783 132.6783 132.6951 132.7014 132.7943 133.2353 133.2353 133.4872
   133.8635 133.9908 133.9908 134.3608 134.3898 134.3898 134.9151 135.4038
   135.4038 136.0068 136.6523 136.6523 136.9655 137.0855 137.0855 137.0860
   137.0860 137.4530 137.5558 138.0947 138.0947 138.2352 138.2783 138.4905
   138.4905 138.6914 138.6914 138.7088 138.7088 139.2854 139.3952 139.7306
   139.7306 139.7315 140.1151 140.1151 140.2712 140.3920 140.3920 140.5173
   140.6157 140.8774 140.8774 141.0807 141.4260 141.4260 141.4513 141.4513
   141.4819 141.5965 141.5965 141.6439 141.6596 141.6862 141.6862 141.9925
   142.0084 142.0084 142.0276 142.2755 142.2755 142.4336 142.4336 142.4999
   142.4999 142.5088 142.5642 142.5642 142.5897 142.5899 142.6139 142.6139
   142.6596 142.6596 142.6687 142.7184 142.7596 142.7596 142.7696 142.8292
   142.8292 142.8830 142.8830 142.9204 142.9419 143.0418 143.0418 143.2467
   143.2467 143.3372 143.3570 143.3815 143.3815 143.3822 143.4701 143.5030
   143.5030 143.6219 143.6680 143.7610 143.7610 143.8097 143.8097 143.8109
   143.8194 143.8194 143.8759 144.1285 144.1412 144.1412 144.4221 144.4221
   144.4734 144.5824 144.5824 144.9314 144.9314 145.1037 145.1205 145.1369
   145.2125 145.2829 145.2829 145.5057 145.5057 145.5411 145.5411 145.7638
   145.7638 145.7676 145.8460 145.8504 145.8994 145.8994 146.0326 146.0326
   146.2979 146.2979 146.3079 146.3079 146.5068 146.7400 146.7400 146.7486
   147.0472 147.1994 147.3737 147.3737 147.4124 147.4693 147.6647 147.7603
   147.7603 147.8011 147.8011 148.0381 148.1944 148.1944 148.3389 148.3389
   148.4425 148.4642 148.4642 148.4737 148.5688 148.5688 148.7081 148.8745
   148.8745 149.0450 149.0546 149.1188 149.1188 149.4112 149.4112 149.4506
   149.5838 149.6620 149.7359 149.7359 149.9885 149.9885 150.0427 150.3151
   150.4219 150.4219 150.4988 150.4988 150.9494 150.9494 151.1010 151.1128
   151.1787 151.1787 151.1909 151.3712 151.5437 151.6581 151.7690 151.7690
   151.8020 151.8020 151.8357 151.8357 152.0311 152.0399 152.1804 152.2156
   152.2156 152.2673 152.2673 153.0040 153.0040 153.3340 153.3340 153.3873
   153.7176 153.7176 154.0103 154.0103 154.1620 154.1620 154.2729 154.4327
   154.4327 154.5018 154.6431 154.6431 154.6550 154.7680 154.8114 155.0847
   155.2278 155.2278 155.3209 155.3209 155.4135 155.4900 155.6936 155.6936
   155.8228 155.8228 155.8529 155.8529 156.0100 156.0323 156.1240 156.1240
   156.4872 156.5031 156.5031 156.7649 156.7649 157.2645 157.4448 157.4448
   157.7091 157.9332 157.9332 157.9818 158.0163 158.3657 158.4006 158.6385
   158.6385 158.6929 158.6929 158.8075 158.8200 158.8200 159.0085 159.0085
   159.1256 159.1256 159.1681 159.2360 159.4313 159.5572 159.7565 159.7565
   159.8028 159.8098 159.8098 160.1104 160.1456 160.3094 160.3094 160.3540
   160.3540 160.3605 160.3605 160.5788 160.5788 160.6907 160.7223 160.7237
   161.1478 161.2443 161.2443 161.7592 161.7592 161.7736 162.1810 162.6495
   162.6495 162.7311 162.7757 162.7757 163.0241 163.8266 163.9534 164.1358
   164.1358 164.3894 164.4883 164.7374 164.7374 164.8095 164.8095 164.8258
   164.9010 164.9010 165.1951 165.1951 165.3091 165.3091 165.6196 165.6196
   165.7125 165.8295 165.8295 165.8791 165.8858 165.9217 165.9347 165.9347
   166.3970 166.3970 166.4676 166.4676 166.6375 166.7420 166.7420 167.3557
   167.3557 167.4391 167.4391 167.5951 167.6762 168.1097 168.1097 168.1178
   168.1178 168.2130 168.3742 168.6840 168.6840 168.7121 168.8828 169.0723
   169.0898 169.0898 169.1559 169.4832 169.4832 169.6386 169.6386 169.7569
   169.7750 170.1095 170.1095 170.1293 170.1293 170.7552 170.7856 170.7856
   171.0452 171.0452 171.0699 171.0725 171.0725 171.1590 171.2125 171.4801
   171.5220 171.5220 171.6991 171.7390 171.8298 171.8298 171.9533 171.9533
   172.0942 172.4969 172.6050 172.6050 173.1649 173.6993 173.6993 174.0896
   174.0896 174.1596 174.1738 174.1738 174.1983 175.6943 176.1752 176.1867
   176.1867 176.2129 176.3017 176.3775 176.3887 176.3887 176.6815 176.6815
   177.1372 177.1372 177.1968 177.1968 177.4278 177.7034 177.7034 177.7091
   178.0035 178.0035 178.0290 178.0490 178.0950 178.3251 178.3251 178.4575
   178.4575 178.5768 178.5768 178.6334 178.8345 178.9543 178.9543 179.0802
   179.0802 179.2042 179.3055 179.3055 179.5019 179.5019 179.8595 179.8691
   179.8691 179.8947 180.0068 180.1580 180.1580 180.2192 180.2192 180.4824
   180.4824 180.6841 180.8022 180.8022 180.9323 181.0547 181.1005 181.1005
   181.2724 181.2795 181.3565 181.3565 181.4279 181.4279 181.4651 181.9287
   181.9287 181.9543 182.0292 182.0292 182.0629 182.1231 182.1231 182.1652
   182.3725 182.4961 182.4961 182.6587 182.6953 182.6953 182.7566 182.8244
   182.8244 182.8856 183.0003 183.0003 183.4538 183.6041 183.6041 183.6501

          k = 0.0000 0.1925 0.0000 (  7053 PWs)   bands (ev):

   -62.5324 -36.6644 -36.5772 -36.5050 -15.3539 -14.2835  -6.8491  -5.0265
    -4.5653  -3.8724  -3.7130  -2.7403  -1.9476   0.6366   0.9127   0.9540
     1.6848   4.3619   4.4807   5.0749   5.7864   6.0998   6.6924   7.7082
     8.1951   8.5177   8.8997   9.7571  10.4779  10.5026  10.7746  11.6002
    11.6012  12.6596  13.5427  13.8535  14.0740  15.2482  15.4170  17.2892
    17.5281  17.5434  18.0133  18.2567  18.2634  18.8985  19.0849  19.8798
    19.9598  20.5504  20.6413  20.7141  20.7514  21.3007  21.4213  21.4722
    21.7928  22.0267  22.1015  22.1524  22.4203  22.4524  22.7380  22.9037
    23.0993  23.5359  23.8502  24.1902  24.7278  24.7399  25.5833  25.6807
    25.8780  26.3823  26.7562  26.9043  26.9508  26.9677  27.3271  27.4921
    27.5566  27.6504  28.0102  28.1499  28.3764  28.5205  28.5350  28.7817
    29.0353  29.1692  29.4823  29.6355  29.7078  29.7089  30.2527  30.4092
    30.6131  30.9561  31.0289  31.0708  31.4306  31.5075  31.5075  31.5774
    32.0408  32.1368  32.1704  32.3981  32.4296  32.4770  32.8749  33.0905
    33.3982  33.6683  33.6834  34.1375  34.1858  34.3172  34.4792  35.1487
    35.1984  35.5345  35.5784  35.7391  36.4387  36.4703  36.7241  36.9740
    37.0817  37.4887  37.5962  38.1079  38.4991  38.9524  39.2517  39.4509
    39.4580  39.4784  39.5446  39.9730  40.4122  40.7481  41.1060  41.1192
    41.1359  42.0727  42.3595  43.0258  43.2578  43.3218  43.3221  43.7466
    43.9138  43.9706  44.6690  45.0496  45.6239  45.7142  45.8635  46.0435
    46.2070  46.2675  46.3269  46.7786  47.4032  47.4110  47.8732  48.0384
    48.3241  48.5245  49.1465  49.1937  49.2498  49.6682  50.1151  50.3681
    50.5689  50.9890  51.1483  51.5391  51.9752  52.3259  52.4390  52.4733
    52.5433  53.1528  53.4165  53.5445  53.5999  53.8913  54.0678  54.0810
    54.2246  54.3281  54.4287  54.5239  54.6790  54.9017  55.1534  55.2201
    55.6725  55.7541  56.0681  56.1292  56.2503  56.6144  56.7627  56.8588
    57.3522  57.3600  57.4939  57.7067  57.9796  58.1024  58.2650  58.6157
    58.6921  58.8645  59.0768  59.3784  59.7070  59.9560  60.1400  60.5013
    60.5147  60.5387  60.9662  61.1086  61.3585  61.8521  61.8940  62.2049
    62.2306  62.4819  62.6589  63.1760  63.2749  63.4733  63.5628  63.5774
    63.7171  63.9704  64.0013  64.0074  64.2298  64.3868  64.4720  64.5875
    64.5957  64.8958  65.0954  65.1503  65.4905  65.7080  65.7296  65.7772
    66.1196  66.2095  66.6652  67.0115  67.0325  67.1561  67.3216  67.4321
    67.4406  67.6236  67.8305  68.0146  68.0419  68.3118  68.4477  68.8523
    68.8532  68.9335  69.2531  69.6351  69.6835  69.9468  70.1593  70.3141
    70.4137  70.5772  70.6325  70.8209  70.8251  70.8936  70.9819  71.2182
    71.2625  71.4552  71.6881  71.7256  71.7775  72.1399  72.1439  72.3588
    72.5228  72.6287  73.0545  73.0777  73.1435  73.4594  73.5041  73.5540
    73.6971  73.8721  73.9562  73.9687  74.1407  74.2453  74.2536  74.3625
    74.4885  74.7308  74.9247  75.0521  75.1530  75.1577  75.2680  75.5683
    75.5692  75.8231  75.9524  75.9801  76.1388  76.4487  76.5211  76.6859
    76.8368  77.0660  77.0803  77.1088  77.2144  77.3316  77.3383  77.3707
    77.5211  77.5361  77.5509  77.5585  77.9948  78.0580  78.1368  78.1665
    78.2893  78.4657  78.4786  78.6611  78.8881  78.9859  79.1677  79.3115
    79.3413  79.3528  79.6216  79.7303  79.7449  79.7977  80.0826  80.1013
    80.1475  80.5313  80.5463  80.5547  80.7495  80.9431  81.3082  81.4054
    81.5399  81.6189  81.9326  82.0166  82.2642  82.3972  82.4187  82.7878
    82.8630  82.9497  82.9619  83.1193  83.1699  83.2100  83.4015  83.6705
    83.6871  84.2284  84.3133  84.3774  84.4016  84.5496  84.8319  84.9263
    85.1572  85.1790  85.7855  86.0058  86.1623  86.3450  86.4263  86.5557
    86.5559  86.8406  86.8772  87.1184  87.1537  87.1787  87.2267  87.4609
    87.8642  87.9809  88.0331  88.2207  88.2679  88.4948  88.5071  88.8363
    88.9279  88.9831  89.1417  89.1685  89.3980  89.5437  89.5628  89.6409
    89.8147  90.3408  90.3600  90.4627  90.5555  90.6243  90.6556  90.9358
    90.9936  91.0864  91.3507  91.3803  91.4914  91.6461  91.7550  91.7804
    91.8275  91.8801  92.3827  92.6539  92.6757  92.6819  93.0823  93.1625
    93.2615  93.4743  93.5908  93.6447  93.7827  93.9907  94.2373  94.2914
    94.5026  94.5427  94.5859  94.8030  95.0019  95.1369  95.1958  95.3659
    95.6366  95.6919  95.8355  95.8945  96.0674  96.2710  96.2999  96.4772
    96.5193  96.7018  96.7318  96.9649  97.1058  97.1989  97.2664  97.4584
    97.5174  97.5784  97.6388  98.0063  98.0880  98.2272  98.3519  98.5088
    98.5748  98.7495  98.8457  98.9468  98.9723  99.1464  99.3574  99.5080
    99.5838  99.7759 100.0508 100.1781 100.3788 100.5741 100.7452 101.0604
   101.2648 101.3329 101.5761 101.6137 101.7462 101.8497 101.8548 101.8854
   102.1899 102.4289 102.7737 102.7844 103.0188 103.1445 103.4561 103.5024
   103.5264 103.5861 103.6560 103.7061 104.1450 104.1902 104.2005 104.4229
   104.4997 104.6058 105.1632 105.1832 105.3743 105.6390 105.7374 105.9267
   106.1492 106.2316 106.3653 106.4697 106.4889 106.7639 106.7932 106.8525
   106.8552 107.3314 107.5410 107.6032 107.7361 107.8968 107.9681 108.1993
   108.4827 108.5769 108.6451 108.9974 109.6287 109.6732 109.8965 109.9461
   110.0051 110.4348 110.5570 110.6006 110.7161 110.7282 111.0410 111.4160
   111.5920 111.6191 112.0911 112.1983 112.2579 112.3171 112.4801 112.6707
   112.7887 112.9400 113.0199 113.1735 113.1905 113.2425 113.5016 113.7409
   113.7650 113.8253 114.0364 114.0681 114.6575 114.7835 114.9210 115.0551
   115.2200 115.7776 115.9982 116.0153 116.1410 116.3341 116.3429 116.5881
   116.6687 116.8652 117.0735 117.1354 117.5345 117.6786 117.7311 117.8932
   117.9763 118.0980 118.5538 118.7026 118.8638 118.9769 119.2177 119.4208
   119.5381 119.5587 119.6998 120.1488 120.1958 120.3248 120.6256 120.6735
   120.7704 121.0895 121.2586 121.3901 121.5806 121.6400 122.1759 122.1859
   122.3220 122.6868 122.7032 122.7540 122.7970 122.9235 123.2294 123.2513
   123.3552 123.4891 123.6749 124.0671 124.1486 124.5094 124.6548 124.6784
   124.8171 125.0173 125.1704 125.3974 125.4985 125.6802 125.8394 125.8707
   125.9819 125.9958 126.0026 126.5089 126.5731 126.6085 126.6976 126.7602
   126.8418 127.0449 127.1337 127.2627 127.3280 127.5046 127.5084 127.6616
   127.7808 127.8736 128.0282 128.1006 128.2223 128.4889 128.5339 128.5538
   128.6789 129.0435 129.0708 129.0987 129.2487 129.5284 129.6076 129.6541
   129.7639 129.8941 129.9576 130.0324 130.0348 130.0658 130.0775 130.0809
   130.2422 130.4974 130.5524 130.6517 130.6854 130.8482 131.0875 131.1917
   131.2351 131.3281 131.5882 131.6355 131.7050 131.9194 131.9678 131.9871
   132.2497 132.2589 132.3380 132.4641 132.7677 132.8233 132.8531 132.8792
   133.0212 133.1650 133.4356 133.4701 133.5028 133.8420 133.9800 134.3004
   134.3514 134.4395 134.7291 134.7569 134.7981 134.8090 134.9683 135.0805
   135.1939 135.3366 135.5115 135.6887 135.8170 135.8261 135.9730 136.0303
   136.2461 136.4752 136.5735 136.8180 136.9768 137.1182 137.1434 137.4340
   137.4661 137.7753 137.8771 137.9013 138.2084 138.2224 138.2373 138.2630
   138.3990 138.5327 138.5633 138.7843 138.9314 139.1629 139.2123 139.2663
   139.3004 139.4155 139.4639 139.5583 139.5834 139.6593 139.8472 139.8637
   139.9358 139.9796 139.9818 139.9944 140.1312 140.2167 140.2210 140.2935
   140.5878 140.6169 140.7768 140.8040 140.8447 140.9421 140.9853 141.0131
   141.6011 141.6563 141.7762 141.7789 142.2132 142.2572 142.4752 142.5586
   142.5808 142.5930 142.8450 142.8950 143.0937 143.1068 143.2404 143.5782
   143.7196 143.8183 143.8583 143.9860 144.2811 144.3566 144.4018 144.4816
   144.7643 145.0866 145.0978 145.1044 145.1593 145.3322 145.3623 145.5614
   145.6066 145.7025 145.7412 145.8335 145.8664 145.9964 146.0311 146.1748
   146.3420 146.4971 146.5177 146.6518 146.6971 146.7802 146.8626 146.9834
   147.0260 147.2094 147.2539 147.3754 147.4659 147.5762 147.6291 147.6297
   147.7974 147.8608 148.0444 148.0936 148.2082 148.3136 148.4405 148.4818
   148.7415 148.7591 148.7739 148.8629 148.9892 149.0893 149.1209 149.2986
   149.3150 149.3231 149.3582 149.4685 149.4787 149.5199 149.5307 149.6681
   149.9225 149.9475 150.1057 150.1766 150.3729 150.5473 150.7248 150.7728
   150.8296 150.8899 151.3207 151.3369 151.4158 151.4393 151.6298 151.6555
   151.7731 151.8092 152.1212 152.2009 152.5027 152.5228 152.5957 152.8623
   152.8941 152.9574 153.1447 153.2404 153.2981 153.6563 153.7177 153.7963
   153.8451 154.0337 154.0861 154.2133 154.3305 154.5362 154.7261 154.8480
   155.0700 155.0921 155.1469 155.4653 155.5581 155.5754 155.8349 155.8928
   155.9916 156.0806 156.1400 156.2723 156.3713 156.4525 156.4870 156.5250
   156.6974 156.7320 156.7364 156.8977 157.0604 157.0876 157.0972 157.1533
   157.3089 157.5499 157.5534 157.5894 157.7377 157.7789 157.8908 157.9377
   158.0543 158.2684 158.3027 158.5309 158.6046 158.6978 158.7350 158.7549
   158.8841 159.0586 159.0985 159.1053 159.2486 159.3380 159.3578 159.3843
   159.5189 159.5412 159.6395 159.6495 159.6588 159.7679 159.7800 159.7905
   160.0555 160.1487 160.1931 160.3047 160.3572 160.3719 160.6421 160.7062
   160.7706 160.7797 160.9544 161.1031 161.1458 161.1903 161.3182 161.4990
   161.6124 161.6448 161.6814 161.6855 161.8190 161.9681 162.0366 162.0729
   162.2779 162.3115 162.4800 162.4865 162.6400 162.7338 162.7510 162.7752
   162.8167 162.9604 163.0189 163.1330 163.1849 163.2923 163.3333 163.6727
   163.6892 163.8431 163.9308 163.9501 164.0715 164.1795 164.3117 164.3602
   164.4795 164.5548 164.5779 164.6129 164.7518 164.7964 164.8053 164.9310
   165.2280 165.2756 165.3767 165.4514 165.5646 165.6777 165.7189 165.7359
   165.8762 165.8868 165.9763 166.2709 166.7565 166.7694 166.7731 166.8937
   167.0324 167.1795 167.4409 167.4758 167.7767 167.8193 167.8613 167.9282
   168.0899 168.1048 168.1283 168.3142 168.5473 168.6138 168.6308 168.6700
   168.6863 168.7876 168.8556 168.8778 169.2245 169.2366 169.3583 169.4353
   169.5244 169.7402 169.7451 169.7523 169.7886 170.0782 170.2430 170.3503
   170.5090 170.5114 170.6554 170.6896 170.9685 171.0338 171.0788 171.1844
   171.3018 171.4738 171.5273 171.6013 171.6493 171.7323 171.9976 172.1413
   172.2254 172.2544 172.3696 172.4259 172.4359 172.5540 172.5714 172.6442
   172.6864 172.7921 172.8621 172.8889 172.9244 173.2401 173.2537 173.3196
   173.4630 173.5913 173.6493 173.6499 173.6512 173.6691 173.8735 174.0004
   174.0756 174.1383 174.1507 174.4727 174.4728 174.4941 174.7495 174.8059
   174.9024 174.9042 174.9627 175.0266 175.1270 175.4071 175.4176 175.5005
   175.5335 175.6745 175.7832 175.8888 175.9169 175.9266 175.9735 176.0906
   176.2313 176.3486 176.4853 176.5880 176.7098 176.7236 176.7328 177.0057
   177.0304 177.1163 177.1684 177.3495 177.5092 177.5358 177.5960 177.8093
   178.1090 178.3181 178.3795 178.5499 178.6537 178.7137 178.8668 178.9956
   178.9980 179.0561 179.3596 179.3749 179.4176 179.4593 179.7201 179.8842
   179.9190 180.0261 180.2493 180.2858 180.7122 181.0175 181.0849 181.1138
   181.1774 181.2105 181.2777 181.4185 181.4357 181.6920 181.9658 182.0739
   182.1282 182.1349 182.1878 182.2805 182.3725 182.4667 182.5418 182.5497
   182.8058 182.8131 182.8944 183.1606 183.2175 183.3298 183.3873 183.4139

          k = 0.0000 0.3849 0.0000 (  7023 PWs)   bands (ev):

   -62.5139 -36.7604 -36.6274 -36.5475 -14.4488 -13.9204  -6.8858  -5.8256
    -5.5550  -4.5068  -3.2791  -3.0361  -2.6247   0.5383   0.6726   1.7269
     2.4149   5.5722   5.8253   6.2432   6.6131   6.8207   7.4498   7.4610
     8.4819   8.9731   9.9212  10.0699  10.7853  10.9438  11.9170  11.9838
    12.8861  12.9930  13.0358  13.5651  13.6149  13.8215  14.2579  14.3174
    15.1940  15.5827  16.1199  16.2891  16.8595  17.5446  17.8605  18.5637
    18.8478  18.9302  19.4167  19.4832  19.7417  19.7629  20.1457  20.1621
    20.3340  20.6565  20.7479  21.0482  21.2513  21.9598  22.2463  22.3191
    22.5687  22.8248  23.0430  23.6876  23.8408  24.0795  24.3481  24.4036
    24.9291  25.0612  25.5302  25.7018  26.0694  26.2195  26.2809  27.3295
    27.4228  27.7961  28.0221  28.3723  28.5723  28.8490  29.1746  29.5813
    30.3682  30.3948  30.4081  30.7935  31.4834  31.7456  31.9288  32.2493
    32.5114  32.5194  32.6902  32.9765  33.1449  33.3542  33.4036  33.6140
    33.8302  34.0416  34.3267  34.4943  34.7530  35.0556  35.4177  35.4360
    35.8124  35.9218  36.0837  36.3385  36.8400  36.9955  37.2918  37.5930
    37.7569  38.0678  38.1767  38.4184  38.5823  38.7400  39.2362  39.2774
    39.5362  39.8104  40.0140  40.3070  40.3260  40.4058  40.7167  40.7633
    40.9009  41.2634  41.3662  41.7745  42.1333  42.2867  42.4234  42.4999
    42.9916  43.2426  43.2435  43.2503  43.7749  44.0284  44.3068  44.7086
    44.7823  44.8572  45.0448  45.2968  45.6203  45.7859  45.8468  46.0804
    46.1913  46.2813  46.5028  46.5102  46.6990  46.7599  46.9016  46.9854
    47.2881  47.6505  47.6525  47.7122  47.8381  48.0529  48.0833  48.2937
    48.7735  48.8770  49.0526  49.2189  49.5782  49.6203  49.7256  50.2694
    50.3495  50.4847  50.8179  51.3380  51.3680  51.4185  51.5704  52.2104
    52.2471  52.5116  52.6682  52.7356  53.1779  53.3441  53.5291  53.6981
    53.8703  54.1346  54.6308  54.6382  54.6786  55.4105  55.5078  55.5501
    55.8091  55.8842  56.1078  56.2357  56.4049  56.4150  56.7789  57.0978
    57.1734  57.5651  58.0569  58.1678  58.5635  58.6655  58.9618  59.0140
    59.2230  59.2720  59.3889  59.5219  59.8332  60.1671  60.2755  60.6362
    60.7117  61.1964  61.2273  61.2552  61.2928  61.7581  61.9204  62.0651
    62.0885  62.2062  62.4781  62.6429  63.1681  63.2986  63.3221  63.4926
    64.0038  64.0644  64.2459  64.6193  64.7034  64.9183  64.9362  64.9780
    65.2096  65.3284  65.6724  65.6820  65.8615  65.9552  66.2445  66.2668
    66.4836  66.7601  66.8050  66.8051  67.2465  67.4182  67.4404  67.7590
    67.7922  68.0339  68.0499  68.1475  68.3341  68.4135  68.4213  68.7226
    69.2101  69.2188  69.2862  69.3051  69.5682  69.7198  70.1677  70.1844
    70.1873  70.5212  70.6405  71.1138  71.1857  71.4754  71.5698  71.7901
    71.8816  71.8866  71.9800  72.3157  72.4233  72.4271  72.4466  72.6112
    72.7339  72.9595  72.9681  73.0282  73.2308  73.2837  73.3042  73.5484
    73.7619  73.9481  73.9933  74.2793  74.4264  74.4731  74.6812  74.7058
    74.8395  75.0771  75.0957  75.2807  75.5950  75.7104  76.0054  76.0446
    76.1266  76.3903  76.4833  76.5256  76.7592  77.0696  77.3542  77.4730
    77.4928  77.6399  77.9206  77.9327  78.1284  78.2060  78.3307  78.5856
    78.7124  79.2111  79.2334  79.2540  79.6469  80.0003  80.0348  80.1482
    80.2530  80.3134  80.5589  80.7412  80.7524  80.8650  81.1862  81.3243
    81.4954  81.7513  81.7797  81.8716  81.9935  82.1315  82.6330  82.9765
    82.9930  83.0807  83.6303  83.6475  83.7682  83.8763  83.9489  83.9921
    84.4637  84.4846  84.7662  84.7667  85.1764  85.2741  85.3147  85.5198
    85.6665  85.6671  85.8356  85.9228  86.0790  86.2575  86.2678  86.3354
    86.4916  86.6083  86.6557  86.7166  86.9650  87.3463  87.3851  87.4806
    87.6061  87.6312  87.6646  87.9057  88.2061  88.3378  88.3426  88.5908
    88.6564  88.8451  89.0291  89.1932  89.2575  89.3230  89.6763  89.9090
    89.9865  90.0103  90.0270  90.4210  90.6912  90.8408  91.1351  91.1716
    91.3033  91.4168  91.4939  91.6954  91.9137  92.2894  92.3087  92.8915
    93.0129  93.1568  93.2692  93.4445  93.5266  93.6819  93.7235  93.9427
    94.1829  94.3697  94.4632  94.5361  94.6036  95.0271  95.0570  95.2460
    95.3652  95.4470  95.5655  95.8278  96.0532  96.0620  96.2573  96.3290
    96.6129  96.8601  97.0631  97.2261  97.3363  97.4428  97.4492  97.6748
    97.7815  98.0131  98.3230  98.3872  98.4072  98.6609  98.6634  98.6660
    98.7002  98.7973  98.9922  99.1260  99.2150  99.3991  99.5072  99.5624
    99.5726  99.6892  99.7039 100.0222 100.1706 100.3032 100.4712 100.5772
   100.7215 100.8235 101.1515 101.3513 101.4941 101.5451 101.7332 102.1012
   102.1014 102.1202 102.3169 102.3556 102.3618 102.5144 102.6012 102.8603
   103.0197 103.1702 103.5290 103.5954 103.9628 104.1044 104.1335 104.1779
   104.3320 104.4930 104.5085 104.5988 104.9184 105.0808 105.2772 105.3562
   105.4730 105.6107 105.7943 105.9954 106.2665 106.3735 106.6648 107.0722
   107.1488 107.3338 107.3632 107.3716 107.6463 107.7442 107.9452 107.9484
   108.1759 108.2888 108.4497 108.5095 108.6397 108.6802 108.8521 108.9487
   108.9840 109.2293 109.3029 109.4621 109.5381 109.5621 109.9325 110.0910
   110.4729 110.5754 110.7211 110.9591 111.2885 111.3245 111.4299 111.6411
   111.6940 111.7719 111.8657 111.8845 111.9290 111.9989 112.0018 112.1191
   112.1830 112.4022 112.4463 112.5065 112.6184 112.6988 112.8434 113.0456
   113.0863 113.0989 113.2120 113.4124 113.4194 113.5766 113.7878 113.9307
   114.0055 114.2849 114.2920 114.3969 114.5065 114.6724 114.7049 114.7215
   114.9859 115.0019 115.1041 115.1983 115.4269 115.4282 115.6836 115.7481
   115.8292 115.9992 116.1310 116.1361 116.3267 116.4276 116.6723 116.7317
   116.7540 116.9578 117.2952 117.3048 117.3423 117.5983 117.6668 117.7079
   117.7972 117.8569 117.9407 117.9659 118.0690 118.2578 118.3266 118.3388
   118.4928 118.5522 118.8227 118.9000 119.1833 119.2044 119.2071 119.3832
   119.5849 119.5861 119.6680 119.9313 119.9835 120.0491 120.2449 120.3191
   120.5826 120.6462 120.6921 120.8446 120.8818 120.9458 121.0509 121.1519
   121.3514 121.4381 121.4835 121.5070 121.5149 121.5999 121.8818 121.8953
   121.9136 122.3843 122.4356 122.7366 122.8170 122.9533 123.2465 123.2833
   123.4960 123.6272 123.6844 123.8371 123.8703 123.9157 124.2009 124.5443
   124.6580 124.7038 124.7688 124.8641 125.0413 125.1961 125.2605 125.3501
   125.3973 125.4687 125.6466 125.8168 125.8301 125.8934 126.2548 126.3164
   126.3341 126.3798 126.8768 126.9032 126.9788 127.1549 127.3488 127.5461
   127.5994 127.7176 127.8084 127.9862 128.2335 128.5314 128.5642 128.5733
   128.6993 128.8073 128.9325 129.0467 129.0949 129.1474 129.5349 129.6422
   129.7050 130.0396 130.0738 130.4164 130.6479 130.6713 130.7304 130.7767
   130.9365 131.2310 131.2487 131.3231 131.5723 131.6177 131.7804 131.9114
   131.9973 132.3254 132.6580 132.7330 132.7491 133.0244 133.0577 133.2199
   133.6067 133.7211 133.7516 133.7631 134.0102 134.1344 134.2798 134.5142
   134.5441 134.5825 134.6591 134.7967 134.8689 135.0020 135.2618 135.2648
   135.5719 135.8744 135.8923 136.0182 136.1387 136.3715 136.5233 136.5795
   136.7853 136.8539 137.0760 137.1080 137.2378 137.2682 137.4267 137.5087
   137.8164 138.0180 138.1548 138.2048 138.2145 138.4072 138.4961 138.6684
   138.7091 138.7345 138.8541 138.8833 138.9650 139.1160 139.2033 139.3666
   139.5973 139.6014 139.6440 139.7017 139.9740 140.0008 140.0374 140.3693
   140.4034 140.4069 140.4560 140.8786 140.8817 140.8855 140.9415 141.1501
   141.2270 141.2428 141.4185 141.4636 141.7616 141.7987 141.8207 141.8649
   141.9573 142.0570 142.2321 142.2668 142.2844 142.4122 142.6744 142.8383
   142.8493 142.9341 143.2333 143.3698 143.4654 143.7527 143.8860 143.9269
   144.0013 144.0348 144.2137 144.4831 144.7838 144.8644 144.9005 145.0453
   145.0927 145.1333 145.4870 145.6110 145.7240 145.8840 146.0275 146.0429
   146.1797 146.3151 146.3310 146.5289 146.6425 146.7725 146.8415 146.9768
   147.2088 147.2864 147.3767 147.4299 147.4886 147.6360 147.7751 147.8559
   148.0195 148.1517 148.2334 148.2345 148.5107 148.6301 148.7063 148.7792
   148.8719 149.1218 149.2378 149.3502 149.5403 149.6257 149.9185 149.9342
   150.0769 150.3437 150.4577 150.4641 150.5327 150.6584 150.6921 150.7900
   150.8345 150.9740 151.0610 151.2523 151.3030 151.3754 151.4165 151.4378
   151.4731 151.5261 151.5621 151.7005 151.7046 151.8744 151.9467 152.1678
   152.3594 152.4038 152.4217 152.5060 152.6465 152.7297 152.8412 152.9840
   153.3671 153.3719 153.4466 153.4864 153.6405 153.6429 153.6885 153.7317
   154.1549 154.1588 154.3251 154.4086 154.4152 154.6112 154.6905 154.7219
   154.8354 154.9900 155.2592 155.3195 155.3975 155.5040 155.5343 155.6074
   155.9079 156.3634 156.3916 156.4111 156.4802 156.6390 156.7856 156.8562
   156.8923 157.0743 157.1713 157.2906 157.3363 157.4857 157.5276 157.6613
   157.8566 157.9068 158.1980 158.3112 158.9633 159.1775 159.2429 159.2632
   159.3411 159.4281 159.4714 159.5084 159.8204 159.9996 160.0379 160.1042
   160.2715 160.4239 160.4256 160.4901 160.5535 160.8481 160.9846 161.0967
   161.3219 161.3467 161.3717 161.3823 161.5911 161.6739 161.7058 161.7662
   161.9107 162.0915 162.1650 162.2412 162.2843 162.5036 162.5635 162.7581
   162.9330 162.9717 163.0995 163.1944 163.3010 163.4109 163.6953 163.7047
   163.7244 163.8750 163.9840 164.0813 164.2364 164.3636 164.3757 164.4500
   164.5869 164.6094 164.6149 164.8141 164.8880 164.9672 165.0320 165.0748
   165.3023 165.3821 165.4459 165.7042 165.8373 165.8499 165.9308 165.9354
   166.0403 166.2448 166.6522 166.7890 166.8370 166.8933 166.9882 167.2978
   167.3318 167.3759 167.3943 167.6777 167.6952 167.7083 167.9370 167.9626
   168.0068 168.0925 168.2188 168.4202 168.4476 168.5427 168.7155 168.8701
   169.0355 169.0824 169.0852 169.1269 169.1932 169.3137 169.4255 169.4764
   169.5934 169.6548 169.9570 169.9975 170.2177 170.2827 170.3138 170.3927
   170.4431 170.7098 170.7922 171.0163 171.0755 171.0816 171.2088 171.2600
   171.4750 171.5552 171.7195 171.8481 171.8748 171.9222 172.2504 172.2756
   172.4236 172.4241 172.4252 172.4594 172.6239 172.6675 172.8684 172.8896
   173.1667 173.3100 173.3499 173.4552 173.6054 173.6663 173.7344 173.7840
   173.8442 173.9021 174.0771 174.1078 174.1185 174.3174 174.3916 174.5078
   174.6181 174.7053 174.7485 174.8244 174.8855 174.9787 174.9820 175.3064
   175.4494 175.5812 175.5882 175.8088 175.8505 175.9444 175.9780 176.2606
   176.2617 176.2656 176.5416 176.5696 176.7455 176.8359 176.8522 176.9679
   177.0604 177.1246 177.1775 177.2302 177.3645 177.4191 177.4420 177.4840
   177.5645 177.5783 177.6221 177.6801 177.8238 177.8294 177.8844 178.0385
   178.2292 178.3503 178.3552 178.3794 178.5179 178.5922 178.6907 178.7104
   178.8614 179.0480 179.0657 179.3556 179.4022 179.5494 179.5848 179.7047
   179.8763 179.8892 179.9451 179.9923 180.0990 180.3552 180.3713 180.4532
   180.4583 180.6409 180.7665 180.8195 180.8422 180.8662 181.0660 181.3065
   181.3247 181.4111 181.4902 181.6885 181.7635 181.8154 182.2091 182.3735
   182.5039 182.6067 182.6846 182.7715 182.9459 183.0070 183.0624 183.1086
   183.2239 183.3087 183.3995 183.5124 183.6354 183.8395 184.0375 184.1462
   184.2601 184.2819 184.4971 184.5420 184.8704 184.8710 184.9461 184.9825

          k = 0.0000-0.5774 0.0000 (  7002 PWs)   bands (ev):

   -62.5047 -36.8500 -36.6088 -36.5686 -13.8937 -13.7086  -7.4148  -6.4304
    -5.7183  -4.8239  -3.5279  -2.6450  -2.2899   0.5576   1.0706   2.2134
     2.6362   4.5373   6.3067   6.5936   7.3278   8.0877   8.6128   9.0348
     9.2698   9.5512   9.6065   9.6641   9.9960  10.0463  10.8566  11.1008
    11.4870  11.8927  12.9432  13.1280  13.6276  13.9962  14.3903  15.3617
    15.5322  15.8271  15.9601  16.4456  16.6008  17.2752  17.6763  17.8813
    17.9872  18.1636  18.6945  18.9626  19.2080  19.2884  19.3174  19.4254
    20.1964  20.2006  20.2504  20.3285  21.0407  21.1798  21.3009  21.8897
    22.1996  22.2995  22.5958  22.7566  22.9514  23.2590  23.4210  24.2270
    24.2418  24.3132  24.9236  25.2832  25.6889  26.0320  27.2494  27.3371
    27.4157  27.5117  28.2742  28.5098  28.5565  29.5634  29.6399  30.2968
    30.3533  30.7173  30.8745  31.5000  31.6319  31.6812  31.8008  32.1849
    32.8732  32.9490  33.4911  34.4456  34.4609  34.6690  34.9727  35.8937
    36.0050  36.1283  36.3180  36.6870  36.7349  37.0799  37.2700  37.6244
    37.6450  38.4091  38.5010  38.5461  38.6446  38.7152  38.7399  38.8921
    38.9829  39.1648  39.1860  39.2078  39.2753  39.6517  39.6584  39.7131
    39.8120  39.8479  40.4500  40.4595  40.5257  40.7831  40.8811  41.0657
    41.1994  41.3407  41.6083  41.6468  41.7429  41.7955  42.2212  42.6001
    42.7846  43.1637  43.2567  43.3585  43.3750  43.6096  43.9258  44.2473
    44.4800  44.7256  44.9680  45.0265  45.0826  45.3549  45.5053  45.9027
    45.9764  46.2227  46.4277  46.6911  46.7722  46.8639  47.2741  47.5641
    47.5848  47.8339  47.8361  47.9380  48.1040  48.6807  48.7951  48.8139
    48.9048  48.9968  49.2953  49.3335  49.4525  49.5133  49.8357  49.9979
    50.1028  50.1247  50.4682  50.4901  50.5834  50.6215  50.9867  51.0571
    51.4474  51.5576  51.9350  51.9419  52.1988  52.3187  52.4266  52.6511
    52.9503  52.9683  53.2310  53.3089  53.7877  53.8449  53.9168  54.0183
    54.3264  54.3284  55.2264  55.3439  55.4019  55.8386  55.8793  56.2083
    56.3712  56.4512  56.4978  56.6478  56.9393  57.3774  57.4724  57.5509
    57.7641  57.8366  57.8877  58.0820  58.4587  58.8295  58.9553  59.7625
    59.9135  60.4445  60.4803  60.7266  60.8855  61.2700  61.3128  61.5239
    61.6365  61.6576  61.7603  61.8181  62.3179  62.4827  62.6780  62.6897
    62.7152  63.3717  63.4899  63.9476  64.2155  64.8053  64.8142  65.0038
    65.1897  65.4201  65.9281  65.9501  66.1935  66.3965  66.6350  66.6588
    66.8753  66.9926  67.0908  67.1923  67.5564  67.6083  67.7448  67.8189
    68.0927  68.1900  68.3412  68.4090  68.4880  68.5888  68.6071  68.6305
    68.6388  68.9254  68.9263  68.9745  69.1277  69.2166  69.4215  69.4606
    69.5126  69.5339  69.7720  70.2166  70.2870  70.3864  70.4026  70.5658
    70.7859  70.8626  71.0975  71.1442  71.1946  71.3559  71.3589  71.4784
    71.6821  72.1301  72.4044  72.5372  72.6896  72.7903  72.7974  72.8888
    72.9067  72.9352  73.2704  73.7779  73.8979  73.9943  74.1923  74.2686
    74.4592  74.5235  74.9139  74.9367  75.1888  75.4648  75.5521  75.5668
    75.7451  75.9366  76.1546  76.2858  76.3064  76.5678  76.7336  76.7994
    76.9848  77.0733  77.1948  77.5617  77.6346  77.7032  77.7886  78.1273
    78.2194  78.7578  78.8336  79.1367  79.3388  79.5100  79.6218  79.7085
    79.8042  80.0888  80.3238  80.8131  80.8213  80.9114  80.9416  81.2761
    81.3971  81.4841  81.5245  81.8633  82.0194  82.4281  82.8227  82.9843
    83.1359  83.7166  83.8482  83.9427  84.0817  84.0832  84.2132  84.3508
    84.5830  84.6902  84.7067  84.9447  85.2046  85.5726  85.6384  85.6728
    86.1432  86.2167  86.6437  86.7441  86.8023  86.8497  86.8595  87.1920
    87.4773  87.6298  87.6739  88.1451  88.2500  88.3243  88.4638  88.6855
    89.2912  89.3102  89.4208  89.7259  89.8900  89.9568  90.1142  90.1878
    90.3741  90.5267  91.0755  91.2663  91.4434  91.6855  91.7932  91.8088
    92.0739  92.5586  92.6115  92.7172  93.2969  93.3065  93.3619  93.5736
    93.6900  93.9835  94.1065  94.1236  94.2730  94.3409  94.7109  94.8023
    94.9649  95.2040  95.4921  95.6357  95.7155  95.8974  95.9790  96.3729
    96.5704  96.6788  96.7566  96.8955  96.9006  96.9203  97.4504  97.5438
    97.7186  97.8919  97.9392  97.9638  97.9975  98.0690  98.1805  98.1931
    98.2206  98.3552  98.6201  98.6271  98.8007  98.8853  98.9281  98.9900
    99.0823  99.0946  99.2006  99.2340  99.4088  99.4814  99.5162  99.6214
    99.6360  99.8971 100.3033 100.4019 100.7743 100.7969 100.9339 100.9381
   101.0101 101.2057 101.4268 101.6930 101.9031 101.9776 101.9780 102.0954
   102.2180 102.2883 102.3480 102.4381 102.5640 102.5688 103.0809 103.2629
   103.3395 103.4498 103.5611 103.8059 103.8542 103.9395 103.9865 104.1706
   104.3009 104.3537 104.4137 104.4337 104.6157 104.6632 104.9832 105.0341
   105.1212 105.1775 105.2493 105.4904 105.5266 105.5804 105.8010 105.8512
   106.0212 106.1548 106.5379 106.6673 106.8411 106.8485 106.9615 107.0028
   107.0177 107.1791 107.1986 107.3587 107.3914 107.3990 107.4699 107.7505
   107.7718 107.8104 107.8400 107.9150 108.0894 108.1707 108.1946 108.2813
   108.3275 108.4018 108.5805 108.7295 108.7969 108.8825 108.8852 108.9148
   109.2170 109.2563 109.2788 109.3179 109.3914 109.5736 109.7383 109.8313
   110.0344 110.1488 110.1627 110.4169 110.5315 110.6899 110.7200 110.7324
   110.8381 111.0651 111.1379 111.2308 111.2490 111.4705 111.4863 111.5754
   111.6932 111.8196 111.8538 112.1518 112.2639 112.4199 112.4279 112.4739
   112.5701 112.7075 112.8133 113.3867 113.4946 113.5817 113.6066 113.7088
   113.7689 113.8137 113.8610 113.9816 114.0742 114.1034 114.4157 114.5233
   114.5759 114.6340 114.6817 115.1335 115.1653 115.2568 115.4799 115.6256
   115.6531 115.6808 115.7024 115.7531 116.0306 116.0917 116.1016 116.3918
   116.4270 116.6384 116.7680 116.7997 116.8168 116.8637 116.9515 117.1222
   117.2848 117.3013 117.4427 117.4512 117.5321 117.5960 117.8462 118.0866
   118.2779 118.7513 119.0212 119.2126 119.3650 119.4245 119.5612 119.6930
   120.0174 120.0794 120.2388 120.4228 120.8349 120.8639 121.1041 121.2490
   121.3106 121.3136 121.3372 121.4501 121.5125 121.5369 121.9897 122.2293
   122.4266 122.6411 122.8165 122.9427 123.2948 123.3415 123.3867 123.6639
   123.7999 123.9286 124.0677 124.1621 124.2817 124.3943 124.6251 124.7489
   124.9219 125.1396 125.1773 125.2949 125.5264 125.5353 125.7538 125.7586
   125.8245 125.9160 126.0249 126.0822 126.2632 126.3222 126.3789 126.5297
   126.5958 126.6993 126.7049 126.8101 126.8729 126.9564 126.9616 127.1113
   127.3176 127.4368 127.5174 127.7733 127.8440 127.8734 127.9222 128.0133
   128.2312 128.3714 128.5463 128.5878 128.7411 128.7414 128.7685 129.1164
   129.3727 129.3881 129.5033 129.6508 129.8914 130.2558 130.3133 130.4541
   130.6944 130.7490 131.0196 131.0339 131.0408 131.2766 131.2909 131.5093
   131.7154 131.8542 132.1639 132.4633 132.4701 132.4804 132.6363 132.7287
   132.8652 132.8707 133.0418 133.2029 133.3629 133.4807 133.5420 133.6736
   133.7039 133.8023 133.8721 134.1204 134.3157 134.3365 134.4324 134.5284
   134.5658 134.7339 134.8082 134.9593 135.0227 135.1236 135.3100 135.3178
   135.5376 135.6067 135.8296 135.9218 136.0313 136.1850 136.3041 136.4348
   136.4422 136.4533 136.6391 136.6599 136.7353 136.7522 136.8496 136.9815
   137.2382 137.5481 137.5646 137.6273 137.6975 137.7137 137.8514 137.9755
   138.2330 138.2946 138.4435 138.4634 138.6652 138.7276 138.7522 138.9350
   139.1683 139.2475 139.4028 139.4374 139.5810 139.7087 139.7818 139.7893
   139.9778 140.0022 140.1735 140.2066 140.4657 140.5190 140.6263 140.6729
   140.8687 140.9493 140.9866 141.1182 141.2998 141.3404 141.6910 142.1098
   142.2940 142.3701 142.4292 142.6191 142.6379 142.8371 142.9181 143.0304
   143.1177 143.3151 143.3679 143.5828 143.7614 143.7631 143.9064 144.0776
   144.2895 144.2982 144.4155 144.4200 144.7208 144.7981 145.0410 145.1126
   145.1405 145.1464 145.1918 145.4473 145.6099 145.6276 145.7649 145.8270
   145.9214 145.9647 146.3464 146.3579 146.5003 146.5937 146.7487 146.7646
   146.8048 146.8998 147.0034 147.2453 147.3474 147.3609 147.4762 147.5684
   148.2424 148.5644 148.7429 148.8311 149.0543 149.1014 149.1234 149.4410
   149.4827 149.6009 149.6070 149.7170 149.7713 149.8112 149.8826 149.9735
   150.2003 150.5635 150.6966 151.0854 151.2082 151.3263 151.3966 151.6657
   151.6893 151.7956 151.8957 151.9370 152.1104 152.1621 152.3589 152.3733
   152.8924 152.9823 153.0798 153.0982 153.2860 153.3246 153.7689 153.9738
   154.1025 154.4120 154.5525 154.6998 154.7225 154.7836 154.8329 155.0419
   155.1028 155.1160 155.1753 155.3201 155.4591 155.5892 155.8006 155.8150
   155.8661 155.9348 155.9961 155.9990 156.1086 156.1968 156.6663 156.7048
   156.8091 156.8917 156.9143 156.9747 157.0226 157.0580 157.1204 157.1951
   157.2221 157.3120 157.3737 157.4632 157.4941 157.5358 157.5940 157.6540
   157.6734 157.8137 157.8306 157.8489 158.0669 158.2614 158.3655 158.3745
   158.4369 158.4827 158.6145 158.6149 158.6546 158.6970 159.1266 159.1734
   159.4177 159.5810 159.6931 159.7601 159.7743 159.9886 160.1751 160.2126
   160.3766 160.3896 160.5083 160.6529 160.6858 160.7403 161.0766 161.1592
   161.1665 161.1756 161.3389 161.4719 161.5802 161.7627 161.9385 161.9637
   162.1838 162.2253 162.4122 162.7172 162.7573 162.8879 162.9367 162.9597
   163.2817 163.3402 163.3766 163.4375 163.4602 163.5293 163.5520 163.6232
   163.7685 164.0648 164.1098 164.2157 164.6110 164.8746 164.8846 165.0199
   165.0678 165.1009 165.2517 165.2977 165.3686 165.3882 165.5206 165.6497
   165.7084 165.8061 165.8401 165.9428 165.9624 166.1405 166.2840 166.3100
   166.3449 166.5011 166.6287 166.7684 166.8326 166.8523 166.9184 167.0221
   167.2539 167.3026 167.8198 167.8260 168.0903 168.2152 168.3990 168.5897
   168.6015 168.6540 169.0596 169.0619 169.0741 169.1556 169.1847 169.1980
   169.4874 169.5032 169.7770 170.0354 170.0432 170.1843 170.2778 170.4177
   170.6612 170.6885 170.8796 171.0054 171.5110 171.5200 171.6862 171.7981
   171.8581 171.8600 172.1110 172.2314 172.3169 172.5703 172.6823 172.8911
   173.0087 173.1397 173.4816 173.6154 173.7199 173.7805 173.8922 173.9764
   174.1640 174.3550 174.3966 174.4219 174.4767 174.5753 174.7509 174.7805
   174.8640 175.0992 175.1685 175.1898 175.2334 175.2703 175.2937 175.3270
   175.5334 175.6851 175.7033 175.7545 175.7800 175.7934 175.7950 176.1438
   176.2453 176.5910 176.9176 177.1197 177.2447 177.4822 177.7044 177.8171
   177.9925 178.0586 178.1307 178.2831 178.5360 178.6361 178.7871 178.9261
   179.0563 179.1242 179.2389 179.3552 179.5345 179.6568 179.8001 179.8302
   179.8388 180.0879 180.2541 180.3837 180.4393 180.5456 180.6239 180.8270
   180.9009 180.9223 181.0705 181.1317 181.2726 181.3095 181.5177 181.6413
   182.0740 182.1585 182.3752 182.4310 182.4764 182.6959 182.7479 182.9728
   182.9872 183.1211 183.3619 183.4282 183.5657 183.5833 183.6540 183.7070
   183.7450 183.8255 184.1867 184.2718 184.3290 184.4477 184.6979 184.8435
   184.9129 184.9339 185.0561 185.3012 185.3744 185.5443 185.5978 185.6667
   185.7054 185.9560 186.0601 186.2390 186.2629 186.3090 186.3576 186.4890
   186.5049 186.8178 186.9003 186.9307 186.9567 186.9768 187.0750 187.1274
   187.1515 187.3132 187.3184 187.3692 187.4999 187.6051 187.6340 187.6765

          k = 0.1667 0.2887 0.0000 (  7015 PWs)   bands (ev):

   -62.5185 -36.6978 -36.6367 -36.5546 -14.6981 -14.0146  -6.5748  -5.4785
    -5.3214  -4.8351  -3.6304  -2.7066  -2.4486   0.2762   0.8029   1.0110
     2.4952   5.3398   5.4743   6.1408   6.7856   7.2508   7.5009   8.0193
     8.3919   8.6816   9.3735  10.0037  10.0976  10.5370  10.7665  11.7460
    11.8746  13.2688  13.2762  14.4166  14.7230  15.4168  15.4934  15.5660
    15.6861  16.0978  16.1671  16.2159  16.8924  17.0396  17.0537  17.5386
    17.7466  18.6033  18.7105  19.0419  19.2817  19.6459  19.9458  20.6387
    20.8225  20.9465  21.6299  22.0100  22.0889  22.7864  22.8370  23.2710
    23.5142  23.6433  24.0547  24.7517  25.0161  25.1025  25.2924  25.4606
    25.6430  25.7852  26.0205  26.2721  26.4122  26.5581  26.8191  26.9866
    27.3503  27.4651  27.6691  27.9185  28.1138  28.3584  28.7697  28.8783
    29.0659  29.3336  29.7911  29.7930  30.4537  30.5686  30.8639  31.2732
    31.4193  31.8770  32.0639  32.5083  32.8489  32.9965  33.2301  33.5242
    33.6258  33.9544  34.3915  34.4690  34.5010  34.9833  35.0695  35.3987
    35.5155  35.7066  35.8759  35.9479  35.9830  36.1880  36.3822  36.5454
    36.9070  36.9577  37.2697  37.5401  37.8637  37.9491  38.2382  38.3583
    38.6044  38.9263  38.9587  39.4482  39.5727  39.7911  39.9842  40.3617
    40.4513  40.6497  40.9605  41.2227  41.5318  41.7354  41.9277  42.2058
    42.6593  43.0275  43.1087  43.4463  43.4975  43.8650  43.9819  44.6079
    44.7536  44.8966  44.9392  45.1666  45.2157  45.4592  45.7749  45.8719
    45.9441  46.0897  46.3585  46.6560  46.8342  46.9497  47.4051  47.5090
    47.6101  47.9148  48.0032  48.3501  48.6327  48.8590  48.8852  49.1561
    49.2286  49.7074  49.9881  50.0474  50.5904  50.8178  50.9084  51.1844
    51.3304  51.5304  51.7574  51.9657  52.0161  52.5346  52.6945  53.0344
    53.2699  53.7241  53.8786  54.0217  54.1207  54.3792  54.4493  54.8884
    54.9626  55.0338  55.1687  55.2246  55.3579  55.6727  55.6931  56.0191
    56.0242  56.1975  56.2378  56.3125  56.8389  56.9894  57.2093  57.2627
    57.5088  57.6668  57.8012  57.9428  58.6003  58.8152  58.8738  58.9771
    59.0299  59.3303  59.5755  59.9441  59.9493  60.0516  60.1653  60.1687
    60.7653  60.8810  61.0305  61.3671  61.4758  61.8781  61.9554  62.2108
    62.2854  62.4360  62.9651  63.1217  63.2126  63.4121  63.5148  63.8992
    64.0026  64.2102  64.4466  64.4580  64.6360  64.8587  64.9958  65.1315
    65.1322  65.3126  65.3160  65.5583  65.6134  65.7882  65.7888  66.0405
    66.1204  66.3969  66.4593  66.6859  66.7120  66.9729  67.1950  67.3554
    67.5361  67.5970  67.9508  68.1512  68.1715  68.3673  68.4327  68.8636
    68.9866  69.0134  69.1429  69.5949  69.8066  69.8732  70.0190  70.0834
    70.3001  70.3679  70.4189  70.8616  71.0136  71.1307  71.5183  71.8539
    71.9383  72.0602  72.2605  72.5743  72.6498  72.9542  73.0714  73.3226
    73.3600  73.5805  73.8451  73.9780  74.0507  74.0978  74.2928  74.5386
    74.5866  74.8921  74.9240  75.0216  75.0444  75.1891  75.2561  75.3303
    75.3643  75.5757  75.8473  75.9059  75.9913  76.1903  76.3416  76.4620
    76.7453  76.7716  76.8741  77.3446  77.3828  77.4428  77.7502  77.9603
    78.0338  78.0981  78.4231  78.5570  78.6673  78.7561  78.9058  79.0859
    79.3357  79.4677  79.6344  79.8882  79.9480  80.2815  80.4882  80.5469
    80.6590  80.7581  80.8769  81.0766  81.3319  81.4465  81.6511  81.7007
    81.8753  82.1460  82.3015  82.4617  82.5489  82.6060  82.7066  83.1043
    83.2982  83.3631  83.5491  83.5706  83.8894  83.9816  84.1750  84.3249
    84.3263  84.5121  84.5319  84.6518  84.8503  84.8899  84.9720  85.0229
    85.0799  85.1776  85.2749  85.4253  85.5535  85.5689  85.6161  85.8113
    85.8511  85.9673  86.1647  86.2592  86.3495  86.6459  86.7239  86.7986
    87.0185  87.2170  87.3164  87.3354  87.5490  87.6445  87.7974  87.8111
    87.9735  88.1261  88.3616  88.4729  88.5112  88.8378  88.9329  89.0763
    89.1772  89.4914  89.5027  89.6414  89.7630  90.0602  90.3677  90.3991
    90.5063  90.8238  90.9094  90.9865  91.0386  91.1208  91.2726  91.3509
    91.5050  91.5559  91.7037  91.8013  92.1332  92.1494  92.6294  92.6861
    92.8014  92.9201  93.0184  93.3290  93.4446  93.4478  93.6146  93.7564
    93.9949  94.1576  94.1607  94.1906  94.3864  94.4709  94.7878  94.9834
    95.2620  95.2757  95.5824  95.6839  95.8039  96.0707  96.3972  96.4270
    96.5718  96.9972  97.1361  97.1441  97.4497  97.6867  97.6998  97.8094
    98.0116  98.0400  98.4207  98.7455  98.7665  98.9762  98.9966  99.2744
    99.3456  99.7793  99.8649  99.9488 100.1352 100.2436 100.5111 100.5481
   100.6752 101.0631 101.0813 101.1812 101.3152 101.5241 101.7688 102.0286
   102.2564 102.3479 102.3656 102.4656 102.5030 102.8185 103.0095 103.0445
   103.0999 103.1796 103.3972 103.4091 103.5899 103.7043 103.7412 103.8011
   104.1265 104.3629 104.3636 104.6099 104.7418 104.7509 104.8546 104.8590
   105.2430 105.2565 105.3927 105.6278 105.6310 105.9511 105.9700 106.2419
   106.3266 106.4944 106.7902 107.0956 107.2006 107.3679 107.4323 107.6180
   107.7226 107.7515 107.8268 108.0222 108.0918 108.2925 108.4365 108.5980
   108.7960 108.9610 109.0957 109.4353 109.6334 109.7011 109.9837 109.9945
   110.0360 110.2871 110.3829 110.5415 110.5816 110.6536 110.7373 110.8788
   110.9815 111.0244 111.1010 111.1880 111.4287 111.6789 111.7935 111.9903
   112.0302 112.2671 112.3192 112.4657 112.5779 112.8547 112.9560 112.9951
   113.2155 113.2641 113.3372 113.5441 113.5627 113.5973 113.7894 113.8263
   113.9279 114.0486 114.2129 114.4117 114.4408 114.4575 114.7134 114.7636
   114.8786 115.0047 115.1961 115.2558 115.6219 115.7669 115.8552 116.0292
   116.0500 116.0653 116.3269 116.5566 116.5999 116.9033 116.9516 117.2179
   117.4306 117.4666 117.6323 117.7313 117.8159 117.8839 118.1847 118.2289
   118.2982 118.3227 118.4828 118.5841 118.9222 119.0353 119.3212 119.4879
   119.8128 119.8740 120.0127 120.1015 120.2798 120.3421 120.3781 120.5192
   120.7853 120.9290 120.9471 121.0537 121.1580 121.1890 121.3190 121.4512
   121.5635 121.6775 121.9905 122.0674 122.1589 122.1637 122.2926 122.4224
   122.4736 122.4877 122.8249 122.8251 122.9452 123.1618 123.2049 123.3953
   123.5827 123.6622 123.6928 123.7973 123.9787 124.0752 124.1483 124.3635
   124.3878 124.5148 124.5252 124.7312 124.7913 124.8737 125.0917 125.1037
   125.1992 125.2582 125.3975 125.6243 125.8709 125.8913 125.9456 126.1343
   126.3441 126.5156 126.6901 126.8573 126.8630 127.1659 127.2072 127.2267
   127.3537 127.5116 127.5490 127.6794 127.7654 128.0265 128.0360 128.2412
   128.2994 128.4192 128.4841 128.9799 128.9995 129.1173 129.5496 129.6931
   129.7859 129.9032 129.9488 130.1645 130.2083 130.3069 130.3940 130.6310
   130.7954 130.8925 130.9606 130.9870 131.1733 131.2057 131.2903 131.4328
   131.6813 131.8561 131.9541 132.0518 132.2321 132.3691 132.3756 132.4412
   132.6676 132.7856 132.8745 133.0278 133.0415 133.0794 133.1653 133.3252
   133.3542 133.4395 133.4719 133.5201 133.7131 133.7657 133.8220 133.9219
   134.1103 134.1408 134.3598 134.4847 134.5145 134.5859 134.6885 134.8218
   134.8302 134.9544 135.2549 135.3590 135.4454 135.6460 135.6725 135.7201
   135.8860 136.2620 136.3303 136.3481 136.4517 136.6019 136.8557 136.9450
   137.2289 137.2955 137.3202 137.5580 137.5607 137.6995 137.7870 137.9967
   138.1537 138.5095 138.5277 138.5774 138.6664 138.7972 139.0728 139.0997
   139.2116 139.3819 139.5822 139.6296 139.7186 139.7932 139.9055 139.9674
   140.1328 140.3026 140.5274 140.6484 140.6982 140.7045 141.1944 141.2806
   141.4271 141.4612 141.4859 141.5807 141.6496 141.8575 141.9567 141.9774
   142.2406 142.3065 142.3761 142.5288 142.5755 142.7758 142.8148 142.8333
   142.8427 142.9879 143.0835 143.1272 143.3633 143.5039 143.7193 143.8001
   143.8755 144.0186 144.1598 144.1877 144.5562 144.7762 145.1244 145.1743
   145.2103 145.3154 145.5708 145.8436 145.9838 146.0967 146.1998 146.4517
   146.5379 146.6060 146.6688 146.9351 146.9559 147.0306 147.3001 147.4754
   147.5414 147.7973 147.8340 148.0322 148.1199 148.1740 148.3118 148.4236
   148.5665 148.8001 148.9976 149.3021 149.3126 149.3723 149.5605 149.6719
   149.7047 149.9715 149.9805 150.4842 150.5118 150.7413 150.7761 150.8524
   151.0128 151.0977 151.2767 151.3764 151.4675 151.5685 151.7255 151.7398
   151.8799 151.8949 151.9348 152.1527 152.3049 152.3701 152.5408 152.6398
   152.7626 153.0083 153.0146 153.1757 153.2251 153.3748 153.4203 153.5580
   153.6515 153.7295 153.8029 153.8984 154.0447 154.1073 154.1207 154.1414
   154.1815 154.2517 154.3318 154.3415 154.3845 154.8013 154.8286 154.8553
   154.8946 154.9182 154.9888 155.0378 155.1259 155.4360 155.4990 155.5021
   155.5693 155.7520 155.9100 156.0114 156.1131 156.2553 156.3768 156.4516
   156.5522 156.6607 156.6680 156.7296 156.8201 156.9218 157.1668 157.1810
   157.2267 157.3467 157.4157 157.4178 157.6153 157.7790 157.9131 157.9830
   158.0992 158.1825 158.2379 158.3157 158.3837 158.4269 158.6753 158.8347
   159.2122 159.2218 159.3597 159.4128 159.4580 159.6045 159.6948 159.7257
   159.7716 159.9228 159.9916 160.0969 160.2046 160.3507 160.4724 160.5824
   160.7914 160.9538 161.0519 161.0942 161.1765 161.2308 161.2813 161.4243
   161.4690 161.7212 161.7301 161.9553 162.0495 162.0590 162.1574 162.2063
   162.2199 162.4355 162.4930 162.5681 162.7318 162.7804 162.9152 162.9713
   163.0509 163.1158 163.1787 163.3568 163.4507 163.5524 163.8243 163.9676
   164.0541 164.0608 164.0732 164.1224 164.3456 164.3903 164.4036 164.6160
   164.7181 164.7203 164.9650 165.0358 165.0372 165.0739 165.1630 165.4589
   165.5906 165.6868 165.7506 165.9195 165.9301 166.0346 166.0515 166.2818
   166.4152 166.4690 166.5944 166.7878 166.9364 166.9514 167.0189 167.1281
   167.1887 167.2691 167.3795 167.4471 167.6209 167.6347 167.7803 167.7961
   167.9739 168.4347 168.4634 168.5134 168.6772 168.9442 169.0099 169.0352
   169.0794 169.2638 169.3519 169.4977 169.5482 169.5598 169.8063 169.8275
   169.9643 170.0555 170.0778 170.3186 170.5860 170.6426 170.7225 170.7886
   170.9095 170.9323 171.0186 171.1906 171.2344 171.2880 171.4500 171.4710
   171.5190 171.5640 171.6637 171.7869 171.8643 171.9968 172.0791 172.1799
   172.3903 172.4127 172.5108 172.7572 172.8308 172.9164 172.9786 173.1247
   173.2370 173.2395 173.2679 173.2983 173.4180 173.6632 173.7547 173.8176
   173.9108 173.9463 173.9646 174.0647 174.2096 174.2522 174.3480 174.4722
   174.7419 174.9183 174.9322 175.0191 175.1499 175.2502 175.2710 175.4705
   175.5080 175.5925 175.8817 175.9660 176.0852 176.2531 176.2654 176.3452
   176.3713 176.4948 176.6184 176.7983 176.8011 176.8533 176.9698 177.0487
   177.1037 177.2960 177.3713 177.5530 177.5642 177.8293 178.0025 178.1627
   178.2368 178.4110 178.5598 178.7212 178.8138 178.9223 179.1649 179.2667
   179.3344 179.4259 179.5177 179.5431 179.7224 179.9149 179.9474 180.0337
   180.2139 180.3216 180.4726 180.4967 180.6494 180.6957 180.7337 180.8687
   180.9623 181.1040 181.2952 181.3249 181.4965 181.5966 181.5985 181.7150
   181.8802 181.8904 181.9591 182.0734 182.0773 182.1775 182.2143 182.2863
   182.3192 182.5705 182.5934 182.7531 182.8550 182.9094 182.9415 183.0062
   183.0505 183.0875 183.2187 183.2707 183.3443 183.3720 183.6720 183.7044
   183.8113 183.8500 183.9129 184.1001 184.1973 184.3239 184.3991 184.5280

          k = 0.1667 0.4811 0.0000 (  6978 PWs)   bands (ev):

   -62.5047 -36.8043 -36.6161 -36.6088 -13.9141 -13.6924  -6.9539  -6.5342
    -5.4827  -4.8581  -4.0149  -3.3683  -2.1627   0.5377   1.1074   1.6892
     2.7535   5.3951   6.9707   7.0083   7.8802   7.9740   8.2944   8.6636
     8.8981   9.4671   9.5197  10.5079  10.6287  11.1897  11.6027  11.6075
    11.9449  12.2941  12.6416  13.0701  13.1068  13.6684  13.7060  14.2126
    14.7858  14.9228  15.0704  15.4154  15.9067  15.9868  16.3681  16.4053
    17.1443  17.5950  18.1217  18.1677  18.6168  18.6518  19.3667  19.6805
    20.0814  20.6557  20.7767  20.9320  21.3949  21.7972  22.2657  22.8108
    22.9491  23.6033  23.8639  24.4284  24.4522  24.6694  24.9752  25.0558
    25.4490  25.6922  25.6994  26.2359  26.3732  26.5747  27.2299  27.2968
    27.7275  28.0237  28.2375  28.7285  29.1372  29.2282  29.6324  30.0716
    30.4664  30.4917  31.0144  31.0186  31.3419  31.5689  31.6004  31.7627
    32.2123  32.5333  32.6259  32.8786  33.4158  33.7234  33.8659  34.1914
    34.2135  34.5299  34.9007  35.4328  35.4618  36.0199  36.1010  36.7339
    36.7765  36.8990  37.0652  37.1217  37.4860  37.7706  37.8594  38.1261
    38.2276  38.6581  38.7620  39.1086  39.2283  39.6745  39.9678  39.9692
    40.2887  40.4509  40.6204  40.7767  41.1427  41.1827  41.3858  41.5603
    41.6088  41.8557  42.1892  42.2014  42.4421  42.5056  42.5860  43.0865
    43.4661  43.5501  43.5856  43.7931  43.9439  44.1733  44.3987  44.6481
    44.8145  45.0832  45.1424  45.3988  45.4650  46.0300  46.0313  46.1390
    46.1610  46.5173  46.6552  46.9108  46.9168  47.3680  47.4441  47.6129
    47.7062  47.8714  47.9117  48.0179  48.4297  48.5070  48.6589  48.7325
    49.2554  49.3695  49.4946  49.6026  49.9556  50.0751  50.1858  50.3374
    50.6768  50.7153  51.0839  51.3088  51.6813  51.8048  51.8474  52.1357
    52.1986  52.5051  52.7831  53.0542  53.2620  53.4640  53.4978  53.5440
    54.0110  54.0325  54.2485  54.5074  54.6005  54.7339  54.7446  55.1190
    55.3360  55.5434  55.6106  55.8565  56.1406  56.2942  56.3163  56.6606
    56.7122  56.9868  57.1207  57.1951  57.3101  57.5538  57.8434  57.8899
    58.1597  58.1849  58.3284  58.5504  58.6238  58.7685  58.9465  59.0471
    59.2477  59.4172  59.6620  59.7459  60.0011  60.0843  60.3031  60.4266
    60.5673  60.7060  60.8093  60.9954  61.1395  61.3728  61.4082  61.7199
    61.7228  62.0030  62.2082  62.3117  62.3974  62.7609  62.8274  62.9808
    62.9999  63.3515  63.6761  63.7077  63.9072  63.9767  64.0629  64.4039
    64.4459  64.7417  64.9226  65.1845  65.3188  65.3814  65.6149  65.8487
    66.1049  66.3444  66.4521  66.6298  66.8911  67.0681  67.2094  67.2777
    67.3955  67.7251  68.0564  68.2552  68.5043  68.7402  69.0489  69.0868
    69.1392  69.5741  69.7059  69.8631  70.1261  70.3207  70.4514  70.5719
    71.1645  71.2023  71.3054  71.6366  71.9101  72.0641  72.1374  72.5758
    72.7266  72.9066  73.0578  73.1032  73.3646  73.5849  73.9736  74.0221
    74.2701  74.5296  74.6049  74.8308  75.1400  75.1897  75.4736  75.5249
    75.9300  75.9513  76.4473  76.4791  76.7398  76.8903  77.1083  77.1786
    77.2110  77.4548  77.4910  77.8148  78.0275  78.2817  78.3825  78.4687
    78.5215  78.8218  78.8805  79.2325  79.3697  79.6116  79.6766  79.9108
    79.9497  80.4655  80.5255  80.6104  80.6709  80.8447  80.9215  80.9725
    81.1728  81.1740  81.4251  81.6638  81.7830  81.7857  81.9705  82.0515
    82.1885  82.4271  82.5194  82.6589  82.7295  83.0269  83.2251  83.3683
    83.4499  83.5883  83.9245  84.0145  84.3551  84.5226  85.0252  85.0261
    85.3437  85.4669  85.5982  85.6472  85.7849  85.9346  86.1932  86.4491
    86.6341  86.8714  87.0111  87.0655  87.2328  87.2416  87.3702  87.4969
    87.6410  87.9172  88.0437  88.0571  88.2257  88.3185  88.5576  88.6869
    88.8666  88.9384  89.0313  89.4438  89.5265  89.8076  89.8905  90.0723
    90.1702  90.2687  90.4267  90.6721  90.7719  90.9654  91.0972  91.2398
    91.3936  91.6255  91.7287  92.0882  92.1560  92.2179  92.4026  92.4866
    92.7926  92.8698  92.9845  93.2673  93.5107  93.5540  93.6895  93.8121
    93.8787  94.0723  94.3184  94.3852  94.5659  94.6122  94.8261  94.9359
    95.1047  95.2955  95.4065  95.6170  95.7376  95.7959  96.0058  96.0342
    96.2383  96.5612  96.6026  96.7642  96.8964  96.9980  97.1207  97.1830
    97.2289  97.4092  97.4383  97.7068  97.8429  97.9158  98.1425  98.2382
    98.3835  98.4835  98.6094  98.7477  98.7572  98.9733  99.1649  99.3648
    99.3903  99.5661  99.6504  99.7146  99.8716 100.1022 100.1438 100.2204
   100.3785 100.4946 100.7271 100.7301 100.8240 100.9615 101.0944 101.1085
   101.4170 101.5228 101.5300 101.7424 101.9467 102.0266 102.3116 102.3209
   102.5154 102.6111 102.7596 102.8815 102.9662 103.0174 103.2027 103.2562
   103.5368 103.5551 103.6756 103.7051 103.8699 104.0811 104.2233 104.3057
   104.4608 104.5932 104.6269 104.7354 104.8174 105.0807 105.3156 105.5652
   105.5970 105.6568 105.7498 105.8783 105.9868 106.1654 106.2031 106.4757
   106.5370 106.6982 106.8159 106.8646 106.9631 106.9817 107.2513 107.2699
   107.4065 107.4672 107.7233 108.0536 108.0803 108.3623 108.4568 108.8188
   108.8991 108.9613 109.0201 109.3990 109.5047 109.7613 109.8409 109.8461
   109.9592 110.0947 110.0962 110.2289 110.2996 110.3470 110.5245 110.5925
   110.7615 110.7978 111.1269 111.1330 111.2045 111.3721 111.4793 111.5692
   111.6335 111.9018 112.0032 112.0997 112.3252 112.4183 112.5308 112.5852
   112.8811 112.8961 113.1050 113.1495 113.3848 113.4367 113.5510 113.6385
   113.6608 113.7676 113.8031 114.0007 114.2089 114.2366 114.4333 114.5308
   114.6433 114.7045 114.9347 114.9630 115.2930 115.3831 115.5522 115.6109
   115.7515 115.9225 115.9521 116.1908 116.2637 116.4392 116.5089 116.6079
   116.6973 116.7496 116.8022 117.0723 117.1167 117.3839 117.6815 117.6967
   117.8822 118.0463 118.1212 118.2264 118.4133 118.4820 118.6454 118.8426
   118.9897 119.0604 119.1054 119.3513 119.4003 119.4911 119.7287 119.7854
   119.8270 119.8831 119.9673 120.1038 120.2183 120.3537 120.4768 120.5703
   120.6371 120.7756 120.9269 121.0324 121.1978 121.4945 121.6157 121.7122
   121.8979 121.9696 122.0905 122.1201 122.2783 122.2983 122.6083 122.6463
   122.7260 122.7950 122.8458 122.8896 122.9892 123.1054 123.2649 123.2977
   123.4032 123.4727 123.4827 123.5279 123.6170 123.7260 123.8714 123.9355
   124.0785 124.2961 124.2984 124.4683 124.4843 124.5901 124.7300 124.9627
   125.1182 125.2938 125.3764 125.5338 125.5902 125.6787 125.9136 125.9395
   126.1462 126.2493 126.3567 126.4493 126.4501 126.5419 126.8242 126.9077
   126.9532 126.9954 127.0660 127.3208 127.3351 127.7295 127.7867 127.7868
   128.0074 128.1091 128.1908 128.2879 128.4494 128.6254 128.7242 128.9014
   129.0071 129.0451 129.2725 129.2839 129.4800 129.5616 129.5937 129.8020
   129.8694 130.0337 130.0991 130.2644 130.4627 130.6104 130.7457 130.9504
   131.0284 131.3242 131.3512 131.5174 131.5451 131.8757 131.9097 132.0189
   132.1513 132.2855 132.4275 132.4354 132.6107 132.6626 132.8932 133.0474
   133.0618 133.1615 133.3493 133.4348 133.6198 133.6982 134.0076 134.1258
   134.1661 134.5829 134.7480 134.8272 135.1140 135.1446 135.2270 135.4812
   135.5626 135.6396 135.8446 135.9878 136.0702 136.2850 136.3217 136.4700
   136.5265 136.5673 136.6850 136.7846 136.8959 136.9775 137.0637 137.1555
   137.1827 137.3342 137.4945 137.5141 137.8243 137.8705 138.0650 138.1204
   138.1640 138.2860 138.4249 138.7175 138.7255 139.0149 139.0233 139.2000
   139.2437 139.4378 139.6579 139.6874 139.8891 139.9556 140.0066 140.1788
   140.2061 140.4429 140.4830 140.7237 140.7825 140.8634 140.9474 141.1038
   141.2179 141.2249 141.4441 141.4918 141.5733 141.7252 141.8015 141.9406
   142.1611 142.2497 142.2665 142.3959 142.4900 142.6723 142.7417 142.8537
   143.0131 143.1777 143.1806 143.3768 143.5064 143.6828 143.7243 143.8946
   144.0333 144.1544 144.1803 144.4259 144.5160 144.8138 144.8976 144.9184
   145.0486 145.2099 145.2856 145.3670 145.4108 145.5488 145.6238 145.8857
   145.9420 146.1122 146.1507 146.4262 146.5662 146.6038 146.6652 146.7894
   146.8099 146.8488 147.0581 147.0818 147.3802 147.5121 147.6892 147.7016
   147.8289 147.9075 148.0692 148.0732 148.1936 148.2098 148.5400 148.6102
   148.9158 149.0220 149.1045 149.1891 149.4228 149.4419 149.5928 149.6642
   149.9170 150.0757 150.1610 150.2642 150.3553 150.4993 150.6536 150.6557
   150.8333 151.0054 151.0140 151.4307 151.4959 151.6052 151.8397 151.9186
   152.0695 152.1892 152.2729 152.4603 152.4801 152.6593 152.6777 152.8196
   152.8535 152.9535 152.9879 153.0640 153.1479 153.2411 153.4798 153.5207
   153.5220 153.6295 153.7999 153.9501 154.0923 154.1001 154.2540 154.3256
   154.5131 154.6069 154.6129 154.8292 155.0472 155.1156 155.1357 155.3756
   155.5609 155.5807 155.7128 155.8801 156.0433 156.1329 156.2650 156.3402
   156.4341 156.5485 156.6063 156.7458 157.0381 157.1478 157.1961 157.4655
   157.5414 157.8320 158.0030 158.0857 158.1224 158.2407 158.2632 158.4853
   158.4978 158.7094 158.8163 158.9326 158.9728 159.0288 159.2819 159.3294
   159.7517 159.7726 159.8267 160.0925 160.2417 160.4470 160.5838 160.6178
   160.7074 160.9276 161.0069 161.3304 161.5357 161.6944 161.7442 161.8204
   161.9144 162.0026 162.0939 162.1327 162.3820 162.5329 162.6511 162.7787
   162.8575 162.9156 163.0909 163.3867 163.4117 163.5991 163.7294 163.7841
   163.8600 163.9938 164.3646 164.3839 164.4579 164.6370 164.8143 164.8564
   165.0396 165.0580 165.3482 165.4345 165.5980 165.6902 165.7831 165.8722
   166.0880 166.2716 166.2721 166.4002 166.6381 166.7852 166.8562 167.1258
   167.1260 167.1578 167.4311 167.5323 167.8409 167.8452 168.0034 168.0594
   168.1706 168.3258 168.3922 168.5344 168.5489 168.6653 168.7363 169.1524
   169.2016 169.3131 169.4351 169.4730 169.5507 169.6486 169.7118 169.8318
   169.8972 170.0805 170.1210 170.2743 170.3481 170.4248 170.4482 170.5380
   170.7001 170.7121 170.8852 170.9741 171.0764 171.1311 171.3168 171.4569
   171.4966 171.6292 171.6663 171.8385 171.9597 171.9703 172.1860 172.4078
   172.4160 172.5214 172.6046 172.7118 172.7768 172.9558 172.9870 173.3140
   173.3794 173.5295 173.6477 173.9185 173.9993 174.0451 174.1360 174.2673
   174.4067 174.4214 174.5833 174.7568 174.7925 174.8770 174.8827 175.0173
   175.0785 175.3122 175.3625 175.4902 175.5535 175.6486 175.7021 175.9427
   176.1210 176.1494 176.2180 176.3155 176.4225 176.4981 176.8289 176.8435
   176.9722 177.0043 177.0845 177.2017 177.3648 177.4977 177.6594 177.6618
   177.8952 177.9980 178.2520 178.2647 178.4110 178.4241 178.5684 178.6845
   178.8185 178.8304 179.0022 179.0690 179.1717 179.1764 179.4616 179.4784
   179.5957 179.6614 179.9394 180.0844 180.1616 180.3154 180.4177 180.5599
   180.6810 180.7865 180.8338 180.9208 181.0332 181.1246 181.2580 181.3968
   181.5120 181.6279 181.6340 181.6958 181.7627 181.8829 181.9415 182.0470
   182.1495 182.2107 182.3522 182.3657 182.5146 182.6849 182.7823 182.8316
   182.8435 183.0182 183.1555 183.3470 183.3601 183.5607 183.6973 183.8812
   183.9914 184.0118 184.1227 184.2127 184.4679 184.5753 184.5850 184.7073
   184.7607 184.7987 185.1085 185.1870 185.2001 185.2992 185.4221 185.4748
   185.6238 185.6530 185.7140 185.9417 185.9571 186.0354 186.1402 186.2725
   186.4186 186.4597 186.5303 186.7326 186.8231 186.9577 187.0711 187.2560

          k = 0.3333 0.5774 0.0000 (  7002 PWs)   bands (ev):

   -62.5000 -36.7600 -36.7176 -36.5995 -13.6308 -13.5517  -7.0516  -6.2341
    -5.7151  -5.2132  -4.5278  -3.8110  -1.6870  -0.0056   1.4170   1.8549
     3.1696   5.6027   6.0047   7.9969   8.8145   9.4744   9.9953  10.0774
    10.0814  10.3859  10.8473  10.9655  10.9817  11.0197  11.3482  11.4867
    11.5018  11.6102  11.7141  11.7160  12.3752  12.7693  12.9752  13.0549
    13.1171  13.3001  14.4175  14.8192  14.9101  15.2160  15.3088  15.5301
    16.8374  17.0278  17.1460  17.4440  17.6901  17.8529  18.6943  19.5537
    20.2687  20.4303  20.6982  21.0031  22.3943  22.5285  23.1147  23.3485
    23.5140  23.7929  23.8934  23.9204  24.6350  24.7134  25.6263  25.9801
    26.1583  26.3666  26.7969  26.8582  27.2002  27.8548  28.3460  29.0429
    29.1406  29.1577  29.9736  30.1959  30.3124  30.3958  30.4881  30.5979
    30.7183  30.8202  30.8757  31.0929  31.1700  31.4696  31.5353  31.8891
    31.9215  32.3484  32.4867  32.6816  33.0622  33.4178  33.4257  33.6322
    33.6560  33.9025  33.9226  34.6260  34.7171  34.7864  34.9897  34.9897
    35.4585  35.5782  35.9935  36.3173  36.5793  36.9013  36.9235  37.3613
    37.3951  37.4608  38.0714  38.4202  38.4802  39.1700  39.1825  39.3303
    39.5101  40.0348  40.1691  40.2900  41.0247  41.0616  41.0808  41.1572
    41.2752  42.0492  42.2524  42.2737  42.9269  42.9856  43.6275  43.7500
    43.9868  44.1121  44.6503  44.7384  45.3774  45.5228  45.9038  46.2906
    46.6842  47.0828  47.1917  47.4460  47.6646  48.1453  48.2069  48.5869
    48.7584  48.9458  48.9684  48.9776  49.4714  49.4747  49.7289  49.7395
    49.7706  49.8559  50.2156  50.3106  50.3207  50.4024  50.4893  50.4928
    50.5106  50.7861  50.7893  50.8054  50.9152  50.9426  51.0121  51.0510
    51.1604  51.2089  51.2524  51.5321  51.6406  51.6451  51.7647  52.0762
    52.2046  52.2276  52.2896  52.3541  52.3666  52.6754  52.6835  52.7233
    52.8871  53.1616  53.3554  53.4958  53.5095  53.5823  53.6234  53.8287
    53.9292  54.0827  54.3432  54.3527  54.4014  54.5549  54.9019  55.1409
    55.2071  55.3249  55.4868  55.5478  55.8077  55.9528  56.2175  56.2871
    56.6537  56.8991  57.0340  57.4508  57.4742  57.6529  57.7152  57.7238
    57.7326  57.8465  58.2469  58.2803  58.6760  58.7196  59.0376  59.3327
    59.3893  59.5287  59.6052  59.6917  60.0376  60.1042  60.1298  60.5483
    60.6806  60.6977  61.1920  61.2620  61.4074  61.6253  61.6783  61.9391
    62.0718  62.3345  62.5479  62.7902  62.9426  63.3462  63.4401  63.5314
    63.8861  63.9577  64.1834  64.2845  64.4406  64.6192  64.6520  64.9194
    65.1241  65.3872  66.1074  66.3500  66.4550  66.6340  66.6577  67.0243
    67.1260  67.1923  67.4391  67.8722  67.9519  68.1405  68.5029  68.6031
    68.7182  68.7581  69.3625  69.4521  69.7451  69.8167  69.9442  70.1939
    70.2338  70.7014  70.8907  71.2823  71.4781  71.5533  71.6909  72.1386
    72.8587  72.9076  73.0195  73.2062  73.2494  73.3110  73.6055  73.7621
    73.7700  73.9549  74.1220  74.2609  74.6752  74.9016  75.5509  75.5720
    75.6353  75.7163  75.8665  75.8696  76.1786  76.8304  77.0283  77.1498
    77.2065  77.4085  77.8206  77.9934  78.0130  78.1504  78.4716  78.8379
    79.1674  79.4424  79.4547  79.6016  80.2093  80.2570  80.3198  80.4932
    80.5420  81.0123  81.0188  81.1021  81.6067  81.6275  81.9154  82.0446
    82.2542  82.6510  83.0969  83.4743  83.4903  83.5284  84.0084  84.3223
    84.5420  84.6622  84.9640  85.1842  85.1847  85.2165  85.2190  85.6227
    85.8600  86.3045  86.3783  86.4246  86.6564  86.8894  87.1492  87.2678
    87.5960  87.6100  87.7041  87.7471  88.0634  88.3229  88.3520  88.6978
    88.7144  88.7897  89.1138  89.1424  89.2215  89.3082  89.3896  89.5183
    89.6045  89.7142  89.7875  89.8882  89.9155  89.9924  90.0382  90.0742
    90.1512  90.2958  90.3234  90.3607  90.5189  90.6366  90.6563  90.7072
    90.7191  90.7877  90.8067  90.8357  90.9959  91.1866  91.2219  91.2603
    91.2883  91.3144  91.6742  91.7802  91.7980  91.8756  92.2835  92.3145
    92.6001  92.6208  92.6718  92.7695  92.8272  92.9273  92.9569  93.0906
    93.2129  93.3191  93.8180  93.8523  93.9475  94.1457  94.1756  94.2883
    94.3417  94.4268  94.7627  94.7747  94.8017  94.9793  95.1462  95.3398
    95.5266  95.5889  95.6055  95.6318  95.7582  95.9349  96.1974  96.2644
    96.3723  96.4347  96.6618  96.8431  96.9326  96.9480  97.0461  97.0857
    97.5329  97.5707  97.7339  97.7367  97.9223  98.3495  98.3573  98.3982
    98.5817  98.6769  99.0203  99.1338  99.3914  99.4748  99.4957  99.6184
    99.6709  99.7117 100.0481 100.2713 100.3089 100.4328 100.7190 100.9931
   101.0829 101.0886 101.0915 101.3898 101.4120 101.7160 101.7564 101.7672
   101.8692 102.2396 102.5521 102.7093 102.8204 103.4464 103.5576 103.5601
   103.7450 103.7535 103.8051 103.9137 104.1378 104.1834 104.3999 104.4891
   104.6525 105.0210 105.0931 105.4591 105.4693 105.5107 105.7597 105.8793
   106.0333 106.1229 106.1910 106.2872 106.5418 106.6282 106.7908 106.9321
   107.2860 107.3320 107.3768 107.6429 107.6444 107.6636 107.7974 107.8776
   107.9555 107.9627 108.2171 108.2334 108.3783 108.4172 108.4596 108.7775
   108.8111 109.0425 109.2651 109.3713 109.3953 109.3996 109.4855 109.5357
   109.6799 109.6979 109.7312 109.7745 109.9098 109.9276 110.0007 110.0885
   110.2115 110.2881 110.4539 110.5510 110.7192 110.7798 110.9153 111.0384
   111.0703 111.1806 111.4319 111.7046 111.7702 111.9323 112.0059 112.3024
   112.3852 112.6087 112.6109 112.7284 112.8731 113.0271 113.1748 113.2422
   113.5764 113.6453 113.7194 113.7236 113.7592 113.8045 114.1387 114.2958
   114.5332 114.7201 114.8552 114.8726 114.9507 115.0915 115.1854 115.2821
   115.3066 115.4940 115.5053 115.5689 115.6999 116.2236 116.3473 116.4789
   116.5896 116.6437 116.6826 116.7303 116.8012 117.2974 117.3376 117.4094
   117.4940 117.6754 117.8256 117.8997 118.0354 118.1836 118.2615 118.3951
   118.4377 118.5176 118.6444 118.6804 118.6822 118.7311 118.8200 118.8594
   119.0897 119.3781 119.3801 119.5324 119.6864 119.7079 120.0790 120.5284
   120.8265 120.8836 121.2107 121.3763 121.5288 121.5412 121.8012 122.4205
   122.5414 122.6424 122.7261 122.7935 122.8993 123.4107 123.5202 123.7679
   123.7785 123.8016 124.1342 124.5352 124.6106 124.6237 124.6550 124.8572
   124.8716 125.0069 125.0269 125.5793 125.6615 125.7813 125.8259 126.0106
   126.1788 126.2860 126.3364 126.3512 126.4588 126.6132 126.7072 126.7217
   126.7460 126.8027 126.8694 126.9300 127.1252 127.1308 127.1818 127.5041
   127.5108 127.5653 127.7442 127.7639 127.7925 128.1319 128.2214 128.4060
   128.5460 128.7544 128.7679 128.8690 129.0340 129.0615 129.1832 129.2360
   129.3993 129.4583 129.4613 129.4617 129.5777 129.6202 129.6422 129.6559
   129.7686 129.9202 130.0047 130.0779 130.1328 130.1545 130.1807 130.2158
   130.2218 130.2802 130.5230 130.5333 130.6406 130.6970 130.7265 130.7284
   131.1206 131.1469 131.1749 131.3115 131.3828 131.3914 131.4105 131.5745
   131.6962 131.7621 131.8610 132.1042 132.1400 132.1483 132.3157 132.3275
   132.3403 132.3753 132.4232 132.4633 132.6450 132.6589 132.7660 132.9779
   133.2907 133.5731 133.7090 133.7101 133.7732 133.7787 134.0321 134.0710
   134.1752 134.4245 134.4373 134.5810 134.7055 134.7478 134.8052 134.8618
   134.9260 134.9732 135.2832 135.4874 135.5073 135.5501 135.6246 135.8108
   135.9970 136.1927 136.2611 136.2912 136.2962 136.3085 136.3484 136.7372
   136.7455 136.8160 136.8616 137.0831 137.2964 137.5450 137.5684 137.6899
   137.7480 137.7697 137.7851 137.8274 137.9873 138.0500 138.2758 138.3014
   138.3175 138.3925 138.5510 138.5809 138.7615 138.7700 138.8448 139.0243
   139.0740 139.2139 139.2351 139.2507 139.4791 139.7214 139.8827 139.9390
   140.0681 140.1907 140.2323 140.5871 141.1957 141.2056 141.2551 141.5176
   141.6390 141.6641 141.7251 141.8974 141.9323 141.9331 142.0826 142.1001
   142.1392 142.4398 142.5062 142.6532 142.7186 142.8022 143.2330 143.2660
   143.3646 143.8633 143.8665 144.1094 144.1766 144.3351 144.4037 144.4522
   144.8994 145.0547 145.3016 145.3617 145.3621 145.4693 145.5555 145.5705
   145.6965 146.3292 146.3765 146.4002 146.4060 146.6831 146.6998 146.7228
   146.7515 146.7832 146.8954 146.9657 147.0848 147.0947 147.2328 147.3018
   147.4328 147.4849 147.7883 148.0196 148.0766 148.0933 148.1376 148.3341
   148.3622 148.4012 148.4064 148.8230 148.8999 148.9787 149.0843 149.3313
   149.5500 149.9579 150.1888 150.5528 150.6007 150.9288 151.0258 151.3500
   151.3562 151.3989 151.6032 151.6548 151.7261 151.8998 152.1004 152.1476
   152.1879 152.2894 152.3069 152.4166 153.2369 153.5545 153.5847 153.6721
   153.9143 154.0258 154.0446 154.2188 154.3548 154.3566 154.5360 154.5539
   154.7059 154.7067 154.8745 155.6247 155.7598 156.0518 156.0752 156.3885
   156.4905 156.5537 156.6503 156.6552 156.8653 156.8940 156.9765 157.2512
   157.3073 157.3411 157.3637 157.5560 157.5955 157.7351 157.8821 157.8949
   157.9174 158.0276 158.0573 158.0774 158.3664 158.4333 158.5312 158.6817
   158.8199 158.8395 158.8821 159.1052 159.4970 159.7801 159.8695 159.9122
   160.2913 160.4811 160.7125 160.8101 160.9996 161.0761 161.1292 161.5316
   161.6461 161.7568 161.8250 162.4194 162.5682 162.6033 162.8849 162.9719
   163.1272 163.2656 163.3347 163.3592 163.5517 163.5993 163.8894 164.0782
   164.2978 164.3899 164.5798 164.6001 164.9726 164.9901 165.0069 165.0379
   165.2725 165.3043 165.3699 165.4188 165.5331 165.7816 165.8767 165.9735
   166.0047 166.0205 166.1925 166.2336 166.4956 166.5738 166.5761 166.9545
   166.9725 167.0271 167.1173 167.5315 167.6869 167.7160 167.8431 167.8691
   167.9159 168.1447 168.1721 168.2562 168.2660 168.3204 168.4097 168.7165
   168.7741 168.8489 168.8996 168.9083 168.9246 168.9672 169.0296 169.2073
   169.3737 169.3981 169.4627 169.7934 169.8105 169.9371 169.9612 170.0415
   170.0944 170.2037 170.2296 170.2370 170.2883 170.7184 170.8433 170.8627
   170.9072 171.1119 171.1429 171.3758 171.4517 171.5736 171.6300 171.6695
   171.9117 172.0623 172.0764 172.0949 172.1650 172.1684 172.5247 172.5974
   172.7172 172.8019 172.8156 173.0181 173.0197 173.2039 173.2250 173.7368
   173.8040 173.9616 174.0311 174.0394 174.4028 174.4474 174.4930 174.5796
   174.6809 174.7488 174.7721 174.9072 175.0317 175.2055 175.2119 175.2247
   175.2816 175.5619 175.7612 175.7827 176.0259 176.1692 176.2199 176.3684
   177.0321 177.0394 177.1257 177.2266 177.3356 177.3369 177.3529 177.4065
   177.5648 177.8187 177.8442 177.8600 178.1171 178.1257 178.2424 178.4056
   178.4412 178.5991 178.7887 178.8180 179.1415 179.2061 179.2646 179.5233
   179.5745 179.6223 179.7421 179.7461 179.9050 180.1251 180.3681 180.4612
   180.4652 180.6341 180.7916 181.0593 181.1583 181.1648 181.2927 181.3302
   181.5243 181.5315 181.5774 181.6841 181.7097 181.8224 181.9595 182.1392
   182.4470 182.6890 182.8074 182.8103 182.8485 182.8508 183.2990 183.3065
   183.3571 183.5281 183.6680 183.7707 184.0007 184.0624 184.3719 184.4398
   184.6051 184.6782 184.9549 185.0537 185.4076 185.4801 185.5779 185.5893
   185.8932 185.9513 185.9593 186.0419 186.1625 186.1898 186.3157 186.3314
   186.3739 186.5722 186.6741 186.7284 186.7540 186.7567 186.8071 186.8096
   186.8810 186.9778 187.0626 187.3537 187.3627 187.3770 187.4648 187.5268
   187.5319 187.6642 187.6743 187.9264 188.1248 188.1372 188.4035 188.5369

     the Fermi energy is    -0.7845 ev
     (compare with:    -0.8909 eV, computed in scf)

     Writing all to output data dir out/MoS2.save/
 
     init_run     :      0.15s CPU      0.18s WALL (       1 calls)
     electrons    :    486.39s CPU    500.80s WALL (       1 calls)

     Called by init_run:
     wfcinit      :      0.00s CPU      0.00s WALL (       1 calls)
     potinit      :      0.02s CPU      0.02s WALL (       1 calls)
     hinit0       :      0.05s CPU      0.07s WALL (       1 calls)

     Called by electrons:
     c_bands      :    486.39s CPU    500.80s WALL (       1 calls)
     v_of_rho     :      0.01s CPU      0.02s WALL (       1 calls)

     Called by c_bands:
     init_us_2    :      0.00s CPU      0.00s WALL (       7 calls)
     init_us_2:cp :      0.00s CPU      0.00s WALL (       7 calls)
     cegterg      :    474.91s CPU    488.97s WALL (       7 calls)

     Called by *egterg:
     cdiaghg      :    425.16s CPU    438.39s WALL (      84 calls)
     h_psi        :     10.96s CPU     11.21s WALL (      91 calls)
     g_psi        :      0.08s CPU      0.09s WALL (      77 calls)

     Called by h_psi:
     h_psi:calbec :      0.25s CPU      0.27s WALL (      91 calls)
     vloc_psi     :     10.40s CPU     10.61s WALL (      91 calls)
     add_vuspsi   :      0.21s CPU      0.21s WALL (      91 calls)

     General routines
     calbec       :      0.25s CPU      0.27s WALL (      91 calls)
     fft          :      0.01s CPU      0.03s WALL (      10 calls)
     fftw         :      9.49s CPU      9.68s WALL (  123468 calls)
 
     Parallel routines
 
     PWSCF        :   8m 7.68s CPU   8m22.77s WALL

 
   This run was terminated on:  12:31:48   5Apr2024            

=------------------------------------------------------------------------------=
   JOB DONE.
=------------------------------------------------------------------------------=
