
     Program PWSCF v.7.1 starts on 19Nov2023 at 14: 5: 4 

     This program is part of the open-source Quantum ESPRESSO suite
     for quantum simulation of materials; please cite
         "P. Giannozzi et al., J. Phys.:Condens. Matter 21 395502 (2009);
         "P. Giannozzi et al., J. Phys.:Condens. Matter 29 465901 (2017);
         "P. Giannozzi et al., J. Chem. Phys. 152 154105 (2020);
          URL http://www.quantum-espresso.org", 
     in publications or presentations arising from this work. More details at
     http://www.quantum-espresso.org/quote

     Parallel version (MPI), running on     8 processors

     MPI processes distributed on     1 nodes
     123531 MiB available memory on the printing compute node when the environment starts
 
     Reading input from pw_mp-1500_nscf_k60_E61.in
Warning: card &IONS ignored
Warning: card / ignored
Warning: card &CELL ignored
Warning: card / ignored

     Current dimensions of program PWSCF are:
     Max number of different atomic species (ntypx) = 10
     Max number of k-points (npk) =  40000
     Max angular momentum in pseudopotentials (lmaxx) =  4

     Atomic positions and unit cell read from directory:
     out/mp-1500.save/
     Atomic positions from file used, from input discarded
 
 
     R & G space division:  proc/nbgrp/npool/nimage =       8
     Subspace diagonalization in iterative solution of the eigenvalue problem:
     one sub-group per band group will be used
     scalapack distributed-memory algorithm (size of sub-group:  2*  2 procs)

 
     Parallelization info
     --------------------
     sticks:   dense  smooth     PW     G-vecs:    dense   smooth      PW
     Min         157     157     45                 3639     3639     570
     Max         158     158     46                 3641     3641     573
     Sum        1261    1261    361                29123    29123    4573
 
     Using Slab Decomposition
 


     bravais-lattice index     =            2
     lattice parameter (alat)  =      12.1913  a.u.
     unit-cell volume          =     452.9900 (a.u.)^3
     number of atoms/cell      =            2
     number of atomic types    =            2
     number of electrons       =        16.00
     number of Kohn-Sham states=         1200
     kinetic-energy cutoff     =      61.0000  Ry
     charge density cutoff     =     244.0000  Ry
     Exchange-correlation= PBE
                           (   1   4   3   4   0   0   0)

     celldm(1)=  12.191286  celldm(2)=   0.000000  celldm(3)=   0.000000
     celldm(4)=   0.000000  celldm(5)=   0.000000  celldm(6)=   0.000000

     crystal axes: (cart. coord. in units of alat)
               a(1) = (  -0.500000   0.000000   0.500000 )  
               a(2) = (   0.000000   0.500000   0.500000 )  
               a(3) = (  -0.500000   0.500000   0.000000 )  

     reciprocal axes: (cart. coord. in units 2 pi/alat)
               b(1) = ( -1.000000 -1.000000  1.000000 )  
               b(2) = (  1.000000  1.000000  1.000000 )  
               b(3) = ( -1.000000  1.000000 -1.000000 )  


     PseudoPot. # 1 for Ba read from file:
     /usr/scratch4/magr4985/MG/HTDF/pseudo/SG15/Ba.upf
     MD5 check sum: ac4691792522964bb0504809e83fae44
     Pseudo is Norm-conserving, Zval = 10.0
     Generated using ONCVPSP code by D. R. Hamann
     Using radial grid of  602 points,  8 beta functions with: 
                l(1) =   0
                l(2) =   0
                l(3) =   1
                l(4) =   1
                l(5) =   2
                l(6) =   2
                l(7) =   3
                l(8) =   3

     PseudoPot. # 2 for S  read from file:
     /usr/scratch4/magr4985/MG/HTDF/pseudo/SG15/S.upf
     MD5 check sum: f9d020296ee6110346977bfd66d424f6
     Pseudo is Norm-conserving, Zval =  6.0
     Generated using ONCVPSP code by D. R. Hamann
     Using radial grid of  602 points,  4 beta functions with: 
                l(1) =   0
                l(2) =   0
                l(3) =   1
                l(4) =   1

     atomic species   valence    mass     pseudopotential
        Ba            10.00   137.32700     Ba( 1.00)
        S              6.00    32.06500     S ( 1.00)

     48 Sym. Ops., with inversion, found



   Cartesian axes

     site n.     atom                  positions (alat units)
         1           Ba  tau(   1) = (   0.0000000   0.0000000   0.0000000  )
         2           S   tau(   2) = (  -0.5000000   0.5000000   0.5000000  )

     number of k points=     8  Gaussian smearing, width (Ry)=  0.0005
                       cart. coord. in units 2pi/alat
        k(    1) = (   0.0000000   0.0000000   0.0000000), wk =   0.0312500
        k(    2) = (  -0.2500000   0.2500000  -0.2500000), wk =   0.2500000
        k(    3) = (   0.5000000  -0.5000000   0.5000000), wk =   0.1250000
        k(    4) = (   0.0000000   0.5000000   0.0000000), wk =   0.1875000
        k(    5) = (   0.7500000  -0.2500000   0.7500000), wk =   0.7500000
        k(    6) = (   0.5000000   0.0000000   0.5000000), wk =   0.3750000
        k(    7) = (   0.0000000  -1.0000000   0.0000000), wk =   0.0937500
        k(    8) = (  -0.5000000  -1.0000000   0.0000000), wk =   0.1875000

     Dense  grid:    29123 G-vectors     FFT dimensions: (  45,  45,  45)

     Estimated max dynamical RAM per process >     182.68 MB

     Estimated total dynamical RAM >       1.43 GB

     The potential is recalculated from file :
     out/mp-1500.save/charge-density

     Starting wfcs are random

     Band Structure Calculation
     Davidson diagonalization with overlap

     ethr =  5.00E-06,  avg # of iterations = 10.6

     total cpu time spent up to now is     1139.8 secs

     End of band structure calculation

          k = 0.0000 0.0000 0.0000 (  3695 PWs)   bands (ev):

   -20.5642  -5.6333  -5.6333  -5.6333  -4.7733   5.4781   5.4781   5.4781
     9.0151   9.4401   9.4401   9.4401  10.3383  10.3383  12.9012  15.3094
    15.3094  15.3094  15.4538  15.4538  15.4538  17.5952  20.0832  20.0832
    20.0832  22.9289  22.9289  22.9289  23.7806  23.7806  26.0686  26.0686
    26.0686  27.0071  27.4406  27.4406  29.7364  29.7364  29.7364  30.3555
    30.3555  30.3555  35.5605  38.4941  38.4941  38.4941  38.8118  38.8118
    38.8118  38.9319  38.9319  38.9319  39.2041  39.2041  39.2041  40.7086
    41.6277  41.6277  41.6277  41.6523  42.1338  42.1338  42.1338  42.6610
    42.6610  43.7695  44.4283  44.4283  51.9438  51.9438  51.9438  56.0556
    56.0556  56.0556  56.1979  60.0811  60.0811  60.8005  60.8005  60.8005
    61.5153  61.5153  61.5153  63.3966  63.3966  63.3966  64.3165  64.3165
    65.8766  66.5711  66.5711  66.5711  66.6980  66.6980  66.6980  67.0113
    67.0113  67.0113  67.0859  67.0859  67.0859  68.1672  68.9666  68.9666
    68.9666  69.0689  69.0689  69.0689  69.7418  69.7418  70.0979  70.0979
    70.0979  70.6824  70.6824  71.6326  71.6326  71.6326  72.6616  75.2501
    77.2337  77.2337  78.4029  78.4029  78.4029  79.9980  82.7586  82.7586
    82.7586  84.0627  84.0627  84.3572  84.3572  84.3572  84.6307  84.6307
    84.6307  85.0122  85.0122  85.0122  85.6309  85.6309  85.6309  86.0007
    86.0007  86.9387  86.9387  86.9387  88.8194  89.6351  89.6351  89.6351
    91.6668  93.1470  93.1470  93.1470  93.8037  93.8442  93.8442  93.8442
    94.2125  94.2125  94.2125  94.6002  94.6002  94.6002  94.9887  94.9887
    94.9887  99.5055  99.5055  99.6003  99.6003  99.6003  99.7754 100.1561
   106.0048 106.4439 106.4439 106.4439 106.7997 106.7997 107.4676 107.4676
   109.9471 109.9471 109.9471 111.2699 111.2699 111.2699 111.6452 111.6452
   111.6452 113.8416 116.5302 116.5302 116.5302 118.3525 118.3525 118.3525
   118.4414 118.4414 118.4414 119.2812 119.2812 119.5772 119.5772 119.5772
   121.0348 121.0348 121.0348 121.1257 121.1257 121.1257 121.1386 121.1386
   121.4169 121.4667 121.9575 122.7217 122.7217 122.8655 122.8655 122.8655
   124.1466 124.1466 124.1466 124.2147 124.2147 124.2147 124.4242 124.4242
   124.4242 124.8256 126.5451 126.5451 126.5451 126.7290 126.7290 126.7290
   126.9982 126.9982 127.4751 127.4856 127.4856 127.4856 128.1633 128.1633
   128.1633 128.2132 128.2132 128.4339 128.4339 128.4339 128.6880 128.8596
   128.8596 128.8596 128.9127 128.9127 128.9127 129.0165 129.0165 129.0441
   129.0441 129.0441 134.5563 135.8033 135.8033 135.8033 136.2602 136.2602
   136.2602 136.4265 136.4265 137.3585 137.3585 137.3585 138.1337 138.1337
   138.1337 140.3575 140.3575 140.3575 142.9284 142.9978 142.9978 143.1939
   143.2235 143.2235 143.2235 145.5800 145.5800 145.5800 148.2816 149.3914
   149.3914 149.3914 151.0081 151.3245 151.3245 151.3245 151.4384 151.4384
   151.9957 151.9957 152.0528 152.0528 152.0528 153.1573 153.1573 153.1573
   153.3573 153.3573 153.3573 154.1292 154.1292 154.4094 154.4094 154.4094
   155.2491 155.2491 155.2491 155.3701 155.3701 155.7805 155.7805 155.7805
   155.9449 155.9918 155.9918 155.9918 156.0114 156.0114 156.0114 157.6995
   157.6995 157.6995 157.9131 160.9960 160.9960 164.9461 164.9461 164.9461
   166.3439 166.3439 166.3439 166.5089 169.7248 170.7516 170.7516 170.7516
   170.7764 170.7764 170.8501 171.8516 171.8516 171.8516 172.8395 172.8395
   172.8395 173.8389 173.8389 173.8389 174.1687 174.6013 174.6013 174.6013
   176.5257 176.5257 177.5160 177.5160 177.5160 178.6437 178.6437 178.6437
   179.7149 179.7149 179.7149 180.2450 180.2450 180.2450 181.6637 181.6637
   181.6637 182.7263 182.7263 182.7263 182.7971 182.7971 182.7971 182.8372
   182.8372 182.9289 182.9289 182.9289 182.9388 182.9388 182.9388 183.0800
   183.0800 183.2242 183.2242 183.2242 183.3766 184.3748 185.3891 185.3891
   185.3891 185.7215 185.7215 185.7215 186.0980 186.0980 186.1308 186.1308
   186.1308 186.2022 191.7741 191.7741 191.7741 192.7398 194.4335 194.7932
   194.7932 194.9158 194.9158 194.9158 195.0999 195.0999 195.0999 195.5180
   195.5180 195.6830 195.7601 195.7601 195.7601 196.3660 196.3660 196.3660
   197.8761 197.8761 197.8761 197.9746 197.9746 198.3813 198.3813 198.3813
   199.8248 199.8248 199.9106 199.9106 199.9106 200.1089 200.1089 200.1089
   200.1358 200.1358 200.1358 200.4722 200.4722 200.5863 200.5863 200.5863
   201.4971 201.4971 201.4971 201.6699 201.7697 201.7697 201.7697 201.8452
   201.8517 201.8517 201.8517 202.6660 202.6660 202.6660 203.8377 203.8377
   203.8377 203.9612 203.9612 203.9612 204.5933 205.3747 205.3747 205.3747
   205.3757 205.3757 205.4083 205.4083 205.4083 206.0801 209.1514 209.1514
   209.3669 209.3669 209.3669 209.7012 209.7012 209.7012 210.4299 210.4299
   210.4299 210.5070 210.5070 210.5089 210.5089 210.5089 210.5491 211.5218
   211.5218 211.5218 211.5766 211.5766 211.5766 211.6137 211.6137 211.7848
   211.8511 212.2047 212.2047 213.2422 213.2422 213.2422 213.2754 213.2754
   213.2754 213.4545 213.4545 213.4545 213.5399 213.5399 213.5399 214.6905
   214.7392 214.7392 214.7392 214.7472 214.7472 221.8447 221.8447 221.8447
   229.1267 229.1267 229.1267 229.5687 233.3576 233.3576 233.3576 235.0203
   235.0203 235.0970 235.5002 235.5434 235.5434 235.5434 235.8890 235.8890
   235.8890 235.9191 235.9191 235.9191 236.1302 236.1302 236.1302 236.5226
   236.5226 236.5226 236.5319 236.5319 236.5319 236.5641 236.5641 236.6672
   236.6672 236.8218 236.8218 236.8218 237.0600 237.0600 237.0600 237.4996
   237.4996 237.4996 237.9038 239.5844 239.5844 239.5844 242.4284 242.4284
   242.8404 242.8404 242.8404 242.9327 242.9327 242.9327 243.0300 243.0300
   243.0300 243.0747 243.0747 243.1644 243.1644 243.1644 243.9095 243.9095
   244.0824 244.1763 244.1763 244.1763 244.7086 244.7086 244.7086 246.7046
   248.6592 248.6592 248.6592 248.6616 248.6616 248.9139 250.1156 250.1156
   250.1156 251.2415 251.5892 251.5892 251.5892 252.2989 252.2989 252.2989
   252.7771 252.7771 252.9302 252.9302 252.9302 255.0183 255.1692 255.1692
   255.1692 255.2802 255.2802 256.0033 256.0033 256.0033 256.4367 256.4367
   256.4367 256.9441 256.9441 256.9441 257.1528 257.1528 257.1528 257.2749
   257.2749 257.7182 257.7182 257.7182 257.9801 262.6658 262.6658 262.9908
   262.9908 262.9908 263.2240 263.2240 263.2240 263.3561 263.3561 263.3561
   263.5237 263.8530 263.8530 263.8530 264.9448 265.4194 265.8765 265.8765
   265.8765 266.0718 266.0718 266.0762 266.0762 266.0762 266.7536 266.7536
   266.7536 266.7718 266.7718 266.7718 267.4088 267.4088 267.4088 268.8223
   269.2434 269.2434 269.5096 269.5096 269.5096 270.1782 270.9403 270.9403
   270.9403 271.0705 271.0705 271.0705 271.2314 271.2314 271.2314 271.2544
   271.2544 271.3517 271.3517 271.3517 271.3829 271.3829 271.3829 271.4287
   271.4287 271.4287 271.5199 271.5719 271.5719 271.5719 271.5850 271.5850
   271.8122 271.8122 273.8386 275.5497 275.5497 275.5497 275.8023 275.8023
   275.8023 276.9783 280.5559 280.5559 280.5559 280.7471 280.7471 280.7799
   280.7799 280.7799 280.9743 280.9743 280.9743 281.0405 281.6371 281.6371
   281.6371 281.6861 281.7380 281.7380 284.8777 284.8777 284.8777 286.2967
   286.2967 286.2967 287.7885 287.7885 287.7885 288.9249 290.7803 290.7803
   290.7803 291.0351 291.5470 291.5470 291.5470 291.6603 291.6603 291.6603
   291.8283 291.8283 291.8647 291.8647 293.9168 293.9168 293.9168 294.0090
   294.0090 294.0090 294.3362 294.3362 294.3362 294.3652 294.3652 294.3652
   294.4420 294.4420 294.4420 294.8763 294.8763 294.8763 295.5332 295.5332
   295.5332 295.5383 295.5383 295.5523 295.5523 295.5523 296.1328 296.3220
   296.3220 296.3220 296.4111 296.4111 296.4111 296.5786 296.5786 297.2975
   297.2975 297.2975 297.6608 297.6608 297.6853 297.6853 297.6853 297.6939
   297.6939 297.6939 297.8924 297.8924 297.9990 297.9990 297.9990 298.4216
   298.6653 298.6653 298.6653 298.7341 298.7341 298.7341 298.8713 301.5032
   301.5032 301.5032 301.5653 301.5653 301.6428 301.6717 301.6717 301.6717
   301.6934 301.6934 301.6934 301.7165 301.7165 301.7165 301.7458 301.7458
   301.7627 301.7627 301.7627 302.0716 302.0973 302.0973 302.2729 302.2729
   302.2729 302.4335 302.4335 302.4335 302.5491 302.7316 303.9729 303.9729
   303.9729 305.9473 305.9473 305.9473 305.9972 308.8256 308.8256 308.8256
   310.8214 310.8214 310.8214 312.4912 312.4912 313.9404 313.9404 313.9404
   314.0453 314.6410 314.6410 314.6410 314.7967 314.7967 314.7967 315.1905
   315.1905 315.1905 315.2660 315.2660 315.4087 315.4087 315.7101 315.7101
   315.7101 316.7994 316.7994 316.7994 317.2933 317.2933 317.2933 320.4792
   320.4792 320.4792 320.7292 320.7292 320.9827 321.5961 324.2510 324.2510
   324.2510 324.9114 324.9114 324.9114 325.5594 325.5594 325.5594 325.5928
   325.5928 328.6376 328.6376 328.6376 328.6622 328.6622 328.6622 328.6962
   328.6962 328.6962 328.7589 328.7589 328.7589 329.0304 330.2269 330.2269
   330.2273 330.2273 330.2273 330.2344 334.4822 336.0618 336.0618 336.0618
   336.0832 336.0832 336.6886 336.6886 336.6886 340.5076 340.6174 340.6174
   340.6174 340.9591 340.9591 340.9591 341.0265 341.0265 341.0265 341.1683
   341.1683 341.2197 341.6516 341.6516 341.6516 341.6518 341.6518 341.6518
   341.6519 341.6519 342.7440 342.7440 342.9753 343.3277 343.3277 343.3277
   343.4596 343.4596 343.4596 343.8871 343.8871 343.8871 344.4050 345.7210
   345.7210 345.7210 346.9903 346.9903 346.9903 347.2009 347.2009 348.0278
   348.0278 348.0278 350.4281 351.2912 351.2912 351.2912 351.4022 351.4022
   351.4022 351.4897 351.4897 351.4897 351.8504 351.8504 352.3627 352.3627
   352.3627 352.3831 352.3831 352.9648 353.2705 353.2705 353.2705 353.5509
   353.5751 353.5751 353.5751 355.0393 355.0393 355.0393 355.1850 355.1850
   355.1938 355.1938 355.1938 355.4411 355.4411 355.4411 355.5195 355.5556
   355.5556 355.5586 355.5586 355.5586 355.5663 355.5663 355.5663 355.8921
   355.8921 355.8921 356.0725 356.0839 356.0839 356.0839 356.1970 356.1970
   356.3451 356.3451 356.3621 356.3621 356.3621 356.3662 356.3662 356.3662
   356.3686 356.3686 356.3686 361.8203 363.5287 363.5287 363.5287 363.8483
   363.8483 363.8483 365.8303 365.8303 365.8303 366.1712 366.1712 366.1712
   366.4886 366.4886 366.4961 366.4961 366.4961 366.7506 367.5434 367.5434
   367.5434 367.6374 367.6374 367.6374 367.9730 367.9730 368.0228 368.0228
   368.0228 368.3913 368.3913 368.3913 369.5402 369.5402 369.5402 369.7921
   370.0575 370.0575 370.0575 370.1930 370.1930 371.5679 371.5679 371.5679
   371.7715 371.7715 371.7715 372.8023 372.8023 372.8023 372.8097 372.8097
   372.8097 372.8674 372.8674 372.8674 372.8699 372.8699 372.9246 373.0482
   373.2020 373.2020 373.2020 373.2969 373.2969 373.3636 373.3636 373.3636
   373.7912 373.7922 373.7922 373.7922 374.0919 374.0919 374.2634 374.2634
   374.2905 374.2905 374.2905 374.3605 374.3605 374.3605 374.3653 374.6345
   374.6345 374.6345 375.7206 375.7206 375.8638 375.8638 375.8638 376.1607
   376.1607 376.1607 376.3538 376.9320 379.7880 379.7880 379.7880 380.1560
   380.2615 380.2615 380.2615 381.0853 381.0853 381.1210 381.1210 381.1210
   381.8091 381.9976 381.9976 381.9976 382.0980 382.0980 382.0980 382.1494
   382.1494 382.1494 382.2441 382.2441 382.3290 382.3290 382.3290 383.3457
   383.3954 383.3954 383.3954 385.0007 385.1181 385.1181 385.1181 385.1322

          k =-0.2500 0.2500-0.2500 (  3647 PWs)   bands (ev):

   -20.5450  -6.2813  -5.6509  -5.6509  -4.0820   4.4150   4.9306   4.9306
     9.5819  10.2521  10.2521  10.7646  11.7714  11.7714  14.1450  14.8699
    14.8699  15.0112  15.3270  15.3805  15.3805  17.5052  18.3436  18.3436
    18.6504  20.7066  20.7066  22.4286  23.8441  24.2875  24.2875  26.3270
    26.3270  27.8646  27.8646  29.8578  30.1949  30.1949  30.2320  31.0232
    32.0760  33.9788  33.9788  34.0545  34.0545  34.7780  37.4047  37.4047
    37.6001  38.2433  38.2433  38.5082  39.7422  40.7384  41.0699  41.0699
    41.8476  41.8476  44.1597  44.1597  44.6426  44.9008  44.9008  45.2446
    47.0585  48.0325  49.7929  49.7929  50.4201  51.2797  51.2797  52.3642
    54.5713  54.5713  54.7893  55.0599  55.0599  58.1983  58.1983  58.6050
    59.3180  59.3180  59.8061  60.2775  60.3185  60.3185  62.1697  62.1697
    62.7589  62.7589  62.8099  63.6610  65.1917  65.1917  66.3283  66.5677
    67.2165  67.2165  68.3100  69.3470  70.0534  70.0534  70.4557  70.4557
    70.5990  71.3503  71.3503  71.4487  71.4487  71.8101  72.4870  72.4870
    72.7830  73.1401  73.2336  73.2336  75.3201  75.3201  76.4755  77.3263
    77.3263  77.5302  78.6831  78.6831  78.8391  78.8818  80.5963  80.5963
    81.2029  81.2029  81.2452  81.5957  82.1937  83.0906  83.0906  84.5851
    84.6727  84.6727  84.8025  84.8025  85.3910  85.6415  85.6999  85.6999
    87.3979  88.7393  88.7393  89.3451  89.8864  89.8864  90.6151  90.9604
    90.9604  92.4464  92.5239  92.5239  93.0916  93.3402  93.3402  95.8266
    95.9526  95.9526  96.9348  97.8354  97.8354  98.0132 100.0071 100.0071
   100.6056 101.2734 101.2734 102.4890 102.4890 102.6944 103.1657 103.1657
   103.4392 104.4234 104.5283 104.5283 105.6825 106.8923 107.2174 107.2174
   107.9506 108.5214 108.5214 108.8776 109.4720 109.4720 110.1145 110.1145
   110.6258 110.8701 111.0534 111.6042 111.6042 111.6161 112.3262 112.3262
   113.2124 113.2124 113.4817 113.8775 113.8775 114.6167 115.3599 115.8355
   115.8355 116.9572 116.9572 119.4419 119.7051 120.2354 120.2354 120.9932
   120.9932 121.1272 121.3754 121.3754 121.7020 122.1441 122.7239 122.7239
   123.6427 123.6427 123.8541 123.9598 124.5176 124.5176 124.8254 124.8254
   125.6203 125.6203 125.8534 125.8906 125.8906 125.9103 126.2978 126.6422
   127.1636 127.1636 128.1949 128.1949 128.9267 129.2755 129.6950 129.6950
   130.7181 130.7672 130.7672 130.7781 132.1349 132.1828 132.1828 132.7049
   132.7683 132.7683 133.1517 133.1517 133.2365 133.7607 133.7607 134.6115
   134.6115 134.8687 135.4993 135.7427 135.7427 137.2859 137.5200 137.5200
   138.1313 138.7258 138.7258 138.9167 139.5495 139.8818 139.8818 140.9677
   140.9677 141.4714 142.7241 142.7241 143.7126 143.7126 143.9120 143.9946
   144.4620 144.9255 144.9255 145.1350 145.1350 146.0265 146.1084 146.1084
   146.3138 146.5555 146.5555 146.7648 146.9908 146.9908 147.3175 148.0281
   150.3095 150.3095 150.6997 151.2274 151.2274 151.8629 151.8921 151.8921
   152.3682 152.3682 152.4916 153.1292 153.1292 153.9368 155.8549 155.9316
   155.9316 156.2182 156.7547 156.7547 157.9536 159.1662 159.1662 159.3285
   159.9739 159.9739 160.3950 160.3950 160.5343 161.8694 162.2917 162.2917
   162.3131 162.5147 162.5147 164.9954 165.7069 165.7069 165.9117 166.0245
   166.0245 166.4097 166.5013 166.6404 166.6929 166.6929 167.1564 167.1564
   167.3928 167.3928 167.5944 167.5944 167.7647 168.0273 170.9974 171.6075
   171.6075 171.8867 171.8867 171.8959 172.5784 172.5784 172.7810 173.8321
   173.8321 174.0117 174.0583 174.0583 174.9438 174.9438 175.0519 175.2369
   175.8582 175.8582 176.5682 176.5682 176.7313 177.7596 177.7596 177.8668
   179.0438 179.0438 179.4315 179.4315 180.0529 180.1681 181.0466 182.3719
   182.5911 182.5911 183.3990 183.3990 183.5745 183.6798 183.6798 184.2044
   184.2044 184.3813 185.0626 185.3296 185.3296 185.5669 185.5669 185.6258
   186.3355 186.5606 186.5606 186.6732 187.3018 187.3018 187.9648 188.3405
   188.3623 188.3623 189.8733 190.2692 190.2692 191.1158 191.4786 191.4786
   191.7283 191.7283 192.0847 192.3923 192.5774 192.5774 192.7986 192.9835
   192.9835 193.2023 193.2023 193.2842 193.3855 193.3855 194.4405 195.6780
   195.6977 195.6977 195.9432 195.9432 196.1620 196.3780 196.4906 196.4906
   197.0489 197.5562 197.5562 197.9781 197.9781 198.8076 199.2403 199.2616
   199.2616 199.7346 199.7346 200.4070 200.5608 200.6294 200.6294 200.9691
   200.9691 201.4562 201.4562 201.5218 201.5700 201.6713 201.6713 202.5918
   202.6976 202.6976 203.0432 203.3618 203.7726 203.7726 205.0656 205.0656
   205.3783 205.6659 205.6659 206.0868 206.0870 206.0870 206.6234 206.6535
   206.6535 207.1044 207.5776 208.1516 208.1516 208.4528 209.0357 209.0357
   210.1735 210.4797 210.4797 212.2970 212.2970 212.5120 213.0242 213.0242
   213.1411 213.5033 214.5535 214.5535 214.6691 215.6648 215.6648 215.7423
   216.1286 216.1286 216.1997 216.8148 217.3752 217.3752 217.9704 217.9704
   218.2027 219.3777 219.3777 219.9465 219.9465 220.2407 220.3517 220.7293
   220.7293 221.2002 221.2002 221.3601 221.5768 221.5768 222.4296 222.4296
   222.5567 222.6289 222.6289 222.6425 222.8823 223.1845 224.1146 224.1146
   224.4053 224.4053 224.5375 224.7362 224.7362 225.4691 225.4691 225.5443
   225.7874 225.7874 226.3508 226.4610 227.8166 229.6703 229.9791 229.9791
   230.4655 231.1750 231.1750 231.1777 231.9509 231.9638 231.9638 232.4049
   232.4049 232.7534 232.7534 233.0673 233.1307 233.1307 233.3968 233.6598
   234.9940 234.9940 235.1943 235.1943 235.7325 235.9517 235.9517 236.3271
   236.3271 236.5847 237.9339 239.1296 239.1296 239.4260 239.7758 239.7758
   240.3497 240.3497 240.8060 242.0217 242.0217 242.2041 242.3299 242.7403
   242.7403 242.9376 243.6573 243.6815 243.6815 244.8916 244.8916 245.7231
   247.3290 247.4894 247.4894 248.1850 248.1850 248.3081 248.3081 248.5972
   248.5972 248.6108 248.7632 248.8977 248.8977 249.1245 249.4587 249.4587
   249.5474 250.0164 250.6364 250.6597 250.6597 250.8880 251.0718 251.0718
   251.2280 251.2280 251.6740 251.8997 251.8997 252.1140 253.0616 253.0616
   253.2028 253.4560 253.4943 253.4943 253.8825 253.8825 253.9488 255.2997
   255.6389 255.6389 256.4681 256.4681 257.1654 257.1654 257.2890 257.6089
   257.6089 258.7737 259.1442 260.0273 260.0460 260.0460 260.3775 260.5635
   260.5635 260.9973 261.6387 261.6387 261.7044 263.5569 263.5844 263.5844
   263.8859 264.1389 264.1389 264.7320 264.9657 264.9843 264.9843 265.2681
   265.2681 265.5154 265.5154 266.3562 266.4458 266.4458 267.4280 267.7478
   267.7478 268.1838 268.2192 268.2192 268.3290 268.3290 269.3649 269.3649
   269.5411 269.6770 269.7098 269.9906 269.9906 270.6715 270.6715 270.9653
   271.2983 271.2983 271.9170 272.2609 272.3690 272.3690 272.5441 273.0282
   273.0282 273.0746 273.0746 273.4712 273.4712 273.7324 274.5150 274.6175
   274.6175 274.7280 274.8510 274.8510 275.0004 275.2928 275.2928 275.6016
   275.7054 275.8618 275.8618 276.2079 276.2079 276.5071 276.9946 277.1317
   277.1317 277.3221 277.3221 277.6154 277.9011 277.9011 277.9060 278.5028
   278.5028 278.7331 278.7331 278.7945 279.5229 279.5912 279.8631 279.8631
   280.7836 280.7836 281.1115 282.2895 282.2895 282.4037 283.0989 283.8051
   284.2152 284.2152 284.9628 285.1224 285.1224 285.5661 286.2430 286.2430
   286.6232 286.6377 286.6377 286.8989 286.8989 286.9122 287.0740 287.0740
   287.5486 288.1555 288.1555 288.6705 288.6705 289.0904 289.0904 289.2577
   289.5833 289.5833 289.7284 290.2338 290.2338 290.3210 290.5797 291.4748
   291.4748 292.3296 292.4165 292.4165 292.6928 293.0090 293.1111 293.1111
   293.2951 293.2951 293.6624 293.7621 294.0934 294.0934 294.3122 294.4435
   295.0212 295.0212 295.1725 295.1725 295.3349 296.0637 296.0637 296.5427
   296.5427 296.6451 297.4888 297.4888 298.0607 299.2171 299.2845 299.3061
   299.3061 299.6191 299.6191 300.0465 300.0465 300.4719 301.4516 301.7024
   301.7024 302.3838 302.3838 302.4114 303.4870 303.8344 303.8344 303.8832
   304.4140 304.4140 305.3396 305.3396 305.4774 305.4994 305.7476 305.7476
   305.9575 306.0911 306.0911 306.4637 306.4637 306.6266 307.2889 307.6001
   307.6001 308.0468 308.2662 308.3612 308.3612 309.0738 309.0738 309.2516
   309.2516 309.3076 309.6719 309.7744 309.7823 309.9861 309.9861 310.1004
   310.1004 310.6694 311.1941 311.1941 311.3430 311.3430 311.3632 312.3033
   312.6106 312.6106 314.1838 314.1838 314.2783 314.5662 314.5662 315.0904
   316.1815 316.1815 316.3178 317.1871 317.1871 317.5203 317.6984 318.4796
   318.5293 318.5293 318.9300 318.9300 319.0448 319.0448 319.3971 319.4650
   319.4883 319.4883 319.5934 319.9354 319.9354 319.9354 319.9632 320.0092
   320.0092 321.9949 321.9949 322.2062 322.9634 322.9634 323.3044 323.7048
   323.7048 324.6695 324.6695 324.6919 325.4947 325.4947 325.6328 325.8217
   326.5218 326.5218 326.7629 327.3993 327.3993 327.5630 327.5630 327.7203
   327.7203 327.9980 328.6265 328.6265 328.6621 328.7982 329.3210 329.4329
   329.4329 330.4455 330.4455 330.8252 330.8252 331.4918 332.4149 332.5739
   332.6575 332.6575 332.7102 332.7102 333.5921 334.3324 335.2213 335.2213
   336.5183 337.0958 337.0958 337.1944 337.9030 337.9030 338.0428 338.5456
   338.5456 338.8041 339.0015 340.1747 340.1747 340.2834 340.4955 340.5871
   340.5871 341.0824 341.0824 341.4241 341.4241 342.0872 342.0872 342.2369
   342.2888 342.2888 342.5150 342.7268 343.2119 343.2119 343.6878 343.6878
   343.8926 343.9906 343.9906 344.6685 344.6685 344.9780 345.0804 345.0804
   345.2475 345.3997 345.4089 345.4089 346.3303 346.3303 346.4472 347.0489
   347.4985 347.4985 348.0585 348.1708 348.1708 348.3042 348.3337 348.8077
   348.8077 348.9238 348.9238 349.3464 349.3788 349.3788 349.5795 349.5795
   349.8464 350.4922 350.6525 351.6072 351.6072 352.0206 352.0206 352.4056
   352.4544 352.4604 352.4604 352.5905 352.6377 352.6377 352.9376 352.9514
   352.9514 353.8932 353.8932 353.9760 354.9109 355.4462 355.4462 356.1389
   356.6461 356.6477 356.6477 357.0918 357.0918 357.3687 357.3687 357.4117
   357.6820 357.6909 357.6909 357.9129 357.9129 358.0726 358.1984 358.2751
   358.2751 358.8340 358.8340 358.9074 359.9237 360.1403 360.1403 361.0530
   361.0530 361.6692 361.7982 361.7982 361.8543 362.3913 362.3913 362.5572
   362.8894 363.0266 363.4321 363.4321 363.4330 363.9497 363.9497 364.0428
   364.0428 364.6831 364.6831 365.8920 365.9950 366.4452 366.4452 366.8097
   367.3882 367.6565 367.6565 367.8354 367.8354 367.8367 368.4320 368.4320
   368.4811 368.9115 368.9647 369.0426 369.0426 369.2163 369.2163 369.4025
   369.7737 369.7737 370.1628 370.1628 370.2455 370.7877 370.7877 370.8043
   370.8537 371.0849 371.0849 371.6633 371.6633 371.9588 372.3573 372.4148
   372.4148 372.6567 372.6567 373.1899 373.2515 373.2515 374.0029 374.9525
   375.2151 375.3222 375.3222 375.6359 375.6359 376.1799 376.2597 376.6224
   376.6224 376.7620 376.7620 376.9930 378.4679 378.4679 378.5215 378.6964
   378.6964 378.8281 379.0651 379.0651 379.1993 379.1993 379.6124 379.6785
   379.7160 379.7160 379.9043 379.9043 381.0467 381.0467 381.1560 381.5080
   381.8424 381.8424 381.9368 382.1133 382.1374 382.1374 382.2129 382.2166
   382.2166 382.4612 382.5486 382.5486 382.5845 382.7977 382.7977 383.7449
   383.9650 383.9650 384.3777 384.3777 384.7501 385.1030 385.1030 385.7866
   385.7866 386.2223 386.3052 386.4835 386.4835 386.9954 386.9954 387.2710

          k = 0.5000-0.5000 0.5000 (  3648 PWs)   bands (ev):

   -20.5257  -6.6594  -5.6683  -5.6683  -3.6559   3.6817   4.5165   4.5165
    10.9627  11.0047  11.7670  11.7670  13.3038  13.3038  14.2675  14.2675
    14.7456  14.7456  15.0870  15.2602  15.3447  15.9649  16.7736  16.7736
    19.1109  19.1109  19.4328  21.2732  23.5563  24.8243  24.8243  26.7480
    26.7480  27.1504  28.3145  28.3145  28.7714  28.7714  29.2168  31.4666
    32.2853  35.0393  35.0393  35.0495  35.0495  36.3402  36.7154  37.1110
    37.1110  37.9199  37.9199  39.3676  39.8759  41.5348  41.5348  42.4364
    42.4364  43.8588  44.9801  45.7679  47.1240  47.1240  47.1564  48.3087
    48.3087  50.1212  50.1212  50.8072  50.8723  50.8867  50.8867  51.0682
    51.0682  51.5468  51.5468  52.4984  53.1459  56.0116  56.2194  58.4825
    58.4825  59.1345  59.1345  60.1765  60.1765  60.6431  60.6431  62.2390
    62.3527  63.3651  63.3651  63.4552  63.4552  64.1758  64.4744  64.4744
    64.5987  64.8933  65.1500  65.1500  66.7040  69.1109  69.7867  69.7867
    70.3815  70.3815  71.0592  72.8054  73.5391  73.5391  74.1821  74.1821
    74.3772  74.4344  75.0395  76.1394  76.4301  76.4301  76.5302  76.5302
    76.9098  78.2133  78.3985  78.3985  78.6889  78.6889  79.9944  82.2646
    82.2646  82.8496  82.8496  84.7964  84.9957  85.3547  85.3547  86.1990
    86.1990  86.3090  86.5991  87.3792  87.3792  87.6192  87.6192  87.7535
    87.7985  87.7985  87.9722  89.6111  89.6111  90.4961  92.0923  92.2729
    92.2729  92.3888  92.3888  93.4354  94.0224  94.3211  94.3266  94.8583
    94.8583  94.8857  94.8857  97.6325  97.6325  98.2985  99.9566  99.9566
   100.3046 100.3046 100.9785 100.9785 101.3063 102.0395 102.4433 102.4433
   102.8659 102.9077 102.9077 102.9575 104.8788 105.1198 105.1198 105.5212
   107.3780 107.3780 107.6148 108.0871 109.7853 109.7853 110.7173 110.7173
   110.8976 111.0857 111.9685 111.9987 111.9987 112.0505 112.8082 112.8082
   113.4203 113.4203 113.5562 113.7376 113.7824 113.7824 114.7338 114.7338
   114.7886 114.7886 115.0394 115.1301 116.2034 116.2034 116.5224 116.5224
   118.6805 119.6751 120.2065 120.2065 120.5241 120.5241 121.9755 122.0374
   122.6221 122.8235 122.8235 123.0720 123.2739 123.4574 123.4574 123.6870
   123.6870 124.3704 124.3704 124.5357 124.5357 125.3298 126.4211 126.4211
   126.5882 127.2059 127.3600 127.3600 127.6656 128.7006 129.0410 129.0410
   130.4712 131.3785 131.4113 131.4113 132.7102 133.7171 133.7171 135.1884
   135.1884 135.7753 136.1726 136.4151 136.4295 136.4295 136.7744 136.7744
   137.0834 137.0834 137.7666 137.7773 137.7773 138.5574 138.5574 138.6040
   138.6491 138.7395 138.9551 138.9551 139.5413 139.5413 139.8006 140.3361
   141.2672 142.2189 142.2189 143.3151 143.3151 144.8098 144.8098 144.8492
   145.2861 145.2861 148.1223 149.3512 149.3512 149.7394 149.9281 149.9829
   150.1932 150.5029 150.5029 150.5102 150.5102 150.9572 150.9572 151.1726
   151.3267 151.4875 151.4875 151.4908 151.4908 154.2991 154.2991 154.6115
   154.6634 154.8746 155.5896 155.6483 155.6483 155.6923 155.8600 155.8600
   156.2801 156.2801 156.4089 156.9781 156.9781 157.5866 157.6013 157.6120
   157.6120 157.9232 157.9232 158.3861 158.3861 160.2882 160.2882 160.3960
   160.3960 160.7541 161.0466 161.7326 161.7344 165.1181 165.1181 165.1701
   165.1701 165.3040 165.9621 166.2417 166.4157 166.4157 166.7454 166.7454
   167.6384 167.6384 168.4836 168.4836 168.5409 168.5559 168.5559 169.9660
   170.2881 170.2881 170.3999 170.5482 170.5482 170.6127 170.6954 170.9498
   170.9498 171.7948 171.7948 171.8123 171.9193 173.2469 173.2469 173.4968
   173.4968 173.5790 173.6785 174.4153 174.4153 175.3779 175.3779 175.6383
   178.3167 178.3167 178.8745 178.9051 178.9051 179.1975 180.1134 180.1134
   180.1868 180.3530 180.3530 180.6388 181.0382 181.0382 182.2407 182.5581
   184.1017 184.1133 184.1133 184.7200 184.7200 184.7391 185.3976 185.3976
   185.5322 186.1144 186.1144 186.1533 186.5800 186.5800 187.6233 187.8599
   187.9287 187.9287 188.3402 188.3402 188.7088 188.8204 188.8204 188.8410
   189.0085 189.7025 190.3745 190.3745 190.6209 190.6209 191.7972 192.4590
   192.4590 192.5182 192.5182 192.6399 192.6399 192.9031 194.0419 194.6763
   194.6763 195.1596 195.6019 195.6019 195.8520 195.8520 197.1468 197.7452
   197.7452 197.9454 198.9869 198.9869 199.4356 199.8959 199.8959 199.9856
   200.9983 200.9983 201.2845 201.6170 201.6170 201.8457 202.2027 202.2027
   202.9709 204.1734 204.3031 204.3031 204.4999 204.4999 204.6225 204.6344
   204.7922 204.7922 205.1809 205.1809 205.5027 205.8065 205.8065 206.3007
   207.6661 207.6661 208.2205 208.3295 208.3295 208.4897 208.6941 209.3352
   209.9306 209.9306 211.8477 212.3129 212.7566 212.7566 213.7732 213.7732
   213.8875 213.8875 213.9419 214.3101 214.3101 214.3120 215.1906 215.1906
   215.4722 215.9450 216.1028 216.1028 216.2664 216.3222 216.3222 216.6736
   217.5871 217.6757 217.9252 217.9252 218.0330 218.0330 218.2452 218.2452
   218.2915 218.2928 218.2928 218.8700 220.0709 220.7233 220.7233 221.1935
   221.1935 221.4130 221.5929 221.5929 221.6957 221.7644 221.7644 222.5568
   222.5986 222.5986 223.0230 223.0230 223.6507 223.9166 223.9166 223.9540
   223.9540 224.0729 224.2326 224.6195 224.6195 225.0408 225.7853 228.6378
   229.0158 229.0158 229.4752 229.4861 229.4861 229.9323 230.1115 230.1115
   230.1496 230.1496 230.8223 230.8223 230.9010 231.2005 231.5367 231.5367
   231.6759 232.3129 232.3129 232.3983 232.5400 232.6776 232.6776 234.7139
   235.4745 235.4745 235.5053 235.7321 235.7321 236.2193 236.2224 236.2224
   236.8625 237.3132 237.5503 237.5503 237.7413 237.9851 237.9851 238.4692
   238.4692 239.9180 240.0499 240.5573 240.5573 240.8141 240.8141 240.9673
   241.0845 241.2174 241.2174 241.4524 241.4524 241.5589 242.6044 242.6044
   243.1244 243.6587 243.6587 243.8049 244.9682 244.9682 245.9565 245.9565
   245.9667 245.9667 246.4129 246.4129 246.7896 247.5108 247.6888 247.6888
   247.7180 247.7243 248.2667 248.8295 248.8295 249.5837 250.3164 250.3164
   250.5892 250.5892 251.6915 251.6915 251.8408 251.9945 252.6259 252.6259
   252.8848 253.4492 253.6862 253.6862 254.3828 254.3828 254.4209 254.4209
   254.6560 254.6656 255.4748 256.1271 258.9475 258.9475 259.4229 260.2446
   260.2446 260.3489 260.3489 261.4716 261.4716 261.7259 261.8454 261.8454
   262.5151 262.5151 262.6039 262.8089 262.9963 263.1750 263.1750 263.5393
   263.5393 263.6262 263.8607 263.8607 263.9212 263.9644 264.2579 264.3755
   264.3755 264.4416 264.4416 264.4624 264.4624 265.2732 265.3048 265.3048
   265.3052 265.3052 266.2469 266.4937 266.5348 266.5348 266.5865 266.6803
   266.6803 267.4604 267.5525 267.5525 267.9584 268.1373 268.1373 268.3253
   268.3253 268.6778 268.6778 268.8478 269.9166 270.3792 270.6449 270.6449
   270.7252 271.1242 271.1242 272.1139 272.6443 272.9989 272.9989 273.0088
   273.0088 273.8730 275.1252 275.2334 275.2334 275.2615 275.2615 276.2952
   276.4834 276.4834 276.7625 278.0033 278.0033 278.5337 278.5337 278.6805
   278.7782 278.7782 279.0025 279.2063 279.3802 279.5932 279.6569 279.6569
   279.6823 279.6823 280.3965 280.8101 280.8101 281.1175 281.1175 281.4854
   281.4854 281.5981 281.8749 281.8749 282.3240 282.3654 282.7606 282.8903
   282.8903 283.2990 284.2703 284.2703 284.4290 285.0977 285.0977 285.7726
   285.7726 285.8424 286.8805 286.8883 287.3731 287.3731 287.6215 287.6981
   287.6981 287.9685 288.4066 288.4066 288.6010 288.6164 288.6164 290.9496
   290.9496 291.3008 291.3008 291.4575 291.6905 291.6905 292.0064 292.8204
   293.0270 293.0270 293.9966 294.0878 294.0878 294.1364 294.1364 294.2221
   294.9313 295.3409 295.3409 295.8777 295.8777 296.1912 296.5016 296.5617
   296.5617 296.6301 296.6301 296.9741 297.3261 297.4803 297.4803 297.5551
   297.9371 298.1294 298.1294 298.6691 298.6691 298.8450 298.8450 299.0646
   299.6373 299.6373 299.8688 299.8688 300.4284 301.3311 301.3311 301.8283
   301.8283 302.0010 302.1751 302.3900 303.2934 303.2934 303.3216 303.4278
   303.4278 303.8843 305.0838 305.0838 306.2119 306.3877 307.7673 307.8679
   307.8679 308.1984 308.1984 308.2033 308.2033 308.2655 308.3775 308.5837
   308.5837 308.8702 308.8702 309.0379 309.0379 309.1042 309.8493 311.0352
   312.2204 312.2204 312.2838 312.2838 312.2840 312.2991 312.7134 312.7134
   313.3834 313.3834 313.7054 314.0063 314.0063 314.8005 314.9300 315.1693
   315.1693 315.4022 315.4344 315.4344 315.7886 315.7886 316.7479 316.7479
   316.8012 318.3337 318.3337 318.5221 318.8506 318.8506 318.9471 319.1272
   319.1662 319.1791 319.1791 319.4192 319.4192 319.4843 320.6863 321.3793
   321.3793 321.5510 321.8088 321.9638 321.9638 322.2711 322.2711 322.5715
   322.5760 323.8350 323.8350 324.9206 325.0799 325.0799 325.4202 325.4202
   325.4760 325.9174 325.9174 326.5128 326.5128 327.0852 327.1023 327.1107
   327.1477 327.1477 327.2171 327.3318 327.3318 327.4212 327.4212 327.6517
   327.9851 328.0072 328.0072 328.1686 328.1686 328.2303 328.5112 328.5818
   329.1394 329.1394 329.2433 329.2433 330.4281 332.0146 332.1952 332.1952
   332.2353 332.3103 332.3103 332.4609 332.4609 332.5097 332.5097 332.6297
   332.6326 333.2406 334.9635 334.9635 336.0566 336.0566 336.3283 337.0823
   337.0823 337.4798 337.9636 338.5199 338.5199 338.6878 338.7358 338.7358
   339.3144 339.3144 339.3869 339.3869 339.5388 339.5667 340.0243 340.0261
   340.0271 340.0271 340.2322 340.2322 341.4480 341.9523 341.9523 342.1373
   342.1649 342.3833 342.3833 342.8588 342.8588 343.0636 343.0636 343.3068
   343.3068 343.5049 343.5472 343.9669 343.9669 344.0913 344.3147 344.3147
   344.3940 344.8831 344.8831 344.9638 345.0288 345.0689 345.0689 345.1035
   346.3139 346.6331 346.6331 347.2926 347.7747 347.7747 348.0006 348.0006
   348.0700 348.3753 348.3753 348.5951 348.7601 348.7601 349.4997 349.4997
   351.1851 351.1851 352.3527 352.3836 352.4999 352.4999 352.5309 352.5309
   353.1500 353.2103 353.2103 353.3014 353.3014 353.3501 353.4739 353.4739
   353.5818 353.7173 353.7184 355.4835 355.4835 355.5590 355.5590 356.1932
   356.1932 357.0089 357.0098 357.1854 357.7358 357.7358 357.7527 357.7527
   358.0903 358.8193 358.8193 358.8969 359.7216 359.7452 359.7452 360.0530
   360.0530 360.4104 360.4870 360.7197 361.0766 361.0766 361.4849 361.4849
   361.5413 361.5413 361.7789 362.7520 362.7520 363.0190 363.2939 363.3863
   363.5188 363.5645 363.5645 363.8500 363.9814 363.9814 364.2327 364.5614
   364.5614 364.5661 364.5661 365.2608 365.4159 365.4159 366.0384 366.4884
   366.4884 366.5348 367.6798 367.6798 369.3097 370.5856 370.6625 370.9854
   370.9854 371.3876 371.3876 371.5651 371.5738 372.1103 372.1103 372.1950
   372.1950 372.2916 372.2916 372.8520 372.8520 373.1301 373.1381 373.1917
   373.1917 373.2031 373.4080 373.4080 373.4919 373.4919 373.6045 373.6282
   374.0297 374.0297 374.1009 374.6937 375.0661 375.0661 375.1545 375.1545
   375.4387 375.4387 375.4962 375.5426 375.5426 375.8581 375.8581 376.0353
   376.1853 376.1853 376.2081 376.3229 376.9561 376.9917 376.9917 377.2237
   377.2237 377.3025 377.3026 377.3026 377.3027 377.6410 377.6410 377.8060
   377.8060 378.7180 380.7319 381.1876 381.1876 381.8382 382.3263 382.3263
   383.3679 383.3679 384.9634 385.1435 386.3220 386.3220 387.0534 387.0534
   387.1061 387.1061 387.4041 387.4173 387.4310 387.7674 387.7674 387.9251
   388.2732 388.2732 388.3197 388.3246 388.3246 388.3511 388.4120 388.4120

          k = 0.0000 0.5000 0.0000 (  3615 PWs)   bands (ev):

   -20.5390  -6.1580  -5.7197  -5.7197  -4.2432   4.2941   5.3341   5.3341
     8.3887  10.1202  10.8028  11.1589  11.1589  13.5349  14.3653  14.9258
    14.9258  14.9446  14.9934  15.4184  15.4184  16.9602  17.7770  17.7770
    18.5166  20.5933  21.8596  23.0707  23.1690  23.1690  24.1848  25.9016
    25.9016  27.3329  28.7978  29.3032  29.3032  29.3783  32.0026  32.0026
    32.3262  33.0929  35.2593  35.2593  35.4545  35.7591  36.1649  36.1649
    36.7090  37.5132  37.5488  37.5488  37.6481  39.0246  40.8475  41.2674
    43.1847  44.6295  44.6295  44.7485  45.7437  47.3338  47.6744  47.6744
    48.5822  48.5822  49.9437  50.6222  50.6222  51.4162  51.7605  51.7605
    52.5779  53.1703  53.2258  53.2258  54.0274  54.5246  57.4105  57.7352
    58.2635  58.2635  59.8229  59.8390  60.7425  60.7896  61.2865  61.2865
    62.1483  62.1483  62.6242  62.8341  64.2544  66.8441  67.4416  67.4416
    67.9234  67.9924  67.9924  68.4680  69.3105  69.4266  69.4266  70.3866
    70.5136  70.6719  70.6719  71.8585  72.3064  72.3064  72.8108  73.8331
    73.8688  74.3387  74.3387  74.7450  76.6127  76.6127  76.7061  77.1226
    77.7795  77.7795  78.0559  78.5157  78.7090  79.5761  79.5761  80.3224
    80.3474  80.3474  80.3574  81.1053  81.1053  81.4450  82.0265  83.5412
    83.7331  83.8744  83.8744  84.8363  85.5821  85.5821  86.5014  86.9624
    88.9623  88.9623  89.5570  91.5040  92.4429  92.9596  92.9596  92.9709
    93.2921  93.2921  93.6584  93.7648  94.1277  94.1277  95.0076  95.7197
    96.5487  96.5669  96.5669  97.7406  97.8761  98.6957  99.4030  99.4030
    99.8796  99.8796 100.0195 100.5975 101.0085 102.0749 102.0749 102.1055
   103.7792 104.1539 104.9754 105.2542 105.2542 105.9318 106.1540 106.6741
   107.5626 107.6367 107.6367 107.8025 109.2117 109.2117 109.4933 109.7409
   110.3655 110.7785 110.7785 111.2954 111.2954 111.9191 112.2842 112.2842
   113.2474 113.3803 114.1188 114.1712 114.1712 114.4558 115.5713 115.9830
   115.9830 116.1562 116.5127 116.5127 116.5888 117.0411 118.2557 118.2557
   118.4396 119.8506 120.0070 120.0070 120.2095 120.7719 120.7719 120.9493
   121.0247 121.4754 122.5105 123.2145 123.2145 123.8095 123.8095 123.8652
   124.5270 126.4473 126.5288 126.7665 126.7665 127.6579 127.6579 127.9620
   128.5011 128.7177 129.3520 129.3520 130.5381 131.3918 131.8482 132.0284
   132.2112 132.2112 132.4707 133.2128 133.4765 133.6640 133.8004 133.8004
   134.1186 134.1186 135.2176 135.2176 135.2713 136.3189 136.9867 136.9867
   136.9991 137.3081 137.3125 137.3125 137.3892 137.7867 138.2050 138.2347
   138.2347 138.6987 139.9288 139.9993 140.4945 140.5884 140.5884 141.2122
   141.2368 141.3881 141.3881 142.0880 142.0880 142.2130 142.5280 143.0538
   143.0541 143.0541 143.0674 143.0851 143.4766 143.4766 143.6481 143.6756
   145.7989 145.7989 146.9110 146.9110 147.1636 147.1918 147.5322 148.7966
   149.3798 149.4395 149.4395 149.4407 149.7102 150.8905 150.8905 152.4691
   152.5980 152.5980 154.6486 154.6571 155.8167 155.8167 156.3125 156.8136
   156.8136 156.8833 157.1339 157.1339 157.7060 157.7289 157.8746 159.8989
   159.8989 160.5080 160.9897 160.9897 161.0584 161.4930 161.6780 162.2340
   162.2340 163.0348 163.3858 163.7223 163.7223 164.1999 164.2935 165.2620
   165.2620 165.3539 165.6047 165.7939 165.8948 165.9690 165.9690 166.4946
   167.7051 167.7051 168.0744 168.9832 168.9832 169.0035 169.0079 170.2020
   170.6145 170.6906 170.8072 170.8072 173.3208 173.5447 174.2855 174.2855
   174.6432 174.9025 174.9025 174.9864 176.0870 176.7866 177.0956 177.0956
   178.0164 178.1061 178.2402 178.2402 179.0349 179.0349 179.2596 179.3287
   179.3989 179.6638 179.6638 180.3989 180.3989 181.1218 181.2243 181.6338
   181.7936 181.7936 182.6265 182.7368 182.7368 182.9339 183.3315 183.5711
   183.5943 183.8936 183.8936 184.0948 184.7490 184.7490 184.8548 185.2173
   185.2173 185.2497 185.4068 185.6500 185.6500 185.9179 185.9984 187.0193
   187.0193 187.2022 187.9644 188.4838 188.6082 188.7318 188.7318 189.0803
   189.0803 189.4848 189.5613 189.8075 190.2030 190.9844 191.2214 191.2214
   192.2353 192.6926 192.6926 192.8401 192.8463 193.4805 193.4805 193.5042
   194.0354 194.4767 194.4767 194.5228 194.6253 194.8463 194.8463 194.8734
   195.2986 195.2986 196.1849 197.4274 197.6032 198.6444 199.7799 199.7799
   200.3648 201.0312 201.2455 201.2455 201.6693 201.6693 201.6722 201.7800
   201.9800 202.6980 203.2021 203.2021 203.2342 203.6619 203.6745 203.8143
   203.8143 204.1850 204.1850 204.6295 205.1224 205.1224 205.5797 205.6924
   206.0380 206.0380 206.7177 206.8290 207.8270 207.8270 208.7598 209.4573
   209.4573 210.6893 210.8436 211.2636 211.2842 211.2842 212.2164 212.2491
   212.4716 212.4716 212.4985 213.0278 213.0278 213.0628 213.3710 213.7312
   213.7312 213.8918 214.0932 214.3111 214.3562 214.5868 214.5868 215.2221
   215.9429 215.9429 216.3180 216.8659 216.8659 216.9458 217.0100 217.3247
   217.6308 217.6308 217.7496 217.8685 217.9287 219.1494 219.1494 219.7997
   221.8170 222.5806 222.5806 222.6407 223.2411 223.3028 223.3028 223.5022
   224.4765 224.4819 224.6528 224.6528 225.2783 225.2783 225.5567 225.8070
   225.8070 225.8399 226.3588 226.3669 226.4338 226.7528 226.7528 226.7957
   227.3671 227.5472 228.1799 228.1799 228.2574 228.6946 228.6946 228.7140
   228.9504 228.9504 228.9601 229.1171 229.5733 229.5733 229.8458 229.9220
   230.1530 230.1530 230.6633 231.2788 231.2788 231.9798 232.5181 233.3734
   233.4698 233.8580 234.3213 234.3213 235.4845 235.8922 235.8922 236.5451
   236.9501 237.7059 238.6841 238.6841 238.7455 239.3633 239.3633 240.4062
   240.4062 240.8343 240.8484 241.5676 243.3181 243.3181 243.4136 244.0904
   244.1102 244.4526 244.8695 244.8695 244.9018 245.2796 245.8848 246.3606
   246.3606 246.7419 246.7419 246.8304 247.0707 247.1193 247.5776 247.5776
   248.0275 248.2734 248.3612 248.3985 248.3985 248.8149 248.8149 248.8477
   249.0892 249.0914 249.1859 249.1859 249.3395 249.8705 250.4851 250.4851
   250.7091 250.8465 250.8491 250.9234 250.9234 251.2274 252.7514 252.7514
   252.8568 253.3952 253.4391 253.4391 253.5360 253.6101 254.2230 254.4743
   254.4743 254.6611 254.6611 254.8068 255.0891 257.2436 257.2436 257.3993
   258.0231 258.3230 258.7958 258.7958 259.2224 261.6484 261.8206 261.8206
   261.9926 262.2772 262.2772 262.3635 262.6304 262.7584 263.2959 263.2959
   263.5910 263.6280 263.6280 263.7290 263.9837 264.0105 264.1111 264.1111
   264.4549 264.6553 264.6553 264.7129 265.0479 265.5793 265.5793 265.7104
   266.2294 266.2294 266.9291 266.9291 267.1225 267.5050 267.8932 268.3174
   268.4470 268.4470 268.9244 268.9244 269.1839 269.7367 270.1978 270.2858
   270.2858 270.5068 270.6775 271.2581 271.2760 271.4817 271.4817 271.5317
   272.6724 273.4739 273.4995 273.4995 273.5776 273.6891 273.7644 273.7644
   273.8174 273.9284 274.2265 274.2265 274.2872 275.2951 275.3954 275.3954
   275.5151 275.8801 276.4687 276.4687 277.3904 277.6536 277.7052 277.7457
   277.7457 277.8130 278.7230 278.8050 278.8050 279.8183 279.8183 280.8167
   280.9920 281.2235 281.7722 281.8953 281.8953 282.6371 282.6371 282.8071
   283.0073 283.5445 283.6074 283.9170 283.9170 283.9426 283.9951 284.6002
   284.6002 284.7971 285.1420 285.1462 285.4104 285.4104 285.9440 285.9440
   286.3333 286.4981 286.4981 286.8154 287.0959 287.1974 287.1974 287.2318
   287.4397 287.5141 287.5909 287.5909 287.7196 287.8470 287.8470 288.0848
   288.2634 289.7113 290.1927 290.1927 290.5861 291.2321 291.9925 291.9925
   292.1918 292.2881 292.4965 292.4965 293.2649 293.3609 293.5150 293.7527
   293.8765 293.8765 294.1955 294.2160 294.2160 294.2511 294.2663 294.5044
   294.7644 294.7644 294.7715 294.8633 295.5825 295.5825 296.1264 296.1264
   296.2625 296.3259 296.4556 296.5808 296.5808 296.9828 297.0620 297.0620
   297.8514 297.9381 298.5582 298.5582 298.6220 300.4269 300.4557 300.5783
   300.5783 301.1939 301.1939 301.6654 302.7468 303.0367 303.3394 303.3860
   303.3860 303.7808 304.2481 304.2481 304.4488 305.1725 305.2811 305.4809
   305.4809 305.9169 306.7474 306.7474 307.0495 307.2374 308.3948 308.3948
   308.5499 308.5986 308.8832 309.6068 309.9587 309.9587 310.5679 310.5679
   311.3714 312.4424 312.4424 312.7719 312.8920 313.1481 313.1928 313.2962
   313.2962 313.7892 313.9775 313.9775 314.5145 314.7470 314.9879 314.9948
   314.9948 315.3538 315.7219 315.7350 315.7350 315.8485 316.1861 316.4584
   316.6229 316.6229 317.0998 317.1013 317.1013 317.6809 318.1378 318.9144
   318.9144 319.3792 319.5532 319.6740 319.6740 319.7712 320.1401 320.7221
   321.0363 321.0785 321.0785 321.5311 322.2206 322.2206 323.3279 323.6065
   323.6162 323.6162 323.6831 323.6886 323.8854 324.1891 324.1891 324.8957
   324.8957 325.1211 325.5287 325.9667 325.9667 326.3228 326.4987 326.9618
   326.9618 327.1882 327.3120 327.3120 327.4581 327.4733 327.5668 327.6196
   327.6196 329.1656 329.1656 329.6082 329.7046 330.2787 330.2787 331.0022
   331.0022 331.1728 331.3580 331.4091 331.5300 331.5300 331.5840 331.6794
   331.7159 331.7159 331.9784 332.1991 332.1991 332.2899 332.6708 332.7048
   332.9191 333.1529 333.4197 333.4197 334.0243 334.0243 334.2693 334.4039
   334.4366 334.4366 335.0485 335.1726 335.6900 335.6900 337.2971 337.3687
   337.3687 337.4921 337.7680 337.8372 337.8372 338.7658 338.8695 338.9581
   339.6230 340.1754 340.1754 340.1883 340.3036 340.8556 340.8556 341.6002
   341.6202 341.6964 341.8003 341.8726 341.8726 342.5313 342.8745 342.8918
   342.9685 342.9685 343.2534 343.3508 343.6666 343.6666 343.8462 343.8462
   343.8663 344.5156 345.3194 345.5162 345.6905 345.6905 347.6780 348.4108
   348.4311 349.1587 349.2403 349.2403 349.8786 350.2038 350.2038 350.3754
   351.0647 351.0647 351.1674 351.5632 351.5632 351.8768 353.0699 353.2759
   353.5034 353.5034 353.6273 353.9092 353.9092 354.1286 354.1488 354.9159
   355.2879 355.2879 355.6124 355.6664 355.9418 355.9418 356.4606 356.4726
   356.6014 356.9046 356.9046 357.1541 357.1541 357.1610 357.1886 357.4299
   357.4299 357.6985 358.7559 358.7936 358.7936 359.1383 359.1887 359.9920
   360.0540 360.5049 360.6224 360.6224 360.7012 360.9802 360.9802 361.4684
   361.6470 361.6470 362.0310 362.0310 362.3658 362.6795 362.6795 362.8732
   363.3102 363.3102 363.6436 363.7744 364.4926 364.5958 364.8354 364.9603
   364.9603 365.6010 365.6010 365.6058 365.8273 366.5206 366.5465 366.6835
   366.6835 367.3384 367.6008 367.6645 367.6645 367.7988 368.4239 368.4239
   368.6812 368.8401 369.0285 369.0285 369.0410 369.0584 369.2733 369.4196
   369.4196 369.6028 370.3915 370.5077 370.5077 370.6013 370.8107 371.9868
   372.2580 372.6565 372.6565 373.2489 373.2489 373.3958 373.8070 373.9763
   373.9763 374.3541 374.3541 374.3900 374.5226 374.6557 374.6557 374.9904
   375.0549 375.5684 375.6649 375.7064 375.7064 375.8003 376.3480 376.3505
   376.3505 376.4787 376.7709 377.3024 377.4290 377.4290 377.9088 378.4302
   378.5449 379.0567 379.0567 379.8744 379.9937 380.1918 380.1918 380.4369
   380.6720 380.7037 380.7037 380.9279 380.9449 380.9763 381.0182 381.0182
   381.1634 381.1760 381.1772 381.1772 381.1878 381.5491 381.5491 382.1513
   382.2524 382.2524 382.2982 382.4413 382.9557 382.9557 383.3155 383.8708
   385.3613 385.7684 385.8903 385.8903 386.2407 386.7461 386.7580 386.7580
   387.1498 387.1498 387.1741 387.4251 387.9121 388.0734 388.0734 388.1256

          k = 0.7500-0.2500 0.7500 (  3637 PWs)   bands (ev):

   -20.5200  -6.3654  -5.8247  -5.7378  -4.0915   4.3759   4.8066   4.9103
     8.9664  11.3437  12.1512  12.2513  12.4726  13.4403  13.7258  13.9663
    14.9694  15.1140  15.1399  15.3724  15.4296  16.0173  17.2608  17.3671
    19.0845  19.6587  20.1691  21.8120  22.8818  22.9964  23.9783  25.1395
    25.8329  27.2938  27.6458  28.3589  30.0953  30.3470  30.8403  31.9180
    32.2360  32.8670  33.3108  34.6288  34.7906  35.5943  35.7397  36.1087
    38.5099  39.2830  40.0421  41.2484  41.4676  41.9280  42.9535  43.1536
    43.3927  43.9154  44.1654  45.0604  45.7888  45.9855  47.0222  47.1657
    47.4950  48.4600  49.6189  51.2643  51.5712  52.1535  52.4234  52.6142
    52.7379  53.1671  53.6870  53.8715  55.1334  55.1801  55.5824  55.7493
    55.9376  57.3107  57.4800  58.2021  58.9103  60.2393  60.7837  60.9358
    61.4988  61.6656  61.9786  62.3065  62.8536  64.0254  64.6380  65.3476
    65.6432  65.7479  67.0073  67.5164  67.5646  68.6718  69.3401  70.0024
    70.1064  70.5319  71.4760  71.7321  72.0958  72.3638  72.5813  73.0472
    73.1023  73.4191  73.5787  74.5068  75.5518  75.9745  76.1072  78.0849
    79.4005  79.7829  79.9996  80.2533  80.5901  81.2193  81.3309  82.2500
    82.5030  82.8167  83.1542  83.9676  83.9851  84.2258  85.7924  85.9441
    86.2798  86.2942  86.8023  86.9258  87.4699  87.5692  87.5957  88.6020
    89.3917  89.9965  90.1973  90.6359  91.0879  91.5081  91.7952  92.4861
    92.6215  93.7178  94.2850  94.9392  95.3496  95.3516  95.5899  95.6421
    96.3622  96.5425  96.9497  97.1149  97.5947  97.7126  97.9657  99.2648
    99.3131  99.8126 100.6640 100.7487 101.0476 101.6123 101.9525 102.3348
   102.8662 102.9504 103.3993 103.5803 104.1362 104.8254 105.0896 105.3047
   105.6416 105.8944 106.3159 106.4323 106.7298 107.2591 107.5507 107.7203
   108.1664 108.6237 109.2008 109.2778 110.3798 111.0293 111.0796 111.4245
   111.7464 112.9164 112.9488 113.1990 113.7120 114.0670 114.7006 114.9074
   115.1430 115.3837 115.6341 115.6531 116.4311 117.9031 118.1227 118.4904
   118.8893 119.2602 119.6548 120.0547 120.4066 120.5284 120.6978 120.9563
   121.9517 121.9805 122.5056 122.9392 123.0652 123.7595 124.1663 124.7372
   124.9151 125.1200 125.5027 125.8981 126.2475 126.5018 126.7008 126.8595
   126.9601 127.5159 127.9812 128.0728 128.3904 129.3098 129.5396 130.1724
   131.2366 132.7253 133.2082 133.3550 133.6419 133.8101 133.8721 134.3921
   134.4042 134.5727 134.7684 135.2264 135.5934 135.6453 135.8463 136.2002
   136.3865 137.5293 138.4947 138.6152 138.7166 139.4863 139.5823 139.9026
   140.6681 140.8996 141.4489 141.6235 141.6980 141.9175 142.3954 142.5343
   142.5640 143.2440 143.2679 143.8415 143.9807 144.2732 144.7321 145.0650
   145.5010 146.2645 146.4408 146.6765 147.1824 147.3415 147.3820 148.3908
   148.8115 149.2255 149.7555 150.1037 150.2202 150.3854 150.5584 150.7506
   151.2727 152.0540 152.4459 152.7071 152.7961 152.8530 153.2103 153.2279
   153.5354 153.8203 154.2583 154.3809 154.9613 154.9866 155.3030 155.6661
   155.9140 156.2335 156.3038 156.4117 156.7199 157.2550 157.8929 158.2433
   158.7231 159.2802 159.3435 159.7187 160.3755 161.1101 161.2209 161.8218
   161.8295 162.2449 162.2936 162.8354 163.1096 163.3543 163.9478 164.1117
   164.3044 164.3771 164.7462 164.8986 165.3023 165.4130 166.2091 166.3481
   166.7636 167.4392 167.6445 167.6728 168.2821 169.3316 169.5355 169.6361
   169.7487 170.1753 170.2553 170.5039 170.6829 171.4197 171.5428 172.0037
   172.0537 172.3229 172.3827 172.5402 172.7231 172.9168 173.2325 173.5349
   174.3427 174.9410 175.0003 175.0668 175.3335 175.4877 176.1451 176.1807
   176.6331 176.9127 176.9420 177.4785 177.6664 178.2414 178.4202 179.3002
   179.4120 179.6073 179.7595 180.3460 180.6694 180.6809 180.9356 181.5158
   181.5924 181.6117 182.6259 182.9756 183.8723 184.3606 184.7023 184.9471
   185.3624 186.0079 186.2792 186.4648 186.5209 186.7981 186.8862 187.1149
   187.2392 187.8107 188.1107 188.4384 188.7978 189.2306 189.2507 189.6837
   189.7071 190.4759 191.0451 191.1475 191.4902 191.7108 191.7570 191.9003
   192.4831 192.6104 193.3917 193.3939 193.6084 193.8773 193.9302 194.2674
   194.4891 195.1780 195.3703 195.6635 195.8096 195.9965 196.1233 196.8264
   197.0407 197.3778 197.8483 198.1079 198.6594 198.7858 199.8705 200.1853
   200.6371 200.7069 201.5479 201.8976 201.9641 202.2546 202.4800 203.0950
   203.2209 203.6328 203.6768 204.2404 204.5545 204.6735 205.1310 205.1869
   205.4469 205.5147 205.9620 206.1648 206.1827 206.8578 207.1959 207.6042
   207.9267 208.0483 208.4051 208.6200 208.8237 209.0063 209.2566 209.5095
   209.7362 209.8154 210.6836 210.9506 210.9747 211.1524 211.3635 211.5137
   211.8432 212.2278 212.5530 212.6380 213.3146 213.4150 214.1940 214.3817
   214.5268 214.9133 215.4956 215.5605 215.9706 215.9910 216.5437 217.0473
   217.1976 217.7582 218.2926 218.4890 218.9675 219.0867 219.2411 219.3978
   219.6662 219.8635 220.3354 220.8598 221.0061 221.1496 221.3895 221.8257
   221.9875 222.0827 222.5395 222.6316 222.8893 223.5121 223.5297 223.7623
   224.0121 224.1540 224.3021 224.6013 224.6886 224.9754 225.1969 225.9056
   225.9740 226.3842 226.4848 226.7950 227.1645 227.2945 227.3077 227.9148
   228.4002 228.5893 228.6190 229.1908 229.3339 229.5093 229.6649 230.5882
   230.9237 231.1436 231.2838 231.3748 231.4361 231.8187 231.9287 232.2779
   232.7482 233.0304 233.0822 233.5487 233.5856 233.8013 234.2155 234.6606
   234.7459 235.2780 235.3768 235.7203 236.1697 236.2116 236.2260 236.8465
   236.8763 237.5285 237.6497 237.7106 237.9193 238.8483 239.0046 239.1954
   239.2563 239.3703 239.4823 240.0604 240.5122 241.0259 241.2094 241.4624
   241.4735 242.0699 242.3778 242.4905 242.5354 242.7395 243.1776 243.5536
   243.7579 244.5907 244.8362 245.0666 245.8032 245.8659 245.9639 245.9826
   246.1937 246.7124 246.8880 247.0315 247.1491 247.3422 247.3471 247.6437
   247.7710 247.9014 248.0111 248.3010 248.8894 249.1580 249.4362 249.8189
   249.9822 250.1667 250.3690 250.4715 250.5539 251.1719 251.2799 251.4021
   251.9223 251.9302 252.3036 252.3184 253.6120 253.6795 253.8700 253.9677
   253.9844 254.4903 254.5101 254.6728 255.0327 255.6963 255.8726 256.1734
   256.5111 256.6692 257.1276 257.1696 257.5265 257.7052 257.9321 258.6787
   258.7118 259.1531 259.2445 260.1207 260.3111 260.3713 260.4564 260.4841
   260.7540 261.3533 261.7697 261.7995 262.0784 262.2395 262.5279 262.7068
   262.8701 263.0320 263.2685 263.3125 263.4012 263.5138 263.7524 263.9523
   264.0660 264.5080 264.8660 264.9197 265.8859 266.0926 266.3369 266.9054
   267.2747 267.3353 267.4686 267.7495 268.1899 268.2228 268.5170 268.5299
   269.4138 269.5957 270.1493 270.7860 270.9196 271.1375 271.3145 271.7229
   271.8433 272.0958 272.3911 273.6157 273.6679 274.0527 274.1153 274.3573
   274.6120 274.7558 275.1791 275.2045 275.3735 275.8258 275.8834 275.9404
   276.4847 276.8772 277.1203 277.4574 277.5639 277.7232 278.0527 278.1466
   278.2848 278.3735 278.6204 278.8330 279.1050 279.1237 279.3883 279.4304
   280.0903 280.6828 280.7300 281.1936 282.3207 282.3773 283.0348 283.0559
   283.3447 283.8389 284.5491 284.7059 284.7665 284.9733 285.0623 285.3304
   285.6206 285.8155 285.8344 286.1414 286.1942 286.3285 286.6118 286.9244
   287.1477 287.1651 287.1742 287.3830 287.7512 287.8376 287.8857 288.3802
   288.7581 288.7886 289.2799 289.4046 289.7493 289.9409 290.4483 290.5098
   290.7891 290.9496 291.0273 291.2426 291.8823 291.9777 292.0212 292.1667
   292.6917 292.7294 292.8143 293.6597 293.7004 293.8156 294.1049 294.2217
   294.2364 294.3022 295.3247 295.5054 295.7423 295.9740 295.9963 296.5082
   296.5253 297.2121 297.4792 298.0718 298.1106 298.2075 298.4704 298.6931
   298.7360 299.0232 299.3765 300.0717 300.3507 300.6228 300.6246 301.2513
   301.4546 301.5900 301.7315 302.0798 302.1386 302.2170 302.3214 303.0958
   303.3561 303.3765 303.5860 304.4866 304.6911 304.8443 304.9410 305.2585
   305.5055 305.5482 306.0141 306.3063 306.8780 307.3466 307.6394 307.6747
   307.6833 308.0284 308.1720 308.3669 308.4953 308.8874 308.9905 309.1972
   309.6215 309.8799 310.0795 310.3443 310.7028 310.8457 311.2217 311.5665
   311.7023 312.0174 312.2903 312.3288 312.8350 312.8465 313.0072 313.2624
   313.3829 313.6471 313.7612 313.9404 314.2309 314.4902 314.8673 314.9754
   315.4866 315.5779 315.7136 315.8090 315.9884 316.1180 316.3452 316.3942
   316.6579 317.0341 317.1191 317.4613 317.5126 317.9801 318.0495 318.2923
   318.3937 318.8108 319.1506 319.2198 319.2303 319.3637 319.5770 319.8348
   319.8818 320.1104 320.2063 321.0159 321.3843 321.6120 321.6790 321.7341
   321.9347 322.2811 322.3978 322.5947 322.8075 323.1176 323.3393 323.3923
   323.5824 323.6850 323.8480 323.9153 324.2360 324.8990 325.8486 326.4846
   326.8244 327.1726 327.3342 327.7730 327.7748 328.0211 328.3336 328.4938
   329.0649 329.4726 329.6030 330.1047 330.1152 330.3974 330.4218 330.7114
   330.8670 330.9536 331.0097 331.1461 331.1643 331.2792 331.3416 331.5898
   331.7344 331.7979 331.9572 332.1012 332.1489 332.2153 332.6029 332.9088
   332.9972 333.0802 333.5551 333.8485 333.9602 334.1650 334.3028 334.6417
   334.7546 335.1000 335.2673 335.2723 335.4727 336.1287 336.2194 337.0000
   337.5727 337.5894 338.1598 338.6252 338.7663 338.9401 339.1810 339.3929
   339.6837 339.7876 339.9191 340.0189 340.0766 340.4520 340.8863 340.9376
   341.1347 341.4559 341.8735 341.9978 342.1378 342.5373 342.6770 342.9653
   343.2487 343.4989 343.5089 343.7893 343.9332 344.3091 344.4417 344.4650
   344.4751 344.5403 344.5947 345.0366 345.1981 345.5394 345.5870 345.6233
   346.5938 346.6936 346.8319 347.0384 347.5366 347.7857 348.1170 348.3869
   348.8070 349.0132 349.0513 349.2707 349.5118 349.6750 350.1545 350.2681
   350.3340 350.6909 351.1136 351.2435 351.5520 351.6492 351.9233 352.0097
   352.1779 352.2422 352.3881 352.5544 352.6790 353.1158 353.4491 353.6486
   353.7401 354.1858 354.4635 355.0048 355.0374 355.1040 355.2419 355.6906
   356.2301 356.3241 356.8716 357.1915 357.2686 357.7353 357.8213 358.0413
   358.1446 358.2709 358.3990 358.6603 358.8497 359.0926 359.1955 359.3315
   359.4561 359.8235 360.0623 360.3166 360.5624 360.6226 360.9583 361.2629
   361.9075 361.9993 362.2633 362.4141 362.6255 362.6748 362.9201 363.1785
   363.6601 363.6761 363.7923 363.9182 364.5112 364.5878 364.7224 364.8102
   365.2237 365.2298 365.4667 365.5744 365.9211 365.9247 366.3444 366.4058
   367.0132 367.2700 367.8138 367.9532 367.9895 368.0392 368.4105 368.4172
   368.5007 368.5774 369.1267 369.4121 369.6515 369.7495 369.9612 370.4468
   370.8306 370.9337 370.9984 371.7935 371.9061 372.0207 372.2236 372.4869
   372.7677 372.9312 373.2707 373.4336 373.6974 373.9604 374.0353 374.1504
   374.3194 374.7179 374.9654 374.9840 375.6253 376.0951 376.1010 376.4133
   376.4324 376.6600 377.1124 377.1875 377.3422 377.8323 377.8666 378.0685
   378.3284 378.8436 379.7117 379.7981 379.8813 380.5956 380.7245 380.9719
   381.1866 381.9173 381.9573 382.1610 382.3929 382.4469 382.8478 383.1179
   383.2000 383.3677 383.4588 383.5100 383.5660 383.7700 383.8531 384.1483
   384.2635 384.2816 384.5745 384.6032 384.8624 385.4834 385.4923 385.8645
   385.9256 386.1808 386.5990 386.9088 387.0666 387.0842 387.6730 387.7305
   388.0303 388.4872 388.5778 388.6603 388.9993 389.0323 389.3044 389.4160

          k = 0.5000 0.0000 0.5000 (  3651 PWs)   bands (ev):

   -20.5261  -6.4250  -5.8306  -5.6695  -3.9109   4.0251   4.5883   5.0740
     9.9441  10.7541  10.7737  11.4747  12.8565  14.1010  14.5450  14.7141
    14.8333  14.9820  15.0828  15.0923  15.1768  16.2011  17.1658  17.3381
    18.7782  19.2094  20.7676  21.9807  22.5857  22.9144  24.1086  25.9703
    26.4579  27.9638  28.8164  28.8177  29.2855  29.5855  30.1510  31.5194
    32.5419  33.8304  34.0440  34.5669  35.0105  35.3485  35.8165  36.7131
    37.8721  38.1806  38.7921  40.0792  40.6570  40.8682  41.7935  43.2448
    43.4013  43.9194  43.9545  44.5756  45.7808  47.2965  47.3297  47.8658
    48.0544  49.2167  49.9753  50.6340  50.8065  51.2667  51.3874  51.5678
    52.3770  52.8374  52.8504  53.1585  54.9491  55.2071  56.5242  56.6418
    57.0778  58.2876  59.3407  60.4799  60.9081  60.9385  61.1348  61.2700
    61.9303  62.0212  62.0938  62.9937  63.0195  63.2734  64.1739  64.9041
    65.1967  65.2691  65.5196  66.6184  68.2156  68.6217  69.1548  69.1914
    70.8419  71.4412  72.0878  72.1745  72.2943  73.5546  73.7552  74.1122
    75.0960  75.3252  75.3699  75.6977  76.2665  76.3565  76.8223  77.5913
    77.7457  77.9384  78.5272  78.9348  79.2246  79.6341  79.7869  80.6968
    81.8414  82.1461  82.1748  83.0108  83.4142  84.0476  84.2430  84.5024
    84.5166  84.8513  86.1590  86.4379  86.5265  86.7525  86.7961  87.5003
    89.9305  90.6640  91.3578  91.3827  91.5129  92.1209  92.1211  92.8181
    92.9070  93.5887  94.3778  94.6296  94.7058  95.3628  95.8815  95.9352
    96.2568  96.6910  96.6928  97.0389  97.1918  97.5353  97.9041  98.1918
    98.9045  99.0004  99.4393 100.2895 101.1937 101.2977 101.4936 101.9220
   102.7749 103.3194 103.7189 104.1445 105.0726 105.8404 105.9285 106.5582
   106.5850 107.2248 107.4263 107.8606 107.9713 107.9799 108.4158 108.8121
   108.9191 109.5882 110.6449 110.7025 111.0786 111.2118 111.4565 111.5945
   111.8184 112.1721 112.6811 112.9438 113.9783 114.1187 114.5103 114.8139
   115.4292 116.0533 116.8648 117.1139 118.0310 118.3271 118.4698 118.5453
   119.0782 119.5746 119.7290 120.1114 120.1254 120.9281 120.9669 121.0410
   121.2737 121.3187 122.3236 123.2673 123.7097 124.0408 124.5073 124.6896
   125.6388 125.7361 125.8220 126.0729 126.1445 126.6256 127.1067 127.4161
   127.6014 128.2052 128.2386 128.6296 129.1244 129.2948 129.3302 129.3909
   129.8486 130.4724 130.5484 131.8441 132.5347 132.6690 132.7762 133.3016
   133.7320 134.4966 134.5504 134.6198 135.1581 135.2933 135.9054 135.9936
   136.0193 137.3655 137.4282 137.7525 138.0542 138.5554 138.9925 140.0810
   140.5643 140.7008 140.8991 141.2509 141.3331 141.5548 141.7512 142.1702
   142.3937 142.7124 143.0622 143.7209 143.8612 143.9391 144.3519 144.3804
   144.7884 146.3201 146.5197 146.5948 146.6126 146.7407 147.0327 147.2797
   147.3232 147.8606 148.6930 148.9769 149.1668 149.2012 149.9135 150.9416
   151.2399 151.6403 152.0783 152.1286 152.8577 153.4239 153.4844 153.5087
   154.1448 154.4900 154.5377 154.8938 155.8315 156.1587 156.3280 156.7784
   156.8929 157.1209 157.1276 157.5767 157.9251 157.9491 158.0772 158.2419
   158.6073 158.7428 158.9775 159.1742 159.6924 160.1775 160.4568 160.7470
   161.2213 161.3049 161.9277 162.2495 163.2766 163.3342 163.8636 164.2096
   164.2336 164.9488 165.5975 165.9760 166.7202 167.2939 167.4784 167.7794
   167.8794 167.9861 168.2475 168.3371 168.5330 168.7954 168.8098 168.8917
   169.4647 170.0974 170.5669 170.8563 171.1240 171.2990 172.0068 172.0500
   172.2518 172.3158 172.3301 172.3451 172.4633 172.8688 172.9165 173.1889
   173.1952 173.4974 175.0685 175.1012 175.3584 176.6176 177.0766 177.5730
   177.8459 177.9705 178.0860 178.7606 179.1447 179.6416 180.1789 180.2364
   180.2932 180.5684 180.8875 180.9773 181.0678 181.0766 181.4514 181.6676
   182.6629 182.9941 183.3880 183.7668 183.9697 184.1829 184.2176 184.4948
   184.5426 184.7737 185.0399 185.4477 185.6390 185.6516 186.2497 187.8906
   188.0564 188.6265 188.7254 189.0171 189.1695 189.7266 189.7392 189.7515
   190.0201 190.3503 190.5413 190.9624 191.0313 191.5186 191.6981 191.8210
   192.2485 192.6814 192.7643 192.9493 193.1972 194.0993 194.1147 194.2628
   194.4017 194.6023 194.6420 195.1955 195.2666 195.4790 195.9571 196.9432
   198.4566 198.4687 199.2367 199.8273 199.8669 200.7432 200.9046 201.6518
   201.9381 202.5041 202.6163 202.7418 202.9697 203.2534 203.2598 203.3716
   203.7790 204.1371 204.1845 204.3095 204.3314 204.6181 204.8827 204.9312
   205.1904 205.5365 205.5525 205.7580 205.7836 205.8964 206.1912 206.3341
   206.9052 207.4093 207.5343 208.0628 208.2527 208.4475 208.7400 208.9119
   208.9613 209.0577 209.3974 209.4014 209.7519 209.8247 210.2922 211.0522
   211.1029 211.1631 211.3442 212.2537 212.6686 213.4097 213.4664 214.0258
   214.1935 214.4958 214.6095 214.9969 215.2909 215.4865 215.8289 215.9798
   216.0198 216.1733 216.8553 217.1984 217.6486 218.0201 218.1497 218.4190
   218.5659 218.6462 219.2796 219.4102 219.7144 220.1188 220.2487 221.0052
   221.0414 221.6630 222.3495 222.4364 222.5211 222.5833 222.6754 223.2927
   223.5125 223.6232 223.9848 224.2004 224.2342 225.1576 225.4786 225.5279
   226.3248 226.6340 227.1539 227.1805 227.5743 227.6239 227.8158 227.9183
   228.0526 228.3897 228.8110 228.8726 229.1245 229.2384 229.3034 229.9386
   230.0933 230.2058 230.5224 230.5890 231.4715 232.0292 232.3092 232.4685
   233.3470 233.3912 233.4490 233.5823 233.9233 234.5070 234.8627 234.9996
   235.0141 235.5201 235.8219 236.1469 236.3552 236.7305 236.7676 237.1704
   237.6234 237.6807 237.9566 238.0901 238.5397 239.0892 239.2212 239.2510
   240.0230 240.2176 240.3513 240.5047 240.7604 241.5981 241.7554 241.8898
   242.0267 242.1005 242.1019 242.2581 242.5256 242.5662 242.9536 243.1944
   243.2972 243.4213 243.7026 243.7301 243.7537 243.8935 244.3132 244.5135
   245.0651 245.6758 246.2724 246.9752 247.2748 247.4427 247.7202 247.9501
   248.0292 248.3378 248.4297 248.6480 248.9411 249.3696 250.1705 250.2142
   250.8815 250.9286 251.1358 251.2406 251.2645 251.5507 251.7471 252.7613
   253.0323 253.4855 253.5515 253.7240 254.0323 254.0540 254.4449 254.8999
   254.9034 254.9349 255.3643 255.8662 256.0876 256.5616 256.9652 257.0317
   257.0418 257.1928 258.1451 258.1576 258.5463 258.6739 258.7459 258.8058
   259.1492 259.8196 259.8970 259.9098 260.1298 260.9416 261.0059 261.4109
   261.8453 262.3635 262.3984 262.9269 263.1064 263.4497 263.4639 263.7094
   264.0699 264.4321 264.4891 264.5503 264.9717 265.6375 265.7927 266.0409
   266.2121 266.5122 266.5355 266.5459 266.5929 266.9884 267.4517 267.4719
   267.6520 268.2275 268.3246 268.8409 269.0118 269.0829 269.5912 269.9707
   269.9731 270.7277 270.7330 270.8358 270.8404 271.0345 271.1613 271.4616
   272.2385 272.3038 272.6595 272.8111 272.9830 273.2257 273.2569 273.2702
   274.1632 274.5037 275.1858 275.3185 275.4293 275.5040 275.9879 276.0748
   276.3930 276.6343 276.7791 276.8008 276.9594 277.6041 277.8609 278.0796
   278.1008 278.8101 278.9837 279.2693 279.5652 279.5872 279.6573 280.0323
   280.2286 280.2724 280.2950 280.4741 280.5030 280.8549 280.9390 281.0384
   281.1354 281.1618 282.2786 282.6989 282.7276 282.9250 283.0430 283.6592
   284.0943 285.0126 285.4264 285.7775 285.8615 285.8928 286.1983 286.2809
   286.3446 286.4195 286.9951 287.5316 287.9291 288.1239 288.3621 288.3839
   288.3844 288.5910 288.7623 289.6064 289.6091 289.9246 290.1521 290.4520
   290.4883 290.8640 291.1698 291.2405 291.8691 291.8872 291.9270 292.2518
   292.2901 292.6149 293.5041 293.5297 293.8129 293.8510 293.9943 294.1465
   294.4458 294.8123 294.9199 295.4057 295.6589 295.6746 296.4747 296.5502
   296.7750 297.2739 297.4546 297.7397 297.8418 297.9652 298.0110 298.2873
   298.5062 298.6159 298.6683 299.7787 299.7887 300.4926 300.5593 300.6050
   300.8156 300.8764 300.9699 301.1842 301.2624 301.6590 301.7500 301.8452
   302.1119 302.2360 302.8014 303.0494 303.5048 303.9038 304.0554 304.1280
   304.1541 304.3528 304.4366 304.8109 304.9256 305.2092 306.0721 306.5201
   306.8796 306.9514 307.6715 308.0941 308.3353 308.5845 308.6024 308.7850
   308.8254 309.0615 309.4496 309.4577 309.5309 309.6019 309.6438 309.7338
   310.4622 310.5110 311.0438 311.4157 311.5880 311.7824 312.0189 312.0889
   312.5825 312.5898 312.6175 313.0843 313.4360 313.5650 313.6613 313.9326
   313.9847 314.1472 314.6910 315.5624 315.5853 315.9426 316.0739 316.0930
   316.5596 316.5605 316.7530 316.8653 317.6989 318.1232 318.4359 318.5226
   318.6076 319.1959 319.1980 319.5700 320.0298 320.4601 320.7114 320.7740
   320.7849 321.2443 321.4933 321.8439 321.8727 321.8767 321.9066 322.0764
   322.7227 323.9477 324.0246 324.1793 324.3275 324.6228 324.6851 324.7126
   324.7634 324.9252 325.3483 325.4485 325.6248 325.6827 325.8741 326.5866
   327.1092 327.1721 327.3605 327.3985 327.7460 328.1864 328.2168 328.2883
   328.4747 328.7500 329.0124 329.6817 329.9076 330.0424 330.5491 330.7351
   331.1898 331.2781 331.2866 331.6056 331.7498 331.8540 332.0267 332.2012
   332.4012 332.6103 332.7754 333.1291 333.2825 333.3098 333.3591 333.4950
   333.5015 334.0998 334.1391 334.2860 334.9547 335.1564 335.5764 335.5916
   336.3670 336.3880 336.7294 337.0145 337.2378 337.4051 337.4784 337.5061
   337.6312 337.7030 338.2561 338.6904 338.9907 339.3655 339.4143 339.5382
   340.1007 340.1064 340.6332 340.7021 341.1552 341.3117 341.8335 341.8403
   341.9675 342.2231 342.3665 342.5963 342.6465 342.6545 342.9876 343.1616
   343.2287 343.2609 343.3142 343.7303 343.7880 343.9006 343.9342 344.5639
   345.0840 345.1159 345.1348 345.1824 345.3934 345.4765 345.6092 345.7756
   345.8705 345.9596 345.9868 346.9626 347.1608 347.2044 347.3340 347.6864
   348.0862 348.1194 348.1270 349.1547 349.2371 349.5067 349.5985 349.9530
   350.3847 350.7123 351.5258 351.7302 352.1957 352.5606 352.7895 352.9443
   352.9525 353.1549 353.8059 353.8222 354.8644 355.2776 355.5351 355.7510
   355.7558 355.9387 356.0599 356.1594 356.2226 356.2605 356.8428 357.1701
   357.4222 357.5293 357.7393 357.9553 357.9778 358.0257 358.0965 358.1487
   358.4364 358.4840 358.6530 358.6749 358.8684 358.9993 359.0367 359.3635
   359.3998 359.6531 359.8191 360.2115 360.2507 360.4797 360.7734 360.9453
   361.0267 361.4916 361.5040 361.6071 361.9873 362.1053 362.2655 362.7833
   362.8343 363.3882 363.4338 363.8477 363.9107 364.0212 364.2036 364.7287
   364.8404 365.6316 365.7289 366.1019 366.4360 366.5169 366.6542 366.7407
   367.1852 367.4823 367.7545 367.8950 368.2282 368.2950 368.6382 368.8617
   368.8860 369.1563 369.3947 369.6808 370.2680 370.6050 370.8334 371.0713
   371.1437 371.3441 371.3749 371.3910 371.4939 371.5148 372.4146 372.4955
   372.8695 372.9629 373.0841 373.1699 373.5041 373.5655 373.6784 374.0919
   374.3371 374.5236 374.7273 375.0506 375.4374 375.7868 375.8587 375.9246
   376.2691 376.3772 376.6579 376.9745 377.4125 378.3291 378.3447 378.3950
   379.1557 379.1914 379.5203 379.6802 379.7769 379.7875 379.9695 380.1704
   380.6741 380.7738 380.8219 380.8783 381.6944 381.8052 381.8287 381.9049
   382.1414 382.1920 382.6428 382.8204 383.0268 383.1690 383.2636 383.4612
   383.6266 383.7707 383.8417 384.4453 384.5793 384.6024 385.0584 385.8051
   386.0029 386.0523 386.2802 386.4116 386.4667 386.4850 386.6189 387.0659
   387.3055 387.3785 387.6002 387.8671 388.2990 388.5779 388.8349 388.8692

          k = 0.0000-1.0000 0.0000 (  3612 PWs)   bands (ev):

   -20.5143  -6.0680  -5.8051  -5.8051  -4.6816   4.9930   5.3556   5.3556
     7.7320  11.4116  11.4373  12.9117  12.9117  13.0471  13.2831  14.4726
    14.6420  14.6420  15.1037  15.4414  15.4414  16.2083  18.1321  18.1321
    18.8308  18.8308  19.7906  21.7485  23.3196  23.6496  24.0820  24.9856
    26.8503  27.5276  27.5276  28.2980  28.6358  28.6358  30.7329  30.7329
    30.7496  31.1979  33.6349  33.8388  36.7576  36.7834  36.7834  38.3169
    38.3169  39.8353  39.8353  41.8047  41.9576  42.3102  42.5359  43.2355
    43.2355  44.0388  45.5612  45.5612  46.1927  46.6173  46.7631  48.0879
    48.8380  49.7124  49.9201  49.9201  50.5285  51.2023  51.2023  51.8310
    51.8353  52.9663  52.9663  53.5303  54.2712  55.7864  55.7864  55.9626
    58.3031  59.1531  59.1531  59.3048  59.3048  59.4460  59.5419  60.7010
    61.1919  61.4747  61.4747  61.7378  61.8246  61.9027  61.9027  62.5162
    62.5162  63.8922  67.0523  67.2670  68.3259  68.3259  68.5327  68.9414
    70.5311  71.9704  71.9704  72.4643  72.4643  73.3728  73.3728  74.4663
    74.7678  75.1921  75.4203  76.2530  76.3532  76.3532  76.3707  76.4187
    76.6525  77.5612  77.5612  77.8312  78.6600  82.5181  82.5728  82.5728
    83.1329  84.0715  84.0715  84.1749  84.1749  85.1451  85.5981  86.5828
    86.5828  87.0701  87.2850  87.5042  87.5042  87.5520  88.5610  89.7570
    90.6893  90.9081  91.4258  91.9355  92.4764  92.4764  92.5388  92.5388
    93.6740  93.6740  94.1397  94.1397  94.8351  94.9278  95.7896  96.3705
    98.0107  98.9223  98.9223  99.0389  99.0389  99.1281  99.3330  99.5613
   100.3421 100.3421 100.4090 100.6650 100.6650 100.9853 101.9465 102.0146
   102.6622 102.6622 102.7527 103.2004 103.3048 103.5414 103.5414 103.5959
   104.0671 104.2200 104.2200 104.2915 104.3314 104.9704 107.7066 107.7912
   107.7912 107.8319 107.8423 107.9193 107.9193 108.2178 109.5601 111.2692
   112.4448 112.4448 112.9726 113.2452 114.3091 114.8192 114.8902 115.4903
   115.4903 116.3380 116.3380 116.4343 116.4343 117.1774 117.5065 117.5065
   117.8150 118.0464 118.3673 118.3767 118.3767 118.8782 118.8927 119.4258
   119.4258 119.6872 119.6872 119.8196 119.8273 119.9709 120.1914 123.8895
   124.2586 124.2586 124.8711 128.5640 128.5640 130.6379 130.6379 130.6665
   131.2797 131.3418 131.4178 131.6781 132.2613 132.2613 132.7951 132.8727
   132.8727 133.9175 133.9175 134.2391 134.3734 134.5474 134.5474 134.6668
   134.8913 134.9360 135.9561 135.9561 137.0260 137.5273 137.7639 137.7639
   137.8092 138.5942 138.7639 138.7639 139.0251 139.1070 139.1777 140.2261
   140.2261 140.7953 141.5077 141.5710 142.6067 142.7380 142.7380 143.3016
   143.3016 143.4835 143.5732 143.7083 143.9951 144.0035 144.0035 144.1519
   144.4276 144.4276 144.6847 144.6847 146.5350 147.0183 147.0183 147.4115
   147.7964 147.7964 147.9296 147.9723 148.6787 150.1754 150.4663 150.4795
   150.4795 150.5348 150.7848 150.9104 150.9104 151.8426 152.8971 153.0814
   153.6849 153.6849 155.0283 156.2661 156.2661 156.5084 156.5084 156.5326
   156.5661 156.6730 156.8302 157.1528 157.1528 157.9001 157.9001 158.0272
   158.5023 158.6401 159.4525 159.4525 159.8064 159.8273 160.3047 160.6259
   160.6259 160.6778 160.9408 160.9408 161.4844 161.5956 161.9696 162.0503
   162.0670 163.3695 165.7277 165.9148 166.1004 166.1004 166.2842 166.2842
   167.7298 167.7598 167.8362 167.8362 168.6148 170.4400 170.4400 170.7933
   171.5682 171.7213 171.7213 171.8333 171.8765 171.8765 172.1029 172.1854
   172.3569 172.7031 172.7759 172.7759 173.2766 173.2766 173.5155 174.4310
   174.5348 175.3536 175.3536 176.1371 176.2487 176.2487 176.9729 177.0178
   177.1069 177.1240 177.1240 177.6591 177.8829 177.8829 178.0072 178.4372
   178.8049 178.8945 178.9487 178.9487 179.5013 181.8350 181.8350 182.0652
   182.0652 182.1034 183.3408 183.6051 183.6051 184.3387 184.6374 184.6374
   184.6484 185.6258 185.6258 185.6448 186.6451 186.7033 187.0283 187.0938
   187.0938 188.0797 189.5736 189.8235 189.8235 189.9319 189.9537 190.0881
   190.1355 190.1355 190.2045 190.5289 190.5882 191.1174 191.5624 191.5859
   191.5859 191.9663 192.0623 192.0692 192.0692 192.1168 192.1998 192.1998
   192.3575 192.7520 192.7520 193.6084 194.0696 194.3873 194.4137 194.4137
   194.4297 194.5790 194.5790 195.3061 196.9284 196.9284 197.7062 200.1642
   200.2722 200.2722 200.6566 201.2497 201.2515 201.7517 202.6678 202.6678
   202.7752 202.7752 202.8879 203.0223 203.0919 203.2566 203.7348 203.7348
   203.8598 204.2797 204.2797 206.8209 206.9231 207.3947 207.7510 208.0883
   208.2505 208.2505 208.7640 208.7640 209.5819 211.0227 211.3715 211.3715
   212.1314 212.6061 213.3935 213.3935 213.5256 213.5256 214.1050 214.5192
   214.6986 215.0278 215.0549 216.0424 216.1936 216.1936 216.3689 216.3689
   216.3900 216.5376 217.1885 217.8048 217.8048 218.2843 218.3081 218.3081
   218.4049 218.4049 218.6800 219.3485 219.4438 219.8836 219.8836 219.9567
   220.0137 220.5859 220.6296 220.7176 220.7176 222.1351 222.2184 222.2184
   222.2930 222.3690 222.3745 222.3745 222.3934 222.3977 224.5828 224.5828
   224.7719 224.8843 224.9958 224.9958 226.2007 226.2423 227.8307 228.2216
   228.2216 228.2979 228.8579 228.9809 228.9809 229.1742 229.2051 229.3609
   229.3609 229.5199 229.5199 229.8405 229.8904 229.9028 230.5092 230.5092
   230.5142 230.5909 230.5909 230.7653 231.1787 231.4478 231.7635 231.8150
   231.8150 231.9041 231.9041 231.9815 232.3907 232.3907 232.5033 232.6031
   232.7414 232.7414 233.1451 233.1451 235.8521 235.8521 236.3929 236.9305
   237.2105 237.9046 237.9046 237.9486 237.9672 238.0174 238.0174 238.0203
   238.0432 238.1009 239.4112 240.0452 240.0647 240.0647 240.1372 240.3938
   240.8765 241.6691 241.7168 241.7168 242.2409 242.2409 243.0438 243.6418
   243.8263 244.0556 244.3002 244.3002 244.5646 244.5646 244.6434 245.4887
   246.5762 246.6068 246.9793 246.9793 247.0906 247.0906 247.3040 247.3389
   247.4518 247.5915 247.5915 248.4252 248.4252 248.4570 248.6896 248.7814
   249.0010 249.0554 249.0699 249.0699 249.9142 250.2934 250.2934 250.3676
   250.3676 250.3680 250.5684 250.6022 250.6279 250.9119 251.9334 252.1251
   252.1251 252.9726 254.7220 254.8888 255.2740 255.2740 255.7371 255.7371
   256.1392 256.1392 256.5227 256.7127 256.7127 257.5331 258.4081 259.6008
   260.0463 260.0509 260.9601 261.1948 261.1948 261.5866 261.5866 261.6791
   261.7965 262.0744 262.0789 262.0789 262.1645 262.1645 262.2876 262.3009
   262.5681 262.5681 263.3073 263.3568 263.3568 263.3865 264.0062 264.1327
   264.1415 264.1917 265.9726 265.9726 266.2698 266.2698 266.5526 266.6762
   267.0050 267.1727 267.3049 267.3049 267.3762 267.3762 268.5522 268.8234
   268.8253 269.4758 269.4758 270.5019 270.7568 270.7568 271.8311 272.4004
   272.5594 272.6039 272.6713 272.6713 273.1468 273.7832 273.8766 273.8766
   274.1958 274.1958 274.2478 274.5531 274.5531 274.6299 274.7023 275.2979
   275.7482 276.0744 276.0744 276.1193 276.1315 276.2098 276.2164 276.2164
   276.2750 276.3002 276.7307 277.4679 277.4679 279.1131 279.1405 279.1405
   279.3239 279.4153 279.4153 279.6054 279.7541 281.0263 281.5804 281.7670
   281.7698 281.7698 282.8346 282.9820 283.6213 283.6213 285.2705 286.0567
   286.0567 286.2917 286.5550 287.0304 287.0304 287.0356 287.0854 287.6156
   287.6156 288.2078 288.3805 288.3805 288.4409 288.4662 288.6466 288.6466
   288.9542 288.9542 288.9779 289.2766 289.8178 291.1131 292.0703 292.1607
   292.1607 292.2063 292.3161 292.3161 292.5521 292.5870 292.5870 292.5879
   292.9843 293.0600 293.6985 293.7698 293.7698 294.0378 294.2693 294.4633
   294.4633 294.9597 294.9658 295.1540 295.1540 296.1662 296.3245 296.7183
   296.7183 298.1322 298.1322 298.2490 299.1155 299.1155 299.1769 299.3168
   300.2117 300.4559 300.4559 301.6667 302.7017 302.9284 303.0252 303.2035
   303.2035 303.4003 303.4003 304.1343 305.2737 305.2910 305.2910 305.5768
   305.6001 306.7840 307.6511 308.2345 308.2345 308.3532 308.3807 308.5562
   308.7961 308.7961 309.1542 309.1559 309.3580 309.3580 309.8512 309.8717
   309.8717 309.8902 310.2948 310.2948 310.4843 310.5552 310.7382 310.7674
   310.7674 311.7842 311.7842 313.1727 313.3638 313.4248 314.1264 314.7803
   314.7805 314.7805 314.8076 315.0209 315.0209 315.1447 315.1447 315.1544
   315.2880 315.4454 315.4716 315.4716 315.7104 315.8014 315.9255 315.9769
   315.9769 316.3695 316.3739 316.4161 316.4161 316.4566 316.4566 316.4606
   316.5770 316.5792 316.7041 316.8849 316.9031 317.0015 317.0015 317.0704
   317.3382 317.3460 317.3460 317.4652 317.4652 317.5504 317.7933 317.7933
   317.8937 318.0603 318.4555 318.4962 318.5834 318.5834 318.7534 318.7534
   318.7667 318.8119 318.8636 318.8636 319.0717 319.1713 321.3755 322.1381
   322.1381 322.1420 322.1853 322.1853 322.2068 322.2606 323.9118 324.1105
   324.1856 324.1856 324.4245 324.4245 324.6996 324.7145 326.6478 326.7991
   326.7991 327.6585 327.7842 328.5434 328.5434 330.9752 330.9752 330.9795
   331.0303 331.0452 331.3684 331.3684 331.8315 331.9164 331.9281 332.1367
   332.1367 332.1942 332.2420 332.2420 332.3184 332.3184 332.3507 332.7359
   332.8786 333.4332 333.4337 333.5211 333.5211 334.0813 334.0813 334.3172
   334.3377 334.7865 334.7865 334.8998 335.0360 335.0419 335.0419 335.3597
   335.4842 335.4842 335.5422 335.6339 335.6463 335.7472 335.7472 335.7754
   336.1161 336.5880 336.5880 336.8491 337.0115 339.1307 340.3240 340.4267
   340.9005 340.9005 341.0993 341.1537 341.1537 341.2371 342.2228 342.3222
   342.3222 342.3965 342.4771 342.5842 342.7639 342.7639 342.7814 342.9303
   343.5438 343.5438 343.8682 343.8682 343.9269 344.3835 344.5463 344.5873
   345.3036 345.9161 345.9161 346.3037 346.3037 346.3929 346.9295 347.0088
   347.1897 347.1897 347.2555 348.5589 350.9991 351.4213 351.4213 351.4853
   351.4853 351.5027 351.5156 351.5544 352.8841 353.3025 353.3025 353.4633
   353.4636 353.5043 353.5043 353.5326 353.5736 354.1083 354.1083 354.9057
   354.9586 354.9586 355.7236 355.8178 356.0231 356.0231 356.8282 356.9261
   357.0791 357.5319 358.0590 359.3154 359.3459 359.6748 359.6748 359.6909
   359.6909 359.9417 359.9417 360.0423 360.2812 360.6476 360.6476 361.1413
   361.1413 361.3072 361.3106 361.4971 361.5048 361.5842 361.5842 361.6591
   361.6591 361.7513 362.6240 362.6240 362.8399 362.8399 363.0442 363.1639
   363.1726 363.4685 363.4685 363.4884 363.5281 363.5281 363.8035 363.8103
   364.3772 364.6024 364.6236 364.6236 365.1366 365.3026 365.3026 365.3210
   365.3281 365.3281 366.7873 367.1290 367.5524 368.5931 369.2823 369.2823
   369.4634 369.8918 370.3446 370.3446 370.3607 370.3889 370.4644 372.1911
   372.1911 372.7658 372.7658 372.9204 373.3459 373.3459 373.3473 373.4411
   373.4767 373.4767 373.4772 373.5532 373.8314 373.8806 373.8806 373.9104
   373.9244 373.9458 374.7295 375.4383 375.7620 375.7686 375.7686 377.1451
   377.3436 377.3436 377.4644 377.4644 377.4700 377.7174 377.8208 378.0176
   378.0176 378.0736 378.0744 378.3035 378.3035 378.5234 378.5256 378.5256
   378.5310 378.5523 380.1165 380.1165 380.3583 381.0540 382.1708 382.3673
   383.4325 383.4325 384.0714 384.0714 384.6725 385.1344 385.3237 385.3557
   385.6314 385.8140 385.8140 385.9716 386.1012 386.1012 386.2750 386.6064
   386.6064 386.7467 386.8655 386.8655 387.0313 387.0352 387.2219 387.2219
   387.4788 389.1290 389.6921 389.6921 389.7332 390.2045 390.2045 390.2280

          k =-0.5000-1.0000 0.0000 (  3676 PWs)   bands (ev):

   -20.5139  -6.1021  -5.9389  -5.9389  -4.2091   4.4626   5.0347   5.0347
     9.7521   9.7521  11.6936  12.2859  12.9334  14.3597  14.3597  14.6172
    14.9827  15.0623  15.0988  15.0988  15.4560  16.3176  16.9329  16.9329
    18.0835  19.4050  19.4050  23.0902  23.2854  24.6444  24.6444  25.0974
    25.0974  26.1805  26.5258  26.8801  27.4635  29.6137  29.6137  32.3885
    32.3885  34.3541  35.3063  35.3254  35.3254  37.0817  37.7331  37.7665
    37.7739  39.0424  39.7228  39.9716  39.9716  41.6720  42.3752  43.6884
    43.6884  44.2400  45.0275  45.0275  46.4721  46.4721  47.0816  47.3648
    49.2630  49.3899  49.3899  50.5134  50.5134  52.2451  52.4795  52.6036
    52.6832  52.6832  52.7144  53.6352  53.6352  54.1445  55.1853  55.1853
    56.3897  57.2703  58.0774  59.5208  60.8922  60.8922  61.0762  61.3401
    61.3401  61.5894  62.4686  63.1029  63.1029  63.9108  64.2985  65.5224
    65.5224  65.6119  65.6845  65.8131  66.0848  66.5157  66.5157  68.6184
    69.3269  69.4815  69.7148  69.9407  69.9407  71.7252  71.7252  71.8864
    72.9465  74.1833  75.0833  75.0833  75.5356  75.5356  77.8093  78.7580
    80.0301  81.5643  81.5643  82.1728  82.5541  82.7178  82.7178  83.7665
    84.0092  84.0092  84.1057  85.3963  85.6150  86.0121  86.0121  86.1976
    86.6814  86.6814  87.2281  87.2281  87.5878  88.3955  88.3955  88.5494
    88.8056  90.5539  90.6117  90.6117  90.7587  91.8632  92.0140  93.6553
    93.6553  93.8500  94.1909  94.2746  94.5198  94.5198  95.1388  95.5600
    95.7502  95.7502  96.4310  96.4712  96.6775  97.9021  98.2404  98.2404
    99.0926  99.0926  99.6225  99.9622 100.2458 100.2499 100.2499 102.5987
   102.8378 102.8378 102.9063 103.9621 105.0055 105.0132 105.0526 105.0526
   105.4439 106.1899 106.1899 107.3068 107.8646 107.8657 107.9277 107.9277
   108.2356 108.3498 108.8687 108.8687 109.5287 110.0308 110.1200 110.2689
   110.2689 110.5543 110.7164 111.3175 111.3175 112.0543 112.0543 115.0091
   115.4774 115.7505 115.7505 115.8946 116.1801 116.7481 116.8706 116.8706
   118.2938 118.2938 119.2014 120.0632 122.2492 122.2492 122.3339 122.3469
   123.2814 123.2814 123.3433 124.0268 124.0268 124.4556 125.3914 125.3914
   125.6114 125.7821 126.0604 126.1539 126.6825 127.0933 127.2703 127.5208
   127.5208 128.1867 128.1867 129.5028 129.5694 130.1031 130.3095 130.3095
   130.6971 130.9013 130.9013 132.3192 132.3387 132.4758 132.4758 133.4113
   133.4929 133.6370 133.6370 134.2596 134.2596 134.3425 134.5015 135.3068
   136.8375 136.9578 136.9578 137.9174 138.1379 138.3468 140.3977 141.1004
   141.5569 141.5569 141.6491 141.7866 142.1743 142.4197 142.4197 143.6536
   143.6940 143.6940 143.9183 143.9183 145.0675 145.4637 145.5085 145.5085
   145.9858 146.3799 147.1817 147.1817 147.5362 150.7221 150.7221 150.7483
   150.8111 151.0167 151.4000 151.9332 151.9332 152.7683 152.8085 153.0435
   153.0435 153.3900 153.5195 153.5312 153.6893 153.6893 154.0133 154.1208
   154.1208 154.4889 154.6463 154.9516 154.9516 155.1104 155.5837 155.5837
   155.9839 156.6179 156.6179 157.2553 157.3406 157.4402 157.4402 157.7108
   159.0095 159.0095 159.2735 159.2986 159.3330 159.3330 159.6311 159.8276
   160.1813 160.5089 160.5089 161.8570 161.9685 161.9685 162.1862 164.0961
   164.5372 165.1569 165.1569 165.8186 166.1185 166.2769 166.2769 166.4248
   166.4370 166.6374 166.6374 167.0752 167.5387 167.9082 167.9956 168.4642
   168.4642 168.6985 168.6985 168.8944 169.2934 169.2934 170.0603 170.0909
   170.1075 170.5107 170.5107 170.5620 170.8399 171.0033 171.0033 173.6080
   173.7558 173.8761 173.9151 173.9151 174.6029 174.6029 175.0543 176.6466
   177.8096 177.8810 177.9175 177.9175 178.5676 178.6560 178.7198 178.7198
   179.3552 179.3552 179.7913 180.0967 180.4306 180.4306 180.6714 180.7044
   181.3594 181.3594 181.7285 181.9248 181.9395 183.4576 184.1884 184.1884
   184.9005 185.0287 185.2196 185.4947 185.4947 185.5604 186.6792 186.6792
   187.9381 187.9381 188.5912 189.0088 189.5088 190.5455 191.3588 191.3588
   191.6715 192.1537 192.1537 193.0320 193.2383 193.2518 193.6107 193.6107
   193.6185 194.1366 194.1366 194.5828 195.0249 195.2398 195.5479 195.6135
   195.8334 195.8334 196.3259 196.3259 196.3943 196.4455 196.5739 196.5739
   196.7552 196.7937 196.8421 196.8421 197.4463 198.1475 198.1475 198.7719
   199.3762 201.0113 201.4997 202.0764 202.1524 202.1524 202.7323 202.7323
   203.5731 204.0999 204.0999 204.4046 204.5743 204.6438 204.6438 205.2879
   205.3226 205.3613 205.3613 206.6915 207.2154 207.3798 207.8059 208.0801
   208.1183 208.1183 208.9691 209.3358 209.3358 209.4751 209.6043 209.6043
   209.8148 209.8148 209.8292 210.1513 210.1513 210.5526 211.5365 211.6909
   211.7627 212.4780 212.6914 212.6914 213.2094 213.2094 213.2313 213.9247
   213.9471 214.1533 214.3553 214.3553 214.8451 214.8451 214.8588 214.9998
   215.1312 215.5379 215.5379 215.6066 215.8979 216.3316 216.5731 216.5731
   218.2097 219.5929 219.5929 220.5093 220.6747 221.6442 221.6442 223.0950
   223.0950 223.7232 224.4964 225.2842 225.4105 225.4113 225.4113 225.5341
   225.6341 226.0526 227.4693 227.4693 227.8375 227.8375 227.9813 228.1188
   228.3243 228.6250 228.6250 228.8603 229.0873 229.0873 229.2180 229.4543
   229.6066 230.0464 230.0464 230.8333 230.8333 231.0746 231.0781 231.2301
   231.5355 231.5957 231.8103 231.8103 231.9873 232.3804 232.3952 232.3952
   232.7593 233.0143 233.3192 233.3192 234.1588 234.7731 234.9859 234.9859
   236.1579 236.1579 236.9146 237.2363 237.2883 237.2883 237.5377 237.9807
   238.3070 238.3070 238.6235 238.6577 238.7128 239.2279 239.4611 239.4611
   239.7748 240.0752 240.1635 240.1635 240.3939 240.8392 240.9474 240.9507
   240.9507 240.9922 241.2648 241.2648 241.6229 241.6277 241.6860 241.6860
   242.6926 242.6932 243.0366 243.0366 243.2174 243.6882 243.6882 243.9546
   244.3660 244.6237 244.8635 244.8635 245.7673 245.8642 246.2819 247.2497
   247.2497 247.6866 247.6866 247.7975 248.1177 249.0862 249.4772 249.6150
   249.6150 249.6993 249.6993 250.0272 250.7834 251.4347 251.8078 251.8078
   252.0388 252.0388 252.2788 252.7849 252.8042 252.9882 252.9882 253.1926
   253.6187 253.8481 253.9930 254.1620 254.3925 254.3925 254.9633 255.1212
   255.2075 255.2075 256.8657 256.8657 256.9982 257.0081 257.1023 257.1023
   258.3626 258.4976 259.1721 259.3760 259.3760 259.6868 259.7049 259.9322
   259.9322 260.0775 260.0775 260.4671 260.5972 260.9312 260.9312 261.1290
   261.7838 261.7838 262.3092 262.4745 262.4745 263.3785 263.4639 263.6502
   263.6502 263.8717 265.0324 265.0324 265.1642 265.7468 266.6113 266.9550
   266.9550 267.4209 267.5596 267.8274 267.8274 267.9755 268.1619 268.2624
   268.2812 268.2812 268.6527 268.6531 268.6928 268.7813 268.7813 270.0712
   270.8618 270.9864 270.9864 271.2195 271.2443 271.5452 271.5452 273.1528
   273.2803 273.2803 273.5485 273.9846 274.1181 274.3980 274.3980 274.7846
   275.5299 276.4966 276.4966 277.5412 277.5412 278.1102 278.2001 278.3413
   278.7699 278.8226 278.8933 278.8933 279.7841 279.7841 280.2927 280.3832
   281.2758 281.2758 281.7409 281.9107 283.0751 283.1903 283.1903 284.1140
   284.2750 284.2750 284.3324 285.1336 285.1336 285.2863 285.2863 285.3524
   285.3990 285.9131 286.0136 286.1249 286.2109 286.8837 286.8837 287.1322
   287.2935 287.2935 287.8099 288.5433 288.6336 288.6336 288.8467 289.7970
   291.5602 293.0061 293.0061 293.6022 293.7516 294.0692 294.0692 294.0713
   294.2165 294.2165 294.5072 294.5599 294.7725 294.8995 294.9870 294.9870
   295.0069 295.0436 295.1659 295.1659 295.4512 295.5252 296.5780 296.5780
   296.7854 296.7854 297.0360 297.3086 297.8419 298.1171 298.6101 298.7244
   298.7244 298.7544 298.7544 299.2302 299.9056 300.6090 300.6946 300.6946
   301.2315 301.4784 301.5002 301.5454 301.5454 302.0343 302.0343 302.2490
   302.8019 303.1214 303.1515 303.1515 303.3168 303.4137 303.4782 303.4782
   303.4788 303.7014 303.9440 304.0178 304.0178 304.0503 304.2204 304.2204
   304.2609 304.4296 304.4296 304.5035 305.0234 305.8212 306.2607 306.6531
   306.6531 306.9264 307.0493 307.6392 307.9288 307.9288 308.2662 308.2662
   308.2949 309.0645 309.1013 309.1013 309.3125 309.3125 309.3254 310.1198
   310.2786 310.5592 310.5592 310.6274 310.7348 310.7348 311.1188 311.5847
   311.6670 311.8659 311.9152 311.9152 311.9417 312.2314 312.2314 312.3586
   312.4840 312.5886 312.7284 312.7539 312.7539 312.8232 313.1954 313.4439
   313.4439 315.1477 315.7132 315.8462 316.5998 316.5998 317.1757 317.1757
   317.9193 318.4622 318.9512 319.4419 319.4419 321.0169 321.0994 321.0994
   321.6633 321.6655 321.9159 321.9159 322.1185 322.2667 323.4107 323.4562
   323.4562 323.7398 324.0403 324.0403 324.1276 324.1666 324.9089 324.9089
   325.0970 325.3184 325.4247 325.4247 325.5240 325.7798 325.7798 325.9690
   326.0181 326.3425 326.3425 326.4938 326.8004 327.0245 327.0245 327.1493
   327.3905 327.6446 327.7763 327.7763 328.0669 328.0669 328.9286 329.1295
   329.3690 330.3230 330.3230 330.9651 331.0180 331.0180 332.4861 332.5195
   332.5195 332.8041 332.8896 333.9726 333.9726 334.2613 334.3288 334.3288
   334.8461 335.1284 335.1284 335.1838 335.4096 336.2488 336.3350 336.4413
   336.4413 336.7456 337.4158 337.7887 337.7887 338.0320 338.5669 339.0260
   339.1801 339.1801 339.2963 339.5975 339.6564 339.6564 339.7526 339.8649
   339.8649 339.9470 339.9870 340.1823 340.4680 340.4680 340.9118 340.9118
   341.1159 342.1704 342.1816 342.2917 342.2917 342.6133 343.0163 343.0663
   343.3173 343.3173 343.4471 343.4471 343.4811 343.5774 343.8644 343.8726
   343.9954 344.6120 344.6120 344.6424 344.7994 344.8316 344.9371 344.9371
   346.1127 346.1127 346.1230 346.1480 346.2817 346.4713 346.5309 346.5309
   346.7394 346.7427 346.9155 346.9155 346.9434 346.9434 347.0061 347.0074
   347.1077 347.2541 347.3134 347.3857 347.3857 347.5882 347.6657 347.6657
   349.5351 350.5294 351.1741 351.1741 352.0068 353.8301 354.4502 354.8224
   354.8224 355.7342 355.7342 355.8594 355.8689 355.8758 355.8758 356.0068
   356.0421 356.0421 356.0704 356.2413 356.8349 358.3918 358.3918 358.6072
   358.7943 359.1111 359.1111 359.8978 360.0212 360.0212 360.1832 360.1921
   360.5348 360.7337 360.7337 361.5045 361.5208 361.5703 361.6349 361.6349
   361.9437 361.9437 361.9815 362.0078 362.0338 362.1721 362.8041 363.0899
   363.0899 364.0186 364.0186 364.0205 364.0269 364.1087 364.1564 364.1564
   364.6404 364.6404 365.0442 366.3963 366.4371 366.4371 366.8862 367.2816
   367.2816 367.2935 367.4373 367.5918 367.7627 367.7627 367.8814 368.0725
   368.0855 368.1593 368.8076 368.8824 368.8824 369.0113 369.0225 369.0332
   369.0332 369.0593 369.1921 369.1921 371.0964 371.1481 371.1481 371.5128
   371.8940 372.5198 372.5198 372.5956 372.6631 374.3502 374.5748 374.5748
   374.7845 374.7845 374.9556 374.9935 375.0850 375.2981 375.3506 375.3506
   376.3078 376.3390 376.3390 376.3397 376.4111 376.6133 376.6133 376.6556
   376.7011 376.7011 377.1653 377.2023 377.4189 379.1828 380.0223 380.0223
   381.2582 381.8400 381.8400 382.5506 382.6019 382.9069 382.9314 382.9386
   382.9386 383.0864 383.5644 383.5962 383.5962 383.9623 384.0582 384.5332
   384.5332 384.7633 384.7785 384.8600 384.8600 384.9724 385.8945 385.8945
   386.1822 386.3498 386.7403 386.7403 386.9082 386.9721 387.0208 387.9030
   387.9030 387.9448 387.9464 387.9464 388.2453 388.6644 388.6644 388.7134

     the Fermi energy is     6.6607 ev
     (compare with:     6.3724 eV, computed in scf)

     Writing all to output data dir out/mp-1500.save/
 
     init_run     :      0.06s CPU      0.09s WALL (       1 calls)
     electrons    :   1057.09s CPU   1139.43s WALL (       1 calls)

     Called by init_run:
     wfcinit      :      0.00s CPU      0.00s WALL (       1 calls)
     potinit      :      0.01s CPU      0.02s WALL (       1 calls)
     hinit0       :      0.01s CPU      0.04s WALL (       1 calls)

     Called by electrons:
     c_bands      :   1057.09s CPU   1139.42s WALL (       1 calls)
     v_of_rho     :      0.01s CPU      0.01s WALL (       1 calls)

     Called by c_bands:
     init_us_2    :      0.00s CPU      0.00s WALL (       8 calls)
     init_us_2:cp :      0.00s CPU      0.00s WALL (       8 calls)
     cegterg      :   1036.47s CPU   1117.61s WALL (       8 calls)

     Called by *egterg:
     cdiaghg      :    975.78s CPU   1055.67s WALL (      93 calls)
     h_psi        :     17.93s CPU     18.49s WALL (     101 calls)
     g_psi        :      0.12s CPU      0.12s WALL (      85 calls)

     Called by h_psi:
     h_psi:calbec :      0.35s CPU      0.38s WALL (     101 calls)
     vloc_psi     :     17.19s CPU     17.71s WALL (     101 calls)
     add_vuspsi   :      0.29s CPU      0.29s WALL (     101 calls)

     General routines
     calbec       :      0.35s CPU      0.38s WALL (     101 calls)
     fft          :      0.00s CPU      0.03s WALL (      10 calls)
     fftw         :     15.59s CPU     16.06s WALL (  123294 calls)
 
     Parallel routines
 
     PWSCF        :  17m37.94s CPU  19m 1.22s WALL

 
   This run was terminated on:  14:24: 5  19Nov2023            

=------------------------------------------------------------------------------=
   JOB DONE.
=------------------------------------------------------------------------------=
