
     Program PWSCF v.7.1 starts on 21Nov2023 at  2: 5:53 

     This program is part of the open-source Quantum ESPRESSO suite
     for quantum simulation of materials; please cite
         "P. Giannozzi et al., J. Phys.:Condens. Matter 21 395502 (2009);
         "P. Giannozzi et al., J. Phys.:Condens. Matter 29 465901 (2017);
         "P. Giannozzi et al., J. Chem. Phys. 152 154105 (2020);
          URL http://www.quantum-espresso.org", 
     in publications or presentations arising from this work. More details at
     http://www.quantum-espresso.org/quote

     Parallel version (MPI), running on    24 processors

     MPI processes distributed on     1 nodes
     123281 MiB available memory on the printing compute node when the environment starts
 
     Reading input from pw_mp-1500_scf_k3000_E61.in
Warning: card &CELL ignored
Warning: card / ignored

     Current dimensions of program PWSCF are:
     Max number of different atomic species (ntypx) = 10
     Max number of k-points (npk) =  40000
     Max angular momentum in pseudopotentials (lmaxx) =  4
 
     K-points division:     npool     =       2
     R & G space division:  proc/nbgrp/npool/nimage =      12
     Subspace diagonalization in iterative solution of the eigenvalue problem:
     a serial algorithm will be used

 
     Parallelization info
     --------------------
     sticks:   dense  smooth     PW     G-vecs:    dense   smooth      PW
     Min         104     104     30                 2426     2426     386
     Max         106     106     31                 2428     2428     389
     Sum        1261    1261    367                29123    29123    4645
 
     Using Slab Decomposition
 


     bravais-lattice index     =            2
     lattice parameter (alat)  =      12.1913  a.u.
     unit-cell volume          =     452.9900 (a.u.)^3
     number of atoms/cell      =            2
     number of atomic types    =            2
     number of electrons       =        16.00
     number of Kohn-Sham states=           16
     kinetic-energy cutoff     =      61.0000  Ry
     charge density cutoff     =     244.0000  Ry
     scf convergence threshold =      1.0E-10
     mixing beta               =       0.7000
     number of iterations used =            8  plain     mixing
     Exchange-correlation= PBE
                           (   1   4   3   4   0   0   0)

     celldm(1)=  12.191286  celldm(2)=   0.000000  celldm(3)=   0.000000
     celldm(4)=   0.000000  celldm(5)=   0.000000  celldm(6)=   0.000000

     crystal axes: (cart. coord. in units of alat)
               a(1) = (  -0.500000   0.000000   0.500000 )  
               a(2) = (   0.000000   0.500000   0.500000 )  
               a(3) = (  -0.500000   0.500000   0.000000 )  

     reciprocal axes: (cart. coord. in units 2 pi/alat)
               b(1) = ( -1.000000 -1.000000  1.000000 )  
               b(2) = (  1.000000  1.000000  1.000000 )  
               b(3) = ( -1.000000  1.000000 -1.000000 )  


     PseudoPot. # 1 for Ba read from file:
     /usr/scratch4/magr4985/MG/HTDF/pseudo/SG15/Ba.upf
     MD5 check sum: ac4691792522964bb0504809e83fae44
     Pseudo is Norm-conserving, Zval = 10.0
     Generated using ONCVPSP code by D. R. Hamann
     Using radial grid of  602 points,  8 beta functions with: 
                l(1) =   0
                l(2) =   0
                l(3) =   1
                l(4) =   1
                l(5) =   2
                l(6) =   2
                l(7) =   3
                l(8) =   3

     PseudoPot. # 2 for S  read from file:
     /usr/scratch4/magr4985/MG/HTDF/pseudo/SG15/S.upf
     MD5 check sum: f9d020296ee6110346977bfd66d424f6
     Pseudo is Norm-conserving, Zval =  6.0
     Generated using ONCVPSP code by D. R. Hamann
     Using radial grid of  602 points,  4 beta functions with: 
                l(1) =   0
                l(2) =   0
                l(3) =   1
                l(4) =   1

     atomic species   valence    mass     pseudopotential
        Ba            10.00   137.32700     Ba( 1.00)
        S              6.00    32.06500     S ( 1.00)

     48 Sym. Ops., with inversion, found



   Cartesian axes

     site n.     atom                  positions (alat units)
         1           Ba  tau(   1) = (   0.0000000   0.0000000   0.0000000  )
         2           S   tau(   2) = (  -0.5000000   0.5000000   0.5000000  )

     number of k points=    72  Gaussian smearing, width (Ry)=  0.0005
                       cart. coord. in units 2pi/alat
        k(    1) = (   0.0000000   0.0000000   0.0000000), wk =   0.0011574
        k(    2) = (  -0.0833333   0.0833333  -0.0833333), wk =   0.0092593
        k(    3) = (  -0.1666667   0.1666667  -0.1666667), wk =   0.0092593
        k(    4) = (  -0.2500000   0.2500000  -0.2500000), wk =   0.0092593
        k(    5) = (  -0.3333333   0.3333333  -0.3333333), wk =   0.0092593
        k(    6) = (  -0.4166667   0.4166667  -0.4166667), wk =   0.0092593
        k(    7) = (   0.5000000  -0.5000000   0.5000000), wk =   0.0046296
        k(    8) = (   0.0000000   0.1666667   0.0000000), wk =   0.0069444
        k(    9) = (  -0.0833333   0.2500000  -0.0833333), wk =   0.0277778
        k(   10) = (  -0.1666667   0.3333333  -0.1666667), wk =   0.0277778
        k(   11) = (  -0.2500000   0.4166667  -0.2500000), wk =   0.0277778
        k(   12) = (  -0.3333333   0.5000000  -0.3333333), wk =   0.0277778
        k(   13) = (   0.5833333  -0.4166667   0.5833333), wk =   0.0277778
        k(   14) = (   0.5000000  -0.3333333   0.5000000), wk =   0.0277778
        k(   15) = (   0.4166667  -0.2500000   0.4166667), wk =   0.0277778
        k(   16) = (   0.3333333  -0.1666667   0.3333333), wk =   0.0277778
        k(   17) = (   0.2500000  -0.0833333   0.2500000), wk =   0.0277778
        k(   18) = (   0.1666667  -0.0000000   0.1666667), wk =   0.0138889
        k(   19) = (   0.0000000   0.3333333   0.0000000), wk =   0.0069444
        k(   20) = (  -0.0833333   0.4166667  -0.0833333), wk =   0.0277778
        k(   21) = (  -0.1666667   0.5000000  -0.1666667), wk =   0.0277778
        k(   22) = (  -0.2500000   0.5833333  -0.2500000), wk =   0.0277778
        k(   23) = (   0.6666667  -0.3333333   0.6666667), wk =   0.0277778
        k(   24) = (   0.5833333  -0.2500000   0.5833333), wk =   0.0277778
        k(   25) = (   0.5000000  -0.1666667   0.5000000), wk =   0.0277778
        k(   26) = (   0.4166667  -0.0833333   0.4166667), wk =   0.0277778
        k(   27) = (   0.3333333   0.0000000   0.3333333), wk =   0.0138889
        k(   28) = (   0.0000000   0.5000000   0.0000000), wk =   0.0069444
        k(   29) = (  -0.0833333   0.5833333  -0.0833333), wk =   0.0277778
        k(   30) = (  -0.1666667   0.6666667  -0.1666667), wk =   0.0277778
        k(   31) = (   0.7500000  -0.2500000   0.7500000), wk =   0.0277778
        k(   32) = (   0.6666667  -0.1666667   0.6666667), wk =   0.0277778
        k(   33) = (   0.5833333  -0.0833333   0.5833333), wk =   0.0277778
        k(   34) = (   0.5000000   0.0000000   0.5000000), wk =   0.0138889
        k(   35) = (   0.0000000   0.6666667   0.0000000), wk =   0.0069444
        k(   36) = (  -0.0833333   0.7500000  -0.0833333), wk =   0.0277778
        k(   37) = (   0.8333333  -0.1666667   0.8333333), wk =   0.0277778
        k(   38) = (   0.7500000  -0.0833333   0.7500000), wk =   0.0277778
        k(   39) = (   0.6666667  -0.0000000   0.6666667), wk =   0.0138889
        k(   40) = (   0.0000000   0.8333333   0.0000000), wk =   0.0069444
        k(   41) = (   0.9166667  -0.0833333   0.9166667), wk =   0.0277778
        k(   42) = (   0.8333333   0.0000000   0.8333333), wk =   0.0138889
        k(   43) = (   0.0000000  -1.0000000   0.0000000), wk =   0.0034722
        k(   44) = (  -0.1666667   0.3333333   0.0000000), wk =   0.0277778
        k(   45) = (  -0.2500000   0.4166667  -0.0833333), wk =   0.0555556
        k(   46) = (  -0.3333333   0.5000000  -0.1666667), wk =   0.0555556
        k(   47) = (   0.5833333  -0.4166667   0.7500000), wk =   0.0555556
        k(   48) = (   0.5000000  -0.3333333   0.6666667), wk =   0.0277778
        k(   49) = (  -0.1666667   0.5000000   0.0000000), wk =   0.0277778
        k(   50) = (  -0.2500000   0.5833333  -0.0833333), wk =   0.0555556
        k(   51) = (   0.6666667  -0.3333333   0.8333333), wk =   0.0555556
        k(   52) = (   0.5833333  -0.2500000   0.7500000), wk =   0.0555556
        k(   53) = (   0.5000000  -0.1666667   0.6666667), wk =   0.0555556
        k(   54) = (   0.4166667  -0.0833333   0.5833333), wk =   0.0555556
        k(   55) = (   0.3333333   0.0000000   0.5000000), wk =   0.0277778
        k(   56) = (  -0.1666667   0.6666667  -0.0000000), wk =   0.0277778
        k(   57) = (   0.7500000  -0.2500000   0.9166667), wk =   0.0555556
        k(   58) = (   0.6666667  -0.1666667   0.8333333), wk =   0.0555556
        k(   59) = (   0.5833333  -0.0833333   0.7500000), wk =   0.0555556
        k(   60) = (   0.5000000   0.0000000   0.6666667), wk =   0.0277778
        k(   61) = (   0.8333333  -0.1666667   1.0000000), wk =   0.0277778
        k(   62) = (   0.7500000  -0.0833333   0.9166667), wk =   0.0555556
        k(   63) = (   0.6666667   0.0000000   0.8333333), wk =   0.0277778
        k(   64) = (  -0.1666667  -1.0000000  -0.0000000), wk =   0.0138889
        k(   65) = (   0.6666667  -0.3333333   1.0000000), wk =   0.0277778
        k(   66) = (   0.5833333  -0.2500000   0.9166667), wk =   0.0555556
        k(   67) = (   0.5000000  -0.1666667   0.8333333), wk =   0.0277778
        k(   68) = (   0.6666667  -0.1666667   1.0000000), wk =   0.0277778
        k(   69) = (   0.5833333  -0.0833333   0.9166667), wk =   0.0555556
        k(   70) = (   0.5000000   0.0000000   0.8333333), wk =   0.0277778
        k(   71) = (  -0.3333333  -1.0000000   0.0000000), wk =   0.0138889
        k(   72) = (  -0.5000000  -1.0000000   0.0000000), wk =   0.0069444

     Dense  grid:    29123 G-vectors     FFT dimensions: (  45,  45,  45)

     Estimated max dynamical RAM per process >       8.27 MB

     Estimated total dynamical RAM >     191.43 MB

     Initial potential from superposition of free atoms

     starting charge      15.5979, renormalised to      16.0000
     Starting wfcs are random

     total cpu time spent up to now is        0.4 secs

     Self-consistent Calculation

     iteration #  1     ecut=    61.00 Ry     beta= 0.70
     Davidson diagonalization with overlap
     ethr =  1.00E-02,  avg # of iterations =  9.5

     total cpu time spent up to now is        1.7 secs

     total energy              =     -72.13680414 Ry
     estimated scf accuracy    <       0.21130845 Ry

     iteration #  2     ecut=    61.00 Ry     beta= 0.70
     Davidson diagonalization with overlap
     ethr =  1.32E-03,  avg # of iterations =  6.0

     total cpu time spent up to now is        2.5 secs

     total energy              =     -72.19660608 Ry
     estimated scf accuracy    <       0.13952573 Ry

     iteration #  3     ecut=    61.00 Ry     beta= 0.70
     Davidson diagonalization with overlap
     ethr =  8.72E-04,  avg # of iterations =  2.0

     total cpu time spent up to now is        3.0 secs

     total energy              =     -72.22786800 Ry
     estimated scf accuracy    <       0.00157306 Ry

     iteration #  4     ecut=    61.00 Ry     beta= 0.70
     Davidson diagonalization with overlap
     c_bands:  1 eigenvalues not converged
     c_bands:  1 eigenvalues not converged
     c_bands:  2 eigenvalues not converged
     c_bands:  1 eigenvalues not converged
     c_bands:  1 eigenvalues not converged
     c_bands:  1 eigenvalues not converged
     c_bands:  1 eigenvalues not converged
     c_bands:  1 eigenvalues not converged
     ethr =  9.83E-06,  avg # of iterations = 14.6

     total cpu time spent up to now is        4.4 secs

     total energy              =     -72.22922689 Ry
     estimated scf accuracy    <       0.00002710 Ry

     iteration #  5     ecut=    61.00 Ry     beta= 0.70
     Davidson diagonalization with overlap
     c_bands:  1 eigenvalues not converged
     c_bands:  1 eigenvalues not converged
     c_bands:  1 eigenvalues not converged
     c_bands:  1 eigenvalues not converged
     c_bands:  2 eigenvalues not converged
     c_bands:  1 eigenvalues not converged
     c_bands:  1 eigenvalues not converged
     ethr =  1.69E-07,  avg # of iterations = 12.5

     total cpu time spent up to now is        5.4 secs

     total energy              =     -72.22924911 Ry
     estimated scf accuracy    <       0.00000066 Ry

     iteration #  6     ecut=    61.00 Ry     beta= 0.70
     Davidson diagonalization with overlap
     ethr =  4.15E-09,  avg # of iterations =  5.7

     total cpu time spent up to now is        7.1 secs

     total energy              =     -72.22925000 Ry
     estimated scf accuracy    <       0.00000001 Ry

     iteration #  7     ecut=    61.00 Ry     beta= 0.70
     Davidson diagonalization with overlap
     ethr =  8.17E-11,  avg # of iterations =  5.1

     total cpu time spent up to now is        8.3 secs

     total energy              =     -72.22925002 Ry
     estimated scf accuracy    <          8.4E-10 Ry

     iteration #  8     ecut=    61.00 Ry     beta= 0.70
     Davidson diagonalization with overlap
     ethr =  5.27E-12,  avg # of iterations =  4.7

     total cpu time spent up to now is        9.0 secs

     total energy              =     -72.22925003 Ry
     estimated scf accuracy    <          1.2E-10 Ry

     iteration #  9     ecut=    61.00 Ry     beta= 0.70
     Davidson diagonalization with overlap
     ethr =  7.75E-13,  avg # of iterations =  2.6

     total cpu time spent up to now is        9.5 secs

     End of self-consistent calculation

          k = 0.0000 0.0000 0.0000 (  3695 PWs)   bands (ev):

   -20.5642  -5.6333  -5.6333  -5.6333  -4.7733   5.4781   5.4781   5.4781
     9.0151   9.4401   9.4401   9.4401  10.3383  10.3383  12.9012  15.3097

          k =-0.0833 0.0833-0.0833 (  3662 PWs)   bands (ev):

   -20.5617  -5.7671  -5.6357  -5.6357  -4.6339   5.2949   5.3926   5.3926
     9.2552   9.4549   9.5359   9.5359  10.5237  10.5237  13.1048  15.2907

          k =-0.1667 0.1667-0.1667 (  3656 PWs)   bands (ev):

   -20.5547  -6.0262  -5.6421  -5.6421  -4.3593   4.8761   5.1810   5.1810
     9.4250   9.8134   9.8134   9.9662  11.0348  11.0348  13.6055  15.1500

          k =-0.2500 0.2500-0.2500 (  3647 PWs)   bands (ev):

   -20.5450  -6.2813  -5.6510  -5.6510  -4.0820   4.4150   4.9306   4.9306
     9.5819  10.2521  10.2521  10.7646  11.7714  11.7714  14.1451  14.8718

          k =-0.3333 0.3333-0.3333 (  3651 PWs)   bands (ev):

   -20.5354  -6.4850  -5.6597  -5.6597  -3.8550   4.0259   4.7119   4.7119
     9.9074  10.8181  10.8181  11.4065  12.6187  12.6187  14.4216  14.4233

          k =-0.4167 0.4167-0.4167 (  3639 PWs)   bands (ev):

   -20.5283  -6.6149  -5.6660  -5.6660  -3.7072   3.7705   4.5669   4.5669
    10.3982  11.4256  11.4256  11.4574  13.3362  13.3363  14.0010  14.0013

          k = 0.5000-0.5000 0.5000 (  3648 PWs)   bands (ev):

   -20.5257  -6.6594  -5.6683  -5.6683  -3.6559   3.6817   4.5165   4.5165
    10.9627  11.0047  11.7670  11.7670  13.3038  13.3038  14.2678  14.2684

          k = 0.0000 0.1667 0.0000 (  3655 PWs)   bands (ev):

   -20.5608  -5.7839  -5.6449  -5.6449  -4.6012   5.1234   5.4449   5.4449
     9.2492   9.2830   9.6653   9.6653  10.3945  10.8020  13.1637  15.2855

          k =-0.0833 0.2500-0.0833 (  3653 PWs)   bands (ev):

   -20.5553  -5.9713  -5.6573  -5.6493  -4.4033   4.7939   5.3005   5.3390
     9.1531   9.6506   9.9475   9.9659  10.6332  11.4041  13.5472  15.1684

          k =-0.1667 0.3333-0.1667 (  3647 PWs)   bands (ev):

   -20.5466  -6.2039  -5.6696  -5.6544  -4.1617   4.4452   5.0261   5.1279
     9.2266  10.1891  10.4118  10.4447  11.1845  12.1748  14.0615  14.8753

          k =-0.2500 0.4167-0.2500 (  3652 PWs)   bands (ev):

   -20.5369  -6.4089  -5.6783  -5.6649  -3.9451   4.1316   4.7665   4.8916
     9.4872  10.7234  10.9742  11.1194  11.9340  12.9178  14.4061  14.4133

          k =-0.3333 0.5000-0.3333 (  3650 PWs)   bands (ev):

   -20.5290  -6.5544  -5.6813  -5.6782  -3.7882   3.8943   4.6009   4.6923
     9.9314  11.2806  11.4737  11.5581  12.7476  13.4054  13.8929  14.4177

          k = 0.5833-0.4167 0.5833 (  3658 PWs)   bands (ev):

   -20.5249  -6.6240  -5.6907  -5.6778  -3.7105   3.7709   4.5534   4.5670
    10.5107  11.0719  11.8136  11.8980  13.3116  13.5648  13.9077  14.0872

          k = 0.5000-0.3333 0.5000 (  3658 PWs)   bands (ev):

   -20.5258  -6.6111  -5.6985  -5.6686  -3.7216   3.7858   4.5340   4.6212
    10.4639  11.1299  11.4150  12.0190  13.0843  13.7291  13.8411  14.2816

          k = 0.4167-0.2500 0.4167 (  3653 PWs)   bands (ev):

   -20.5314  -6.5172  -5.6994  -5.6563  -3.8209   3.9434   4.5983   4.7877
     9.9418  10.8084  11.3236  11.5215  12.4973  13.3814  14.1069  14.4959

          k = 0.3333-0.1667 0.3333 (  3658 PWs)   bands (ev):

   -20.5401  -6.3525  -5.6922  -5.6441  -3.9974   4.2273   4.7516   5.0204
     9.5749  10.2577  10.7770  10.9128  11.9503  12.5228  14.3163  14.4890

          k = 0.2500-0.0833 0.2500 (  3658 PWs)   bands (ev):

   -20.5498  -6.1380  -5.6778  -5.6352  -4.2280   4.6005   4.9703   5.2590
     9.3931   9.8424  10.0732  10.3624  11.2588  11.6824  13.8967  14.8705

          k = 0.1667-0.0000 0.1667 (  3657 PWs)   bands (ev):

   -20.5576  -5.9151  -5.6570  -5.6321  -4.4696   4.9988   5.2081   5.4073
     9.3714   9.5451   9.5961   9.8929  10.6966  10.9829  13.3985  15.1608

          k = 0.0000 0.3333 0.0000 (  3651 PWs)   bands (ev):

   -20.5515  -6.0151  -5.6766  -5.6766  -4.3430   4.5571   5.3790   5.3790
     8.8291   9.6834  10.2832  10.2832  10.5566  12.0738  13.7567  15.1792

          k =-0.0833 0.4167-0.0833 (  3638 PWs)   bands (ev):

   -20.5444  -6.1509  -5.6948  -5.6890  -4.2185   4.3522   5.2416   5.2827
     8.7211  10.0587  10.6975  10.7126  10.8507  12.8380  14.1398  14.9070

          k =-0.1667 0.5000-0.1667 (  3639 PWs)   bands (ev):

   -20.5357  -6.3096  -5.7070  -5.7019  -4.0777   4.2105   4.9782   5.0955
     8.8505  10.6990  11.1477  11.2457  11.4207  13.3824  14.4658  14.4997

          k =-0.2500 0.5833-0.2500 (  3637 PWs)   bands (ev):

   -20.5278  -6.4414  -5.7238  -5.7101  -3.9530   4.1139   4.7428   4.8857
     9.1987  11.3035  11.5998  11.7946  12.1479  13.3555  13.9562  14.6185

          k = 0.6667-0.3333 0.6667 (  3646 PWs)   bands (ev):

   -20.5228  -6.5216  -5.7498  -5.7034  -3.8646   4.0206   4.6562   4.7083
     9.7354  11.1614  11.9513  12.1527  13.0198  13.5633  13.7454  13.9619

          k = 0.5833-0.2500 0.5833 (  3651 PWs)   bands (ev):

   -20.5222  -6.5399  -5.7705  -5.6884  -3.8269   3.9480   4.5972   4.7302
    10.3594  10.6511  11.5351  12.2244  13.3757  13.8778  13.9247  14.0293

          k = 0.5000-0.1667 0.5000 (  3647 PWs)   bands (ev):

   -20.5260  -6.4968  -5.7767  -5.6693  -3.8491   3.9567   4.5699   4.8982
    10.0527  10.9533  10.9799  11.7579  12.7702  14.0834  14.1968  14.6014

          k = 0.4167-0.0833 0.4167 (  3641 PWs)   bands (ev):

   -20.5332  -6.4018  -5.7622  -5.6509  -3.9333   4.0752   4.6310   5.0919
     9.6756  10.4342  10.7160  11.5692  12.2545  13.3514  14.2118  14.5883

          k = 0.3333 0.0000 0.3333 (  3653 PWs)   bands (ev):

   -20.5419  -6.2734  -5.7263  -5.6384  -4.0691   4.3000   4.7723   5.2365
     9.4616  10.0535  10.2775  10.9935  11.8342  12.4871  14.2864  14.4297

          k = 0.0000 0.5000 0.0000 (  3615 PWs)   bands (ev):

   -20.5390  -6.1580  -5.7197  -5.7197  -4.2432   4.2941   5.3341   5.3341
     8.3887  10.1202  10.8028  11.1589  11.1589  13.5349  14.3656  14.9289

          k =-0.0833 0.5833-0.0833 (  3627 PWs)   bands (ev):

   -20.5319  -6.2216  -5.7411  -5.7378  -4.2289   4.3054   5.2189   5.2614
     8.3263  10.5215  11.0978  11.6196  11.6567  13.8297  14.5697  14.6197

          k =-0.1667 0.6667-0.1667 (  3631 PWs)   bands (ev):

   -20.5249  -6.3008  -5.7760  -5.7444  -4.1742   4.3653   4.9796   5.1005
     8.5319  11.1238  11.6627  11.9835  12.1080  13.5077  14.1296  14.2788

          k = 0.7500-0.2500 0.7500 (  3637 PWs)   bands (ev):

   -20.5200  -6.3654  -5.8247  -5.7378  -4.0915   4.3759   4.8067   4.9103
     8.9664  11.3437  12.1512  12.2513  12.4726  13.4404  13.7260  13.9665

          k = 0.6667-0.1667 0.6667 (  3651 PWs)   bands (ev):

   -20.5184  -6.4062  -5.8642  -5.7197  -4.0042   4.2320   4.7415   4.8538
     9.5859  10.8816  11.7817  12.1499  13.2912  13.6169  13.9706  14.2587

          k = 0.5833-0.0833 0.5833 (  3642 PWs)   bands (ev):

   -20.5207  -6.4253  -5.8691  -5.6948  -3.9374   4.0848   4.6277   4.9784
    10.2718  10.3917  11.2476  11.6214  13.5427  14.0435  14.4249  14.6805

          k = 0.5000 0.0000 0.5000 (  3651 PWs)   bands (ev):

   -20.5261  -6.4250  -5.8306  -5.6696  -3.9109   4.0251   4.5883   5.0740
     9.9441  10.7541  10.7737  11.4747  12.8565  14.1010  14.5452  14.7200

          k = 0.0000 0.6667 0.0000 (  3631 PWs)   bands (ev):

   -20.5266  -6.1800  -5.7625  -5.7625  -4.3561   4.4414   5.3285   5.3285
     8.0337  10.6325  11.0886  12.0882  12.0882  13.9108  14.6524  14.6529

          k =-0.0833 0.7500-0.0833 (  3641 PWs)   bands (ev):

   -20.5212  -6.1787  -5.7986  -5.7749  -4.4051   4.6019   5.2280   5.2735
     8.0405  11.0368  11.3736  12.3847  12.4520  13.6408  14.0088  14.3600

          k = 0.8333-0.1667 0.8333 (  3652 PWs)   bands (ev):

   -20.5171  -6.1890  -5.8813  -5.7717  -4.3506   4.7300   4.9996   5.1249
     8.3287  11.5222  11.8999  12.2045  12.5019  13.2967  13.7613  14.2501

          k = 0.7500-0.0833 0.7500 (  3649 PWs)   bands (ev):

   -20.5155  -6.2239  -5.9576  -5.7539  -4.2226   4.5881   4.9364   4.9513
     8.8442  11.3131  12.0668  12.1290  12.6140  13.1968  14.2136  14.4823

          k = 0.6667-0.0000 0.6667 (  3627 PWs)   bands (ev):

   -20.5168  -6.3189  -5.9450  -5.7258  -4.0712   4.3099   4.7583   4.9956
     9.5347  10.7873  11.6646  11.7767  13.3602  13.6686  14.5904  14.7917

          k = 0.0000 0.8333 0.0000 (  3631 PWs)   bands (ev):

   -20.5175  -6.1158  -5.7937  -5.7937  -4.5699   4.7998   5.3454   5.3454
     7.8087  11.1518  11.3355  12.7347  12.7347  13.3364  13.7984  14.5760

          k = 0.9167-0.0833 0.9167 (  3635 PWs)   bands (ev):

   -20.5150  -6.0816  -5.8572  -5.7962  -4.5807   4.9347   5.2377   5.2920
     7.8926  11.4743  11.5601  12.5015  12.7789  13.1110  13.6734  14.4598

          k = 0.8333 0.0000 0.8333 (  3642 PWs)   bands (ev):

   -20.5143  -6.0342  -6.0207  -5.7817  -4.4376   4.9501   4.9868   5.1381
     8.2595  11.8636  11.8841  12.0073  12.5163  12.9379  14.1002  14.5762

          k = 0.0000-1.0000 0.0000 (  3612 PWs)   bands (ev):

   -20.5143  -6.0680  -5.8051  -5.8051  -4.6816   4.9930   5.3556   5.3556
     7.7320  11.4116  11.4373  12.9117  12.9117  13.0471  13.2832  14.4736

          k =-0.1667 0.3333 0.0000 (  3652 PWs)   bands (ev):

   -20.5489  -6.1140  -5.6900  -5.6505  -4.2475   4.5067   5.1061   5.3318
     9.0498   9.9378  10.1533  10.4700  10.9476  12.1255  13.9243  14.8784

          k =-0.2500 0.4167-0.0833 (  3645 PWs)   bands (ev):

   -20.5402  -6.2849  -5.7180  -5.6563  -4.0720   4.2558   4.8630   5.1856
     9.1465  10.3949  10.5301  11.0458  11.5620  12.8748  14.3366  14.4852

          k =-0.3333 0.5000-0.1667 (  3645 PWs)   bands (ev):

   -20.5315  -6.4349  -5.7339  -5.6694  -3.9231   4.0650   4.6733   4.9685
     9.4386  10.9218  11.0713  11.6065  12.1738  13.3600  14.2248  14.6276

          k = 0.5833-0.4167 0.7500 (  3645 PWs)   bands (ev):

   -20.5251  -6.5348  -5.7389  -5.6845  -3.8258   3.9431   4.5886   4.7652
     9.9130  11.1207  11.4836  12.0334  12.7883  13.8052  13.8596  14.3789

          k = 0.5000-0.3333 0.6667 (  3658 PWs)   bands (ev):

   -20.5227  -6.5696  -5.7388  -5.6918  -3.7922   3.9004   4.6038   4.6481
    10.4257  10.6485  11.8345  12.2143  13.4395  13.6734  13.7290  14.0062

          k =-0.1667 0.5000 0.0000 (  3641 PWs)   bands (ev):

   -20.5372  -6.2346  -5.7347  -5.6942  -4.1565   4.2565   5.0767   5.2762
     8.6361  10.3479  11.0440  11.1573  11.3258  13.4499  14.4422  14.5858

          k =-0.2500 0.5833-0.0833 (  3639 PWs)   bands (ev):

   -20.5294  -6.3303  -5.7664  -5.7077  -4.0805   4.2252   4.8590   5.1488
     8.7997  10.8041  11.4537  11.7235  11.8792  13.4676  14.3747  14.6572

          k = 0.6667-0.3333 0.8333 (  3631 PWs)   bands (ev):

   -20.5230  -6.4085  -5.7887  -5.7253  -4.0071   4.2097   4.7151   4.9595
     9.1801  11.1529  11.8139  11.9206  12.6421  13.5603  13.9598  14.1915

          k = 0.5833-0.2500 0.7500 (  3644 PWs)   bands (ev):

   -20.5198  -6.4522  -5.8102  -5.7273  -3.9512   4.1497   4.7219   4.7914
     9.7422  10.7040  12.0474  12.2393  13.0412  13.6528  14.0032  14.0866

          k = 0.5000-0.1667 0.6667 (  3643 PWs)   bands (ev):

   -20.5206  -6.4560  -5.8237  -5.7109  -3.9253   4.0874   4.6495   4.8778
    10.0681  10.4516  11.7017  11.9315  13.3052  13.8895  14.0991  14.4077

          k = 0.4167-0.0833 0.5833 (  3642 PWs)   bands (ev):

   -20.5253  -6.4231  -5.8139  -5.6869  -3.9377   4.0752   4.6238   5.0395
     9.5968  10.8724  11.2185  11.5718  12.8157  13.8386  14.3594  14.6395

          k = 0.3333 0.0000 0.5000 (  3643 PWs)   bands (ev):

   -20.5324  -6.3624  -5.7755  -5.6662  -3.9898   4.1292   4.7016   5.1622
     9.2788  10.6097  10.7960  11.6306  12.1055  13.3679  14.3832  14.5980

          k =-0.1667 0.6667-0.0000 (  3637 PWs)   bands (ev):

   -20.5256  -6.2372  -5.7792  -5.7536  -4.2598   4.4084   5.0877   5.2611
     8.2984  10.8096  11.4550  12.0079  12.0997  13.6699  14.2725  14.6010

          k = 0.7500-0.2500 0.9167 (  3641 PWs)   bands (ev):

   -20.5202  -6.2607  -5.8245  -5.7763  -4.2330   4.5171   4.9001   5.1484
     8.5396  11.1814  11.7754  12.3264  12.3820  13.6195  13.7585  14.2678

          k = 0.6667-0.1667 0.8333 (  3642 PWs)   bands (ev):

   -20.5169  -6.2861  -5.8865  -5.7731  -4.1601   4.4739   4.8599   4.9751
     9.0031  11.0144  11.9528  12.3882  12.6690  13.5576  13.9007  14.3135

          k = 0.5833-0.0833 0.7500 (  3639 PWs)   bands (ev):

   -20.5168  -6.3256  -5.9156  -5.7497  -4.0698   4.3050   4.7922   4.9639
     9.6441  10.4378  11.8662  12.0439  12.9610  14.0899  14.2333  14.6984

          k = 0.5000 0.0000 0.6667 (  3637 PWs)   bands (ev):

   -20.5199  -6.3797  -5.8851  -5.7171  -3.9894   4.1603   4.6667   5.0362
     9.9422  10.3739  11.5119  11.5999  13.4059  14.0574  14.5229  14.6001

          k = 0.8333-0.1667 1.0000 (  3637 PWs)   bands (ev):

   -20.5172  -6.1416  -5.8303  -5.8115  -4.4512   4.7752   5.1111   5.2706
     8.0845  11.2578  11.7176  12.2933  12.7111  13.3712  13.7751  14.4747

          k = 0.7500-0.0833 0.9167 (  3649 PWs)   bands (ev):

   -20.5149  -6.1091  -5.9422  -5.8125  -4.3792   4.8119   4.9657   5.1589
     8.4043  11.4494  11.6933  12.3192  12.7372  13.1184  14.0388  14.4991

          k = 0.6667 0.0000 0.8333 (  3649 PWs)   bands (ev):

   -20.5147  -6.1699  -5.9883  -5.7878  -4.2339   4.5659   4.9799   4.9910
     8.9422  10.9347  11.8879  12.4352  12.4687  13.5667  14.3375  14.6421

          k =-0.1667-1.0000-0.0000 (  3634 PWs)   bands (ev):

   -20.5142  -6.0509  -5.8972  -5.8233  -4.5472   4.9898   5.1057   5.2781
     8.0117  11.4733  11.9080  12.0845  12.9170  12.9784  13.7971  14.5482

          k = 0.6667-0.3333 1.0000 (  3650 PWs)   bands (ev):

   -20.5231  -6.3377  -5.8243  -5.7337  -4.0773   4.2782   4.7449   5.1325
     8.9950  10.9192  11.6019  11.8092  12.6821  13.6254  14.1422  14.5741

          k = 0.5833-0.2500 0.9167 (  3648 PWs)   bands (ev):

   -20.5185  -6.3349  -5.8620  -5.7691  -4.0713   4.3039   4.7535   5.0287
     9.3943  10.6231  11.6475  12.1869  13.0275  13.9859  14.1003  14.3227

          k = 0.5000-0.1667 0.8333 (  3648 PWs)   bands (ev):

   -20.5168  -6.3319  -5.8739  -5.7864  -4.0684   4.3004   4.8512   4.9070
     9.9134  10.0166  11.9992  12.3515  12.7178  13.9079  14.4341  14.6012

          k = 0.6667-0.1667 1.0000 (  3652 PWs)   bands (ev):

   -20.5164  -6.2086  -5.8597  -5.8510  -4.2374   4.5643   4.8731   5.1323
     8.8053  10.9746  11.5589  12.6398  12.6745  13.5459  14.1546  14.4684

          k = 0.5833-0.0833 0.9167 (  3652 PWs)   bands (ev):

   -20.5147  -6.1787  -5.9324  -5.8579  -4.1981   4.4736   4.9641   5.0337
     9.2790  10.3678  11.7541  12.4048  12.7578  14.1641  14.2271  14.5655

          k = 0.5000 0.0000 0.8333 (  3645 PWs)   bands (ev):

   -20.5155  -6.2378  -5.9245  -5.8237  -4.1375   4.3808   4.8847   5.0320
     9.8053   9.9145  11.7253  12.5329  12.5970  14.4027  14.4565  14.5156

          k =-0.3333-1.0000 0.0000 (  3652 PWs)   bands (ev):

   -20.5140  -6.0418  -6.0040  -5.8726  -4.3149   4.6635   4.9936   5.1363
     8.7401  10.9177  11.6007  12.3696  12.9279  13.5604  14.1619  14.5063

          k =-0.5000-1.0000 0.0000 (  3676 PWs)   bands (ev):

   -20.5139  -6.1021  -5.9389  -5.9389  -4.2091   4.4627   5.0347   5.0347
     9.7521   9.7521  11.6936  12.2859  12.9333  14.3597  14.3601  14.6177

     the Fermi energy is     6.3725 ev

!    total energy              =     -72.22925003 Ry
     estimated scf accuracy    <          8.8E-13 Ry
     smearing contrib. (-TS)   =      -0.00000000 Ry
     internal energy E=F+TS    =     -72.22925003 Ry

     The total energy is F=E-TS. E is the sum of the following terms:
     one-electron contribution =      -8.14839624 Ry
     hartree contribution      =       9.78110369 Ry
     xc contribution           =     -11.98914253 Ry
     ewald contribution        =     -61.87281495 Ry

     convergence has been achieved in   9 iterations

     Writing all to output data dir out/mp-1500.save/
 
     init_run     :      0.26s CPU      0.35s WALL (       1 calls)
     electrons    :      8.19s CPU      9.21s WALL (       1 calls)

     Called by init_run:
     wfcinit      :      0.23s CPU      0.27s WALL (       1 calls)
     potinit      :      0.01s CPU      0.01s WALL (       1 calls)
     hinit0       :      0.01s CPU      0.04s WALL (       1 calls)

     Called by electrons:
     c_bands      :      7.50s CPU      8.27s WALL (       9 calls)
     sum_band     :      0.62s CPU      0.76s WALL (       9 calls)
     v_of_rho     :      0.04s CPU      0.04s WALL (      10 calls)
     mix_rho      :      0.02s CPU      0.03s WALL (       9 calls)

     Called by c_bands:
     init_us_2    :      0.09s CPU      0.10s WALL (     684 calls)
     init_us_2:cp :      0.09s CPU      0.09s WALL (     684 calls)
     cegterg      :      5.37s CPU      5.60s WALL (     324 calls)

     Called by *egterg:
     cdiaghg      :      0.74s CPU      0.78s WALL (    2561 calls)
     h_psi        :      4.37s CPU      4.58s WALL (    2597 calls)
     g_psi        :      0.03s CPU      0.03s WALL (    2237 calls)

     Called by h_psi:
     h_psi:calbec :      0.14s CPU      0.15s WALL (    2597 calls)
     vloc_psi     :      4.10s CPU      4.29s WALL (    2597 calls)
     add_vuspsi   :      0.11s CPU      0.11s WALL (    2597 calls)

     General routines
     calbec       :      0.13s CPU      0.14s WALL (    2597 calls)
     fft          :      0.02s CPU      0.05s WALL (      99 calls)
     ffts         :      0.00s CPU      0.00s WALL (       9 calls)
     fftw         :      4.25s CPU      4.46s WALL (   45576 calls)
     davcio       :      0.06s CPU      0.48s WALL (    1130 calls)
 
     Parallel routines
 
     PWSCF        :      8.64s CPU     10.18s WALL

 
   This run was terminated on:   2: 6: 3  21Nov2023            

=------------------------------------------------------------------------------=
   JOB DONE.
=------------------------------------------------------------------------------=
