
     Program PWSCF v.7.1 starts on 20Nov2023 at  0:51:29 

     This program is part of the open-source Quantum ESPRESSO suite
     for quantum simulation of materials; please cite
         "P. Giannozzi et al., J. Phys.:Condens. Matter 21 395502 (2009);
         "P. Giannozzi et al., J. Phys.:Condens. Matter 29 465901 (2017);
         "P. Giannozzi et al., J. Chem. Phys. 152 154105 (2020);
          URL http://www.quantum-espresso.org", 
     in publications or presentations arising from this work. More details at
     http://www.quantum-espresso.org/quote

     Parallel version (MPI), running on    24 processors

     MPI processes distributed on     1 nodes
     123275 MiB available memory on the printing compute node when the environment starts
 
     Reading input from pw_mp-1500_nscf_k260_E61.in
Warning: card &IONS ignored
Warning: card / ignored
Warning: card &CELL ignored
Warning: card / ignored

     Current dimensions of program PWSCF are:
     Max number of different atomic species (ntypx) = 10
     Max number of k-points (npk) =  40000
     Max angular momentum in pseudopotentials (lmaxx) =  4

     Atomic positions and unit cell read from directory:
     out/mp-1500.save/
     Atomic positions from file used, from input discarded
 
 
     K-points division:     npool     =       2
     R & G space division:  proc/nbgrp/npool/nimage =      12
     Subspace diagonalization in iterative solution of the eigenvalue problem:
     one sub-group per band group will be used
     scalapack distributed-memory algorithm (size of sub-group:  3*  3 procs)

 
     Parallelization info
     --------------------
     sticks:   dense  smooth     PW     G-vecs:    dense   smooth      PW
     Min         104     104     30                 2426     2426     386
     Max         106     106     31                 2428     2428     389
     Sum        1261    1261    367                29123    29123    4645
 
     Using Slab Decomposition
 


     bravais-lattice index     =            2
     lattice parameter (alat)  =      12.1913  a.u.
     unit-cell volume          =     452.9900 (a.u.)^3
     number of atoms/cell      =            2
     number of atomic types    =            2
     number of electrons       =        16.00
     number of Kohn-Sham states=         1200
     kinetic-energy cutoff     =      61.0000  Ry
     charge density cutoff     =     244.0000  Ry
     Exchange-correlation= PBE
                           (   1   4   3   4   0   0   0)

     celldm(1)=  12.191286  celldm(2)=   0.000000  celldm(3)=   0.000000
     celldm(4)=   0.000000  celldm(5)=   0.000000  celldm(6)=   0.000000

     crystal axes: (cart. coord. in units of alat)
               a(1) = (  -0.500000   0.000000   0.500000 )  
               a(2) = (   0.000000   0.500000   0.500000 )  
               a(3) = (  -0.500000   0.500000   0.000000 )  

     reciprocal axes: (cart. coord. in units 2 pi/alat)
               b(1) = ( -1.000000 -1.000000  1.000000 )  
               b(2) = (  1.000000  1.000000  1.000000 )  
               b(3) = ( -1.000000  1.000000 -1.000000 )  


     PseudoPot. # 1 for Ba read from file:
     /usr/scratch4/magr4985/MG/HTDF/pseudo/SG15/Ba.upf
     MD5 check sum: ac4691792522964bb0504809e83fae44
     Pseudo is Norm-conserving, Zval = 10.0
     Generated using ONCVPSP code by D. R. Hamann
     Using radial grid of  602 points,  8 beta functions with: 
                l(1) =   0
                l(2) =   0
                l(3) =   1
                l(4) =   1
                l(5) =   2
                l(6) =   2
                l(7) =   3
                l(8) =   3

     PseudoPot. # 2 for S  read from file:
     /usr/scratch4/magr4985/MG/HTDF/pseudo/SG15/S.upf
     MD5 check sum: f9d020296ee6110346977bfd66d424f6
     Pseudo is Norm-conserving, Zval =  6.0
     Generated using ONCVPSP code by D. R. Hamann
     Using radial grid of  602 points,  4 beta functions with: 
                l(1) =   0
                l(2) =   0
                l(3) =   1
                l(4) =   1

     atomic species   valence    mass     pseudopotential
        Ba            10.00   137.32700     Ba( 1.00)
        S              6.00    32.06500     S ( 1.00)

     48 Sym. Ops., with inversion, found



   Cartesian axes

     site n.     atom                  positions (alat units)
         1           Ba  tau(   1) = (   0.0000000   0.0000000   0.0000000  )
         2           S   tau(   2) = (  -0.5000000   0.5000000   0.5000000  )

     number of k points=    16  Gaussian smearing, width (Ry)=  0.0005
                       cart. coord. in units 2pi/alat
        k(    1) = (   0.0000000   0.0000000   0.0000000), wk =   0.0092593
        k(    2) = (  -0.1666667   0.1666667  -0.1666667), wk =   0.0740741
        k(    3) = (  -0.3333333   0.3333333  -0.3333333), wk =   0.0740741
        k(    4) = (   0.5000000  -0.5000000   0.5000000), wk =   0.0370370
        k(    5) = (   0.0000000   0.3333333   0.0000000), wk =   0.0555556
        k(    6) = (  -0.1666667   0.5000000  -0.1666667), wk =   0.2222222
        k(    7) = (   0.6666667  -0.3333333   0.6666667), wk =   0.2222222
        k(    8) = (   0.5000000  -0.1666667   0.5000000), wk =   0.2222222
        k(    9) = (   0.3333333   0.0000000   0.3333333), wk =   0.1111111
        k(   10) = (   0.0000000   0.6666667   0.0000000), wk =   0.0555556
        k(   11) = (   0.8333333  -0.1666667   0.8333333), wk =   0.2222222
        k(   12) = (   0.6666667  -0.0000000   0.6666667), wk =   0.1111111
        k(   13) = (   0.0000000  -1.0000000   0.0000000), wk =   0.0277778
        k(   14) = (   0.6666667  -0.3333333   1.0000000), wk =   0.2222222
        k(   15) = (   0.5000000  -0.1666667   0.8333333), wk =   0.2222222
        k(   16) = (  -0.3333333  -1.0000000   0.0000000), wk =   0.1111111

     Dense  grid:    29123 G-vectors     FFT dimensions: (  45,  45,  45)

     Estimated max dynamical RAM per process >     109.31 MB

     Estimated total dynamical RAM >       2.56 GB

     The potential is recalculated from file :
     out/mp-1500.save/charge-density

     Starting wfcs are random

     Band Structure Calculation
     Davidson diagonalization with overlap

     ethr =  5.00E-06,  avg # of iterations = 11.1

     total cpu time spent up to now is      751.8 secs

     End of band structure calculation

          k = 0.0000 0.0000 0.0000 (  3695 PWs)   bands (ev):

   -20.5642  -5.6333  -5.6333  -5.6333  -4.7733   5.4781   5.4781   5.4781
     9.0151   9.4401   9.4401   9.4401  10.3383  10.3383  12.9012  15.3094
    15.3094  15.3094  15.4538  15.4538  15.4538  17.5952  20.0832  20.0832
    20.0832  22.9289  22.9289  22.9289  23.7806  23.7806  26.0686  26.0686
    26.0686  27.0071  27.4406  27.4406  29.7364  29.7364  29.7364  30.3555
    30.3555  30.3555  35.5605  38.4941  38.4941  38.4941  38.8118  38.8118
    38.8118  38.9319  38.9319  38.9319  39.2041  39.2041  39.2041  40.7086
    41.6277  41.6277  41.6277  41.6523  42.1338  42.1338  42.1338  42.6610
    42.6610  43.7695  44.4283  44.4283  51.9438  51.9438  51.9438  56.0556
    56.0556  56.0556  56.1979  60.0811  60.0811  60.8005  60.8005  60.8005
    61.5153  61.5153  61.5153  63.3966  63.3966  63.3966  64.3165  64.3165
    65.8766  66.5711  66.5711  66.5711  66.6980  66.6980  66.6980  67.0113
    67.0113  67.0113  67.0859  67.0859  67.0859  68.1672  68.9666  68.9666
    68.9666  69.0689  69.0689  69.0689  69.7418  69.7418  70.0979  70.0979
    70.0979  70.6824  70.6824  71.6326  71.6326  71.6326  72.6616  75.2501
    77.2337  77.2337  78.4029  78.4029  78.4029  79.9980  82.7586  82.7586
    82.7586  84.0627  84.0627  84.3572  84.3572  84.3572  84.6307  84.6307
    84.6307  85.0122  85.0122  85.0122  85.6309  85.6309  85.6309  86.0007
    86.0007  86.9387  86.9387  86.9387  88.8194  89.6351  89.6351  89.6351
    91.6668  93.1470  93.1470  93.1470  93.8037  93.8442  93.8442  93.8442
    94.2125  94.2125  94.2125  94.6002  94.6002  94.6002  94.9887  94.9887
    94.9887  99.5055  99.5055  99.6003  99.6003  99.6003  99.7754 100.1561
   106.0048 106.4439 106.4439 106.4439 106.7997 106.7997 107.4676 107.4676
   109.9471 109.9471 109.9471 111.2699 111.2699 111.2699 111.6452 111.6452
   111.6452 113.8416 116.5302 116.5302 116.5302 118.3525 118.3525 118.3525
   118.4414 118.4414 118.4414 119.2812 119.2812 119.5772 119.5772 119.5772
   121.0348 121.0348 121.0348 121.1257 121.1257 121.1257 121.1386 121.1386
   121.4169 121.4667 121.9575 122.7217 122.7217 122.8655 122.8655 122.8655
   124.1466 124.1466 124.1466 124.2147 124.2147 124.2147 124.4242 124.4242
   124.4242 124.8256 126.5451 126.5451 126.5451 126.7290 126.7290 126.7290
   126.9982 126.9982 127.4751 127.4856 127.4856 127.4856 128.1633 128.1633
   128.1633 128.2132 128.2132 128.4339 128.4339 128.4339 128.6880 128.8596
   128.8596 128.8596 128.9127 128.9127 128.9127 129.0165 129.0165 129.0441
   129.0441 129.0441 134.5563 135.8033 135.8033 135.8033 136.2602 136.2602
   136.2602 136.4265 136.4265 137.3585 137.3585 137.3585 138.1337 138.1337
   138.1337 140.3575 140.3575 140.3575 142.9285 142.9978 142.9978 143.1939
   143.2235 143.2235 143.2235 145.5800 145.5800 145.5800 148.2816 149.3914
   149.3914 149.3914 151.0081 151.3245 151.3245 151.3245 151.4384 151.4384
   151.9957 151.9957 152.0528 152.0528 152.0528 153.1573 153.1573 153.1573
   153.3573 153.3573 153.3573 154.1292 154.1292 154.4094 154.4094 154.4094
   155.2491 155.2491 155.2491 155.3701 155.3701 155.7805 155.7805 155.7805
   155.9449 155.9918 155.9918 155.9918 156.0114 156.0114 156.0114 157.6995
   157.6995 157.6995 157.9131 160.9960 160.9960 164.9461 164.9461 164.9461
   166.3439 166.3439 166.3439 166.5089 169.7248 170.7516 170.7516 170.7516
   170.7764 170.7764 170.8501 171.8516 171.8516 171.8516 172.8395 172.8395
   172.8395 173.8389 173.8389 173.8389 174.1687 174.6013 174.6013 174.6013
   176.5257 176.5257 177.5160 177.5160 177.5160 178.6437 178.6437 178.6437
   179.7149 179.7149 179.7149 180.2450 180.2450 180.2450 181.6637 181.6637
   181.6637 182.7263 182.7263 182.7263 182.7971 182.7971 182.7971 182.8372
   182.8372 182.9289 182.9289 182.9289 182.9388 182.9388 182.9388 183.0800
   183.0800 183.2242 183.2242 183.2242 183.3766 184.3748 185.3891 185.3891
   185.3891 185.7215 185.7215 185.7215 186.0980 186.0980 186.1308 186.1308
   186.1308 186.2022 191.7741 191.7741 191.7741 192.7398 194.4335 194.7932
   194.7932 194.9158 194.9158 194.9158 195.0999 195.0999 195.0999 195.5180
   195.5180 195.6830 195.7601 195.7601 195.7601 196.3660 196.3660 196.3660
   197.8761 197.8761 197.8761 197.9746 197.9746 198.3813 198.3813 198.3813
   199.8248 199.8248 199.9106 199.9106 199.9106 200.1089 200.1089 200.1089
   200.1358 200.1358 200.1358 200.4722 200.4722 200.5863 200.5863 200.5863
   201.4971 201.4971 201.4971 201.6699 201.7697 201.7697 201.7697 201.8452
   201.8517 201.8517 201.8517 202.6660 202.6660 202.6660 203.8377 203.8377
   203.8377 203.9612 203.9612 203.9612 204.5933 205.3747 205.3747 205.3747
   205.3757 205.3757 205.4083 205.4083 205.4083 206.0801 209.1514 209.1514
   209.3669 209.3669 209.3669 209.7012 209.7012 209.7012 210.4299 210.4299
   210.4299 210.5070 210.5070 210.5089 210.5089 210.5089 210.5491 211.5218
   211.5218 211.5218 211.5766 211.5766 211.5766 211.6137 211.6137 211.7848
   211.8511 212.2047 212.2047 213.2422 213.2422 213.2422 213.2754 213.2754
   213.2754 213.4545 213.4545 213.4545 213.5399 213.5399 213.5399 214.6905
   214.7392 214.7392 214.7392 214.7472 214.7472 221.8447 221.8447 221.8447
   229.1267 229.1267 229.1267 229.5687 233.3576 233.3576 233.3576 235.0203
   235.0203 235.0970 235.5002 235.5434 235.5434 235.5434 235.8890 235.8890
   235.8890 235.9191 235.9191 235.9191 236.1302 236.1302 236.1302 236.5226
   236.5226 236.5226 236.5319 236.5319 236.5319 236.5641 236.5641 236.6672
   236.6672 236.8218 236.8218 236.8218 237.0600 237.0600 237.0600 237.4996
   237.4996 237.4996 237.9038 239.5844 239.5844 239.5844 242.4284 242.4284
   242.8404 242.8404 242.8404 242.9327 242.9327 242.9327 243.0300 243.0300
   243.0300 243.0747 243.0747 243.1644 243.1644 243.1644 243.9095 243.9095
   244.0824 244.1763 244.1763 244.1763 244.7086 244.7086 244.7086 246.7046
   248.6592 248.6592 248.6592 248.6616 248.6616 248.9139 250.1156 250.1156
   250.1156 251.2415 251.5892 251.5892 251.5892 252.2989 252.2989 252.2989
   252.7771 252.7771 252.9302 252.9302 252.9302 255.0183 255.1692 255.1692
   255.1692 255.2802 255.2802 256.0033 256.0033 256.0033 256.4367 256.4367
   256.4367 256.9441 256.9441 256.9441 257.1528 257.1528 257.1528 257.2749
   257.2749 257.7182 257.7182 257.7182 257.9801 262.6658 262.6658 262.9908
   262.9908 262.9908 263.2240 263.2240 263.2240 263.3561 263.3561 263.3561
   263.5237 263.8530 263.8530 263.8530 264.9448 265.4194 265.8765 265.8765
   265.8765 266.0718 266.0718 266.0762 266.0762 266.0762 266.7536 266.7536
   266.7536 266.7718 266.7718 266.7718 267.4088 267.4088 267.4088 268.8223
   269.2434 269.2434 269.5096 269.5096 269.5096 270.1782 270.9403 270.9403
   270.9403 271.0705 271.0705 271.0705 271.2314 271.2314 271.2314 271.2544
   271.2544 271.3517 271.3517 271.3517 271.3829 271.3829 271.3829 271.4287
   271.4287 271.4287 271.5199 271.5719 271.5719 271.5719 271.5850 271.5850
   271.8122 271.8122 273.8386 275.5497 275.5497 275.5497 275.8023 275.8023
   275.8023 276.9783 280.5559 280.5559 280.5559 280.7471 280.7471 280.7799
   280.7799 280.7799 280.9743 280.9743 280.9743 281.0405 281.6371 281.6371
   281.6371 281.6861 281.7380 281.7380 284.8777 284.8777 284.8777 286.2967
   286.2967 286.2967 287.7885 287.7885 287.7885 288.9249 290.7803 290.7803
   290.7803 291.0351 291.5470 291.5470 291.5470 291.6603 291.6603 291.6603
   291.8283 291.8283 291.8647 291.8647 293.9168 293.9168 293.9168 294.0090
   294.0090 294.0090 294.3362 294.3362 294.3362 294.3652 294.3652 294.3652
   294.4420 294.4420 294.4420 294.8763 294.8763 294.8763 295.5332 295.5332
   295.5332 295.5383 295.5383 295.5523 295.5523 295.5523 296.1328 296.3220
   296.3220 296.3220 296.4111 296.4111 296.4111 296.5786 296.5786 297.2975
   297.2975 297.2975 297.6608 297.6608 297.6853 297.6853 297.6853 297.6939
   297.6939 297.6939 297.8924 297.8924 297.9990 297.9990 297.9990 298.4216
   298.6653 298.6653 298.6653 298.7341 298.7341 298.7341 298.8713 301.5032
   301.5032 301.5032 301.5653 301.5653 301.6428 301.6717 301.6717 301.6717
   301.6934 301.6934 301.6934 301.7165 301.7165 301.7165 301.7458 301.7458
   301.7627 301.7627 301.7627 302.0716 302.0973 302.0973 302.2729 302.2729
   302.2729 302.4335 302.4335 302.4335 302.5491 302.7316 303.9729 303.9729
   303.9729 305.9473 305.9473 305.9473 305.9972 308.8256 308.8256 308.8256
   310.8214 310.8214 310.8214 312.4912 312.4912 313.9404 313.9404 313.9404
   314.0453 314.6410 314.6410 314.6410 314.7967 314.7967 314.7967 315.1905
   315.1905 315.1905 315.2660 315.2660 315.4087 315.4087 315.7101 315.7101
   315.7101 316.7994 316.7994 316.7994 317.2933 317.2933 317.2933 320.4792
   320.4792 320.4792 320.7292 320.7292 320.9827 321.5961 324.2510 324.2510
   324.2510 324.9114 324.9114 324.9114 325.5594 325.5594 325.5594 325.5928
   325.5928 328.6376 328.6376 328.6376 328.6622 328.6622 328.6622 328.6962
   328.6962 328.6962 328.7589 328.7589 328.7589 329.0304 330.2269 330.2269
   330.2273 330.2273 330.2273 330.2344 334.4822 336.0618 336.0618 336.0618
   336.0832 336.0832 336.6886 336.6886 336.6886 340.5076 340.6174 340.6174
   340.6174 340.9591 340.9591 340.9591 341.0265 341.0265 341.0265 341.1683
   341.1683 341.2197 341.6516 341.6516 341.6516 341.6518 341.6518 341.6518
   341.6519 341.6519 342.7440 342.7440 342.9753 343.3277 343.3277 343.3277
   343.4596 343.4596 343.4596 343.8871 343.8871 343.8871 344.4050 345.7210
   345.7210 345.7210 346.9903 346.9903 346.9903 347.2009 347.2009 348.0278
   348.0278 348.0278 350.4281 351.2912 351.2912 351.2912 351.4022 351.4022
   351.4022 351.4897 351.4897 351.4897 351.8504 351.8504 352.3627 352.3627
   352.3627 352.3831 352.3831 352.9648 353.2705 353.2705 353.2705 353.5509
   353.5751 353.5751 353.5751 355.0393 355.0393 355.0393 355.1850 355.1850
   355.1938 355.1938 355.1938 355.4411 355.4411 355.4411 355.5195 355.5556
   355.5556 355.5586 355.5586 355.5586 355.5663 355.5663 355.5663 355.8921
   355.8921 355.8921 356.0725 356.0839 356.0839 356.0839 356.1970 356.1970
   356.3451 356.3451 356.3621 356.3621 356.3621 356.3662 356.3662 356.3662
   356.3686 356.3686 356.3686 361.8203 363.5287 363.5287 363.5287 363.8483
   363.8483 363.8483 365.8303 365.8303 365.8303 366.1712 366.1712 366.1712
   366.4886 366.4886 366.4961 366.4961 366.4961 366.7506 367.5434 367.5434
   367.5434 367.6374 367.6374 367.6374 367.9730 367.9730 368.0228 368.0228
   368.0228 368.3913 368.3913 368.3913 369.5402 369.5402 369.5402 369.7921
   370.0575 370.0575 370.0575 370.1930 370.1930 371.5679 371.5679 371.5679
   371.7715 371.7715 371.7715 372.8023 372.8023 372.8023 372.8097 372.8097
   372.8097 372.8674 372.8674 372.8674 372.8699 372.8699 372.9246 373.0482
   373.2020 373.2020 373.2020 373.2969 373.2969 373.3636 373.3636 373.3636
   373.7912 373.7922 373.7922 373.7922 374.0919 374.0919 374.2634 374.2634
   374.2905 374.2905 374.2905 374.3605 374.3605 374.3605 374.3653 374.6345
   374.6345 374.6345 375.7206 375.7206 375.8638 375.8638 375.8638 376.1607
   376.1607 376.1607 376.3538 376.9320 379.7880 379.7880 379.7880 380.1560
   380.2615 380.2615 380.2615 381.0853 381.0853 381.1210 381.1210 381.1210
   381.8091 381.9976 381.9976 381.9976 382.0980 382.0980 382.0980 382.1494
   382.1494 382.1494 382.2441 382.2441 382.3290 382.3290 382.3290 383.3458
   383.3954 383.3954 383.3954 385.0007 385.1181 385.1181 385.1181 385.1322

          k =-0.1667 0.1667-0.1667 (  3656 PWs)   bands (ev):

   -20.5546  -6.0262  -5.6421  -5.6421  -4.3593   4.8761   5.1810   5.1810
     9.4250   9.8134   9.8134   9.9662  11.0348  11.0348  13.6055  15.1476
    15.1476  15.2580  15.3182  15.4161  15.4161  17.8298  18.6999  19.1900
    19.1900  21.5943  21.5943  23.2505  24.1213  24.1213  24.3216  26.2679
    26.2679  27.6006  27.6006  29.0691  29.9556  30.0929  30.0929  30.2964
    32.1377  32.1377  34.5740  35.3511  35.3511  36.0256  36.7018  37.9453
    37.9453  38.8377  38.8377  39.0266  39.4940  40.3834  40.8735  40.8735
    42.2167  42.2167  42.4054  42.4054  42.6164  43.6595  43.6595  43.8775
    45.2392  46.9828  46.9828  47.6718  50.5159  52.9878  53.6081  53.6081
    53.9392  53.9392  56.6081  56.6081  56.7760  58.8414  59.5405  59.5405
    61.0898  61.3722  61.3722  61.7660  61.7660  62.4510  62.5051  62.5051
    62.8463  63.6454  63.6454  63.6485  65.8250  65.8250  66.8112  66.8112
    67.1515  67.5776  67.7144  68.8260  68.8260  69.7266  69.8545  69.8545
    69.9106  70.2079  70.2079  70.3317  70.3317  70.9094  71.4415  72.1063
    72.2669  72.2669  74.7199  75.3523  75.3523  75.7491  75.7491  76.4516
    76.9091  76.9091  77.2088  77.2088  77.5738  77.5738  78.4846  80.4904
    80.5436  80.5436  80.8217  82.3677  83.1060  83.1060  83.4731  84.6107
    84.8109  84.8109  86.5110  86.5110  86.6953  87.0643  87.0643  87.2459
    87.7499  88.0613  88.0613  88.1783  89.1590  89.1590  90.2888  90.2888
    90.4531  90.5084  90.8413  90.8413  93.5266  94.2819  94.2819  94.3899
    94.8923  94.8923  95.2902  96.7538  96.7538  97.9931  99.3523  99.3523
    99.5126  99.9219  99.9219 100.2345 100.2345 101.1021 101.9295 104.1198
   104.1198 104.6128 106.0350 106.0350 106.0774 106.3097 106.3097 106.8605
   106.9420 109.0444 109.0444 109.7436 110.7204 110.7204 111.1493 111.7002
   111.7002 112.1176 112.6110 113.3133 113.3133 114.3720 114.4583 114.4583
   115.2626 116.6221 116.8220 116.8220 117.5339 117.5339 117.8807 117.8807
   118.5436 118.7322 118.7322 119.3221 119.3221 119.7479 120.2325 120.7028
   120.7028 121.0315 121.0315 121.3261 121.4207 122.4586 122.4779 122.4779
   122.9504 122.9504 123.1786 123.1786 123.2912 123.9955 124.3624 125.4592
   125.4592 126.1331 126.1331 126.1972 126.2672 126.2672 126.7466 127.9334
   127.9334 128.2755 128.2755 128.3250 128.4211 128.4211 128.9475 129.8418
   129.8619 129.9470 130.0252 130.0252 130.3761 130.3761 130.6893 131.1758
   131.1758 131.4765 131.4765 131.7798 132.4476 132.8147 133.0077 133.0077
   133.9217 133.9217 134.6931 136.0062 136.0139 136.0139 136.2832 136.8743
   136.8743 137.1953 137.3922 137.3922 138.4844 139.6725 139.7343 139.7343
   140.4281 140.4281 141.7644 141.7644 142.9640 142.9640 143.3130 143.5288
   143.5508 143.5508 143.6457 144.1119 144.1119 145.7243 146.3144 146.3144
   147.1504 147.1504 147.2778 148.4539 148.4539 148.7555 148.9499 148.9499
   149.0143 149.3138 150.7836 150.7836 151.2268 151.2268 151.2600 151.3516
   151.7203 151.7203 152.4517 152.8739 152.8739 153.4307 154.8114 155.2133
   155.2133 157.1389 157.1389 157.1539 157.9375 158.1130 158.1130 159.0337
   159.1182 159.1918 159.1918 160.6967 160.8382 160.8382 161.7569 162.3074
   162.3074 163.2676 163.4854 163.4854 163.8676 163.8676 163.9888 165.2695
   165.2695 165.4476 166.0945 166.0945 167.6840 167.6840 167.9680 168.9576
   169.2691 169.2691 170.5698 171.0567 171.0567 171.2257 171.2257 171.4409
   171.5807 171.5807 171.6267 171.6481 172.0769 172.0769 172.6710 172.6710
   173.1563 173.8809 173.8841 173.8841 175.2104 175.5725 175.5725 175.7853
   175.8334 175.8334 178.3425 178.3425 178.5049 179.2906 179.4649 179.4649
   180.6997 181.9460 182.1470 182.1470 182.8530 183.0298 183.0298 183.3138
   183.3233 183.3233 183.9385 183.9385 184.1184 184.1184 184.5088 184.6206
   184.8013 185.3930 185.3930 185.7971 185.8041 185.8041 186.3781 186.3781
   186.6951 187.5307 187.5307 187.7554 187.9369 187.9369 188.1668 188.5678
   189.6624 189.6624 190.4700 190.4700 190.5183 190.5502 190.6389 190.6389
   192.3239 192.7941 192.9143 192.9143 193.0929 193.0929 193.2143 193.9046
   194.3239 194.3239 194.7297 194.8694 194.8694 195.2838 195.2838 195.4943
   195.5067 195.5067 195.5428 195.8250 195.9365 195.9365 196.2030 196.2030
   196.4702 196.9895 196.9895 197.2774 197.2774 197.4442 198.5584 198.5584
   198.9407 199.5164 199.5164 199.8234 199.8234 200.3918 200.4414 200.8487
   200.8487 200.9973 200.9973 201.2117 201.7414 202.3357 202.3357 202.4733
   202.5640 202.5640 202.7631 203.3837 203.3837 203.5898 203.8854 203.8854
   204.8957 205.0341 205.0341 205.2489 206.1593 206.6599 206.6599 207.0565
   207.0565 207.4867 207.4867 207.5548 207.7176 207.7980 207.8725 207.8725
   208.5375 209.6526 209.6526 209.8562 209.8562 209.9323 210.0573 210.0573
   210.3764 210.3764 210.4016 211.7413 211.7413 211.8777 212.3708 213.3031
   213.4015 213.4015 214.7174 214.8055 214.8055 215.2658 215.2658 215.6022
   216.0590 216.0590 216.6067 216.9027 217.6391 217.6391 218.0025 218.6972
   218.6972 218.9179 219.4759 219.4813 219.4813 219.4964 221.4048 221.8418
   221.8418 223.4873 223.4873 223.8805 223.8805 224.1549 224.1549 224.5774
   224.8787 225.6211 226.1160 226.1160 226.7088 226.8760 226.8760 227.2141
   227.3611 227.3700 227.3700 227.4640 227.4640 228.3232 228.3232 228.6880
   228.6880 229.2466 229.2466 229.9306 231.3012 231.7583 232.5897 232.5897
   234.8493 235.0177 235.0177 235.1824 235.1824 235.4481 235.8308 236.1039
   236.1039 236.2740 237.0824 237.0824 237.8745 238.3889 238.3889 238.7400
   238.9887 238.9887 239.4560 239.4560 239.6630 241.2316 241.2316 242.3940
   242.9594 243.0029 243.0029 244.2543 244.2543 244.5892 244.5892 244.8948
   245.1208 245.1208 245.2791 245.7652 246.0759 246.2965 246.2965 246.3746
   246.5922 246.5922 247.1667 247.2583 247.4791 247.4791 247.7564 247.7564
   247.9557 248.4840 248.4840 248.8107 248.8195 248.8195 249.1461 249.2302
   250.3842 250.5179 250.5179 250.5392 250.5392 250.6064 250.8745 250.8745
   251.1246 251.6454 251.6454 251.7827 251.9961 251.9961 252.9645 252.9645
   253.1181 253.4740 254.0520 254.0520 254.6080 254.6080 254.6406 255.0837
   255.8262 255.8262 256.7981 257.2129 257.2129 257.5129 257.5129 257.5245
   258.0283 258.0333 258.0333 259.7047 259.7047 259.8757 259.8757 260.6306
   261.4126 261.4126 262.1821 262.2173 262.2173 263.1441 263.2415 263.6736
   263.7117 263.7117 264.0871 264.0871 264.3952 264.5968 264.7796 264.7796
   265.5817 265.5833 265.5833 265.8132 265.8132 266.0196 266.0196 266.2049
   266.8308 266.8560 266.8560 266.9400 267.6907 267.6907 268.1242 268.2698
   268.2792 268.2792 268.3493 268.9798 268.9798 269.9371 270.2338 270.2338
   270.3259 270.4764 270.4764 270.6564 271.6504 271.6504 271.7223 272.0120
   272.0120 272.5602 272.5602 273.1875 273.1875 273.2609 273.7666 273.7870
   273.8877 273.8877 273.9709 273.9709 275.2190 275.2359 276.5298 276.5298
   276.8393 276.8393 277.7672 278.0652 278.0652 278.3695 278.9442 278.9746
   278.9746 279.5116 279.9596 279.9596 280.2888 280.2888 280.2960 280.9818
   280.9818 281.0986 281.4658 281.4658 281.7821 282.3017 282.9547 282.9547
   283.5300 283.6827 283.6827 283.8394 283.8394 284.2755 284.3324 284.7186
   284.7186 284.7722 285.0101 285.0101 285.0694 285.4074 285.4074 285.7158
   285.8922 286.1647 286.1647 286.3307 286.3307 286.3988 286.4376 286.4376
   287.0909 287.1930 287.1930 287.3707 287.7477 287.7477 287.7602 288.7781
   289.6742 289.6742 289.8966 289.9257 289.9257 291.4940 291.6617 291.6617
   291.8200 291.8200 291.9161 292.8166 292.8166 292.8302 292.8302 293.0599
   293.1412 293.3239 293.3239 293.6160 293.7651 293.9676 293.9676 294.8433
   294.8433 294.9480 295.7724 295.8161 296.0668 296.0668 296.4761 296.4761
   296.8891 296.8891 296.8919 297.2545 297.2545 297.5784 297.5784 297.8646
   299.1108 299.1363 299.1363 299.4105 299.4105 299.6517 300.4880 300.6532
   300.6532 301.0153 301.3420 301.3420 301.8435 302.4926 302.4926 303.0200
   303.0200 303.4028 303.8983 304.0779 304.0779 304.4584 304.6054 304.6054
   304.9404 304.9800 305.3197 305.3197 305.4848 305.4848 305.4958 305.7811
   305.7811 306.2316 306.7291 306.7291 307.0924 308.0030 308.0030 308.1131
   308.4969 308.4969 308.5984 309.0199 309.0199 309.5351 309.6319 310.3939
   310.3939 310.4138 310.8318 310.8548 310.8548 311.5536 311.5536 312.4346
   312.4346 312.7791 312.7791 312.8373 313.1354 313.1497 313.2372 313.2372
   313.3173 313.3173 313.3725 313.6612 313.6612 314.6171 314.6171 315.1915
   315.4896 315.5968 315.5968 316.3513 316.3513 316.6372 317.2300 317.2300
   317.5928 318.3078 319.0324 319.0324 319.4117 319.6668 320.0506 320.0506
   320.2795 320.2795 320.7138 321.3052 322.0585 322.0585 322.9371 322.9371
   322.9464 323.4214 323.4214 323.4925 323.8693 323.8693 324.0437 324.7592
   325.4814 325.4814 326.8576 327.0443 327.0443 327.8467 328.7087 328.7587
   328.7587 329.5951 330.5048 331.6001 331.6001 331.9963 331.9963 332.3238
   332.3238 332.4881 332.4881 332.8513 333.3507 333.4463 334.1723 334.1723
   334.8531 334.8531 335.1033 335.2250 335.2250 335.8660 335.8660 335.9235
   336.2491 337.1277 337.1277 337.2886 337.3591 337.3591 338.9857 338.9857
   339.4057 339.4765 339.6823 339.6823 339.7627 339.7627 340.4434 340.8956
   340.9005 340.9005 340.9882 340.9882 341.3460 341.9043 341.9043 342.0727
   342.4422 342.4422 342.5422 342.7713 342.7713 343.7649 343.7649 343.8973
   344.3662 344.6053 344.6053 344.6060 344.8917 344.8917 345.2939 345.8748
   345.8748 347.0873 347.0873 347.3620 347.4300 348.7525 348.7525 349.1209
   349.5772 349.5772 350.0706 350.0706 350.1625 350.4198 350.4198 350.4880
   350.8459 351.4008 351.4008 351.9270 352.1761 352.1761 352.5259 352.5259
   352.6008 353.0994 353.0994 353.7204 354.0612 354.0612 354.4340 354.4767
   354.5531 354.5531 354.7933 355.1977 355.1977 356.0133 356.0133 356.1676
   356.2863 356.2863 356.2952 356.4700 356.6907 356.6907 356.7492 356.7926
   356.8014 356.8014 357.1560 357.1560 357.1782 357.5700 357.5700 357.7191
   357.7191 357.9396 358.0793 358.0793 358.2166 359.0722 359.3677 359.3677
   359.5812 359.5812 359.8837 359.9300 360.6538 360.6538 360.8272 360.9802
   361.4347 361.7202 361.7202 362.1142 362.1142 362.3682 362.8334 362.9387
   362.9387 363.2903 363.2903 363.6331 364.3145 364.6208 364.6208 364.9110
   364.9987 364.9987 365.4007 365.4007 365.4037 365.8673 365.8673 366.9513
   367.3229 367.3229 367.5315 367.6541 368.7331 368.7331 368.7682 369.0583
   369.0583 369.5206 369.6234 369.6234 369.6709 369.9328 370.0095 370.0095
   370.1334 370.1334 370.5050 370.5050 370.5271 370.5690 370.5690 370.6250
   370.6569 370.6569 371.6517 371.8867 371.8867 372.0847 372.1755 372.3886
   372.3886 372.6210 372.6210 372.9826 373.2246 373.2516 373.2516 373.9458
   373.9610 373.9610 374.3305 374.3305 374.4080 375.1285 375.3448 375.3448
   375.5896 375.8117 375.8248 376.0173 376.0173 376.0698 376.0698 376.5344
   376.5344 376.9529 376.9529 377.3351 377.3971 377.4732 377.4732 378.0225
   378.0225 378.4298 378.4419 378.4419 378.6347 378.8516 378.8516 379.4275
   379.5264 379.5264 379.7327 379.7327 379.9723 380.5898 380.5898 380.9695
   381.2765 381.6641 381.6641 381.8333 381.8333 381.8401 381.8831 383.2146
   383.2146 384.2378 384.8168 384.9658 384.9658 385.4887 385.4887 385.6335
   385.6854 385.7356 385.7356 386.7237 386.7237 386.8741 387.5338 387.5338

          k =-0.3333 0.3333-0.3333 (  3651 PWs)   bands (ev):

   -20.5354  -6.4850  -5.6597  -5.6597  -3.8550   4.0259   4.7119   4.7119
     9.9074  10.8181  10.8181  11.4065  12.6187  12.6187  14.4201  14.4231
    14.4231  14.9315  15.2924  15.2924  15.3359  16.9056  17.5527  17.5527
    19.4699  19.8955  19.8955  21.0375  23.9145  24.5008  24.5008  26.5897
    26.5897  27.7615  27.7615  29.0319  30.1460  30.1460  30.1501  30.6200
    33.1599  33.5399  33.5399  33.6924  35.5490  35.5490  37.2600  37.2600
    37.5943  38.0258  38.0258  39.0062  39.3612  39.7146  39.7146  42.3759
    43.0750  43.0750  45.6999  46.1781  46.1781  46.4850  46.4850  46.8101
    47.0999  47.7240  48.6638  48.6638  50.1148  52.2760  52.2760  52.6438
    53.1129  53.1129  54.9095  54.9095  55.6320  55.8300  55.8300  56.5514
    57.0617  58.1970  58.1970  60.2698  60.2698  61.3436  62.0308  62.0308
    62.2885  62.7393  62.7393  63.8113  64.4588  64.4588  64.7522  65.7640
    67.1948  67.1948  68.1461  68.1461  68.4744  69.3586  69.4152  69.4152
    70.8881  70.8881  71.4094  72.3315  72.3315  72.9038  73.5120  73.5120
    73.5130  74.3198  74.8656  74.8656  75.4971  75.8211  75.8211  76.2046
    77.0390  77.0390  77.2245  79.7545  79.7545  79.7982  81.1350  81.7144
    81.7144  82.9279  82.9279  83.0692  83.2834  84.1468  84.2032  84.2032
    84.3941  84.3941  85.4190  85.5864  85.5864  85.9883  85.9883  86.0664
    87.5828  87.5828  88.1131  88.9321  90.0540  90.3342  90.3342  91.0990
    91.0990  92.6067  92.6067  93.1802  94.1123  94.1123  94.6869  96.0100
    96.1097  96.1097  96.8555  96.8555  97.5737  98.3305 100.5321 100.5321
   101.7323 101.7980 101.7980 102.3499 102.6834 103.7056 103.7056 104.4465
   104.8703 104.8703 105.3185 105.3185 105.6877 105.6877 105.7668 105.9592
   106.5381 106.5381 107.0448 107.9353 108.2428 108.2428 109.1860 109.1860
   109.2190 109.4762 109.6079 109.6079 110.9061 110.9061 111.7766 112.4294
   112.8841 112.8841 113.7362 113.8684 113.8684 113.8929 114.3661 114.3661
   115.7266 115.7266 116.0906 117.7420 119.2248 119.4468 119.4468 119.9562
   119.9562 120.4769 120.5968 120.9025 120.9025 121.7104 121.7104 121.9121
   123.2043 123.2043 123.2212 123.5006 123.9242 123.9242 124.3409 124.4816
   124.4816 125.1237 125.2284 125.2284 125.8401 126.4468 126.9605 126.9605
   127.7197 127.7197 129.2646 129.3684 129.3684 129.8384 129.8384 130.3287
   130.8464 130.8464 131.3369 132.2654 132.2654 132.2846 132.8101 132.8155
   132.8155 133.0439 133.0801 133.0801 134.2188 134.2188 134.4099 134.5761
   134.7346 134.7346 135.7156 136.6135 136.6135 137.8281 138.2882 138.2882
   140.0717 140.3046 140.3046 140.8209 141.2527 141.2527 141.3149 141.7245
   141.7402 141.7402 142.6159 142.6159 143.1498 143.1498 143.1560 143.5257
   144.1772 145.5027 145.7348 145.7348 147.0321 147.0321 147.2495 148.3138
   148.3138 148.5229 148.7369 148.7369 149.6878 149.7657 149.7657 150.0194
   150.1646 150.3192 150.3192 150.6702 151.1222 151.1222 152.4578 152.4578
   152.9158 152.9158 153.0972 153.6066 153.6377 153.6377 154.1186 155.3356
   155.3356 157.1598 157.1598 157.6938 158.8405 159.1857 159.1857 160.5009
   160.6999 160.7793 160.7793 160.8855 160.8855 161.0714 161.3113 161.3113
   162.5204 162.5231 162.5231 162.5977 163.2947 163.2947 163.4782 163.4782
   163.4838 163.5748 164.1364 164.1364 165.8301 166.0911 166.0911 167.6827
   168.5352 169.1182 169.1182 169.5748 169.5748 169.6201 170.7166 170.7166
   171.1942 171.5660 171.7935 171.7935 171.9374 171.9374 172.4401 172.7502
   172.8042 172.8042 173.6108 173.6108 173.8963 173.8963 174.4190 175.1176
   175.4360 175.4360 175.4364 177.4701 177.4701 178.1490 178.4940 178.7495
   178.7495 178.8818 179.0487 179.0487 179.5064 179.5620 179.5620 180.3690
   180.9744 180.9744 181.3695 181.3695 181.4876 181.4876 181.8697 181.9722
   182.5350 182.5350 182.6040 183.7647 183.7647 184.3434 184.3434 184.7840
   184.8477 184.8477 185.7982 186.7628 186.7628 187.1849 187.2417 187.8063
   187.8063 188.5562 188.5562 188.6161 189.3977 189.3977 190.0982 190.0982
   190.4211 190.5849 190.9094 190.9094 191.6860 191.7786 192.0488 192.0488
   192.5510 193.4765 193.4765 193.5877 194.7009 194.7009 195.2428 195.2428
   195.4212 195.9620 195.9765 195.9765 196.4860 196.4860 197.2388 197.4960
   197.4960 197.7011 197.8795 198.2983 199.2949 199.2949 199.4340 199.8217
   199.8217 200.6789 200.6789 200.9951 201.0484 201.2678 201.2678 201.8479
   201.8479 202.6798 202.6836 202.7305 202.7305 203.3169 203.3169 203.7037
   205.0799 205.0799 205.1602 205.2106 205.5840 205.5840 206.0349 206.4663
   206.4663 206.5287 207.0660 207.3100 207.3100 207.6278 207.6278 208.2858
   208.4640 209.0191 209.0191 209.2108 209.2108 209.3675 209.7389 209.7389
   209.8826 210.2530 210.2530 211.6011 211.6011 212.4687 212.6421 212.6421
   213.6393 214.9742 215.2403 215.2403 215.4729 215.7712 215.7712 216.6394
   216.6394 217.7540 217.9879 217.9879 218.0163 218.6007 218.6007 219.2979
   219.4099 220.2567 220.2567 220.8540 220.8540 220.9412 220.9544 220.9544
   220.9850 221.5212 221.6505 221.6505 222.4675 222.4675 222.5635 222.8553
   223.0091 223.0091 223.6412 223.6412 223.8370 224.2239 224.7093 225.1563
   225.1563 225.7536 225.7536 226.5086 226.7882 226.7882 226.8001 227.1677
   227.1677 227.7133 227.7133 228.5588 228.7002 228.8960 228.8960 229.1241
   229.5706 229.5706 229.6807 229.6807 230.0077 230.0817 230.2830 230.2830
   231.5032 231.9715 232.0171 232.0171 232.7041 234.3244 234.3244 235.1275
   235.3425 235.7028 235.7028 235.7613 236.3995 236.3995 236.7552 236.7552
   237.0949 237.0949 237.4168 237.8259 238.0707 238.0707 238.1823 238.8897
   238.8897 238.8903 239.2281 239.2281 239.9935 240.0329 240.0329 240.2834
   240.3600 240.3600 241.1003 242.2053 242.2053 242.6031 243.3829 243.3829
   243.5616 243.5616 244.5196 244.6662 244.6734 244.6734 246.3311 246.3311
   247.1828 247.3404 247.3404 247.7614 248.4792 248.4792 249.1935 249.7288
   249.7288 250.0331 250.0331 250.3896 250.9002 251.0295 251.2024 251.2024
   251.9580 251.9580 253.6015 253.6015 253.6510 253.6802 253.9582 253.9634
   253.9634 254.0595 254.3301 254.3301 254.5782 255.1690 255.1690 255.3563
   255.3563 255.7126 255.9639 255.9639 256.2756 257.0705 257.0705 258.2327
   258.4498 258.4498 259.0534 259.4520 259.5386 259.5386 259.8131 260.2860
   260.2860 262.2325 262.2325 263.2545 263.2545 263.6081 263.6936 264.1260
   264.2971 264.2971 264.7661 265.0862 265.0862 265.4700 265.4700 265.5125
   265.8505 265.8505 265.8517 266.2242 266.2242 266.6901 266.9173 267.0686
   267.3455 267.3455 267.6468 267.6468 267.9205 268.1001 268.1001 268.2181
   268.2181 269.1990 269.4574 269.4574 269.5627 269.8043 269.8260 270.8047
   270.8047 271.0311 271.4859 271.4859 271.7108 271.7108 271.9131 272.6761
   272.8607 272.8607 272.9507 273.6720 273.6720 274.0033 274.0033 274.1266
   274.2204 274.2204 274.7141 275.0313 275.0313 275.1431 275.3352 275.3352
   275.3721 275.7762 275.7762 276.6131 276.6131 276.8986 277.0368 277.1981
   277.1981 277.2814 277.2814 277.3115 277.3115 277.3976 277.5294 277.7402
   277.7402 277.9668 278.0183 278.0183 278.1624 278.1624 278.2269 279.9908
   279.9908 280.6817 281.6738 282.0267 282.1170 282.4908 282.4908 282.6391
   282.6391 283.0047 283.1839 283.1839 283.9562 283.9562 284.3838 285.5144
   285.5144 286.4727 286.4727 286.5756 286.6585 286.6585 286.7773 286.9887
   287.4145 287.4145 287.8414 288.3925 288.4034 288.4034 289.5933 290.5815
   290.5815 290.9656 290.9656 291.7216 291.7216 291.8275 291.9324 291.9324
   291.9687 292.3625 292.3759 292.3759 292.4342 293.3571 293.3571 293.8871
   293.8871 293.8917 294.1381 295.2521 295.2521 295.3327 296.3983 296.3983
   296.6292 297.0629 297.0629 297.5210 297.5435 297.5435 298.4898 298.7007
   298.8241 298.8241 299.6455 299.8312 299.8312 299.9391 299.9391 300.3496
   300.5173 300.5173 300.8196 301.3451 301.6984 301.6984 301.8239 301.9757
   301.9757 302.2578 302.2578 302.2609 303.3001 303.5859 303.7735 303.7735
   304.0647 304.2868 304.2868 304.8814 304.9953 304.9953 305.4134 305.4134
   305.5832 306.2127 306.2945 306.2945 306.6223 306.6223 306.8038 307.4474
   307.4474 308.0132 308.0132 308.3423 308.3423 308.4094 308.8718 309.3976
   309.7503 309.8333 309.8333 310.4716 310.4716 311.4251 312.2811 312.6955
   312.6955 313.0487 313.0487 313.3226 313.4900 313.8690 313.8690 314.0246
   314.3787 314.3787 314.7015 314.7015 315.1444 315.2251 315.5824 315.5824
   316.2176 316.3719 316.3719 317.0560 317.0560 317.1988 317.1988 317.2125
   317.2215 317.8897 317.8897 318.6511 318.6511 318.6564 318.7060 320.1229
   320.1229 320.2513 320.6534 322.2126 322.2126 323.0023 323.0023 323.0254
   323.0254 323.2894 323.6072 323.6072 323.7529 324.1526 324.7172 324.7172
   324.9364 325.1881 325.1881 325.2149 325.3579 325.3579 325.9761 326.0670
   326.1828 326.1828 326.4664 326.5958 326.8963 326.8963 327.3978 327.4246
   327.4246 328.8880 328.8880 330.2949 330.2949 330.4369 331.0225 331.3117
   331.3117 331.8394 331.8394 332.0926 332.4069 333.2014 333.2014 333.6025
   333.6025 333.8709 333.8709 333.9131 334.2942 334.2942 334.8455 334.8455
   335.0176 335.5437 335.8090 336.2859 336.2859 336.3462 336.8741 336.8741
   337.1199 337.8948 338.4274 338.4274 338.9865 338.9865 339.0526 339.1945
   339.1945 339.5277 340.1329 340.5122 340.5122 340.9164 340.9164 341.0665
   341.1145 341.1145 341.3540 341.3626 341.8494 341.8494 342.1496 342.3335
   342.3852 342.3852 342.4708 342.4708 342.6383 342.6383 342.6808 343.2551
   343.2551 343.6364 343.8004 343.8571 343.8856 343.8856 344.0086 344.0086
   344.3031 344.8688 344.8688 345.6040 345.6040 345.6777 345.6893 345.9010
   346.1877 346.4357 346.4357 347.1098 347.1098 347.6363 348.0272 348.0272
   348.3494 348.3494 348.9690 349.2149 349.2149 349.2957 351.3644 351.6413
   351.6413 352.9484 352.9484 353.0738 353.1003 353.7031 353.7031 353.8782
   353.8782 354.1029 354.4515 354.6450 354.6450 354.6895 354.8298 354.8298
   355.9254 355.9254 356.9461 356.9763 356.9763 357.0087 357.0087 357.0639
   357.2485 357.2493 357.2493 357.3122 357.9572 357.9572 358.4328 358.5894
   358.5894 359.2311 359.7805 359.7805 360.0846 360.1399 360.1399 360.4633
   360.5286 360.5286 361.2292 361.2292 361.2412 362.0323 362.2943 362.3390
   362.3390 362.4104 362.4104 362.5811 362.9827 362.9827 363.1846 363.6535
   363.6535 363.7391 363.7391 363.8516 364.2629 364.6488 364.6488 365.1304
   365.1363 366.1548 366.2273 366.2273 366.5503 366.5503 367.5769 367.5769
   367.9030 368.5677 368.7827 368.7827 369.1626 369.1626 369.8762 369.9967
   369.9967 371.1103 371.1103 371.1170 371.2954 371.4903 371.4903 372.1724
   372.1724 372.5714 372.5714 372.6952 372.7264 372.8470 372.8724 372.8724
   373.0541 373.1368 373.1368 373.8247 373.8247 374.3923 374.5356 374.9141
   374.9141 375.0645 375.0645 375.2119 375.2119 375.2165 375.6018 375.6018
   375.8074 375.8074 375.8192 376.0386 376.6827 376.8218 376.8218 376.8700
   377.0658 377.8366 377.8366 377.8461 377.9598 377.9598 378.2261 378.2282
   378.2282 378.5268 379.1747 379.1747 379.3143 380.3739 380.3739 380.9644
   382.1549 382.1996 382.1996 382.2619 382.2619 382.8203 382.8203 383.1172
   383.4938 383.5839 383.5839 383.6861 384.8659 384.8659 385.0043 385.2465
   385.2465 385.5036 385.8931 386.0413 386.0413 386.6169 387.5764 387.7512
   387.7512 388.3332 388.3332 388.4402 388.6367 388.6367 388.9314 389.3980

          k = 0.5000-0.5000 0.5000 (  3648 PWs)   bands (ev):

   -20.5257  -6.6594  -5.6683  -5.6683  -3.6559   3.6817   4.5165   4.5165
    10.9627  11.0047  11.7670  11.7670  13.3038  13.3038  14.2675  14.2675
    14.7456  14.7456  15.0870  15.2602  15.3447  15.9649  16.7736  16.7736
    19.1109  19.1109  19.4328  21.2732  23.5563  24.8243  24.8243  26.7480
    26.7480  27.1504  28.3145  28.3145  28.7714  28.7714  29.2168  31.4666
    32.2853  35.0393  35.0393  35.0495  35.0495  36.3402  36.7154  37.1110
    37.1110  37.9199  37.9199  39.3676  39.8759  41.5348  41.5348  42.4364
    42.4364  43.8588  44.9801  45.7679  47.1240  47.1240  47.1564  48.3087
    48.3087  50.1212  50.1212  50.8072  50.8723  50.8867  50.8867  51.0682
    51.0682  51.5468  51.5468  52.4984  53.1459  56.0116  56.2194  58.4825
    58.4825  59.1345  59.1345  60.1765  60.1765  60.6431  60.6431  62.2390
    62.3527  63.3651  63.3651  63.4552  63.4552  64.1758  64.4744  64.4744
    64.5987  64.8933  65.1500  65.1500  66.7040  69.1109  69.7867  69.7867
    70.3815  70.3815  71.0592  72.8054  73.5391  73.5391  74.1821  74.1821
    74.3772  74.4344  75.0395  76.1394  76.4301  76.4301  76.5302  76.5302
    76.9098  78.2133  78.3985  78.3985  78.6889  78.6889  79.9944  82.2646
    82.2646  82.8496  82.8496  84.7964  84.9957  85.3547  85.3547  86.1990
    86.1990  86.3090  86.5991  87.3792  87.3792  87.6192  87.6192  87.7535
    87.7985  87.7985  87.9722  89.6111  89.6111  90.4961  92.0923  92.2729
    92.2729  92.3888  92.3888  93.4354  94.0224  94.3211  94.3266  94.8583
    94.8583  94.8857  94.8857  97.6325  97.6325  98.2985  99.9566  99.9566
   100.3046 100.3046 100.9785 100.9785 101.3063 102.0395 102.4433 102.4433
   102.8659 102.9077 102.9077 102.9575 104.8788 105.1198 105.1198 105.5212
   107.3780 107.3780 107.6148 108.0871 109.7853 109.7853 110.7173 110.7173
   110.8976 111.0857 111.9685 111.9987 111.9987 112.0505 112.8082 112.8082
   113.4203 113.4203 113.5562 113.7376 113.7824 113.7824 114.7338 114.7338
   114.7886 114.7886 115.0394 115.1301 116.2034 116.2034 116.5224 116.5224
   118.6805 119.6751 120.2065 120.2065 120.5241 120.5241 121.9755 122.0374
   122.6221 122.8235 122.8235 123.0720 123.2739 123.4574 123.4574 123.6870
   123.6870 124.3704 124.3704 124.5357 124.5357 125.3298 126.4211 126.4211
   126.5882 127.2059 127.3600 127.3600 127.6656 128.7006 129.0410 129.0410
   130.4712 131.3785 131.4113 131.4113 132.7102 133.7171 133.7171 135.1884
   135.1884 135.7753 136.1726 136.4151 136.4295 136.4295 136.7744 136.7744
   137.0834 137.0834 137.7666 137.7773 137.7773 138.5574 138.5574 138.6040
   138.6491 138.7395 138.9551 138.9551 139.5413 139.5413 139.8006 140.3361
   141.2672 142.2189 142.2189 143.3151 143.3151 144.8098 144.8098 144.8492
   145.2861 145.2861 148.1223 149.3512 149.3512 149.7394 149.9281 149.9829
   150.1932 150.5029 150.5029 150.5102 150.5102 150.9572 150.9572 151.1726
   151.3267 151.4875 151.4875 151.4908 151.4908 154.2991 154.2991 154.6115
   154.6634 154.8746 155.5896 155.6483 155.6483 155.6923 155.8600 155.8600
   156.2801 156.2801 156.4089 156.9781 156.9781 157.5866 157.6013 157.6120
   157.6120 157.9232 157.9232 158.3861 158.3861 160.2882 160.2882 160.3960
   160.3960 160.7541 161.0466 161.7326 161.7344 165.1181 165.1181 165.1701
   165.1701 165.3040 165.9621 166.2417 166.4157 166.4157 166.7454 166.7454
   167.6384 167.6384 168.4836 168.4836 168.5409 168.5559 168.5559 169.9660
   170.2881 170.2881 170.3999 170.5482 170.5482 170.6127 170.6954 170.9498
   170.9498 171.7948 171.7948 171.8123 171.9193 173.2469 173.2469 173.4968
   173.4968 173.5790 173.6785 174.4153 174.4153 175.3779 175.3779 175.6383
   178.3167 178.3167 178.8745 178.9051 178.9051 179.1975 180.1134 180.1134
   180.1868 180.3530 180.3530 180.6388 181.0382 181.0382 182.2407 182.5581
   184.1017 184.1133 184.1133 184.7200 184.7200 184.7391 185.3976 185.3976
   185.5322 186.1144 186.1144 186.1533 186.5800 186.5800 187.6233 187.8599
   187.9287 187.9287 188.3402 188.3402 188.7088 188.8204 188.8204 188.8410
   189.0085 189.7025 190.3745 190.3745 190.6209 190.6209 191.7972 192.4590
   192.4590 192.5182 192.5182 192.6399 192.6399 192.9031 194.0419 194.6763
   194.6763 195.1596 195.6019 195.6019 195.8520 195.8520 197.1468 197.7452
   197.7452 197.9454 198.9869 198.9869 199.4356 199.8959 199.8959 199.9856
   200.9983 200.9983 201.2845 201.6170 201.6170 201.8457 202.2027 202.2027
   202.9709 204.1734 204.3031 204.3031 204.4999 204.4999 204.6225 204.6344
   204.7922 204.7922 205.1809 205.1809 205.5027 205.8065 205.8065 206.3007
   207.6661 207.6661 208.2205 208.3295 208.3295 208.4897 208.6941 209.3352
   209.9306 209.9306 211.8477 212.3129 212.7566 212.7566 213.7732 213.7732
   213.8875 213.8875 213.9419 214.3101 214.3101 214.3120 215.1906 215.1906
   215.4722 215.9450 216.1028 216.1028 216.2664 216.3222 216.3222 216.6736
   217.5871 217.6757 217.9252 217.9252 218.0330 218.0330 218.2452 218.2452
   218.2915 218.2928 218.2928 218.8700 220.0709 220.7233 220.7233 221.1935
   221.1935 221.4130 221.5929 221.5929 221.6957 221.7644 221.7644 222.5568
   222.5986 222.5986 223.0230 223.0230 223.6507 223.9166 223.9166 223.9540
   223.9540 224.0729 224.2326 224.6195 224.6195 225.0408 225.7853 228.6378
   229.0158 229.0158 229.4752 229.4861 229.4861 229.9323 230.1115 230.1115
   230.1496 230.1496 230.8223 230.8223 230.9010 231.2005 231.5367 231.5367
   231.6759 232.3129 232.3129 232.3983 232.5400 232.6776 232.6776 234.7139
   235.4745 235.4745 235.5053 235.7321 235.7321 236.2193 236.2224 236.2224
   236.8625 237.3132 237.5503 237.5503 237.7413 237.9851 237.9851 238.4692
   238.4692 239.9180 240.0499 240.5573 240.5573 240.8141 240.8141 240.9673
   241.0845 241.2174 241.2174 241.4524 241.4524 241.5589 242.6044 242.6044
   243.1244 243.6587 243.6587 243.8049 244.9682 244.9682 245.9565 245.9565
   245.9667 245.9667 246.4129 246.4129 246.7896 247.5108 247.6888 247.6888
   247.7180 247.7243 248.2667 248.8295 248.8295 249.5837 250.3164 250.3164
   250.5892 250.5892 251.6915 251.6915 251.8408 251.9945 252.6259 252.6259
   252.8848 253.4492 253.6862 253.6862 254.3828 254.3828 254.4209 254.4209
   254.6560 254.6656 255.4748 256.1271 258.9475 258.9475 259.4229 260.2446
   260.2446 260.3489 260.3489 261.4716 261.4716 261.7259 261.8454 261.8454
   262.5151 262.5151 262.6039 262.8089 262.9963 263.1750 263.1750 263.5393
   263.5393 263.6262 263.8607 263.8607 263.9212 263.9644 264.2579 264.3755
   264.3755 264.4416 264.4416 264.4624 264.4624 265.2732 265.3048 265.3048
   265.3052 265.3052 266.2469 266.4937 266.5348 266.5348 266.5865 266.6803
   266.6803 267.4604 267.5525 267.5525 267.9584 268.1373 268.1373 268.3253
   268.3253 268.6778 268.6778 268.8478 269.9166 270.3792 270.6449 270.6449
   270.7252 271.1242 271.1242 272.1139 272.6443 272.9989 272.9989 273.0088
   273.0088 273.8730 275.1252 275.2334 275.2334 275.2615 275.2615 276.2952
   276.4834 276.4834 276.7625 278.0033 278.0033 278.5337 278.5337 278.6805
   278.7782 278.7782 279.0025 279.2063 279.3802 279.5932 279.6569 279.6569
   279.6823 279.6823 280.3965 280.8101 280.8101 281.1175 281.1175 281.4854
   281.4854 281.5981 281.8749 281.8749 282.3240 282.3654 282.7606 282.8903
   282.8903 283.2990 284.2703 284.2703 284.4290 285.0977 285.0977 285.7726
   285.7726 285.8424 286.8805 286.8883 287.3731 287.3731 287.6215 287.6981
   287.6981 287.9685 288.4066 288.4066 288.6010 288.6164 288.6164 290.9496
   290.9496 291.3008 291.3008 291.4575 291.6905 291.6905 292.0064 292.8204
   293.0270 293.0270 293.9966 294.0878 294.0878 294.1364 294.1364 294.2221
   294.9313 295.3409 295.3409 295.8777 295.8777 296.1912 296.5016 296.5617
   296.5617 296.6301 296.6301 296.9741 297.3261 297.4803 297.4803 297.5551
   297.9371 298.1294 298.1294 298.6691 298.6691 298.8450 298.8450 299.0646
   299.6373 299.6373 299.8688 299.8688 300.4284 301.3311 301.3311 301.8283
   301.8283 302.0010 302.1751 302.3900 303.2934 303.2934 303.3216 303.4278
   303.4278 303.8843 305.0838 305.0838 306.2119 306.3877 307.7673 307.8679
   307.8679 308.1984 308.1984 308.2033 308.2033 308.2655 308.3775 308.5837
   308.5837 308.8702 308.8702 309.0379 309.0379 309.1042 309.8493 311.0352
   312.2204 312.2204 312.2838 312.2838 312.2840 312.2991 312.7134 312.7134
   313.3834 313.3834 313.7054 314.0063 314.0063 314.8005 314.9300 315.1693
   315.1693 315.4022 315.4344 315.4344 315.7886 315.7886 316.7479 316.7479
   316.8012 318.3337 318.3337 318.5221 318.8506 318.8506 318.9471 319.1272
   319.1662 319.1791 319.1791 319.4192 319.4192 319.4843 320.6863 321.3793
   321.3793 321.5510 321.8088 321.9638 321.9638 322.2711 322.2711 322.5715
   322.5760 323.8350 323.8350 324.9206 325.0799 325.0799 325.4202 325.4202
   325.4760 325.9174 325.9174 326.5128 326.5128 327.0852 327.1023 327.1107
   327.1477 327.1477 327.2171 327.3318 327.3318 327.4212 327.4212 327.6517
   327.9851 328.0072 328.0072 328.1686 328.1686 328.2303 328.5112 328.5818
   329.1394 329.1394 329.2433 329.2433 330.4281 332.0146 332.1952 332.1952
   332.2353 332.3103 332.3103 332.4609 332.4609 332.5097 332.5097 332.6297
   332.6326 333.2406 334.9635 334.9635 336.0566 336.0566 336.3283 337.0823
   337.0823 337.4798 337.9636 338.5199 338.5199 338.6878 338.7358 338.7358
   339.3144 339.3144 339.3869 339.3869 339.5388 339.5667 340.0243 340.0261
   340.0271 340.0271 340.2322 340.2322 341.4480 341.9523 341.9523 342.1373
   342.1649 342.3833 342.3833 342.8588 342.8588 343.0636 343.0636 343.3068
   343.3068 343.5049 343.5472 343.9669 343.9669 344.0913 344.3147 344.3147
   344.3940 344.8831 344.8831 344.9638 345.0288 345.0689 345.0689 345.1035
   346.3139 346.6331 346.6331 347.2926 347.7747 347.7747 348.0006 348.0006
   348.0700 348.3753 348.3753 348.5951 348.7601 348.7601 349.4997 349.4997
   351.1851 351.1851 352.3527 352.3836 352.4999 352.4999 352.5309 352.5309
   353.1500 353.2103 353.2103 353.3014 353.3014 353.3501 353.4739 353.4739
   353.5818 353.7173 353.7184 355.4835 355.4835 355.5590 355.5590 356.1932
   356.1932 357.0089 357.0098 357.1854 357.7358 357.7358 357.7527 357.7527
   358.0903 358.8193 358.8193 358.8969 359.7216 359.7452 359.7452 360.0530
   360.0530 360.4104 360.4870 360.7197 361.0766 361.0766 361.4849 361.4849
   361.5413 361.5413 361.7789 362.7520 362.7520 363.0190 363.2939 363.3863
   363.5188 363.5645 363.5645 363.8500 363.9814 363.9814 364.2327 364.5614
   364.5614 364.5661 364.5661 365.2608 365.4159 365.4159 366.0384 366.4884
   366.4884 366.5348 367.6798 367.6798 369.3097 370.5856 370.6625 370.9854
   370.9854 371.3876 371.3876 371.5651 371.5738 372.1103 372.1103 372.1950
   372.1950 372.2916 372.2916 372.8520 372.8520 373.1301 373.1381 373.1917
   373.1917 373.2031 373.4080 373.4080 373.4919 373.4919 373.6045 373.6282
   374.0297 374.0297 374.1009 374.6937 375.0661 375.0661 375.1545 375.1545
   375.4387 375.4387 375.4962 375.5426 375.5426 375.8581 375.8581 376.0353
   376.1853 376.1853 376.2081 376.3229 376.9561 376.9917 376.9917 377.2237
   377.2237 377.3025 377.3026 377.3026 377.3027 377.6410 377.6410 377.8060
   377.8060 378.7180 380.7319 381.1876 381.1876 381.8382 382.3263 382.3263
   383.3679 383.3679 384.9634 385.1435 386.3220 386.3220 387.0534 387.0534
   387.1061 387.1061 387.4041 387.4173 387.4310 387.7674 387.7674 387.9251
   388.2732 388.2732 388.3197 388.3246 388.3246 388.3511 388.4120 388.4121

          k = 0.0000 0.3333 0.0000 (  3651 PWs)   bands (ev):

   -20.5515  -6.0151  -5.6766  -5.6766  -4.3430   4.5571   5.3790   5.3790
     8.8291   9.6834  10.2832  10.2832  10.5566  12.0738  13.7566  15.1686
    15.1692  15.1692  15.2086  15.4168  15.4168  17.9767  18.5339  18.5339
    19.1362  20.2930  22.5039  23.5366  24.1583  24.1583  25.0651  25.2922
    25.2922  27.0601  28.3168  29.8128  29.8128  29.9769  30.1626  31.0379
    31.0379  33.2606  35.4707  35.9270  35.9270  36.2918  36.2918  36.8471
    37.2342  38.0376  38.0716  38.0716  38.6010  39.6457  39.9562  40.2927
    42.1546  43.0935  43.0935  44.2284  44.5675  44.9133  44.9287  44.9287
    45.6743  45.6743  47.5935  49.5189  51.9776  51.9776  52.2655  52.9746
    52.9746  55.3259  55.3308  55.7367  55.7367  56.3255  59.6492  59.9459
    60.7527  60.7880  60.9165  60.9165  61.5132  61.8241  62.4462  62.4462
    62.8869  63.1875  63.1875  64.4013  65.4736  66.3679  66.3679  67.2926
    67.2926  67.6941  68.1875  68.2271  68.7319  69.4668  69.5095  69.5095
    69.7706  69.8655  69.8655  71.6514  71.6514  71.6769  72.2378  72.8136
    73.3282  74.1209  74.1209  74.6636  74.8945  76.3458  76.3458  76.7235
    76.7235  77.1356  77.3568  77.3574  78.5991  78.8169  78.8169  79.0170
    80.3286  80.8795  80.8795  81.4437  81.7387  82.1676  82.1676  82.5875
    84.3471  85.5248  85.7026  85.7033  85.7033  86.1663  86.1663  86.9718
    86.9718  88.2083  89.2486  90.1517  90.4607  90.4607  90.8671  91.9706
    92.3223  92.7756  92.9393  92.9393  93.1931  93.6311  93.6311  94.0390
    94.6010  94.9657  94.9657  95.4925  98.6030  98.9623  98.9623  98.9927
    99.9138 100.7493 100.9341 100.9341 101.4455 101.4455 101.8073 102.1667
   103.3924 103.7646 104.1459 104.3425 104.3425 106.1843 106.3464 106.3932
   106.3932 109.3649 110.4422 110.6735 110.9651 110.9651 111.0859 111.0859
   111.7020 111.9704 112.0808 113.6318 113.8630 113.8630 114.1798 114.4200
   114.4200 115.0005 115.6588 116.7776 117.3386 117.3386 117.3422 118.0030
   118.0030 118.4713 118.9189 118.9189 119.1599 119.5448 119.5751 119.7251
   119.9369 119.9369 120.6493 120.9227 121.0517 121.0517 121.2132 121.6475
   121.6475 122.2721 122.4541 122.5135 122.5135 123.9656 124.3225 124.3225
   124.4677 124.4677 124.9299 125.7504 126.0548 126.3655 126.3655 126.9879
   127.3493 127.9557 127.9557 128.6983 129.0139 129.2043 129.2736 129.8446
   129.8446 130.9180 131.5909 131.5909 132.0450 132.2938 132.7381 132.7381
   132.8448 133.7001 134.3770 134.8099 134.8099 135.0473 135.7840 135.8759
   136.0857 136.0857 136.1070 136.3109 137.0690 137.0690 137.0828 137.9894
   138.0001 138.0156 138.2607 138.2607 138.7859 138.7859 139.1134 139.3293
   139.5931 139.5931 139.6754 139.9002 140.7827 141.5269 141.5269 141.8822
   141.8822 142.3446 143.8574 144.3215 144.3215 144.5188 144.9053 145.1472
   145.1472 145.2387 145.4783 146.1424 146.1424 146.1550 148.3166 149.1193
   150.2074 150.2074 150.9320 150.9844 151.0137 151.0137 151.2854 152.2416
   152.3311 152.3311 154.0092 154.4911 155.4386 155.4386 156.8091 157.1006
   157.7328 157.7328 157.9078 158.0199 158.3006 159.2720 159.2720 159.6226
   159.9112 160.2795 160.2795 160.3303 160.5569 161.5510 161.5510 161.6756
   162.2998 162.3952 162.6918 162.6918 163.1226 163.1226 163.7251 164.0055
   164.1381 164.3626 164.3626 165.3414 165.3414 165.5500 166.2975 167.5806
   167.5806 169.0218 169.6793 169.8408 170.3605 170.8779 170.8779 171.2850
   171.3609 171.7035 171.7373 171.7373 172.9249 173.0102 173.1217 173.1217
   173.7289 174.3874 175.2159 175.2159 176.6753 176.6753 177.2989 177.8335
   177.8335 178.3459 178.5240 178.7208 179.7514 179.7514 179.7976 180.0106
   180.5218 180.5218 180.6977 181.0587 182.2325 182.2325 182.5167 183.0272
   183.0481 183.0946 183.6646 183.6646 184.1584 184.1584 184.2142 184.5463
   184.8738 184.9644 185.0749 185.0749 185.1354 185.3354 185.3354 186.3293
   187.1632 187.1949 187.1949 187.4000 187.6283 187.8874 187.8874 188.4588
   188.4588 188.5125 188.5520 188.8688 189.2137 189.4774 189.4774 189.8665
   189.8665 191.2116 191.9008 191.9403 191.9515 192.7995 192.7995 193.6014
   193.7028 193.8389 193.8389 194.5921 194.7274 195.2177 195.2177 195.2402
   195.8330 195.8330 195.9649 196.3583 196.3602 196.3671 196.3671 196.4767
   196.6802 196.6802 196.7141 196.7566 197.1368 197.1368 197.8417 197.9587
   197.9587 199.0126 199.2099 199.5427 199.5913 199.5913 199.6135 199.7182
   200.6437 200.6437 201.7014 201.7212 202.1367 202.7210 202.8508 202.8508
   203.2524 203.3038 203.3038 203.3791 203.9597 204.2998 204.2998 204.3987
   205.0975 205.4549 205.4549 205.7444 206.6636 206.6665 206.6665 207.3201
   207.3201 207.4993 208.1579 208.2648 208.6417 208.6417 208.8649 209.6029
   209.6029 209.9131 210.8854 211.2772 211.2772 211.5787 212.0038 212.1543
   212.1543 212.4674 212.6064 212.9054 213.0738 213.4028 214.0613 214.0613
   214.5285 214.8343 214.8343 214.8349 215.1009 215.1202 215.7183 215.7183
   216.1276 216.2483 217.5338 217.5338 218.2780 218.2780 218.3948 219.3829
   219.3829 219.8460 220.1071 220.3651 220.4781 220.4781 220.5397 221.1777
   221.4453 221.7597 221.7597 222.1476 222.1625 222.1625 223.3701 223.3701
   223.4939 223.6957 223.9455 224.8828 225.2280 226.7247 226.7247 227.6821
   229.1470 229.1470 229.2212 229.6629 229.6932 230.2967 230.3808 230.4574
   230.4574 231.0144 231.0144 231.1342 231.1342 231.9306 232.2437 232.5308
   233.0667 233.0667 233.2586 233.8089 234.6882 234.6882 235.0933 235.1869
   235.4993 235.5936 236.6612 236.8634 236.8634 236.9279 237.1765 237.3699
   237.3699 237.6254 238.0804 238.0804 238.8447 239.3334 239.3334 239.8288
   240.6518 241.4494 241.4494 241.9719 242.7476 242.9996 243.8459 243.8459
   244.1351 244.1351 244.2996 244.7719 245.1800 245.1800 245.4849 245.6752
   246.6125 246.6125 246.7370 248.0553 248.6337 248.8217 249.4009 249.4009
   249.9558 250.5032 250.5165 250.8673 250.8673 251.2245 251.3927 251.7068
   251.7068 251.9928 252.0098 252.0098 252.0868 252.2820 252.3800 252.3800
   252.6535 252.9044 252.9086 253.0124 253.1524 253.1524 253.8711 253.8711
   253.9770 254.1138 254.4666 254.4666 254.8039 254.8309 255.0141 255.0141
   255.3554 256.1586 256.1586 256.1860 256.3472 256.9346 256.9346 256.9982
   257.1059 257.2529 257.6974 257.6974 259.0060 259.0660 259.0769 259.0769
   259.1954 259.3819 259.3819 259.6114 260.7810 260.8555 261.0792 261.0792
   261.2252 261.2714 261.2714 261.4019 262.6905 262.7527 262.7527 263.0423
   263.2069 263.5453 263.6437 264.0853 264.5408 264.5408 265.1967 265.1967
   266.4180 266.4662 266.6150 266.7067 266.7067 268.3604 268.3604 268.5089
   269.3547 270.0982 270.2098 270.2098 270.2624 271.2576 271.2576 271.4608
   271.5623 272.4986 272.5127 272.5843 272.5843 273.2369 273.2397 273.6388
   273.6388 274.7274 274.8546 274.8546 275.0779 275.1124 275.2768 275.4193
   275.4193 276.2255 276.2255 276.3420 276.3956 276.7443 276.8230 276.8230
   277.2858 277.2858 277.3347 278.0540 278.5309 278.5309 278.9065 278.9811
   279.1085 279.2119 279.2119 280.2249 280.3601 280.3601 280.4840 280.6746
   280.6828 280.7005 280.7005 280.9942 281.2188 281.2615 281.4213 281.5512
   281.5512 281.8270 282.0476 282.3320 282.3320 282.7778 283.5217 283.7093
   283.7093 284.0689 284.0906 284.1858 284.1858 284.3935 284.9015 284.9015
   284.9865 285.6882 285.7631 286.3033 286.3033 287.1359 287.2959 287.6664
   287.6664 287.6893 287.9530 287.9530 288.0045 288.2274 288.8702 288.9723
   288.9723 289.9572 290.1188 290.1188 290.4017 290.6115 290.7470 290.7470
   290.8280 290.9666 291.1378 291.6142 291.6142 291.7796 292.5629 292.7795
   292.7795 293.4476 293.4476 293.4486 293.7036 293.8710 294.3283 294.6338
   294.6338 295.8283 295.9147 295.9147 296.2597 296.2604 296.4197 296.4197
   296.4588 296.4937 296.7889 296.9336 296.9336 298.5982 298.8267 298.8267
   299.3379 299.3379 299.6851 299.8304 300.1612 301.0415 301.1505 301.1505
   301.2230 301.2392 301.3267 301.4423 301.4423 302.0651 302.8110 302.8110
   302.8628 302.9455 303.3780 303.3780 303.8156 303.9152 304.4168 304.4168
   304.4517 304.6832 304.7513 304.7513 304.7790 304.9866 305.2619 305.7282
   307.0959 307.0959 307.3523 307.3523 307.4613 307.5601 307.7962 307.7962
   308.5833 308.9559 309.1327 309.2864 309.2864 309.5699 309.6481 309.6481
   309.7208 310.3961 310.4638 310.4638 310.7170 311.3377 311.6822 311.6822
   311.6946 312.8065 313.1273 313.1273 313.3873 314.6290 314.6290 314.8847
   315.2009 315.5675 315.6922 315.6922 315.7427 316.5082 317.0716 317.0716
   317.1195 317.3280 317.9940 317.9940 318.4151 318.5429 319.2307 319.2307
   320.6185 320.8607 320.8607 321.1229 321.3574 321.3574 321.6076 321.6076
   321.7242 321.7472 322.0675 322.0752 322.8711 322.8711 323.0532 323.7735
   324.1306 324.2130 324.2130 324.4801 324.6970 326.0372 327.3192 327.3338
   327.3338 327.5186 327.5232 327.5232 327.6546 328.3325 328.5022 328.5988
   328.5988 329.5511 329.7133 329.8880 330.0388 330.0388 330.0998 330.2347
   330.2347 330.2743 330.3156 330.9221 330.9221 331.1111 331.3425 331.3425
   331.8473 332.1454 332.1774 332.1774 332.4038 334.1870 334.4631 334.4631
   334.8668 335.0859 335.0859 336.1167 336.2213 336.2371 336.2371 337.5442
   337.9456 339.0734 339.0832 339.1187 339.1187 339.2308 339.3875 339.3901
   339.5940 339.5940 339.8140 339.8140 340.6020 340.6020 341.0198 342.0391
   342.1618 342.3336 342.3336 342.4402 342.6676 342.8442 342.9695 342.9695
   342.9902 343.7390 344.0556 344.0556 344.6402 345.2980 345.4405 346.0176
   346.0176 346.5014 346.5900 346.5900 346.9585 347.0903 347.2586 347.6169
   347.7393 350.0073 350.0073 350.2102 350.2102 350.4277 350.6323 350.6925
   350.6925 350.8328 350.9970 351.0103 351.0103 351.3467 351.4636 351.4636
   351.7468 352.0753 352.3057 352.7555 352.7555 353.3416 353.5763 353.6106
   354.0527 354.0527 354.5541 355.6826 355.6826 356.2948 356.3921 356.4397
   356.4397 356.8130 357.0110 357.0110 357.1267 357.2164 357.2164 357.3900
   357.4238 357.7432 357.8090 357.8090 358.0661 358.5433 358.5433 358.8958
   359.2705 359.5008 359.7277 359.7968 360.4041 360.4041 361.0433 361.0433
   361.0959 361.2701 361.3590 361.3673 361.4957 361.4957 361.7237 361.9810
   362.3840 362.5988 362.5988 362.8174 363.1427 363.1427 363.1815 363.6692
   363.7888 363.8430 363.8430 363.8446 364.1478 364.1478 364.6379 364.9829
   364.9980 364.9980 365.6809 365.7098 365.9360 365.9360 365.9755 366.0728
   366.0728 366.2820 366.2820 366.3038 366.4020 366.4382 366.5456 367.4444
   367.5346 367.5346 367.7924 368.1161 368.1161 368.2408 368.5801 368.5801
   368.9264 369.0419 369.2509 369.2526 369.2806 369.2806 369.2874 369.9598
   370.1115 370.1115 370.8846 371.4770 371.4770 371.5147 372.3844 372.8349
   372.8349 373.2755 373.3393 373.3393 373.3776 373.4874 373.4874 373.8279
   373.8308 373.8311 374.0712 374.2547 374.2547 374.3456 374.3894 374.5285
   374.5285 374.5681 375.0372 375.0502 375.0502 375.1676 375.2134 375.5510
   375.6437 375.6437 375.6442 376.5944 376.6151 376.6151 376.7734 378.3542
   378.4157 378.4157 378.4669 380.8298 381.2480 381.3933 381.5368 381.5368
   381.8185 381.8185 381.8986 382.0882 382.2621 383.1689 383.1689 383.9374
   383.9420 384.0765 384.0765 384.1838 384.6788 385.0736 385.0736 385.3011
   385.4527 385.4527 386.0325 386.2016 386.2956 386.2956 386.4654 386.4654
   386.7465 386.9536 387.1019 387.1128 387.1128 387.1545 387.4436 388.7245

          k =-0.1667 0.5000-0.1667 (  3639 PWs)   bands (ev):

   -20.5357  -6.3096  -5.7070  -5.7019  -4.0777   4.2105   4.9782   5.0954
     8.8505  10.6990  11.1477  11.2457  11.4207  13.3824  14.4656  14.4995
    14.7632  15.0434  15.2209  15.2638  15.4078  16.6866  17.5911  17.8993
    18.9771  19.9358  21.5043  21.9103  22.5728  23.7376  24.9618  25.2464
    26.0919  27.9241  28.5518  29.2209  29.9969  30.5329  30.9057  31.7573
    32.2860  33.1334  34.2991  34.5931  34.8696  35.0601  35.2487  36.4855
    37.0659  37.0731  38.5419  39.8750  40.3005  40.5361  41.3698  41.4555
    42.2974  42.6956  43.3504  44.4198  46.7061  47.7069  48.1956  48.2868
    48.3980  49.1128  49.1622  49.2225  49.6871  51.0200  51.5372  52.2903
    53.3573  53.7720  54.2728  54.5182  54.9558  55.3281  56.2231  56.8100
    57.6273  57.8891  57.9576  58.5714  59.2188  60.0312  61.7671  61.8683
    62.6858  62.9585  63.3655  63.6524  64.9716  65.3018  66.0552  66.3449
    66.8605  67.6518  68.1806  68.9027  69.4925  69.4992  69.9600  70.0753
    70.0829  70.1972  71.1483  71.4533  71.5802  72.0832  72.4402  73.1478
    74.3084  75.4768  75.7693  75.8575  76.3713  76.3838  76.6211  76.8342
    77.2714  77.5315  77.5545  77.6969  78.0713  79.3018  79.3939  80.8080
    80.9428  81.2691  81.5991  82.6344  82.7882  83.0309  83.4713  84.0476
    84.8340  84.8718  85.0974  85.7700  86.1327  86.1939  87.1118  87.2620
    87.5729  88.4177  88.5204  89.1955  89.7724  89.9015  90.4643  91.7184
    91.8978  93.2076  93.5109  94.1830  94.6523  96.0137  96.1580  96.3449
    96.8120  97.5290  98.5164  98.7038  98.9956  99.2505  99.3099  99.9663
   100.2157 100.3932 100.6233 101.1099 101.3702 102.1663 102.3260 103.0283
   103.5402 103.7317 103.8988 104.2834 104.9046 105.2978 105.4652 105.8011
   106.0292 106.9192 108.1552 108.3837 108.5099 108.6142 108.7717 109.9586
   110.1176 110.3030 110.4911 111.2937 111.4870 111.4922 111.7829 111.9947
   112.0946 112.4733 112.7663 113.4657 113.4897 114.5498 115.0513 115.5470
   116.0476 116.2388 116.9410 116.9967 117.1932 118.6304 118.9803 119.0551
   119.3143 119.4097 119.6272 120.1623 120.7413 121.0691 121.1723 121.4475
   121.5199 122.4314 122.5160 123.0291 123.1861 123.3055 123.5971 125.0247
   125.0918 125.9719 126.0102 126.1778 126.9318 127.0191 127.4454 128.2444
   128.4503 128.9895 129.4308 129.9017 130.1490 130.3715 130.7925 131.0853
   131.3211 131.3540 131.6352 131.9017 132.2019 132.5821 133.0653 133.0765
   133.9771 134.1953 134.2570 134.7285 134.7624 135.3281 135.5137 135.6916
   136.1836 136.3515 136.5218 137.9751 138.4937 138.7001 139.1463 139.3375
   139.4988 139.7701 140.0064 140.2676 140.4586 140.4709 140.5657 140.8768
   140.9369 141.4409 141.7137 142.5551 142.7110 142.9270 142.9272 143.4001
   143.4054 143.6246 143.9919 144.5692 144.8892 145.2111 145.3899 145.8322
   145.9569 146.2638 147.0421 148.0576 148.2654 148.8319 149.8293 149.8570
   150.4587 150.7381 151.1550 151.3703 151.7390 151.8803 152.2210 152.7798
   152.9827 153.9674 154.1278 154.5297 154.7036 155.2821 155.4877 155.6727
   155.9013 156.1348 156.5053 156.9489 157.0535 157.3912 158.2893 158.7903
   158.8076 159.5824 159.7915 159.9464 160.3100 160.7456 161.0145 161.3696
   161.6364 161.9090 162.3440 162.7110 163.2264 163.4815 163.7333 164.1669
   164.5401 165.4408 165.5301 165.9974 166.7186 167.0301 168.4562 168.4929
   168.5433 169.2725 170.0271 170.5896 170.7966 170.8367 170.9742 171.3533
   171.4616 171.8311 171.9941 172.1014 172.2310 172.3769 172.6425 172.8404
   173.2028 173.4224 173.9442 174.2578 174.5426 174.8338 174.9095 175.2043
   175.2669 175.5064 175.7060 176.1518 176.9415 177.2453 177.8947 178.0464
   178.5171 178.8353 179.2440 179.4754 179.9325 180.1813 180.3034 180.4769
   180.5460 181.3534 181.3788 182.1140 182.3766 182.5503 182.6838 182.8790
   182.9782 183.0811 183.8324 183.9933 184.2973 184.5889 184.7241 185.3359
   185.4598 185.6414 186.0296 186.1781 186.5716 186.7188 186.8839 187.1281
   187.2913 187.7383 187.9229 188.0189 188.4165 188.6216 189.0837 189.1098
   190.0227 190.3225 190.6573 190.6688 191.0870 191.1993 191.3656 191.9890
   192.3412 192.9773 193.3107 193.5174 193.7164 194.1742 194.5677 194.5793
   194.6868 195.0714 195.6321 195.8439 196.0651 196.1948 196.3329 196.4864
   196.7121 197.3386 197.3557 197.4171 197.7755 197.9937 198.1556 198.4710
   198.5315 199.3739 200.1148 200.4170 200.4849 200.5621 201.2020 201.5431
   202.2598 202.9992 203.1913 203.2600 203.6568 203.8193 204.0583 204.6843
   204.7640 205.4152 205.6217 205.7680 205.9532 206.3800 206.5512 206.8150
   206.9528 207.5745 207.7416 207.8565 208.2946 208.3766 208.6818 208.8432
   209.0121 209.1720 209.5811 209.8817 210.3008 210.3921 210.7083 210.8814
   211.1479 211.2358 211.5756 212.2327 212.5838 212.8114 213.3354 213.3671
   214.2978 214.8177 214.8589 215.3279 215.4858 215.6736 215.8819 216.0775
   216.2138 216.5236 216.5631 217.0380 217.1687 217.2819 217.5463 217.6218
   218.3286 218.5001 218.6293 219.1640 219.2169 219.6574 219.9064 220.4055
   220.4812 221.1143 221.6649 222.2682 222.3760 222.4363 222.9745 223.2649
   223.4160 223.6744 223.7853 223.8788 224.1789 224.3850 224.5307 224.7382
   225.0475 225.2269 225.9830 226.3435 226.5397 226.7512 226.7771 227.1522
   227.1680 227.4315 227.7023 228.0769 228.2128 228.7991 228.8402 229.9702
   230.1246 230.4073 230.5539 230.6692 230.7786 231.5743 231.8497 232.1343
   232.1621 232.7224 232.7661 233.0681 233.7330 233.8159 234.2978 234.8784
   234.9020 235.2879 235.7452 236.0105 236.5246 236.5433 236.9892 237.0029
   237.0985 237.1649 237.6864 237.8526 238.0169 238.0194 239.0413 239.2914
   239.3987 239.5014 239.7097 240.2216 240.3963 240.8009 241.3748 241.4979
   241.7205 241.8167 242.2583 242.3392 242.5009 243.0288 243.1838 243.3559
   243.4454 244.3601 244.5017 244.5859 244.8967 244.9513 245.4582 245.7691
   245.8822 246.1567 246.8447 247.2986 247.6686 247.7144 247.9676 248.8177
   248.9654 249.2622 249.5136 249.8407 249.9522 250.5161 250.7977 251.3660
   252.1327 252.1915 252.3899 252.8217 252.9459 253.3622 254.1588 254.3786
   254.5779 254.8368 254.9802 255.2683 255.7422 255.8118 256.1628 256.5081
   256.9050 256.9938 257.0759 257.3911 257.8585 258.0769 258.6309 258.6530
   258.7071 258.8720 259.1313 259.2078 259.4071 259.6856 260.0115 260.0485
   260.4538 260.6017 261.5368 261.7661 261.9888 262.1264 262.2528 262.3171
   262.3797 262.4422 262.6347 262.7407 262.8973 262.9610 263.3922 263.4687
   263.7652 263.7874 264.3442 264.4942 264.5140 264.9180 265.1289 266.0264
   266.1118 266.3383 266.8223 267.1309 267.2440 267.3145 267.5618 267.8764
   268.1844 268.3115 268.5557 268.8372 269.1384 269.1773 270.0217 270.2435
   270.2954 270.4575 270.5448 270.7797 271.4344 271.6771 272.0295 272.2359
   272.6449 273.5280 273.6772 273.6805 273.8860 274.1197 274.1253 274.3975
   274.4319 274.7214 274.9534 274.9620 275.0570 275.4228 275.6270 275.8265
   275.9129 276.2571 276.7364 276.8510 277.2660 277.5987 278.0937 278.1555
   278.5231 278.8615 278.9630 279.3184 279.4525 279.8477 279.8891 280.0247
   280.1205 280.5522 280.5650 280.6163 280.8662 280.9311 281.0557 281.5373
   281.8383 282.4707 282.5053 282.6567 282.7926 282.8417 283.0612 283.2790
   283.4323 283.4847 283.8794 284.0262 284.5999 284.6362 284.8666 285.2331
   285.6271 285.7832 285.8268 286.0572 286.2998 286.3728 286.6950 287.5411
   288.1081 288.3582 288.5776 288.7602 288.8481 288.8517 289.1939 289.4545
   289.8891 289.9720 290.0506 290.4520 290.5451 290.6766 290.7820 291.1320
   291.1680 291.3826 291.7437 292.1315 292.4977 292.6317 293.0543 293.3534
   293.5495 293.7855 294.0939 294.3906 294.5499 294.7507 294.9875 295.0086
   295.5029 295.6397 295.9558 296.3484 296.3877 296.9582 297.6806 298.3141
   298.5271 298.8219 299.1312 299.1960 299.2937 299.3497 299.4423 299.7434
   300.1826 300.5711 300.5898 301.0349 301.0895 301.4922 301.6348 301.6621
   301.6818 302.0661 302.0952 302.1116 302.5188 302.6642 303.0521 303.2379
   303.5930 303.8731 303.9294 304.2811 304.4516 305.2961 305.8140 305.8490
   305.9412 306.2974 306.4403 306.4923 306.9186 307.1098 307.3243 307.5384
   308.1538 308.3141 308.5576 308.7300 308.9972 309.2256 309.6323 309.6431
   310.0137 310.3945 310.5929 310.8263 311.2388 311.2402 311.5033 312.4025
   312.8007 313.0307 313.7198 313.8135 313.9379 314.2623 314.5986 314.7788
   314.9036 314.9615 315.0083 315.2439 315.5298 315.7850 315.8738 316.8581
   317.1072 317.5428 317.6026 318.0892 318.3637 318.5087 318.5865 318.8651
   319.0998 319.2283 319.5695 319.9742 320.2361 320.5327 321.2032 321.8028
   322.0452 322.2715 322.4598 322.5875 322.7361 322.7440 323.0154 323.2142
   323.2531 323.6220 323.8321 323.8819 324.0505 324.3422 324.3942 324.4252
   324.4957 324.6911 324.9045 325.1071 325.2630 325.5247 325.7525 325.7965
   326.0883 326.3568 326.4306 326.7161 326.8160 327.5487 327.6437 327.9012
   327.9651 328.1495 328.2251 328.6521 329.0361 329.4811 329.4999 329.7672
   329.8245 330.1119 330.1494 330.2867 330.8256 331.6355 331.6808 331.7076
   332.1350 332.1572 332.4657 332.5668 332.6891 333.0641 333.1675 333.5032
   333.7015 333.7496 333.8249 334.2866 334.7946 335.2431 335.5932 335.7117
   335.7921 335.9830 336.4931 336.6075 336.9756 337.3392 337.7684 338.3173
   338.4307 338.4881 338.4991 338.8753 338.9878 339.1487 339.5090 339.5845
   339.8419 339.9741 340.1973 340.3103 340.5897 340.9206 341.0945 341.3133
   341.7872 341.8686 342.3727 342.7366 342.7938 343.0863 343.1572 343.9813
   344.1575 344.4179 344.5210 344.8264 344.9857 345.3140 345.5091 345.5271
   346.0485 346.6815 346.9280 347.0861 347.1639 347.3948 347.5710 347.9723
   348.0177 348.2819 348.2882 348.6778 348.9604 349.1800 349.2200 349.5871
   349.8941 350.0435 350.1999 350.4895 350.5617 350.9926 351.0880 351.2455
   351.3581 351.4441 351.6165 351.6521 351.9090 352.1876 352.4157 352.5955
   352.6967 352.8334 353.2158 353.5395 353.7490 353.8753 354.6161 354.9329
   355.3693 355.5393 355.9870 356.1767 356.5795 356.7474 357.1829 357.5272
   357.6386 357.8747 358.0082 358.1464 358.2497 358.3468 358.4139 358.4580
   358.5956 358.9606 359.2226 359.5086 359.6070 359.7179 359.7343 359.8966
   360.0227 360.2781 360.7556 361.1886 361.4509 361.8510 362.1297 362.1787
   362.3974 362.5532 362.6763 362.8890 363.0811 363.4018 363.9661 364.0662
   364.4813 364.5570 364.7082 364.9662 365.4391 366.0562 366.2972 366.5261
   366.7669 366.8075 367.0646 367.7409 367.8913 368.0220 368.3998 368.6222
   368.6610 369.0252 369.4621 369.5459 370.0596 370.1784 370.2960 370.5386
   370.7473 370.8509 370.9240 371.0370 371.1055 371.4996 371.6808 371.6941
   372.1847 372.4853 372.6187 372.7311 373.1684 373.4459 373.7056 373.8988
   374.0370 374.5095 374.5296 374.6887 374.7732 375.1261 375.1594 375.2417
   375.3786 375.6032 375.6972 375.8090 376.2015 376.4395 376.6895 376.7707
   377.0393 377.2292 377.2864 377.8011 377.8168 378.2475 378.5951 379.0200
   379.0222 379.1768 379.2130 379.3970 379.6340 379.9736 379.9864 380.0458
   380.0973 380.3786 380.5673 380.7160 380.9345 381.1930 381.2699 381.3860
   381.5973 381.9794 382.1281 382.2111 382.2661 382.4150 382.5457 382.7586
   382.9474 383.0311 383.3038 383.3701 383.5025 383.7867 383.9410 384.1830
   384.2315 384.5534 384.7093 384.7261 384.8180 385.0180 385.1180 385.4063
   386.0843 386.1126 386.2922 386.4595 387.0154 387.6044 387.9348 388.0432

          k = 0.6667-0.3333 0.6667 (  3646 PWs)   bands (ev):

   -20.5228  -6.5216  -5.7498  -5.7034  -3.8646   4.0206   4.6562   4.7083
     9.7354  11.1614  11.9513  12.1527  13.0198  13.5632  13.7454  13.9617
    14.6783  15.1001  15.2270  15.2846  15.5107  15.9935  17.0265  17.0847
    19.1403  19.4540  19.9151  21.5094  23.0489  23.6157  24.5968  25.2484
    26.0851  26.9780  27.5456  28.2894  30.4151  30.9937  31.5969  31.9348
    32.3040  32.4694  32.9978  34.0198  34.6843  35.3396  35.5085  37.3106
    38.8668  38.9953  39.0412  40.0958  41.4662  41.9512  42.4306  43.0094
    43.2584  44.0879  44.4809  45.4991  45.7277  46.4826  46.5482  46.7730
    47.4935  47.5143  49.9135  50.5764  50.9018  51.5886  51.7991  52.8758
    52.9409  53.2724  53.7788  54.6227  55.2660  55.4674  55.5610  56.1825
    57.0205  57.4410  57.5441  58.2013  59.3532  59.9735  60.4173  61.3209
    61.9672  62.4490  62.4951  62.9768  63.4359  64.0940  64.7614  64.8942
    65.4384  66.0049  66.9704  67.7538  68.0191  68.3789  69.0342  69.7820
    70.0108  71.0997  71.1391  71.4794  71.7592  72.4238  72.6166  72.8329
    73.9038  74.1350  74.4029  74.5767  75.1512  76.4575  77.0555  78.4692
    78.7325  79.3322  79.7375  80.2532  80.5288  81.3521  81.7650  81.9995
    82.1362  82.5922  82.6721  83.0076  83.2575  83.6525  84.0291  84.7688
    85.5625  85.9603  86.0496  86.4374  87.1443  87.6928  88.3444  88.8923
    89.0397  90.2829  90.2832  91.2782  91.6097  91.6648  92.1133  92.7953
    93.0445  93.1523  93.5659  93.8493  94.0711  94.6881  95.1860  95.5646
    95.6373  95.7444  96.3589  96.6913  96.9149  97.4320  97.9648  98.1587
    99.6544 100.1365 100.6190 100.6640 101.4237 101.5459 101.8533 102.0530
   103.1489 103.2810 103.8274 104.3984 104.4418 105.1204 105.3863 105.9703
   106.0021 106.2396 106.3980 106.6344 107.7049 108.4022 108.4203 108.6532
   109.1726 109.8387 109.8481 110.1742 111.1109 111.1840 111.9784 112.3686
   112.5461 112.7008 113.1778 113.5779 114.3389 114.6665 115.0994 115.1351
   115.9761 116.3369 116.4424 117.3090 117.3755 117.5539 118.2027 118.9639
   119.0533 119.4945 119.7610 119.8851 120.2329 120.3181 120.7276 120.7939
   121.3514 121.5004 121.7878 121.9088 122.3726 122.4132 123.2422 123.6723
   124.0851 124.1606 124.6289 125.5654 125.7141 125.9919 126.7769 127.2018
   127.5914 128.4359 128.6206 129.1758 129.2473 129.6173 130.1214 130.3646
   130.5339 130.9264 131.2063 131.2123 132.0534 133.0694 133.7867 133.8433
   134.0745 134.7510 134.7544 135.1821 135.3905 135.4374 136.0994 136.1057
   136.7097 137.0140 137.5819 137.9537 138.4541 138.8938 139.3475 139.4164
   139.8019 140.0340 140.3643 140.6666 141.1489 141.5087 142.8439 142.9193
   143.0519 143.3513 143.9803 144.1637 144.3428 144.7375 145.5921 146.0293
   146.2737 146.6017 147.2347 147.3486 147.4980 147.9405 148.1383 148.1940
   148.3288 148.5509 149.1430 149.4289 150.0318 150.1062 150.3509 150.5809
   150.7483 151.0208 151.3619 151.5189 151.8933 151.9703 152.4763 152.5597
   153.1641 153.3177 153.4431 155.2787 155.5098 155.8326 156.0913 156.5963
   157.3023 157.4581 157.8407 157.9713 158.7029 158.7063 159.0759 159.2396
   159.2498 160.0732 160.2829 160.5664 160.6758 161.2378 161.4969 161.7812
   162.0091 162.1773 162.4729 162.8937 163.0911 163.2752 163.4456 163.5779
   163.6592 164.2894 164.4438 164.6001 165.0079 165.1769 165.4082 165.6588
   165.8969 166.2305 166.6941 167.1313 167.6485 167.7750 168.3342 168.7210
   169.1262 169.6635 170.1742 170.2342 170.8820 171.2249 171.6316 171.6525
   171.9922 172.3428 172.6666 173.3480 173.4645 173.5320 173.7961 174.0369
   174.2300 174.8253 174.9149 175.2431 175.6613 176.2234 176.3634 176.9003
   177.0418 177.1726 177.5345 177.5711 177.8217 177.8236 178.2941 178.9420
   179.1594 179.4694 179.7672 180.2521 180.4879 180.8546 181.2478 182.0401
   182.2113 182.8952 183.2944 184.3551 184.3848 184.9361 184.9411 185.4104
   185.5317 185.7193 186.2532 186.4150 186.8086 186.8606 187.1669 187.4977
   187.6409 187.7778 188.1511 188.3237 188.3568 188.4890 189.2029 189.8073
   189.8428 190.2897 190.7097 190.8645 190.9518 191.0168 191.3743 192.0128
   192.0363 192.1327 192.5108 193.0418 193.6282 194.5304 194.5610 195.7777
   195.9451 196.4793 196.5103 196.8902 196.9130 197.0542 197.4246 197.5103
   197.7349 198.4465 198.7133 198.9011 198.9401 199.0696 199.2326 199.3211
   199.7949 200.3189 200.4254 200.7265 200.8771 201.5688 201.6777 202.0834
   202.1210 202.7268 202.8928 203.6775 203.9908 204.5557 204.7222 204.7859
   205.1100 205.7358 205.8663 206.3874 206.6700 207.1344 207.3318 207.8182
   207.8328 207.9955 208.2579 208.7798 209.0797 209.2145 209.8311 210.0656
   210.2550 210.6417 210.8820 211.3469 211.4425 212.0350 212.0838 212.2283
   213.2500 213.3517 213.3869 213.6059 213.6786 213.8428 214.2190 214.4551
   214.5619 214.7811 214.8451 215.2514 215.3728 215.7307 216.1240 216.1261
   216.3423 216.3465 217.4375 217.5115 217.6601 217.9999 218.3560 218.8867
   218.8883 219.1096 219.2803 220.2248 220.3194 220.6637 220.8493 220.9262
   221.2302 221.8035 221.9827 222.1092 222.1701 222.9939 223.1755 223.3636
   223.7112 223.8794 223.9636 224.0062 224.3617 224.9136 224.9775 225.5051
   225.7999 226.1157 226.5100 226.5376 226.8651 226.9742 227.1369 227.2608
   227.8218 228.1643 228.5931 228.6340 229.2840 229.5041 229.7946 230.0803
   230.4360 230.5157 230.7501 231.0036 231.2911 231.5725 232.0216 232.2754
   232.3396 232.9122 233.0541 233.2932 233.6661 233.9346 234.1218 234.1851
   234.6873 234.7442 234.8628 235.1465 235.3308 235.6648 235.8802 236.1520
   236.4145 236.7422 236.9903 237.7434 237.9743 238.5247 238.8072 238.8665
   239.1500 239.2596 239.9968 240.0551 240.7351 240.7948 241.2960 241.3968
[...]
   207.1551 207.6748 207.8986 208.0289 208.1054 208.6050 208.7902 209.2022
   209.3600 209.6297 209.9250 210.4916 210.7118 211.1652 211.5867 212.2041
   212.6940 212.7955 212.9807 213.1181 213.4529 213.8296 213.9564 214.5664
   214.6583 214.9246 215.4096 215.7907 216.1229 216.6256 216.7144 217.3330
   217.5890 217.7185 217.9511 218.2092 218.6449 218.8571 218.9765 219.0380
   219.4853 219.8852 220.3129 220.3538 221.1359 221.4528 222.0503 222.2489
   222.3357 222.5357 222.6362 222.6618 222.9720 223.3620 223.4635 223.6820
   223.7694 224.2613 224.6298 224.8399 224.9559 225.1550 225.3419 225.4463
   225.5343 225.9415 226.0670 226.4761 226.7057 226.9150 227.1094 227.3961
   227.5174 227.6536 227.7361 228.2195 228.8353 229.3929 229.9403 230.8671
   231.1545 231.4156 231.6969 232.3026 232.8737 232.9823 233.4875 233.8706
   234.2859 234.5895 234.6126 235.1017 235.3619 235.5788 235.8871 236.0928
   236.0998 236.4800 236.6388 236.6656 237.2666 237.4158 237.6472 237.8050
   237.9053 238.1942 238.5993 238.7346 238.7919 238.8305 239.1110 239.4395
   239.6522 239.8737 240.2100 240.2249 240.4601 240.7158 241.0970 241.6475
   241.6542 242.0300 242.3872 242.4860 242.5767 242.6628 243.0344 243.3562
   243.3562 244.0684 244.2767 244.3655 244.3831 244.7431 245.1526 245.2274
   245.4842 245.9171 246.2524 246.3322 246.5843 246.7353 247.1472 247.7785
   247.9009 248.1413 248.4027 248.5465 248.7106 249.0894 249.2212 249.5270
   250.0013 250.1842 250.2666 250.3524 250.4073 250.4376 250.8684 250.9672
   251.2506 251.3946 251.5201 251.9911 252.2395 252.2718 252.6104 252.6546
   253.2041 253.7248 253.8577 254.1394 254.7608 255.2681 255.5167 255.6234
   255.7250 256.0920 256.2356 256.8115 256.8415 256.9913 257.2095 257.3904
   257.7391 258.4651 259.0680 259.1753 259.4098 259.7097 259.7886 259.7964
   259.9682 260.0421 260.1993 260.2808 260.5873 261.0885 261.5687 261.5924
   262.3634 262.5928 262.8249 262.9718 263.3828 263.3862 263.9237 264.2150
   264.2494 264.6525 264.8585 265.1776 265.5315 265.6375 265.8844 266.8135
   266.9918 267.1710 267.4679 267.9144 268.3476 268.5322 268.8553 269.0007
   269.1626 269.5520 269.7310 269.7334 270.0632 270.7879 270.8135 270.9308
   271.0455 271.2582 271.8482 271.9382 272.3435 272.4753 273.1199 273.2554
   273.8369 274.0334 274.0715 274.8136 275.3395 275.6172 275.9224 276.1142
   276.1161 276.8123 277.1891 277.4562 277.6147 277.8776 278.2754 278.7806
   278.8493 279.1474 279.3788 279.5797 279.7938 280.2199 280.5580 280.9002
   281.0613 281.5546 282.3728 282.3895 282.4280 282.4559 282.6993 282.9579
   283.7399 283.8471 284.2279 284.4523 284.6230 284.8573 285.0798 285.4806
   285.7817 286.2015 286.4937 286.7303 287.0445 287.0978 287.6011 287.6727
   287.9724 288.2697 288.2842 288.4718 288.5297 288.8489 288.9011 288.9643
   289.0769 289.4268 289.7341 290.1129 290.1848 290.7296 290.8705 291.0283
   291.1498 291.4353 291.7342 292.5987 293.1544 293.4502 293.5781 293.6167
   293.8248 294.2423 294.3567 294.7471 295.0099 295.5732 295.7545 295.9469
   295.9686 296.2150 296.2547 296.5359 296.5884 296.7817 296.8757 297.1576
   297.4102 297.5265 297.5728 297.6606 297.9189 298.6457 298.7604 299.0283
   299.1077 299.3035 299.9093 300.1794 300.3020 300.6177 300.6196 300.8876
   300.9732 301.0396 301.5050 301.6257 302.4027 302.6232 303.2808 303.4594
   303.6970 303.9276 303.9445 304.8691 305.1191 305.1346 305.5751 305.8709
   306.2588 306.4440 306.4753 306.8158 306.9883 307.0288 307.1744 307.2631
   307.3661 307.5553 307.6333 307.7458 307.8645 308.1982 308.3428 308.4040
   308.5785 309.0354 309.2264 309.3374 309.3914 309.7291 309.7738 309.8353
   310.1103 310.4047 310.6018 311.1128 311.6826 311.9093 312.1272 312.2082
   312.3343 312.6694 312.8322 312.8593 313.0661 313.1561 313.3157 313.9081
   314.1861 314.7417 315.1883 315.5704 315.6942 316.2825 316.3437 316.5454
   316.8446 317.0333 317.0928 317.2517 317.2795 317.3931 317.4957 317.5605
   317.5922 317.6509 318.1564 318.5833 318.9255 318.9337 319.4981 320.0150
   321.1526 321.1674 321.3930 321.4383 321.6405 321.7455 322.0523 322.2624
   322.3841 322.5856 323.2776 323.8396 323.9637 324.2355 324.2753 324.5353
   324.7214 324.8921 324.9989 325.2006 325.2421 325.4317 325.7391 325.9850
   325.9914 326.4160 326.4417 326.5339 326.7851 326.7877 327.1015 327.1670
   327.3428 327.7533 327.9984 328.0240 328.4484 329.3232 329.4680 330.3146
   330.4480 330.5614 330.7500 330.7808 331.0671 331.2474 331.7056 331.8105
   332.0477 332.4406 332.8253 333.5972 333.7137 333.8434 333.8923 334.1118
   334.2431 334.4522 334.4586 334.8566 334.8685 335.2330 335.5051 335.7152
   335.8696 336.2335 336.3831 336.6188 336.6833 336.9078 337.0165 337.1856
   337.8081 338.2748 338.3130 338.9181 338.9543 339.2864 339.3568 339.6176
   339.8365 339.9139 340.4368 340.5754 340.6142 340.7942 340.8903 341.3293
   341.7056 341.7215 341.9495 341.9786 342.3144 342.3624 343.2268 343.4877
   343.6273 343.7266 343.9227 343.9567 344.0906 344.1485 344.2322 344.8140
   344.9780 345.0453 345.0976 345.2897 345.5577 345.7350 346.2362 346.3594
   346.4818 346.6593 346.7157 347.2524 347.4055 347.4836 347.6492 348.1066
   348.2069 348.4588 348.4693 348.8395 348.9668 349.1359 349.8844 349.9254
   349.9768 350.0803 350.1165 350.2882 350.5499 350.9568 350.9844 351.1373
   351.6492 351.7887 352.1823 352.5600 352.8898 352.9730 353.4777 353.5390
   353.6925 353.8762 353.8881 353.9908 354.3337 354.5969 354.7339 355.2124
   355.3592 355.4281 355.7253 355.9398 356.1288 356.2294 356.2772 356.9031
   357.7058 357.7379 357.9658 358.2465 358.3930 358.5072 358.8993 359.2629
   359.4880 359.9571 360.0834 360.4507 360.6724 360.6788 360.8172 360.9290
   361.0860 361.6536 361.8360 361.9573 362.0975 362.2506 362.2976 362.5957
   362.6023 362.7370 363.0340 363.2786 363.3106 363.5433 363.8922 363.9795
   363.9820 364.8507 365.4405 365.5233 366.0683 366.1502 366.2059 366.3848
   367.0142 367.2177 367.5298 367.5987 368.3266 368.5430 368.6876 368.7807
   368.8483 369.1210 369.6428 369.7775 369.7833 370.0498 370.7542 370.9438
   371.2173 371.5149 371.6208 372.2765 372.4650 372.6527 372.7031 372.7838
   373.1574 373.2157 373.5386 373.9017 373.9392 374.0333 374.1180 374.2864
   374.4077 374.4738 374.6879 374.7902 375.2561 375.3985 375.4273 375.6189
   375.6421 375.7254 375.9052 376.2477 376.4081 376.4590 376.6220 376.7657
   377.0391 377.1704 378.1102 378.1693 378.2971 379.1670 379.4602 379.6069
   379.6561 380.1602 380.2214 380.3589 380.5153 380.7468 381.4584 381.4728
   381.8145 381.8589 382.2762 382.3911 382.4509 382.5224 382.5636 382.8010
   382.9417 383.2759 384.3714 384.4297 384.5456 384.9321 384.9639 385.0062
   385.6684 385.8553 386.1756 386.1964 386.5968 386.6311 386.6735 387.0934
   387.3812 387.4539 387.6960 389.0188 389.7068 389.9284 390.0312 390.4071

          k =-0.3333-1.0000 0.0000 (  3652 PWs)   bands (ev):

   -20.5140  -6.0418  -6.0040  -5.8726  -4.3149   4.6635   4.9936   5.1363
     8.7401  10.9177  11.6007  12.3696  12.9279  13.5604  14.1613  14.5058
    14.7903  15.0728  15.0735  15.2770  15.3052  16.4758  17.4102  17.6205
    18.0953  18.8981  19.8223  22.9680  23.2175  23.6468  23.9004  25.8534
    25.9657  26.2977  26.5457  27.1167  28.4181  29.5920  29.6357  30.7621
    32.7893  33.9660  34.5701  34.7156  35.9691  36.1881  37.5775  38.0744
    38.2570  39.0280  39.8827  40.5462  40.9180  41.9973  43.3451  43.4750
    43.7429  44.1281  44.3541  44.3581  45.9890  46.5404  47.4216  47.4800
    48.3279  49.3942  49.9857  50.8534  51.3615  51.3775  51.7579  51.8906
    52.3700  53.4036  53.7359  53.9382  54.0291  54.3935  55.0691  56.3159
    56.8938  57.4439  57.7282  58.0059  58.3884  60.7060  61.0253  61.5697
    61.5801  61.7455  62.1086  62.3832  62.9458  63.4061  63.7993  64.6847
    65.5310  65.9242  66.3092  67.1094  67.3405  68.0427  68.2335  68.3959
    68.4930  68.9659  69.6650  70.1097  70.1786  71.1815  71.2455  71.6473
    72.9521  72.9668  75.6773  76.6743  77.5128  77.7530  77.9862  78.2946
    79.6312  79.9356  80.3648  80.4384  81.3782  82.6332  83.1797  83.4561
    83.6414  83.9456  84.2578  84.6615  85.0704  85.3970  85.5838  85.8871
    86.6881  86.8794  87.0427  87.0868  87.2462  87.4099  87.5735  88.5037
    89.6066  90.8321  91.4640  92.6746  92.9633  92.9975  93.1745  93.6564
    93.6874  93.7685  94.0751  94.2727  94.8569  94.8999  94.9744  95.1297
    95.4443  96.0278  96.2814  96.5123  97.9751  98.0087  98.0106  98.4386
    98.8593  99.0498  99.6411 100.1351 100.3101 100.8369 101.2269 101.3095
   101.4295 102.2632 102.9497 103.6458 104.4367 104.5463 105.0389 105.0481
   105.3193 105.8298 106.0871 106.5330 106.6827 108.0429 108.2687 108.2711
   108.2762 109.2362 109.2376 109.2762 110.0816 110.7379 111.0489 111.0564
   111.0711 111.2634 111.4874 111.7680 111.8408 112.0398 112.4835 112.4846
   112.6447 113.1758 113.3103 114.7003 115.8528 117.4205 117.6320 118.0278
   119.2934 120.2650 120.4887 120.6573 120.6608 121.1339 121.4386 121.7284
   121.9565 122.4046 123.6070 123.7156 123.7954 124.2810 124.2911 124.3704
   124.8054 125.4371 125.6119 126.3787 126.4670 126.5285 127.8441 128.3202
   128.3366 128.4383 128.7513 129.3883 129.4836 129.6258 130.1049 130.9407
   131.7207 132.1128 132.2486 132.2685 132.7883 133.1326 133.2438 133.8614
   133.9138 133.9353 134.0516 134.6791 135.0308 135.5282 136.1276 136.5591
   137.6137 138.1090 138.6138 139.0197 139.0608 139.4981 140.1196 140.3340
   140.6392 141.5418 141.5578 141.6398 141.9614 142.4838 142.4937 142.8988
   142.9855 143.4169 143.5800 144.1279 144.1479 145.3417 145.3676 145.4069
   145.8039 146.5235 147.0958 147.7805 147.8494 147.9693 148.4564 148.5142
   149.2278 149.9514 150.0526 150.5664 151.2252 151.3031 151.5692 151.7866
   151.8851 152.1123 152.3577 152.5702 153.0097 153.3546 153.4181 153.9632
   154.0394 154.5484 154.9817 155.2242 155.2575 155.3126 155.9123 156.1475
   156.5572 156.9889 157.0183 157.6601 157.9140 158.3277 158.5984 158.7959
   158.8681 159.8760 159.9606 160.0849 160.1956 160.5302 160.6916 161.2694
   161.5243 161.6293 162.1454 162.2601 162.3233 162.4770 162.9196 162.9830
   163.2497 163.3348 164.2444 164.2720 164.3718 164.6673 165.1645 166.0010
   166.2557 166.5496 166.7760 166.9231 167.9464 167.9642 167.9822 168.3827
   168.3880 168.4895 169.0025 169.2076 169.2778 169.5448 169.8104 169.8591
   169.9161 170.0974 170.8047 171.1341 171.4312 172.3422 172.3835 173.8440
   173.8592 174.4122 174.4305 175.4545 175.5147 176.7890 177.1064 177.1347
   177.5721 177.6333 177.8633 178.1495 178.2983 178.9526 179.1994 179.3133
   179.6593 179.7481 180.1108 180.4521 181.3538 181.6807 181.7304 182.1507
   182.1970 182.9812 183.1379 183.1645 183.4554 183.6882 183.9861 184.0754
   184.3036 184.5202 184.7914 185.6061 185.8708 185.9127 186.3529 186.5621
   186.7349 187.5640 187.6419 187.9346 188.0177 188.5395 188.8814 188.9488
   189.0852 189.3029 190.1373 190.1549 190.2489 191.0611 191.5996 191.6640
   191.8761 192.3236 193.9546 194.3266 195.2579 195.2807 195.5510 196.2629
   196.5473 196.6047 196.8470 197.3270 197.5638 197.7670 197.8011 198.0608
   198.1083 198.2473 198.2884 198.3119 199.0148 199.1587 199.3539 199.5367
   200.0553 200.5508 200.9559 201.1757 201.5376 202.1537 202.2063 202.5851
   202.8040 203.0922 203.2770 203.4313 203.7747 204.0150 204.1689 204.9605
   205.2882 205.9713 206.0020 206.2601 206.3212 206.7846 206.8822 206.8985
   207.1187 207.2134 207.7011 208.3533 208.5818 209.4108 209.5066 210.0436
   210.1628 210.1749 210.2426 210.3089 210.8426 211.0767 211.1648 211.3488
   211.8415 211.8638 212.1544 212.4671 212.7718 213.3799 213.8731 213.9606
   214.0034 214.5187 214.6055 214.7061 215.8028 215.9136 216.0812 216.4884
   216.6679 217.6249 218.4228 218.9637 219.4590 219.7893 220.0507 220.0513
   220.2694 220.4446 220.6895 221.9265 222.0912 222.3363 222.5669 222.7864
   222.8657 222.9014 223.1167 223.1405 223.2121 224.5619 224.6989 224.8763
   224.9090 225.2650 225.5998 226.0481 226.2203 226.4278 226.5103 226.5500
   226.9326 227.5752 227.5812 227.8353 228.3898 228.5130 229.0893 229.6377
   229.7656 229.8005 229.8936 230.0377 230.4448 230.7074 230.8804 231.7176
   231.9698 232.1515 232.2109 232.4489 233.3062 233.3427 233.6735 234.0328
   234.0506 234.1554 234.2452 234.9433 235.0083 235.0691 235.1188 235.2382
   235.5989 235.6105 235.6433 235.7324 235.8706 236.1543 236.1906 236.3728
   236.6473 236.6732 237.3266 237.5876 237.7852 238.3829 238.8288 238.8392
   238.9456 239.1579 239.1751 239.2230 239.6222 239.8427 240.3623 240.8899
   241.2718 241.3255 241.3902 241.8901 241.9407 242.7512 242.8271 242.8712
   242.9093 242.9838 243.2666 243.5760 243.8444 244.0008 244.1328 244.7463
   244.8270 244.9702 245.0583 245.3117 245.6446 245.7912 246.2407 246.5955
   246.9299 247.3645 247.3684 247.9884 248.4029 248.5468 248.6104 249.0015
   249.0909 249.5138 249.9949 250.4789 250.7461 250.8006 251.7832 252.0254
   252.2658 252.8210 252.9973 253.3344 253.3795 253.6964 254.2461 254.6198
   254.8072 254.9209 255.0071 255.0559 255.3098 255.3500 255.4047 255.4549
   255.7287 255.7514 255.9884 256.0611 256.3996 256.4529 256.4972 256.9227
   257.3410 257.4802 257.6195 258.1505 258.2902 259.1455 259.3891 259.4429
   259.4449 260.4466 260.5392 260.6829 260.8494 261.2802 261.3825 261.4198
   261.6765 261.8336 262.1162 263.0537 263.1759 263.4745 263.6631 263.7912
   263.9574 264.6146 264.6163 265.0641 265.5157 266.3544 266.4786 266.5054
   267.1796 267.2122 267.2726 267.2813 267.6939 267.7225 268.1614 268.3241
   268.8970 268.9444 269.6223 269.9827 270.0456 270.1927 270.2646 270.7765
   270.8180 271.1783 271.8951 271.9903 272.1736 272.4415 272.5506 274.0212
   274.5152 274.5976 274.7945 274.8152 274.8639 274.8907 275.0222 275.1990
   275.5297 275.5601 276.1098 276.3816 276.6105 277.2946 277.4895 277.6098
   277.9030 277.9194 278.2538 278.3401 278.3503 278.9271 279.4817 279.7741
   279.8335 279.8624 279.9241 280.2712 280.3333 280.5613 280.9624 282.3051
   282.6232 282.8698 283.0694 283.2025 284.2409 284.8658 285.1677 285.4469
   286.5683 286.6133 287.0127 287.6179 287.7654 287.8847 287.8932 288.3417
   288.9978 289.2398 289.7288 289.7582 290.3905 290.9175 290.9851 291.3674
   291.5564 291.7695 291.9232 292.6304 292.7011 293.1094 293.1377 293.2386
   293.2599 293.4652 293.7533 293.8677 294.2211 294.2541 294.7278 294.8719
   294.8852 295.0168 295.1535 295.2559 295.4039 295.7566 295.9557 296.0223
   296.2278 296.3443 296.5432 296.6703 296.8160 297.2701 297.4859 297.5727
   297.9424 298.5410 298.7765 299.0595 299.0984 299.3077 299.3735 299.9305
   300.2344 300.3100 300.3718 300.9783 301.0777 301.2722 301.3087 301.5176
   301.7624 301.8938 301.9563 302.1191 302.1396 302.2100 302.7038 302.7721
   303.2385 303.5427 303.5523 303.6052 303.9461 304.0200 304.3117 304.5233
   305.1447 305.3816 305.7765 306.6023 307.1072 307.6939 307.7210 307.9126
   308.3201 308.5561 308.8832 309.1122 309.1967 309.3748 309.6576 309.9331
   309.9761 310.0941 310.5301 310.8254 310.8845 311.0732 311.3770 311.6207
   311.6386 311.8177 311.8749 311.9301 312.0193 312.1361 312.2555 312.2720
   312.3434 312.5872 312.6450 312.8265 312.9516 312.9844 313.2494 313.4000
   313.4203 313.4685 313.5956 313.7029 313.7190 313.7847 314.3234 314.3576
   315.2867 315.5584 315.6683 315.7115 315.8293 316.3659 316.7944 317.3734
   317.5940 318.1068 318.2122 319.0058 319.4503 319.4503 319.6754 319.8263
   320.4524 320.9688 321.4194 322.3400 322.3477 322.3974 322.4138 322.9142
   322.9169 323.3592 323.5703 323.8383 323.9142 324.0390 324.4773 324.7230
   324.7908 325.1635 325.1964 325.3873 325.4299 325.7097 325.8371 325.8861
   325.9925 326.1353 326.1594 326.5844 326.7279 326.8572 326.9983 327.4305
   327.9705 328.0677 328.7244 328.9667 328.9906 329.0883 329.2207 329.3128
   329.3187 329.3293 329.6081 329.9688 330.1704 330.4875 330.7455 330.7897
   331.1448 331.3125 331.7708 331.8839 332.1581 332.2816 332.3979 332.7393
   332.7811 333.3930 333.6754 333.7559 334.2623 334.5916 335.1159 335.6047
   335.6071 336.2789 336.3150 336.5307 336.6696 336.8130 336.8161 336.9016
   336.9303 336.9951 337.4493 337.7913 338.1011 338.1617 338.1665 338.6523
   338.7701 339.0585 339.3586 339.5359 339.5653 340.4216 340.5147 340.7283
   341.1123 341.6681 341.9299 342.2235 342.3282 342.3905 342.7317 342.8461
   342.8728 342.8938 343.1348 343.2090 343.3144 343.3637 343.3862 343.5442
   343.5528 344.0135 344.1081 344.2405 344.2538 344.5162 344.5269 345.6705
   346.4913 346.7315 346.8279 347.2502 348.0177 348.7924 348.9772 349.2241
   349.4722 349.6982 350.0681 350.1814 350.4124 350.4677 350.5101 350.9419
   351.0494 351.1833 351.1941 351.3765 351.4406 351.7219 351.8439 351.8680
   351.8820 352.1017 352.2652 352.5481 353.4581 353.7219 354.1501 354.1561
   354.1992 354.4956 354.5078 354.5613 354.5681 354.5685 354.7377 355.3290
   355.4118 355.4621 355.5920 355.7348 355.9672 356.0679 356.6017 356.7523
   356.7548 356.8363 356.9275 357.3639 357.4336 357.6984 357.7620 357.7917
   357.8133 358.3303 359.4009 359.4017 360.8750 361.4617 361.4833 361.5649
   361.8486 361.9186 362.0528 362.2645 362.3575 362.4209 362.4615 362.5999
   362.6987 363.0940 363.2181 363.3476 363.4042 363.5112 363.8150 363.9568
   364.1853 364.2226 364.2982 365.0966 365.7307 365.7309 366.3211 366.4998
   367.4278 367.4935 368.2280 368.4352 368.4482 369.1402 369.3184 369.3465
   369.4051 369.4211 369.5612 369.8531 370.9544 371.1312 371.1765 371.2856
   371.4257 371.4543 371.5155 371.6074 371.7575 372.3024 372.4189 372.4514
   372.5229 372.8541 373.2009 373.5157 373.8629 373.9410 374.0919 374.6769
   374.9541 375.0033 375.3065 375.3161 375.5174 375.5692 375.6157 375.7048
   375.7746 375.8374 375.8503 375.9214 376.0401 376.6923 376.8482 377.7279
   378.7453 378.8536 379.1667 379.2772 379.6988 379.9995 380.1113 380.4952
   380.5312 380.5933 380.6750 380.8709 381.2162 381.5796 381.6408 381.8382
   381.9996 382.0123 382.5468 382.6548 382.6827 382.8893 383.0533 383.1946
   383.6153 383.7546 383.8410 383.8739 384.2684 384.7638 385.0271 385.1218
   385.2998 385.4049 385.8676 386.3766 386.4552 386.4796 387.1686 387.4967
   387.9175 388.0739 388.1958 388.7748 388.9206 389.3847 390.0595 390.2182

     the Fermi energy is     6.6726 ev
     (compare with:     6.3725 eV, computed in scf)

     Writing all to output data dir out/mp-1500.save/
 
     init_run     :      0.03s CPU      0.07s WALL (       1 calls)
     electrons    :    708.09s CPU    751.53s WALL (       1 calls)

     Called by init_run:
     wfcinit      :      0.00s CPU      0.00s WALL (       1 calls)
     potinit      :      0.00s CPU      0.01s WALL (       1 calls)
     hinit0       :      0.01s CPU      0.04s WALL (       1 calls)

     Called by electrons:
     c_bands      :    708.09s CPU    751.50s WALL (       1 calls)
     v_of_rho     :      0.00s CPU      0.00s WALL (       1 calls)

     Called by c_bands:
     init_us_2    :      0.00s CPU      0.00s WALL (       8 calls)
     init_us_2:cp :      0.00s CPU      0.00s WALL (       8 calls)
     cegterg      :    684.00s CPU    725.70s WALL (       8 calls)

     Called by *egterg:
     cdiaghg      :    637.47s CPU    677.89s WALL (     100 calls)
     h_psi        :     12.72s CPU     13.24s WALL (     108 calls)
     g_psi        :      0.09s CPU      0.09s WALL (      92 calls)

     Called by h_psi:
     h_psi:calbec :      0.29s CPU      0.31s WALL (     108 calls)
     vloc_psi     :     12.03s CPU     12.52s WALL (     108 calls)
     add_vuspsi   :      0.21s CPU      0.22s WALL (     108 calls)

     General routines
     calbec       :      0.29s CPU      0.31s WALL (     108 calls)
     fft          :      0.00s CPU      0.03s WALL (      10 calls)
     fftw         :     10.99s CPU     11.45s WALL (  122964 calls)
 
     Parallel routines
 
     PWSCF        :  11m48.89s CPU  12m32.84s WALL

 
   This run was terminated on:   1: 4: 2  20Nov2023            

=------------------------------------------------------------------------------=
   JOB DONE.
=------------------------------------------------------------------------------=
