
     Program PWSCF v.7.1 starts on  5Apr2024 at 13: 5:42 

     This program is part of the open-source Quantum ESPRESSO suite
     for quantum simulation of materials; please cite
         "P. Giannozzi et al., J. Phys.:Condens. Matter 21 395502 (2009);
         "P. Giannozzi et al., J. Phys.:Condens. Matter 29 465901 (2017);
         "P. Giannozzi et al., J. Chem. Phys. 152 154105 (2020);
          URL http://www.quantum-espresso.org", 
     in publications or presentations arising from this work. More details at
     http://www.quantum-espresso.org/quote

     Parallel version (MPI), running on     8 processors

     MPI processes distributed on     1 nodes
     247554 MiB available memory on the printing compute node when the environment starts
 
     Reading input from pw_mp-22916_nscf_k10_E55.in
Warning: card &IONS ignored
Warning: card / ignored
Warning: card &CELL ignored
Warning: card / ignored

     Current dimensions of program PWSCF are:
     Max number of different atomic species (ntypx) = 10
     Max number of k-points (npk) =  40000
     Max angular momentum in pseudopotentials (lmaxx) =  4

     Atomic positions and unit cell read from directory:
     out/mp-22916.save/
     Atomic positions from file used, from input discarded
 
 
     R & G space division:  proc/nbgrp/npool/nimage =       8
     Subspace diagonalization in iterative solution of the eigenvalue problem:
     one sub-group per band group will be used
     scalapack distributed-memory algorithm (size of sub-group:  2*  2 procs)

 
     Parallelization info
     --------------------
     sticks:   dense  smooth     PW     G-vecs:    dense   smooth      PW
     Min         119     119     33                 2416     2416     371
     Max         120     120     35                 2419     2419     372
     Sum         955     955    271                19339    19339    2975
 
     Using Slab Decomposition
 


     bravais-lattice index     =            2
     lattice parameter (alat)  =      11.1930  a.u.
     unit-cell volume          =     350.5745 (a.u.)^3
     number of atoms/cell      =            2
     number of atomic types    =            2
     number of electrons       =        16.00
     number of Kohn-Sham states=         1200
     kinetic-energy cutoff     =      55.0000  Ry
     charge density cutoff     =     220.0000  Ry
     Exchange-correlation= PBE
                           (   1   4   3   4   0   0   0)

     celldm(1)=  11.193007  celldm(2)=   0.000000  celldm(3)=   0.000000
     celldm(4)=   0.000000  celldm(5)=   0.000000  celldm(6)=   0.000000

     crystal axes: (cart. coord. in units of alat)
               a(1) = (  -0.500000   0.000000   0.500000 )  
               a(2) = (   0.000000   0.500000   0.500000 )  
               a(3) = (  -0.500000   0.500000   0.000000 )  

     reciprocal axes: (cart. coord. in units 2 pi/alat)
               b(1) = ( -1.000000 -1.000000  1.000000 )  
               b(2) = (  1.000000  1.000000  1.000000 )  
               b(3) = ( -1.000000  1.000000 -1.000000 )  


     PseudoPot. # 1 for Br read from file:
     /usr/scratch4/magr4985/FGWC/FGWC/pseudo/SG15/Br.upf
     MD5 check sum: 5b50323dbf1c0ae0ed9e7f1e72c3f86c
     Pseudo is Norm-conserving, Zval =  7.0
     Generated using ONCVPSP code by D. R. Hamann
     Using radial grid of  602 points,  6 beta functions with: 
                l(1) =   0
                l(2) =   0
                l(3) =   1
                l(4) =   1
                l(5) =   2
                l(6) =   2

     PseudoPot. # 2 for Na read from file:
     /usr/scratch4/magr4985/FGWC/FGWC/pseudo/SG15/Na.upf
     MD5 check sum: 425b17ce8ead78efa4860b7b3310c7e3
     Pseudo is Norm-conserving, Zval =  9.0
     Generated using ONCVPSP code by D. R. Hamann
     Using radial grid of  602 points,  4 beta functions with: 
                l(1) =   0
                l(2) =   0
                l(3) =   1
                l(4) =   1

     atomic species   valence    mass     pseudopotential
        Br             7.00    79.90400     Br( 1.00)
        Na             9.00    22.98980     Na( 1.00)

     48 Sym. Ops., with inversion, found



   Cartesian axes

     site n.     atom                  positions (alat units)
         1           Na  tau(   1) = (   0.0000000   0.0000000   0.0000000  )
         2           Br  tau(   2) = (  -0.5000000   0.5000000   0.5000000  )

     number of k points=     3  Gaussian smearing, width (Ry)=  0.0005
                       cart. coord. in units 2pi/alat
        k(    1) = (   0.0000000   0.0000000   0.0000000), wk =   0.2500000
        k(    2) = (   0.5000000  -0.5000000   0.5000000), wk =   1.0000000
        k(    3) = (   0.0000000  -1.0000000   0.0000000), wk =   0.7500000

     Dense  grid:    19339 G-vectors     FFT dimensions: (  40,  40,  40)

     Estimated max dynamical RAM per process >      69.48 MB

     Estimated total dynamical RAM >     555.83 MB

     The potential is recalculated from file :
     out/mp-22916.save/charge-density

     Starting wfcs are random

     Band Structure Calculation
     ParO style diagonalization

     ethr =  5.00E-06,  avg # of iterations = 10.1

     total cpu time spent up to now is      112.5 secs

     End of band structure calculation

          k = 0.0000 0.0000 0.0000 (  2421 PWs)   bands (ev):

   -47.8858 -19.8277 -19.8277 -19.8277 -11.1116   1.7470   1.7470   1.7470
     5.9548  11.6218  11.6218  11.6218  13.8207  13.8207  14.7635  16.5847
    16.5847  16.5847  22.3996  26.2094  27.6353  27.6353  27.6353  27.8272
    27.8272  27.8272  31.2430  31.2430  31.9010  31.9010  31.9010  35.7168
    35.7168  35.8938  40.3097  40.3097  40.3097  41.9389  41.9389  41.9389
    44.0874  44.0874  44.0874  44.3413  44.6411  44.6411  44.6411  45.5456
    45.5456  45.5456  46.8837  46.8837  46.8837  48.5294  48.5294  48.6980
    48.6980  48.6980  49.0712  50.4308  51.5659  51.5659  51.5659  59.4835
    59.4835  59.6736  65.6177  65.6177  65.6177  70.5463  70.5463  70.5463
    72.4131  73.3787  73.3787  73.3787  73.6770  73.6770  75.6405  75.6405
    75.6405  76.7538  77.0397  77.0397  77.0397  79.0171  79.0171  79.6767
    79.6767  79.6767  80.2493  80.2493  80.2493  80.3221  80.3221  80.3221
    81.2131  81.2131  81.2131  81.4037  81.4037  81.4037  81.4069  81.4069
    82.3081  82.3081  82.3081  83.7664  83.7664  84.3741  84.3741  84.3741
    84.8976  87.7880  88.3470  88.3470  88.3470  94.7708  95.4649  95.4649
    95.4649  95.6311  99.1874  99.1874  99.6312  99.6312  99.6312 100.1838
   100.1838 100.1838 100.1910 100.1910 100.1910 100.3331 100.3331 100.3422
   100.3422 100.3422 100.5026 100.5026 102.1565 102.1565 102.1565 107.5576
   107.5576 107.5576 109.3845 109.3845 109.3845 110.7041 110.7160 111.8890
   111.8890 111.8890 112.1149 112.1149 112.1149 112.8770 112.8770 112.8770
   113.0764 113.0764 113.0764 116.5778 116.5778 116.5869 116.5869 116.5869
   116.5899 118.4376 119.3138 119.3138 119.3138 130.0304 130.0304 130.0304
   130.1496 130.1496 130.2007 130.2007 130.2007 133.4441 134.7111 134.7111
   134.7111 137.9705 137.9705 137.9705 138.9104 138.9104 139.6074 139.6074
   139.6074 140.9937 142.7385 142.7385 142.7385 143.3404 143.3404 143.3404
   143.9480 144.0441 144.0441 144.6578 144.6578 145.0765 145.0765 145.0765
   145.0873 145.0873 145.0873 145.9909 146.1225 146.1225 146.1225 147.1484
   147.1484 147.3553 147.3622 147.3622 147.3622 147.5581 147.9613 147.9613
   147.9613 148.1882 148.1882 148.1882 149.5225 149.5225 149.5225 149.7258
   149.7258 149.9386 149.9386 149.9386 150.2207 150.2207 150.2207 150.3497
   150.3497 150.3497 150.6413 151.5986 151.5986 151.5986 151.7345 151.7345
   151.8531 151.8531 151.8531 152.2434 152.2434 152.2434 152.4323 152.4323
   152.4584 152.4584 152.4584 160.0011 160.0011 160.0011 162.1584 163.8227
   163.8227 165.1372 165.1372 165.1372 165.5305 165.5305 165.5305 165.5340
   165.5340 165.5340 165.5985 165.5985 165.5985 169.4847 169.4847 169.5279
   169.5279 169.5279 169.6238 173.0980 174.1291 174.1291 174.1291 175.7607
   176.4040 176.4040 176.4040 180.3909 180.3909 180.3909 180.9228 180.9228
   181.0015 181.0015 181.0015 181.0482 181.0482 181.0482 181.0816 181.0816
   181.0816 181.3945 181.3945 182.8236 182.8236 182.8236 183.7099 184.2056
   184.5511 184.5511 184.5511 184.8787 184.8787 184.8975 184.8975 184.8975
   184.9142 184.9142 184.9142 184.9697 184.9697 184.9697 185.0319 185.0319
   185.0319 185.2084 185.2084 192.3701 192.3701 192.3701 197.9440 200.3242
   200.6318 200.8623 200.8623 200.8623 202.1217 202.1217 202.1217 203.3103
   203.3103 207.2237 207.7554 207.7554 207.7554 207.9826 207.9826 207.9826
   209.2768 209.2768 210.2577 210.2577 210.2577 211.4440 211.4440 211.4440
   213.8307 213.8307 213.8307 214.0822 214.0822 214.0822 214.6316 214.6524
   214.6524 214.6524 214.9349 214.9349 214.9349 215.3605 215.3605 215.3605
   215.7095 215.7095 216.0970 216.0970 216.0970 216.7597 217.1205 217.1205
   217.1205 217.1619 217.1619 217.1944 217.1944 217.1944 217.5099 217.5099
   217.5099 218.8028 218.8028 218.8028 218.9976 218.9976 218.9976 219.0481
   219.0481 219.0481 219.1208 219.3526 219.3897 219.3897 219.3897 219.4004
   219.4004 219.5323 219.5323 229.0540 229.0540 229.0540 231.3946 231.8331
   233.0077 233.0077 233.0077 233.8087 233.8087 233.8087 233.8967 233.8967
   234.0193 234.0193 234.0193 234.4640 234.4640 234.4640 234.8357 234.8357
   234.8357 235.4319 235.4319 236.8022 236.8022 236.8022 237.3602 237.3602
   237.3602 237.3900 237.3900 237.4102 237.4102 237.4102 237.4331 237.4331
   237.4331 237.4713 237.4713 237.4713 237.5076 237.5076 238.5433 238.5433
   238.5433 238.5545 238.5847 238.5847 238.5847 238.6805 240.6396 242.8802
   242.8802 242.8802 243.3817 243.4098 243.4098 243.4098 243.8854 243.8854
   243.8854 244.7737 244.7737 245.2562 245.2562 245.2562 245.7954 245.9018
   245.9018 245.9018 246.5308 246.5308 246.5308 246.5707 246.5707 246.7093
   247.1104 247.1104 247.1104 249.3594 249.3594 249.7638 249.7638 249.7638
   249.8764 249.8764 249.8764 249.9427 249.9427 249.9427 250.4212 250.4212
   250.4253 250.4253 250.4253 250.6928 250.9762 250.9762 250.9777 250.9777
   250.9777 252.1756 252.1756 252.1756 252.1842 252.1842 252.1842 252.3512
   252.3512 252.3512 252.3575 252.3575 252.3575 253.0804 253.0804 253.1083
   253.1083 253.1083 253.1395 261.0861 261.0861 261.0861 264.2873 268.3920
   268.3920 276.1961 276.1961 276.1961 281.3159 281.9016 282.2640 282.2640
   282.2640 282.2999 282.2999 282.2999 282.3433 282.3433 282.3433 282.3734
   282.3734 282.4112 282.4112 282.4112 282.4663 282.4663 282.4678 282.4678
   282.4678 282.5987 282.5987 282.5987 282.7311 283.5022 283.5022 283.5022
   283.7970 283.9228 284.7979 284.7979 284.7979 285.0334 285.0334 285.0334
   285.1866 285.1866 285.1866 285.4238 285.4238 285.4238 287.9009 287.9009
   287.9009 288.0925 288.0925 288.6281 288.6281 288.6281 288.6458 288.6458
   288.6458 288.6549 288.6549 288.7391 288.7391 288.7391 288.7542 288.7542
   288.7542 289.0116 289.0116 289.4670 289.4670 289.4670 289.5469 289.5986
   289.5986 299.7383 299.7383 299.7383 301.0638 301.0638 301.0638 301.1039
   302.8908 302.8908 303.5529 303.5529 303.5529 303.9429 303.9429 303.9429
   304.3571 304.5165 304.5165 304.5165 304.5316 304.5316 304.6287 304.6287
   304.6287 304.6334 304.6334 304.6334 304.6568 304.6568 304.6568 304.6821
   304.6821 304.6821 305.2295 305.7606 305.7606 308.7833 308.7833 308.7833
   309.5133 309.5133 309.5133 310.8988 312.2431 312.2431 313.5751 313.5751
   313.5751 315.1815 315.1815 315.1815 315.2553 315.2553 315.2553 315.2644
   315.2644 315.2644 315.2996 315.4824 315.9983 315.9983 315.9983 316.5705
   317.4987 317.4987 317.4987 317.6140 317.6140 318.0474 318.0474 318.0871
   318.0871 318.0871 318.2698 318.2698 318.2698 318.5282 319.0507 319.0507
   319.0507 321.0065 321.0065 321.0065 321.0121 321.0121 321.0692 321.0692
   321.0692 321.0856 321.0856 321.0856 321.1321 321.1321 321.1321 321.2123
   321.4320 321.4320 321.4320 321.7972 322.0333 322.0818 322.0818 322.0818
   322.2435 322.2435 322.2435 322.3244 322.3244 322.3756 322.3756 322.3756
   322.4152 322.4152 326.8906 326.8906 326.8906 333.1588 333.1588 333.1588
   335.9590 335.9590 336.7162 336.7162 336.7162 336.8121 336.8121 336.8121
   336.8160 336.8160 336.8160 337.1266 337.1266 337.1427 337.1427 337.1427
   337.1771 337.4574 338.7196 338.7196 338.7196 339.5647 340.7949 340.7949
   340.7949 346.7340 346.7340 346.8767 347.4858 347.4858 347.4858 347.9456
   348.8787 348.8787 348.8787 349.2218 349.2218 349.2218 349.2509 349.2509
   349.2509 349.2710 349.2710 349.3484 349.3484 349.3484 351.3466 351.3466
   351.3466 351.7035 351.7035 351.7035 351.7238 351.7238 351.7238 351.7964
   351.7964 351.7964 351.8924 351.8924 351.8924 352.1103 352.1103 352.4473
   352.4473 352.4627 352.4627 352.4627 352.5984 352.5984 352.5984 352.6660
   352.6660 352.6660 352.7013 352.7013 352.7013 353.2135 353.2135 353.3040
   353.8919 353.8919 353.8919 353.9131 353.9226 353.9226 353.9226 354.0088
   354.2378 354.2378 354.2378 354.2816 354.2816 354.3332 354.3332 354.3332
   354.4543 354.4543 354.4543 354.5239 354.5239 354.5239 355.2401 356.5049
   356.5261 356.5261 356.5261 356.5500 356.5500 356.5500 356.5743 356.5743
   357.5148 357.5148 357.5148 357.6344 357.6344 357.6792 357.6792 357.6792
   357.7391 357.7391 357.7422 357.7422 357.7422 357.7476 357.7476 357.7476
   357.9165 357.9165 357.9165 357.9325 357.9325 357.9325 357.9489 357.9879
   362.7945 362.7945 362.7945 365.3583 365.3583 368.3220 368.4701 368.4701
   368.4701 369.0782 373.7845 373.7845 373.7845 374.2302 374.2302 374.2302
   374.2434 374.2434 374.2434 374.2817 374.2817 374.3045 374.3045 374.3415
   374.3415 374.3415 374.9024 374.9024 374.9024 380.2218 380.2218 380.2218
   380.3601 380.7340 380.7340 380.7340 380.7407 380.7407 380.7407 381.8397
   381.8397 381.8397 383.5319 383.5319 383.6366 383.6366 383.6366 383.7804
   386.8717 386.8717 386.8717 387.3686 387.3887 387.3887 388.0923 388.0923
   388.0923 389.2409 389.2409 389.2409 389.2860 389.2860 389.2860 389.2925
   389.2925 389.2925 389.4641 389.4641 389.4641 390.1878 390.1878 390.2091
   390.2091 390.2091 390.2575 391.1263 391.1263 406.3791 406.3791 406.3791
   406.4198 406.5153 406.5153 406.5153 406.5320 406.5320 406.5320 406.5628
   406.5628 406.5628 406.5697 406.5697 406.5697 406.6030 406.6030 406.7400
   407.9619 407.9619 407.9619 408.1823 408.1823 413.0729 413.0729 413.0729
   413.2929 413.5185 413.5185 413.5185 414.5630 414.8128 414.8128 414.8128
   414.9021 414.9021 415.4438 415.4438 415.4438 416.0004 418.2741 418.2741
   418.5672 418.5672 418.5672 418.7244 418.7244 418.7244 418.7366 418.7366
   418.7366 418.9887 419.2056 419.2056 419.2056 419.2630 419.2630 419.4717
   419.4717 419.4717 419.6015 419.6015 419.6015 419.8409 419.8409 419.8867
   419.8867 419.8867 419.9058 419.9058 419.9058 420.0016 420.3470 420.3974
   420.3974 420.3974 421.7035 421.7035 421.7683 421.7683 421.7683 421.7914
   421.7914 421.7914 421.7932 421.7932 421.7932 421.8659 421.8659 421.8916
   421.8916 421.8916 422.1049 422.8693 422.9023 422.9023 422.9023 422.9466
   422.9466 422.9466 422.9759 422.9759 422.9774 422.9774 422.9774 424.3336
   424.3336 424.5003 424.5003 424.5003 424.5624 424.5624 424.5624 424.5964
   424.5964 424.5964 424.6450 428.7756 428.7756 428.7756 432.7607 432.7607
   433.0268 433.0268 433.0268 438.0541 438.2606 438.2606 438.2606 439.2834
   439.3931 439.3931 439.3931 439.3999 439.3999 439.3999 439.5093 439.5093
   439.5093 439.5702 439.5702 439.5744 439.5744 439.5744 439.6485 439.6485
   439.6485 439.6599 439.6599 439.6599 439.7501 439.7501 440.0796 440.0796
   440.0796 440.3425 440.3425 440.3425 440.4488 442.3816 442.3816 442.3816
   442.5508 442.5508 442.8937 442.8937 442.8937 442.9019 442.9019 442.9072
   442.9072 442.9072 442.9105 442.9105 442.9105 442.9186 443.0293 443.0406
   443.0406 443.0406 443.0640 443.0640 443.0640 443.1696 443.1696 443.1696
   443.8219 443.8219 443.8733 443.8733 443.8733 443.9527 445.4890 445.4890
   445.4890 445.7789 445.7789 449.1173 449.1173 449.1173 449.6928 449.6928
   449.7909 449.7909 449.7909 449.8380 449.8380 449.8380 449.9761 449.9761
   449.9761 450.1297 450.7106 453.0392 453.0392 453.0392 453.3117 453.4004
   453.4004 453.4004 453.7939 453.7939 453.7939 453.8097 453.8097 454.2458
   454.2458 454.2458 454.4455 454.4455 454.4455 454.6131 454.6131 454.6361
   454.6361 454.6361 454.7238 455.1471 455.1471 455.1471 456.2389 456.2389
   456.2389 457.4178 457.4448 457.4448 457.4525 457.4525 457.4525 457.5073
   457.5073 457.5073 457.5371 457.5371 457.5430 457.5430 457.5430 457.6023

          k = 0.5000-0.5000 0.5000 (  2392 PWs)   bands (ev):

   -47.8851 -19.8447 -19.8288 -19.8288 -10.8125  -0.3922   1.4606   1.4606
     7.9410  11.3057  11.3057  11.8741  14.6997  16.8030  16.8030  17.3246
    17.3246  17.8518  23.5935  23.5935  24.8918  25.6723  25.6723  25.9319
    26.2125  30.6702  30.7298  30.9613  30.9613  31.5844  31.5844  33.1580
    33.9332  34.7421  34.7421  36.7073  36.9858  36.9858  39.6273  42.8506
    43.3985  43.3985  43.5026  43.5026  44.5055  47.1880  47.1880  47.3796
    48.3602  48.3602  50.0110  50.0110  51.3499  53.3061  53.3061  53.5682
    55.7554  57.2575  57.2575  57.7265  57.7265  58.5534  59.3226  59.3226
    59.8243  59.8243  60.4226  60.4226  60.9352  60.9651  61.4988  63.3992
    63.3992  64.7794  66.6069  67.7234  69.8685  69.8685  69.9148  69.9148
    71.1874  72.3597  72.3597  73.5281  73.7814  73.7814  75.9634  76.6584
    76.6584  77.8818  77.8995  78.0563  78.0563  78.7481  79.1444  80.2766
    80.2766  82.3530  82.3530  83.7456  84.6001  84.6001  86.2266  86.7590
    86.7590  86.9658  86.9658  87.1661  87.7278  88.3078  88.3078  90.2244
    91.0697  92.0761  92.0761  93.3963  93.3963  93.4862  93.9743  93.9743
    94.3182  94.9137  96.4247  96.4247  99.4365  99.4365  99.5848  99.6415
    99.6415 101.1944 101.2185 102.1920 102.1920 102.6209 102.6209 103.2395
   103.2395 103.4024 103.5030 105.3319 105.3319 105.9779 106.6001 107.2080
   107.2080 109.1668 110.1448 110.1448 110.6792 110.6792 110.7649 110.7649
   111.3987 112.1171 112.1476 112.3296 112.3296 113.1049 113.1049 116.9244
   118.1245 118.6988 118.6988 118.7738 118.7738 120.7460 120.7475 120.7485
   120.7485 120.7594 120.7594 122.9226 122.9226 122.9353 124.9781 125.2567
   125.2567 126.2810 126.8957 127.5111 127.5111 130.9098 130.9098 131.1489
   131.5469 131.7513 131.7513 132.7510 133.3049 133.9638 133.9638 134.6305
   134.6562 134.6562 135.0987 135.0987 135.4491 136.2557 136.2557 136.5764
   136.5764 136.6012 136.6913 136.8498 136.8498 137.4053 137.4677 137.4677
   137.8773 137.8773 141.9467 141.9467 142.3781 142.8759 144.0045 144.5880
   144.5880 145.6129 145.6129 145.7729 145.9630 145.9630 146.0003 146.0003
   146.0213 146.6712 146.6712 147.0085 147.0085 147.1673 148.2500 149.0891
   149.1881 151.0788 151.0788 152.6827 152.9981 153.3916 153.5258 153.5258
   153.7432 153.7432 153.9977 156.1379 156.1379 159.0086 159.6843 160.0752
   160.0752 161.0894 161.0894 161.7696 161.9482 161.9630 161.9630 161.9987
   161.9987 162.6120 162.6350 162.7243 162.7243 163.7639 163.7639 163.9838
   163.9838 164.0789 164.1306 166.7654 166.7654 167.3901 167.7656 167.7656
   168.2521 168.2521 169.6475 171.7077 172.0070 172.4043 172.4043 175.4046
   175.4046 175.9257 175.9257 177.9137 178.4778 178.4778 178.7025 178.8267
   178.9096 178.9096 178.9674 178.9674 179.0911 179.3780 179.3780 179.3820
   179.4003 179.4758 179.5206 179.5206 180.0873 180.0873 182.9658 182.9658
   184.6090 184.9591 185.2573 185.8825 186.1090 186.1090 186.5908 186.6418
   186.6418 186.7100 186.7100 187.1744 187.1744 187.3555 187.3555 187.5996
   187.6575 187.8045 188.2287 188.2287 188.2341 188.2341 189.4515 189.6413
   189.6413 189.6553 189.6553 190.6654 190.6680 192.6375 195.5551 195.5551
   197.2480 197.2480 197.3206 197.3206 197.3300 197.3874 197.5539 197.5539
   198.7659 198.7720 198.7720 200.9710 201.4364 201.4364 202.0502 202.9273
   202.9273 203.0459 203.0459 203.3149 204.4615 204.4904 204.5243 204.5243
   204.9539 204.9539 205.7644 205.7662 205.7662 205.8324 205.8921 205.8921
   206.8539 206.8539 208.2829 208.4008 209.3415 209.3415 210.2574 210.2574
   211.6094 211.7125 211.7125 211.9610 212.2983 213.7428 213.7428 213.9733
   214.1412 214.1412 214.1414 214.1481 214.1481 214.2672 214.2869 214.2869
   218.7920 219.2073 219.2073 220.9565 220.9565 221.0485 221.2304 221.4625
   221.4625 221.5096 221.5571 221.8399 221.8399 223.0364 223.0364 223.0652
   223.1561 223.7021 223.7021 225.0232 225.0232 225.9216 227.5415 227.6523
   227.6523 227.7266 227.9902 229.2034 229.2034 229.5077 229.5077 229.6582
   229.6582 229.6666 230.0504 230.0504 230.1357 230.1937 230.9525 231.3066
   231.3066 232.1077 232.1077 232.4161 232.5757 232.5757 234.7834 234.7834
   236.3720 236.7176 236.7176 237.0104 237.0104 237.3598 238.2675 238.4967
   238.4967 238.8298 238.8298 239.0659 239.5624 239.6400 239.6400 239.9753
   240.3083 240.3083 241.7683 241.8063 241.8063 241.8882 241.8882 241.9174
   243.0469 245.7820 245.7820 245.7937 245.8848 245.8848 247.4798 247.4798
   247.6818 247.7245 247.7245 247.7264 250.0910 252.0236 252.0236 252.3849
   252.3849 252.4959 253.3852 254.7854 255.4007 255.4007 255.6437 255.6437
   255.6980 255.7060 255.7060 255.7263 255.8015 255.9790 256.4449 256.4449
   257.2483 257.2483 257.2568 257.2950 257.3008 257.3008 257.9945 257.9945
   259.5225 259.5225 259.8068 260.5208 260.9754 260.9754 261.0695 261.2082
   261.8260 261.8922 261.8922 262.3301 262.7189 262.7189 264.0289 264.2891
   264.2891 264.3978 264.4036 264.4036 264.7411 264.7411 264.8340 264.8467
   265.0105 265.0105 265.0922 265.1369 265.1369 265.6528 265.6528 265.8464
   265.8464 266.1275 266.1275 266.1699 266.2520 266.4803 266.4835 266.4835
   272.4391 272.6200 272.6661 272.6661 272.7599 272.7599 273.3594 273.8822
   273.8822 273.9905 273.9905 274.0038 274.0474 274.0521 274.1408 274.1408
   275.1626 275.1626 275.1797 275.1797 275.2486 275.2543 275.4518 275.4518
   280.0418 281.3209 281.3209 281.3497 281.4266 281.4266 281.6871 281.6928
   281.6928 281.8961 281.8961 281.9146 283.9068 286.5431 286.6237 286.6237
   287.9459 287.9459 288.4378 288.4378 288.6615 288.6615 288.7361 288.7481
   288.8194 288.8870 288.8870 289.1210 289.1210 289.4463 290.2065 290.2065
   290.3900 290.8776 290.8776 291.6047 291.8805 291.8805 291.9098 291.9098
   293.1222 293.1235 297.1534 297.4693 297.4693 297.6432 297.8872 297.8872
   297.9411 298.1735 298.2292 298.2292 298.6707 298.6707 299.2722 300.6228
   300.6228 301.1810 301.1810 301.2171 301.2171 301.3573 301.3624 301.6964
   302.2905 302.7565 302.7565 303.0750 303.5462 303.5462 303.8277 305.1556
   305.1556 305.8033 305.8577 305.8577 306.7136 308.6168 308.6168 309.0335
   309.0335 309.1887 309.2573 309.2573 312.9265 312.9265 313.1558 313.9113
   313.9113 314.1213 314.2665 314.4396 314.4396 314.6075 314.8228 314.8464
   314.8464 314.8535 314.8535 315.1192 315.7308 315.7308 315.7331 315.7493
   315.7789 315.9614 315.9614 316.0808 316.0808 316.1034 316.1541 316.1541
   316.3956 316.4885 316.5022 316.5022 316.5269 316.5269 317.2043 317.5175
   317.5175 317.8919 317.9151 317.9151 317.9564 317.9564 318.1123 318.3617
   318.6554 318.6554 320.5251 320.5251 321.8514 321.8514 321.8878 322.1832
   322.2966 322.2966 323.7094 324.0245 324.0245 324.3840 325.4410 325.4410
   325.8903 325.9293 325.9293 326.3681 327.1529 327.1529 328.9542 329.8759
   329.8759 330.8055 331.7656 331.7656 332.2530 332.2530 332.2845 332.4842
   332.7426 332.7655 332.7655 332.9086 332.9086 333.0195 333.0195 333.0430
   333.0603 333.4450 333.4450 333.8494 334.1143 334.3276 334.3276 334.4200
   334.4200 334.5871 334.7812 334.7812 334.8300 334.9133 335.3339 335.3339
   336.5377 336.5377 339.7291 340.8430 340.9023 340.9023 341.2694 341.2694
   341.2728 341.2728 341.5071 341.5071 341.6283 341.9720 342.3717 342.5218
   342.5218 342.5408 342.5925 342.7369 342.9182 342.9182 343.6050 343.6050
   344.7665 344.7665 346.6181 346.8817 348.5408 349.0944 349.0944 349.8150
   349.8150 350.3135 351.5641 351.5641 351.6751 351.6751 351.8698 351.8698
   351.8737 351.9477 352.0362 352.0362 354.9344 355.2491 355.2491 355.6223
   355.6223 355.8593 356.7573 356.7573 356.8593 356.8858 356.8858 357.0131
   357.2345 357.2916 357.3025 357.3025 358.0346 358.2466 358.2466 358.2824
   358.2824 358.3277 358.9271 358.9271 358.9926 358.9926 359.3203 359.6124
   360.1130 360.1130 360.3749 360.3940 360.3940 360.4068 362.3259 362.3259
   363.0982 363.0982 365.3118 366.3143 366.3143 366.3354 366.8414 366.8414
   367.0066 367.0066 367.0389 367.4466 367.5172 367.5270 367.5629 367.5629
   367.9940 367.9940 368.0759 368.4693 368.4693 369.0978 369.7777 369.7777
   369.8158 369.8158 369.8366 369.8730 370.1278 370.1278 374.7069 375.0822
   375.1501 375.1501 375.2328 375.2328 375.5511 375.5511 375.5543 375.5906
   375.9589 375.9589 376.2586 376.2586 376.4158 376.5448 377.9659 377.9659
   378.0219 378.0219 378.0760 378.0767 378.4395 378.4395 379.0703 379.0703
   379.2312 380.5700 381.9360 381.9360 382.5503 383.5326 383.8546 384.1526
   384.1526 384.2417 384.2677 384.3700 384.3700 384.4034 384.4034 384.5621
   385.6122 385.6122 386.2280 386.2280 386.5851 387.9842 388.2035 388.2035
   389.9040 390.0892 390.0892 390.4030 390.4030 390.5242 390.9062 390.9062
   390.9930 391.0936 391.0936 391.2284 391.2507 391.2736 391.2736 391.2901
   391.2901 391.6343 391.6878 391.6878 391.6914 391.7674 393.1997 393.1997
   393.2865 393.2974 393.3029 393.3029 394.1934 394.1934 394.3781 394.3781
   394.6401 394.6782 394.6884 394.6884 394.6915 394.6915 394.7848 394.7937
   394.8192 394.8192 396.5920 396.8734 397.0802 397.0802 401.3529 401.3529
   402.3147 402.6158 402.6158 402.7016 402.7865 402.7865 402.7996 402.7996
   402.8258 402.8336 402.9530 402.9530 403.0218 403.0218 403.4251 403.5355
   405.2026 405.2026 406.9089 407.4278 407.4278 407.6060 408.9710 409.1350
   409.1350 409.6970 409.6970 409.7419 409.7419 409.8049 409.9952 410.0918
   410.0999 410.0999 410.3099 410.4475 410.4703 410.4703 410.7893 410.7893
   410.8702 410.9571 410.9571 411.2426 411.3636 411.3636 413.2174 413.2174
   413.6630 413.7770 415.5616 415.8246 415.8246 416.1752 416.8329 416.8329
   417.3439 417.4157 417.4157 417.5736 417.5736 417.6015 417.6015 418.4447
   418.4825 418.4825 418.6257 418.6257 419.1466 419.1863 419.1863 419.4303
   419.6332 419.6332 419.6458 419.6526 419.6526 419.7264 419.7264 419.7582
   419.8798 419.8824 421.4754 421.4754 421.5128 421.5128 421.6036 421.6036
   422.5067 422.5071 422.6350 424.1668 424.1668 426.0764 426.0764 426.8878
   427.0432 427.0637 427.0637 427.2383 427.7211 427.7211 428.6728 429.5675
   429.5675 430.8200 430.8200 430.8575 432.3313 432.3313 432.8929 432.8929
   432.9125 433.6090 433.7282 433.7385 433.7385 434.1650 434.1650 434.2806
   434.2806 434.3153 434.3522 434.6535 434.7236 434.7612 434.7612 434.7975
   434.7975 434.9187 435.4257 435.5683 435.5683 435.5840 435.5840 435.9633
   437.4796 437.9197 439.1781 439.1781 439.4045 439.4045 441.3672 441.5317
   441.5317 442.4380 443.3849 443.3900 443.3900 443.5955 443.5955 443.6966
   443.7881 443.8810 443.9250 443.9250 443.9341 443.9341 444.0235 444.1526
   444.1819 444.1819 444.2003 444.2133 444.2133 444.2481 444.2481 444.2607
   445.6226 445.6226 445.6777 445.7189 445.7189 445.9572 445.9572 446.0083
   446.0249 446.0249 446.1071 446.1071 446.2224 446.2224 446.2281 446.3293
   446.9109 446.9109 446.9453 446.9453 447.0064 447.0117 447.5147 448.1036
   448.1036 448.6806 448.6806 450.5227 451.6509 451.6509 452.6349 453.0352
   453.0352 454.4093 454.4358 454.4604 454.4604 454.5277 454.5277 458.4153
   458.4153 459.0673 460.8506 460.9659 460.9659 461.2534 461.2534 461.5103
   461.5103 461.5170 461.5170 461.5612 461.5798 461.7426 461.7426 461.7594
   461.8289 461.8730 461.9527 461.9527 462.2209 462.2641 462.2641 462.3545
   464.0328 465.7637 465.7637 466.0710 466.0710 466.5557 466.9056 466.9056

          k = 0.0000-1.0000 0.0000 (  2450 PWs)   bands (ev):

   -47.8857 -19.8394 -19.8325 -19.8325 -10.7574  -0.1164   1.0529   1.0529
     7.9372   8.7358  12.6155  15.2460  15.2460  15.9510  17.3649  17.8215
    17.8215  21.3960  22.8949  22.8949  23.8144  24.7407  24.7407  25.2818
    25.4126  26.2031  26.2450  29.6765  31.4981  31.4981  32.9603  33.7488
    36.3723  36.8294  36.8294  36.9994  37.3328  38.2688  39.4634  39.9765
    39.9765  42.5612  43.1054  43.1054  47.5298  48.0529  48.0529  49.7153
    50.0845  50.0845  51.3019  51.6114  51.7049  51.7049  53.5371  55.4807
    55.4922  56.3906  57.0034  57.2457  57.2693  57.2693  58.9988  58.9988
    59.2059  59.2059  60.0188  60.0552  60.5146  61.0947  67.1234  67.4990
    67.4990  67.8105  68.0014  68.0014  68.3557  68.9590  69.4105  70.7397
    71.1064  71.2329  71.2329  71.3213  71.3213  71.7571  72.4500  72.4500
    73.6770  73.6770  75.5792  75.5792  76.7353  77.0007  77.7587  77.9712
    79.1178  82.4118  83.6801  83.6801  84.3319  84.7095  86.7662  86.7956
    86.7956  87.3756  87.5063  87.5063  89.3077  89.4767  89.4767  89.6561
    89.7228  90.2085  90.2085  90.5520  91.0963  92.6952  93.2080  93.2080
    96.8141  97.7284  99.4453  99.4453  99.8711  99.8745 100.2384 101.1948
   101.7784 101.7784 102.6038 102.9817 102.9817 103.5849 103.5849 104.8370
   105.4188 105.8062 108.4126 108.5447 108.9418 108.9418 109.3987 109.5357
   110.3013 110.3013 110.5303 110.5303 111.3100 111.3764 111.9842 112.0454
   112.4016 112.4016 116.4373 116.4373 117.0747 117.4103 117.6216 119.0287
   119.1305 119.1305 119.3487 119.3487 119.9206 120.3041 120.3160 120.3160
   120.9709 120.9709 120.9717 121.4776 121.5006 121.5034 121.5236 121.6845
   121.9873 121.9873 122.3322 122.3322 123.0139 123.0274 126.2820 126.2820
   126.5688 127.3291 127.5096 127.5367 127.5367 127.7570 128.2715 129.6417
   129.6417 130.6900 131.7562 134.2790 134.2790 135.5269 137.1308 137.1366
   137.4037 137.4037 137.5645 137.6367 137.8453 137.8453 139.7639 139.9238
   140.0350 140.0863 140.0863 140.7034 140.7034 140.9293 141.0841 141.0841
   141.2222 141.4236 141.9908 141.9944 141.9944 142.2124 143.1055 144.5999
   145.3784 146.3510 146.3510 146.8253 154.8812 155.3202 155.3448 155.3448
   156.4592 156.4592 156.4894 156.8212 156.9201 156.9201 157.0153 157.5522
   158.6219 158.6219 158.9041 158.9041 159.7769 159.7840 159.7840 159.8422
   159.8422 159.8929 160.0180 160.0781 161.8360 162.7416 163.2153 163.2153
   163.6361 163.6428 166.4947 167.2598 167.2598 167.2755 167.6081 168.0767
   168.2863 168.4514 168.4514 168.4691 168.9689 168.9689 169.7119 169.7119
   170.1452 170.8043 171.1123 171.2609 171.2609 171.3451 172.0503 172.2840
   172.3788 172.4064 172.4064 172.9909 173.5305 173.5305 174.4043 174.4580
   174.4580 174.6033 174.6331 174.8456 174.8456 174.9362 178.3849 178.4862
   178.5326 178.5326 178.5395 178.5395 178.6104 178.6304 180.3299 182.0905
   182.0905 184.9541 186.3140 186.3140 186.5297 186.5615 186.6969 186.7674
   187.0445 187.3203 187.3203 187.5607 187.5607 188.1932 188.6383 188.8150
   188.8150 189.0820 189.0820 189.1961 189.9544 189.9718 190.0506 190.0881
   190.4639 190.4639 190.4744 190.4744 191.6956 191.7682 194.3477 194.3477
   194.5024 194.5606 196.4810 196.4810 196.5174 196.5174 197.4131 197.4233
   197.5423 197.7623 202.2538 202.5682 204.3184 204.3964 204.3964 205.0696
   205.2073 205.2956 205.3466 205.3466 205.4151 205.4191 205.4295 205.4295
   205.8291 206.2230 206.2230 206.3746 206.5377 206.5377 206.6330 207.1244
   207.3048 207.5707 208.0487 208.0487 208.0537 208.0537 208.7271 208.8511
   211.3795 211.4039 211.4039 211.4422 211.5813 211.5813 211.6342 211.6857
   212.2851 212.2851 212.2908 212.4728 214.5497 214.5497 215.9281 216.3626
   217.6992 219.8869 220.5907 220.5907 221.1156 221.1156 221.2406 221.2630
   221.2630 221.3427 222.1948 222.7191 222.7728 222.7728 223.1010 223.1010
   223.8355 223.8799 224.1595 224.1595 224.2674 225.0799 225.1898 225.5705
   225.8624 226.5447 226.5447 226.8096 226.8096 226.8144 226.8209 226.8576
   226.8691 226.9487 226.9487 227.1814 227.5688 227.5688 227.9291 227.9346
   227.9822 228.0552 228.0552 228.2060 229.9852 230.0411 230.0411 230.2784
   230.3768 230.3788 230.3847 230.3847 234.2427 235.9808 235.9808 238.2830
   238.4129 238.8898 239.4649 239.4649 240.8014 240.8014 240.8075 240.8145
   240.8437 240.8798 240.8798 241.2244 241.7062 241.7062 242.8612 242.8612
   242.9319 243.3565 243.7406 244.0202 248.6555 249.5621 249.5621 251.9996
   252.8392 253.0560 253.1520 253.1520 254.7993 254.7993 254.9197 254.9747
   255.5282 255.8159 255.8159 255.8710 255.9464 255.9464 256.7480 256.7616
   257.1087 257.9080 257.9080 257.9280 258.0094 258.0511 258.1544 258.1544
   258.2013 259.0442 259.4176 259.4176 260.1465 260.1465 261.0881 261.1054
   261.6575 261.6575 261.6845 261.7529 261.7705 261.7705 261.7738 261.9207
   261.9527 262.0415 262.0415 262.9485 263.5141 264.0700 264.1022 264.1022
   264.2299 264.2299 264.2483 264.2512 264.4471 264.4471 264.5776 264.7260
   269.4003 269.6815 270.2104 270.8037 270.8037 272.1181 272.1591 272.1591
   272.1771 273.6215 273.8711 273.8711 273.9194 274.0148 274.0148 274.0517
   274.0823 274.1037 274.1259 274.1259 274.1274 274.3076 275.0831 275.1169
   275.1169 275.3166 275.3166 275.5062 275.5431 275.7098 276.0580 276.0580
   276.6366 276.6509 276.6854 276.7350 276.7350 277.1993 277.1993 277.3879
   277.7100 277.8014 278.6267 278.6267 278.7463 278.8850 278.8850 278.9140
   281.0589 281.0589 281.8529 281.8749 281.8749 281.8754 281.8848 281.8848
   281.8976 281.8988 283.6443 283.6462 286.4184 286.4184 286.9458 287.4466
   287.4466 287.9323 288.8818 289.2106 289.3255 289.6602 289.6602 289.8973
   291.1456 291.1456 291.3222 292.0083 292.2342 292.9360 292.9360 292.9675
   292.9868 293.0478 293.0478 293.0642 293.2203 293.2203 293.4715 293.7410
   293.9976 293.9976 294.1523 294.2130 294.3038 294.5824 294.5824 294.5958
   294.6041 294.6262 296.7224 296.7224 297.2364 297.2364 297.2709 297.3176
   297.3255 297.5650 297.8684 297.8684 302.0875 302.0875 303.3073 304.3811
   304.3811 304.5499 305.6906 307.0027 307.0802 307.2601 307.3134 307.3134
   307.9634 307.9634 308.2703 308.3173 308.3173 309.0233 309.0233 309.1449
   310.8525 310.8610 310.8687 311.2667 311.2987 311.4418 311.4418 311.9733
   311.9733 312.0022 312.1395 312.2784 312.4101 312.4141 312.4141 312.4879
   312.4975 312.8758 312.8758 313.5892 313.5922 313.5922 313.6237 314.3241
   314.4999 314.5651 314.9590 314.9590 315.2200 315.6327 316.3991 316.3991
   316.4275 316.4275 317.3429 317.3449 321.0936 321.0936 321.7358 322.0310
   323.0950 324.7496 324.7496 324.8118 324.8118 324.9635 324.9782 325.2263
   325.3829 325.7687 325.7687 325.9592 325.9592 325.9758 326.1739 326.1929
   326.5768 326.5768 326.5941 326.7718 327.5968 327.5987 327.5987 327.5997
   327.5997 327.6094 327.6127 327.6851 328.2031 328.2785 329.3731 329.3731
   329.5286 330.1730 330.1730 331.5288 331.5454 331.5647 331.5647 331.6237
   331.6332 331.6332 332.1760 333.3654 335.2736 335.2736 335.3319 337.2378
   338.0379 338.4580 338.6256 338.6256 338.7926 340.4332 340.4332 341.5527
   341.6566 342.1780 342.2829 342.3733 342.3733 342.3873 342.4167 342.6299
   342.6299 343.0108 343.3336 343.3336 343.3369 343.8946 343.8946 345.6463
   346.1020 346.1118 346.1118 346.1265 346.3054 346.3462 346.3617 346.3617
   346.3642 346.7284 346.7879 346.7879 346.9620 347.0537 347.5453 347.5453
   347.9016 349.3800 349.3974 349.3974 350.3702 351.8465 354.3183 355.7275
   356.2335 356.2335 356.3621 357.3953 357.6160 357.6160 357.9478 357.9478
   357.9702 358.5226 358.5226 358.6620 359.5163 359.5163 359.7403 360.2028
   360.6542 360.6542 360.6685 360.6865 360.9021 361.0533 361.6528 361.6528
   362.0078 362.0078 362.4468 362.4486 362.8375 363.4795 363.4795 363.6481
   364.1658 364.7988 366.4145 366.7519 366.7519 366.7923 366.8676 366.8676
   366.9235 366.9402 367.0324 367.2264 367.2373 367.2426 367.2426 367.5050
   367.5316 367.5316 367.5609 367.8926 367.8926 368.0598 373.1384 373.7012
   373.7012 374.0773 375.0160 375.0160 375.1377 375.8387 376.0090 376.0406
   376.0406 376.2053 376.2053 376.2615 376.2641 376.4754 376.5838 376.6465
   376.6502 376.6663 376.7191 376.7191 376.7710 376.7710 376.8606 376.8832
   376.8875 376.8875 376.8894 376.8894 376.8930 377.0341 377.0395 377.1541
   377.1541 377.4472 377.5281 377.5281 377.5360 377.5573 377.5573 377.6526
   377.7196 378.2197 378.2840 378.3552 378.4374 378.4374 378.4910 378.4910
   378.5206 378.6685 379.0044 379.0044 379.1631 379.3829 379.6886 379.6886
   379.7641 379.8592 380.2338 380.2859 380.2859 380.2948 382.7024 382.7024
   382.7675 382.7675 382.7911 382.8293 382.8469 382.9058 382.9842 382.9842
   383.1447 384.4753 384.5186 384.5669 384.5669 384.6551 384.6551 384.7664
   384.7858 388.2356 389.1475 389.2505 389.2505 390.4312 394.1474 394.1701
   394.1701 394.1721 394.1733 394.1876 394.1876 394.5417 394.6342 394.9967
   394.9967 395.0224 395.3570 396.1043 396.1920 396.1920 397.8441 397.9509
   398.0800 398.0800 398.1490 398.1872 398.1872 398.2740 398.2828 398.4847
   398.4847 398.7794 398.8010 398.8010 398.8078 398.8320 398.9208 398.9217
   398.9508 398.9508 398.9582 398.9692 399.1014 399.1014 399.1568 399.3338
   399.3338 400.2664 400.9122 403.5554 403.5554 404.4036 408.6486 409.4911
   409.4911 409.8590 409.9237 409.9307 409.9307 409.9394 409.9394 410.1215
   410.1729 410.1919 410.5320 410.7143 410.8645 410.8645 411.5242 411.5254
   411.5254 411.7520 411.7775 412.5023 412.5023 412.7981 413.2041 413.2041
   413.4515 413.5189 413.6214 414.3408 414.3408 415.9905 416.5761 417.0968
   417.0968 417.1423 417.1528 417.1707 417.1707 417.2399 417.2642 417.7353
   418.9147 418.9147 418.9218 418.9218 418.9219 418.9491 418.9497 418.9515
   419.1748 420.4675 420.4675 420.8694 421.1900 421.6576 421.6576 423.7994
   423.7994 424.4389 424.9963 425.8827 426.1744 426.4961 426.4961 426.5609
   427.6643 427.6643 427.8116 427.9052 428.0123 428.1180 428.1180 428.1428
   428.3763 428.3763 428.8499 428.8499 429.2485 429.3263 429.4777 429.5656
   429.5656 429.5851 429.6054 429.6308 429.6852 429.6852 430.1919 430.6941
   430.6941 430.7040 430.7481 430.7712 430.7727 430.7727 430.7844 430.7844
   430.8259 430.8263 430.8287 432.4966 432.4966 432.5069 432.5155 432.5182
   432.7781 432.7781 433.1315 433.1315 433.2846 433.5034 433.5034 433.5572
   434.4644 434.4644 434.9461 435.9971 437.8518 437.9913 438.0355 439.0878
   439.0878 440.6891 441.1026 441.1539 441.1539 442.4782 442.9370 442.9370
   444.0194 444.5249 444.9364 445.0052 445.0200 445.0200 445.0650 445.0727
   445.0727 445.1094 445.6065 445.6065 446.1803 446.3123 446.4038 446.9037
   447.6457 447.6895 447.6895 448.1526 448.1526 448.4514 448.5155 448.5469
   448.5469 448.9307 448.9321 448.9351 448.9351 449.5848 449.7117 449.7393
   449.7393 449.7656 449.8725 449.8725 449.9543 450.0714 450.1754 450.1754
   450.1857 450.3040 450.3439 453.3664 453.3664 454.5240 454.5240 454.7976
   456.4955 457.9693 460.5255 460.6075 460.8018 460.9735 460.9735 461.1418
   461.1788 461.1788 461.2525 461.3578 461.3784 461.3784 461.4273 461.4273
   462.3868 462.4756 462.5195 462.5195 462.7527 462.7527 463.6434 463.7427
   463.9298 463.9298 463.9323 463.9444 464.0489 464.0489 464.0633 464.4103
   464.9962 465.0321 466.4637 466.8045 466.8045 466.9374 467.2088 467.3604

     the Fermi energy is     4.3941 ev
     (compare with:     3.0035 eV, computed in scf)

     Writing all to output data dir out/mp-22916.save/
 
     init_run     :      0.04s CPU      0.06s WALL (       1 calls)
     electrons    :    108.58s CPU    112.13s WALL (       1 calls)

     Called by init_run:
     wfcinit      :      0.00s CPU      0.00s WALL (       1 calls)
     potinit      :      0.01s CPU      0.01s WALL (       1 calls)
     hinit0       :      0.02s CPU      0.02s WALL (       1 calls)

     Called by electrons:
     c_bands      :    108.58s CPU    112.13s WALL (       1 calls)
     v_of_rho     :      0.01s CPU      0.01s WALL (       1 calls)

     Called by c_bands:
     init_us_2    :      0.00s CPU      0.00s WALL (       3 calls)
     init_us_2:cp :      0.00s CPU      0.00s WALL (       3 calls)
     paro_k       :    104.25s CPU    107.65s WALL (       3 calls)

     Called by paro_*:
     h_psi        :      3.57s CPU      3.71s WALL (     554 calls)
     g_psi        :      0.05s CPU      0.05s WALL (   44484 calls)

     Called by h_psi:
     h_psi:calbec :      0.07s CPU      0.08s WALL (     554 calls)
     vloc_psi     :      3.43s CPU      3.56s WALL (     554 calls)
     add_vuspsi   :      0.04s CPU      0.05s WALL (     554 calls)

     General routines
     calbec       :      0.07s CPU      0.08s WALL (     554 calls)
     fft          :      0.01s CPU      0.01s WALL (      10 calls)
     fftw         :      3.12s CPU      3.24s WALL (   78362 calls)
 
     Parallel routines
 
     PWSCF        :   1m49.16s CPU   1m52.86s WALL

 
   This run was terminated on:  13: 7:35   5Apr2024            

=------------------------------------------------------------------------------=
   JOB DONE.
=------------------------------------------------------------------------------=
