
     Program PWSCF v.7.1 starts on 18Nov2023 at 11:59:35 

     This program is part of the open-source Quantum ESPRESSO suite
     for quantum simulation of materials; please cite
         "P. Giannozzi et al., J. Phys.:Condens. Matter 21 395502 (2009);
         "P. Giannozzi et al., J. Phys.:Condens. Matter 29 465901 (2017);
         "P. Giannozzi et al., J. Chem. Phys. 152 154105 (2020);
          URL http://www.quantum-espresso.org", 
     in publications or presentations arising from this work. More details at
     http://www.quantum-espresso.org/quote

     Parallel version (MPI), running on    24 processors

     MPI processes distributed on     1 nodes
     123374 MiB available memory on the printing compute node when the environment starts
 
     Reading input from pw_mp-984_scf_k3000_E62.in
Warning: card &CELL ignored
Warning: card / ignored

     Current dimensions of program PWSCF are:
     Max number of different atomic species (ntypx) = 10
     Max number of k-points (npk) =  40000
     Max angular momentum in pseudopotentials (lmaxx) =  4
 
     R & G space division:  proc/nbgrp/npool/nimage =      24
     Subspace diagonalization in iterative solution of the eigenvalue problem:
     a serial algorithm will be used

 
     Parallelization info
     --------------------
     sticks:   dense  smooth     PW     G-vecs:    dense   smooth      PW
     Min          15      15      5                  769      769     133
     Max          16      16      6                  786      786     142
     Sum         379     379    121                18715    18715    3245
 
     Using Slab Decomposition
 


     bravais-lattice index     =            4
     lattice parameter (alat)  =       4.7478  a.u.
     unit-cell volume          =     284.3248 (a.u.)^3
     number of atoms/cell      =            4
     number of atomic types    =            2
     number of electrons       =        16.00
     number of Kohn-Sham states=           16
     kinetic-energy cutoff     =      62.0000  Ry
     charge density cutoff     =     248.0000  Ry
     scf convergence threshold =      1.0E-10
     mixing beta               =       0.7000
     number of iterations used =            8  plain     mixing
     Exchange-correlation= PBE
                           (   1   4   3   4   0   0   0)

     celldm(1)=   4.747801  celldm(2)=   0.000000  celldm(3)=   3.067656
     celldm(4)=   0.000000  celldm(5)=   0.000000  celldm(6)=   0.000000

     crystal axes: (cart. coord. in units of alat)
               a(1) = (   1.000000   0.000000   0.000000 )  
               a(2) = (  -0.500000   0.866025   0.000000 )  
               a(3) = (   0.000000   0.000000   3.067656 )  

     reciprocal axes: (cart. coord. in units 2 pi/alat)
               b(1) = (  1.000000  0.577350  0.000000 )  
               b(2) = (  0.000000  1.154701  0.000000 )  
               b(3) = (  0.000000  0.000000  0.325982 )  


     PseudoPot. # 1 for B  read from file:
     /usr/scratch4/magr4985/MG/HTDF/pseudo/SG15/B.upf
     MD5 check sum: eb3cbeacc2d324d57d903df00f564d27
     Pseudo is Norm-conserving, Zval =  3.0
     Generated using ONCVPSP code by D. R. Hamann
     Using radial grid of  602 points,  4 beta functions with: 
                l(1) =   0
                l(2) =   0
                l(3) =   1
                l(4) =   1

     PseudoPot. # 2 for N  read from file:
     /usr/scratch4/magr4985/MG/HTDF/pseudo/SG15/N.upf
     MD5 check sum: c233fa8df51455e992258b7c3dee8a9f
     Pseudo is Norm-conserving, Zval =  5.0
     Generated using ONCVPSP code by D. R. Hamann
     Using radial grid of  602 points,  4 beta functions with: 
                l(1) =   0
                l(2) =   0
                l(3) =   1
                l(4) =   1

     atomic species   valence    mass     pseudopotential
        B              3.00    10.81100     B ( 1.00)
        N              5.00    14.00670     N ( 1.00)

     24 Sym. Ops., with inversion, found (12 have fractional translation)



   Cartesian axes

     site n.     atom                  positions (alat units)
         1           B   tau(   1) = (   0.5000000   0.2886752   0.7669140  )
         2           B   tau(   2) = (   0.0000000   0.5773502   2.3007420  )
         3           N   tau(   3) = (   0.5000000   0.2886752   2.3007420  )
         4           N   tau(   4) = (   0.0000000   0.5773502   0.7669140  )

     number of k points=    72  Gaussian smearing, width (Ry)=  0.0005
                       cart. coord. in units 2pi/alat
        k(    1) = (   0.0000000   0.0000000   0.0000000), wk =   0.0025510
        k(    2) = (   0.0000000   0.0000000   0.0814955), wk =   0.0051020
        k(    3) = (   0.0000000   0.0000000  -0.1629909), wk =   0.0025510
        k(    4) = (   0.0000000   0.0824786   0.0000000), wk =   0.0153061
        k(    5) = (   0.0000000   0.0824786   0.0814955), wk =   0.0306122
        k(    6) = (   0.0000000   0.0824786  -0.1629909), wk =   0.0153061
        k(    7) = (   0.0000000   0.1649572   0.0000000), wk =   0.0153061
        k(    8) = (   0.0000000   0.1649572   0.0814955), wk =   0.0306122
        k(    9) = (   0.0000000   0.1649572  -0.1629909), wk =   0.0153061
        k(   10) = (   0.0000000   0.2474358   0.0000000), wk =   0.0153061
        k(   11) = (   0.0000000   0.2474358   0.0814955), wk =   0.0306122
        k(   12) = (   0.0000000   0.2474358  -0.1629909), wk =   0.0153061
        k(   13) = (   0.0000000   0.3299144   0.0000000), wk =   0.0153061
        k(   14) = (   0.0000000   0.3299144   0.0814955), wk =   0.0306122
        k(   15) = (   0.0000000   0.3299144  -0.1629909), wk =   0.0153061
        k(   16) = (   0.0000000   0.4123930   0.0000000), wk =   0.0153061
        k(   17) = (   0.0000000   0.4123930   0.0814955), wk =   0.0306122
        k(   18) = (   0.0000000   0.4123930  -0.1629909), wk =   0.0153061
        k(   19) = (   0.0000000   0.4948717   0.0000000), wk =   0.0153061
        k(   20) = (   0.0000000   0.4948717   0.0814955), wk =   0.0306122
        k(   21) = (   0.0000000   0.4948717  -0.1629909), wk =   0.0153061
        k(   22) = (   0.0000000  -0.5773503   0.0000000), wk =   0.0076531
        k(   23) = (   0.0000000  -0.5773503   0.0814955), wk =   0.0153061
        k(   24) = (   0.0000000  -0.5773503  -0.1629909), wk =   0.0076531
        k(   25) = (   0.0714286   0.1237179   0.0000000), wk =   0.0153061
        k(   26) = (   0.0714286   0.1237179   0.0814955), wk =   0.0306122
        k(   27) = (   0.0714286   0.1237179  -0.1629909), wk =   0.0153061
        k(   28) = (   0.0714286   0.2061965   0.0000000), wk =   0.0306122
        k(   29) = (   0.0714286   0.2061965   0.0814955), wk =   0.0612245
        k(   30) = (   0.0714286   0.2061965  -0.1629909), wk =   0.0306122
        k(   31) = (   0.0714286   0.2886751   0.0000000), wk =   0.0306122
        k(   32) = (   0.0714286   0.2886751   0.0814955), wk =   0.0612245
        k(   33) = (   0.0714286   0.2886751  -0.1629909), wk =   0.0306122
        k(   34) = (   0.0714286   0.3711537   0.0000000), wk =   0.0306122
        k(   35) = (   0.0714286   0.3711537   0.0814955), wk =   0.0612245
        k(   36) = (   0.0714286   0.3711537  -0.1629909), wk =   0.0306122
        k(   37) = (   0.0714286   0.4536324   0.0000000), wk =   0.0306122
        k(   38) = (   0.0714286   0.4536324   0.0814955), wk =   0.0612245
        k(   39) = (   0.0714286   0.4536324  -0.1629909), wk =   0.0306122
        k(   40) = (   0.0714286   0.5361110   0.0000000), wk =   0.0306122
        k(   41) = (   0.0714286   0.5361110   0.0814955), wk =   0.0612245
        k(   42) = (   0.0714286   0.5361110  -0.1629909), wk =   0.0306122
        k(   43) = (   0.1428571   0.2474358   0.0000000), wk =   0.0153061
        k(   44) = (   0.1428571   0.2474358   0.0814955), wk =   0.0306122
        k(   45) = (   0.1428571   0.2474358  -0.1629909), wk =   0.0153061
        k(   46) = (   0.1428571   0.3299144   0.0000000), wk =   0.0306122
        k(   47) = (   0.1428571   0.3299144   0.0814955), wk =   0.0612245
        k(   48) = (   0.1428571   0.3299144  -0.1629909), wk =   0.0306122
        k(   49) = (   0.1428571   0.4123930   0.0000000), wk =   0.0306122
        k(   50) = (   0.1428571   0.4123930   0.0814955), wk =   0.0612245
        k(   51) = (   0.1428571   0.4123930  -0.1629909), wk =   0.0306122
        k(   52) = (   0.1428571   0.4948717   0.0000000), wk =   0.0306122
        k(   53) = (   0.1428571   0.4948717   0.0814955), wk =   0.0612245
        k(   54) = (   0.1428571   0.4948717  -0.1629909), wk =   0.0306122
        k(   55) = (   0.1428571   0.5773503   0.0000000), wk =   0.0153061
        k(   56) = (   0.1428571   0.5773503   0.0814955), wk =   0.0306122
        k(   57) = (   0.1428571   0.5773503  -0.1629909), wk =   0.0153061
        k(   58) = (   0.2142857   0.3711537   0.0000000), wk =   0.0153061
        k(   59) = (   0.2142857   0.3711537   0.0814955), wk =   0.0306122
        k(   60) = (   0.2142857   0.3711537  -0.1629909), wk =   0.0153061
        k(   61) = (   0.2142857   0.4536324   0.0000000), wk =   0.0306122
        k(   62) = (   0.2142857   0.4536324   0.0814955), wk =   0.0612245
        k(   63) = (   0.2142857   0.4536324  -0.1629909), wk =   0.0306122
        k(   64) = (   0.2142857   0.5361110   0.0000000), wk =   0.0306122
        k(   65) = (   0.2142857   0.5361110   0.0814955), wk =   0.0612245
        k(   66) = (   0.2142857   0.5361110  -0.1629909), wk =   0.0306122
        k(   67) = (   0.2857143   0.4948717   0.0000000), wk =   0.0153061
        k(   68) = (   0.2857143   0.4948717   0.0814955), wk =   0.0306122
        k(   69) = (   0.2857143   0.4948717  -0.1629909), wk =   0.0153061
        k(   70) = (   0.2857143   0.5773503   0.0000000), wk =   0.0153061
        k(   71) = (   0.2857143   0.5773503   0.0814955), wk =   0.0306122
        k(   72) = (   0.2857143   0.5773503  -0.1629909), wk =   0.0153061

     Dense  grid:    18715 G-vectors     FFT dimensions: (  24,  24,  80)

     Estimated max dynamical RAM per process >       3.16 MB

     Estimated total dynamical RAM >      75.74 MB

     Initial potential from superposition of free atoms

     starting charge      15.9606, renormalised to      16.0000
     Starting wfcs are random

     total cpu time spent up to now is        0.3 secs

     Self-consistent Calculation

     iteration #  1     ecut=    62.00 Ry     beta= 0.70
     Davidson diagonalization with overlap
     ethr =  1.00E-02,  avg # of iterations = 10.2

     total cpu time spent up to now is        1.5 secs

     total energy              =     -51.32103114 Ry
     estimated scf accuracy    <       0.66412559 Ry

     iteration #  2     ecut=    62.00 Ry     beta= 0.70
     Davidson diagonalization with overlap
     ethr =  4.15E-03,  avg # of iterations =  2.0

     total cpu time spent up to now is        1.9 secs

     total energy              =     -51.46644264 Ry
     estimated scf accuracy    <       0.22982602 Ry

     iteration #  3     ecut=    62.00 Ry     beta= 0.70
     Davidson diagonalization with overlap
     ethr =  1.44E-03,  avg # of iterations =  1.7

     total cpu time spent up to now is        2.3 secs

     total energy              =     -51.51550422 Ry
     estimated scf accuracy    <       0.00394534 Ry

     iteration #  4     ecut=    62.00 Ry     beta= 0.70
     Davidson diagonalization with overlap
     ethr =  2.47E-05,  avg # of iterations =  5.8

     total cpu time spent up to now is        2.9 secs

     total energy              =     -51.51694328 Ry
     estimated scf accuracy    <       0.00028598 Ry

     iteration #  5     ecut=    62.00 Ry     beta= 0.70
     Davidson diagonalization with overlap
     ethr =  1.79E-06,  avg # of iterations =  5.0

     total cpu time spent up to now is        3.4 secs

     total energy              =     -51.51700903 Ry
     estimated scf accuracy    <       0.00000742 Ry

     iteration #  6     ecut=    62.00 Ry     beta= 0.70
     Davidson diagonalization with overlap
     ethr =  4.64E-08,  avg # of iterations =  1.9

     total cpu time spent up to now is        3.8 secs

     total energy              =     -51.51701019 Ry
     estimated scf accuracy    <       0.00000025 Ry

     iteration #  7     ecut=    62.00 Ry     beta= 0.70
     Davidson diagonalization with overlap
     ethr =  1.56E-09,  avg # of iterations =  2.6

     total cpu time spent up to now is        4.2 secs

     total energy              =     -51.51701030 Ry
     estimated scf accuracy    <       0.00000003 Ry

     iteration #  8     ecut=    62.00 Ry     beta= 0.70
     Davidson diagonalization with overlap
     ethr =  1.92E-10,  avg # of iterations =  1.8

     total cpu time spent up to now is        4.6 secs

     total energy              =     -51.51701031 Ry
     estimated scf accuracy    <          3.3E-10 Ry

     iteration #  9     ecut=    62.00 Ry     beta= 0.70
     Davidson diagonalization with overlap
     ethr =  2.04E-12,  avg # of iterations =  3.7

     total cpu time spent up to now is        5.1 secs

     total energy              =     -51.51701031 Ry
     estimated scf accuracy    <          1.1E-10 Ry

     iteration # 10     ecut=    62.00 Ry     beta= 0.70
     Davidson diagonalization with overlap
     ethr =  6.81E-13,  avg # of iterations =  1.0

     total cpu time spent up to now is        5.4 secs

     End of self-consistent calculation

          k = 0.0000 0.0000 0.0000 (  2311 PWs)   bands (ev):

   -14.3976 -14.3117  -2.4312  -1.4662   1.8417   1.8417   1.8472   1.8472
     7.8567  11.7930  14.1940  14.7264  14.7264  14.7603  14.7603  15.8137

          k = 0.0000 0.0000 0.0815 (  2311 PWs)   bands (ev):

   -14.3853 -14.3245  -2.3064  -1.6278   1.8428   1.8428   1.8465   1.8465
     8.2980  10.9138  14.7107  14.7314  14.7314  14.7554  14.7554  15.6936

          k = 0.0000 0.0000-0.1630 (  2328 PWs)   bands (ev):

   -14.3551 -14.3551  -1.9857  -1.9857   1.8446   1.8446   1.8446   1.8446
     9.4542   9.4542  14.7433  14.7433  14.7433  14.7433  15.3316  15.3316

          k = 0.0000 0.0825 0.0000 (  2307 PWs)   bands (ev):

   -14.2999 -14.2151  -2.2969  -1.3389   1.4298   1.4328   1.6492   1.6559
     8.0355  11.8339  14.2562  14.6816  14.8973  15.1610  15.1945  15.5016

          k = 0.0000 0.0825 0.0815 (  2322 PWs)   bands (ev):

   -14.2877 -14.2278  -2.1734  -1.4998   1.4304   1.4328   1.6497   1.6549
     8.4701  11.0186  14.5139  14.6781  15.0140  15.1659  15.1894  15.4542

          k = 0.0000 0.0825-0.1630 (  2334 PWs)   bands (ev):

   -14.2580 -14.2580  -1.8546  -1.8546   1.4320   1.4320   1.6516   1.6516
     9.6059   9.6059  14.6496  14.6497  15.1773  15.1773  15.2908  15.2908

          k = 0.0000 0.1650 0.0000 (  2319 PWs)   bands (ev):

   -14.0106 -13.9293  -1.8979  -0.9635   0.3458   0.3496   1.1550   1.1644
     8.5295  11.8921  14.0900  14.5631  14.6049  15.6104  16.3673  16.4001

          k = 0.0000 0.1650 0.0815 (  2316 PWs)   bands (ev):

   -13.9989 -13.9414  -1.7773  -1.1205   0.3482   0.3513   1.1563   1.1634
     8.9435  11.2617  14.1928  14.4656  14.7306  15.2886  16.3723  16.3953

          k = 0.0000 0.1650-0.1630 (  2322 PWs)   bands (ev):

   -13.9703 -13.9703  -1.4665  -1.4665   0.3513   0.3513   1.1594   1.1594
    10.0100  10.0100  14.3434  14.3434  14.9448  14.9448  16.3834  16.3834

          k = 0.0000 0.2474 0.0000 (  2326 PWs)   bands (ev):

   -13.5430 -13.4676  -1.2474  -1.1064  -1.0998  -0.3565   0.5336   0.5457
     9.2808  11.7323  13.2497  13.8068  14.4061  16.3166  16.6747  18.1297

          k = 0.0000 0.2474 0.0815 (  2332 PWs)   bands (ev):

   -13.5322 -13.4788  -1.1669  -1.1073  -1.0670  -0.4985   0.5349   0.5438
     9.6467  11.4024  13.3297  13.7574  14.4211  15.1678  17.9469  18.1346

          k = 0.0000 0.2474-0.1630 (  2344 PWs)   bands (ev):

   -13.5057 -13.5057  -1.1203  -1.1203  -0.8144  -0.8144   0.5390   0.5390
    10.5355  10.5355  13.5522  13.5522  14.5512  14.5512  18.1462  18.1464

          k = 0.0000 0.3299 0.0000 (  2352 PWs)   bands (ev):

   -12.9272 -12.8604  -2.6627  -2.6512  -0.3771  -0.0652  -0.0519   0.4443
    10.2515  10.9976  11.6440  13.5429  14.2779  16.1393  17.7759  20.2307

          k = 0.0000 0.3299 0.0815 (  2333 PWs)   bands (ev):

   -12.9176 -12.8703  -2.6616  -2.6529  -0.2670  -0.0634  -0.0536   0.3125
    10.4253  10.9374  11.8949  13.3868  14.2932  15.1696  18.7641  20.2104

          k = 0.0000 0.3299-0.1630 (  2334 PWs)   bands (ev):

   -12.8941 -12.8941  -2.6579  -2.6579  -0.0584  -0.0584   0.0114   0.0114
    10.7293  10.7293  12.6746  12.6746  14.4350  14.4350  19.8736  19.8736

          k = 0.0000 0.4124 0.0000 (  2350 PWs)   bands (ev):

   -12.2292 -12.1750  -4.1088  -4.0909  -0.5450  -0.5310   0.6427   1.3561
     9.6733  10.1168  11.3623  13.3415  14.2778  16.5601  18.3824  21.1406

          k = 0.0000 0.4124 0.0815 (  2340 PWs)   bands (ev):

   -12.2213 -12.1830  -4.1065  -4.0938  -0.5427  -0.5328   0.7403   1.2433
     9.6816   9.9684  11.8434  13.2392  14.3396  15.6832  19.1363  20.8370

          k = 0.0000 0.4124-0.1630 (  2332 PWs)   bands (ev):

   -12.2022 -12.2022  -4.1004  -4.1004  -0.5372  -0.5372   0.9838   0.9838
     9.7730   9.7731  12.7335  12.7335  14.6873  14.6873  20.1346  20.1346

          k = 0.0000 0.4949 0.0000 (  2348 PWs)   bands (ev):

   -11.5981 -11.5625  -5.2101  -5.1902  -0.8504  -0.8360   1.6304   2.1769
     8.3278   8.9151  12.3334  13.2175  14.6547  17.2712  17.4819  20.0303

          k = 0.0000 0.4949 0.0815 (  2349 PWs)   bands (ev):

   -11.5929 -11.5677  -5.2074  -5.1935  -0.8484  -0.8382   1.7071   2.0942
     8.3830   8.7946  12.5617  13.1675  14.8387  16.4328  18.1919  19.6634

          k = 0.0000 0.4949-0.1630 (  2334 PWs)   bands (ev):

   -11.5803 -11.5803  -5.2004  -5.2004  -0.8429  -0.8429   1.8981   1.8981
     8.5580   8.5580  12.9559  12.9559  15.4610  15.4610  18.9735  18.9735

          k = 0.0000-0.5774 0.0000 (  2352 PWs)   bands (ev):

   -11.3174 -11.2988  -5.6451  -5.6271  -0.9549  -0.9408   2.1146   2.5249
     7.7344   8.4008  12.6888  13.1757  15.4649  16.2561  17.7331  19.4723

          k = 0.0000-0.5774 0.0815 (  2348 PWs)   bands (ev):

   -11.3146 -11.3015  -5.6428  -5.6300  -0.9531  -0.9425   2.1748   2.4661
     7.8026   8.2714  12.8032  13.1420  15.7034  16.2871  17.7625  18.9456

          k = 0.0000-0.5774-0.1630 (  2340 PWs)   bands (ev):

   -11.3080 -11.3080  -5.6366  -5.6366  -0.9474  -0.9474   2.3209   2.3209
     8.0072   8.0072  13.0130  13.0130  16.1442  16.1442  18.1046  18.1046

          k = 0.0714 0.1237 0.0000 (  2316 PWs)   bands (ev):

   -14.1063 -14.0239  -2.0301  -1.0877   0.7206   0.7234   1.2666   1.2748
     8.3726  11.8853  14.4156  14.6679  14.9001  15.0053  15.8436  16.1396

          k = 0.0714 0.1237 0.0815 (  2321 PWs)   bands (ev):

   -14.0945 -14.0362  -1.9087  -1.2459   0.7228   0.7243   1.2675   1.2739
     8.7939  11.1954  14.5266  14.6628  14.9157  14.9909  15.8530  16.0121

          k = 0.0714 0.1237-0.1630 (  2308 PWs)   bands (ev):

   -14.0655 -14.0655  -1.5946  -1.5946   0.7250   0.7250   1.2715   1.2715
     9.8860   9.8860  14.6308  14.6308  14.9546  14.9546  15.8965  15.8965

          k = 0.0714 0.2062 0.0000 (  2334 PWs)   bands (ev):

   -13.7274 -13.6496  -1.5052  -0.5962  -0.4762  -0.4704   0.6364   0.6473
     9.0007  11.8451  13.7910  14.3344  14.7443  15.6737  16.5263  16.9446

          k = 0.0714 0.2062 0.0815 (  2331 PWs)   bands (ev):

   -13.7162 -13.6612  -1.3890  -0.7559  -0.4692  -0.4640   0.6381   0.6457
     9.3899  11.4054  13.8553  14.2655  14.7463  15.1090  16.8044  16.9357

          k = 0.0714 0.2062-0.1630 (  2322 PWs)   bands (ev):

   -13.6889 -13.6889  -1.0895  -1.0895  -0.4643  -0.4643   0.6425   0.6425
    10.3659  10.3659  14.0437  14.0437  14.7941  14.7941  16.9043  16.9043

          k = 0.0714 0.2887 0.0000 (  2348 PWs)   bands (ev):

   -13.1837 -13.1130  -1.9278  -1.9188  -0.7426  -0.0273  -0.0146   0.1105
     9.8777  11.4058  12.3335  14.0849  14.6920  16.1131  16.8445  18.4530

          k = 0.0714 0.2887 0.0815 (  2335 PWs)   bands (ev):

   -13.1735 -13.1235  -1.9274  -1.9213  -0.6284  -0.0381  -0.0216  -0.0083
    10.1736  11.2612  12.4960  13.8526  14.6888  15.1412  17.7336  18.4117

          k = 0.0714 0.2887-0.1630 (  2330 PWs)   bands (ev):

   -13.1487 -13.1487  -1.9255  -1.9255  -0.3403  -0.3403  -0.0193  -0.0193
    10.7997  10.7997  13.0616  13.0616  14.7275  14.7275  18.2461  18.2461

          k = 0.0714 0.3712 0.0000 (  2348 PWs)   bands (ev):

   -12.5197 -12.4595  -3.4037  -3.3891  -0.5971  -0.5826   0.2108   0.9768
    10.3609  10.7711  10.9604  13.8600  14.6245  16.2543  17.9529  20.0983

          k = 0.0714 0.3712 0.0815 (  2345 PWs)   bands (ev):

   -12.5110 -12.4684  -3.4023  -3.3918  -0.5947  -0.5849   0.3143   0.8546
    10.3224  10.4926  11.6725  13.6762  14.6350  15.4165  18.6877  19.9628

          k = 0.0714 0.3712-0.1630 (  2342 PWs)   bands (ev):

   -12.4898 -12.4898  -3.3974  -3.3974  -0.5899  -0.5899   0.5752   0.5752
    10.3459  10.3459  12.8148  12.8148  14.7555  14.7556  19.5088  19.5088

          k = 0.0714 0.4536 0.0000 (  2345 PWs)   bands (ev):

   -11.8350 -11.7900  -4.6810  -4.6618  -1.0042  -0.9895   1.2432   1.8720
     8.9609   9.4249  12.1245  13.6989  14.7030  16.7679  18.0721  20.3128

          k = 0.0714 0.4536 0.0815 (  2333 PWs)   bands (ev):

   -11.8285 -11.7966  -4.6784  -4.6648  -1.0020  -0.9917   1.3311   1.7750
     8.9942   9.3169  12.4918  13.6131  14.7790  16.0528  18.6560  20.0389

          k = 0.0714 0.4536-0.1630 (  2346 PWs)   bands (ev):

   -11.8126 -11.8126  -4.6720  -4.6720  -0.9973  -0.9973   1.5473   1.5473
     9.1208   9.1208  13.2079  13.2079  15.1544  15.1544  19.4588  19.4588

          k = 0.0714 0.5361 0.0000 (  2348 PWs)   bands (ev):

   -11.3434 -11.3193  -5.4762  -5.4566  -1.2157  -1.2006   2.0570   2.5011
     7.9242   8.5247  12.9498  13.6157  15.2444  16.8447  17.2671  19.6181

          k = 0.0714 0.5361 0.0815 (  2344 PWs)   bands (ev):

   -11.3399 -11.3228  -5.4736  -5.4600  -1.2134  -1.2028   2.1221   2.4363
     7.9842   8.4069  13.1134  13.5739  15.4347  16.4977  17.6888  19.1941

          k = 0.0714 0.5361-0.1630 (  2356 PWs)   bands (ev):

   -11.3314 -11.3314  -5.4672  -5.4672  -1.2084  -1.2084   2.2784   2.2784
     8.1672   8.1672  13.4053  13.4053  15.9342  15.9342  18.4023  18.4023

          k = 0.1429 0.2474 0.0000 (  2340 PWs)   bands (ev):

   -13.2709 -13.1990  -1.5405  -1.5343  -0.8664  -0.1670  -0.1535  -0.0028
     9.7652  11.5415  12.6083  15.1499  15.1582  15.7002  16.1265  17.3291

          k = 0.1429 0.2474 0.0815 (  2343 PWs)   bands (ev):

   -13.2606 -13.2097  -1.5415  -1.5377  -0.7501  -0.1754  -0.1554  -0.1317
    10.0865  11.3616  12.7578  14.3851  15.1774  15.2941  16.8322  17.2980

          k = 0.1429 0.2474-0.1630 (  2328 PWs)   bands (ev):

   -13.2353 -13.2353  -1.5413  -1.5413  -0.4588  -0.4588  -0.1581  -0.1581
    10.8004  10.8004  13.3013  13.3013  15.2262  15.2262  17.1783  17.1783

          k = 0.1429 0.3299 0.0000 (  2346 PWs)   bands (ev):

   -12.6724 -12.6092  -2.7803  -2.7713  -0.9379  -0.9238  -0.0130   0.7774
    10.7843  10.7879  11.2130  15.0803  15.6048  16.0584  16.6925  18.2768

          k = 0.1429 0.3299 0.0815 (  2346 PWs)   bands (ev):

   -12.6633 -12.6186  -2.7795  -2.7732  -0.9363  -0.9260   0.0932   0.6512
    10.6619  10.7554  11.7842  14.4389  15.5495  15.5869  17.4168  18.2053

          k = 0.1429 0.3299-0.1630 (  2346 PWs)   bands (ev):

   -12.6410 -12.6410  -2.7769  -2.7769  -0.9316  -0.9316   0.3624   0.3624
    10.6717  10.6717  12.9958  12.9958  15.5272  15.5272  17.9575  17.9575

          k = 0.1429 0.4124 0.0000 (  2357 PWs)   bands (ev):

   -11.9993 -11.9485  -4.0302  -4.0144  -1.5156  -1.5002   0.9815   1.6593
     9.6034   9.8628  12.0071  14.9055  15.6331  16.2287  17.7785  19.7144

          k = 0.1429 0.4124 0.0815 (  2347 PWs)   bands (ev):

   -11.9919 -11.9560  -4.0282  -4.0170  -1.5132  -1.5022   1.0749   1.5534
     9.5998   9.7744  12.4842  14.6209  15.6112  15.8187  18.1893  19.4896

          k = 0.1429 0.4124-0.1630 (  2348 PWs)   bands (ev):

   -11.9740 -11.9740  -4.0228  -4.0228  -1.5078  -1.5078   1.3072   1.3072
     9.6475   9.6475  13.5846  13.5846  15.5972  15.5972  18.8800  18.8801

          k = 0.1429 0.4949 0.0000 (  2352 PWs)   bands (ev):

   -11.3983 -11.3655  -5.0196  -4.9994  -1.8649  -1.8489   1.9395   2.4447
     8.3883   8.8044  13.2854  14.7822  15.6445  16.3693  17.6634  19.6742

          k = 0.1429 0.4949 0.0815 (  2356 PWs)   bands (ev):

   -11.3935 -11.3703  -5.0171  -5.0027  -1.8630  -1.8514   2.0120   2.3690
     8.4239   8.7174  13.5982  14.6867  15.6655  16.1317  17.9828  19.4980

          k = 0.1429 0.4949-0.1630 (  2362 PWs)   bands (ev):

   -11.3819 -11.3819  -5.0101  -5.0101  -1.8574  -1.8574   2.1883   2.1883
     8.5455   8.5455  14.2588  14.2588  15.7886  15.7886  18.6789  18.6789

          k = 0.1429 0.5774 0.0000 (  2340 PWs)   bands (ev):

   -11.1345 -11.1177  -5.4149  -5.3936  -1.9815  -1.9652   2.4104   2.7707
     7.8522   8.3445  13.9852  14.7387  15.7809  16.4025  16.9636  19.4795

          k = 0.1429 0.5774 0.0815 (  2356 PWs)   bands (ev):

   -11.1321 -11.1202  -5.4123  -5.3973  -1.9797  -1.9683   2.4642   2.7192
     7.8994   8.2470  14.1601  14.6905  15.8801  16.2095  17.4158  19.3108

          k = 0.1429 0.5774-0.1630 (  2362 PWs)   bands (ev):

   -11.1261 -11.1261  -5.4050  -5.4050  -1.9742  -1.9742   2.5930   2.5930
     8.0484   8.0484  14.4923  14.4923  16.0330  16.0330  18.3440  18.3440

          k = 0.2143 0.3712 0.0000 (  2350 PWs)   bands (ev):

   -12.0576 -12.0049  -3.6449  -3.6359  -1.8705  -1.8552   0.8899   1.5836
     9.9233  10.0072  11.9512  15.9829  16.3492  16.5368  16.7171  18.3911

          k = 0.2143 0.3712 0.0815 (  2356 PWs)   bands (ev):

   -12.0500 -12.0127  -3.6441  -3.6376  -1.8686  -1.8576   0.9844   1.4744
     9.8974   9.9285  12.4600  15.0388  16.3820  16.5882  17.2282  18.2675

          k = 0.2143 0.3712-0.1630 (  2352 PWs)   bands (ev):

   -12.0314 -12.0314  -3.6410  -3.6410  -1.8634  -1.8634   1.2224   1.2224
     9.8706   9.8706  13.6519  13.6519  16.4743  16.4743  17.8673  17.8674

          k = 0.2143 0.4536 0.0000 (  2346 PWs)   bands (ev):

   -11.4397 -11.4019  -4.4835  -4.4665  -2.5414  -2.5259   1.8544   2.3982
     8.8390   9.0048  13.3123  15.6801  16.2641  16.8351  17.7886  19.4792

          k = 0.2143 0.4536 0.0815 (  2352 PWs)   bands (ev):

   -11.4342 -11.4075  -4.4813  -4.4693  -2.5395  -2.5284   1.9308   2.3160
     8.8379   8.9571  13.6875  15.3891  16.3529  16.7372  17.8974  19.0123

          k = 0.2143 0.4536-0.1630 (  2362 PWs)   bands (ev):

   -11.4209 -11.4209  -4.4757  -4.4757  -2.5345  -2.5345   2.1204   2.1204
     8.8742   8.8742  14.5721  14.5722  16.5342  16.5342  18.3120  18.3120

          k = 0.2143 0.5361 0.0000 (  2366 PWs)   bands (ev):

   -11.0114 -10.9926  -5.0562  -5.0321  -2.8681  -2.8510   2.6061   2.9437
     8.0383   8.3249  14.6794  15.3908  16.1338  16.3988  18.0518  18.9593

          k = 0.2143 0.5361 0.0815 (  2362 PWs)   bands (ev):

   -11.0087 -10.9953  -5.0525  -5.0354  -2.8658  -2.8540   2.6575   2.8967
     8.0582   8.2615  14.9295  15.4690  16.0881  16.2869  18.1637  19.0389

          k = 0.2143 0.5361-0.1630 (  2356 PWs)   bands (ev):

   -11.0020 -11.0020  -5.0440  -5.0440  -2.8600  -2.8600   2.7794   2.7794
     8.1384   8.1384  15.4064  15.4064  16.0621  16.0622  18.6136  18.6137

          k = 0.2857 0.4949 0.0000 (  2362 PWs)   bands (ev):

   -10.9729 -10.9517  -4.7359  -4.7104  -3.3761  -3.3652   2.6620   3.0029
     8.1963   8.3183  14.7558  14.9567  16.8113  17.2168  18.6302  18.9738

          k = 0.2857 0.4949 0.0815 (  2356 PWs)   bands (ev):

   -10.9698 -10.9548  -4.7321  -4.7142  -3.3749  -3.3668   2.7138   2.9562
     8.1925   8.2807  15.0026  15.0920  16.7696  16.8666  18.7545  18.9597

          k = 0.2857 0.4949-0.1630 (  2356 PWs)   bands (ev):

   -10.9623 -10.9623  -4.7233  -4.7233  -3.3711  -3.3711   2.8371   2.8371
     8.2162   8.2162  15.2957  15.2957  16.5822  16.5822  18.8886  18.8886

          k = 0.2857 0.5774 0.0000 (  2362 PWs)   bands (ev):

   -10.7805 -10.7733  -4.8049  -4.7694  -3.7161  -3.7072   3.0653   3.2068
     7.9238   8.0313  14.6528  15.8757  16.4111  17.1425  18.2758  19.5438

          k = 0.2857 0.5774 0.0815 (  2369 PWs)   bands (ev):

   -10.7794 -10.7743  -4.8002  -4.7748  -3.7150  -3.7088   3.0904   3.1912
     7.9176   7.9942  14.8573  16.1149  16.2167  16.7495  18.8397  19.5295

          k = 0.2857 0.5774-0.1630 (  2356 PWs)   bands (ev):

   -10.7768 -10.7768  -4.7873  -4.7873  -3.7122  -3.7122   3.1468   3.1468
     7.9344   7.9344  15.4408  15.4408  16.5609  16.5609  19.4594  19.4597

     the Fermi energy is     3.3715 ev

!    total energy              =     -51.51701031 Ry
     estimated scf accuracy    <          1.2E-11 Ry
     smearing contrib. (-TS)   =      -0.00000000 Ry
     internal energy E=F+TS    =     -51.51701031 Ry

     The total energy is F=E-TS. E is the sum of the following terms:
     one-electron contribution =     -28.49308213 Ry
     hartree contribution      =      21.54073012 Ry
     xc contribution           =     -14.73206418 Ry
     ewald contribution        =     -29.83259412 Ry

     convergence has been achieved in  10 iterations

     Writing all to output data dir out/mp-984.save/
 
     init_run     :      0.14s CPU      0.24s WALL (       1 calls)
     electrons    :      4.68s CPU      5.08s WALL (       1 calls)

     Called by init_run:
     wfcinit      :      0.13s CPU      0.17s WALL (       1 calls)
     potinit      :      0.01s CPU      0.01s WALL (       1 calls)
     hinit0       :      0.01s CPU      0.05s WALL (       1 calls)

     Called by electrons:
     c_bands      :      4.18s CPU      4.52s WALL (      10 calls)
     sum_band     :      0.48s CPU      0.52s WALL (      10 calls)
     v_of_rho     :      0.01s CPU      0.01s WALL (      11 calls)
     mix_rho      :      0.00s CPU      0.00s WALL (      10 calls)

     Called by c_bands:
     init_us_2    :      0.04s CPU      0.04s WALL (    1512 calls)
     init_us_2:cp :      0.04s CPU      0.04s WALL (    1512 calls)
     cegterg      :      4.06s CPU      4.36s WALL (     720 calls)

     Called by *egterg:
     cdiaghg      :      0.91s CPU      0.99s WALL (    3293 calls)
     h_psi        :      2.90s CPU      3.15s WALL (    3365 calls)
     g_psi        :      0.02s CPU      0.02s WALL (    2573 calls)

     Called by h_psi:
     h_psi:calbec :      0.11s CPU      0.13s WALL (    3365 calls)
     vloc_psi     :      2.71s CPU      2.93s WALL (    3365 calls)
     add_vuspsi   :      0.05s CPU      0.06s WALL (    3365 calls)

     General routines
     calbec       :      0.11s CPU      0.12s WALL (    3365 calls)
     fft          :      0.01s CPU      0.05s WALL (     109 calls)
     ffts         :      0.00s CPU      0.00s WALL (      10 calls)
     fftw         :      2.89s CPU      3.12s WALL (   82252 calls)
 
     Parallel routines
 
     PWSCF        :      4.96s CPU      5.61s WALL

 
   This run was terminated on:  11:59:40  18Nov2023            

=------------------------------------------------------------------------------=
   JOB DONE.
=------------------------------------------------------------------------------=
