
     Program PWSCF v.7.1 starts on 17Nov2023 at 20:37:52 

     This program is part of the open-source Quantum ESPRESSO suite
     for quantum simulation of materials; please cite
         "P. Giannozzi et al., J. Phys.:Condens. Matter 21 395502 (2009);
         "P. Giannozzi et al., J. Phys.:Condens. Matter 29 465901 (2017);
         "P. Giannozzi et al., J. Chem. Phys. 152 154105 (2020);
          URL http://www.quantum-espresso.org", 
     in publications or presentations arising from this work. More details at
     http://www.quantum-espresso.org/quote

     Parallel version (MPI), running on    24 processors

     MPI processes distributed on     1 nodes
     123311 MiB available memory on the printing compute node when the environment starts
 
     Reading input from pw_mp-2605_nscf_k260_E84.in
Warning: card &IONS ignored
Warning: card / ignored
Warning: card &CELL ignored
Warning: card / ignored

     Current dimensions of program PWSCF are:
     Max number of different atomic species (ntypx) = 10
     Max number of k-points (npk) =  40000
     Max angular momentum in pseudopotentials (lmaxx) =  4

     Atomic positions and unit cell read from directory:
     out/mp-2605.save/
     Atomic positions from file used, from input discarded
 
 
     K-points division:     npool     =       2
     R & G space division:  proc/nbgrp/npool/nimage =      12
     Subspace diagonalization in iterative solution of the eigenvalue problem:
     one sub-group per band group will be used
     scalapack distributed-memory algorithm (size of sub-group:  3*  3 procs)

 
     Parallelization info
     --------------------
     sticks:   dense  smooth     PW     G-vecs:    dense   smooth      PW
     Min          79      79     23                 1629     1629     260
     Max          80      80     24                 1633     1633     263
     Sum         955     955    283                19579    19579    3143
 
     Using Slab Decomposition
 


     bravais-lattice index     =            2
     lattice parameter (alat)  =       9.0841  a.u.
     unit-cell volume          =     187.4084 (a.u.)^3
     number of atoms/cell      =            2
     number of atomic types    =            2
     number of electrons       =        16.00
     number of Kohn-Sham states=         1200
     kinetic-energy cutoff     =      84.0000  Ry
     charge density cutoff     =     336.0000  Ry
     Exchange-correlation= PBE
                           (   1   4   3   4   0   0   0)

     celldm(1)=   9.084123  celldm(2)=   0.000000  celldm(3)=   0.000000
     celldm(4)=   0.000000  celldm(5)=   0.000000  celldm(6)=   0.000000

     crystal axes: (cart. coord. in units of alat)
               a(1) = (  -0.500000   0.000000   0.500000 )  
               a(2) = (   0.000000   0.500000   0.500000 )  
               a(3) = (  -0.500000   0.500000   0.000000 )  

     reciprocal axes: (cart. coord. in units 2 pi/alat)
               b(1) = ( -1.000000 -1.000000  1.000000 )  
               b(2) = (  1.000000  1.000000  1.000000 )  
               b(3) = ( -1.000000  1.000000 -1.000000 )  


     PseudoPot. # 1 for Ca read from file:
     /usr/scratch4/magr4985/MG/HTDF/pseudo/SG15/Ca.upf
     MD5 check sum: b43c970dc090f2312d256360aabdb6f1
     Pseudo is Norm-conserving, Zval = 10.0
     Generated using ONCVPSP code by D. R. Hamann
     Using radial grid of  602 points,  6 beta functions with: 
                l(1) =   0
                l(2) =   0
                l(3) =   1
                l(4) =   1
                l(5) =   2
                l(6) =   2

     PseudoPot. # 2 for O  read from file:
     /usr/scratch4/magr4985/MG/HTDF/pseudo/SG15/O.upf
     MD5 check sum: e36c48deb68f4e355fffe4602be2c42c
     Pseudo is Norm-conserving, Zval =  6.0
     Generated using ONCVPSP code by D. R. Hamann
     Using radial grid of  602 points,  4 beta functions with: 
                l(1) =   0
                l(2) =   0
                l(3) =   1
                l(4) =   1

     atomic species   valence    mass     pseudopotential
        Ca            10.00    40.07800     Ca( 1.00)
        O              6.00    15.99940     O ( 1.00)

     48 Sym. Ops., with inversion, found



   Cartesian axes

     site n.     atom                  positions (alat units)
         1           Ca  tau(   1) = (   0.0000000   0.0000000   0.0000000  )
         2           O   tau(   2) = (  -0.5000000   0.5000000   0.5000000  )

     number of k points=    16  Gaussian smearing, width (Ry)=  0.0005
                       cart. coord. in units 2pi/alat
        k(    1) = (   0.0000000   0.0000000   0.0000000), wk =   0.0092593
        k(    2) = (  -0.1666667   0.1666667  -0.1666667), wk =   0.0740741
        k(    3) = (  -0.3333333   0.3333333  -0.3333333), wk =   0.0740741
        k(    4) = (   0.5000000  -0.5000000   0.5000000), wk =   0.0370370
        k(    5) = (   0.0000000   0.3333333   0.0000000), wk =   0.0555556
        k(    6) = (  -0.1666667   0.5000000  -0.1666667), wk =   0.2222222
        k(    7) = (   0.6666667  -0.3333333   0.6666667), wk =   0.2222222
        k(    8) = (   0.5000000  -0.1666667   0.5000000), wk =   0.2222222
        k(    9) = (   0.3333333   0.0000000   0.3333333), wk =   0.1111111
        k(   10) = (   0.0000000   0.6666667   0.0000000), wk =   0.0555556
        k(   11) = (   0.8333333  -0.1666667   0.8333333), wk =   0.2222222
        k(   12) = (   0.6666667  -0.0000000   0.6666667), wk =   0.1111111
        k(   13) = (   0.0000000  -1.0000000   0.0000000), wk =   0.0277778
        k(   14) = (   0.6666667  -0.3333333   1.0000000), wk =   0.2222222
        k(   15) = (   0.5000000  -0.1666667   0.8333333), wk =   0.2222222
        k(   16) = (  -0.3333333  -1.0000000   0.0000000), wk =   0.1111111

     Dense  grid:    19579 G-vectors     FFT dimensions: (  40,  40,  40)

     Estimated max dynamical RAM per process >      77.58 MB

     Estimated total dynamical RAM >       1.82 GB

     The potential is recalculated from file :
     out/mp-2605.save/charge-density

     Starting wfcs are random

     Band Structure Calculation
     ParO style diagonalization

     ethr =  5.00E-06,  avg # of iterations =  5.9

     total cpu time spent up to now is      409.3 secs

     End of band structure calculation

          k = 0.0000 0.0000 0.0000 (  2421 PWs)   bands (ev):

   -29.8978 -10.6673 -10.6673 -10.6673  -7.7099   7.7800   7.7800   7.7800
    12.5113  13.9962  13.9962  13.9962  15.4923  15.4923  22.8661  30.1845
    30.1845  30.1845  35.2392  35.2392  35.2392  35.7437  35.7437  35.9236
    35.9236  35.9236  44.5077  49.9039  49.9039  49.9039  53.1494  53.1494
    55.8514  55.8514  55.8514  57.0826  67.0297  67.0297  67.0297  68.4095
    68.6481  68.6481  68.6481  69.2835  69.2835  69.2835  70.5945  70.5945
    70.5945  71.5455  71.5455  71.5455  74.2886  74.2886  74.2886  74.4117
    74.4117  75.8180  76.4389  77.0853  77.0853  86.5837  86.5837  86.5837
    86.6178  86.6178  86.6178  99.6098  99.6098  99.6098 100.1158 104.9754
   104.9754 110.6962 110.6962 110.6962 114.0517 114.0517 114.0517 117.3626
   117.3626 117.3626 118.5539 119.1925 119.4155 119.4155 121.4919 121.4919
   121.4919 123.3436 123.3436 123.3436 124.3838 124.3838 124.3838 124.4227
   124.4227 124.4227 124.5833 124.5833 125.2940 125.2940 125.2940 126.4916
   126.4916 126.4916 128.2270 128.2270 128.4889 129.4600 129.4600 129.4600
   130.2988 135.5978 135.5978 138.1165 138.1165 138.1165 142.3607 142.3607
   142.3607 146.9359 148.2304 148.2304 148.2304 153.0816 153.0816 153.0816
   153.4571 153.4571 153.5390 153.5390 153.5390 153.6932 153.6932 153.6932
   153.7241 153.7241 153.7241 153.7804 153.7804 155.2720 159.0342 159.0342
   159.0342 167.0349 167.6031 167.6031 167.6031 170.2740 171.8682 171.8682
   171.8682 172.1553 172.1553 172.1553 172.8712 172.8712 172.8712 173.0302
   173.0302 173.0302 175.3324 177.7123 177.7123 177.7723 177.7723 177.7723
   177.8471 182.2922 182.2922 182.2922 184.5214 184.5214 190.3431 190.3431
   190.3431 200.5753 200.5753 200.5753 200.8154 200.8154 200.8154 206.1211
   206.1211 206.1211 206.2075 206.2075 206.5054 215.0659 215.0659 215.0659
   215.0876 215.0876 217.6270 217.6270 217.6270 218.3889 218.3889 218.3889
   219.3997 219.3997 219.3997 220.2436 220.2436 220.2436 220.9498 220.9498
   221.7399 222.0823 222.0823 222.0823 223.0063 224.4498 224.4498 224.4498
   224.6336 224.6336 224.6764 224.6764 224.6764 225.4881 225.9122 225.9122
   225.9122 226.2816 226.2816 226.2816 226.3273 227.9600 227.9600 227.9600
   227.9652 228.2827 228.2827 228.6406 228.6406 228.6406 229.3875 229.3875
   229.3875 229.8370 231.7071 231.7071 231.7097 231.7097 231.7097 231.9164
   231.9164 231.9164 232.4436 232.4436 232.4436 232.7557 232.7557 232.7557
   232.7852 232.7852 234.9344 244.7411 244.7411 246.8214 246.8214 246.8214
   249.4386 249.4386 249.4386 253.2022 253.2022 253.2022 253.5837 253.5837
   253.5837 253.9045 253.9045 253.9045 258.4640 258.7586 258.7586 258.8765
   258.8765 258.8765 258.9410 261.1027 261.1027 261.1027 264.6099 264.6099
   264.6099 269.5474 271.5318 271.5318 275.3179 275.9780 275.9780 275.9780
   276.2721 276.2721 276.3135 276.3135 276.3135 276.4036 276.4036 276.4036
   276.5188 276.5188 276.5188 278.1355 278.1355 278.1355 278.8272 278.8272
   278.8272 280.7174 280.7174 281.2614 282.2595 282.2595 282.2595 282.3416
   282.3416 282.3416 282.3726 282.3726 282.3726 282.5464 282.5464 282.5967
   282.5967 282.5967 286.7030 294.9530 294.9530 297.8901 297.8901 297.8901
   300.6545 300.6545 300.6545 306.5573 307.1575 307.1575 307.1575 308.7197
   310.1409 310.1409 310.1409 317.7785 317.9881 317.9881 318.4506 318.4506
   318.4506 319.5338 319.5338 319.5338 322.3298 322.3298 322.3298 323.3806
   325.5764 325.5764 325.5764 326.6715 326.6715 327.0520 327.0520 327.0520
   327.7762 327.7762 327.7762 327.8683 327.8683 327.8683 328.1544 328.1544
   328.1544 329.3519 329.3519 329.3519 330.5489 330.5489 330.5489 330.5838
   330.8966 330.8966 330.9174 330.9174 330.9174 330.9513 330.9513 330.9513
   333.2975 333.2975 333.8244 333.8244 333.8336 333.8336 333.8336 333.8371
   334.1482 334.1482 334.1482 334.3758 334.3758 334.3758 334.4495 334.4495
   334.4495 334.4960 339.2441 349.5611 349.5611 349.5611 350.4536 350.4536
   350.4536 353.9869 354.3828 354.3828 357.1693 357.1693 357.1693 357.3004
   357.3004 357.3004 357.5021 357.5021 357.5114 357.5114 357.5114 357.6740
   357.6740 357.6740 359.6898 361.7101 361.7101 361.7306 361.7306 361.7306
   361.7308 361.7308 361.7308 361.7359 361.7359 361.7909 361.7909 361.7909
   361.8178 361.8178 361.8178 362.1702 362.1702 362.1702 363.4127 363.4591
   363.4591 363.4591 363.5053 363.5053 363.5053 363.5512 364.0460 364.0460
   364.0460 365.1978 365.1978 371.5728 371.5728 371.5728 372.1737 372.4634
   372.4634 372.4634 373.2168 373.2168 373.2168 374.9566 374.9566 374.9566
   375.4899 375.7713 375.7713 375.7713 376.2120 376.2120 376.4961 376.4961
   376.4961 376.9469 380.4248 380.4248 380.7571 380.7571 380.7571 381.1382
   381.1382 381.1382 381.1470 381.1470 381.1470 381.4560 381.4560 381.4560
   381.4824 381.4824 381.8091 382.1169 382.1169 382.1169 382.1840 382.1840
   383.9725 383.9725 383.9725 384.0010 384.0010 384.0010 384.0943 384.0943
   384.0943 384.1491 384.1491 384.1491 384.3531 385.2874 385.3357 385.3357
   385.3357 385.3454 385.3454 398.8376 398.8376 400.5560 400.5560 400.5560
   409.5824 420.8608 420.8608 420.8608 425.4139 425.4139 425.4139 427.8146
   427.8146 429.6067 429.6067 429.6067 430.0095 430.0095 430.3895 430.3895
   430.3895 430.3954 430.4336 430.4336 430.4336 430.5277 430.5277 430.5277
   430.6034 430.6034 430.6034 430.7217 430.7217 430.7217 430.7424 430.7424
   430.8736 431.2924 432.4574 432.4574 432.4574 433.3658 435.2038 435.2038
   435.2038 435.4329 435.4329 435.4329 435.4701 435.4701 435.4701 435.7648
   435.7648 435.7648 439.6456 439.6456 439.7353 439.7353 439.7353 439.7474
   439.7474 439.7474 439.7794 439.7794 439.7794 439.8723 439.8723 439.8935
   439.8935 439.8935 440.9420 440.9420 440.9770 440.9770 440.9770 440.9966
   442.2416 456.2566 456.2566 456.2566 457.5324 457.5324 457.5324 458.6691
   458.6691 460.1188 460.1188 460.1188 461.3480 462.2563 462.2563 462.2563
   463.6134 463.6134 463.8224 463.8613 463.8613 463.8613 463.9791 463.9791
   463.9839 463.9839 463.9839 464.0376 464.0376 464.0376 464.0701 464.0701
   464.0701 464.1398 464.1398 464.1398 466.2953 468.6615 468.6615 468.6615
   470.0499 470.0499 470.0499 471.5856 471.5856 472.9643 472.9643 472.9643
   480.3600 480.3600 480.6317 480.7248 480.7248 480.7248 480.8321 480.8321
   480.8321 480.9727 480.9727 480.9727 481.1062 481.2507 481.4134 481.4134
   481.4134 481.7986 481.7986 481.7986 484.0190 484.5773 484.5773 484.5966
   484.5966 484.5966 484.6169 484.6169 484.6169 484.6942 484.6942 484.6942
   484.9102 487.8265 487.8265 487.8265 488.4075 488.4075 488.4075 488.4599
   488.4599 488.5342 488.5342 488.5342 488.5386 488.5468 488.5468 488.5468
   488.6152 488.6152 488.6152 489.2601 489.2601 489.5840 489.5840 489.5840
   490.3785 490.6673 490.6673 490.6673 490.8510 490.8510 490.8510 491.0614
   491.0614 491.0614 491.0938 491.0938 493.9109 506.2410 506.2410 506.2410
   511.3150 511.3150 512.7680 512.7680 512.7680 513.4167 513.4167 513.4167
   513.4392 513.4392 513.4392 513.8149 513.8149 513.8149 513.9876 513.9876
   514.2936 514.2936 514.2936 514.4017 516.2035 516.2035 516.7845 518.1397
   518.1397 518.1397 523.3526 527.1287 527.1287 527.1287 527.6087 527.6087
   527.6087 529.0748 532.2159 532.2159 532.4189 532.4189 532.4189 532.4570
   532.4570 532.4570 532.6545 532.6545 532.6545 532.6580 532.6580 532.6580
   532.7165 532.7165 533.8064 535.7546 535.7546 535.7546 535.8837 535.8837
   535.8837 535.9503 535.9503 535.9503 535.9590 535.9590 535.9590 536.6688
   536.6688 536.6688 536.6950 536.6950 536.7446 536.7446 536.7446 536.8648
   536.8648 536.9001 536.9001 536.9001 536.9540 536.9540 536.9540 537.7093
   537.7093 537.7093 538.1741 538.1741 538.1741 538.4345 538.5299 538.5299
   538.5299 538.6486 538.6486 538.6486 538.7111 538.7847 539.5239 539.5239
   539.8083 539.8083 539.8083 539.9754 539.9754 539.9754 539.9789 539.9789
   539.9789 539.9867 539.9867 540.0644 540.0644 540.0644 542.0776 542.0927
   542.0927 542.0927 542.1010 542.1010 544.4104 544.4104 544.4104 544.4290
   544.4290 544.4321 544.4321 544.4321 544.4470 544.4470 544.4470 544.4625
   544.4625 544.4843 544.4843 544.4843 544.8680 544.8680 544.8680 544.8770
   544.8776 544.8776 544.8776 544.9032 546.2271 559.8992 559.8992 559.8992
   561.2694 561.2694 561.2694 561.6766 564.8586 569.6011 569.6011 569.6104
   569.6104 569.6104 569.6613 569.6613 569.6613 569.7288 569.7288 569.7288
   569.8348 569.8348 569.8348 569.8585 569.8585 574.8838 574.8838 574.8838
   577.0347 577.0347 580.5578 580.5578 580.5578 580.7361 580.7361 580.7361
   580.9184 580.9184 580.9184 580.9717 580.9717 580.9717 584.0646 584.5950
   584.5950 584.6261 584.6261 584.6261 584.7515 589.5170 589.5450 589.5450
   589.5501 589.5501 589.5501 592.0933 592.0933 592.0933 592.0944 592.0944
   592.0944 592.1029 592.1029 592.1029 592.1039 592.1039 592.1039 593.4746
   593.4746 593.4760 593.4760 593.4760 593.4868 613.3693 613.3693 613.3693
   618.4341 618.4341 618.4341 618.8370 618.8596 618.8596 619.1336 619.1336
   619.1336 619.1412 619.1412 619.1412 619.2650 619.2650 619.2650 619.2892
   619.2892 619.2892 619.3792 619.3792 620.3247 624.6178 624.6178 624.6178
   630.0051 630.0051 630.0051 631.4060 631.4060 631.5175 631.5175 631.5175
   631.9372 632.3494 632.6291 632.6291 632.6291 632.6618 632.6618 632.6618
   634.8541 635.0988 635.0988 635.0988 635.6320 635.6320 637.4385 637.4385
   637.4385 637.8036 637.8036 637.8036 638.3089 638.3089 638.3089 638.6237
   638.6237 638.8118 638.8118 638.8118 639.3896 639.3896 639.3896 639.6421
   639.6733 639.6733 640.1769 640.1769 640.1769 640.4068 640.5275 640.5275
   640.5914 640.6390 640.6390 640.6390 640.9176 640.9176 640.9176 641.0282
   641.0282 641.0282 641.7369 641.7369 641.7722 641.7722 641.7722 641.9324
   641.9324 641.9324 641.9479 641.9479 641.9479 642.0268 642.0268 642.0268
   642.0659 642.0659 643.2842 643.2842 643.2938 643.2938 643.2938 643.3020
   643.3142 643.3142 643.3142 643.3171 643.3171 643.3171 645.9328 646.5544
   646.5656 646.5656 646.6012 646.6012 646.6012 646.6133 646.6133 646.6133
   646.6458 646.6458 646.6458 663.8826 663.8826 663.8826 665.8950 665.8950
   667.7322 668.4174 668.4174 668.4174 668.8009 668.8009 668.8009 669.1487
   669.2383 669.2383 669.2383 669.3992 669.3992 669.3992 669.4857 669.4857
   669.4857 669.6181 669.6181 669.6648 669.6648 669.6648 669.8559 669.8559
   669.8559 670.0394 670.0394 670.2168 670.2168 670.2168 670.4340 670.4340
   670.4340 670.6051 670.6051 670.6051 671.6300 673.8464 673.8464 673.8464
   673.8674 673.8674 673.8674 673.9149 673.9149 673.9196 673.9196 673.9196
   673.9921 674.0975 674.0975 674.0979 674.1540 674.1540 674.1540 674.1603
   674.1603 674.1603 674.2206 674.2206 674.2206 675.2945 675.2945 675.3105
   675.3105 675.3105 675.3365 681.3897 681.3897 681.3897 684.0365 684.0365
   684.0365 684.3442 684.3442 684.3442 684.3452 684.3452 685.6437 685.6437
   685.6437 685.7700 685.7700 685.7700 685.8227 685.8227 686.0811 686.0811
   686.0811 686.3118 687.6860 689.8187 690.2051 690.2051 690.2051 690.4343
   690.4343 690.4343 690.9842 690.9842 691.0277 691.0277 691.0277 691.6171
   691.6171 691.6171 691.7895 691.7895 691.7895 691.8910 691.8910 691.8910
   691.9259 691.9259 692.0721 695.7477 695.7477 695.7654 695.7654 695.7654
   695.8512 695.8512 695.8512 695.8845 695.8845 695.8845 695.9139 695.9170

          k =-0.1667 0.1667-0.1667 (  2457 PWs)   bands (ev):

   -29.8727 -11.0031 -10.6807 -10.6807  -7.3564   6.9270   7.4323   7.4323
    13.6104  13.9786  14.4505  14.4505  16.1122  16.1122  23.6991  28.7930
    29.0496  29.0496  33.1523  33.1523  34.6156  35.9023  35.9023  36.4250
    39.0284  39.0284  46.7045  47.1408  47.1408  50.3929  54.3242  54.6020
    54.6020  57.8352  58.0584  58.0584  62.0015  62.0015  62.6114  64.0639
    65.7921  65.7921  66.4322  67.7231  68.1625  68.1625  71.1672  71.4589
    71.4589  74.1668  74.1668  75.3733  75.3733  75.7870  76.9366  77.2355
    77.2355  78.2104  82.0248  82.7699  82.7699  84.4338  85.8562  85.8562
    87.7896  87.7896  89.4903  96.9283  99.8754  99.8754 101.3966 101.7541
   101.7541 107.3252 107.3252 109.2392 112.0506 112.0527 112.0527 113.3951
   113.3951 113.4275 114.6102 114.6102 116.0161 116.1998 116.1998 118.1043
   120.3795 120.7294 120.7294 122.3490 122.3926 122.3926 123.4867 125.1648
   125.1648 125.6988 126.3453 126.4418 126.4418 127.4481 128.9428 128.9428
   131.4805 131.9379 132.4283 132.4283 134.2115 135.1343 135.1343 136.5365
   136.5365 137.7376 137.7376 138.5221 138.5221 139.8914 139.8914 142.1714
   142.8378 143.1949 143.1949 143.6576 145.6546 146.4787 146.4787 148.5204
   151.2169 151.2169 152.0162 152.4312 152.4312 152.5772 155.0465 155.0465
   158.4073 159.0283 159.0283 159.8424 160.5511 160.5511 161.6694 161.7310
   162.3717 162.3717 162.9455 164.1241 164.4593 164.4593 168.0671 168.0671
   168.1838 170.7870 170.7870 171.2440 171.2440 171.2716 172.4640 177.7772
   177.8513 177.8513 181.8031 182.4452 182.4452 182.4943 182.4943 183.3327
   184.8382 184.8382 187.3742 187.8712 187.9004 187.9004 190.5303 190.5303
   191.6728 194.1794 194.1794 196.9572 200.2426 200.2426 201.0011 202.3190
   202.3190 203.7332 204.3331 204.3331 204.7966 206.9865 206.9865 207.3305
   208.6717 209.4248 209.4248 211.2050 211.2050 211.3155 211.6498 212.6155
   212.6155 212.6949 212.6949 214.3831 214.6075 214.6075 215.3054 218.8965
   218.8965 219.3375 220.2479 220.2479 221.2566 222.1996 222.8723 222.8723
   223.2895 223.2895 223.6420 224.8299 224.8299 224.8886 225.5309 226.4361
   226.4361 226.8057 226.8057 227.6671 228.3123 228.7504 228.7504 229.3292
   229.3292 229.7535 232.0696 232.0696 232.6456 232.9714 233.9382 233.9382
   234.4474 234.4474 234.8449 236.8863 237.0887 237.0887 237.8355 237.8355
   238.3428 238.3815 238.3815 239.0171 239.1332 241.0115 241.9521 242.2242
   242.2242 242.7534 242.7534 244.8737 244.8737 244.9874 245.9817 246.9341
   246.9341 248.1309 248.2980 248.2980 248.6320 248.7656 251.7639 251.7639
   253.8348 253.8348 255.0831 255.0831 256.6772 256.6772 257.4328 260.7974
   260.7974 262.1582 263.5230 263.8655 263.8655 264.7611 264.8050 264.8050
   265.7114 265.7114 265.9803 266.0657 268.6786 268.6786 269.8509 269.8509
   270.3111 271.0040 271.0040 271.3896 272.9809 272.9809 273.1785 274.3173
   274.3173 274.7416 274.8624 276.5075 276.5075 277.7070 280.0524 281.2548
   281.2548 283.5933 283.5933 283.6441 286.5948 286.5948 286.8060 287.6186
   287.6186 287.9419 288.1783 291.7484 292.4720 292.4720 294.0024 294.0024
   295.1462 295.7448 295.7448 295.9067 297.4958 297.4958 298.6055 299.4735
   299.8914 299.8914 302.7531 303.1848 303.1848 304.5397 304.5397 305.5591
   306.7702 306.7702 309.7621 310.3360 310.3360 311.0167 311.0167 311.6530
   312.6306 312.6306 313.0189 313.3053 313.4817 313.4817 315.3265 315.3265
   315.6677 315.8256 315.8256 317.2685 319.6900 320.0459 320.0459 320.5651
   320.5860 320.5860 323.8268 325.0934 325.0934 325.5532 325.5532 326.6532
   326.8734 330.7551 330.7551 331.0059 331.8005 331.8005 331.8230 331.9254
   331.9788 331.9788 332.1009 334.4049 334.4049 335.6670 335.6670 336.4353
   336.4353 337.1111 337.1111 337.1645 337.2324 338.0863 338.1340 339.8928
   339.8928 340.6819 340.8983 342.7397 342.7397 343.1442 343.1442 343.3793
   343.5257 343.8173 343.8173 344.1781 344.7696 344.7696 348.5137 349.1320
   349.1320 350.3017 350.3017 350.5691 350.8748 350.8748 351.2677 351.3217
   351.3217 351.7616 351.7616 351.8152 353.0178 353.6073 353.6073 353.7479
   353.9131 353.9131 354.0352 355.1611 355.1611 356.0239 356.0239 356.5813
   356.6908 357.4077 357.4077 358.4687 359.0219 359.0219 359.9956 359.9956
   361.5550 361.5550 361.6278 362.0301 362.2480 362.6636 362.6636 362.8561
   363.5390 363.5517 363.5517 363.7553 363.7553 366.1310 366.2823 366.2823
   366.5553 367.4321 367.4321 368.4573 368.4573 368.8423 368.9612 370.3812
   370.3812 371.8530 373.1276 373.1276 374.5090 375.0216 375.0216 375.3248
   375.7493 375.7493 375.9538 375.9538 376.3086 377.3488 377.3488 377.3719
   377.8802 379.4469 379.4469 379.8503 379.8503 379.9426 380.7113 382.4353
   383.2211 383.2211 383.6750 384.1733 384.1733 384.6640 384.6640 385.1748
   388.0873 388.0873 388.2726 388.2726 388.3380 389.9522 390.6018 390.6018
   392.4506 392.4506 392.8062 393.0325 393.7847 394.3085 394.3085 395.5656
   395.5656 395.6662 397.3776 397.5351 397.5351 399.6735 401.4426 402.4369
   402.4369 403.4579 404.7166 404.7166 405.7501 407.5129 407.5129 407.7556
   408.5898 408.5898 410.1880 410.1880 410.9943 410.9943 412.3500 412.3500
   412.4619 414.4877 414.4877 415.4662 415.4662 415.8217 415.9989 416.6003
   417.4004 417.4004 418.9722 419.5886 419.5886 420.3626 420.3626 421.4018
   425.9749 426.1472 426.3300 426.3300 427.2563 427.2563 427.4321 428.2624
   428.2624 429.3356 431.6032 431.6032 431.8934 433.0414 433.5022 433.5022
   433.9660 433.9660 435.4350 436.5754 436.5754 437.2478 438.7469 438.7469
   440.6693 441.7370 443.6903 443.6903 444.6305 444.6305 445.7458 445.7458
   446.1796 446.2296 446.2296 446.6243 447.0375 447.0375 447.2940 447.3273
   447.5210 447.5210 448.8152 448.8246 448.8246 450.6192 450.7182 451.2720
   451.2720 451.2735 453.2284 453.2284 453.4863 454.3980 454.5234 454.5234
   454.9084 454.9084 454.9422 455.5656 455.5656 455.9558 457.4638 458.1853
   458.1853 459.0857 459.0857 459.1822 459.1822 459.2880 460.0609 460.0609
   460.0620 460.7208 461.0392 461.0392 461.1821 461.2219 461.7936 461.7936
   462.4979 463.5966 463.5966 463.6353 465.2305 465.2305 468.6448 468.7427
   468.7427 469.2008 469.2008 470.4978 470.4978 471.1321 472.1967 472.7397
   472.7397 473.3835 473.5482 473.5482 474.8771 480.2456 480.2456 480.3151
   481.5877 481.5877 481.7437 481.9205 481.9205 482.2561 482.2561 482.5718
   482.7813 482.9030 482.9030 483.0464 483.0878 483.0878 483.1697 484.5226
   485.2522 485.2522 485.8779 486.0205 486.0205 486.2598 486.2598 486.4894
   486.9971 486.9971 487.8495 488.3251 488.3251 488.6898 490.1821 490.1821
   490.5033 491.4567 491.4567 492.0029 492.0029 492.1264 492.3075 492.3075
   492.4804 493.3971 494.6740 494.6740 494.9864 494.9864 495.0865 495.3093
   495.6123 496.2081 496.2081 497.5271 498.3182 498.3182 500.8113 500.8113
   503.9808 504.6997 504.6997 505.0771 505.0771 505.5399 505.5399 505.7589
   506.1502 506.7264 506.7264 506.7935 506.9157 508.4902 510.0345 510.0345
   510.0859 510.0859 510.7136 511.4490 511.4490 513.0233 513.5437 513.7348
   513.7348 514.6583 514.6583 514.9519 515.5038 515.6396 515.6396 515.7219
   515.9499 515.9499 516.2751 516.5045 516.6133 516.6133 517.0002 517.0002
   517.2063 518.3213 518.3213 519.0405 520.3765 520.3765 520.4775 520.7567
   520.7567 520.8386 520.9480 520.9480 522.8480 522.8480 522.9948 523.7682
   523.8503 523.8503 524.3264 524.4052 524.4052 524.6899 524.6899 524.8015
   524.9216 527.2522 529.0852 529.0852 530.0565 530.2654 530.2654 530.3284
   531.7122 531.7122 531.9172 532.8397 532.8397 534.0727 534.1699 534.1699
   535.3302 535.6097 535.6097 535.8544 535.8544 535.9023 535.9101 535.9101
   538.2839 538.2839 538.3068 539.4035 539.7775 539.7775 540.4771 540.4771
   540.4996 540.5394 541.1952 541.1952 541.2302 543.5390 543.5390 544.9602
   545.3037 545.3037 545.6306 546.4172 546.4176 546.4176 548.0565 548.0565
   549.3441 549.3441 549.3743 549.4428 551.7021 551.9037 551.9037 552.7749
   552.7749 554.3077 554.5207 554.5207 554.5656 554.7222 554.7222 555.0689
   555.1926 555.1926 556.1820 556.1820 556.2084 556.5274 557.1446 557.1446
   557.3164 557.3164 557.3560 557.3661 558.0125 558.0125 558.6568 561.3222
   561.5508 561.5508 561.6395 563.4012 563.4012 563.6079 563.8206 563.8206
   564.4540 564.5396 564.5396 565.2845 565.2845 565.2983 565.6854 565.6854
   565.8921 566.2161 566.2161 566.2928 567.9044 567.9044 568.5605 569.3119
   569.3119 570.1096 570.4134 570.4134 570.4859 571.0580 571.0580 571.3748
   572.0033 572.0033 573.2040 575.3963 575.3963 576.0122 578.2803 578.2803
   578.3064 578.9469 578.9469 578.9800 581.1886 581.1886 581.1969 583.8000
   584.9460 584.9460 586.0178 586.0178 586.1918 590.1719 590.1719 590.9119
   594.6514 596.1255 596.1255 596.2910 597.2318 599.6627 599.6627 601.2964
   601.6029 601.6029 602.1128 602.3087 602.3087 602.4257 603.2897 603.2897
   603.7518 604.2078 604.2078 604.9123 604.9123 605.2817 605.2817 605.3281
   606.2498 607.0666 607.0666 607.4838 607.4838 607.8433 609.1018 609.1018
   609.5178 609.5178 609.5821 611.0109 613.0138 613.0138 613.7326 614.4017
   614.4017 616.6648 616.6648 616.6777 617.1209 617.3162 617.3162 617.6459
   617.7218 617.7218 618.9617 619.4921 619.4921 619.6426 619.6426 619.7190
   619.8567 620.1469 620.1469 620.2255 620.2255 620.2325 620.3662 621.6818
   621.6818 621.8790 626.7492 626.7492 626.8040 628.9773 628.9773 631.3604
   631.3604 631.6975 631.8424 632.4823 632.4823 632.9244 633.4832 633.4832
   633.8012 634.4063 635.3609 635.3609 635.8813 635.8813 636.6922 636.6922
   636.7894 637.1254 637.9065 637.9065 638.5209 638.5520 638.5520 639.8288
   639.8288 640.0008 640.0469 641.2560 642.1172 642.1172 642.8792 642.8792
   643.6552 643.8784 643.8784 644.1420 644.1420 644.1442 644.2042 644.8557
   644.8557 644.9494 645.7631 645.7631 646.2455 646.4080 646.4100 646.4100
   648.4683 648.4683 648.5057 648.8427 648.8427 649.0450 649.0756 649.0756
   649.3088 649.7060 651.0297 651.0297 651.2831 652.5090 652.5090 652.9477
   652.9477 653.4187 654.3346 654.3346 654.6555 655.4721 655.4721 655.6570
   656.1863 656.1863 656.2992 656.2992 656.4427 656.4659 656.5397 656.7413
   656.7413 658.2852 658.2852 658.3774 659.4117 659.4117 659.4712 659.6548
   661.0603 661.0603 661.5089 662.0057 662.2348 662.2348 663.1262 663.1262
   663.4978 663.4978 663.5157 663.7408 665.4356 665.4838 665.4838 666.4647
   666.4647 666.5076 666.9071 668.5664 668.5664 668.6241 668.7558 668.7558
   669.0681 669.7521 669.7521 671.1307 671.1307 671.7482 671.8710 671.8710
   671.8892 672.0678 672.1882 672.1882 672.6063 672.6063 673.0324 673.0324
   673.0429 673.1538 673.3834 674.5948 674.5948 674.8897 675.3191 675.3191
   676.2453 676.2453 676.2741 677.2934 677.4471 677.4471 677.4546 677.4946
   677.4946 677.6342 677.7458 677.7458 677.7608 678.9899 678.9899 681.3693
   681.3693 681.5079 681.5079 681.5215 681.5249 682.9124 682.9124 683.8274
   685.1258 685.1258 685.2546 685.2546 685.3154 685.3227 685.6230 685.6230
   685.8489 685.9878 685.9878 686.3568 687.9113 687.9113 688.0605 688.2020
   688.2028 688.2028 689.6179 689.6179 689.6529 693.4811 693.4811 694.0689
   694.2870 694.2870 694.3422 694.4786 694.4786 694.4816 696.3588 696.3588
   696.4749 698.0757 698.0757 698.2175 698.4823 698.4823 698.5105 699.6764
   699.7606 699.7606 700.7280 700.7280 700.7799 702.1684 704.1325 704.1325

          k =-0.3333 0.3333-0.3333 (  2442 PWs)   bands (ev):

   -29.8219 -11.5346 -10.7073 -10.7073  -6.7850   5.6749   6.8428   6.8428
    14.3068  15.4918  15.4918  15.5287  17.3901  17.3901  22.9843  26.2743
    26.2743  29.4172  32.3863  33.1018  33.1018  35.3575  35.3575  38.5551
    42.4949  42.4949  45.2711  45.2711  49.4738  50.8300  51.7624  53.6827
    53.6827  55.3382  55.3382  57.0044  59.4915  60.0940  63.0764  63.0764
    64.5796  64.5796  64.8106  66.5425  66.5425  67.5935  70.8935  72.3366
    72.3366  74.6037  74.6037  76.8135  78.7383  80.2062  80.2062  82.2995
    82.2995  84.8472  84.9702  85.0169  85.0169  88.7167  88.7167  88.8157
    91.7502  94.0757  94.0757  95.9157  95.9157  96.6196  96.9044  96.9044
   100.0740 102.8959 102.8959 103.7846 103.7846 104.1665 106.2035 106.9872
   106.9872 111.3446 111.3446 112.3885 114.1297 115.8690 117.4117 117.4117
   120.0753 120.0753 120.6358 121.0808 121.5048 121.5048 121.8379 123.2335
   123.2335 125.9749 127.9484 127.9484 128.4892 128.5432 128.5866 128.5866
   132.6894 132.6894 134.3943 134.9235 134.9907 134.9907 136.6579 136.6579
   137.3079 138.5405 138.5405 138.8535 141.0336 142.9586 142.9586 144.2612
   146.0438 147.4883 147.4883 149.2606 149.2606 151.1272 151.1272 151.2932
   152.4695 152.5952 153.4679 153.4679 154.0141 154.2289 154.2289 154.8263
   154.8263 156.1465 156.1465 156.4616 158.0946 158.0946 160.2623 160.7999
   162.0189 162.0189 163.8063 165.7176 165.7176 166.3218 168.4698 168.4698
   172.0801 172.0801 172.3091 173.2762 175.7371 176.3907 176.3907 176.9405
   176.9405 181.4548 183.9572 184.5436 184.5436 187.0919 187.0919 188.0954
   188.1060 188.9893 188.9893 189.6129 189.6129 189.7737 190.6172 190.6172
   193.3977 193.3977 193.7976 193.7976 195.2936 195.6954 195.6972 195.6972
   197.4539 197.4539 197.6044 198.7506 199.9968 199.9968 202.0162 202.1763
   203.3258 203.3258 204.5823 204.5823 205.1132 205.4713 205.9604 205.9604
   207.9295 207.9295 209.8663 210.0446 213.0421 215.4436 215.4436 216.8159
   217.1306 217.1306 217.8016 220.0555 220.2822 220.2822 220.7061 220.7061
   222.1478 222.1478 222.8810 223.3704 223.6043 223.6043 223.7449 224.7066
   224.7066 225.3930 225.3930 225.6818 228.2339 228.2916 228.2916 229.3704
   230.8850 230.8850 231.0381 232.6760 232.6760 234.4383 236.5742 236.5742
   238.1128 238.1128 238.1545 238.7935 238.7935 238.8597 239.2158 240.1944
   240.1944 240.9692 241.2849 241.2849 241.3553 242.3346 242.3346 243.3239
   244.1520 244.1520 244.4821 245.9943 245.9943 248.6747 248.6747 251.7444
   254.4838 254.4838 254.5759 255.5615 255.7536 255.7536 256.1029 256.1029
   256.1215 256.3053 257.4404 257.5309 257.5309 259.2506 259.2506 259.5829
   259.6681 261.1591 263.4864 263.4864 264.0878 265.7621 265.7621 267.2717
   267.2717 268.7304 269.6191 269.6191 271.2399 271.6177 271.6472 271.6472
   273.3521 273.3521 274.0423 274.0423 274.3210 275.2309 275.2309 275.3679
   275.4538 277.1784 277.1784 279.8477 279.8935 279.8935 283.0125 283.0125
   283.4475 285.2333 287.1774 287.1774 287.4845 289.5992 289.5992 290.2444
   290.2444 291.0511 292.3231 292.3231 292.6236 292.6236 293.2245 293.2580
   293.4118 293.9299 293.9299 294.4661 294.4661 294.7278 296.6950 296.7838
   296.7838 298.0549 298.0549 298.2474 299.4874 299.9226 299.9226 300.4630
   302.1981 305.5507 305.5507 307.5603 307.5603 308.4747 308.9075 308.9075
   309.9569 309.9569 310.0302 310.5579 311.4950 311.4950 312.3166 312.3166
   312.4397 313.8112 314.6412 315.6345 315.6345 318.6358 318.6358 319.7423
   320.7486 321.2684 321.2684 323.1712 323.2835 323.2835 324.6297 325.0121
   325.1382 325.1382 325.5232 325.5232 326.6369 326.6369 326.8842 327.5635
   328.0784 328.0784 328.2420 328.2420 328.8063 328.9166 328.9166 330.6270
   331.9747 331.9747 332.8749 332.8749 333.2401 334.0960 334.0960 334.6600
   334.8345 335.9126 335.9126 338.4710 338.4710 339.5285 340.8764 340.8764
   342.1521 342.2306 342.5180 342.5180 343.3127 343.3127 343.9576 344.6524
   344.6524 344.9311 345.1284 345.1284 345.3024 345.9764 348.6490 348.6490
   350.2410 353.2936 353.2936 353.6185 355.7051 355.7051 356.4412 356.5442
   356.5442 357.4662 357.6823 357.6823 359.0769 359.1863 359.1863 359.6934
   359.6934 359.9271 360.2237 360.5782 361.8725 361.8725 362.6085 363.2795
   363.2795 363.4059 364.1011 364.1011 364.2047 364.9379 364.9379 365.7230
   366.4151 367.0571 367.0571 367.7095 367.7095 368.4604 370.1927 370.1927
   370.5112 370.5867 370.5867 370.6481 371.0275 371.0275 371.7673 371.8549
   371.8549 371.8654 374.8215 375.9154 375.9154 376.7938 377.7682 377.7682
   377.9152 377.9152 378.6214 378.6291 378.7323 378.7323 379.9746 379.9746
   380.1214 380.5286 381.3063 381.3063 384.7457 384.7457 387.8467 387.8467
   388.8736 390.5174 392.1165 392.1165 393.2274 393.7031 393.7031 394.2267
   394.2393 394.2393 395.7154 396.0454 396.0454 396.3111 396.3111 396.4495
   396.8063 398.7888 398.7888 398.9334 400.5048 400.5048 401.1539 401.9800
   401.9800 402.5736 402.9573 402.9573 403.3679 404.1869 404.1869 404.5875
   404.9959 405.3626 405.3626 407.4222 408.0615 408.0615 409.8587 409.8587
   410.1485 410.6837 410.6837 410.7161 411.4623 411.4623 412.2162 413.9296
   414.1275 414.3695 414.3695 414.6297 414.6297 415.6916 415.6916 415.8641
   415.8641 416.0049 416.2632 416.2632 416.3100 417.3301 418.2419 418.2419
   418.7435 419.5416 419.9446 419.9446 423.0576 425.7363 426.6993 426.6993
   428.6269 428.6269 428.8092 428.8092 428.9716 429.1104 429.8873 429.9132
   429.9132 430.5324 430.5324 431.2139 431.3363 431.3363 431.7532 431.7532
   431.8429 431.8440 432.3853 432.3853 432.5944 432.9336 434.2172 434.2172
   437.3972 437.3972 437.4870 438.1692 438.1692 438.2064 439.8256 439.8256
   440.6311 440.6311 440.6510 441.6158 443.0368 443.0368 446.2199 447.5484
   447.5484 449.2107 449.2107 449.2138 449.8708 455.9405 455.9405 458.1383
   458.4753 458.4753 460.1236 461.1358 461.1358 461.5455 461.6956 461.6956
   462.3676 462.4187 462.4187 462.5472 462.6051 462.6051 462.7147 462.7147
   462.8175 463.3885 463.3885 463.5545 463.9522 463.9522 464.2201 465.5847
   465.7022 466.1935 466.1935 466.3077 466.8613 466.8613 467.4823 467.4823
   467.8660 468.8799 468.8799 469.0067 469.5848 469.5848 471.7629 474.2276
   474.2276 475.3942 476.0084 476.1135 476.1135 478.4738 478.4738 479.9269
   480.3774 480.3774 480.8591 481.1559 481.1559 481.2632 481.7013 481.7013
   482.4556 483.2051 483.2051 483.5487 483.5487 483.6867 483.6867 483.7902
   483.8091 484.0205 484.2903 484.2903 484.9247 485.5855 485.5855 486.0394
   486.0394 486.3082 486.9808 486.9808 487.0659 487.1310 489.0199 489.0199
   489.9492 492.3270 493.5101 493.5101 494.2121 495.2596 495.2596 495.3653
   496.8091 496.8091 497.2046 497.2913 497.2913 497.5211 498.5073 498.5073
   498.5254 498.7367 498.9139 498.9139 498.9602 498.9602 499.0148 499.0703
   499.2865 499.2865 499.3517 499.6828 499.8613 499.8613 500.2460 500.2460
   500.7396 500.7396 500.8851 501.7168 501.7168 501.8590 501.9475 502.0797
   502.0797 502.2877 502.2877 502.3681 502.3900 502.3900 502.5940 502.5940
   503.9611 505.5471 505.5471 506.8065 509.3986 509.3986 509.4320 513.3089
   513.3089 513.3294 514.3736 514.3736 514.9220 514.9849 514.9849 515.1630
   517.1602 517.5760 517.5760 518.2131 518.2131 519.0044 519.0044 519.0520
   519.6698 522.9468 524.1202 524.1202 526.3873 526.3873 528.2412 528.9310
   528.9310 531.0537 531.4934 531.4934 531.9340 531.9340 532.1551 532.1551
   532.3738 532.5642 532.9510 532.9510 532.9826 533.2242 533.2242 533.2259
   533.4350 533.4852 533.4852 534.0273 534.7754 534.7754 535.1960 535.1960
   535.2198 535.8178 537.1408 537.1408 537.1802 537.6571 537.6571 539.6922
   541.0751 541.6876 541.6876 542.4270 542.4270 543.0142 543.1480 543.1480
   543.2439 543.7853 543.7853 543.8270 544.6672 544.6672 544.7920 547.4373
   547.4373 547.5509 549.0293 550.4951 551.8577 551.8577 552.1105 552.1105
   552.2116 552.3592 552.3592 552.5113 553.6908 553.6908 554.1380 554.5405
   554.5405 554.8574 555.2197 555.2197 555.8004 555.8240 555.8240 556.8563
   556.8563 556.9740 557.2477 558.0382 558.0382 558.5582 558.6358 558.8349
   558.8349 562.3865 565.8547 565.8547 566.7051 567.2281 567.2281 567.4449
   567.4449 567.4953 567.7221 569.0586 569.0586 569.6675 569.6675 569.8210
   570.0173 570.0173 570.0772 571.2627 571.2627 571.2735 571.4822 571.4822
   572.0946 573.7982 573.7982 573.8364 575.0921 575.0921 575.0963 576.0789
   576.0789 576.6710 577.0562 577.1500 577.1500 578.4181 578.4181 578.4802
   579.4653 579.4653 580.6846 582.1750 582.1750 584.2151 585.4467 585.4467
   586.1130 586.3584 586.3584 586.5659 586.8524 586.8524 587.0223 587.4251
   587.4251 587.5989 587.9873 587.9873 588.0053 588.0053 588.0585 588.2690
   588.3542 588.3647 588.3647 589.3863 589.3863 589.4019 594.2391 594.4535
   594.4535 597.9332 599.6293 599.6293 600.3456 600.3456 600.9737 601.8934
   601.8934 601.9103 602.1053 602.1053 602.2136 602.8726 603.1458 603.1458
   603.9238 603.9238 604.3856 604.3856 604.8093 604.8093 604.8108 604.8563
   606.5370 606.9759 606.9759 607.0759 607.1041 607.1041 607.6208 607.6208
   608.3439 608.6052 610.2295 610.2295 610.3069 613.1591 613.1591 613.1865
   616.1563 617.3198 617.3198 619.0675 619.1128 619.1128 619.6624 619.6624
   619.8469 620.0500 620.0500 620.8997 620.9046 620.9046 621.1856 621.1856
   621.2599 621.3224 621.3335 621.3335 621.3378 621.8175 622.2268 622.3850
   622.3850 623.9465 623.9465 624.0020 625.2007 625.2007 625.3710 625.8105
   625.8105 625.9964 626.2288 626.2288 628.0321 628.0321 628.0386 628.5620
   631.6893 631.6893 631.7522 631.7522 631.8131 631.8603 632.0708 632.5043
   632.5043 633.6735 633.6735 633.9294 634.8527 634.8527 634.9952 635.7895
   635.7895 635.7986 636.0072 636.8386 636.8386 637.9857 638.3242 638.3242
   638.9397 638.9397 638.9488 639.2390 640.2403 640.2403 640.2688 640.4654
   640.4654 640.5967 641.2980 641.2980 645.4903 645.5916 645.5916 645.7186
   645.7186 645.9066 646.2812 646.2812 646.7773 646.7773 646.7826 647.0280
   649.3425 649.3425 649.3590 650.8452 650.8452 652.7574 652.7941 652.7941
   653.6506 653.8724 653.8724 654.0289 654.9113 654.9113 655.1120 655.7671
   656.0304 656.0304 656.1882 656.1882 656.2083 656.7634 656.7634 657.0320
   657.0320 657.0663 657.2729 657.6549 657.6549 657.6783 657.7248 657.7248
   657.7432 665.5135 666.7678 666.7678 668.2647 668.5611 668.5611 668.6655
   668.6840 668.7118 668.7118 668.9096 668.9096 670.1126 671.3899 671.3899
   672.2120 672.2120 672.5182 672.8709 672.8709 673.1916 673.1916 673.2292
   673.3593 673.4193 673.4193 673.4202 673.9028 673.9028 673.9117 674.5913
   674.5969 674.5969 674.6241 674.6241 674.6251 674.6574 674.6574 674.7006
   676.9723 676.9723 678.7629 678.8319 678.8319 679.7340 680.2677 680.2677
   680.3057 680.3057 680.3804 680.6307 680.6750 680.6750 680.7060 681.9706
   681.9706 682.2335 682.4061 682.4061 682.4149 683.4487 683.4487 683.4799
   687.5829 688.1282 688.1282 689.3075 689.3075 689.4755 690.2289 690.7026
   690.7026 691.4131 691.4131 691.5419 691.5479 691.5479 691.6697 693.0846
   693.0846 693.1211 696.6623 696.6623 696.8052 697.1601 697.1601 697.1832
   700.0281 700.7838 700.7838 702.2786 702.2786 702.8322 703.1923 703.1923
   703.2424 704.9294 704.9294 705.2024 705.6186 705.8656 705.8656 705.9723
   706.0568 706.0568 706.0859 706.0859 706.1624 706.5667 706.5667 706.5898

          k = 0.5000-0.5000 0.5000 (  2452 PWs)   bands (ev):

   -29.7963 -11.7600 -10.7204 -10.7204  -6.5369   5.1539   6.5853   6.5853
    14.8129  16.1041  16.1041  16.2927  18.1593  18.1593  21.9925  24.7363
    24.7363  29.9151  31.9809  33.8140  33.8140  34.4062  34.4062  41.3381
    44.6400  44.6400  44.8730  45.1937  45.1937  50.6265  50.6265  51.9133
    53.0114  54.6133  54.6133  56.9335  57.1718  60.7869  62.5738  62.5738
    64.8487  65.2525  65.2525  66.6134  68.1044  68.1044  70.5615  71.0953
    71.0953  75.3473  76.8579  76.8579  80.3146  81.0788  81.0788  85.3818
    86.8712  86.8712  87.7958  87.7958  88.5883  88.5883  90.9187  90.9187
    91.5929  92.9379  92.9379  92.9965  94.0583  94.0884  94.8460  96.6092
    96.6092 101.4251 103.2082 103.2082 104.2600 106.6316 106.6316 106.7350
   106.7350 107.3744 107.3744 110.6234 110.6234 114.0459 114.3109 117.1875
   117.1875 117.2251 118.5670 120.2477 121.4551 121.4551 121.9303 122.1675
   122.1675 124.8167 128.2132 128.2132 128.4620 129.4421 131.2648 131.2648
   132.3236 132.5832 132.5832 133.6555 135.2345 136.1008 136.1008 138.8521
   138.8521 141.0096 141.3400 141.3400 142.6032 142.6032 142.8112 142.8112
   143.7754 145.1647 145.9919 148.1760 148.9178 148.9178 149.2486 152.2053
   152.2053 154.5787 154.5787 155.6023 156.4937 156.4937 158.0075 158.0075
   158.3594 158.4381 160.1796 160.1796 160.4021 162.1265 163.5428 164.2171
   164.2171 164.4840 164.4840 167.1136 169.8476 169.8476 169.8675 169.8675
   171.8424 171.8464 171.8829 171.8829 172.6458 172.6458 174.2740 174.2740
   180.1459 180.1459 180.1946 180.6898 180.6898 181.2159 184.5068 184.5068
   184.7267 184.7267 184.7417 184.8827 186.2998 186.2998 186.6163 189.4545
   192.3343 193.0733 193.0733 194.5769 196.3753 197.4807 197.4807 200.2030
   200.2030 201.0927 201.0927 201.4877 202.7701 203.0571 203.7843 203.7843
   205.3198 205.9312 205.9312 207.0753 207.0753 207.6905 208.4488 208.4488
   209.2465 209.2465 209.3108 209.5706 209.8164 209.8164 210.2044 210.2044
   211.2405 212.1000 216.2424 216.2424 217.4414 219.4841 219.7705 219.7705
   221.1571 221.1571 221.4864 222.3058 222.3608 222.3608 222.8359 223.0682
   223.0682 223.4943 223.4943 224.8231 225.0464 225.0464 227.7513 227.7513
   228.8474 229.3374 229.3374 230.7599 231.5798 233.5764 233.6176 233.6176
   234.2498 234.2498 234.2906 235.8630 241.9941 242.5487 242.5487 242.7012
   242.7012 243.3702 244.4223 244.8715 244.8715 246.8552 246.8552 247.1566
   247.4568 247.5937 247.5937 248.8060 248.8060 250.0870 250.2084 250.2084
   250.3866 250.5990 250.5990 250.7234 252.7145 254.1731 255.5517 255.5517
   255.5844 256.0168 256.0168 262.9124 262.9124 263.2424 263.2424 266.4535
   267.4052 267.4052 267.6675 269.2166 269.2166 271.6121 272.8988 272.8988
   273.4566 273.4615 273.4615 273.5223 273.6346 273.6346 273.7635 273.7635
   273.9520 273.9520 274.0113 274.1720 274.1750 276.8764 277.5052 278.5563
   278.5563 282.4343 282.9993 282.9993 284.0339 284.0339 284.2244 284.6030
   285.2190 285.2190 285.2902 285.2902 285.4680 285.4680 285.6681 285.6681
   285.7954 286.8680 287.0566 287.0566 287.0776 287.5306 288.0742 289.0999
   289.0999 289.1447 289.1447 290.6733 290.6736 294.9736 299.6293 299.6293
   299.8329 299.8329 300.7656 300.8855 300.8855 301.2335 301.2867 301.2867
   303.7819 303.7819 304.5551 304.5927 304.5927 305.0534 305.0534 307.7429
   307.7429 308.7084 309.1819 309.1819 310.6207 312.3957 312.3957 312.4640
   312.4640 312.5024 312.7171 312.7292 313.7794 313.7794 313.9411 314.0988
   315.2762 315.2762 315.7867 317.9399 317.9399 318.6886 318.6886 319.8869
   322.9477 322.9477 323.6402 324.2113 325.1494 325.1494 325.6239 325.6239
   326.0105 326.0105 326.1074 326.6280 326.8347 326.8347 326.9859 328.9522
   334.4311 334.7407 334.7407 335.4911 335.4911 336.9179 336.9179 337.7631
   337.8143 337.8270 337.8270 337.9262 338.5238 338.5238 339.1193 339.7848
   339.7848 340.3232 340.6038 343.8139 343.8139 344.4870 344.4870 345.1364
   345.6352 347.4683 347.4683 348.2509 349.0020 349.3389 349.5347 349.5347
   349.9202 349.9202 350.5016 350.5016 350.5616 350.5616 350.9347 352.5141
   353.3863 353.3863 354.3298 354.3298 355.4280 355.6204 355.6204 359.2436
   359.2436 360.3156 360.6892 361.3012 361.3012 362.3317 362.7404 362.7404
   363.2199 363.5335 363.5335 365.1032 365.2828 365.2828 365.3802 365.3802
   365.6503 366.9301 368.4571 368.4763 368.4763 368.4915 368.4915 368.5649
   371.4927 372.4112 372.4112 374.8358 374.8358 376.5173 376.5173 376.9611
   377.7583 377.7583 378.0343 378.0363 381.7749 381.7959 381.7959 383.4733
   385.0927 385.0927 386.1959 386.1959 386.3348 388.8273 388.8273 388.9418
   389.2812 389.2812 389.4829 390.0796 390.0796 390.1428 390.1826 391.3254
   391.7451 391.8810 391.8810 391.9837 391.9837 392.0951 392.8325 392.8325
   393.0267 395.7904 395.7904 396.3416 396.3416 397.6896 397.7035 397.7035
   398.2570 398.2570 398.7145 399.6532 399.6532 399.8391 400.8516 402.0775
   402.8448 402.8719 403.3548 403.3964 403.3964 403.4191 403.4191 403.6687
   403.6687 403.7980 403.7980 404.0343 404.0343 404.1451 404.1873 404.1873
   404.2044 405.4785 405.4785 405.6184 405.6520 405.6520 405.7935 409.3080
   414.4484 414.4484 415.2445 415.5355 415.5355 415.8378 416.0219 416.0219
   416.8307 417.1179 417.1179 417.1198 417.1198 417.4646 417.4646 417.4733
   417.5684 418.9331 418.9575 418.9575 419.1347 419.1347 419.1485 419.1488
   426.3901 426.3901 426.7908 428.2884 428.6462 428.6462 428.9345 428.9345
   429.0008 429.1690 429.1690 430.7442 432.1786 436.0728 436.1271 436.1271
   437.5354 438.9063 438.9063 438.9306 438.9306 440.1478 440.1478 440.2820
   440.2820 440.5570 440.5726 440.5726 440.7874 440.7874 440.8257 440.8267
   441.9216 442.0295 442.0295 444.4947 444.4947 444.5401 444.5401 444.9017
   446.2983 446.2983 448.3261 448.3261 450.1546 453.1133 453.4732 453.4732
   453.9201 453.9201 453.9547 454.3349 454.3349 454.3845 454.3845 455.9336
   458.0294 458.5756 458.5756 458.5944 458.5944 458.8273 458.8292 459.1881
   459.1881 460.8600 460.8600 461.0674 462.7194 462.7355 462.7355 462.7774
   462.8550 464.1996 464.5621 464.5621 466.1045 466.2196 466.2196 470.5938
   470.5938 470.6556 470.6556 471.5966 476.0890 476.0890 476.9725 476.9725
   477.0387 478.1237 478.1237 478.7620 478.8531 478.8531 478.9651 479.1376
   479.1376 479.9381 479.9381 479.9951 480.0010 480.0120 480.0120 480.0130
   480.3821 480.4057 480.4057 480.9400 481.2828 481.2828 481.3413 481.3547
   481.3547 481.8171 482.1544 482.2118 482.2118 482.3151 482.3151 482.8564
   482.8564 483.0860 483.1782 483.2763 483.2763 484.2529 484.2529 484.2768
   484.2768 484.2790 484.4451 485.3941 488.9275 488.9275 490.7421 490.7421
   490.8971 492.6364 493.2578 493.2578 493.3537 493.3537 493.4013 493.8733
   495.9781 496.0103 496.0103 496.1865 496.1944 496.1944 498.5778 500.8101
   500.8101 502.5586 502.5586 504.9544 505.4409 505.4409 506.3439 506.3439
   506.4582 506.5191 506.5476 506.5476 506.8768 506.8768 506.9142 506.9901
   507.2268 507.2268 507.4666 507.4666 507.6003 507.6319 508.4133 508.4133
   508.6937 509.0286 509.0286 509.3909 509.3909 509.4915 509.4991 509.4991
   509.5285 511.3707 516.2220 517.4769 517.4769 518.8711 518.9660 518.9660
   519.3688 519.8557 519.8557 519.9859 519.9859 520.8825 520.8825 521.0191
   521.3112 521.3150 521.3150 521.4241 521.4241 521.5768 521.5786 521.6606
   521.6606 522.4361 523.9142 528.0149 529.6132 529.6132 530.7491 530.9533
   530.9533 532.1924 535.0920 535.0920 535.3467 535.3467 535.6250 535.6250
   535.6803 535.6831 535.6831 535.7202 537.7658 537.7658 539.7390 541.6857
   541.6857 541.7635 542.1311 542.1311 542.2572 542.4640 542.4640 543.7901
   544.2309 544.2309 544.2349 544.3373 544.3373 544.6895 544.7206 544.7240
   544.7240 544.9641 544.9641 545.3506 545.4795 546.3951 546.3951 546.5239
   546.5239 548.0285 548.5996 548.5996 548.6516 548.7043 548.7043 548.7416
   550.0511 551.1302 551.1302 552.7192 552.7192 556.1933 558.1494 558.1494
   558.5481 558.6090 558.6090 559.0007 559.4213 559.4740 559.4740 559.8360
   559.8360 559.8689 559.8689 559.9680 559.9680 560.0373 560.0376 561.7299
   562.7435 562.7461 562.7461 562.7564 562.7564 562.7848 569.7327 569.7327
   569.9323 571.1451 571.1889 571.5356 571.5356 571.5395 571.5395 571.9123
   571.9123 571.9888 571.9888 572.0692 572.0692 572.1001 572.1910 572.9094
   574.0556 574.0556 574.6388 575.1101 575.1101 575.3110 575.3111 575.3976
   575.3976 576.4735 576.4735 579.8686 581.7826 582.9682 582.9682 583.7911
   584.5612 584.5612 584.7272 585.0624 585.0714 585.0714 585.1346 585.2961
   585.2961 585.4120 585.4120 585.4392 585.4392 585.5918 585.8771 587.6726
   592.3426 592.3426 592.6368 593.9621 593.9621 594.9445 595.0655 595.0655
   595.1233 595.2332 595.2332 596.0654 596.0654 596.1327 596.1327 596.5644
   596.5646 596.5866 596.5866 596.8035 596.8346 596.9783 596.9783 597.0160
   597.0160 597.0471 597.1382 597.2013 597.2013 599.0199 599.1520 599.1786
   599.2870 599.2870 599.3272 599.3272 600.6671 600.6671 600.6760 600.6760
   600.6775 600.7104 600.7104 600.7154 600.7154 600.7590 600.7689 600.7705
   611.8952 611.8952 611.9540 612.4621 612.4621 612.8230 612.8659 612.8659
   612.8971 612.8971 613.0305 613.0353 613.2034 613.2773 613.3256 613.3256
   613.3726 613.3726 616.1438 616.1438 618.9922 619.3677 619.3677 621.4118
   622.9711 622.9711 623.0181 623.1007 623.1007 623.1183 623.8240 623.8240
   624.3173 624.4653 624.4653 624.5647 624.7659 624.7716 624.7716 624.7911
   624.7911 624.8042 624.9694 624.9694 625.3668 625.3668 625.4182 626.2097
   628.6867 631.8214 631.8214 631.8941 632.0279 632.0338 632.0338 632.1041
   633.5487 633.5487 633.7851 634.3038 634.3038 634.3620 634.3620 634.8099
   635.3161 635.4258 635.4258 635.6207 635.6207 635.6216 635.6216 638.0193
   638.1487 638.3206 638.3206 638.3268 638.3268 638.5828 638.5828 638.6366
   638.6366 638.6400 638.7209 638.7209 638.7627 638.7901 638.7901 638.8548
   638.8850 639.5369 641.3940 641.3940 641.3957 641.3957 642.8980 642.8982
   648.9387 648.9387 649.8243 649.8243 649.8362 650.3654 652.1084 652.2360
   652.2360 652.2922 652.2922 652.4176 656.0777 656.0777 657.6082 659.2596
   659.2596 659.4922 659.8959 660.3458 660.3458 660.3843 660.3843 661.4698
   661.4698 661.5897 661.5897 661.6539 661.7801 661.8790 662.1612 662.1612
   662.2370 662.2474 662.3861 662.3861 662.4025 662.4025 662.5816 662.5816
   662.7517 663.3813 663.9114 663.9114 664.0948 664.0948 664.1216 664.1430
   669.3149 670.8081 674.2400 674.2400 674.9244 675.1865 675.1865 675.2100
   675.4793 675.4793 675.4995 675.4995 675.5304 675.7222 675.7222 675.7251
   675.7251 675.8167 675.8538 676.0563 676.1792 676.1792 676.2643 676.2643
   676.2909 676.2919 676.3056 676.3118 676.3118 676.3399 676.3399 676.5266
   677.7976 677.7976 678.0606 678.1265 678.1265 678.7015 678.7015 678.7071
   678.7294 678.7294 678.7317 678.7317 678.7912 678.7912 678.8100 679.0574
   679.8912 679.8916 679.9078 679.9078 679.9093 679.9093 685.7736 685.7736
   685.8306 686.5326 686.5326 687.4539 691.4307 691.4307 691.5101 691.5101
   691.5140 691.5236 699.4026 699.4026 699.6647 701.6832 701.6832 702.0851
   702.0851 702.1351 702.1351 702.1814 702.1836 702.9677 702.9682 702.9887
   702.9887 702.9907 702.9907 703.0297 703.0297 703.0436 703.0436 703.0500
   703.0743 703.0987 705.7984 705.7984 705.9056 706.9100 706.9100 708.3890

          k = 0.0000 0.3333 0.0000 (  2445 PWs)   bands (ev):

   -29.8645 -10.9887 -10.7236 -10.7236  -7.3333   6.5798   7.5938   7.5938
    13.1545  13.6322  14.9439  14.9439  15.7541  16.8144  24.1622  28.1559
    28.1559  29.4821  31.1700  34.8539  35.3119  35.8173  35.8173  37.7050
    37.7050  39.4803  45.2929  47.4752  48.7899  48.7899  53.6916  55.4014
    55.8533  55.8533  58.1056  59.5114  61.1349  61.1349  61.8405  65.0745
    65.7903  65.7903  66.6265  67.5460  67.5460  68.4755  68.5977  70.3757
    71.2054  73.0155  75.2101  75.2101  77.0190  77.0190  77.6294  77.9718
    80.2754  80.2754  80.7287  80.8744  84.5903  84.5903  87.3427  87.3536
    88.2716  88.8633  88.8633  96.5745  98.8797  99.6275  99.6275 100.4697
   102.8370 108.4200 108.4200 109.2665 109.7304 109.7304 111.8123 112.3445
   112.6482 112.6482 112.7449 113.5215 113.8727 113.8727 117.1842 117.6200
   119.3850 119.3850 119.5532 120.1979 122.4408 123.9690 124.9133 124.9133
   126.8507 127.4650 127.4650 127.9705 128.2379 128.2677 129.5758 130.1017
   130.1017 131.9916 133.2669 133.2669 134.8948 135.1543 136.7918 136.7974
   136.7974 137.4284 138.3521 139.2081 140.0346 140.0346 140.3899 141.8609
   141.8609 144.1598 144.1598 145.3052 145.7024 145.7024 145.8590 146.5756
   147.2385 149.1679 150.1245 150.1245 150.7639 153.2604 153.2604 156.3180
   157.4364 157.6805 157.9952 157.9952 159.8684 162.2131 162.6710 162.6710
   162.8250 165.1383 165.1383 166.3546 167.7911 169.8025 169.8025 170.0572
   170.4799 170.6318 170.6318 171.8339 172.9971 173.1997 175.9926 176.0145
   176.0145 178.9073 180.2389 180.2389 180.7755 180.8504 182.3254 183.2013
   183.2013 183.5790 185.8598 185.8598 186.2150 188.4823 193.0873 193.2389
   193.6411 193.6411 196.4784 196.4784 199.8489 200.1043 201.3566 201.3566
   202.5776 202.5776 202.6685 202.8340 205.9145 205.9145 206.2010 206.9476
   207.1548 207.5164 208.1022 208.9810 209.5912 209.5912 211.7182 211.7182
   212.6905 213.0894 214.1702 214.1702 215.5191 215.6994 215.6994 215.8384
   216.6249 217.6490 218.7519 218.7519 218.9653 220.0978 220.0978 220.2285
   220.5730 220.9220 221.8706 222.6753 223.1090 223.1090 224.0099 224.0099
   225.5986 226.4749 226.9662 227.9961 227.9961 228.1112 229.1747 229.1747
   230.6116 231.4681 231.4681 232.4479 232.7038 233.1932 233.3194 233.3194
   233.5890 236.3121 239.0097 239.0097 239.1708 239.5029 239.7995 240.4214
   240.7901 240.7901 242.7346 243.3254 243.9084 243.9084 244.3643 244.3643
   245.4627 247.7947 247.7947 248.4141 248.5545 248.7545 248.9216 248.9216
   249.0463 249.0793 249.2063 251.2582 251.2582 252.0831 252.3580 252.8919
   253.1778 253.1778 253.2316 253.7591 254.4983 254.5277 254.5277 255.8985
   255.8985 256.1820 259.8840 260.1051 260.2614 260.2614 261.6090 262.5675
   263.6057 263.6057 264.1829 264.4090 264.4180 264.4180 264.5218 268.1266
   269.7781 269.7781 272.2035 273.2332 274.4938 274.4938 274.6792 275.5177
   277.8516 277.8516 279.0173 279.1068 279.1068 279.4654 283.7737 284.6440
   285.5843 286.1778 286.1778 287.7982 287.7982 288.0376 288.2104 289.1090
   289.2495 289.2495 290.4733 291.9844 292.0912 292.0912 292.3241 292.6250
   292.6250 292.8099 293.3569 295.8678 297.3483 297.3483 297.6005 297.8139
   298.5427 298.5427 300.4868 300.4868 302.5204 303.0988 304.0696 305.5363
   305.7084 306.6112 306.6112 308.1486 308.1486 308.1818 308.6962 309.7865
   309.7865 309.9593 310.4396 310.6411 314.5612 314.9072 314.9072 315.7187
   317.9551 318.1197 318.1197 320.6671 320.6671 322.0500 323.9002 324.6812
   324.6812 325.9636 326.2234 326.5063 326.5063 327.0091 328.0878 328.1131
   328.1131 328.7302 328.9158 330.1169 330.1169 331.1878 331.2317 332.8960
   332.9208 332.9208 332.9651 333.5223 334.7639 334.7639 334.8038 334.9019
   335.5743 335.5743 335.8433 336.0674 336.7451 336.7451 336.7604 336.8126
   337.0359 337.0359 339.8993 340.2713 340.6754 340.6754 341.6895 342.3588
   342.3588 342.5245 342.8028 343.0402 343.0859 343.0859 343.2548 345.6123
   345.6123 346.7962 347.9952 348.8013 348.9673 350.0819 350.0819 350.3095
   350.9243 351.2598 351.2598 352.7975 353.1427 353.1427 353.3183 353.5840
   354.0009 354.2210 354.2210 354.2952 354.3461 354.3461 355.4578 355.5804
   356.6469 358.0645 358.0645 358.7576 358.7576 358.8564 359.0624 359.0624
   359.2412 360.3209 361.0835 361.0835 361.4436 362.3377 363.4394 364.2090
   364.2090 364.8955 364.9921 365.4865 366.7302 366.7302 367.5309 369.0829
   369.7007 369.7138 369.8547 369.8547 370.0329 370.1604 370.1604 370.2821
   370.8698 370.8698 372.1719 373.0932 373.9804 373.9804 374.1483 374.4436
   376.1685 376.1685 376.7997 377.5223 377.8268 377.8306 377.8306 378.2972
   379.8042 379.8042 382.7357 382.8780 383.7310 384.2370 384.2370 384.5481
   384.7541 385.1736 385.1736 385.5482 388.1403 388.1403 388.4663 388.6586
   388.6834 388.7501 388.7501 389.2763 390.1140 390.2615 390.3492 390.3492
   393.5710 397.2132 397.2132 397.2546 397.3279 398.0336 398.0336 398.2446
   399.0323 399.3035 399.3035 400.0967 400.8159 400.8159 401.0281 401.0341
   401.8070 401.8070 402.4130 403.3185 403.4899 403.4899 403.8234 404.7246
   404.7246 406.6253 406.9879 407.8011 408.0972 408.0972 408.3916 412.5517
   412.9360 415.0129 415.0129 416.3575 416.3804 416.3804 416.4377 417.0777
   417.8071 418.1180 418.1180 418.1871 418.5288 418.5288 419.5482 421.3522
   422.5766 422.9270 422.9270 423.4234 426.7207 426.7680 426.7680 427.5915
   428.1670 429.7874 429.7874 429.9781 433.2040 433.2040 433.9657 433.9657
   434.2195 434.3710 434.7469 434.8954 435.8783 436.1032 436.1032 436.1378
   438.2427 441.8744 441.8744 442.3371 443.0013 443.0013 443.1208 443.5540
   444.4195 444.4195 444.4855 445.4084 445.5494 445.9295 445.9295 446.3063
   447.5150 449.0333 449.0333 449.1539 452.6369 454.5923 454.5923 455.7815
   455.8802 456.2407 456.3191 456.3191 456.4569 456.5705 456.5705 456.8302
   456.9185 457.0198 457.3889 457.3889 457.5808 457.6279 457.6279 457.7660
   457.7706 458.8243 459.6499 459.9384 459.9384 459.9639 460.4571 460.7198
   460.7198 461.0455 461.0455 461.4324 461.7924 462.8365 463.2636 463.2636
   463.6845 464.0501 464.0586 464.0586 464.1596 464.5724 464.5724 465.2515
   466.0968 467.3381 467.3398 467.3398 467.4327 467.6654 469.0756 469.0756
   470.4596 470.9403 470.9403 472.8429 473.0057 473.1234 473.1234 473.2153
   473.2632 473.2791 473.7441 473.7441 476.3748 478.3412 479.2518 479.2962
   479.2962 479.5695 479.5951 479.5951 480.3392 480.7520 480.9353 480.9353
   481.3307 482.1727 485.8498 485.8498 486.5385 487.2756 487.7668 487.9680
   487.9680 488.0616 491.1657 491.1657 491.1823 491.1991 492.5373 492.5373
   493.6935 496.2963 496.6044 496.6044 497.0998 497.2889 497.2889 498.3438
   498.4178 498.4178 498.4566 499.2917 499.4406 499.5662 499.5662 499.7438
   501.1321 501.1321 501.6003 502.8052 503.7959 503.9183 504.0719 504.0719
   504.3241 504.9756 504.9756 505.3354 506.3251 506.3592 506.4413 506.4413
   506.4756 508.8596 508.8802 508.8802 508.9187 508.9189 509.0089 509.0089
   509.4443 509.4443 509.6921 510.4618 510.6407 510.6407 510.6590 512.7293
   512.8376 513.2446 513.4854 513.4854 513.6069 513.7515 513.9772 513.9772
   514.0323 514.4042 514.4042 514.4698 514.5662 515.5425 515.5425 515.8958
   515.9430 515.9681 515.9681 516.1605 516.7834 516.7953 517.6545 517.6545
   519.1114 519.3913 519.3913 519.6230 520.6992 520.7979 520.9533 520.9533
   522.4328 524.2744 524.2744 524.3785 524.6298 524.7287 524.8584 524.8584
   525.0794 525.0886 525.0886 525.1561 526.1800 531.2906 531.2906 531.4496
   531.6702 533.7713 533.7713 534.0816 534.3191 534.4973 534.5509 534.5509
   535.0091 535.1679 535.2553 535.2553 535.3093 535.9387 537.3261 537.3261
   537.6706 537.7159 537.7159 538.0214 538.4902 539.3625 542.4752 542.4752
   544.1005 544.1005 544.2986 544.3392 544.5318 544.5318 544.5784 545.0286
   545.2343 545.2343 545.4687 545.9712 546.3754 548.0074 548.2721 548.2721
   548.6986 548.9007 548.9007 548.9060 549.4968 549.4968 549.5053 549.8020
   551.2222 551.3022 551.5928 551.5928 551.7021 551.7783 551.7783 551.8193
   551.8446 552.8120 553.7821 553.7821 555.1547 556.1372 556.1372 556.3801
   556.3985 557.0967 557.1421 557.1421 557.1561 557.4036 560.1187 560.1187
   560.4819 560.7048 560.8276 560.9122 560.9122 561.0654 564.3716 564.3716
   564.5172 564.5821 566.9451 566.9451 568.0751 568.5094 568.5271 568.5271
   568.5749 570.1331 573.9690 573.9690 574.2752 574.6047 576.0119 576.0119
   577.3040 577.3040 577.3819 577.6166 579.1993 579.1993 579.8008 579.8532
   579.8532 579.8712 580.6515 581.1977 581.8215 581.8660 581.9427 581.9427
   582.1350 582.4932 583.1212 583.1212 583.2327 584.8015 584.8015 585.2379
   585.8189 590.8785 591.1081 591.1081 591.7609 592.8123 592.9431 592.9431
   593.0450 593.5921 593.5975 593.6020 593.6020 595.4862 596.3208 596.3704
   596.3704 596.6058 597.0444 597.0444 597.1675 597.2444 597.8443 597.8443
   600.3701 600.4767 601.3519 601.3519 601.5931 601.9707 601.9707 602.1859
   602.2415 602.3681 602.5772 602.5772 602.6843 602.9595 605.5982 605.5982
   605.6050 605.6134 605.8350 605.8350 606.4426 606.8247 608.2339 608.9583
   608.9583 609.5601 613.5143 613.5794 613.5794 613.6178 615.5222 615.5222
   615.7225 616.3342 617.8847 618.4680 618.5283 618.5283 619.4048 620.0845
   620.3354 620.3354 620.4639 620.4639 620.5026 623.1535 624.3847 625.1233
   625.1233 626.7537 626.8168 627.0008 627.0008 627.0739 627.0739 627.0795
   627.2635 629.2982 630.2834 630.2834 630.7471 631.2204 631.8643 631.8643
   632.5949 633.2481 633.4278 633.4278 636.1239 636.4721 636.8076 637.0189
   637.0513 637.0513 637.2024 637.2024 637.3408 637.3831 637.5488 637.5488
   637.7381 637.9170 638.2860 638.2860 638.8513 640.2946 640.3081 640.3956
   640.3956 641.6401 644.3781 645.0648 645.0648 645.2658 645.9332 645.9972
   645.9972 646.4179 646.8578 646.8578 646.8773 646.9122 647.1262 647.1552
   647.1552 647.1922 647.6418 647.8260 647.8260 648.1487 650.9558 650.9558
   652.0859 652.3058 652.5604 652.5604 652.5915 652.6650 653.8243 654.2655
   654.2655 654.5607 655.4716 655.7692 655.7863 655.7863 656.9363 657.0239
   657.0239 657.1786 657.2269 657.2269 657.3790 657.4695 659.2245 659.2245
   660.4230 660.7957 661.3548 661.6220 661.6220 661.8628 661.9377 661.9377
   662.1348 662.2032 662.3865 662.4312 662.4312 662.4452 662.4860 662.5111
   662.5111 663.0875 663.7606 663.8138 663.8138 663.8891 665.3537 665.3537
   665.4212 665.4466 666.2895 666.3029 666.3029 666.3123 667.7802 667.7802
   668.4314 668.8905 670.1154 670.1154 670.2351 670.2865 670.4817 670.5514
   670.5514 670.9171 671.0917 671.1084 671.1084 671.3490 671.3490 671.3574
   671.4915 672.2692 674.3128 674.3533 674.3533 674.3683 674.8397 674.8561
   674.8561 674.8602 676.8462 677.2410 677.2410 677.9078 678.5301 678.5301
   678.9318 679.1005 679.1191 679.1191 679.1506 679.1816 679.6849 680.1372
   680.1372 680.3436 680.5809 680.5809 680.6233 680.7319 683.1842 683.1913
   683.2257 683.2257 683.2638 684.4176 684.4176 684.7844 684.8486 684.8925
   684.8925 684.9827 685.4621 690.5539 690.5539 690.7454 690.7468 690.7468
   690.7512 690.7605 690.9329 696.9793 697.0572 697.0572 697.4077 697.8639
   697.8926 697.8926 697.9896 698.0643 698.1187 698.1253 698.1253 698.3257
   698.4351 698.4351 698.5137 700.6919 701.6839 701.6839 702.3198 704.2216
   704.6157 704.6157 705.0624 705.1366 705.1366 705.2957 705.6386 706.0260

          k =-0.1667 0.5000-0.1667 (  2442 PWs)   bands (ev):

   -29.8227 -11.3375 -10.7651 -10.7615  -7.0153   5.9673   7.0629   7.2322
    13.0763  14.9622  15.7787  15.8835  16.5427  17.8805  23.8921  26.0411
    26.4002  28.9676  31.9007  33.5609  34.2171  35.8390  36.2005  38.4953
    40.1631  42.6745  44.0286  46.1040  48.3355  50.0480  52.2226  53.8121
    53.9155  54.8894  57.8298  58.8247  59.4670  59.9902  60.1497  62.4105
    64.4325  64.7598  65.3418  66.9460  67.4641  70.3541  71.8452  71.9953
    73.0272  73.5209  74.5232  76.5175  76.8997  78.1513  79.5501  81.3150
    82.0864  82.5800  84.6766  87.0347  87.1948  88.3278  88.4546  89.4624
    91.2806  92.3662  93.4000  95.6343  97.0792  97.1434  98.1847  99.4643
   100.1749 101.3362 103.0750 103.2338 103.5788 106.1072 106.2768 108.3891
   109.2125 110.2945 111.4258 113.1153 113.2320 114.8201 115.8434 116.4826
   117.2359 118.2020 118.9216 120.0994 121.8433 123.2095 123.6207 124.5041
   126.2261 127.0917 127.4029 127.8564 127.9327 129.4704 129.8685 130.0428
   132.0625 132.3550 132.4223 134.8196 136.5938 136.7205 136.7495 137.1865
   137.7244 137.9276 139.9757 140.5541 140.9426 141.0199 142.9242 143.0763
   143.8712 144.8426 146.0075 146.9355 147.8456 148.3328 148.4688 149.1619
   149.7887 151.1249 152.2181 152.7959 153.4802 153.8368 155.3116 155.7316
   155.8741 156.2575 156.9600 158.6353 158.7362 160.0122 160.7477 162.3253
   163.3848 164.6623 164.7403 166.6251 168.8518 169.7029 171.2615 172.3541
   172.3996 173.7527 174.6568 174.8387 176.3655 176.8343 177.4276 179.0806
   179.7297 180.1411 180.4851 181.3191 181.4040 183.3135 183.4870 186.0955
   186.8534 187.4318 187.7866 188.3136 188.3818 189.3941 190.1101 190.2327
   191.4739 192.9576 193.6025 193.6862 194.6040 195.3536 195.6081 197.5091
   197.7541 198.3515 199.1957 199.7875 200.5127 200.8814 201.6942 202.0881
   203.0384 204.5075 205.1029 205.3585 205.9686 206.5199 207.0866 208.3942
   208.8566 209.7015 210.4529 210.5758 211.0035 211.6643 212.8532 213.6140
   214.1530 215.0991 216.1639 216.9198 217.9774 219.0112 219.1949 219.4009
   219.9157 220.0815 221.3217 221.7181 222.0657 222.1429 223.7813 223.9715
   224.5980 226.6195 227.5612 228.7985 229.1279 229.7919 229.8829 232.2185
   233.1093 233.9337 234.5272 234.8403 235.5424 236.2873 236.6294 236.8752
   237.6405 237.8701 238.1045 238.7132 238.9059 239.0536 240.4756 240.5646
   241.8575 242.2381 242.4829 243.8700 245.0202 245.0660 245.9179 245.9711
   246.7848 247.2150 247.6931 248.3057 249.6783 250.9537 251.0624 251.5359
   251.5646 251.9843 253.2758 253.6368 254.1003 254.1768 254.5034 255.8503
   256.1750 256.5519 256.7060 256.9036 257.6070 258.1767 259.0990 259.5200
   259.7275 260.5466 261.4383 261.5350 262.0006 262.3856 262.6446 263.9982
   264.0930 264.1730 266.6725 266.9518 268.8577 268.9613 269.5380 270.1310
   270.4228 272.2960 272.4681 273.4100 274.6616 275.8291 275.8653 276.9664
   277.9302 279.6004 280.8733 280.9957 281.7244 282.0548 282.2095 282.7637
   282.9156 283.4826 284.7158 285.2070 285.3887 286.5044 286.6349 287.7582
   288.5914 289.2884 289.7659 289.8872 290.1404 290.9961 291.6263 291.9735
   292.2542 293.8516 294.0223 294.9665 295.3807 295.9948 297.1965 298.8928
   298.9827 300.0378 301.4118 301.7336 302.1144 302.6221 304.5706 305.3243
   306.4157 308.1169 308.6806 308.8498 309.6474 309.9484 310.5312 311.0694
   311.2955 311.5698 311.8582 312.0856 312.9602 313.0120 314.1831 314.2340
   314.8107 315.5783 315.9194 316.4275 316.7916 317.1336 317.3952 318.2296
   318.5603 319.2549 319.6321 319.7256 321.3564 321.8343 322.6091 323.4855
   323.5445 324.4482 324.5383 325.3502 325.7640 325.7688 326.8463 326.9889
   327.1206 327.2729 328.2280 329.6745 329.7813 331.4870 331.8636 331.9036
   332.7242 333.7018 334.0684 334.4675 334.6957 335.7849 336.0943 336.2034
   336.8852 337.1056 337.6919 337.8498 338.3605 339.3201 339.3769 340.2767
   340.9263 341.2519 341.8883 342.3903 343.4109 343.5396 343.6778 344.7562
   344.8940 345.2766 345.2854 346.1322 346.2273 346.9611 348.4414 349.1576
   349.6156 349.9841 350.7125 351.3825 351.5955 351.7669 351.9767 352.3838
   352.8141 353.3550 354.0806 354.1331 354.3044 354.6982 354.8823 355.3655
   355.6634 357.0751 357.5158 357.7692 359.2711 359.7370 361.0479 361.5596
   362.1003 363.0475 363.2913 363.6966 364.4342 365.7888 366.0263 366.5675
   367.6299 367.7950 367.8948 369.3206 369.3632 369.9097 369.9483 370.6114
   370.6415 372.8669 373.1988 374.5325 374.8809 375.9266 375.9530 376.0716
   376.6868 377.3868 378.0291 378.3202 378.3520 378.4420 378.9128 379.5273
   379.6784 379.8006 380.6592 381.0562 381.0910 381.2118 381.6975 382.2333
   382.5797 382.7537 383.2343 384.2987 384.7419 386.0382 386.2625 386.8709
   388.2764 389.0480 389.8358 390.2450 390.2958 390.4599 391.2116 392.0279
   392.4253 392.7580 393.5065 393.9143 394.1417 394.2234 394.6545 394.6982
   395.6868 396.5252 396.5744 396.7309 397.2462 398.4410 398.5483 399.0761
   399.4124 400.6140 402.7789 403.0270 403.8565 404.4155 404.8830 405.5440
   405.5859 405.7437 405.8295 407.2248 407.7167 408.3437 408.7271 408.9631
   409.2001 409.5822 409.8366 410.7568 411.0373 411.3992 411.6758 413.8038
   413.8156 413.9733 415.4223 415.8635 415.9430 415.9854 416.2975 417.4345
   417.5696 417.7443 418.2423 418.3979 418.7894 420.5955 420.9079 421.2485
   421.5605 421.6978 422.1116 422.7509 423.0213 423.2217 424.6241 425.2157
   425.8610 428.7709 429.1710 429.2652 429.8289 430.1857 431.1304 431.2204
   431.3074 431.9676 431.9766 432.2619 432.2915 432.4526 433.0580 433.2059
   434.0740 434.5096 434.5805 435.0427 435.3004 435.9640 436.2763 436.7354
   437.6030 437.6284 439.5079 439.5428 440.4426 441.0874 441.5852 441.6773
   441.6941 442.5901 442.9951 443.3060 443.5454 444.1915 444.3924 445.8111
   445.8910 448.5637 450.2675 450.8553 451.2323 451.9673 452.7168 452.9282
   454.0500 454.4452 455.1299 455.2827 455.3832 456.3831 457.0525 457.2303
   458.2479 458.6599 459.7547 459.8327 460.5817 460.6735 460.9863 461.0111
   461.1757 461.3346 461.6977 462.9402 464.4837 465.1665 465.3661 465.8257
   466.4015 466.7195 467.1728 467.5089 467.8923 468.2405 468.9003 469.2413
   469.4379 469.9705 470.1259 470.5909 471.5862 471.6193 471.9423 472.4666
   472.5471 473.4556 473.6620 473.7771 473.9303 475.2077 475.2186 475.3677
   475.8968 476.7937 477.0816 477.6110 478.2552 478.3415 478.6593 479.0100
   479.2206 479.4746 480.3429 480.5024 481.1029 481.1674 482.4469 482.9391
   483.3190 484.3933 484.9998 486.3096 486.3549 486.6166 486.8286 487.1006
   487.4454 487.5845 487.8602 487.9766 488.1881 488.6204 489.1106 489.8985
   490.4678 491.1366 491.5713 491.6942 492.5281 492.5893 493.9210 494.2611
   494.8183 494.8412 495.1253 495.7942 495.8767 495.8892 496.5372 496.9675
   496.9760 497.0647 497.1213 497.2727 497.5871 497.6985 499.9381 500.2637
   500.7073 501.7322 502.0572 503.1951 503.7790 504.2453 504.2854 504.9903
   505.2968 505.5660 506.1345 506.2813 506.3483 506.4443 506.5163 506.5570
   507.3363 507.5208 507.5649 509.5768 510.9182 511.0873 511.3237 511.3412
   512.5184 512.9428 513.0000 513.2766 513.3360 513.3424 513.4502 513.7233
   514.5259 514.5404 515.1883 515.6667 516.3543 517.2617 518.0245 518.2003
   518.2916 519.2991 519.3709 519.7394 520.2170 520.7656 520.8901 521.0708
   521.7072 522.7488 522.7795 523.5058 523.6032 523.8398 523.9697 524.1264
   524.3762 524.4792 524.9228 525.2879 525.4717 525.8403 526.2657 526.4620
   526.8222 527.8585 528.6561 529.1708 529.2227 529.2494 529.5257 529.9851
   530.0549 530.5924 531.5787 532.8114 533.2106 534.5622 534.9236 535.0985
   535.1366 535.9539 536.0695 536.5568 536.5853 538.3224 538.4992 538.9398
   539.5406 539.6461 540.5521 540.6169 540.6776 541.2787 541.7694 541.8546
   542.6033 543.5859 544.0774 544.2541 544.3550 545.7671 545.7935 545.8694
   546.4679 546.7118 546.9041 546.9529 547.6842 547.8943 548.5666 549.2225
   549.3716 549.8614 550.6286 552.0827 553.2938 553.4949 553.5560 553.5680
   554.4259 555.5210 555.5292 556.8217 556.8893 556.9517 557.7324 557.7398
   557.9115 558.1900 558.9407 559.6147 559.7252 560.4864 560.5351 561.2589
   561.3376 562.6103 564.7377 564.7560 566.3926 566.7808 567.1673 567.4903
   567.5256 568.2504 568.3147 568.5475 568.5922 569.0406 569.0860 569.8640
   570.3066 570.4619 571.3145 571.9247 571.9943 572.7973 575.2639 576.0936
   576.9959 577.0644 577.4641 577.6461 577.9945 578.3187 578.6126 579.6354
   580.1143 580.7097 580.7261 581.2449 581.2966 581.6792 581.7021 582.3356
   582.4236 583.1036 583.2314 584.1791 584.5784 584.6800 584.6812 584.7912
   584.8402 585.0930 585.3835 585.4254 586.0657 586.1559 586.8547 587.7083
   587.7883 589.1979 589.5065 589.5857 589.9903 590.1416 590.4147 590.6021
   591.8695 592.0978 592.4389 592.9025 593.0763 593.2926 593.6278 594.1873
   594.3605 594.3680 594.4364 594.6881 594.8064 595.5687 595.6278 596.3731
   596.5324 598.1734 600.0111 600.2338 600.8944 601.0157 601.9256 602.0289
   602.3112 602.4246 603.1021 603.5884 603.6462 603.9448 603.9632 604.0463
   604.2024 604.2220 604.4848 605.0806 605.6275 605.9581 606.2903 606.4637
   608.4592 608.8609 609.1406 609.1928 609.6170 610.7465 611.4288 612.3377
   612.4545 613.0472 613.2592 613.3565 613.4110 613.5921 613.6883 614.3393
   614.4492 615.1937 616.0628 616.2197 616.5418 616.9630 617.5866 617.9931
   618.1061 619.6252 620.4451 620.7725 621.0104 621.0738 621.3284 621.4781
   622.2549 622.2913 623.5258 623.8023 623.9353 623.9615 625.3027 625.9449
   626.8609 628.5933 628.6607 628.9322 629.3023 629.7195 630.3090 630.5121
   630.5467 631.0214 632.2612 632.3861 633.0296 633.3345 633.3981 633.4350
   633.6210 633.6888 634.2822 634.5226 634.6468 634.9414 635.2566 635.3444
   636.3374 636.6245 636.9016 637.6693 638.2131 638.2634 638.7749 638.9033
   638.9351 639.0695 639.2069 639.3378 639.5053 639.8264 642.5107 643.2471
   643.8607 644.2441 645.6273 645.9304 645.9853 646.1441 646.2571 646.4625
   646.7272 647.4868 647.5976 647.9971 648.1112 648.2823 648.3493 648.4308
   649.5896 649.8302 649.9848 650.1973 650.2891 650.5512 652.9899 653.5836
   653.8738 654.1368 654.6038 655.2010 655.4623 655.6466 655.7987 656.4082
   656.6937 656.7562 657.0483 657.0792 657.7807 658.4676 659.4748 659.6289
   660.1293 660.4372 660.7174 661.2252 661.8120 661.9280 662.7683 662.8298
   663.3665 663.6813 664.6073 665.6915 665.7029 666.2701 666.2788 666.7970
   667.9383 668.0132 668.8000 669.1145 669.4582 670.1552 670.2832 670.7616
   670.8533 671.4121 672.1430 672.2544 672.9372 672.9678 673.2119 673.2125
   673.2426 673.4083 673.9243 674.1949 674.5694 675.9053 675.9472 676.0229
   676.0635 676.2954 676.4135 678.0196 678.1185 678.3662 678.5828 679.7243
   681.1603 681.2298 681.4253 681.4778 681.6955 681.7886 682.3453 683.5112
   684.1880 684.6784 684.9586 685.0475 685.1332 685.2149 685.5780 686.1150
   686.6745 686.8116 686.9396 686.9911 687.0111 687.1884 687.4686 688.9282
   689.3532 689.7270 690.3292 690.9006 691.0126 691.2412 691.2636 691.3927
   691.4410 692.1577 692.3763 692.6077 692.7992 693.1282 693.1386 693.2947
   693.5012 693.7966 693.8547 694.0317 694.0747 694.9804 695.0620 695.3651
   695.6568 696.1253 697.0056 697.1602 697.5861 698.5863 698.6167 698.9705
   699.1278 699.2367 699.6228 699.6844 699.9210 700.0105 700.5321 700.7186
   701.4057 701.7113 702.0593 702.1290 702.6058 703.5643 703.8106 703.8576

          k = 0.6667-0.3333 0.6667 (  2430 PWs)   bands (ev):

   -29.7888 -11.6013 -10.8267 -10.7641  -6.7496   5.5817   6.6145   6.7804
    14.0548  15.3552  16.3491  16.8031  17.7690  18.8599  21.9422  24.3261
    25.1618  29.6602  32.4281  32.4943  33.7861  36.1150  36.1948  41.1026
    42.5847  43.5710  44.6979  45.6361  46.9260  48.2713  48.5143  52.1053
    53.8669  54.2339  55.1972  56.7294  57.9657  60.8932  61.5899  63.0753
    63.5352  63.6233  65.9040  66.9949  69.6892  70.4463  71.0354  73.2597
    74.9382  76.2083  76.6982  76.8193  78.4469  80.2745  81.5662  82.2757
    82.9486  83.7887  86.0921  87.3371  88.1888  89.8934  90.1579  91.3934
    91.9521  92.1589  94.2981  94.7866  95.7198  98.0420  98.0791  98.4456
    99.4841  99.6440 101.8576 102.6626 104.0571 104.0931 105.4145 106.0346
   108.0268 108.3687 109.1648 110.7928 111.8902 113.1142 113.3245 113.8739
   115.6634 117.2777 117.6258 118.2399 119.0169 120.6928 122.2558 123.3363
   124.1099 125.6828 126.8693 127.6796 128.9707 129.2867 129.9256 130.0909
   130.8396 131.5650 132.1777 133.3544 134.7593 135.3649 136.4313 136.8099
   138.7384 139.0655 141.3527 141.7217 142.6291 143.4008 143.4946 144.1008
   147.4472 147.5650 148.6662 148.8757 149.3249 150.0213 150.0854 151.3160
   152.1360 153.1244 153.5575 154.2754 154.5131 155.9521 156.9915 158.0466
   159.2210 159.2432 161.9534 162.6837 163.3259 163.7945 164.6007 165.7743
   166.5116 166.5249 167.4024 168.1781 168.4713 168.9989 169.4964 169.7456
   171.3972 172.6087 172.7003 173.8112 173.9652 174.2320 174.9969 175.4674
   178.4328 178.4936 178.7558 180.0888 180.3513 182.4379 183.1743 183.6295
   184.5580 184.5815 185.6890 186.1747 187.6793 188.9096 189.9113 189.9414
   190.2309 190.9292 191.6394 192.4890 193.3386 194.2763 194.5143 197.2017
   197.8263 199.1658 199.4369 199.4488 200.2819 201.1644 201.4931 201.5686
   202.4544 202.9846 203.8611 204.6850 204.8121 206.0497 207.0697 208.2189
   208.7370 209.6179 210.9554 211.5387 211.8218 212.1957 213.6185 213.6557
   214.9187 215.5603 215.8421 216.9686 217.2941 217.5577 217.6717 218.1828
   218.2509 219.1273 219.4180 219.9271 221.5458 222.2989 222.7098 223.4500
   224.4031 224.8025 225.2818 225.7914 226.5758 227.3242 228.1144 228.4240
   229.6821 229.9169 230.6045 232.6949 233.4391 234.3287 234.8280 235.1632
   235.7480 236.0637 236.5750 237.1724 237.2614 238.0249 239.9434 241.8219
   242.6111 243.0890 244.0052 244.1855 244.4244 244.7485 246.7978 246.8819
   247.4718 249.1430 249.2346 250.1979 250.7739 251.3225 251.9347 252.4750
   252.9752 253.2287 254.0316 254.6385 255.6811 256.3892 257.3339 258.9386
   259.0302 260.2077 260.6231 260.7390 261.0222 263.6019 263.8348 264.9247
   265.1193 265.4117 266.6588 267.0604 267.5768 268.1854 268.8715 269.6391
   269.6722 270.7944 271.0917 271.9053 272.1969 272.6458 272.6493 273.3373
   273.7437 274.0954 275.4697 275.5107 275.8981 276.0906 277.0203 277.1306
   277.7391 277.7990 278.0154 280.6632 281.2098 281.4519 282.4556 282.5426
   283.4635 283.4849 285.1493 286.0612 287.2025 287.5085 287.7503 287.8017
   288.7110 290.2754 290.2815 291.0233 291.0885 291.2363 292.2878 293.1442
   293.5082 294.3702 294.5005 295.7052 296.2460 296.3799 296.5091 296.7500
   296.8473 297.1552 298.0959 299.3469 300.5926 300.6672 301.2741 302.1710
   302.3328 302.8779 303.1894 303.2923 303.4710 304.3234 304.3588 304.8899
   305.5567 306.3283 307.5598 307.9250 309.1203 310.0644 311.0870 311.9491
   312.3843 313.1795 313.3541 313.7311 314.1959 314.9061 314.9291 315.3780
   315.6242 316.1756 316.5277 318.2880 318.6824 319.1212 319.3598 319.8506
   321.0564 321.2262 321.5994 321.7391 322.1623 322.7380 324.4669 325.9340
   325.9471 326.3001 327.7992 328.2187 329.3813 329.8150 329.9716 330.0245
   331.8047 332.4009 332.9113 333.3669 333.7536 335.5574 335.7654 336.2830
   336.6943 337.3370 337.7498 338.0405 338.9865 339.3469 339.4201 339.6407
   340.1086 340.1433 340.3500 340.7394 341.6531 342.6002 343.3820 343.9717
   344.5002 344.8719 345.4774 345.8505 346.4886 346.5815 347.4364 348.0951
   348.4086 348.6584 349.4491 349.5001 351.6272 353.2812 353.8585 354.7312
   355.6791 355.9930 356.3261 356.5946 357.7200 358.0078 358.8715 358.9431
   359.2203 360.3144 360.8516 361.2376 361.3170 362.9404 363.0424 363.4596
   363.7874 364.0754 364.1277 364.1570 365.0428 365.7289 366.6713 367.8559
   368.4790 369.3528 369.3767 369.7947 370.3656 371.9585 372.1243 372.4019
   373.4051 373.8940 374.3241 375.2993 375.4800 376.2462 376.3245 376.4133
   377.2343 378.8799 379.4241 379.6348 380.5489 380.6937 381.0182 381.2136
   381.8553 382.5010 383.0556 383.8607 385.1210 385.3601 385.7828 386.3999
   386.6960 386.7061 387.0082 388.1773 388.3036 389.0610 389.3413 389.5488
   389.8206 390.2046 390.3594 390.7007 390.7763 391.6771 391.7360 392.0124
   392.3867 392.9229 393.4342 393.6218 394.2226 394.9526 395.6418 395.7367
   396.7202 397.7555 398.0978 398.2909 399.1400 399.2661 399.6456 400.0351
   400.7219 401.3811 401.8289 403.2230 404.1286 404.1588 404.9839 405.9545
   406.3436 406.4391 406.8099 407.0739 407.1823 407.9687 408.5643 409.0023
   409.7073 410.0595 410.3009 410.7296 411.0121 411.3229 411.5976 413.8393
   414.4334 414.7668 415.2969 415.6376 415.7838 415.8916 416.3072 417.0976
   417.7245 417.9968 418.9330 419.4605 419.5806 420.3496 421.2350 422.0955
   422.2861 423.0071 423.0833 424.6693 424.9097 425.2862 425.4469 425.4819
   425.6292 426.0379 426.1271 426.2935 426.9187 427.2546 427.8892 428.6352
   430.0816 431.6871 431.7774 431.9554 432.7831 434.2494 434.4664 435.0741
   435.3539 435.4250 435.9681 436.4599 436.6145 436.8084 437.2622 438.0670
   438.5211 440.2879 440.7134 440.8159 442.0867 442.2270 442.3849 442.8980
   442.9576 443.2077 443.3424 444.2454 444.3774 445.1894 445.3872 446.1411
[...]
   375.6237 375.7232 376.4272 377.4349 378.0145 378.0606 380.3471 381.8013
   382.1771 382.9249 383.5012 383.9384 384.1765 384.6138 384.7792 385.4853
   385.5895 386.6196 386.9719 387.3084 387.5531 388.5368 389.0404 390.0441
   390.5511 391.0065 391.1698 391.6456 392.9291 393.4678 393.6872 393.9028
   394.2402 394.3225 394.3958 394.8956 395.1951 395.5307 396.3914 397.1210
   397.6988 398.2613 399.8275 399.8877 400.4743 401.9549 402.7291 402.8123
   403.2880 405.2680 405.8394 405.8800 406.0685 406.5242 406.7123 406.9867
   407.9150 408.1498 408.7364 409.2152 409.2944 409.5421 410.1302 410.2615
   410.5216 410.7963 411.3928 411.4382 411.6347 412.0046 412.2562 412.4005
   412.7814 413.0872 413.5930 414.8739 414.9137 417.6614 417.8476 418.8574
   419.6771 420.6488 420.7461 422.8234 423.1442 423.5683 423.7821 424.4532
   424.4595 424.5759 425.0992 425.3946 427.0169 427.3900 428.4417 428.6026
   429.2610 429.4691 430.4585 430.5394 430.6748 430.8314 431.7702 431.9910
   432.9036 433.0753 433.9174 434.1504 434.3081 434.5784 434.6478 434.7924
   435.0587 435.4573 435.8522 435.9269 437.0192 437.1968 437.6036 437.8753
   438.3296 439.1054 439.3929 440.7075 440.7953 440.9705 441.1190 441.3747
   442.5360 442.7801 443.5129 443.5995 443.7909 444.1170 444.8231 445.0929
   445.7130 446.3784 446.5591 446.7904 446.8388 447.9905 448.0205 448.1265
   448.5564 449.1067 450.0517 450.2000 450.3171 451.7333 452.1509 452.8441
   453.1198 453.1837 453.5612 454.0274 455.2011 455.3800 455.6292 455.6986
   455.8653 456.0950 456.5329 457.3305 457.5467 457.8105 457.9258 458.2658
   458.7324 458.8025 459.3867 459.4740 459.7960 461.1687 461.6625 462.0075
   462.0639 463.5882 464.3152 465.0900 465.6074 465.8016 465.8377 465.9521
   467.8306 468.3347 468.5993 468.9321 469.1589 469.8064 471.7030 472.4641
   473.1799 473.1949 473.3291 473.4058 473.6480 473.9735 473.9983 475.5215
   475.8151 476.0743 476.3620 476.4369 476.9429 477.3241 478.9852 479.1676
   479.5107 479.9065 481.1236 481.4213 481.9300 482.0001 483.2646 483.3681
   484.3587 485.5466 485.6277 485.9412 485.9536 486.6331 487.0698 487.5922
   488.6827 488.7247 489.9003 490.0631 491.1726 491.6550 491.8039 492.1052
   492.2926 492.6581 493.2086 494.0283 494.6555 495.1013 495.5275 495.5521
   495.6456 496.5296 496.5682 498.0911 498.3507 498.4026 498.7159 499.4804
   499.7883 500.4708 502.3999 502.4747 503.2159 504.0914 504.2957 504.7454
   506.8825 506.8942 507.0667 507.5037 508.0252 508.7518 510.2942 511.0524
   511.0928 511.4030 512.0524 513.8660 515.3229 515.3554 515.5199 516.0442
   516.0843 516.8834 517.0020 517.3887 517.8923 517.9496 518.1226 518.7656
   520.0542 520.5843 520.6011 520.9188 521.0246 521.1630 521.4225 522.6864
   523.1867 523.6824 524.1703 524.3443 524.4929 524.7187 524.8360 524.8513
   524.9282 525.8236 526.2931 526.2946 526.3807 526.4830 527.1972 527.3525
   527.8729 528.4201 528.5111 529.2140 530.8543 531.6836 532.6351 533.1432
   533.2780 533.6339 534.3640 534.5046 535.0991 535.1376 535.3365 535.4944
   536.1650 536.5117 537.2371 537.6670 537.9321 538.1402 538.4315 538.6349
   538.6706 538.9279 539.1480 539.9204 540.4123 540.6651 541.7681 542.3142
   542.5391 543.1557 543.3386 543.5951 543.8899 543.9810 544.0925 544.1592
   544.4214 545.5830 546.1473 546.5892 546.9258 547.4110 547.8449 547.9873
   548.1228 549.1713 549.2143 550.2175 551.5170 552.6330 554.6323 555.0978
   555.3409 555.7172 555.9332 556.0432 556.3066 556.4972 556.6005 556.9189
   557.0490 557.4180 559.2492 559.2768 559.9121 560.2795 560.2982 560.7119
   560.9967 561.2094 561.4136 561.5637 561.5965 561.8625 561.9416 563.0439
   563.6652 563.9166 564.2119 564.2805 564.9734 565.5794 565.7185 565.7559
   565.8291 565.9951 567.4693 567.6523 568.6349 568.9888 569.7478 570.1365
   570.3909 571.0015 572.1103 572.2558 572.3990 572.4319 572.4552 572.5242
   572.8637 573.1186 573.8986 573.9967 574.4394 574.8292 576.6541 577.0719
   577.1076 578.1150 578.3221 578.8926 579.0559 579.2857 579.7499 580.0707
   580.1600 580.2502 580.4694 581.3767 581.5854 582.3503 582.7038 583.2812
   583.2985 583.4790 585.3039 585.8740 587.1635 587.2646 587.4783 587.6605
   587.8238 587.9735 588.0614 589.2122 589.7787 589.8436 589.8792 590.2088
   590.4548 590.7066 591.1118 591.2754 591.2849 592.0015 592.5184 592.7611
   592.8036 592.9473 593.0064 593.0169 595.7487 595.9154 596.4618 596.7599
   597.1392 597.2018 600.0074 600.1186 600.2053 600.4862 600.6918 602.0588
   602.2707 603.1945 603.4222 603.8435 604.2159 604.5744 604.5922 605.0027
   605.1570 605.4640 605.6110 606.8420 607.0235 608.0043 608.1164 608.6925
   609.0008 609.1775 611.0116 611.0224 611.4183 611.9426 611.9814 612.2374
   612.4221 613.0703 613.2203 613.3502 613.5464 614.0942 614.5728 614.6141
   614.8444 615.2863 615.3020 615.7167 615.8973 615.9508 616.2010 616.7317
   617.6649 617.9065 619.0777 619.1749 619.2308 619.2880 619.3120 620.5221
   620.5380 621.1528 622.0639 622.1459 623.9699 624.0089 624.0141 624.5837
   624.6178 624.9960 625.2462 625.3539 625.3708 625.7749 625.8381 625.9645
   626.1483 626.9436 627.2928 627.3249 628.7619 628.9133 629.9260 630.3297
   630.3525 631.4155 631.8366 631.8550 631.9382 632.0780 632.7002 633.1525
   633.5320 633.9032 634.0047 634.1083 635.8211 635.9588 636.0437 636.4388
   636.7440 636.8125 637.4136 637.5329 638.1907 638.3273 638.3369 638.9044
   639.3975 639.6809 641.5696 641.5987 641.6923 641.7401 642.5113 642.7596
   643.3697 643.4911 643.5572 643.6870 644.0314 644.0371 645.0287 645.7696
   645.7938 646.2152 647.0157 647.1709 648.1292 648.1311 648.7526 649.0011
   650.4192 650.6663 650.7081 650.9515 651.9835 652.0850 653.4264 653.6389
   653.7753 654.2223 655.1101 655.7614 655.8730 656.3387 656.5893 656.7613
   656.8748 656.9095 657.3293 657.3515 657.5210 659.2811 659.7461 660.1575
   660.5400 661.0131 661.6063 661.7493 662.0832 662.0860 663.3592 664.0234
   664.4244 664.9144 665.0504 665.3574 665.4870 666.0943 666.8578 667.6111
   668.4750 668.9332 669.2609 669.3422 669.3781 669.5080 669.5567 669.6880
   670.7603 670.7659 671.0340 671.4925 673.2907 673.4075 674.6701 674.8510
   676.4159 676.5000 676.6364 676.8673 677.1494 677.3748 677.4147 677.8591
   677.8929 678.1931 678.4576 678.4750 678.5020 678.7206 678.8277 678.8289
   679.3258 679.4703 679.9704 680.0682 681.5122 681.5275 681.9947 682.2685
   684.9806 685.0411 686.4483 686.7759 686.8041 686.8904 687.0835 687.2056
   688.2440 688.4462 688.9982 689.4979 689.6238 689.6837 691.4586 691.4770
   691.5935 691.6557 691.8631 692.0980 693.3736 693.8256 694.0165 694.1125
   694.2070 694.7237 694.7882 694.8805 695.0948 695.1517 695.6829 695.9412
   696.0077 697.4181 697.7249 697.8849 699.0333 699.0436 699.6347 699.9649
   700.0651 700.1628 700.1665 701.8952 702.9473 703.4737 704.6895 704.7695
   705.6250 706.2609 706.3095 706.8472 706.9882 707.2581 707.8007 707.8530

          k =-0.3333-1.0000 0.0000 (  2424 PWs)   bands (ev):

   -29.7654 -11.1707 -11.0393 -10.9861  -7.1883   6.5627   6.7116   6.9684
    12.8032  15.4309  16.0959  17.2755  17.4444  20.6822  21.4924  23.2460
    25.1861  28.5522  30.7933  35.0122  36.3549  38.4971  38.6962  40.2581
    42.1288  42.3299  42.9253  43.9049  45.5237  46.9411  47.6859  48.2712
    53.2050  54.1071  55.0650  55.7999  57.1630  62.1591  62.5472  62.8660
    65.2768  67.0706  68.1409  68.3594  69.1221  72.0128  72.4455  72.7778
    74.9259  75.7112  77.6837  77.8944  78.9417  79.7488  80.8957  81.5109
    81.9977  85.0186  85.4708  88.4114  88.7817  89.3994  90.8773  91.3456
    92.9147  93.1702  93.2134  94.6647  95.5979  95.7715  96.9155  98.0312
    98.2375 101.3330 101.9123 103.1310 105.4727 105.8835 106.0159 106.0918
   108.7160 109.7783 109.8958 110.8724 112.0317 114.0116 114.2804 114.3087
   116.2974 116.5967 116.6572 117.6743 118.0725 120.2802 120.5742 120.6229
   121.3161 122.1046 122.6324 122.9608 124.7582 125.5482 126.4138 127.6974
   128.7031 128.8639 129.9947 130.0552 131.3327 136.2616 136.4247 139.2596
   139.5078 141.3381 142.2330 143.3691 145.1018 145.6035 145.6434 146.2506
   147.7482 149.6747 149.9925 151.0737 151.9330 153.1198 154.1795 154.6502
   154.6558 154.9665 155.1746 155.4121 156.3282 158.1023 158.8535 159.1980
   160.0712 160.2812 162.6019 163.9673 164.7713 165.0246 166.0924 167.4715
   167.7707 168.5269 169.3967 169.7070 170.5796 170.9734 171.0240 172.0465
   173.0862 173.2208 173.3398 173.6380 174.3765 174.4972 175.2276 176.6773
   176.7193 178.4681 179.8565 180.2590 180.6473 181.0109 181.5968 182.5018
   182.5081 183.8036 184.3437 184.4848 187.2914 187.5187 188.0649 189.3914
   189.6652 190.0369 191.2505 192.3649 192.6916 193.1947 195.2748 195.5891
   195.8750 196.8455 197.0960 197.0961 197.4417 197.8387 198.9851 199.6349
   199.7141 200.3952 201.2116 201.5452 201.7581 202.1222 202.2123 203.4909
   203.8519 204.2528 204.7243 205.5253 207.5012 209.4699 212.2900 212.7994
   213.7128 214.4939 215.2595 215.7102 216.8148 217.1008 217.7357 219.4980
   219.7473 220.4247 220.5548 220.5821 220.7328 222.1630 224.6465 225.9496
   226.1677 228.6001 229.3808 229.5539 230.0611 230.1891 230.2726 230.3978
   231.2716 231.5355 231.6297 232.2844 232.4859 235.1710 236.8878 237.3805
   237.9302 238.7835 239.5640 239.8438 240.3634 240.5246 240.7744 241.7144
   242.2080 242.6399 244.3698 244.4285 245.4075 245.6003 247.0559 247.3858
   249.4292 249.9942 250.6502 251.5131 251.8831 252.3490 252.9927 253.6783
   254.8738 255.0995 255.2052 255.4498 255.9764 257.3555 257.6937 258.3892
   258.4779 259.2104 259.9500 261.5361 261.8407 263.0727 263.8673 264.5316
   264.7584 264.9998 265.0665 266.1843 267.5364 269.4926 269.6056 269.7271
   270.0500 272.1810 272.6795 273.5844 273.6418 273.6661 274.3266 274.5997
   274.6783 275.3294 275.3798 276.3955 278.0119 278.3522 279.6395 279.9048
   280.0012 280.2252 281.0032 281.6683 282.4953 282.6416 283.2718 283.5192
   283.8013 285.2997 285.3961 285.6616 286.2839 286.3070 287.0521 288.0375
   288.1084 288.8245 289.0623 289.1725 289.3870 289.7788 292.0237 293.0635
   293.7948 294.0409 294.2386 294.6704 294.8271 295.3919 295.4607 296.2575
   296.4500 296.8897 297.4931 297.6773 297.7764 299.2040 299.5518 300.9277
   301.1921 301.7171 303.6435 303.7069 304.2761 304.5349 304.5736 304.8629
   305.5126 305.6938 306.1444 306.2187 306.8212 307.2998 307.7634 308.5465
   308.6266 309.3881 309.5328 310.4306 310.8733 312.0462 313.0099 313.0473
   313.4000 314.5588 317.7441 317.8232 318.1062 318.9095 319.4961 321.2116
   321.4432 321.8170 322.2511 322.8814 323.0497 324.2738 324.8492 325.0800
   325.0836 325.8544 326.0700 328.6343 328.6681 328.7453 328.9517 329.0279
   329.4798 330.6467 331.8308 333.4197 333.6371 333.9303 335.3012 336.2501
   336.9903 337.3720 337.4257 338.0676 338.6849 338.8751 339.0405 339.5479
   339.5523 339.8263 339.9085 339.9585 340.8506 341.3011 342.2142 342.2260
   343.0385 343.4679 343.8504 344.9188 346.4523 346.6171 347.6064 348.1682
   348.2368 348.5234 352.0646 352.5186 352.8071 353.1489 353.1869 354.8077
   356.4815 357.7932 357.9767 358.3834 358.6882 358.8029 358.8219 359.1796
   359.6647 359.8450 359.8770 360.9615 361.0941 361.1791 361.5092 361.7470
   363.4441 364.0486 364.4710 365.0555 365.5500 366.0557 367.5737 368.2663
   368.3775 368.4026 369.1835 369.9404 370.0397 370.3280 371.0393 371.7412
   371.8415 372.2986 373.0395 373.3105 373.4040 373.8086 374.4618 374.8850
   375.2942 375.4437 377.2636 379.2761 379.5840 381.1283 381.2228 381.4991
   381.5203 381.9123 383.1461 383.3728 383.8547 384.1544 384.7307 384.9015
   385.4294 386.1589 386.5040 386.8634 387.5697 387.5833 388.1425 388.8511
   388.9911 389.9877 391.3819 391.5738 391.8379 392.4263 392.4899 395.0747
   398.6518 398.8613 399.1971 399.4301 399.6612 400.2482 401.1450 401.3600
   401.7228 402.1273 402.5692 402.7994 403.0963 403.9010 404.1755 404.6583
   404.8173 405.2555 405.4126 406.1744 407.5108 407.6399 407.6644 408.4733
   409.5869 409.8904 410.0142 410.2861 410.3307 411.6142 411.7838 411.8727
   411.9639 413.5467 413.9278 414.1699 414.4857 414.8610 415.4347 415.7057
   415.8597 417.8034 418.2038 418.2300 418.9447 418.9498 418.9829 419.1255
   419.1266 420.1117 421.8665 422.0193 423.5395 423.6590 424.5587 424.7057
   425.4859 425.6985 425.9332 426.0400 426.2335 426.5562 426.7998 426.8693
   427.0245 427.1479 427.3717 427.6358 428.4962 428.8980 429.0664 429.1475
   429.6293 430.3562 430.5673 431.0216 431.5503 431.5773 431.6463 432.3882
   433.1012 433.1539 434.2044 434.3769 434.3924 435.2528 435.3490 435.9490
   435.9972 436.3552 436.4764 437.0252 437.6774 438.5431 438.7996 439.2028
   439.6391 440.4174 440.4891 440.8274 443.2347 443.6741 444.0358 444.1552
   444.2816 444.7626 445.1075 445.2519 446.2108 446.6376 446.7376 446.9675
   447.1627 447.1991 448.5599 448.5985 448.9706 449.9139 450.0038 451.9878
   452.3493 452.6373 452.7199 453.3891 454.2173 455.9748 456.8140 457.2691
   457.3622 458.5865 459.7501 459.9974 460.3885 460.7049 460.7274 461.8175
   462.0707 462.1172 462.3294 462.6345 462.8045 462.9324 463.0685 463.3697
   463.4274 463.6405 463.7172 464.8525 466.4401 466.9153 467.4761 467.5902
   467.8142 468.5752 468.8331 469.0897 469.1984 469.4392 469.8576 470.7889
   471.4471 471.4877 471.6692 472.1674 472.4175 472.5115 472.7708 473.1425
   473.4886 473.5320 473.7218 474.9017 477.9629 478.2496 478.9249 479.0124
   479.6365 480.9096 481.4573 481.4642 482.1081 482.1486 482.2236 482.7127
   482.9909 483.0213 483.2790 483.2973 483.8841 486.2071 486.4225 486.5397
   487.6764 487.8436 488.6253 488.7302 488.7610 488.9245 489.6024 489.8013
   490.4637 492.3562 492.4641 493.5627 493.8206 494.5821 495.0026 495.0067
   496.0794 497.0329 497.1660 497.5561 500.2062 500.4548 500.5906 500.7127
   501.7722 502.0003 503.3352 503.6305 504.2655 504.5836 504.9338 504.9389
   505.1289 505.2299 505.2419 506.1765 506.8078 507.1815 507.7221 507.8289
   507.9348 510.0691 510.0794 510.2575 510.6872 511.3408 512.0191 512.5550
   512.5791 514.3976 514.5520 515.4043 515.6559 515.9147 516.0539 516.7143
   516.8906 518.6551 520.1461 520.1546 520.4302 520.7509 522.0359 522.3169
   522.4494 523.8193 524.4511 524.4594 524.4916 525.1652 528.5570 528.7407
   530.0254 530.4821 530.7543 531.4964 531.7773 531.8344 531.9222 532.4090
   532.7718 533.8673 534.1033 534.1148 534.1363 534.1550 535.0761 535.2694
   535.9031 536.4591 537.4456 538.5375 538.7214 538.9779 539.0346 539.2859
   539.4054 539.6983 539.8490 540.1757 540.3334 540.3432 540.6411 540.9294
   541.9203 542.7064 543.0412 543.7135 544.0784 544.0814 544.2768 544.3049
   544.3897 545.3710 545.8920 546.5697 546.9604 547.1539 547.4613 547.4794
   547.9219 548.3907 548.4394 548.4736 548.7158 549.0052 549.0649 549.4100
   549.4666 549.6116 549.6696 549.6869 549.9912 550.0747 550.2017 550.9469
   552.6359 552.6368 553.5948 554.3803 556.1485 556.2682 556.5763 556.6185
   556.7074 556.8094 557.6087 559.3267 559.9036 560.0280 560.0896 560.2349
   560.3397 560.4152 561.2167 561.2474 561.5582 561.5672 561.6107 562.0273
   562.1007 564.0003 564.0436 565.5477 566.0003 566.0890 566.2055 566.4358
   566.4737 566.5398 566.5626 566.8179 567.1753 567.1915 567.2594 567.2907
   567.3108 567.7572 568.1791 568.5656 568.5771 569.8427 570.5789 571.0373
   571.1769 571.5943 571.7528 573.0020 574.0851 574.5699 574.6732 574.9901
   575.0746 575.3843 575.3958 575.6325 576.4596 577.0837 577.1627 577.5283
   578.5839 579.5099 582.5411 582.7007 582.7643 583.1526 584.0303 584.0575
   584.0705 584.1588 587.1966 587.5273 587.6457 587.7389 588.0518 588.7449
   588.8847 589.2976 589.4738 589.5428 589.7534 591.1822 591.6163 591.6639
   592.0882 592.1744 592.2555 592.2770 592.4008 592.6164 592.9077 593.2581
   593.7179 594.6744 595.2460 595.3382 595.3707 595.3997 596.3132 596.8964
   598.1336 598.1550 598.5065 598.8240 598.8508 598.9751 599.1023 599.3393
   599.7184 599.8374 599.8624 600.0770 600.4053 600.5025 601.0845 601.3259
   601.7545 601.7923 602.7612 606.2481 606.7489 607.4420 607.6527 607.7303
   607.8178 608.4966 608.7880 609.1573 609.1726 609.1968 609.7034 609.7183
   609.7570 609.8709 610.5049 610.6111 610.8577 610.9123 610.9775 611.8348
   612.2650 612.4296 612.7939 612.9599 617.5243 618.3519 618.4810 618.9400
   619.2837 619.8699 620.3687 620.6850 620.7227 620.8742 620.8946 620.9759
   620.9998 621.0681 621.6314 621.6589 621.9185 622.2329 622.5828 623.9512
   624.1476 624.8619 625.4928 625.5580 625.6725 625.7910 626.0010 626.3735
   626.3887 626.8435 628.2767 628.5968 628.6568 628.6748 630.1187 630.7451
   632.0667 632.1196 633.9105 635.0323 635.0825 635.0931 635.1101 635.1467
   635.5783 635.6379 636.0397 636.1055 636.1306 636.1713 636.5470 637.4628
   637.7020 638.0554 638.6095 639.3112 639.5345 639.5725 639.6890 639.7405
   640.0431 640.3650 640.6530 641.7360 643.0226 643.0506 643.3997 643.4639
   643.4922 643.5249 643.6482 643.7766 645.2407 645.3777 645.5406 645.6848
   645.8147 645.8189 645.8468 645.8525 646.0725 646.2902 646.3257 646.5566
   646.5748 646.6160 647.1868 647.6168 650.9338 651.1683 651.4080 651.7460
   655.4348 655.5405 655.6150 655.6448 656.2257 656.2573 657.9057 657.9893
   659.1074 659.1707 659.7459 660.0736 660.1016 660.3069 660.4224 660.8294
   660.8501 660.8562 660.9110 661.3655 661.7823 661.8113 661.8154 661.9330
   665.9125 666.0644 666.5320 666.7408 668.4307 668.6985 668.7695 668.8849
   668.9863 669.2260 669.3047 669.3892 669.5287 669.8258 670.1366 670.5336
   671.2439 671.2630 671.2780 671.3425 671.6145 671.7893 671.8035 672.5573
   672.9742 673.1103 673.1526 673.4789 674.7685 674.7756 676.9067 676.9666
   678.4830 678.6973 678.8168 679.1422 679.3065 679.4352 679.4413 679.5321
   679.5843 679.6330 679.6477 679.6995 681.3860 681.8679 682.3819 682.3848
   682.6240 682.8253 684.5306 687.3440 687.5428 687.7386 687.8710 688.7692
   688.9195 689.2373 689.3361 689.3678 689.4422 689.4650 689.9454 690.3860
   690.7079 690.7302 690.7737 690.8016 691.5614 691.5629 692.3249 692.7937
   692.8193 692.8346 692.8516 695.4055 695.4541 695.5061 695.5273 697.1861
   698.0661 698.3028 698.3722 699.7010 699.8963 700.2780 701.0419 701.1660
   702.6109 703.1173 703.2397 703.4069 703.6302 704.6993 705.4545 705.5011
   705.6234 705.6839 706.6179 706.6717 707.2373 707.2522 708.1023 708.3958

     the Fermi energy is    10.5813 ev
     (compare with:     9.5507 eV, computed in scf)

     Writing all to output data dir out/mp-2605.save/
 
     init_run     :      0.02s CPU      0.03s WALL (       1 calls)
     electrons    :    384.53s CPU    409.09s WALL (       1 calls)

     Called by init_run:
     wfcinit      :      0.00s CPU      0.00s WALL (       1 calls)
     potinit      :      0.01s CPU      0.01s WALL (       1 calls)
     hinit0       :      0.01s CPU      0.01s WALL (       1 calls)

     Called by electrons:
     c_bands      :    384.53s CPU    409.06s WALL (       1 calls)
     v_of_rho     :      0.00s CPU      0.00s WALL (       1 calls)

     Called by c_bands:
     init_us_2    :      0.00s CPU      0.00s WALL (       8 calls)
     init_us_2:cp :      0.00s CPU      0.00s WALL (       8 calls)
     paro_k       :    370.91s CPU    394.42s WALL (       8 calls)

     Called by paro_*:
     h_psi        :      8.42s CPU      8.93s WALL (     826 calls)
     g_psi        :      0.17s CPU      0.20s WALL (   79730 calls)

     Called by h_psi:
     h_psi:calbec :      0.20s CPU      0.21s WALL (     826 calls)
     vloc_psi     :      8.04s CPU      8.53s WALL (     826 calls)
     add_vuspsi   :      0.11s CPU      0.11s WALL (     826 calls)

     General routines
     calbec       :      0.20s CPU      0.21s WALL (     826 calls)
     fft          :      0.00s CPU      0.00s WALL (      10 calls)
     fftw         :      7.18s CPU      7.62s WALL (  131384 calls)
 
     Parallel routines
 
     PWSCF        :   6m25.20s CPU   6m50.27s WALL

 
   This run was terminated on:  20:44:42  17Nov2023            

=------------------------------------------------------------------------------=
   JOB DONE.
=------------------------------------------------------------------------------=
