
     Program PWSCF v.7.1 starts on 17Nov2023 at 19:55:17 

     This program is part of the open-source Quantum ESPRESSO suite
     for quantum simulation of materials; please cite
         "P. Giannozzi et al., J. Phys.:Condens. Matter 21 395502 (2009);
         "P. Giannozzi et al., J. Phys.:Condens. Matter 29 465901 (2017);
         "P. Giannozzi et al., J. Chem. Phys. 152 154105 (2020);
          URL http://www.quantum-espresso.org", 
     in publications or presentations arising from this work. More details at
     http://www.quantum-espresso.org/quote

     Parallel version (MPI), running on     8 processors

     MPI processes distributed on     1 nodes
     123494 MiB available memory on the printing compute node when the environment starts
 
     Reading input from pw_mp-2605_nscf_k60_E84.in
Warning: card &IONS ignored
Warning: card / ignored
Warning: card &CELL ignored
Warning: card / ignored

     Current dimensions of program PWSCF are:
     Max number of different atomic species (ntypx) = 10
     Max number of k-points (npk) =  40000
     Max angular momentum in pseudopotentials (lmaxx) =  4

     Atomic positions and unit cell read from directory:
     out/mp-2605.save/
     Atomic positions from file used, from input discarded
 
 
     R & G space division:  proc/nbgrp/npool/nimage =       8
     Subspace diagonalization in iterative solution of the eigenvalue problem:
     one sub-group per band group will be used
     scalapack distributed-memory algorithm (size of sub-group:  2*  2 procs)

 
     Parallelization info
     --------------------
     sticks:   dense  smooth     PW     G-vecs:    dense   smooth      PW
     Min         119     119     35                 2446     2446     389
     Max         120     120     36                 2450     2450     391
     Sum         955     955    283                19579    19579    3119
 
     Using Slab Decomposition
 


     bravais-lattice index     =            2
     lattice parameter (alat)  =       9.0841  a.u.
     unit-cell volume          =     187.4084 (a.u.)^3
     number of atoms/cell      =            2
     number of atomic types    =            2
     number of electrons       =        16.00
     number of Kohn-Sham states=         1200
     kinetic-energy cutoff     =      84.0000  Ry
     charge density cutoff     =     336.0000  Ry
     Exchange-correlation= PBE
                           (   1   4   3   4   0   0   0)

     celldm(1)=   9.084123  celldm(2)=   0.000000  celldm(3)=   0.000000
     celldm(4)=   0.000000  celldm(5)=   0.000000  celldm(6)=   0.000000

     crystal axes: (cart. coord. in units of alat)
               a(1) = (  -0.500000   0.000000   0.500000 )  
               a(2) = (   0.000000   0.500000   0.500000 )  
               a(3) = (  -0.500000   0.500000   0.000000 )  

     reciprocal axes: (cart. coord. in units 2 pi/alat)
               b(1) = ( -1.000000 -1.000000  1.000000 )  
               b(2) = (  1.000000  1.000000  1.000000 )  
               b(3) = ( -1.000000  1.000000 -1.000000 )  


     PseudoPot. # 1 for Ca read from file:
     /usr/scratch4/magr4985/MG/HTDF/pseudo/SG15/Ca.upf
     MD5 check sum: b43c970dc090f2312d256360aabdb6f1
     Pseudo is Norm-conserving, Zval = 10.0
     Generated using ONCVPSP code by D. R. Hamann
     Using radial grid of  602 points,  6 beta functions with: 
                l(1) =   0
                l(2) =   0
                l(3) =   1
                l(4) =   1
                l(5) =   2
                l(6) =   2

     PseudoPot. # 2 for O  read from file:
     /usr/scratch4/magr4985/MG/HTDF/pseudo/SG15/O.upf
     MD5 check sum: e36c48deb68f4e355fffe4602be2c42c
     Pseudo is Norm-conserving, Zval =  6.0
     Generated using ONCVPSP code by D. R. Hamann
     Using radial grid of  602 points,  4 beta functions with: 
                l(1) =   0
                l(2) =   0
                l(3) =   1
                l(4) =   1

     atomic species   valence    mass     pseudopotential
        Ca            10.00    40.07800     Ca( 1.00)
        O              6.00    15.99940     O ( 1.00)

     48 Sym. Ops., with inversion, found



   Cartesian axes

     site n.     atom                  positions (alat units)
         1           Ca  tau(   1) = (   0.0000000   0.0000000   0.0000000  )
         2           O   tau(   2) = (  -0.5000000   0.5000000   0.5000000  )

     number of k points=     8  Gaussian smearing, width (Ry)=  0.0005
                       cart. coord. in units 2pi/alat
        k(    1) = (   0.0000000   0.0000000   0.0000000), wk =   0.0312500
        k(    2) = (  -0.2500000   0.2500000  -0.2500000), wk =   0.2500000
        k(    3) = (   0.5000000  -0.5000000   0.5000000), wk =   0.1250000
        k(    4) = (   0.0000000   0.5000000   0.0000000), wk =   0.1875000
        k(    5) = (   0.7500000  -0.2500000   0.7500000), wk =   0.7500000
        k(    6) = (   0.5000000   0.0000000   0.5000000), wk =   0.3750000
        k(    7) = (   0.0000000  -1.0000000   0.0000000), wk =   0.0937500
        k(    8) = (  -0.5000000  -1.0000000   0.0000000), wk =   0.1875000

     Dense  grid:    19579 G-vectors     FFT dimensions: (  40,  40,  40)

     Estimated max dynamical RAM per process >      98.21 MB

     Estimated total dynamical RAM >     785.67 MB

     The potential is recalculated from file :
     out/mp-2605.save/charge-density

     Starting wfcs are random

     Band Structure Calculation
     ParO style diagonalization

     ethr =  5.00E-06,  avg # of iterations =  5.8

     total cpu time spent up to now is      601.5 secs

     End of band structure calculation

          k = 0.0000 0.0000 0.0000 (  2421 PWs)   bands (ev):

   -29.8978 -10.6673 -10.6673 -10.6673  -7.7099   7.7800   7.7800   7.7800
    12.5113  13.9962  13.9962  13.9962  15.4923  15.4923  22.8661  30.1845
    30.1845  30.1845  35.2392  35.2392  35.2392  35.7437  35.7437  35.9236
    35.9236  35.9236  44.5077  49.9039  49.9039  49.9039  53.1494  53.1494
    55.8514  55.8514  55.8514  57.0826  67.0297  67.0297  67.0297  68.4095
    68.6481  68.6481  68.6481  69.2835  69.2835  69.2835  70.5945  70.5945
    70.5945  71.5455  71.5455  71.5455  74.2886  74.2886  74.2886  74.4117
    74.4117  75.8180  76.4389  77.0853  77.0853  86.5837  86.5837  86.5837
    86.6178  86.6178  86.6178  99.6098  99.6098  99.6098 100.1158 104.9754
   104.9754 110.6962 110.6962 110.6962 114.0517 114.0517 114.0517 117.3626
   117.3626 117.3626 118.5539 119.1925 119.4155 119.4155 121.4919 121.4919
   121.4919 123.3436 123.3436 123.3436 124.3838 124.3838 124.3838 124.4227
   124.4227 124.4227 124.5833 124.5833 125.2940 125.2940 125.2940 126.4916
   126.4916 126.4916 128.2270 128.2270 128.4889 129.4600 129.4600 129.4600
   130.2988 135.5978 135.5978 138.1165 138.1165 138.1165 142.3607 142.3607
   142.3607 146.9359 148.2304 148.2304 148.2304 153.0816 153.0816 153.0816
   153.4571 153.4571 153.5390 153.5390 153.5390 153.6932 153.6932 153.6932
   153.7241 153.7241 153.7241 153.7804 153.7804 155.2720 159.0342 159.0342
   159.0342 167.0349 167.6031 167.6031 167.6031 170.2740 171.8682 171.8682
   171.8682 172.1553 172.1553 172.1553 172.8712 172.8712 172.8712 173.0302
   173.0302 173.0302 175.3324 177.7123 177.7123 177.7723 177.7723 177.7723
   177.8471 182.2922 182.2922 182.2922 184.5214 184.5214 190.3431 190.3431
   190.3431 200.5753 200.5753 200.5753 200.8154 200.8154 200.8154 206.1211
   206.1211 206.1211 206.2075 206.2075 206.5054 215.0659 215.0659 215.0659
   215.0876 215.0876 217.6270 217.6270 217.6270 218.3889 218.3889 218.3889
   219.3997 219.3997 219.3997 220.2436 220.2436 220.2436 220.9498 220.9498
   221.7399 222.0823 222.0823 222.0823 223.0063 224.4498 224.4498 224.4498
   224.6336 224.6336 224.6764 224.6764 224.6764 225.4881 225.9122 225.9122
   225.9122 226.2816 226.2816 226.2816 226.3273 227.9600 227.9600 227.9600
   227.9652 228.2827 228.2827 228.6406 228.6406 228.6406 229.3875 229.3875
   229.3875 229.8370 231.7071 231.7071 231.7097 231.7097 231.7097 231.9164
   231.9164 231.9164 232.4436 232.4436 232.4436 232.7557 232.7557 232.7557
   232.7852 232.7852 234.9344 244.7411 244.7411 246.8214 246.8214 246.8214
   249.4386 249.4386 249.4386 253.2022 253.2022 253.2022 253.5837 253.5837
   253.5837 253.9045 253.9045 253.9045 258.4640 258.7586 258.7586 258.8765
   258.8765 258.8765 258.9410 261.1027 261.1027 261.1027 264.6099 264.6099
   264.6099 269.5474 271.5318 271.5318 275.3179 275.9780 275.9780 275.9780
   276.2721 276.2721 276.3135 276.3135 276.3135 276.4036 276.4036 276.4036
   276.5188 276.5188 276.5188 278.1355 278.1355 278.1355 278.8272 278.8272
   278.8272 280.7174 280.7174 281.2614 282.2595 282.2595 282.2595 282.3416
   282.3416 282.3416 282.3726 282.3726 282.3726 282.5464 282.5464 282.5967
   282.5967 282.5967 286.7030 294.9530 294.9530 297.8901 297.8901 297.8901
   300.6545 300.6545 300.6545 306.5573 307.1575 307.1575 307.1575 308.7197
   310.1409 310.1409 310.1409 317.7785 317.9881 317.9881 318.4506 318.4506
   318.4506 319.5338 319.5338 319.5338 322.3298 322.3298 322.3298 323.3806
   325.5764 325.5764 325.5764 326.6715 326.6715 327.0520 327.0520 327.0520
   327.7762 327.7762 327.7762 327.8683 327.8683 327.8683 328.1544 328.1544
   328.1544 329.3519 329.3519 329.3519 330.5489 330.5489 330.5489 330.5838
   330.8966 330.8966 330.9174 330.9174 330.9174 330.9513 330.9513 330.9513
   333.2975 333.2975 333.8244 333.8244 333.8336 333.8336 333.8336 333.8371
   334.1482 334.1482 334.1482 334.3758 334.3758 334.3758 334.4495 334.4495
   334.4495 334.4960 339.2441 349.5611 349.5611 349.5611 350.4536 350.4536
   350.4536 353.9869 354.3828 354.3828 357.1693 357.1693 357.1693 357.3004
   357.3004 357.3004 357.5021 357.5021 357.5114 357.5114 357.5114 357.6740
   357.6740 357.6740 359.6898 361.7101 361.7101 361.7306 361.7306 361.7306
   361.7308 361.7308 361.7308 361.7359 361.7359 361.7909 361.7909 361.7909
   361.8178 361.8178 361.8178 362.1702 362.1702 362.1702 363.4127 363.4591
   363.4591 363.4591 363.5053 363.5053 363.5053 363.5512 364.0460 364.0460
   364.0460 365.1978 365.1978 371.5728 371.5728 371.5728 372.1737 372.4634
   372.4634 372.4634 373.2168 373.2168 373.2168 374.9566 374.9566 374.9566
   375.4899 375.7713 375.7713 375.7713 376.2120 376.2120 376.4961 376.4961
   376.4961 376.9469 380.4248 380.4248 380.7571 380.7571 380.7571 381.1382
   381.1382 381.1382 381.1470 381.1470 381.1470 381.4560 381.4560 381.4560
   381.4824 381.4824 381.8091 382.1169 382.1169 382.1169 382.1840 382.1840
   383.9725 383.9725 383.9725 384.0010 384.0010 384.0010 384.0943 384.0943
   384.0943 384.1491 384.1491 384.1491 384.3531 385.2874 385.3357 385.3357
   385.3357 385.3454 385.3454 398.8376 398.8376 400.5560 400.5560 400.5560
   409.5824 420.8608 420.8608 420.8608 425.4139 425.4139 425.4139 427.8146
   427.8146 429.6067 429.6067 429.6067 430.0095 430.0095 430.3895 430.3895
   430.3895 430.3954 430.4336 430.4336 430.4336 430.5277 430.5277 430.5277
   430.6034 430.6034 430.6034 430.7217 430.7217 430.7217 430.7424 430.7424
   430.8736 431.2924 432.4574 432.4574 432.4574 433.3658 435.2038 435.2038
   435.2038 435.4329 435.4329 435.4329 435.4701 435.4701 435.4701 435.7648
   435.7648 435.7648 439.6456 439.6456 439.7353 439.7353 439.7353 439.7474
   439.7474 439.7474 439.7794 439.7794 439.7794 439.8723 439.8723 439.8935
   439.8935 439.8935 440.9420 440.9420 440.9770 440.9770 440.9770 440.9966
   442.2416 456.2566 456.2566 456.2566 457.5324 457.5324 457.5324 458.6691
   458.6691 460.1188 460.1188 460.1188 461.3480 462.2563 462.2563 462.2563
   463.6134 463.6134 463.8224 463.8613 463.8613 463.8613 463.9791 463.9791
   463.9839 463.9839 463.9839 464.0376 464.0376 464.0376 464.0701 464.0701
   464.0701 464.1398 464.1398 464.1398 466.2953 468.6615 468.6615 468.6615
   470.0499 470.0499 470.0499 471.5856 471.5856 472.9643 472.9643 472.9643
   480.3600 480.3600 480.6317 480.7248 480.7248 480.7248 480.8321 480.8321
   480.8321 480.9727 480.9727 480.9727 481.1062 481.2507 481.4134 481.4134
   481.4134 481.7986 481.7986 481.7986 484.0190 484.5773 484.5773 484.5966
   484.5966 484.5966 484.6169 484.6169 484.6169 484.6942 484.6942 484.6942
   484.9102 487.8265 487.8265 487.8265 488.4075 488.4075 488.4075 488.4599
   488.4599 488.5342 488.5342 488.5342 488.5386 488.5468 488.5468 488.5468
   488.6152 488.6152 488.6152 489.2601 489.2601 489.5840 489.5840 489.5840
   490.3785 490.6673 490.6673 490.6673 490.8510 490.8510 490.8510 491.0614
   491.0614 491.0614 491.0938 491.0938 493.9109 506.2410 506.2410 506.2410
   511.3150 511.3150 512.7680 512.7680 512.7680 513.4167 513.4167 513.4167
   513.4392 513.4392 513.4392 513.8149 513.8149 513.8149 513.9876 513.9876
   514.2936 514.2936 514.2936 514.4017 516.2035 516.2035 516.7845 518.1397
   518.1397 518.1397 523.3526 527.1287 527.1287 527.1287 527.6087 527.6087
   527.6087 529.0748 532.2159 532.2159 532.4189 532.4189 532.4189 532.4570
   532.4570 532.4570 532.6545 532.6545 532.6545 532.6580 532.6580 532.6580
   532.7165 532.7165 533.8064 535.7546 535.7546 535.7546 535.8837 535.8837
   535.8837 535.9503 535.9503 535.9503 535.9590 535.9590 535.9590 536.6688
   536.6688 536.6688 536.6950 536.6950 536.7446 536.7446 536.7446 536.8648
   536.8648 536.9001 536.9001 536.9001 536.9540 536.9540 536.9540 537.7093
   537.7093 537.7093 538.1741 538.1741 538.1741 538.4345 538.5299 538.5299
   538.5299 538.6486 538.6486 538.6486 538.7111 538.7847 539.5239 539.5239
   539.8083 539.8083 539.8083 539.9754 539.9754 539.9754 539.9789 539.9789
   539.9789 539.9867 539.9867 540.0644 540.0644 540.0644 542.0776 542.0927
   542.0927 542.0927 542.1010 542.1010 544.4104 544.4104 544.4104 544.4290
   544.4290 544.4321 544.4321 544.4321 544.4470 544.4470 544.4470 544.4625
   544.4625 544.4843 544.4843 544.4843 544.8680 544.8680 544.8680 544.8770
   544.8776 544.8776 544.8776 544.9032 546.2271 559.8992 559.8992 559.8992
   561.2694 561.2694 561.2694 561.6766 564.8586 569.6011 569.6011 569.6104
   569.6104 569.6104 569.6613 569.6613 569.6613 569.7288 569.7288 569.7288
   569.8348 569.8348 569.8348 569.8585 569.8585 574.8838 574.8838 574.8838
   577.0347 577.0347 580.5578 580.5578 580.5578 580.7361 580.7361 580.7361
   580.9184 580.9184 580.9184 580.9717 580.9717 580.9717 584.0646 584.5950
   584.5950 584.6261 584.6261 584.6261 584.7515 589.5170 589.5450 589.5450
   589.5501 589.5501 589.5501 592.0933 592.0933 592.0933 592.0944 592.0944
   592.0944 592.1029 592.1029 592.1029 592.1039 592.1039 592.1039 593.4746
   593.4746 593.4760 593.4760 593.4760 593.4868 613.3693 613.3693 613.3693
   618.4341 618.4341 618.4341 618.8370 618.8596 618.8596 619.1336 619.1336
   619.1336 619.1412 619.1412 619.1412 619.2650 619.2650 619.2650 619.2892
   619.2892 619.2892 619.3792 619.3792 620.3247 624.6178 624.6178 624.6178
   630.0051 630.0051 630.0051 631.4060 631.4060 631.5175 631.5175 631.5175
   631.9372 632.3494 632.6291 632.6291 632.6291 632.6618 632.6618 632.6618
   634.8541 635.0988 635.0988 635.0988 635.6320 635.6320 637.4385 637.4385
   637.4385 637.8036 637.8036 637.8036 638.3089 638.3089 638.3089 638.6237
   638.6237 638.8118 638.8118 638.8118 639.3896 639.3896 639.3896 639.6421
   639.6733 639.6733 640.1769 640.1769 640.1769 640.4068 640.5275 640.5275
   640.5914 640.6390 640.6390 640.6390 640.9176 640.9176 640.9176 641.0282
   641.0282 641.0282 641.7369 641.7369 641.7722 641.7722 641.7722 641.9324
   641.9324 641.9324 641.9479 641.9479 641.9479 642.0268 642.0268 642.0268
   642.0659 642.0659 643.2842 643.2842 643.2938 643.2938 643.2938 643.3020
   643.3142 643.3142 643.3142 643.3171 643.3171 643.3171 645.9328 646.5544
   646.5656 646.5656 646.6012 646.6012 646.6012 646.6133 646.6133 646.6133
   646.6458 646.6458 646.6458 663.8826 663.8826 663.8826 665.8950 665.8950
   667.7322 668.4174 668.4174 668.4174 668.8009 668.8009 668.8009 669.1487
   669.2383 669.2383 669.2383 669.3992 669.3992 669.3992 669.4857 669.4857
   669.4857 669.6181 669.6181 669.6648 669.6648 669.6648 669.8559 669.8559
   669.8559 670.0394 670.0394 670.2168 670.2168 670.2168 670.4340 670.4340
   670.4340 670.6051 670.6051 670.6051 671.6300 673.8464 673.8464 673.8464
   673.8674 673.8674 673.8674 673.9149 673.9149 673.9196 673.9196 673.9196
   673.9921 674.0975 674.0975 674.0979 674.1540 674.1540 674.1540 674.1603
   674.1603 674.1603 674.2206 674.2206 674.2206 675.2945 675.2945 675.3105
   675.3105 675.3105 675.3364 681.3897 681.3897 681.3897 684.0365 684.0365
   684.0365 684.3442 684.3442 684.3442 684.3452 684.3452 685.6437 685.6437
   685.6437 685.7700 685.7700 685.7700 685.8227 685.8227 686.0811 686.0811
   686.0811 686.3118 687.6860 689.8187 690.2051 690.2051 690.2051 690.4343
   690.4343 690.4343 690.9842 690.9842 691.0277 691.0277 691.0277 691.6171
   691.6171 691.6171 691.7895 691.7895 691.7895 691.8910 691.8910 691.8910
   691.9259 691.9259 692.0721 695.7477 695.7477 695.7654 695.7654 695.7654
   695.8512 695.8512 695.8512 695.8845 695.8845 695.8845 695.9139 695.9170

          k =-0.2500 0.2500-0.2500 (  2442 PWs)   bands (ev):

   -29.8474 -11.2856 -10.6940 -10.6940  -7.0547   6.2544   7.1230   7.1230
    14.0289  14.6426  14.9449  14.9449  16.7335  16.7335  23.7092  27.6935
    27.6935  28.6700  32.9358  32.9358  33.4447  35.7386  35.7386  37.3695
    40.7856  40.7856  45.9327  45.9327  48.7254  50.9859  52.4307  54.4595
    54.4595  57.6168  57.6168  58.0549  60.0296  61.6047  61.7761  61.7761
    64.4427  64.4427  65.3982  67.2418  67.2418  67.8822  70.9127  72.6478
    72.6478  73.5105  73.5105  77.0453  78.0771  78.0771  78.5813  79.4762
    79.4762  80.8164  83.9891  85.1563  85.1563  85.2564  87.5244  87.5244
    89.1020  89.1020  92.6523  94.7044  98.7796  98.7796 100.1359 100.1359
   102.2353 103.4211 103.4211 105.7100 108.5194 108.5194 108.8865 108.8865
   109.4502 112.5855 112.9695 112.9695 114.3289 117.1059 117.1059 117.2079
   120.0730 120.0730 121.1730 122.0952 122.5305 122.5305 122.6075 124.8117
   126.4141 126.4141 126.9049 127.8357 127.8357 127.9312 129.0557 129.0557
   131.9634 131.9634 132.9157 133.0573 133.0573 134.2957 135.2705 135.2705
   139.2563 140.1419 140.1419 140.9150 141.4896 141.4896 142.0664 142.7307
   144.0021 144.0021 145.1552 146.4420 146.4420 148.4409 148.4409 149.1644
   150.5022 152.3005 152.3005 153.0305 153.0305 153.0886 153.8161 153.8161
   155.0915 155.0915 155.3368 157.0378 160.2842 160.2842 161.1804 162.8795
   163.5801 163.5801 164.0587 164.6259 164.6259 166.3022 167.0633 167.0633
   167.9542 170.5003 170.5003 171.5864 173.3959 175.8053 175.8053 179.7767
   179.7767 180.4815 182.8361 182.8361 182.8473 184.5567 184.5567 186.4264
   187.5924 187.5924 189.2164 189.2164 189.3886 190.9462 192.1131 192.1131
   194.7771 194.7771 195.6798 196.4533 197.6295 197.6295 198.3446 198.3446
   199.3387 199.3387 200.5316 201.1387 201.4928 201.7558 201.7558 203.3371
   203.7382 203.7382 204.5234 204.7738 205.9553 205.9553 208.7427 208.7427
   208.7942 208.7942 210.2408 211.8381 212.3297 216.0911 216.0911 218.4026
   218.4026 218.7837 219.8032 219.8032 220.4358 221.5451 221.5451 222.4054
   223.4484 224.0816 224.0816 224.3930 224.9617 224.9617 225.7710 225.7710
   225.9435 227.5520 227.5649 227.5649 227.6907 230.2100 230.2100 230.6857
   231.0720 231.0720 231.3696 232.9893 232.9893 233.5252 233.5252 235.6996
   235.8198 236.0901 236.0901 236.8008 237.3481 239.2730 239.2730 239.5870
   239.5870 239.6429 239.7760 240.6722 240.6722 242.1337 242.1337 244.4391
   244.4391 244.8826 245.9080 246.3370 246.3370 247.4671 248.6110 249.2354
   249.2354 251.0518 251.0518 251.3008 251.4234 251.4234 252.5295 254.1082
   254.1082 255.0682 256.9005 256.9005 258.2461 258.4456 258.4456 258.4734
   260.6400 260.6400 261.0372 263.4812 263.4812 263.6072 264.2855 264.2855
   264.7397 265.4479 265.4479 265.9760 268.7574 268.7574 269.8161 270.0445
   270.9039 271.3579 271.3579 272.7478 272.7478 274.2467 274.2912 274.2912
   275.2792 275.2792 277.2462 278.5738 280.1708 280.1708 282.9081 282.9081
   283.8914 284.5334 284.5334 284.6673 285.6470 288.3894 288.3894 289.5475
   289.5475 290.5232 292.0886 292.0886 293.1277 293.1277 293.1373 294.0672
   294.1897 295.6172 296.8316 296.8316 298.4138 298.4138 299.7007 300.8764
   300.8764 301.9013 301.9013 302.0375 302.7103 302.7103 303.0740 303.1399
   303.9648 304.0565 304.0565 305.3562 305.3562 306.1467 306.5464 309.1884
   309.1884 311.0714 312.3216 312.3216 313.8930 313.8930 314.3273 314.9084
   315.8241 315.8241 316.7839 316.7839 318.3498 318.6131 318.6131 319.1638
   319.1638 319.6921 321.4131 321.4376 321.4376 324.1701 324.1701 324.9325
   324.9325 325.2458 325.6860 325.8157 327.8964 327.8964 328.2114 330.5956
   330.5956 331.9710 332.4578 332.4578 332.9625 333.0766 333.2314 333.2314
   333.8309 333.8309 336.1413 336.1413 336.3546 336.3860 337.8572 337.8572
   339.2090 339.2090 339.3790 339.6429 340.6831 340.6831 341.4307 342.0669
   342.0669 343.5630 345.8782 346.1735 346.5123 346.5123 347.8936 347.8936
   348.3319 348.3380 348.3604 348.3604 349.7500 349.7500 350.6574 350.6574
   351.7455 351.9400 352.0491 352.0491 352.4211 352.4211 352.8932 353.0810
   354.7138 354.7138 356.3636 356.5888 356.5888 356.8587 356.8587 357.3222
   358.6717 358.9062 359.2714 359.2714 360.0843 360.0843 360.6305 360.6652
   360.6652 361.4288 361.4288 361.6353 362.4379 362.4379 362.4807 363.2744
   363.2744 363.4030 364.4567 365.4223 365.6330 365.6330 367.2570 367.2570
   367.7270 367.7270 368.0308 368.9038 370.2195 370.2195 371.3449 372.6487
   372.6487 372.7167 372.7167 372.8172 372.9705 373.0273 373.0273 373.5663
   374.0111 374.0111 374.6400 374.7147 374.7147 378.5014 381.4218 381.4218
   383.5774 383.5774 384.1358 384.7789 384.7789 385.4279 386.1974 386.4599
   388.3452 388.9372 388.9372 389.0697 389.0697 389.3111 389.3111 389.3546
   389.5130 392.0562 392.0562 392.2611 393.6077 395.2219 395.2219 396.8995
   396.8995 397.1204 397.1204 397.2011 398.3029 398.3029 398.6785 399.9685
   400.8198 400.8198 401.8976 401.8976 402.5217 402.5217 403.5812 403.9922
   405.2424 405.2424 405.5130 405.5130 405.7098 406.4867 406.9761 406.9761
   407.6426 407.6426 407.7690 408.5761 408.5761 409.2020 409.8915 411.5277
   411.5277 413.3600 413.9658 413.9658 415.5312 416.4625 416.4625 417.3583
   418.6578 419.7749 419.7749 419.9588 419.9865 420.1733 420.1733 421.2158
   421.2158 421.3598 421.4076 421.4076 421.5778 424.5804 424.5804 424.9648
   424.9648 425.0057 426.5050 426.5050 428.0740 428.5220 428.5220 428.8161
   431.3647 431.3647 431.7718 432.9976 432.9976 434.4824 434.8692 434.8692
   435.8196 437.4716 438.5486 438.5486 439.1611 439.1611 439.3918 439.6103
   440.6370 440.6370 441.6294 441.6294 442.0063 442.8555 444.6864 444.6864
   445.8197 449.0308 449.0308 449.0904 450.6191 450.6191 451.7932 451.7932
   451.8739 451.9358 452.1521 452.1521 453.3273 453.3273 453.9960 453.9960
   454.3208 454.3621 455.0493 455.0493 455.1864 456.1852 457.5858 457.5858
   457.9552 458.4333 458.4333 459.4149 459.8980 459.8980 459.9888 460.4617
   460.4617 460.5491 461.1681 461.1681 461.5786 464.0145 464.0145 464.2757
   466.3925 466.3925 467.7471 467.7471 467.8191 469.6924 469.7486 469.7486
   471.1282 471.8586 472.1750 472.1750 472.3517 473.7040 473.7040 474.4610
   474.4610 475.5913 475.9242 475.9242 476.3446 477.2760 478.1933 478.1933
   479.1288 480.8068 480.8068 480.8535 481.7814 481.7814 481.8576 482.8649
   483.4324 483.4324 483.9220 483.9220 484.0774 484.1006 484.1006 484.2727
   484.7444 484.7444 485.5463 485.5463 485.5942 486.1120 486.2416 486.2416
   487.0210 487.0210 488.6597 489.5291 489.5291 490.7882 490.7882 491.2130
   491.2130 491.2696 491.4842 493.1362 493.8549 494.9504 494.9504 495.3422
   495.3803 495.3803 495.5323 495.5323 495.5499 495.9127 495.9127 497.7392
   497.7392 497.8248 498.0899 499.5141 499.5141 499.6634 499.6634 499.8819
   500.1676 500.1676 500.2435 500.4948 501.3231 501.3231 501.9544 501.9544
   502.2364 502.4017 503.1482 503.1482 503.2833 503.9082 503.9082 505.5486
   506.3465 506.3465 506.5054 507.4834 507.5128 507.5128 507.8500 507.8500
   507.9816 508.4846 509.0545 509.0545 510.5350 511.1099 511.1099 511.2636
   511.4952 511.4952 514.9700 516.6381 516.6381 516.6982 518.3236 518.3236
   518.9601 518.9601 519.5697 519.5697 519.7469 519.7570 519.7696 519.7696
   519.9485 522.2473 522.2473 522.5749 523.3202 523.3202 524.4180 524.4180
   524.4770 525.0032 526.0021 526.0021 526.8289 527.3080 527.3080 527.9996
   527.9996 528.0814 528.4504 529.9484 529.9484 530.0544 530.6610 530.6610
   530.9685 531.3626 533.2323 533.2323 533.7600 534.9088 534.9088 535.0696
   535.3987 535.4467 535.4467 536.4188 536.4188 536.5994 538.0642 538.0642
   538.1028 539.0603 539.0603 540.0498 540.3615 540.3615 541.3359 541.8632
   541.8632 541.9639 544.2176 544.2176 544.6878 544.6878 544.8676 547.5293
   547.6325 547.6325 549.3736 551.2187 551.2187 551.9147 551.9844 552.1842
   552.1842 552.3972 552.3972 552.4791 552.9523 552.9523 553.1938 553.5499
   553.5499 553.9015 553.9015 554.0848 554.0848 554.1378 554.1909 554.6557
   554.6806 554.6806 555.5339 557.9781 557.9781 558.0325 560.2655 560.2655
   561.1569 561.5646 561.5646 562.0997 562.1642 562.1642 563.3566 563.3657
   563.3657 563.4625 563.5940 563.5940 563.7547 564.8917 564.9882 564.9882
   566.4239 566.4967 566.4967 567.7158 567.7158 567.7693 568.1089 568.3222
   568.3222 572.4623 572.4623 572.6675 574.2603 575.0274 575.0274 575.2369
   575.2369 575.4022 576.0269 576.0269 576.0360 576.6766 576.6766 576.6773
   577.0625 577.8116 577.8116 578.2674 579.8049 582.4824 582.4824 583.9732
   583.9732 584.0177 584.4715 585.2020 585.2020 585.6584 585.6584 586.9238
   587.1932 587.1932 587.4310 587.4310 588.0405 590.6274 590.6274 591.3054
   591.3383 591.3383 592.1096 592.2310 592.2310 593.7565 594.2788 594.2788
   594.4268 595.0970 595.0970 595.3344 595.9272 595.9272 595.9718 597.3425
   597.3425 599.3166 599.6192 599.6192 600.6455 601.9777 601.9777 602.1910
   603.1634 603.1634 603.2937 604.9344 604.9344 607.0666 609.2071 609.2071
   610.3072 610.6880 610.9426 610.9426 612.0646 612.0646 612.7519 613.1612
   613.1612 613.2281 613.7809 613.7809 613.9576 615.0892 618.2694 619.0500
   619.0500 619.4251 619.4251 619.8483 619.8483 619.8563 619.9671 620.0373
   620.0373 620.2219 620.2219 620.3248 621.3345 621.8375 621.8375 622.0488
   623.0940 623.0940 623.2756 623.2756 623.3963 627.3354 627.3354 629.1918
   630.1781 630.1781 630.2670 630.2670 630.3957 630.9406 631.2218 631.2218
   631.4718 631.4718 631.6540 631.7249 631.7249 631.7495 631.9193 632.0593
   632.0593 632.1408 634.0788 634.1663 634.1663 634.5819 634.5939 634.5939
   634.6065 635.4172 635.4172 636.1036 636.1036 636.1354 636.3333 636.3333
   637.1443 637.1513 637.1513 639.3308 639.7631 640.4436 640.4436 640.6892
   640.7683 640.7683 640.8169 642.9245 642.9245 643.0480 644.3361 644.3361
   645.1998 645.1998 645.2134 645.3228 645.9754 645.9754 646.4105 646.4105
   646.4650 646.6459 648.0403 648.0403 648.0688 648.3612 648.3612 648.7386
   649.3005 649.3005 650.2619 651.4577 651.4577 651.4723 651.6152 651.6152
   651.7620 651.8733 651.8733 652.3801 652.4993 652.4993 652.5424 654.4074
   654.4525 654.4525 656.8867 656.8867 656.8958 659.8665 659.8665 659.8804
   660.1665 660.1665 660.1957 660.3197 660.3197 661.1374 664.7765 664.7765
   664.9330 666.2789 666.4789 666.4789 667.0914 667.0914 667.1124 668.1891
   668.1891 668.9258 669.6563 669.6563 669.8135 670.8190 670.8728 670.8728
   671.9834 671.9834 672.3290 672.3290 672.4085 672.4771 672.6082 672.6258
   672.6258 672.6800 672.6800 672.6959 672.7798 672.7798 673.6338 673.8200
   673.8200 673.8774 673.8774 673.9027 673.9671 677.1757 677.5269 677.5269
   678.0145 678.0145 678.4664 679.7790 679.7790 679.9004 681.7736 682.3774
   682.3774 682.7211 682.8287 682.8287 682.8529 684.4332 684.4332 684.6799
   684.8945 684.8945 684.9029 685.7170 685.7170 686.4143 686.4178 686.4178
   686.5067 686.5067 686.5257 686.5257 686.5297 686.5734 687.4013 688.4576
   688.8736 688.8736 689.8332 689.8332 690.8979 690.9838 690.9838 691.0211
   691.0812 691.0812 691.8025 693.2704 693.2704 693.2715 694.5152 694.5152
   695.3481 695.3481 695.4755 697.1992 698.0170 698.0170 698.0552 698.0552
   698.3306 698.6434 698.6434 699.0372 699.7210 699.7210 699.7295 701.7456
   701.7456 701.8194 702.3804 702.3804 702.4164 702.5155 702.5155 703.0042

          k = 0.5000-0.5000 0.5000 (  2452 PWs)   bands (ev):

   -29.7963 -11.7600 -10.7204 -10.7204  -6.5369   5.1539   6.5853   6.5853
    14.8129  16.1041  16.1041  16.2927  18.1593  18.1593  21.9925  24.7363
    24.7363  29.9151  31.9809  33.8140  33.8140  34.4062  34.4062  41.3381
    44.6400  44.6400  44.8730  45.1937  45.1937  50.6265  50.6265  51.9133
    53.0114  54.6133  54.6133  56.9335  57.1718  60.7869  62.5738  62.5738
    64.8487  65.2525  65.2525  66.6134  68.1044  68.1044  70.5615  71.0953
    71.0953  75.3473  76.8579  76.8579  80.3146  81.0788  81.0788  85.3818
    86.8712  86.8712  87.7958  87.7958  88.5883  88.5883  90.9187  90.9187
    91.5929  92.9379  92.9379  92.9965  94.0583  94.0884  94.8460  96.6092
    96.6092 101.4251 103.2082 103.2082 104.2600 106.6316 106.6316 106.7350
   106.7350 107.3744 107.3744 110.6234 110.6234 114.0459 114.3109 117.1875
   117.1875 117.2251 118.5670 120.2477 121.4551 121.4551 121.9303 122.1675
   122.1675 124.8167 128.2132 128.2132 128.4620 129.4421 131.2648 131.2648
   132.3236 132.5832 132.5832 133.6555 135.2345 136.1008 136.1008 138.8521
   138.8521 141.0096 141.3400 141.3400 142.6032 142.6032 142.8112 142.8112
   143.7754 145.1647 145.9919 148.1760 148.9178 148.9178 149.2486 152.2053
   152.2053 154.5787 154.5787 155.6023 156.4937 156.4937 158.0075 158.0075
   158.3594 158.4381 160.1796 160.1796 160.4021 162.1265 163.5428 164.2171
   164.2171 164.4840 164.4840 167.1136 169.8476 169.8476 169.8675 169.8675
   171.8424 171.8464 171.8829 171.8829 172.6458 172.6458 174.2740 174.2740
   180.1459 180.1459 180.1946 180.6898 180.6898 181.2159 184.5068 184.5068
   184.7267 184.7267 184.7417 184.8827 186.2998 186.2998 186.6163 189.4545
   192.3343 193.0733 193.0733 194.5769 196.3753 197.4807 197.4807 200.2030
   200.2030 201.0927 201.0927 201.4877 202.7701 203.0571 203.7843 203.7843
   205.3198 205.9312 205.9312 207.0753 207.0753 207.6905 208.4488 208.4488
   209.2465 209.2465 209.3108 209.5706 209.8164 209.8164 210.2044 210.2044
   211.2405 212.1000 216.2424 216.2424 217.4414 219.4841 219.7705 219.7705
   221.1571 221.1571 221.4864 222.3058 222.3608 222.3608 222.8359 223.0682
   223.0682 223.4943 223.4943 224.8231 225.0464 225.0464 227.7513 227.7513
   228.8474 229.3374 229.3374 230.7599 231.5798 233.5764 233.6176 233.6176
   234.2498 234.2498 234.2906 235.8630 241.9941 242.5487 242.5487 242.7012
   242.7012 243.3702 244.4223 244.8715 244.8715 246.8552 246.8552 247.1566
   247.4568 247.5937 247.5937 248.8060 248.8060 250.0870 250.2084 250.2084
   250.3866 250.5990 250.5990 250.7234 252.7145 254.1731 255.5517 255.5517
   255.5844 256.0168 256.0168 262.9124 262.9124 263.2424 263.2424 266.4535
   267.4052 267.4052 267.6675 269.2166 269.2166 271.6121 272.8988 272.8988
   273.4566 273.4615 273.4615 273.5223 273.6346 273.6346 273.7635 273.7635
   273.9520 273.9520 274.0113 274.1720 274.1750 276.8764 277.5052 278.5563
   278.5563 282.4343 282.9993 282.9993 284.0339 284.0339 284.2244 284.6030
   285.2190 285.2190 285.2902 285.2902 285.4680 285.4680 285.6681 285.6681
   285.7954 286.8680 287.0566 287.0566 287.0776 287.5306 288.0742 289.0999
   289.0999 289.1447 289.1447 290.6733 290.6736 294.9736 299.6293 299.6293
   299.8329 299.8329 300.7656 300.8855 300.8855 301.2335 301.2867 301.2867
   303.7819 303.7819 304.5551 304.5927 304.5927 305.0534 305.0534 307.7429
   307.7429 308.7084 309.1819 309.1819 310.6207 312.3957 312.3957 312.4640
   312.4640 312.5024 312.7171 312.7292 313.7794 313.7794 313.9411 314.0988
   315.2762 315.2762 315.7867 317.9399 317.9399 318.6886 318.6886 319.8869
   322.9477 322.9477 323.6402 324.2113 325.1494 325.1494 325.6239 325.6239
   326.0105 326.0105 326.1074 326.6280 326.8347 326.8347 326.9859 328.9522
   334.4311 334.7407 334.7407 335.4911 335.4911 336.9179 336.9179 337.7631
   337.8143 337.8270 337.8270 337.9262 338.5238 338.5238 339.1193 339.7848
   339.7848 340.3232 340.6038 343.8139 343.8139 344.4870 344.4870 345.1364
   345.6352 347.4683 347.4683 348.2509 349.0020 349.3389 349.5347 349.5347
   349.9202 349.9202 350.5016 350.5016 350.5616 350.5616 350.9347 352.5141
   353.3863 353.3863 354.3298 354.3298 355.4280 355.6204 355.6204 359.2436
   359.2436 360.3156 360.6892 361.3012 361.3012 362.3317 362.7404 362.7404
   363.2199 363.5335 363.5335 365.1032 365.2828 365.2828 365.3802 365.3802
   365.6503 366.9301 368.4571 368.4763 368.4763 368.4915 368.4915 368.5649
   371.4927 372.4112 372.4112 374.8358 374.8358 376.5173 376.5173 376.9611
   377.7583 377.7583 378.0343 378.0363 381.7749 381.7959 381.7959 383.4733
   385.0927 385.0927 386.1959 386.1959 386.3348 388.8273 388.8273 388.9418
   389.2812 389.2812 389.4829 390.0796 390.0796 390.1428 390.1826 391.3254
   391.7451 391.8810 391.8810 391.9837 391.9837 392.0951 392.8325 392.8325
   393.0267 395.7904 395.7904 396.3416 396.3416 397.6896 397.7035 397.7035
   398.2570 398.2570 398.7145 399.6532 399.6532 399.8391 400.8516 402.0775
   402.8448 402.8719 403.3548 403.3964 403.3964 403.4191 403.4191 403.6687
   403.6687 403.7980 403.7980 404.0343 404.0343 404.1451 404.1873 404.1873
   404.2044 405.4785 405.4785 405.6184 405.6520 405.6520 405.7935 409.3080
   414.4484 414.4484 415.2445 415.5355 415.5355 415.8378 416.0219 416.0219
   416.8307 417.1179 417.1179 417.1198 417.1198 417.4646 417.4646 417.4733
   417.5684 418.9331 418.9575 418.9575 419.1347 419.1347 419.1485 419.1488
   426.3901 426.3901 426.7908 428.2884 428.6462 428.6462 428.9345 428.9345
   429.0008 429.1690 429.1690 430.7442 432.1786 436.0728 436.1271 436.1271
   437.5354 438.9063 438.9063 438.9306 438.9306 440.1478 440.1478 440.2820
   440.2820 440.5570 440.5726 440.5726 440.7874 440.7874 440.8257 440.8267
   441.9216 442.0295 442.0295 444.4947 444.4947 444.5401 444.5401 444.9017
   446.2983 446.2983 448.3261 448.3261 450.1546 453.1133 453.4732 453.4732
   453.9201 453.9201 453.9547 454.3349 454.3349 454.3845 454.3845 455.9336
   458.0294 458.5756 458.5756 458.5944 458.5944 458.8273 458.8292 459.1881
   459.1881 460.8600 460.8600 461.0674 462.7194 462.7355 462.7355 462.7774
   462.8550 464.1996 464.5621 464.5621 466.1045 466.2196 466.2196 470.5938
   470.5938 470.6556 470.6556 471.5966 476.0890 476.0890 476.9725 476.9725
   477.0387 478.1237 478.1237 478.7620 478.8531 478.8531 478.9651 479.1376
   479.1376 479.9381 479.9381 479.9951 480.0010 480.0120 480.0120 480.0130
   480.3821 480.4057 480.4057 480.9400 481.2828 481.2828 481.3413 481.3547
   481.3547 481.8171 482.1544 482.2118 482.2118 482.3151 482.3151 482.8564
   482.8564 483.0860 483.1782 483.2763 483.2763 484.2529 484.2529 484.2768
   484.2768 484.2790 484.4451 485.3941 488.9275 488.9275 490.7421 490.7421
   490.8971 492.6364 493.2578 493.2578 493.3537 493.3537 493.4013 493.8733
   495.9781 496.0103 496.0103 496.1865 496.1944 496.1944 498.5778 500.8101
   500.8101 502.5586 502.5586 504.9544 505.4409 505.4409 506.3439 506.3439
   506.4582 506.5191 506.5476 506.5476 506.8768 506.8768 506.9142 506.9901
   507.2268 507.2268 507.4666 507.4666 507.6003 507.6319 508.4133 508.4133
   508.6937 509.0286 509.0286 509.3909 509.3909 509.4915 509.4991 509.4991
   509.5285 511.3707 516.2220 517.4769 517.4769 518.8711 518.9660 518.9660
   519.3688 519.8557 519.8557 519.9859 519.9859 520.8825 520.8825 521.0191
   521.3112 521.3150 521.3150 521.4241 521.4241 521.5768 521.5786 521.6606
   521.6606 522.4361 523.9142 528.0149 529.6132 529.6132 530.7491 530.9533
   530.9533 532.1924 535.0920 535.0920 535.3467 535.3467 535.6250 535.6250
   535.6803 535.6831 535.6831 535.7202 537.7658 537.7658 539.7390 541.6857
   541.6857 541.7635 542.1311 542.1311 542.2572 542.4640 542.4640 543.7901
   544.2309 544.2309 544.2349 544.3373 544.3373 544.6895 544.7206 544.7240
   544.7240 544.9641 544.9641 545.3506 545.4795 546.3951 546.3951 546.5239
   546.5239 548.0285 548.5996 548.5996 548.6516 548.7043 548.7043 548.7416
   550.0511 551.1302 551.1302 552.7192 552.7192 556.1933 558.1494 558.1494
   558.5481 558.6090 558.6090 559.0007 559.4213 559.4740 559.4740 559.8360
   559.8360 559.8689 559.8689 559.9680 559.9680 560.0373 560.0376 561.7299
   562.7435 562.7461 562.7461 562.7564 562.7564 562.7848 569.7327 569.7327
   569.9323 571.1451 571.1889 571.5356 571.5356 571.5395 571.5395 571.9123
   571.9123 571.9888 571.9888 572.0692 572.0692 572.1001 572.1910 572.9094
   574.0556 574.0556 574.6388 575.1101 575.1101 575.3110 575.3111 575.3976
   575.3976 576.4735 576.4735 579.8686 581.7826 582.9682 582.9682 583.7911
   584.5612 584.5612 584.7272 585.0624 585.0714 585.0714 585.1346 585.2961
   585.2961 585.4120 585.4120 585.4392 585.4392 585.5918 585.8771 587.6726
   592.3426 592.3426 592.6368 593.9621 593.9621 594.9445 595.0655 595.0655
   595.1233 595.2332 595.2332 596.0654 596.0654 596.1327 596.1327 596.5644
   596.5646 596.5866 596.5866 596.8035 596.8346 596.9783 596.9783 597.0160
   597.0160 597.0471 597.1382 597.2013 597.2013 599.0199 599.1520 599.1786
   599.2870 599.2870 599.3272 599.3272 600.6671 600.6671 600.6760 600.6760
   600.6775 600.7104 600.7104 600.7154 600.7154 600.7590 600.7689 600.7705
   611.8952 611.8952 611.9540 612.4621 612.4621 612.8230 612.8659 612.8659
   612.8971 612.8971 613.0305 613.0353 613.2034 613.2773 613.3256 613.3256
   613.3726 613.3726 616.1438 616.1438 618.9922 619.3677 619.3677 621.4118
   622.9711 622.9711 623.0181 623.1007 623.1007 623.1183 623.8240 623.8240
   624.3173 624.4653 624.4653 624.5647 624.7659 624.7716 624.7716 624.7911
   624.7911 624.8042 624.9694 624.9694 625.3668 625.3668 625.4182 626.2097
   628.6867 631.8214 631.8214 631.8941 632.0279 632.0338 632.0338 632.1041
   633.5487 633.5487 633.7851 634.3038 634.3038 634.3620 634.3620 634.8099
   635.3161 635.4258 635.4258 635.6207 635.6207 635.6216 635.6216 638.0193
   638.1487 638.3206 638.3206 638.3268 638.3268 638.5828 638.5828 638.6366
   638.6366 638.6400 638.7209 638.7209 638.7627 638.7901 638.7901 638.8548
   638.8850 639.5369 641.3940 641.3940 641.3957 641.3957 642.8980 642.8982
   648.9387 648.9387 649.8243 649.8243 649.8362 650.3654 652.1084 652.2360
   652.2360 652.2922 652.2922 652.4176 656.0777 656.0777 657.6082 659.2596
   659.2596 659.4922 659.8959 660.3458 660.3458 660.3843 660.3843 661.4698
   661.4698 661.5897 661.5897 661.6539 661.7801 661.8790 662.1612 662.1612
   662.2370 662.2474 662.3861 662.3861 662.4025 662.4025 662.5816 662.5816
   662.7517 663.3813 663.9114 663.9114 664.0948 664.0948 664.1216 664.1430
   669.3149 670.8081 674.2400 674.2400 674.9244 675.1865 675.1865 675.2100
   675.4793 675.4793 675.4995 675.4995 675.5304 675.7222 675.7222 675.7251
   675.7251 675.8167 675.8538 676.0563 676.1792 676.1792 676.2643 676.2643
   676.2909 676.2919 676.3056 676.3118 676.3118 676.3399 676.3399 676.5266
   677.7976 677.7976 678.0606 678.1265 678.1265 678.7015 678.7015 678.7071
   678.7294 678.7294 678.7317 678.7317 678.7912 678.7912 678.8100 679.0574
   679.8912 679.8916 679.9078 679.9078 679.9093 679.9093 685.7736 685.7736
   685.8306 686.5326 686.5326 687.4539 691.4307 691.4307 691.5101 691.5101
   691.5140 691.5236 699.4026 699.4026 699.6647 701.6832 701.6832 702.0851
   702.0851 702.1351 702.1351 702.1814 702.1836 702.9677 702.9682 702.9887
   702.9887 702.9907 702.9907 703.0297 703.0297 703.0436 703.0436 703.0500
   703.0743 703.0987 705.7984 705.7984 705.9056 706.9100 706.9100 708.3890

          k = 0.0000 0.5000 0.0000 (  2429 PWs)   bands (ev):

   -29.8315 -11.1731 -10.7798 -10.7798  -7.1895   6.1061   7.4801   7.4801
    12.4845  14.3982  15.8184  15.8184  16.0317  17.7770  25.1366  26.6115
    26.9481  26.9481  32.6369  34.4492  34.8053  35.7078  35.7078  39.5656
    39.5656  40.3595  43.2600  47.4343  47.4343  50.0851  53.8740  54.0180
    54.0180  54.0776  58.1920  59.0815  60.2545  60.2545  63.4774  63.7011
    64.0110  65.0232  65.0232  66.8335  67.3285  67.8737  67.8737  71.8333
    72.1400  73.0253  77.0021  77.0021  78.4008  79.3743  79.3743  80.8603
    80.8603  80.9197  83.4509  83.5284  86.5714  87.9942  87.9942  90.2853
    91.5654  91.5654  94.2089  95.0028  96.6376  97.8192  97.8310  97.8310
   102.9340 104.6318 104.6585 104.6585 104.8961 106.3060 106.3060 106.7587
   109.9451 109.9451 111.2226 112.3076 113.7339 113.7339 116.2811 117.6281
   118.5415 118.5415 118.7059 119.9358 121.3417 125.5055 125.5055 126.0002
   126.9038 127.3518 127.3518 127.5782 128.1154 129.2614 129.6276 129.6276
   131.0640 131.1942 135.2817 135.2817 136.4901 136.6638 138.3645 138.3645
   138.7753 139.3133 139.3133 140.6096 141.7054 142.2822 142.5026 142.5026
   142.6301 143.9507 143.9507 144.2459 145.1131 145.1131 145.7462 146.2080
   146.2269 148.7275 150.3253 150.3253 152.4898 153.1444 153.1444 153.6244
   156.5101 156.8724 158.3112 158.3112 161.9666 164.2495 164.2495 166.3954
   166.4460 167.9056 167.9229 167.9229 169.1997 169.1997 169.5385 170.3601
   172.4579 172.6712 174.8110 174.8110 175.6938 176.2966 176.8505 178.2405
   178.2405 179.5119 179.9426 180.8010 180.8010 182.6231 183.0096 183.0096
   183.7106 184.7102 187.4246 187.5658 187.5658 187.9000 192.0214 193.2529
   193.3216 193.9134 193.9134 194.1450 195.7649 195.7649 196.8362 196.8362
   197.4643 200.6045 200.6045 200.7965 202.2512 202.5233 203.7111 204.1050
   205.2786 205.2786 205.5222 205.8770 205.8770 206.1859 208.2060 208.2060
   209.4383 210.2501 210.3914 210.7044 210.7044 211.6373 211.8842 213.7079
   213.7079 214.0527 216.8934 216.8934 217.4513 217.4513 218.7584 218.8012
   218.8746 218.8746 219.0262 219.1791 220.4242 221.5377 222.4843 222.4843
   227.1470 227.6656 228.4050 228.4050 228.8404 231.3792 231.6703 232.7282
   232.7282 232.9808 233.3912 235.6731 235.6731 236.6008 236.6250 236.6250
   237.9255 240.3341 241.5379 241.5379 241.7791 241.7843 241.7920 241.7920
   242.5574 244.5794 244.5794 244.7376 244.7861 246.3610 247.1219 247.2346
   247.4305 247.4305 247.8706 250.4757 250.4757 250.6026 250.9763 251.7193
   251.8714 251.8714 254.3816 254.4764 254.4764 254.5847 254.5847 254.6760
   255.0233 255.2294 255.4124 255.4124 256.2905 258.0251 258.2330 258.5994
   258.5994 258.8928 258.9050 258.9050 258.9769 259.4766 259.8044 260.1173
   262.4476 262.4476 263.7393 265.7840 266.8019 266.8019 268.2780 268.4070
   268.7843 268.7843 269.5284 270.2780 271.3343 271.3343 271.4931 272.9039
   277.0916 277.0916 279.9184 280.2219 280.2219 281.7960 281.8999 285.0937
   285.0937 286.5574 286.5574 286.6494 286.7490 287.4730 289.8589 289.9084
   292.1523 292.1523 293.0360 293.0360 293.2895 294.2795 294.6077 295.0074
   295.0074 295.0117 295.2137 295.2983 295.2983 297.9147 298.7506 298.7506
   299.2928 299.3696 299.4561 299.7528 299.8123 299.8123 300.0181 301.5852
   303.4039 303.4039 304.0405 306.7225 306.9125 307.3990 307.3990 307.5752
   308.5897 308.5897 309.6443 312.7935 316.3110 317.2224 317.2224 317.2625
   317.4381 317.4381 318.7507 320.4378 320.4378 320.7568 322.2288 323.8586
   323.8586 323.8832 323.8832 323.8908 323.9090 324.3807 324.7367 325.2238
   325.3183 325.7128 325.7128 327.0046 327.0046 330.3566 330.4428 330.5521
   330.5521 332.4378 332.5169 332.5169 332.9359 333.1464 333.9410 334.0917
   334.3184 334.3184 334.6130 334.6130 334.6615 334.6974 335.2174 335.9103
   335.9103 336.1365 336.1365 336.1497 336.1498 336.2624 336.9293 337.4743
   339.5188 339.5766 339.5766 339.6203 339.6893 339.6893 340.2071 341.3430
   341.3430 341.3511 343.0934 346.7334 346.9385 346.9423 346.9423 348.0154
   348.4482 349.3853 349.3853 349.8952 349.8952 350.3982 350.4701 350.9363
   350.9363 350.9990 351.6527 352.9473 353.3384 353.3384 354.8556 355.1508
   356.6494 356.6494 358.1869 358.5986 359.6875 360.9401 360.9401 360.9731
   364.2268 364.4319 364.7889 364.7889 364.8434 364.9588 364.9588 364.9832
   365.0538 368.5592 368.5592 369.0020 369.3611 370.7974 371.0142 371.0142
   371.2510 371.4069 372.1166 372.1166 372.6227 372.6227 372.6621 372.7302
   373.8133 374.7789 374.7789 375.1312 375.6165 375.6165 375.7049 380.1026
   380.9870 382.2136 382.2136 383.9877 384.9719 384.9719 385.1703 385.1703
   386.2248 386.2507 386.4470 386.8116 386.8116 386.8645 387.0171 387.2046
   387.2218 387.2218 387.3994 388.0337 388.0337 388.2180 388.9101 390.5329
   392.4644 392.4644 393.6843 394.7213 396.0423 396.0423 396.5255 397.4585
   397.7101 397.7101 397.7721 398.0018 398.3748 398.3748 398.4316 399.2723
   400.1420 402.2550 402.2550 402.4261 402.6047 402.6047 402.8320 404.6988
   404.7252 404.7289 404.7289 407.1755 407.8908 409.1188 409.1188 409.1680
   410.4967 410.5969 410.5969 411.2016 411.2561 411.5522 411.5522 412.2567
   412.2988 412.2988 412.6542 413.1936 413.5038 413.5038 413.5749 415.1139
   415.3210 415.3210 415.4690 415.5447 415.6147 415.7173 415.7173 416.0312
   418.7595 419.8434 419.8434 421.3430 421.3430 421.6170 422.9513 423.7554
   424.7123 424.7123 425.1466 426.0036 428.5820 429.3239 429.3239 430.5062
   431.0792 431.0792 431.9339 432.4347 435.1351 435.1351 435.3071 436.3060
   436.7535 436.7969 436.7969 438.6103 442.3627 442.5784 442.5784 442.7861
   445.2681 445.3098 445.3098 446.3273 448.1147 448.1147 448.4751 449.3098
   449.8578 449.8578 450.4835 450.5637 450.6275 450.6275 450.9483 451.1993
   451.6747 451.6747 451.7134 451.8228 451.8443 451.8981 451.8981 451.9938
   451.9938 452.0229 452.0384 452.8959 453.2109 453.2228 453.4649 453.4649
   453.4884 453.5349 453.5862 453.5862 455.5955 457.0533 457.0533 457.0750
   457.1177 457.1361 457.5084 457.5084 458.5422 461.1695 461.5488 461.7043
   461.7043 463.2281 463.2281 463.4265 464.0075 465.1674 466.9741 467.0688
   467.0688 467.2835 469.3137 469.3137 470.0893 473.2709 476.3635 476.3635
   476.4732 476.8958 477.2267 477.2267 477.3014 478.0506 478.0908 478.2338
   478.2371 478.2371 478.4021 478.6190 478.6190 478.7060 478.8045 478.8301
   478.8301 478.8756 478.8756 478.9205 478.9646 478.9646 479.4555 480.6528
   484.2275 485.0594 486.3798 486.3798 487.3811 487.3811 487.3993 487.6985
   488.6303 489.0430 489.0430 489.3003 489.3278 489.5463 489.5463 489.7400
   489.9361 490.1370 490.1370 491.6145 491.7969 491.8086 491.8086 491.9551
   493.8569 493.8851 493.9027 493.9027 494.6061 494.6700 494.8528 494.8528
   495.0649 499.1301 499.1301 500.3382 500.4823 501.1568 501.1568 502.9090
   503.0644 503.4550 503.4866 503.5389 503.5389 503.9771 503.9771 504.0391
   504.8460 506.2283 506.2283 508.2615 508.9462 511.1516 511.1516 513.0427
   513.1268 514.0063 514.0063 514.5146 514.8055 515.2484 515.4443 515.4983
   515.4983 515.6629 516.0262 516.0437 516.0437 516.2710 517.0098 517.0623
   517.0623 517.4243 517.4549 517.4549 517.5821 517.6238 517.7142 517.7567
   517.7567 517.8716 518.2928 518.2928 518.3342 519.4095 519.5568 519.5568
   519.6727 520.8381 520.8825 520.8825 520.9029 522.6815 523.4744 523.4744
   524.7965 524.7965 525.0469 525.2965 525.7643 525.8389 525.8389 527.6171
   527.6930 529.1864 529.1864 529.8354 529.8828 529.9773 529.9773 530.0011
   531.1043 531.3827 531.3827 531.4294 531.6952 531.7422 531.7422 531.7513
   532.4470 532.4982 532.4982 532.5779 532.6665 533.3498 533.4432 533.4432
   533.4501 533.6693 534.8739 535.1124 535.1124 535.1724 535.1724 535.3121
   536.5381 538.9986 538.9986 539.4454 540.2194 541.4580 541.5158 541.5158
   541.9737 543.5184 543.5184 543.6558 544.0484 547.7179 547.7643 547.7643
   547.8201 551.8797 551.8797 552.4178 553.1128 554.5315 554.5315 554.9085
   555.0996 555.1038 555.1038 555.3276 555.7606 558.5750 558.5750 558.6640
   558.6987 560.7862 561.8551 561.8551 562.7935 564.8069 566.3696 566.3696
   567.5536 567.7683 567.8550 567.8550 568.0816 568.2256 568.2256 568.2989
   568.5064 568.5064 568.5127 568.6769 568.8087 569.9391 569.9391 570.5035
   570.6274 570.6348 570.8805 570.8805 571.0639 572.8106 572.8596 572.8596
   572.9241 574.0770 577.3848 578.2266 578.2266 579.8839 579.9193 579.9193
   580.0795 580.0799 580.2629 580.4843 580.4843 580.5711 580.6881 581.1441
   581.1441 582.0183 583.1244 584.5178 584.5180 584.5180 584.5443 586.6202
   586.6202 587.2424 587.3632 589.0076 589.0076 589.3334 591.6291 591.6291
   591.9088 591.9880 592.6999 593.6227 593.6227 593.7348 593.8999 593.9121
   593.9121 594.5316 594.5502 594.5502 594.7467 594.8237 594.8672 594.8696
   594.9874 594.9874 595.2748 595.3234 595.4183 595.4183 596.2055 596.2640
   596.2640 596.2684 596.2968 596.2968 597.5582 598.0001 598.0534 598.0534
   598.0874 599.2413 599.2995 599.2995 599.3293 602.2806 602.2960 602.8957
   602.8957 603.3646 603.7226 604.8288 604.8288 605.7699 605.7844 606.1613
   606.2761 606.2761 606.3421 606.3421 606.4169 606.6994 606.6994 606.9537
   608.1358 610.2254 610.3330 610.3330 610.3853 610.4330 610.4330 610.4535
   610.4816 611.8176 612.9312 612.9423 612.9423 612.9548 619.5473 619.5473
   620.6733 620.8132 620.8132 620.9566 620.9613 620.9740 621.3194 621.3670
   621.3670 621.5297 621.5447 621.5447 621.5894 621.6751 626.9015 627.7725
   627.7725 628.7512 629.6435 629.6435 630.0958 630.5971 633.7965 633.7965
   634.5500 634.6059 634.6059 634.6231 634.7253 634.7431 634.9241 634.9677
   635.0244 635.0244 635.8238 635.8238 637.0653 638.5280 638.7496 638.7496
   638.8836 638.8922 639.9820 640.4918 640.4918 640.7231 640.9698 640.9698
   642.5667 644.7993 645.5668 646.0365 646.0365 646.5028 646.5028 646.5107
   646.6645 646.7341 646.7341 646.7789 646.8999 647.0850 647.3966 647.3966
   647.5413 647.6992 647.8954 647.8954 647.9600 647.9868 648.0392 648.0392
   648.0895 648.5219 649.7208 652.2924 652.2924 653.6765 654.4106 654.4106
   654.8250 654.8305 657.9370 657.9370 658.0357 658.4395 658.8310 658.8310
   659.5794 659.6007 659.6327 659.6327 659.7250 659.7399 659.9885 659.9885
   660.0680 660.1103 660.1863 660.1912 660.1912 660.9643 663.0760 663.0941
   663.0941 663.1112 664.8721 664.8765 664.8765 664.8772 667.8831 667.8831
   668.4064 668.9122 670.6893 670.6893 670.8340 670.8948 671.1309 671.1309
   671.6411 672.0959 672.3211 672.7243 672.7243 672.9363 672.9363 672.9529
   673.0094 673.4739 675.3908 675.4234 675.4234 675.4834 677.8551 678.4183
   678.4183 678.5693 679.5815 681.4250 681.4250 682.9518 682.9518 683.0569
   683.0666 683.1589 683.1589 683.2432 683.7395 684.0216 684.0472 684.0472
   684.1083 684.5060 684.5799 684.6145 684.6145 684.7178 684.8085 684.8085
   684.8512 685.0984 685.4458 685.4458 685.5988 685.8074 686.3168 686.7288
   686.7288 686.9931 687.6173 687.6173 687.6710 687.6729 687.6732 687.6732
   687.7625 688.1353 688.4401 688.4539 688.4665 688.4665 688.4818 688.4818
   688.4938 688.5139 690.3860 690.4317 690.4317 690.4504 694.4743 695.4277
   695.4277 695.8106 697.1162 697.1162 697.4059 697.5317 699.4670 699.5184
   699.6261 699.6261 700.0081 700.0081 700.1938 700.4679 700.7947 700.8153
   700.8153 700.8592 701.1109 701.1931 701.1931 701.3138 705.1816 707.0515

          k = 0.7500-0.2500 0.7500 (  2424 PWs)   bands (ev):

   -29.7813 -11.4385 -10.9206 -10.8072  -6.9735   5.9934   6.6986   6.9810
    13.1243  15.6192  16.5891  16.6150  17.3963  19.3349  22.1183  23.9382
    25.5161  28.7735  32.0661  33.0422  35.5939  36.5219  37.1236  41.1761
    41.2161  42.9560  45.0605  45.3542  45.7219  46.1785  49.7155  50.8812
    53.3029  54.9054  55.9344  56.7081  57.5256  60.7203  61.0644  62.6601
    63.3312  66.0294  66.4302  67.6341  69.6907  71.3869  73.4172  73.9003
    74.7488  75.0318  76.1549  77.1273  77.8046  79.8508  80.7269  80.9223
    83.2718  84.9848  86.5200  87.2265  88.4812  88.6167  89.5450  90.6501
    92.6978  92.9909  95.3541  96.5775  96.6476  96.9871  98.0490  98.8628
   100.1261 100.1473 100.7588 102.3826 102.5332 103.2474 106.0931 107.9478
   108.1304 108.9615 109.7013 109.9078 110.9667 111.4141 112.6197 114.7102
   115.8101 116.4655 117.6770 119.4649 120.2892 120.9026 121.0947 121.9132
   123.0803 124.7123 125.0254 126.6807 127.0927 127.7500 129.7419 130.5299
   131.0027 131.7906 131.9442 132.3801 134.9441 135.2365 135.7483 136.3281
   138.3273 139.7166 139.9866 141.3012 142.2446 142.7309 145.2200 145.3418
   146.4214 147.5640 148.7865 149.1934 150.9153 151.0559 152.1529 152.3586
   152.9367 153.2605 154.2403 154.7347 156.4975 157.9848 158.2570 158.7093
   160.1352 160.4429 161.1240 162.3652 162.4825 162.8071 163.4265 164.8974
   166.4776 166.9183 168.9633 169.1338 169.6292 169.8453 170.6100 171.9878
   172.3382 172.5025 173.5811 174.4766 174.5072 175.1922 176.3843 177.7350
   178.1452 179.4141 180.5807 180.6081 181.4395 182.3722 182.6402 183.6261
   184.4587 185.3976 185.6304 185.9340 186.6808 187.2276 187.9184 189.7888
   190.0966 190.4259 191.0314 192.1455 192.9378 193.4083 194.7743 195.0402
   195.4231 195.5934 195.6737 196.6657 197.6931 198.4233 200.5760 201.1861
   202.0543 202.8140 203.3897 204.1646 204.8987 205.6373 206.0539 207.0099
   207.5243 207.9413 208.9035 208.9190 209.4930 211.7595 212.6901 212.7499
   213.8978 214.5562 215.3654 215.6797 216.2043 217.0700 218.0328 220.0451
   220.1094 220.8212 220.9071 221.7482 221.8020 222.4738 223.2054 223.7359
   224.4225 225.1001 225.5521 226.8967 227.2422 227.8392 228.5189 229.6544
   230.0196 230.9546 231.5528 232.3329 232.5069 233.7409 235.2662 235.3936
   237.5678 237.9185 239.3635 240.2169 240.9288 240.9305 242.4323 242.5159
   243.1959 243.3295 244.0479 244.3297 244.6541 244.8024 245.5690 246.1370
   247.1713 247.5296 249.7673 251.3938 252.0018 252.1432 253.9321 254.4633
   254.6298 255.1428 255.8622 255.9115 256.7674 256.8624 257.2480 257.8420
   258.8839 259.2927 260.8173 260.8435 261.3970 262.1949 262.3516 263.1479
   263.9869 264.5397 265.5549 266.1304 266.4975 267.7481 267.8356 270.4449
   270.6494 270.7838 271.0006 271.3343 271.7753 271.8091 272.6672 273.3396
   274.4874 274.7925 275.0957 276.5484 276.9306 277.1843 278.0840 278.1284
   278.7457 278.8148 279.4143 279.6418 280.5112 281.1028 281.4063 281.6733
   282.0823 282.9780 283.3352 284.2256 284.6912 285.5209 285.7983 286.0262
   288.0795 288.2999 289.9596 290.5300 291.0751 291.7158 291.7171 292.1606
   293.2285 293.9670 293.9821 294.8085 295.4145 295.5090 297.2660 297.2862
   297.8281 298.5780 298.9257 299.1266 299.5542 300.3435 300.9243 302.4126
   302.6433 302.9039 303.6667 304.5504 305.1270 305.5163 306.5191 307.9859
   308.8028 309.6586 309.8155 310.3428 310.5395 310.7884 311.6703 311.6994
   312.2683 312.4156 312.7593 312.8460 313.2064 314.2244 314.5604 315.3770
   315.7468 316.2537 317.2299 318.2679 318.4374 319.1320 319.2947 320.7089
   321.3365 321.6749 322.2213 322.2800 323.5833 323.6363 323.7209 325.0527
   325.7191 326.2911 326.6328 326.8432 326.8872 327.7586 328.0086 328.3715
   328.5184 329.1909 330.6888 331.8565 332.1350 332.3522 333.2184 335.2329
   335.9711 336.4050 336.8147 337.1383 338.6700 338.6785 339.1288 339.3581
   339.9960 340.0904 340.9470 341.4879 342.0971 342.8915 343.2035 343.2874
   344.1820 345.6688 346.8481 347.6104 347.6749 348.2763 348.2889 349.2092
   349.8543 349.9639 350.8663 351.2327 352.2672 352.3392 352.3894 352.4665
   353.8035 353.8312 354.6691 355.1590 355.7233 356.2710 357.1310 357.4570
   357.7182 358.7232 358.9813 359.7615 360.2027 361.4346 361.9623 362.4891
   364.8622 365.7053 366.2518 367.1137 367.2838 368.3011 368.3374 368.9261
   369.2362 369.2569 369.9095 370.7981 371.1607 371.4144 372.5856 372.9648
   374.3611 374.4793 374.5871 375.3952 375.5060 376.7119 376.8171 377.4697
   377.9684 378.1461 378.4237 379.0035 379.5000 379.8286 380.4240 381.3467
   381.5388 381.5550 381.9621 383.1154 383.7813 383.8591 384.0650 384.7564
   385.0489 385.5552 386.3040 386.6954 386.9081 387.6451 388.2693 388.2838
   389.6843 389.7692 390.5447 390.6669 390.9300 391.4145 392.3828 392.9689
   394.2688 395.5749 395.5971 396.0683 396.1920 396.9678 397.2528 397.3978
   398.8492 400.1815 400.3940 400.5247 400.9773 401.3227 402.6885 403.7167
   403.8005 404.0871 404.8713 405.1146 405.3828 406.3714 406.4255 406.7050
   406.8474 407.2704 407.3475 408.2252 408.4350 408.8676 408.9738 409.0148
   409.2691 409.4768 410.2258 410.4530 410.9671 411.3760 412.7289 414.3272
   414.9182 416.2590 416.3582 416.5980 417.1286 417.6144 417.7940 418.0819
   418.8007 419.8585 420.0047 420.1627 421.2567 421.4212 421.5515 422.8520
   422.9216 423.2652 424.4203 424.4244 425.1561 425.3218 426.5547 426.6785
   427.6728 427.8160 428.6615 428.7087 429.0044 429.7438 429.7814 430.5515
   430.5614 430.6411 430.7957 431.8303 431.9512 432.0300 432.4808 433.0560
   433.4262 434.0341 435.8536 436.1719 436.8870 436.8985 437.0740 437.1581
   438.1337 438.9905 439.1445 439.3892 439.5499 439.8892 440.1859 440.5013
   440.9973 441.0796 441.9838 443.1376 444.0184 444.4287 445.7992 446.4418
   446.6957 446.8771 447.5116 448.4453 449.2040 449.2434 449.9733 450.3837
   450.5133 451.2395 451.3336 451.5665 451.8284 451.8464 452.3992 452.8693
   454.3415 454.8656 454.9385 455.6327 455.8790 455.9717 456.5575 456.8307
   456.8997 457.4769 458.1171 458.6134 460.4063 460.4374 460.5076 460.6750
   460.9112 461.1208 461.3483 461.5088 461.6787 463.0784 463.5159 464.8137
   465.3935 465.7272 467.1588 467.6536 467.9275 468.3633 468.7171 468.8142
   470.0179 470.0557 470.2358 470.6894 470.7397 471.4340 472.7746 473.4593
   473.4965 473.5947 473.8688 474.5001 474.6707 474.9966 475.7019 476.1442
   476.5588 476.9409 477.2914 477.3785 477.6690 477.8542 477.9670 478.4528
   478.5730 481.4794 481.4883 482.2646 482.6696 482.7930 483.2494 484.0919
   484.1250 484.5157 484.8494 485.6532 485.8917 487.2968 487.3537 487.6222
   487.9891 489.4091 489.4287 489.5431 489.7521 490.0325 490.9162 490.9785
   493.8105 494.5899 496.1855 496.7106 497.8633 498.6193 499.3376 499.4869
   499.5108 500.1197 500.1690 500.8653 501.7430 501.7797 502.5719 502.5771
   503.0946 503.2339 503.3124 503.7818 503.9946 504.3539 504.4991 504.5147
   504.7313 504.9307 505.2439 505.4396 505.5078 505.9641 506.2196 506.4377
   507.1713 507.3454 508.1204 509.7906 510.2866 511.3119 513.2954 513.6452
   513.9109 514.4517 514.4981 515.1393 515.1672 515.4877 515.9754 517.2954
   517.3519 517.4154 517.4853 518.0927 518.1148 518.8466 518.8843 519.2274
   520.1628 520.2408 520.7322 521.1397 522.0715 522.6307 522.8534 524.7974
   524.8149 525.1588 525.3120 525.4789 525.6806 525.7714 526.2761 526.8079
   526.8559 527.3637 527.4496 527.7915 529.3451 529.7443 530.1003 530.2945
   532.2468 532.5556 533.2119 533.2244 533.5646 533.7227 534.3493 534.5155
   534.6419 535.4942 537.5302 537.8827 537.9354 538.5677 538.9074 539.0860
   539.1532 540.0478 541.1681 541.2711 541.7253 541.9253 541.9509 542.0027
   542.7472 543.1568 543.4289 543.5294 543.8451 544.7316 545.1377 545.1745
   545.2039 545.6159 545.9050 546.4071 546.8221 547.1844 547.5258 548.3181
   548.8871 549.0642 550.6265 551.1799 551.4517 551.5095 551.6028 552.4498
   552.7799 552.8914 553.6940 554.8565 555.1440 555.9762 556.0115 556.1514
   556.7471 557.4241 557.5638 557.8571 558.5531 558.9978 560.5612 561.4645
   561.5467 562.2820 562.6348 562.7505 562.8629 563.1020 563.1862 563.2664
   564.0874 565.3284 565.5395 565.8875 565.9466 566.3209 566.4177 567.2671
   567.7374 567.9661 568.6310 570.1280 570.7708 571.2040 571.5815 572.0838
   572.1374 572.4275 572.5124 572.6049 572.7896 573.2559 573.4853 574.3493
   574.7801 574.7892 574.9366 574.9524 575.3821 575.9728 576.6708 576.8076
   577.8858 578.4025 578.5532 578.8108 579.1793 580.7118 581.2295 581.7788
   581.9804 583.0851 583.1359 583.5280 583.5423 583.6301 584.0477 584.1770
   584.1787 584.4185 584.5205 584.6932 584.7979 585.2153 585.4969 585.8369
   585.8760 586.0817 586.4180 587.0797 587.1294 587.2227 587.9788 590.5068
   590.9997 592.5654 593.9967 594.3646 594.7324 595.0364 595.0650 595.6388
   596.5129 596.5559 596.8220 596.8762 597.0614 597.2089 597.2596 597.4271
   598.5276 598.6839 598.9891 599.5062 599.8943 600.1550 600.4064 601.2229
   601.2936 601.7142 601.7789 602.3748 602.8432 602.9130 603.1709 603.5804
   603.7746 604.1626 604.1641 604.6797 604.9542 605.2908 605.3958 606.0876
   606.3236 606.6060 607.3892 607.6195 608.8402 608.9920 609.4993 609.6725
   609.8106 610.4684 610.9045 611.1482 611.2076 611.7574 611.9917 614.2911
   614.4455 614.5870 614.6404 614.7424 614.8008 615.2355 617.0997 617.1311
   617.3371 617.5831 617.6794 618.3152 618.5000 618.8693 618.9449 620.2291
   620.9102 620.9744 621.4181 621.4633 622.8614 623.1788 623.2099 623.4851
   623.5631 623.6542 623.8314 624.0079 624.1823 624.2057 624.8660 624.9938
   626.7211 628.2263 629.3608 629.4247 629.9412 630.1687 630.5487 630.8249
   631.4313 631.4561 631.7430 632.5174 632.6663 633.2803 634.1660 635.0395
   635.1087 635.8844 635.9842 636.1142 636.2221 637.0449 637.1590 637.3464
   637.3469 637.5552 638.0269 638.4650 638.7686 638.7875 640.0024 640.0630
   640.2164 640.5841 641.5906 641.7676 641.7919 642.7525 642.7680 644.0159
   644.1577 645.5427 645.7569 645.8374 646.3632 646.4247 646.8591 647.1371
   648.3789 649.2756 649.4586 649.5385 650.2644 650.3609 650.6880 651.0756
   652.1563 652.3851 652.4343 652.7033 652.7546 653.1879 653.2930 653.3867
   653.8567 654.6894 654.7474 655.5096 655.5960 655.7877 655.8775 656.1328
   658.1584 658.3325 658.5119 658.8892 659.6858 659.8638 660.1960 660.4483
   660.8823 661.0562 661.5927 661.8340 661.9414 664.4348 664.6150 664.9401
   665.2953 665.4525 665.5943 666.1151 666.5302 666.7402 667.0345 667.3832
   667.5175 668.4554 668.5842 668.9495 669.0490 670.9774 671.1225 671.3155
   672.4904 672.7256 673.1819 673.6025 674.4809 674.6611 674.9691 675.4049
   675.5529 675.6280 675.8633 676.2554 676.8238 678.1709 678.2162 678.4034
   678.4989 678.7937 679.3726 680.1585 680.2189 680.6146 681.1216 681.7233
   681.7358 681.8600 682.2089 682.5653 682.7847 682.9563 683.1905 683.2117
   683.4038 683.6352 683.6997 684.2467 684.5473 686.8341 688.0670 688.2009
   688.2598 688.6780 689.9142 689.9535 690.3239 690.3473 691.2168 691.7344
   691.9418 693.0059 693.0982 693.3843 693.3846 693.9428 693.9558 694.5497
   695.4937 695.8373 695.8561 696.4172 696.4819 696.8780 698.0003 698.5213
   698.5703 699.0939 700.1181 700.1561 700.9850 701.3447 701.3553 701.7329
   701.8254 701.9725 702.0339 702.2169 702.2548 702.6195 702.6521 703.2334
   704.7931 705.2055 705.2423 705.3277 705.5479 705.6770 705.7248 706.0509

          k = 0.5000 0.0000 0.5000 (  2437 PWs)   bands (ev):

   -29.7974 -11.4654 -10.9304 -10.7220  -6.8190   5.7225   6.6811   6.9344
    14.2628  15.0347  15.6025  16.1441  18.0265  18.6913  23.0156  23.1479
    27.3159  29.6900  30.8398  32.1170  35.5550  36.6560  36.6855  37.4186
    42.4997  42.9050  45.1567  46.6665  47.7771  50.5643  50.7017  50.8852
    51.8127  53.4719  53.5708  58.0252  60.9042  60.9865  61.9281  62.1495
    62.2529  63.1570  68.0905  68.7603  69.0016  70.0347  71.3199  72.5076
    74.7418  74.8912  75.6010  75.6801  76.2893  81.2295  81.8823  83.7142
    84.0062  84.0831  85.2166  85.8385  87.2788  87.9241  88.5972  89.1955
    91.2834  93.5238  94.5294  95.0498  95.0501  96.6599  99.0206  99.8908
   101.1679 101.4688 102.0427 103.3858 104.6802 104.8574 105.0617 106.1943
   107.4042 109.8448 111.7920 111.8557 113.1046 113.9815 114.0974 114.1607
   117.1894 117.2581 117.6276 117.9219 118.3691 118.6900 119.9606 121.5741
   124.1260 124.4572 127.6057 127.7365 127.9052 128.6369 129.1761 130.0221
   130.9571 133.2626 134.5047 134.8707 135.6768 137.1593 138.3279 138.7379
   140.0224 140.2108 141.1993 142.2077 142.2099 142.3941 143.0777 143.8332
   144.4979 147.0382 147.3276 148.3513 148.8386 149.4311 150.5552 151.8451
   151.8571 151.9167 152.2142 152.7629 154.3991 154.5999 154.6815 155.3442
   156.4426 157.4063 158.4248 158.6814 161.4043 164.4315 165.4889 165.8092
   166.3128 168.1204 168.4821 169.0052 169.1312 169.4315 169.7299 172.8781
   173.3148 173.4144 174.4415 174.9495 175.0118 175.6994 175.9596 176.4649
   177.0541 177.5618 178.9101 179.2664 179.5613 181.4439 182.5873 182.8962
   184.6126 185.8695 186.1885 187.1151 187.6602 187.9475 190.1407 190.5473
   191.5712 191.8721 193.7032 193.9350 194.0408 195.3473 195.7912 195.9930
   196.1587 197.2074 198.7942 200.4161 200.6337 201.1910 201.3035 201.3410
   201.5156 202.8600 203.4803 205.0419 205.7424 206.1052 206.4726 206.9606
   209.5386 209.9840 210.1254 210.2983 213.3606 213.4156 213.4486 213.9405
   214.3678 214.5631 214.9730 216.9855 216.9931 217.0849 217.6457 217.9167
   218.2972 219.1038 219.4416 219.7931 222.1249 222.1698 222.6212 223.9430
   224.1347 227.3668 227.5709 227.6592 227.8232 228.8686 231.5195 231.5888
   231.6182 232.3527 232.8405 233.1785 233.3525 233.4338 234.0468 234.1952
   234.6655 234.6856 237.0458 237.3143 238.0663 239.0483 241.7168 242.3428
   242.6941 242.8587 242.9543 243.6946 244.0903 245.9012 246.0322 246.9026
   246.9132 247.3715 247.8180 248.8970 249.1060 249.6971 250.8227 251.3754
   253.4149 254.4085 254.9198 255.0768 256.0706 256.4251 257.1923 257.5926
   257.7383 258.4888 259.5673 260.4312 260.7365 261.2512 261.5078 261.6243
   263.4380 263.7980 264.1922 265.0136 265.7103 265.8484 266.0058 267.2987
   268.8388 268.9106 269.5004 269.8448 270.2516 271.2219 271.5585 272.1469
   274.1298 274.2292 274.4194 275.8411 276.0534 277.0945 277.6586 278.5865
   280.0655 280.8086 281.7759 281.9064 282.0087 282.8462 282.9034 283.5017
   283.6843 283.8168 284.6320 285.1166 285.7554 286.1401 286.2623 287.0954
   288.3351 288.6824 289.4852 290.5435 290.5885 291.2656 292.0686 292.1875
   293.0487 294.2156 294.2232 294.2326 294.9651 295.6589 295.7117 295.8325
   298.5071 299.5463 299.5757 300.3217 301.1482 303.1956 303.3849 303.5750
   304.9151 305.2388 305.8768 306.3626 306.5268 307.0500 308.5164 308.5522
   309.0677 309.3646 309.5219 309.5847 309.9556 310.5308 311.4604 311.5535
   311.7416 311.9811 312.2172 312.2835 312.3927 312.4317 312.6458 313.0822
   314.5475 314.6281 316.1235 317.9848 318.4822 319.4732 320.6424 321.2411
   321.8238 322.5110 324.8711 325.2675 325.3593 325.6225 326.3079 326.4724
   326.4825 326.5921 326.7621 327.9786 329.3104 329.6880 329.9855 330.0850
   330.6253 331.0489 331.4397 332.8233 332.9497 333.1323 333.8021 333.9542
   334.0141 334.3459 334.9877 335.6814 336.5068 337.3940 337.5139 340.3494
   342.3141 342.3926 342.9157 343.3470 343.8882 343.9607 344.8903 345.7558
   346.0338 346.1252 346.6848 348.1035 349.1949 349.3226 349.6492 349.6896
   349.9998 350.0618 350.1211 350.3222 351.1066 351.5922 352.2892 353.2081
   353.4953 354.7172 354.8466 356.0043 356.1341 358.1953 358.7608 358.8035
   360.7159 360.7598 361.1736 361.9537 362.0285 365.1724 365.2681 365.3717
   365.9687 366.7552 366.9289 368.2202 368.7774 368.7931 368.9689 369.6345
   369.6783 370.1369 370.3175 370.5413 370.8283 370.8584 371.1864 371.1879
   371.7731 372.0635 372.3282 372.6020 373.9996 374.6471 375.1579 375.5952
   375.6998 375.7615 375.8693 376.6175 376.6740 376.7822 376.8786 377.8694
   377.9912 378.1327 378.6367 380.3200 381.7108 381.8086 381.9708 383.8448
   385.1142 385.5359 385.8760 386.3101 386.6712 386.7701 386.9343 387.5486
   387.8321 388.9354 389.5501 389.5696 389.7669 389.8622 390.9300 392.0944
   392.2419 392.6637 393.4443 395.0565 395.8731 395.9917 396.0386 396.1863
   396.9697 397.4020 399.0440 399.2375 399.4944 400.2690 401.1709 402.0320
   402.1323 402.2261 402.7608 402.8592 402.8883 403.2443 403.3155 403.3339
   405.4942 405.9263 406.7410 406.7490 407.0327 407.2681 407.7528 408.9073
   409.5081 411.4470 411.4842 411.7174 411.8273 413.0759 413.3900 413.7009
   414.1335 414.2133 414.6044 415.4632 416.7073 417.6054 417.7582 418.4511
   418.4725 420.0713 420.3388 420.5668 420.8689 422.8481 423.1890 424.0120
   424.6182 425.1776 425.2917 425.5438 425.7585 426.7246 427.7622 427.9191
   428.2624 428.4409 428.5606 428.6763 428.7135 428.9753 429.4851 429.6439
   429.8200 430.0768 430.3142 432.9085 433.2319 433.3128 433.6361 433.8769
   433.9924 434.5018 435.1490 435.5406 436.9921 437.0396 437.8456 438.7086
   439.0478 439.2466 439.7969 440.2120 440.2966 440.8082 441.1708 441.2230
   442.5239 442.5409 442.5921 442.6730 443.8502 444.6003 444.6787 445.0403
   447.2946 447.3649 448.0185 448.0273 448.1978 448.2461 448.2722 448.9649
   449.4958 451.6700 451.9609 452.1760 453.0972 453.4457 453.4514 453.9124
   453.9466 454.5477 456.7086 457.5526 458.1946 458.7250 459.6822 459.9744
   460.0902 461.0837 461.1071 461.1735 461.2046 461.3277 461.3664 461.6287
   461.9356 462.5453 462.8330 463.2474 463.2691 464.8260 465.9128 466.0073
   466.0316 466.7255 466.8279 467.0431 467.1586 467.7224 467.7654 468.1111
   468.1750 468.3386 468.3428 469.5727 471.7165 472.1702 472.2606 473.0682
   473.1378 473.7904 476.4338 476.4443 477.0273 477.1027 478.2525 478.8348
   480.1365 480.5454 481.0845 481.2813 481.9293 482.4546 482.7481 483.8138
   483.9510 484.2596 484.2794 485.4627 486.8991 487.1639 487.9199 488.3889
   488.4493 488.6407 488.6827 489.8776 490.0783 490.4304 490.5226 490.8234
   490.8444 490.8595 490.8833 490.9032 491.0904 492.4795 492.5917 492.6686
   493.0063 493.4127 493.5331 494.1582 494.6616 495.2863 498.1465 498.1565
   498.3925 498.7976 500.4554 500.6840 500.8631 500.9131 501.4625 501.8643
   503.0221 503.5524 503.7955 503.8094 504.1791 504.4451 504.9353 504.9661
   505.0096 505.3704 505.4631 505.5840 505.7609 506.0035 506.1375 506.4462
   506.8432 507.2397 507.4257 507.4770 507.5952 507.6689 507.7507 508.6550
   508.7983 509.3733 509.3869 509.9307 510.5410 510.7754 510.9270 513.1888
   514.7776 515.9585 516.0033 516.9543 518.6278 518.8766 519.0411 519.0882
   519.0896 519.1194 519.2783 519.5958 521.7909 521.8026 522.2088 522.4666
   522.5871 523.4043 523.5250 524.5364 524.7010 524.8578 524.8817 524.8968
   524.9270 525.7134 525.7255 526.1570 526.2383 526.4908 526.5466 526.6868
   530.7685 530.8709 531.1419 531.3211 531.9365 531.9479 532.0908 532.6383
   535.5065 535.9087 537.5975 537.9722 538.9900 539.0167 539.1079 539.1100
   539.1730 539.2151 539.2948 539.3302 539.9073 540.4666 541.1941 541.5185
   542.1100 542.1117 542.3537 543.6541 543.8754 544.1758 544.4500 544.5109
   545.3379 545.4049 545.5879 545.6501 546.1137 546.7744 548.7023 548.9790
   549.3907 549.8066 549.8612 550.1797 551.3196 551.4239 551.4373 551.4696
   552.1820 553.0021 553.0319 554.2231 554.2329 555.0435 555.2254 555.4741
   556.0535 556.0898 556.9403 557.4338 558.5760 559.0199 559.2254 559.2282
   559.2823 559.7640 559.8739 560.4398 561.9531 562.7564 563.7150 564.2763
   564.2842 564.5220 564.5681 564.7497 564.7842 564.9227 565.1763 565.8465
   565.9144 567.0097 567.0192 567.1883 567.3733 568.0238 569.4993 569.5247
   569.7925 569.8456 569.9646 569.9898 570.1822 570.8682 571.9766 572.1035
   572.1578 572.2177 572.2287 573.8208 575.1230 576.5786 577.2389 577.2673
   577.8430 577.9532 578.3729 578.3780 579.7225 580.8023 581.2559 581.6180
   582.2235 583.1989 583.2116 583.4179 583.8236 585.5436 585.8818 585.8966
   585.9204 585.9219 585.9344 585.9475 585.9816 585.9961 586.0052 586.0739
   586.0752 586.2663 587.2063 590.8296 591.0697 592.3713 592.4139 592.4775
   592.6205 593.5851 593.6048 594.6984 594.8295 595.7053 595.8469 596.2441
   596.5206 596.5438 596.6198 597.0980 598.3789 599.1165 599.7843 599.9188
   600.7788 601.0045 601.4553 601.7299 602.2088 602.3990 602.4739 602.6785
   602.8998 603.0195 603.0335 603.1322 603.1344 603.8820 604.0499 604.0877
   604.1395 604.1606 604.4524 606.8870 607.1700 607.2719 607.3951 607.5844
   607.6104 607.9849 608.0239 608.0804 608.1091 608.1371 608.2711 609.0899
   609.5656 609.6709 610.4449 610.9055 610.9405 611.0119 611.0597 614.1669
   614.4424 615.1684 615.5384 618.1767 618.3909 619.4303 619.6594 619.7811
   620.7124 620.7442 621.5627 621.8542 621.8857 622.2633 622.3690 622.5742
   623.1547 623.2680 623.3746 623.9376 623.9774 623.9789 623.9908 624.0021
   624.0327 624.0704 624.2304 624.2351 624.8000 625.6827 625.8745 626.2444
   626.7760 627.1557 627.4707 627.6156 628.3482 629.6702 629.9688 630.2848
   630.3127 631.3302 631.5513 631.7479 632.0266 633.0563 633.0838 634.6119
   634.7677 635.3472 635.4901 635.6489 636.6647 636.6739 637.9499 638.0427
   639.4580 639.5136 640.2614 640.4931 640.5769 640.7781 641.1849 641.4155
   641.4483 643.4555 643.4759 643.5468 643.6058 643.6446 643.7046 643.7171
   643.9031 646.3278 646.3320 647.8248 648.1688 648.3013 648.3364 648.7915
   649.0088 649.1962 649.1968 649.2646 649.2671 649.3266 649.3436 649.3835
   649.7357 652.1690 652.7153 653.1467 653.1972 653.3678 654.3033 654.5809
   654.6886 654.8024 655.2935 655.3375 655.4350 655.4636 655.8761 656.3309
   656.3420 657.6753 658.3317 658.4147 659.2339 659.6762 659.7079 660.0494
   660.6965 661.7613 661.7713 662.2693 662.2839 662.6511 662.7027 663.3990
   663.5724 663.7482 663.8245 663.9509 664.2017 667.1881 667.4768 667.6991
   667.9729 668.5938 668.6105 668.6247 668.6675 670.3506 670.3858 670.4006
   670.4112 672.8255 673.0167 673.0581 673.1197 673.2509 673.3348 674.2299
   674.6430 674.9385 675.0696 676.5438 676.6420 676.6691 676.9141 677.2137
   677.4750 678.8359 680.0869 680.2999 681.1038 681.3977 681.4261 682.9655
   683.3213 683.3271 683.9571 684.4303 684.4457 684.8996 685.0669 685.1334
   685.4854 685.6437 686.1339 687.9898 687.9929 688.2384 688.2617 688.3462
   688.4060 688.4315 688.4488 688.5236 688.5536 690.0512 690.0724 691.4541
   691.8041 692.7987 694.1137 694.1754 694.4074 694.5966 694.8129 694.8471
   694.9172 697.2349 697.2678 697.4832 697.6250 697.6369 698.1665 699.4777
   699.5040 699.5383 699.7300 700.3631 700.5303 700.6656 700.8060 701.5091
   701.6780 701.9151 701.9333 702.1805 702.1866 702.3460 702.4213 702.4654
   702.4920 702.4964 702.5243 704.2970 704.6336 705.3589 705.6202 705.7102

          k = 0.0000-1.0000 0.0000 (  2450 PWs)   bands (ev):

   -29.7661 -11.2614 -10.8921 -10.8921  -7.4739   6.4707   7.4026   7.4026
    11.4252  15.8080  16.6455  17.2713  17.2713  19.0370  21.2370  25.7535
    25.7535  26.3716  33.5394  35.4663  35.4663  35.7689  40.6664  40.8592
    41.2033  42.5711  43.7878  43.7878  44.0815  44.0815  48.2551  48.2551
    52.5508  55.6663  57.5213  57.8153  59.4019  62.0448  62.0448  63.4236
    63.7843  63.7843  65.7911  69.1393  69.2716  69.6760  71.8520  71.8520
    74.1684  75.6310  75.6310  79.6700  80.6235  80.6235  84.1389  84.8337
    86.0503  86.1661  87.9312  88.0166  88.0166  88.6615  90.3340  90.3340
    90.4344  90.4344  92.1259  92.2209  92.8126  94.2683  97.1416  97.1416
   101.5997 102.1024 105.5170 105.5170 105.7374 106.1895 107.0129 107.0129
   108.7255 109.4035 109.4035 109.4957 110.2218 111.5286 111.5286 112.9368
   112.9368 113.0602 117.4061 117.9637 119.1852 119.2136 119.9601 119.9601
   121.1231 121.1231 122.0073 129.8173 129.9517 129.9517 130.5677 131.6333
   131.6333 132.4864 133.4929 133.5538 135.5882 136.4146 136.4146 136.8155
   137.0886 137.0886 137.1845 138.7331 139.3676 141.6779 141.6779 142.2336
   142.2680 147.1097 147.1097 149.3762 151.8171 151.8171 153.1569 153.6101
   154.6201 155.3921 156.4893 157.7925 157.7925 159.2526 159.2526 160.9581
   162.2661 162.6937 166.2707 166.6421 167.1589 167.5014 167.5014 167.8907
   168.0948 168.0948 168.6519 168.6519 170.0646 170.0871 170.4744 172.0956
   172.0956 172.4742 173.0967 174.2907 174.2907 177.2504 180.9059 181.7383
   181.7383 182.3897 182.5788 182.5788 183.9726 183.9726 183.9798 183.9798
   184.2287 184.5400 185.6916 185.8031 185.8615 185.8728 185.8728 185.9711
   186.6148 186.6148 186.9291 187.1912 188.1270 188.3455 189.4883 193.9490
   193.9490 194.5370 194.7940 194.7940 194.8145 195.1707 195.7860 197.4779
   200.2700 200.2700 203.5671 203.5671 204.5040 205.1842 205.1842 205.9121
   207.9315 209.8508 210.0334 210.0334 210.0399 210.0625 210.4815 211.6648
   212.5564 212.5564 213.7691 213.9349 214.0768 214.0768 215.9619 216.1500
   216.1500 216.5344 217.3920 217.3920 217.5488 217.6932 218.7546 220.9370
   220.9370 222.8308 224.4647 229.3984 229.3984 229.6529 233.4822 237.7078
   237.7078 238.0647 239.0920 239.0920 239.1550 239.5117 239.7556 240.2021
   242.4271 242.4271 242.9131 242.9131 244.1126 244.1244 244.1244 244.3126
   244.3271 244.3271 244.3283 244.5126 246.2108 246.2108 247.6791 248.8290
   248.9760 248.9760 249.2173 249.2300 250.6432 252.8491 256.6431 256.6431
   256.8556 256.9486 257.3165 257.3165 257.6487 257.9694 259.2830 259.2830
   260.5471 260.7734 260.7734 261.2939 262.0817 262.4682 262.6717 262.6717
   262.7369 263.0113 263.0113 263.2513 264.6487 266.0313 266.0313 266.1348
   266.3005 266.4029 266.5295 266.5295 266.6085 269.4850 271.0535 271.9843
   271.9843 272.1959 272.1959 272.2058 272.3242 272.3647 277.0286 277.8259
   279.8362 279.8362 280.7309 280.7309 282.1026 283.4947 284.4285 285.4698
   285.7250 285.7739 285.7739 286.4111 286.4111 287.7721 287.7721 287.8915
   287.9195 288.4853 288.4853 289.7949 289.8970 289.9518 290.0262 290.3624
   290.5105 290.5105 290.5200 290.5200 292.5365 292.9365 295.5101 296.7356
   297.1833 298.5405 298.5405 298.7320 299.3949 299.3949 299.7655 299.7655
   300.7701 300.7979 302.1460 304.1651 309.2516 309.2516 311.4541 312.0234
   312.2458 312.2458 312.7621 313.2875 313.6329 313.6329 313.6832 313.7047
   313.8300 313.8489 313.8489 314.1489 314.2748 314.2748 314.3790 315.1438
   315.1438 315.4756 316.7711 317.0836 318.0387 318.1590 318.1590 322.4741
   322.4856 322.5794 322.5794 322.6877 322.6883 322.6883 322.9737 323.4498
   323.7819 323.8253 323.8253 323.9729 326.8814 328.2391 328.2391 328.8057
   331.0590 335.9319 335.9319 336.2346 337.4535 337.4535 337.7430 337.9095
   337.9095 338.0135 339.3489 339.4760 339.4760 339.8492 340.0682 340.0682
   340.8851 341.3105 341.3105 341.5120 341.5556 342.0754 343.3802 343.3849
   343.8750 344.8366 345.0165 345.0165 345.3622 345.4134 345.4134 345.4475
   345.8002 345.8002 346.0945 346.2815 346.2815 346.3542 346.3831 347.6688
   347.7863 347.7863 347.7882 350.3203 350.4097 350.4720 350.5206 350.5206
   350.8938 350.9018 350.9125 350.9125 358.5565 360.1993 360.1993 360.9893
   360.9893 362.6050 363.9754 365.9741 366.9737 367.0587 367.1336 367.1490
   367.2132 367.2132 367.2694 367.2694 368.9262 368.9262 369.1808 369.3151
   370.7920 371.0772 371.0772 371.1894 379.5956 379.5956 381.0389 381.3033
   381.9378 381.9378 385.4558 386.8062 386.9568 387.6656 387.8295 387.8295
   389.0762 389.0762 389.3678 390.2057 390.2189 390.5995 390.5995 391.0435
   391.0435 391.5926 391.9729 392.8923 393.3065 393.3065 393.3190 393.5257
   393.5673 393.5774 393.5774 395.0436 396.6678 396.7762 396.7762 398.0985
   398.0985 398.2139 398.2930 398.4050 398.9374 398.9374 399.2058 399.2058
   399.2086 399.2471 399.2510 400.1905 401.7137 402.1119 402.2468 402.2468
   402.2757 402.3359 402.3359 402.3858 402.4195 403.2677 404.6014 404.6014
   406.3553 407.2391 412.8446 412.8446 412.9684 413.3218 413.3218 415.2377
   415.4393 416.5867 416.5867 416.8232 417.0128 417.5036 417.7590 417.7590
   417.8320 417.8320 417.9279 418.0323 418.0459 418.1477 418.1477 418.2494
   418.4153 418.4242 419.3007 419.4342 419.4342 419.6469 419.6469 420.0237
   420.0773 421.4869 421.4869 421.5777 421.5979 421.6211 422.7650 422.8685
   422.8685 422.9511 422.9511 423.1375 423.6395 425.2900 425.2900 425.3432
   425.3432 428.2415 429.0736 429.0841 429.0841 429.0864 429.1470 429.1474
   429.1645 429.1645 431.4193 431.4271 436.8158 436.8293 436.8293 438.0688
   438.4739 438.6210 438.6210 439.1718 440.0754 440.6150 440.6150 441.4934
   441.7040 441.7040 441.7185 443.2734 445.0855 446.0389 446.0653 446.1336
   446.1336 446.1550 446.1550 446.4046 446.4783 446.6849 446.6849 446.7424
   446.7424 447.4461 447.8310 447.8310 447.8499 447.9307 448.0430 448.4518
   448.4518 448.4705 448.5515 451.4415 452.5249 452.6554 452.7994 452.7994
   452.8598 452.8598 453.0614 453.0968 459.0575 460.2242 460.2242 461.8497
   463.7934 464.3568 464.3568 465.7974 467.1708 467.9082 467.9082 468.1795
   468.3483 468.4246 468.9311 469.1956 469.1956 469.9649 469.9649 470.3690
   470.3690 473.8372 473.8685 473.8685 473.9098 473.9429 474.0941 474.6306
   475.2497 475.2497 475.5274 475.5762 475.6823 475.6823 475.8982 476.0317
   476.1934 476.2665 476.3339 476.3339 476.3852 476.4438 476.4438 477.6841
   477.7346 477.7346 477.7828 478.9108 478.9366 479.0923 481.4694 481.4694
   481.4823 481.4823 482.8517 482.8518 487.9097 487.9097 488.4293 489.8331
   489.8456 489.8456 491.1043 494.3915 494.8329 494.8329 495.0909 495.4438
   495.6072 495.6351 495.6351 495.7943 496.2475 496.2475 496.4892 496.7480
   496.8239 496.8239 496.8867 497.7109 498.7304 498.7380 498.7396 498.7396
   498.7408 498.7422 498.7422 498.7507 499.9389 500.3022 500.3022 500.4607
   500.4607 500.5093 500.5350 502.2452 504.6592 504.7085 504.7584 504.7584
   504.8166 504.9297 504.9297 504.9494 509.6842 510.8345 510.8345 513.0816
   514.1071 514.4241 516.1656 516.1656 517.0194 517.1798 517.3212 518.3452
   518.3452 519.7114 520.6511 521.0233 521.0233 521.3374 521.3374 521.6449
   521.6884 521.7182 521.7818 521.7818 521.8164 522.0587 522.6353 522.6353
   522.7212 523.4598 525.8864 526.6440 526.6754 526.6754 526.7130 526.9221
   526.9221 526.9231 526.9552 527.6715 527.6715 527.9414 527.9414 528.5548
   528.6131 530.4477 531.9303 531.9973 531.9973 531.9978 538.0529 541.7625
   541.7625 542.3674 542.3674 542.6377 543.2856 543.9080 544.1030 544.1460
   544.1460 544.1806 545.0581 545.2898 545.2898 546.6766 546.6766 546.8175
   546.9907 547.0534 547.0534 549.8137 550.0824 550.0824 550.1146 550.5022
   550.5323 550.6585 550.6585 551.7268 551.7525 552.6020 552.8228 552.9341
   553.1394 553.1394 553.3057 553.3057 553.7676 556.0520 558.2785 558.2953
   558.3083 558.3083 558.4545 558.5027 558.5027 558.5506 558.7316 558.7406
   558.7406 558.7447 559.1260 559.1391 559.1391 559.1409 566.5750 566.5940
   566.5940 569.6278 569.6278 569.6925 570.1551 572.3477 572.7163 572.7163
   572.9266 573.0122 573.0743 573.1092 573.1092 573.2599 573.2851 573.4306
   573.4926 573.4926 573.5979 573.5979 573.7454 573.8007 573.9012 573.9962
   574.0393 574.0393 574.0728 574.0884 574.0884 574.0977 574.2650 574.2699
   574.2868 574.2868 574.4064 574.4495 574.4512 574.4512 574.5255 574.6748
   574.6748 574.7114 574.7114 574.8695 574.8743 575.0086 575.8080 575.8080
   576.3737 576.4462 576.4791 576.4791 576.4916 576.5047 576.5282 576.6134
   576.6134 577.8155 577.8155 577.8418 577.9184 578.4764 578.7290 578.7290
   578.9087 579.5361 579.6636 579.6636 579.6977 582.7533 582.8165 582.8165
   582.8232 582.8754 582.8754 582.8927 582.9550 583.2599 584.9989 585.0120
   585.1947 585.1947 585.2218 585.2218 585.3450 585.3615 599.6692 599.6692
   600.1118 600.1442 600.1442 600.1550 600.1821 600.2119 600.2593 600.2603
   600.2603 600.4562 600.4562 600.4874 600.5650 601.0083 603.1414 603.1414
   603.6355 605.3200 605.3200 605.5119 605.7158 605.9101 605.9544 606.2540
   606.2540 606.2822 606.2822 606.3960 606.4652 607.0586 607.0988 607.1372
   607.1372 607.2381 607.2381 607.3149 607.3276 607.3436 607.3755 607.4781
   607.4781 607.5152 607.5152 607.5208 607.5655 608.7965 618.3918 621.6221
   621.6221 623.4324 623.7133 623.7133 624.3113 624.3113 624.4982 624.6152
   624.6915 624.7223 624.7333 624.8233 624.8233 625.7859 626.3004 626.3004
   626.8249 627.1739 627.1739 627.1741 627.2010 628.2452 629.1330 629.1825
   629.1825 629.4238 629.7507 630.1445 630.1445 630.1458 630.1458 630.1958
   630.2577 631.1936 634.8380 634.8380 634.8388 634.8502 634.8619 634.8624
   634.8624 634.8838 636.8780 636.8780 637.1666 637.1858 637.2395 637.2409
   637.2456 637.2456 637.4580 637.4580 639.3689 640.0926 640.8519 641.4349
   641.8630 641.8630 642.1978 644.4642 647.1192 647.1192 647.2010 647.5572
   647.5572 647.7217 647.7373 649.9805 650.0115 650.0115 650.0430 650.6300
   651.6485 651.6936 651.6944 651.6944 651.7187 651.7187 651.9216 651.9416
   653.6866 653.7111 653.7657 653.7657 653.7732 653.7737 653.7857 653.7857
   653.8080 653.8080 653.9381 653.9403 655.3013 655.3186 655.3911 655.3911
   655.4133 655.4133 655.4950 655.5256 655.5912 655.6382 655.6382 655.6447
   657.7047 657.7303 657.7303 657.7561 657.8380 657.8380 658.3546 659.2750
   659.6482 659.6482 659.6644 659.6644 659.8059 659.8373 659.8624 659.8624
   665.7433 665.7437 671.3360 671.3360 672.3444 672.4434 672.4756 672.4756
   673.3922 674.6135 676.6807 677.0795 677.0795 677.3486 677.3486 677.4659
   677.5578 677.6020 677.7077 677.7077 677.7690 677.7903 677.8232 677.8232
   677.8756 678.0485 680.7810 680.7810 681.8273 681.8909 682.1438 682.1474
   682.1474 682.2832 682.2832 682.3035 682.3068 682.7544 682.7544 682.7550
   682.7567 683.0923 683.5724 684.2453 684.2453 684.3770 684.4460 684.6029
   684.6029 684.6741 684.7618 684.7618 685.1062 685.1086 685.2376 685.2376
   685.2707 685.5997 697.0667 699.6596 699.6596 701.3928 701.4897 701.6547
   701.7048 701.7048 701.7498 702.1977 702.1977 702.2030 702.3595 702.6057
   702.6415 702.6595 702.6595 703.5239 704.1005 704.1005 704.3586 704.3586
   705.8613 705.9042 705.9042 705.9474 705.9967 706.1007 706.1069 706.1069
   706.1446 706.1446 706.1735 706.4867 706.5449 706.5822 706.5822 707.8928

          k =-0.5000-1.0000 0.0000 (  2468 PWs)   bands (ev):

   -29.7651 -11.0844 -11.0789 -11.0789  -7.0955   6.5012   6.7176   6.7176
    14.0865  14.0865  16.1437  17.2769  17.7209  21.6938  21.9098  21.9098
    24.8846  29.6197  29.6197  34.8860  36.7598  38.0088  39.4174  39.4174
    41.6251  43.1457  43.8802  43.8802  45.7897  46.1843  49.2867  49.2867
    51.2718  51.2718  54.5841  57.6386  57.7011  60.9568  62.8581  62.8581
    66.9800  66.9800  67.2729  67.8116  71.6676  71.8557  73.0788  73.0788
    74.2175  75.5165  77.6654  77.6654  78.5082  78.5082  79.6950  81.1626
    85.0088  85.3769  85.4592  85.4592  89.1693  89.1693  90.8802  91.7542
    93.0543  93.0543  93.6126  94.3308  95.7336  95.7336  96.8994  97.3271
   100.3847 100.3847 100.5618 103.5574 104.4839 107.4647 107.4647 107.8079
   109.4306 110.0328 110.0328 111.3780 111.4607 112.9498 112.9498 114.7531
   116.0256 116.8020 116.8020 118.5546 118.9910 118.9910 119.5470 119.8253
   120.2572 123.1104 123.1104 123.2598 124.9521 124.9521 125.0700 125.0747
   126.4895 128.5889 130.5274 133.1080 133.1080 134.9061 136.8860 136.8860
   139.2056 141.5601 141.8143 141.8143 145.3267 145.3267 146.7625 149.4598
   151.1150 151.1150 151.3728 151.4506 152.7538 152.7538 154.3781 154.4447
   155.4340 155.4340 156.1657 158.1472 158.1472 158.3245 159.0159 159.0159
   159.0793 160.3184 162.8082 163.1006 163.1573 163.1573 164.2273 164.2489
   166.0984 166.0984 167.3842 168.9097 170.4246 171.4475 171.4475 171.9575
   172.0426 172.2730 172.9383 172.9383 173.3974 173.7730 173.7730 175.1130
   178.5668 178.5668 180.5246 181.3942 181.4762 182.0857 182.3898 183.2085
   183.2085 185.3892 185.3892 186.6162 187.1241 187.6175 188.5271 188.5271
   189.0354 189.6087 190.6168 190.6168 192.6620 195.0205 196.0192 196.0192
   196.5499 196.6473 197.2287 197.2663 197.2663 197.9104 197.9104 199.0522
   199.9713 200.0822 200.2506 200.2506 200.6956 201.4408 201.4408 201.5469
   206.2090 206.8881 206.8881 209.5009 209.9477 211.1854 211.1854 211.3621
   212.8699 212.8966 212.8966 212.9325 218.3533 218.3533 218.7697 221.1036
   221.1284 221.1284 222.6101 224.3917 224.5038 224.5038 224.5854 224.9358
   224.9358 226.5313 227.8478 228.2361 228.2361 228.3772 228.8081 228.8408
   230.6771 232.8317 232.8317 234.9237 234.9237 235.2465 235.9999 237.1178
   237.7392 237.7392 237.9850 239.1840 240.2978 240.2978 240.5763 240.6364
   241.3694 241.3694 241.4682 241.5730 244.3790 245.8980 246.2285 246.2327
   246.2327 246.3767 248.4657 248.4657 249.4371 249.9669 254.2308 254.2308
   254.8224 255.2935 256.1543 256.1543 256.8701 256.8701 258.8456 258.8456
   259.7613 260.2472 260.4618 262.6210 262.9063 262.9063 263.1680 263.8612
   264.8897 265.8087 267.3503 267.3503 268.5710 271.0099 272.3081 272.3081
   274.6088 275.0398 275.3966 275.3966 275.9080 276.0154 276.2500 276.2500
   276.6127 276.7888 277.2335 277.2335 277.4136 278.0345 278.2208 278.2208
   279.5294 279.7958 280.0112 280.0112 280.6445 281.3614 281.3614 283.4888
   284.0413 284.0413 285.2066 286.2531 286.6202 286.6202 286.8918 287.8764
   288.6722 288.6722 288.7732 288.7732 288.9243 288.9485 289.0910 290.2901
   292.4726 292.4726 292.5470 294.3034 294.9850 296.8789 296.8789 298.0406
   298.8710 299.6072 299.6072 301.0631 301.2486 301.3863 301.3863 301.5401
   301.5401 301.9712 303.0986 303.6417 303.8310 303.8310 303.9311 303.9933
   305.9064 305.9064 306.0760 306.2452 306.2656 306.2656 306.7136 306.7136
   306.9815 307.0125 307.0165 308.8505 310.5426 310.5426 311.0400 312.7500
   314.4760 314.4760 314.7751 315.1344 315.5812 315.5958 315.5958 317.1697
   320.4421 320.4421 320.4972 320.5729 324.3771 325.0638 325.0638 325.6694
   325.6694 325.7295 325.7942 326.2666 327.0009 327.5257 327.5257 327.6152
   328.3130 328.3130 328.4155 329.9751 333.3824 333.3824 334.5087 334.9640
   337.5741 338.8295 338.8295 338.8847 338.9032 338.9435 338.9435 339.8232
   339.8733 339.8733 340.9872 342.8192 343.4278 346.6951 346.6951 349.1379
   350.6155 351.1435 351.1435 352.3460 352.3754 352.4173 352.4173 352.7249
   352.9045 353.1138 353.1138 353.1188 353.3652 353.8518 353.8518 354.8913
   355.1364 355.1364 355.2211 355.4835 355.6510 355.6623 355.6623 355.7569
   355.7979 355.8081 355.8081 356.1136 357.3157 357.8338 359.3463 359.3463
   360.8898 363.6202 365.5245 365.9356 365.9356 367.1113 367.4407 367.4407
   367.4733 367.9247 370.7065 370.7809 370.7809 371.0051 371.0051 371.2013
   373.4965 374.2508 374.2508 375.9296 376.6012 376.6012 377.6262 378.0002
   379.0156 379.0156 380.0554 380.3126 380.3268 380.3268 380.3909 380.5383
   380.5532 380.5532 380.5940 381.8826 382.7990 384.9678 385.0189 385.0189
   385.4397 385.4778 386.5280 386.5280 387.6466 387.6466 387.7548 387.7548
   387.8452 389.0545 390.2842 391.0634 391.1126 391.1126 391.1420 392.1730
   392.5306 392.5306 392.6526 393.2175 393.2175 393.3512 393.7052 396.2166
   397.4334 397.4334 398.0516 398.0561 401.7667 401.7667 404.4207 405.3024
   405.8044 406.2330 406.2330 406.9383 406.9766 407.7926 408.2230 408.2230
   412.7614 414.1171 414.1171 415.1080 415.3524 415.4260 415.4260 415.4522
   416.9598 417.3256 417.3256 417.5297 417.5297 417.8143 417.9445 418.4904
   418.5358 418.6422 418.6422 419.5940 419.6920 420.2437 420.2437 420.2823
   420.4199 420.4199 420.7163 421.6567 422.2447 422.2447 422.6467 422.8354
   422.8354 422.8974 423.7752 424.1014 424.9123 426.5636 426.5636 429.4366
   429.6685 429.7764 429.7764 431.0863 431.3998 431.3998 431.4688 431.6682
   431.6860 432.0785 432.0785 432.1975 432.1975 432.4382 432.5410 432.8853
   432.9098 432.9399 432.9399 433.1664 434.1920 434.1920 434.5595 434.6253
   434.6569 434.6569 434.7180 436.2869 436.3986 436.3986 436.5123 437.0757
   437.2223 437.2777 437.2777 437.3113 441.1283 442.6140 442.6140 443.8160
   444.3905 444.6384 444.6384 445.4950 445.4950 445.5549 445.6440 447.0306
   450.6140 450.6140 451.9218 452.5522 453.0232 455.0284 455.0284 456.0472
   456.4123 456.5441 456.5441 456.6578 456.8628 456.8628 457.1516 457.8890
   457.9902 457.9902 458.1648 458.2360 458.3973 458.8882 458.8887 458.8887
   458.9037 459.0285 459.0285 459.6378 459.7560 462.0596 462.2963 462.2963
   462.3476 462.6029 465.1498 465.1558 465.1558 466.8465 467.0979 467.0979
   468.8253 468.8382 468.9890 469.5547 469.5547 470.9993 471.0250 471.1289
   471.2003 471.2003 471.5830 471.5830 471.8257 472.0615 472.1577 472.1577
   472.2289 472.2571 472.3941 472.3941 472.6879 474.5784 475.0450 475.0450
   476.0849 476.0849 476.1626 476.1829 482.2730 482.2730 482.8039 484.6692
   484.7166 484.7166 484.8421 484.8606 485.5130 485.5639 485.6050 485.6050
   485.8683 485.8683 485.8701 485.8971 489.8893 491.1418 491.1418 492.5297
   492.5297 492.7911 493.0020 493.8985 495.6136 495.6136 496.5939 496.7794
   497.2373 497.2556 497.2556 498.3268 500.6099 500.6099 501.7381 501.7381
   502.1247 502.1300 502.1429 502.2995 502.3138 502.3138 502.3310 502.3436
   504.0301 504.0301 504.4766 509.7702 509.7702 509.9529 510.0924 510.3310
   510.5535 510.5535 510.6830 511.2352 514.3480 514.3480 514.5774 514.6297
   514.6873 514.6873 514.8971 516.2565 517.0387 519.8741 519.8741 520.7250
   520.7250 521.5113 521.6592 521.7864 521.9767 521.9767 522.0470 522.3087
   522.3988 522.3988 522.4890 523.1928 523.1928 523.2455 523.4394 523.7111
   523.7315 523.8519 523.8519 526.2590 533.7710 533.7710 534.0808 535.3990
   535.3990 535.5985 535.6715 535.7224 535.7357 535.9605 535.9605 536.4426
   536.5202 536.5202 536.7299 537.0682 537.0682 537.1486 537.1648 537.6150
   541.1863 541.1863 542.4388 543.3374 543.5751 543.9313 544.0429 544.0429
   544.2220 544.2220 544.8705 546.8802 547.1277 547.1708 547.1708 547.7993
   548.0168 548.0765 548.0765 548.1728 548.3780 548.3867 548.3867 548.4005
   548.4131 548.9772 549.1101 549.1101 549.1607 549.4396 549.4396 549.7697
   549.7790 549.8653 549.8653 550.1717 550.1717 550.1989 550.2512 550.4909
   550.5234 550.5234 550.5916 550.6610 550.7151 550.7151 550.7963 550.7988
   551.1964 551.1964 551.3530 554.1083 554.1436 554.1498 554.1498 554.1768
   560.5990 560.8351 560.8351 561.3543 561.3543 561.3752 561.6793 561.8691
   562.1353 562.1353 562.2010 562.7930 562.8111 562.8111 562.9305 563.5889
   563.7162 563.8214 563.8214 563.8879 564.0396 564.0396 564.0898 564.5132
   564.6330 564.6378 564.6378 564.8627 568.4326 570.2897 570.2897 570.4678
   570.8043 570.8043 571.7244 573.5075 574.4182 574.5340 574.7777 574.7777
   575.3416 578.3964 580.2255 580.2255 580.3224 580.3295 583.3083 583.3083
   583.5865 585.5078 585.6193 585.6193 586.3011 586.7342 586.7726 586.7726
   586.8254 587.5829 587.5829 587.6735 587.7707 587.8600 588.1691 588.2256
   588.2256 588.8042 589.0271 589.0271 589.1056 589.1400 589.1400 589.1491
   589.2067 589.9047 590.8078 590.8111 590.8111 590.8249 590.8249 590.8276
   590.9611 591.3255 592.1739 592.1739 593.3304 593.8778 593.8778 595.7436
   598.3722 598.3722 598.9278 600.6140 601.0516 601.0516 601.0911 601.1993
   601.2230 601.2230 601.2640 601.7400 605.4020 605.4020 605.4327 605.4377
   607.8433 608.6404 608.6404 609.2160 609.2160 609.5895 609.6296 610.9271
   611.8320 611.8320 612.6328 613.2603 613.2755 613.3027 613.3027 614.3221
   614.3221 614.3725 614.3986 614.4989 614.5395 614.5428 614.5428 615.0733
   615.0970 615.1401 615.1401 615.2164 615.2169 615.2255 615.2255 616.2632
   618.6984 618.6984 619.2616 619.2705 619.6223 619.6223 619.6719 619.6739
   622.0607 622.0607 623.9258 624.2065 624.5415 624.7191 624.7191 624.7357
   624.7535 625.3504 625.3504 626.2854 626.2854 626.3590 626.3935 626.4300
   626.4358 626.5423 626.5423 627.1421 627.4527 627.5501 627.6008 627.6008
   628.0171 628.0171 628.1699 628.2087 628.2087 628.2830 628.3682 628.3738
   628.3738 628.3804 628.4472 628.5419 628.5917 628.5917 628.6903 628.7157
   628.7282 629.1748 629.1748 630.3737 638.3616 638.6620 638.6620 639.1863
   639.3628 639.3628 640.6034 642.3089 642.3123 642.3123 642.3250 642.4479
   642.5581 642.5665 642.5665 642.9832 649.7009 650.1036 650.1036 651.9509
   652.0622 652.0622 652.1374 652.1708 652.8504 652.8504 652.9037 652.9155
   653.0242 653.0242 653.1243 653.1268 653.3030 653.4116 653.4116 653.6648
   654.1795 654.7407 654.7407 655.1902 655.2023 655.2101 655.2101 655.6583
   657.0274 657.0274 657.0431 657.0649 662.4540 662.4783 662.4783 663.4228
   663.7435 663.8380 663.8380 664.6671 664.7123 664.7810 664.7810 666.2365
   666.3227 666.4508 666.4508 666.4668 666.4744 666.4744 666.4856 666.4922
   666.8633 666.9733 666.9733 667.2065 667.2143 667.2875 667.2875 667.3856
   667.4098 667.4098 667.4131 667.4199 667.4313 667.4445 667.4445 667.8364
   671.5055 671.5055 671.5107 671.5182 676.0665 676.1317 676.1317 676.5832
   678.4593 678.4593 678.9163 679.2248 679.2440 679.2849 679.2849 679.7644
   680.7406 680.7433 680.7433 680.7597 680.7752 680.7752 680.8089 680.8701
   682.8284 683.1037 683.1037 685.8347 686.3461 687.1913 687.1913 687.5366
   687.6341 687.6341 687.6633 688.1579 692.8967 692.8967 692.9043 693.0669
   693.0744 693.0929 693.0929 693.3077 696.2139 696.2139 696.2811 696.2856
   696.7218 696.7218 696.7401 696.7433 697.3804 697.3804 697.4538 697.4580
   699.4234 700.2133 700.2133 700.7968 701.7548 701.7548 703.3266 703.7722
   703.8125 703.8125 703.9137 704.0649 704.1748 704.3683 704.3683 704.3857
   704.4074 704.4074 704.4075 704.4079 704.4259 704.9658 704.9658 705.3245

     the Fermi energy is    10.4216 ev
     (compare with:     9.5507 eV, computed in scf)

     Writing all to output data dir out/mp-2605.save/
 
     init_run     :      0.04s CPU      0.05s WALL (       1 calls)
     electrons    :    559.66s CPU    601.14s WALL (       1 calls)

     Called by init_run:
     wfcinit      :      0.00s CPU      0.00s WALL (       1 calls)
     potinit      :      0.01s CPU      0.01s WALL (       1 calls)
     hinit0       :      0.01s CPU      0.02s WALL (       1 calls)

     Called by electrons:
     c_bands      :    559.66s CPU    601.13s WALL (       1 calls)
     v_of_rho     :      0.01s CPU      0.01s WALL (       1 calls)

     Called by c_bands:
     init_us_2    :      0.00s CPU      0.00s WALL (       8 calls)
     init_us_2:cp :      0.00s CPU      0.00s WALL (       8 calls)
     paro_k       :    541.44s CPU    581.73s WALL (       8 calls)

     Called by paro_*:
     h_psi        :      9.92s CPU     10.40s WALL (     807 calls)
     g_psi        :      0.21s CPU      0.24s WALL (   78281 calls)

     Called by h_psi:
     h_psi:calbec :      0.20s CPU      0.21s WALL (     807 calls)
     vloc_psi     :      9.50s CPU      9.97s WALL (     807 calls)
     add_vuspsi   :      0.15s CPU      0.15s WALL (     807 calls)

     General routines
     calbec       :      0.20s CPU      0.21s WALL (     807 calls)
     fft          :      0.01s CPU      0.01s WALL (      10 calls)
     fftw         :      8.46s CPU      8.88s WALL (  128676 calls)
 
     Parallel routines
 
     PWSCF        :   9m20.46s CPU  10m 2.40s WALL

 
   This run was terminated on:  20: 5:20  17Nov2023            

=------------------------------------------------------------------------------=
   JOB DONE.
=------------------------------------------------------------------------------=
