
     Program PWSCF v.7.1 starts on 17Nov2023 at 21:40:15 

     This program is part of the open-source Quantum ESPRESSO suite
     for quantum simulation of materials; please cite
         "P. Giannozzi et al., J. Phys.:Condens. Matter 21 395502 (2009);
         "P. Giannozzi et al., J. Phys.:Condens. Matter 29 465901 (2017);
         "P. Giannozzi et al., J. Chem. Phys. 152 154105 (2020);
          URL http://www.quantum-espresso.org", 
     in publications or presentations arising from this work. More details at
     http://www.quantum-espresso.org/quote

     Parallel version (MPI), running on    24 processors

     MPI processes distributed on     1 nodes
     123287 MiB available memory on the printing compute node when the environment starts
 
     Reading input from pw_mp-2605_scf_k3000_E84.in
Warning: card &CELL ignored
Warning: card / ignored

     Current dimensions of program PWSCF are:
     Max number of different atomic species (ntypx) = 10
     Max number of k-points (npk) =  40000
     Max angular momentum in pseudopotentials (lmaxx) =  4
 
     K-points division:     npool     =       2
     R & G space division:  proc/nbgrp/npool/nimage =      12
     Subspace diagonalization in iterative solution of the eigenvalue problem:
     a serial algorithm will be used

 
     Parallelization info
     --------------------
     sticks:   dense  smooth     PW     G-vecs:    dense   smooth      PW
     Min          79      79     24                 1629     1629     273
     Max          80      80     25                 1633     1633     275
     Sum         955     955    295                19579    19579    3287
 
     Using Slab Decomposition
 


     bravais-lattice index     =            2
     lattice parameter (alat)  =       9.0841  a.u.
     unit-cell volume          =     187.4084 (a.u.)^3
     number of atoms/cell      =            2
     number of atomic types    =            2
     number of electrons       =        16.00
     number of Kohn-Sham states=           16
     kinetic-energy cutoff     =      84.0000  Ry
     charge density cutoff     =     336.0000  Ry
     scf convergence threshold =      1.0E-10
     mixing beta               =       0.7000
     number of iterations used =            8  plain     mixing
     Exchange-correlation= PBE
                           (   1   4   3   4   0   0   0)

     celldm(1)=   9.084123  celldm(2)=   0.000000  celldm(3)=   0.000000
     celldm(4)=   0.000000  celldm(5)=   0.000000  celldm(6)=   0.000000

     crystal axes: (cart. coord. in units of alat)
               a(1) = (  -0.500000   0.000000   0.500000 )  
               a(2) = (   0.000000   0.500000   0.500000 )  
               a(3) = (  -0.500000   0.500000   0.000000 )  

     reciprocal axes: (cart. coord. in units 2 pi/alat)
               b(1) = ( -1.000000 -1.000000  1.000000 )  
               b(2) = (  1.000000  1.000000  1.000000 )  
               b(3) = ( -1.000000  1.000000 -1.000000 )  


     PseudoPot. # 1 for Ca read from file:
     /usr/scratch4/magr4985/MG/HTDF/pseudo/SG15/Ca.upf
     MD5 check sum: b43c970dc090f2312d256360aabdb6f1
     Pseudo is Norm-conserving, Zval = 10.0
     Generated using ONCVPSP code by D. R. Hamann
     Using radial grid of  602 points,  6 beta functions with: 
                l(1) =   0
                l(2) =   0
                l(3) =   1
                l(4) =   1
                l(5) =   2
                l(6) =   2

     PseudoPot. # 2 for O  read from file:
     /usr/scratch4/magr4985/MG/HTDF/pseudo/SG15/O.upf
     MD5 check sum: e36c48deb68f4e355fffe4602be2c42c
     Pseudo is Norm-conserving, Zval =  6.0
     Generated using ONCVPSP code by D. R. Hamann
     Using radial grid of  602 points,  4 beta functions with: 
                l(1) =   0
                l(2) =   0
                l(3) =   1
                l(4) =   1

     atomic species   valence    mass     pseudopotential
        Ca            10.00    40.07800     Ca( 1.00)
        O              6.00    15.99940     O ( 1.00)

     48 Sym. Ops., with inversion, found



   Cartesian axes

     site n.     atom                  positions (alat units)
         1           Ca  tau(   1) = (   0.0000000   0.0000000   0.0000000  )
         2           O   tau(   2) = (  -0.5000000   0.5000000   0.5000000  )

     number of k points=    72  Gaussian smearing, width (Ry)=  0.0005
                       cart. coord. in units 2pi/alat
        k(    1) = (   0.0000000   0.0000000   0.0000000), wk =   0.0011574
        k(    2) = (  -0.0833333   0.0833333  -0.0833333), wk =   0.0092593
        k(    3) = (  -0.1666667   0.1666667  -0.1666667), wk =   0.0092593
        k(    4) = (  -0.2500000   0.2500000  -0.2500000), wk =   0.0092593
        k(    5) = (  -0.3333333   0.3333333  -0.3333333), wk =   0.0092593
        k(    6) = (  -0.4166667   0.4166667  -0.4166667), wk =   0.0092593
        k(    7) = (   0.5000000  -0.5000000   0.5000000), wk =   0.0046296
        k(    8) = (   0.0000000   0.1666667   0.0000000), wk =   0.0069444
        k(    9) = (  -0.0833333   0.2500000  -0.0833333), wk =   0.0277778
        k(   10) = (  -0.1666667   0.3333333  -0.1666667), wk =   0.0277778
        k(   11) = (  -0.2500000   0.4166667  -0.2500000), wk =   0.0277778
        k(   12) = (  -0.3333333   0.5000000  -0.3333333), wk =   0.0277778
        k(   13) = (   0.5833333  -0.4166667   0.5833333), wk =   0.0277778
        k(   14) = (   0.5000000  -0.3333333   0.5000000), wk =   0.0277778
        k(   15) = (   0.4166667  -0.2500000   0.4166667), wk =   0.0277778
        k(   16) = (   0.3333333  -0.1666667   0.3333333), wk =   0.0277778
        k(   17) = (   0.2500000  -0.0833333   0.2500000), wk =   0.0277778
        k(   18) = (   0.1666667  -0.0000000   0.1666667), wk =   0.0138889
        k(   19) = (   0.0000000   0.3333333   0.0000000), wk =   0.0069444
        k(   20) = (  -0.0833333   0.4166667  -0.0833333), wk =   0.0277778
        k(   21) = (  -0.1666667   0.5000000  -0.1666667), wk =   0.0277778
        k(   22) = (  -0.2500000   0.5833333  -0.2500000), wk =   0.0277778
        k(   23) = (   0.6666667  -0.3333333   0.6666667), wk =   0.0277778
        k(   24) = (   0.5833333  -0.2500000   0.5833333), wk =   0.0277778
        k(   25) = (   0.5000000  -0.1666667   0.5000000), wk =   0.0277778
        k(   26) = (   0.4166667  -0.0833333   0.4166667), wk =   0.0277778
        k(   27) = (   0.3333333   0.0000000   0.3333333), wk =   0.0138889
        k(   28) = (   0.0000000   0.5000000   0.0000000), wk =   0.0069444
        k(   29) = (  -0.0833333   0.5833333  -0.0833333), wk =   0.0277778
        k(   30) = (  -0.1666667   0.6666667  -0.1666667), wk =   0.0277778
        k(   31) = (   0.7500000  -0.2500000   0.7500000), wk =   0.0277778
        k(   32) = (   0.6666667  -0.1666667   0.6666667), wk =   0.0277778
        k(   33) = (   0.5833333  -0.0833333   0.5833333), wk =   0.0277778
        k(   34) = (   0.5000000   0.0000000   0.5000000), wk =   0.0138889
        k(   35) = (   0.0000000   0.6666667   0.0000000), wk =   0.0069444
        k(   36) = (  -0.0833333   0.7500000  -0.0833333), wk =   0.0277778
        k(   37) = (   0.8333333  -0.1666667   0.8333333), wk =   0.0277778
        k(   38) = (   0.7500000  -0.0833333   0.7500000), wk =   0.0277778
        k(   39) = (   0.6666667  -0.0000000   0.6666667), wk =   0.0138889
        k(   40) = (   0.0000000   0.8333333   0.0000000), wk =   0.0069444
        k(   41) = (   0.9166667  -0.0833333   0.9166667), wk =   0.0277778
        k(   42) = (   0.8333333   0.0000000   0.8333333), wk =   0.0138889
        k(   43) = (   0.0000000  -1.0000000   0.0000000), wk =   0.0034722
        k(   44) = (  -0.1666667   0.3333333   0.0000000), wk =   0.0277778
        k(   45) = (  -0.2500000   0.4166667  -0.0833333), wk =   0.0555556
        k(   46) = (  -0.3333333   0.5000000  -0.1666667), wk =   0.0555556
        k(   47) = (   0.5833333  -0.4166667   0.7500000), wk =   0.0555556
        k(   48) = (   0.5000000  -0.3333333   0.6666667), wk =   0.0277778
        k(   49) = (  -0.1666667   0.5000000   0.0000000), wk =   0.0277778
        k(   50) = (  -0.2500000   0.5833333  -0.0833333), wk =   0.0555556
        k(   51) = (   0.6666667  -0.3333333   0.8333333), wk =   0.0555556
        k(   52) = (   0.5833333  -0.2500000   0.7500000), wk =   0.0555556
        k(   53) = (   0.5000000  -0.1666667   0.6666667), wk =   0.0555556
        k(   54) = (   0.4166667  -0.0833333   0.5833333), wk =   0.0555556
        k(   55) = (   0.3333333   0.0000000   0.5000000), wk =   0.0277778
        k(   56) = (  -0.1666667   0.6666667  -0.0000000), wk =   0.0277778
        k(   57) = (   0.7500000  -0.2500000   0.9166667), wk =   0.0555556
        k(   58) = (   0.6666667  -0.1666667   0.8333333), wk =   0.0555556
        k(   59) = (   0.5833333  -0.0833333   0.7500000), wk =   0.0555556
        k(   60) = (   0.5000000   0.0000000   0.6666667), wk =   0.0277778
        k(   61) = (   0.8333333  -0.1666667   1.0000000), wk =   0.0277778
        k(   62) = (   0.7500000  -0.0833333   0.9166667), wk =   0.0555556
        k(   63) = (   0.6666667   0.0000000   0.8333333), wk =   0.0277778
        k(   64) = (  -0.1666667  -1.0000000  -0.0000000), wk =   0.0138889
        k(   65) = (   0.6666667  -0.3333333   1.0000000), wk =   0.0277778
        k(   66) = (   0.5833333  -0.2500000   0.9166667), wk =   0.0555556
        k(   67) = (   0.5000000  -0.1666667   0.8333333), wk =   0.0277778
        k(   68) = (   0.6666667  -0.1666667   1.0000000), wk =   0.0277778
        k(   69) = (   0.5833333  -0.0833333   0.9166667), wk =   0.0555556
        k(   70) = (   0.5000000   0.0000000   0.8333333), wk =   0.0277778
        k(   71) = (  -0.3333333  -1.0000000   0.0000000), wk =   0.0138889
        k(   72) = (  -0.5000000  -1.0000000   0.0000000), wk =   0.0069444

     Dense  grid:    19579 G-vectors     FFT dimensions: (  40,  40,  40)

     Estimated max dynamical RAM per process >       4.49 MB

     Estimated total dynamical RAM >     103.05 MB

     Initial potential from superposition of free atoms

     starting charge      15.7951, renormalised to      16.0000
     Starting wfcs are random

     total cpu time spent up to now is        0.4 secs

     Self-consistent Calculation

     iteration #  1     ecut=    84.00 Ry     beta= 0.70
     Davidson diagonalization with overlap
     ethr =  1.00E-02,  avg # of iterations =  9.0

     total cpu time spent up to now is        1.4 secs

     total energy              =    -105.81552150 Ry
     estimated scf accuracy    <       0.35173389 Ry

     iteration #  2     ecut=    84.00 Ry     beta= 0.70
     Davidson diagonalization with overlap
     ethr =  2.20E-03,  avg # of iterations =  2.2

     total cpu time spent up to now is        1.8 secs

     total energy              =    -105.80751200 Ry
     estimated scf accuracy    <       0.88994877 Ry

     iteration #  3     ecut=    84.00 Ry     beta= 0.70
     Davidson diagonalization with overlap
     ethr =  2.20E-03,  avg # of iterations =  2.0

     total cpu time spent up to now is        2.2 secs

     total energy              =    -105.98502671 Ry
     estimated scf accuracy    <       0.00920208 Ry

     iteration #  4     ecut=    84.00 Ry     beta= 0.70
     Davidson diagonalization with overlap
     ethr =  5.75E-05,  avg # of iterations =  1.9

     total cpu time spent up to now is        2.5 secs

     total energy              =    -105.98681715 Ry
     estimated scf accuracy    <       0.00031799 Ry

     iteration #  5     ecut=    84.00 Ry     beta= 0.70
     Davidson diagonalization with overlap
     ethr =  1.99E-06,  avg # of iterations =  3.4

     total cpu time spent up to now is        3.0 secs

     total energy              =    -105.98686679 Ry
     estimated scf accuracy    <       0.00000311 Ry

     iteration #  6     ecut=    84.00 Ry     beta= 0.70
     Davidson diagonalization with overlap
     ethr =  1.94E-08,  avg # of iterations =  2.2

     total cpu time spent up to now is        3.4 secs

     total energy              =    -105.98686778 Ry
     estimated scf accuracy    <       0.00000014 Ry

     iteration #  7     ecut=    84.00 Ry     beta= 0.70
     Davidson diagonalization with overlap
     ethr =  8.97E-10,  avg # of iterations =  2.0

     total cpu time spent up to now is        3.8 secs

     total energy              =    -105.98686780 Ry
     estimated scf accuracy    <       0.00000001 Ry

     iteration #  8     ecut=    84.00 Ry     beta= 0.70
     Davidson diagonalization with overlap
     ethr =  8.42E-11,  avg # of iterations =  2.0

     total cpu time spent up to now is        4.2 secs

     total energy              =    -105.98686781 Ry
     estimated scf accuracy    <          1.9E-10 Ry

     iteration #  9     ecut=    84.00 Ry     beta= 0.70
     Davidson diagonalization with overlap
     ethr =  1.22E-12,  avg # of iterations =  2.1

     total cpu time spent up to now is        4.5 secs

     End of self-consistent calculation

          k = 0.0000 0.0000 0.0000 (  2421 PWs)   bands (ev):

   -29.8978 -10.6672 -10.6672 -10.6672  -7.7100   7.7799   7.7799   7.7799
    12.5113  13.9962  13.9962  13.9962  15.4923  15.4923  22.8661  30.1845

          k =-0.0833 0.0833-0.0833 (  2439 PWs)   bands (ev):

   -29.8911 -10.7643 -10.6709 -10.6709  -7.6083   7.5234   7.6822   7.6822
    12.8356  13.9707  14.1147  14.1147  15.6597  15.6597  23.1481  29.6738

          k =-0.1667 0.1667-0.1667 (  2457 PWs)   bands (ev):

   -29.8727 -11.0031 -10.6807 -10.6807  -7.3564   6.9270   7.4322   7.4322
    13.6104  13.9786  14.4505  14.4505  16.1123  16.1123  23.6991  28.7930

          k =-0.2500 0.2500-0.2500 (  2442 PWs)   bands (ev):

   -29.8474 -11.2856 -10.6940 -10.6940  -7.0548   6.2544   7.1230   7.1230
    14.0289  14.6426  14.9449  14.9449  16.7335  16.7335  23.7092  27.6935

          k =-0.3333 0.3333-0.3333 (  2442 PWs)   bands (ev):

   -29.8219 -11.5346 -10.7073 -10.7073  -6.7850   5.6748   6.8427   6.8427
    14.3068  15.4918  15.4918  15.5287  17.3901  17.3901  22.9843  26.2743

          k =-0.4167 0.4167-0.4167 (  2443 PWs)   bands (ev):

   -29.8031 -11.7015 -10.7169 -10.7169  -6.6017   5.2889   6.6523   6.6523
    14.6443  15.9330  15.9330  16.1122  17.9335  17.9335  22.2636  25.1692

          k = 0.5000-0.5000 0.5000 (  2452 PWs)   bands (ev):

   -29.7962 -11.7600 -10.7204 -10.7204  -6.5369   5.1538   6.5853   6.5853
    14.8129  16.1041  16.1041  16.2927  18.1593  18.1593  21.9925  24.7363

          k = 0.0000 0.1667 0.0000 (  2449 PWs)   bands (ev):

   -29.8889 -10.7717 -10.6823 -10.6823  -7.5819   7.3443   7.7212   7.7212
    12.8999  13.7472  14.2580  14.2580  15.5610  15.8696  23.2495  29.4848

          k =-0.0833 0.2500-0.0833 (  2454 PWs)   bands (ev):

   -29.8744 -10.9447 -10.6990 -10.6889  -7.3998   6.8908   7.5349   7.5829
    13.4473  13.6026  14.5544  14.6053  15.7892  16.3470  23.7461  28.5723

          k =-0.1667 0.3333-0.1667 (  2449 PWs)   bands (ev):

   -29.8514 -11.1972 -10.7163 -10.6981  -7.1408   6.3571   7.1998   7.3244
    13.6199  14.3324  14.9435  15.0946  16.2835  16.9562  23.9663  27.5472

          k =-0.2500 0.4167-0.2500 (  2443 PWs)   bands (ev):

   -29.8261 -11.4434 -10.7296 -10.7142  -6.8854   5.8504   6.8797   7.0337
    13.8738  15.1463  15.5011  15.6201  16.9311  17.5644  23.3290  26.3327

          k =-0.3333 0.5000-0.3333 (  2440 PWs)   bands (ev):

   -29.8051 -11.6278 -10.7354 -10.7332  -6.6908   5.4638   6.6651   6.7876
    14.2984  15.4720  16.0280  16.2853  17.5907  18.0642  22.4531  25.3116

          k = 0.5833-0.4167 0.5833 (  2439 PWs)   bands (ev):

   -29.7942 -11.7182 -10.7496 -10.7322  -6.5930   5.2683   6.5900   6.6370
    14.7129  15.4948  16.1678  16.7553  18.0528  18.3290  21.9563  24.6300

          k = 0.5000-0.3333 0.5000 (  2437 PWs)   bands (ev):

   -29.7965 -11.7006 -10.7589 -10.7208  -6.6085   5.3010   6.6088   6.6584
    14.6923  15.5241  15.9757  16.6788  18.1166  18.1708  22.0585  24.5374

          k = 0.4167-0.2500 0.4167 (  2441 PWs)   bands (ev):

   -29.8113 -11.5781 -10.7581 -10.7043  -6.7354   5.5604   6.7078   6.8545
    14.3127  15.4580  15.5263  16.1567  17.5971  17.8007  22.7154  25.1302

          k = 0.3333-0.1667 0.3333 (  2455 PWs)   bands (ev):

   -29.8345 -11.3713 -10.7465 -10.6871  -6.9524   6.0074   6.9176   7.1401
    13.9740  14.9130  14.9859  15.5442  16.8807  17.2579  23.5875  26.0806

          k = 0.2500-0.0833 0.2500 (  2448 PWs)   bands (ev):

   -29.8598 -11.1203 -10.7259 -10.6736  -7.2175   6.5686   7.1981   7.4437
    13.8078  14.0611  14.5106  15.0015  16.2371  16.6301  23.9351  27.2482

          k = 0.1667-0.0000 0.1667 (  2447 PWs)   bands (ev):

   -29.8805 -10.8909 -10.6981 -10.6677  -7.4647   7.1344   7.4822   7.6544
    13.2708  13.8524  14.2026  14.4997  15.7940  16.0522  23.5330  28.6486

          k = 0.0000 0.3333 0.0000 (  2445 PWs)   bands (ev):

   -29.8645 -10.9887 -10.7236 -10.7236  -7.3334   6.5798   7.5938   7.5938
    13.1545  13.6322  14.9439  14.9439  15.7541  16.8144  24.1622  28.1559

          k =-0.0833 0.4167-0.0833 (  2451 PWs)   bands (ev):

   -29.8456 -11.1453 -10.7478 -10.7412  -7.1885   6.2486   7.4026   7.4599
    12.9629  14.1942  15.3598  15.4046  16.0245  17.3591  24.5017  27.0537

          k =-0.1667 0.5000-0.1667 (  2442 PWs)   bands (ev):

   -29.8227 -11.3375 -10.7651 -10.7615  -7.0153   5.9673   7.0628   7.2321
    13.0763  14.9622  15.7787  15.8835  16.5427  17.8805  23.8921  26.0411

          k =-0.2500 0.5833-0.2500 (  2439 PWs)   bands (ev):

   -29.8018 -11.5016 -10.7925 -10.7710  -6.8583   5.7444   6.7580   6.9841
    13.4682  15.4435  16.2396  16.3198  17.1895  18.3717  22.7627  25.1859

          k = 0.6667-0.3333 0.6667 (  2430 PWs)   bands (ev):

   -29.7888 -11.6013 -10.8267 -10.7641  -6.7496   5.5817   6.6145   6.7803
    14.0548  15.3552  16.3491  16.8031  17.7690  18.8599  21.9422  24.3261

          k = 0.5833-0.2500 0.5833 (  2435 PWs)   bands (ev):

   -29.7870 -11.6201 -10.8525 -10.7460  -6.7100   5.5148   6.6533   6.6640
    14.6461  14.9802  16.1546  16.7923  18.0820  19.0434  21.7838  23.8185

          k = 0.5000-0.1667 0.5000 (  2427 PWs)   bands (ev):

   -29.7971 -11.5584 -10.8587 -10.7216  -6.7496   5.5865   6.6567   6.8309
    14.3988  15.1629  15.7247  16.3935  18.0516  18.4947  22.3911  23.9180

          k = 0.4167-0.0833 0.4167 (  2447 PWs)   bands (ev):

   -29.8162 -11.4328 -10.8380 -10.6973  -6.8648   5.8068   6.7594   7.0827
    14.0126  15.0725  15.2177  15.9792  17.5726  17.7283  23.3901  24.4550

          k = 0.3333 0.0000 0.3333 (  2445 PWs)   bands (ev):

   -29.8392 -11.2739 -10.7896 -10.6797  -7.0345   6.1519   6.9533   7.3212
    13.8151  14.5664  14.7813  15.5757  16.7414  17.2135  24.0126  25.5710

          k = 0.0000 0.5000 0.0000 (  2429 PWs)   bands (ev):

   -29.8315 -11.1731 -10.7798 -10.7798  -7.1895   6.1060   7.4801   7.4801
    12.4845  14.3982  15.8184  15.8184  16.0317  17.7770  25.1366  26.6115

          k =-0.0833 0.5833-0.0833 (  2444 PWs)   bands (ev):

   -29.8127 -11.2664 -10.8096 -10.8040  -7.1461   6.0216   7.3120   7.3773
    12.3536  14.9206  16.2031  16.2186  16.3405  18.1566  24.6375  25.4092

          k =-0.1667 0.6667-0.1667 (  2434 PWs)   bands (ev):

   -29.7943 -11.3672 -10.8569 -10.8140  -7.0682   6.0033   6.9867   7.1907
    12.5902  15.5011  16.4284  16.5136  16.8517  18.6197  23.1698  24.8021

          k = 0.7500-0.2500 0.7500 (  2424 PWs)   bands (ev):

   -29.7812 -11.4385 -10.9206 -10.8072  -6.9735   5.9934   6.6986   6.9809
    13.1243  15.6192  16.5891  16.6150  17.3963  19.3349  22.1183  23.9383

          k = 0.6667-0.1667 0.6667 (  2432 PWs)   bands (ev):

   -29.7771 -11.4714 -10.9739 -10.7854  -6.8853   5.8925   6.6332   6.8034
    13.8430  15.2201  16.4413  16.6152  17.8423  20.1080  21.5795  23.0989

          k = 0.5833-0.0833 0.5833 (  2436 PWs)   bands (ev):

   -29.7830 -11.4767 -10.9825 -10.7542  -6.8277   5.7633   6.6967   6.7557
    14.5671  14.6995  16.0552  16.3923  18.0709  19.8213  22.0068  22.8276

          k = 0.5000 0.0000 0.5000 (  2437 PWs)   bands (ev):

   -29.7974 -11.4654 -10.9304 -10.7220  -6.8191   5.7225   6.6810   6.9344
    14.2628  15.0347  15.6025  16.1441  18.0265  18.6913  23.0156  23.1479

          k = 0.0000 0.6667 0.0000 (  2453 PWs)   bands (ev):

   -29.7986 -11.2612 -10.8360 -10.8360  -7.2413   6.0860   7.4197   7.4197
    11.9189  15.1376  16.3278  16.6088  16.6088  18.3428  24.1101  25.8512

          k =-0.0833 0.7500-0.0833 (  2432 PWs)   bands (ev):

   -29.7844 -11.2869 -10.8794 -10.8527  -7.2675   6.1870   7.2707   7.3468
    11.8965  15.5433  16.5668  16.7660  16.8886  18.6709  22.9497  25.0923

          k = 0.8333-0.1667 0.8333 (  2436 PWs)   bands (ev):

   -29.7737 -11.2956 -10.9741 -10.8499  -7.2128   6.3085   6.9322   7.1880
    12.2705  15.9061  16.5205  16.8737  17.0693  19.4202  22.0585  24.0841

          k = 0.7500-0.0833 0.7500 (  2425 PWs)   bands (ev):

   -29.7695 -11.2860 -11.0884 -10.8282  -7.0955   6.3502   6.6149   6.9947
    12.9374  15.7306  16.3774  16.7733  17.4710  20.4770  21.6339  22.8506

          k = 0.6667-0.0000 0.6667 (  2440 PWs)   bands (ev):

   -29.7729 -11.3566 -11.0882 -10.7933  -6.9536   6.0582   6.6515   6.8177
    13.7639  15.1736  16.4000  16.4441  17.8550  21.1944  21.5511  21.9677

          k = 0.0000 0.8333 0.0000 (  2446 PWs)   bands (ev):

   -29.7748 -11.2703 -10.8771 -10.8771  -7.3942   6.3268   7.4033   7.4033
    11.5517  15.6580  16.5580  17.1102  17.1102  18.7112  22.1562  25.8197

          k = 0.9167-0.0833 0.9167 (  2439 PWs)   bands (ev):

   -29.7681 -11.2564 -10.9314 -10.8809  -7.4013   6.4374   7.2549   7.3443
    11.6555  15.8635  16.7371  16.9526  17.1823  19.2220  21.5139  24.9846

          k = 0.8333 0.0000 0.8333 (  2432 PWs)   bands (ev):

   -29.7662 -11.2136 -11.0628 -10.8631  -7.2873   6.5097   6.8838   7.1924
    12.1602  16.1109  16.3788  17.0541  17.0689  20.0316  21.3318  23.8451

          k = 0.0000-1.0000 0.0000 (  2450 PWs)   bands (ev):

   -29.7661 -11.2614 -10.8921 -10.8921  -7.4739   6.4707   7.4026   7.4026
    11.4252  15.8080  16.6455  17.2713  17.2713  19.0369  21.2370  25.7535

          k =-0.1667 0.3333 0.0000 (  2450 PWs)   bands (ev):

   -29.8577 -11.0950 -10.7413 -10.6924  -7.2340   6.4814   7.3157   7.5081
    13.4112  13.9711  14.8199  15.1267  16.0413  16.8902  24.1373  27.1073

          k =-0.2500 0.4167-0.0833 (  2448 PWs)   bands (ev):

   -29.8348 -11.2942 -10.7789 -10.7023  -7.0295   6.0796   7.0219   7.2866
    13.4712  14.6868  15.1969  15.6485  16.5803  17.4773  23.9994  25.7435

          k =-0.3333 0.5000-0.1667 (  2439 PWs)   bands (ev):

   -29.8117 -11.4810 -10.8019 -10.7208  -6.8442   5.7443   6.7716   7.0110
    13.7759  15.2605  15.6828  16.1069  17.2905  18.0258  23.0711  24.8911

          k = 0.5833-0.4167 0.7500 (  2436 PWs)   bands (ev):

   -29.7947 -11.6102 -10.8112 -10.7404  -6.7181   5.5181   6.6343   6.7781
    14.2663  15.2921  16.1037  16.6169  17.8690  18.5344  22.1656  24.3292

          k = 0.5000-0.3333 0.6667 (  2438 PWs)   bands (ev):

   -29.7885 -11.6561 -10.8126 -10.7494  -6.6738   5.4376   6.6200   6.6613
    14.6916  15.0245  16.2549  16.8798  18.0565  18.8059  21.7984  24.1367

          k =-0.1667 0.5000 0.0000 (  2442 PWs)   bands (ev):

   -29.8268 -11.2530 -10.8001 -10.7498  -7.0999   6.0474   7.2231   7.3732
    12.8010  14.6743  15.7266  15.8858  16.3320  17.8392  24.5791  25.4632

          k =-0.2500 0.5833-0.0833 (  2437 PWs)   bands (ev):

   -29.8062 -11.3750 -10.8436 -10.7684  -6.9953   5.9186   6.9520   7.1756
    12.9674  15.2270  16.0968  16.1929  16.9235  18.3329  23.6108  24.5732

          k = 0.6667-0.3333 0.8333 (  2439 PWs)   bands (ev):

   -29.7893 -11.4731 -10.8765 -10.7895  -6.8999   5.8414   6.7188   6.9532
    13.4148  15.4027  16.4252  16.4449  17.5076  18.9561  22.4261  24.0797

          k = 0.5833-0.2500 0.7500 (  2427 PWs)   bands (ev):

   -29.7808 -11.5243 -10.9061 -10.7919  -6.8339   5.7749   6.6371   6.7789
    14.0509  15.0254  16.5102  16.6884  17.8641  19.6174  21.7041  23.6105

          k = 0.5000-0.1667 0.6667 (  2430 PWs)   bands (ev):

   -29.7829 -11.5217 -10.9225 -10.7725  -6.8119   5.7288   6.6713   6.7480
    14.4408  14.7246  16.3280  16.5599  17.9932  19.5864  21.8279  23.3738

          k = 0.4167-0.0833 0.5833 (  2434 PWs)   bands (ev):

   -29.7952 -11.4721 -10.9077 -10.7431  -6.8414   5.7512   6.7019   6.9331
    13.9192  15.1413  15.9500  16.2284  17.8302  18.7864  22.7320  23.5633

          k = 0.3333 0.0000 0.5000 (  2436 PWs)   bands (ev):

   -29.8142 -11.3909 -10.8553 -10.7164  -6.9195   5.8676   6.8280   7.1452
    13.5744  15.0423  15.5328  16.0029  17.2477  18.0345  23.7542  24.1813

          k =-0.1667 0.6667-0.0000 (  2429 PWs)   bands (ev):

   -29.7962 -11.3073 -10.8588 -10.8243  -7.1522   6.0550   7.1829   7.2936
    12.2763  15.3220  16.4037  16.5605  16.6876  18.5162  23.7250  24.6610

          k = 0.7500-0.2500 0.9167 (  2430 PWs)   bands (ev):

   -29.7817 -11.3408 -10.9177 -10.8496  -7.1129   6.1369   6.9194   7.1282
    12.5709  15.6364  16.3703  16.8033  17.1336  19.1443  22.6213  24.0245

          k = 0.6667-0.1667 0.8333 (  2432 PWs)   bands (ev):

   -29.7732 -11.3551 -10.9984 -10.8468  -7.0391   6.1896   6.6749   6.9488
    13.1543  15.4158  16.3990  16.8515  17.5449  20.0737  21.8789  23.2214

          k = 0.5833-0.0833 0.7500 (  2432 PWs)   bands (ev):

   -29.7729 -11.3745 -11.0447 -10.8194  -6.9531   6.0612   6.6658   6.7988
    13.9082  14.8448  16.4142  16.6650  17.8429  20.8706  21.5175  22.4851

          k = 0.5000 0.0000 0.6667 (  2442 PWs)   bands (ev):

   -29.7810 -11.4249 -11.0049 -10.7801  -6.8806   5.8701   6.7096   6.7991
    14.2980  14.6535  16.3029  16.3195  17.9754  19.9666  22.4189  22.4293

          k = 0.8333-0.1667 1.0000 (  2433 PWs)   bands (ev):

   -29.7739 -11.2738 -10.9017 -10.9016  -7.3005   6.3259   7.1694   7.2635
    11.9341  15.7882  16.6134  16.8531  17.0979  19.1358  22.1284  24.6324

          k = 0.7500-0.0833 0.9167 (  2432 PWs)   bands (ev):

   -29.7677 -11.2343 -11.0213 -10.8965  -7.2398   6.4581   6.8666   7.1188
    12.3592  15.9272  16.2082  17.1337  17.2010  19.9944  21.6090  23.7562

          k = 0.6667 0.0000 0.8333 (  2431 PWs)   bands (ev):

   -29.7673 -11.2003 -11.1487 -10.8657  -7.1098   6.4561   6.5816   6.9532
    13.0622  15.4167  16.2643  16.9804  17.5459  20.9261  21.5293  22.5991

          k =-0.1667-1.0000-0.0000 (  2428 PWs)   bands (ev):

   -29.7658 -11.2372 -10.9433 -10.9174  -7.3773   6.4903   7.1604   7.2576
    11.8162  15.9456  16.6329  16.8865  17.2727  19.6179  21.2840  24.6322

          k = 0.6667-0.3333 1.0000 (  2433 PWs)   bands (ev):

   -29.7896 -11.3922 -10.9208 -10.7990  -6.9744   5.9492   6.8120   7.0330
    13.1801  15.3204  16.2171  16.4373  17.4588  19.0145  23.0441  23.4639

          k = 0.5833-0.2500 0.9167 (  2435 PWs)   bands (ev):

   -29.7774 -11.3923 -10.9738 -10.8387  -6.9586   6.0225   6.7122   6.8629
    13.6583  14.9633  16.3274  16.7266  17.7550  19.9560  22.1427  23.0357

          k = 0.5000-0.1667 0.8333 (  2430 PWs)   bands (ev):

   -29.7729 -11.3894 -10.9918 -10.8577  -6.9527   6.0643   6.6862   6.7739
    14.3059  14.3095  16.4283  16.8394  17.8335  20.6504  21.5218  22.9115

          k = 0.6667-0.1667 1.0000 (  2436 PWs)   bands (ev):

   -29.7718 -11.2871 -10.9686 -10.9243  -7.1161   6.2950   6.7961   6.9816
    12.9013  15.4078  16.1978  17.0633  17.4519  19.9970  22.1253  23.2896

          k = 0.5833-0.0833 0.9167 (  2435 PWs)   bands (ev):

   -29.7673 -11.2291 -11.0577 -10.9434  -7.0813   6.3908   6.6690   6.8449
    13.4988  14.7965  16.2106  17.1490  17.6752  21.0205  21.7668  22.5448

          k = 0.5000 0.0000 0.8333 (  2435 PWs)   bands (ev):

   -29.7693 -11.2788 -11.0591 -10.9017  -7.0235   6.2438   6.7349   6.7554
    14.1504  14.2463  16.2592  17.0156  17.7823  21.0980  22.0367  22.0691

          k =-0.3333-1.0000 0.0000 (  2424 PWs)   bands (ev):

   -29.7654 -11.1707 -11.0393 -10.9861  -7.1884   6.5627   6.7116   6.9684
    12.8032  15.4309  16.0959  17.2755  17.4444  20.6822  21.4924  23.2460

          k =-0.5000-1.0000 0.0000 (  2468 PWs)   bands (ev):

   -29.7651 -11.0844 -11.0789 -11.0789  -7.0955   6.5012   6.7175   6.7175
    14.0865  14.0865  16.1437  17.2769  17.7210  21.6938  21.9098  21.9098

     the Fermi energy is     9.5507 ev

!    total energy              =    -105.98686781 Ry
     estimated scf accuracy    <          2.8E-11 Ry
     smearing contrib. (-TS)   =      -0.00000000 Ry
     internal energy E=F+TS    =    -105.98686781 Ry

     The total energy is F=E-TS. E is the sum of the following terms:
     one-electron contribution =     -26.32150940 Ry
     hartree contribution      =      20.83943481 Ry
     xc contribution           =     -17.46880163 Ry
     ewald contribution        =     -83.03599159 Ry

     convergence has been achieved in   9 iterations

     Writing all to output data dir out/mp-2605.save/
 
     init_run     :      0.21s CPU      0.33s WALL (       1 calls)
     electrons    :      3.67s CPU      4.18s WALL (       1 calls)

     Called by init_run:
     wfcinit      :      0.19s CPU      0.28s WALL (       1 calls)
     potinit      :      0.01s CPU      0.01s WALL (       1 calls)
     hinit0       :      0.00s CPU      0.04s WALL (       1 calls)

     Called by electrons:
     c_bands      :      3.16s CPU      3.52s WALL (       9 calls)
     sum_band     :      0.47s CPU      0.55s WALL (       9 calls)
     v_of_rho     :      0.03s CPU      0.03s WALL (      10 calls)
     mix_rho      :      0.01s CPU      0.01s WALL (       9 calls)

     Called by c_bands:
     init_us_2    :      0.04s CPU      0.05s WALL (     684 calls)
     init_us_2:cp :      0.04s CPU      0.04s WALL (     684 calls)
     cegterg      :      2.52s CPU      2.67s WALL (     324 calls)

     Called by *egterg:
     cdiaghg      :      0.36s CPU      0.38s WALL (    1324 calls)
     h_psi        :      2.11s CPU      2.26s WALL (    1360 calls)
     g_psi        :      0.01s CPU      0.01s WALL (    1000 calls)

     Called by h_psi:
     h_psi:calbec :      0.06s CPU      0.07s WALL (    1360 calls)
     vloc_psi     :      2.00s CPU      2.14s WALL (    1360 calls)
     add_vuspsi   :      0.04s CPU      0.04s WALL (    1360 calls)

     General routines
     calbec       :      0.06s CPU      0.06s WALL (    1360 calls)
     fft          :      0.01s CPU      0.04s WALL (      99 calls)
     ffts         :      0.00s CPU      0.00s WALL (       9 calls)
     fftw         :      2.12s CPU      2.26s WALL (   35446 calls)
     davcio       :      0.05s CPU      0.26s WALL (    1130 calls)
 
     Parallel routines
 
     PWSCF        :      3.96s CPU      5.62s WALL

 
   This run was terminated on:  21:40:20  17Nov2023            

=------------------------------------------------------------------------------=
   JOB DONE.
=------------------------------------------------------------------------------=
