
     Program PWSCF v.7.1 starts on 20Dec2023 at 23:42:37 

     This program is part of the open-source Quantum ESPRESSO suite
     for quantum simulation of materials; please cite
         "P. Giannozzi et al., J. Phys.:Condens. Matter 21 395502 (2009);
         "P. Giannozzi et al., J. Phys.:Condens. Matter 29 465901 (2017);
         "P. Giannozzi et al., J. Chem. Phys. 152 154105 (2020);
          URL http://www.quantum-espresso.org", 
     in publications or presentations arising from this work. More details at
     http://www.quantum-espresso.org/quote

     Parallel version (MPI), running on     8 processors

     MPI processes distributed on     1 nodes
     123179 MiB available memory on the printing compute node when the environment starts
 
     Reading input from pw_mp-1519_nscf_k0_E65.in
Warning: card &IONS ignored
Warning: card / ignored
Warning: card &CELL ignored
Warning: card / ignored

     Current dimensions of program PWSCF are:
     Max number of different atomic species (ntypx) = 10
     Max number of k-points (npk) =  40000
     Max angular momentum in pseudopotentials (lmaxx) =  4

     Atomic positions and unit cell read from directory:
     out/mp-1519.save/
     Atomic positions from file used, from input discarded
 
 
     R & G space division:  proc/nbgrp/npool/nimage =       8
     Subspace diagonalization in iterative solution of the eigenvalue problem:
     one sub-group per band group will be used
     scalapack distributed-memory algorithm (size of sub-group:  2*  2 procs)

 
     Parallelization info
     --------------------
     sticks:   dense  smooth     PW     G-vecs:    dense   smooth      PW
     Min         160     160     39                 3863     3863     479
     Max         161     161     40                 3868     3868     484
     Sum        1285    1285    313                30923    30923    3839
 
     Using Slab Decomposition
 


     bravais-lattice index     =            2
     lattice parameter (alat)  =      12.0786  a.u.
     unit-cell volume          =     440.5421 (a.u.)^3
     number of atoms/cell      =            2
     number of atomic types    =            2
     number of electrons       =        26.00
     number of Kohn-Sham states=         1200
     kinetic-energy cutoff     =      65.0000  Ry
     charge density cutoff     =     260.0000  Ry
     Exchange-correlation= PBE
                           (   1   4   3   4   0   0   0)

     celldm(1)=  12.078578  celldm(2)=   0.000000  celldm(3)=   0.000000
     celldm(4)=   0.000000  celldm(5)=   0.000000  celldm(6)=   0.000000

     crystal axes: (cart. coord. in units of alat)
               a(1) = (  -0.500000   0.000000   0.500000 )  
               a(2) = (   0.000000   0.500000   0.500000 )  
               a(3) = (  -0.500000   0.500000   0.000000 )  

     reciprocal axes: (cart. coord. in units 2 pi/alat)
               b(1) = ( -1.000000 -1.000000  1.000000 )  
               b(2) = (  1.000000  1.000000  1.000000 )  
               b(3) = ( -1.000000  1.000000 -1.000000 )  


     PseudoPot. # 1 for Ca read from file:
     /usr/scratch4/magr4985/MG/HTDF/pseudo/SG15/Ca.upf
     MD5 check sum: b43c970dc090f2312d256360aabdb6f1
     Pseudo is Norm-conserving, Zval = 10.0
     Generated using ONCVPSP code by D. R. Hamann
     Using radial grid of  602 points,  6 beta functions with: 
                l(1) =   0
                l(2) =   0
                l(3) =   1
                l(4) =   1
                l(5) =   2
                l(6) =   2

     PseudoPot. # 2 for Te read from file:
     /usr/scratch4/magr4985/MG/HTDF/pseudo/SG15/Te.upf
     MD5 check sum: dd4de4dac1e38587f63aaf3700bb29d3
     Pseudo is Norm-conserving, Zval = 16.0
     Generated using ONCVPSP code by D. R. Hamann
     Using radial grid of  602 points,  6 beta functions with: 
                l(1) =   0
                l(2) =   0
                l(3) =   1
                l(4) =   1
                l(5) =   2
                l(6) =   2

     atomic species   valence    mass     pseudopotential
        Ca            10.00    40.07800     Ca( 1.00)
        Te            16.00   127.60000     Te( 1.00)

     48 Sym. Ops., with inversion, found



   Cartesian axes

     site n.     atom                  positions (alat units)
         1           Ca  tau(   1) = (   0.0000000   0.0000000   0.0000000  )
         2           Te  tau(   2) = (  -0.5000000   0.5000000   0.5000000  )

     number of k points=     1  Gaussian smearing, width (Ry)=  0.0005
                       cart. coord. in units 2pi/alat
        k(    1) = (   0.0000000   0.0000000   0.0000000), wk =   2.0000000

     Dense  grid:    30923 G-vectors     FFT dimensions: (  45,  45,  45)

     Estimated max dynamical RAM per process >     115.48 MB

     Estimated total dynamical RAM >     923.88 MB

     The potential is recalculated from file :
     out/mp-1519.save/charge-density

     Starting wfcs are random

     Band Structure Calculation
     Davidson diagonalization with overlap

     ethr =  5.00E-06,  avg # of iterations = 13.0

     total cpu time spent up to now is      130.7 secs

     End of band structure calculation

          k = 0.0000 0.0000 0.0000 (  3839 PWs)   bands (ev):

   -33.1461 -27.9278 -27.9278 -27.9136 -27.9136 -27.9136 -14.1332 -14.1332
   -14.1332  -2.9088   7.5062   7.5062   7.5062  10.4760  10.4760  10.4760
    10.5450  10.8984  10.8984  15.5055  17.6737  17.6737  17.6737  18.6209
    18.6209  18.6209  20.3542  20.3542  24.2344  28.5576  28.5576  28.5576
    30.3895  30.3895  30.3895  30.9920  30.9920  32.1286  32.1286  32.1286
    36.8619  36.8619  36.8619  38.2331  38.5976  38.6567  38.6567  38.6567
    40.7717  40.7717  40.7717  42.3248  42.5696  42.5696  42.5696  43.3746
    43.3746  43.3746  43.7202  43.7202  43.7202  43.7959  43.7959  44.3900
    44.3900  47.1616  48.3183  48.3183  48.3183  49.5480  49.5480  49.5480
    56.8046  59.8236  59.8236  59.8236  60.8676  60.8676  60.8676  61.8517
    61.8517  64.5214  66.6776  66.6776  66.6776  66.9454  66.9454  67.1847
    68.3283  68.3283  68.3283  68.8341  68.8341  68.8341  70.5552  70.5552
    70.5552  71.0998  71.0998  71.0998  71.7350  71.7350  71.7350  72.1813
    72.1813  72.2092  72.2092  72.2092  72.2377  72.2377  72.2377  73.1589
    73.1589  74.0703  74.0703  74.0703  74.9242  77.7319  77.7319  77.7319
    78.2261  79.2040  79.2040  79.9589  80.1727  80.1727  80.1727  85.5690
    86.6192  86.6425  86.6425  86.6425  87.2708  87.2708  87.2708  87.3333
    87.3333  87.4131  87.4131  87.4131  87.5619  87.5619  87.5619  89.2880
    89.2880  89.2880  91.2656  91.2656  93.0253  93.0253  93.0253  94.0592
    95.1669  95.1669  95.1669  95.9354  95.9354  95.9354  95.9904  95.9904
    95.9904  96.1635  97.5692  97.5692  97.5692  98.0927  98.0927  98.0927
   102.4033 102.4033 102.4767 102.4767 102.4767 102.6217 102.8016 102.8016
   104.0295 104.0295 104.0295 108.2037 108.6128 108.6128 108.6128 110.5782
   110.5782 110.5782 112.8443 112.8443 115.0300 115.0300 115.0300 116.7615
   116.7615 116.7615 117.7706 117.7706 117.7706 118.3944 119.5470 119.7676
   119.7676 119.7676 122.0849 122.0849 122.0849 122.1334 122.1334 122.1334
   122.5538 122.5538 124.1892 124.7753 124.7753 124.7753 124.9062 124.9062
   124.9062 125.0886 125.0886 125.0886 125.9276 126.0826 127.4538 127.4538
   128.5661 128.5661 128.5661 129.1329 129.1329 129.1329 129.4671 130.1762
   130.1762 130.1762 130.2881 130.2881 130.2881 130.7331 130.7331 130.8733
   130.8733 130.8733 130.9940 130.9940 131.2719 131.2719 131.2719 131.4055
   131.4055 131.4055 131.6492 131.6492 131.6492 131.7186 131.7186 131.7186
   131.7761 131.7761 131.8926 135.0992 135.0992 135.5426 135.5426 135.5426
   137.2317 137.2317 137.5426 137.5426 137.5426 139.9163 139.9163 139.9163
   140.0223 140.0223 140.0223 140.3465 140.3465 140.3465 140.4627 140.4627
   140.4627 142.3575 146.6001 146.6001 146.7720 146.7720 146.7720 146.9262
   147.6519 147.6519 147.6519 148.3085 150.5472 150.5472 150.5472 151.4929
   155.2090 155.2090 155.4948 155.4948 155.4948 155.6809 155.6809 155.6809
   156.0472 156.0472 156.0472 156.3310 156.3310 156.3397 156.3397 156.3397
   158.0129 158.1835 158.1835 158.1835 158.6764 158.6764 158.8083 158.8083
   158.8645 158.8645 158.8645 159.5918 159.5918 159.5918 159.6336 159.6336
   159.6336 159.8042 159.8042 159.8042 160.9088 162.8974 162.8974 162.8974
   163.7054 163.7054 163.7054 165.3495 165.3495 165.3495 168.9921 168.9921
   170.3511 170.3511 170.3511 170.4046 171.6204 173.0141 173.1908 173.1908
   173.1908 175.0313 175.0313 175.0313 175.6281 175.6281 175.7626 175.7626
   175.7626 178.1910 180.4761 180.4761 180.4761 182.0433 182.0433 182.0433
   183.1356 183.1356 183.1356 183.8062 183.8062 183.8062 183.8790 183.8790
   183.8790 183.9577 183.9577 183.9577 185.8758 185.8758 186.3851 186.3851
   186.3851 186.5182 187.5004 187.5004 187.5004 187.8699 187.8699 187.8699
   187.8864 187.8864 187.8864 187.8867 187.8867 188.2062 188.2062 188.2062
   188.3187 188.3187 188.3187 188.4587 188.5762 190.6856 190.6856 190.7095
   190.7095 190.7095 190.7572 193.2003 193.2003 193.2003 195.2466 195.2466
   195.2466 195.9841 196.1068 196.1068 196.5336 196.5336 197.5863 197.5863
   197.5863 199.7916 199.7916 200.0224 200.0224 200.0224 200.3571 200.3571
   200.3571 200.7141 200.7141 200.7141 201.0004 201.3046 201.3046 201.3046
   203.0942 203.0942 203.0942 204.7479 204.7479 204.7479 204.9939 204.9939
   205.0293 205.0293 205.0293 205.1014 205.1014 205.1191 205.1191 205.1191
   205.2689 205.2689 205.2689 206.5544 206.5544 206.5544 206.5751 206.5751
   206.5751 206.5790 206.6028 206.6028 206.6028 206.7705 206.8602 207.2330
   207.2330 207.2330 207.3561 207.3561 207.3561 208.2014 208.2014 208.9564
   208.9564 208.9564 209.5143 209.8546 209.8546 209.8546 210.5969 210.5969
   210.7647 210.7647 210.7647 210.9109 211.4701 213.9347 213.9347 214.8395
   214.8395 214.8395 215.2306 215.2306 215.2306 215.3607 215.3607 215.3607
   216.1916 216.1916 216.2308 216.2308 216.2308 216.4479 216.7646 216.7646
   216.7646 216.8181 216.8181 218.2578 218.2578 218.2578 218.3742 218.3742
   218.3742 218.5886 218.5886 218.5886 218.6714 218.6714 218.6714 218.8885
   218.8885 218.8885 219.6137 219.6266 219.6266 219.6266 219.6267 219.6267
   223.9849 224.6767 224.6767 224.6767 235.0619 235.0619 235.0619 236.5941
   236.5941 237.6017 237.6017 237.6017 238.4173 238.4173 238.5612 240.6879
   240.6879 240.6879 241.0957 241.0957 241.0957 241.2311 241.4183 241.4183
   241.4183 241.4745 241.4745 241.4745 242.2794 242.2794 242.2794 242.4268
   242.4268 243.0692 243.0692 243.0692 243.2214 243.2214 243.2214 243.3808
   243.6246 243.6246 243.6246 243.6303 243.6303 243.6303 243.7081 243.7081
   243.7081 243.7496 246.5968 247.7477 247.7477 248.2606 248.2606 248.2606
   248.4161 248.4161 248.4579 248.4579 248.4579 248.6196 248.6196 248.6196
   248.7276 248.7276 248.7276 249.3649 249.3649 249.5370 249.5370 249.5370
   249.7541 251.6005 251.6005 251.6005 252.2699 252.2699 254.2746 254.2746
   254.2746 254.2935 254.2935 254.2935 254.9197 254.9197 254.9197 255.3432
   255.3432 257.3661 261.2197 261.2197 261.2197 261.4216 261.4216 261.4216
   261.4220 261.5225 261.5225 261.7901 261.7901 262.2697 262.2697 262.2697
   262.2827 262.2827 262.2827 262.3169 262.3169 262.3169 262.4348 262.4348
   262.4348 262.7427 262.7427 262.7427 263.0364 263.0364 263.0364 263.6703
   266.3034 267.1002 267.1002 268.5030 268.5030 268.5030 268.9086 269.7818
   269.7818 269.7818 269.9962 269.9962 269.9962 270.0303 270.0303 270.0303
   270.0730 270.1345 270.1345 270.1345 271.2178 272.9553 272.9553 272.9553
   273.5969 273.5969 273.6322 273.6322 273.6322 274.0948 274.0948 274.0948
   274.4572 274.4572 274.5932 274.8035 274.8035 274.8035 276.2720 276.2720
   276.2720 276.3433 276.3433 276.7671 276.7671 276.7952 276.7952 276.7952
   276.8139 276.8139 276.8139 276.8269 276.8269 276.8269 276.8486 276.8486
   276.8486 276.9179 277.5511 277.5511 277.5511 277.5824 277.5824 277.6578
   277.6578 277.6578 277.7724 277.7724 277.7724 277.8128 277.8940 281.6068
   281.6068 281.6068 283.3077 283.3077 284.4160 286.0519 286.0519 286.0519
   287.2618 287.2618 287.2618 287.3049 287.3049 287.3049 287.5472 287.5472
   287.5472 287.9868 288.0082 288.0082 288.0082 288.4938 288.4938 288.6186
   288.6186 288.6186 290.0414 290.8722 290.8722 290.8722 295.2722 295.5221
   295.5221 295.5221 297.7086 297.7086 297.7086 297.8622 298.0913 298.0913
   298.3465 298.3465 298.3465 298.3993 298.3993 298.4890 298.4890 298.4890
   298.7621 298.7621 298.7621 299.7643 299.7643 299.7643 301.3601 301.3601
   301.3601 301.4592 301.4592 301.4592 301.4681 301.4681 301.4681 301.5965
   301.5965 301.5965 302.6659 302.8043 302.8043 302.8872 302.8872 302.8893
   302.8893 302.8893 303.4171 303.4171 303.4171 303.6586 303.6586 303.6586
   303.7908 303.7908 303.7908 303.9805 303.9805 303.9805 304.1710 304.1710
   304.3420 304.3420 304.3758 304.3758 304.3758 304.5426 304.5426 304.5426
   304.5968 304.5968 304.5968 304.8714 304.8714 304.8714 305.7670 305.7929
   305.8155 305.8155 305.8155 305.8325 305.8325 305.8325 305.8463 308.2178
   308.2178 308.2258 308.2258 308.2258 308.2431 308.2431 308.2431 308.4213
   308.4350 308.4350 308.4350 308.4559 308.4828 308.4828 308.4828 308.4906
   308.4906 308.5213 308.5213 308.5213 308.5836 308.5836 308.6079 308.6079
   308.6079 308.7464 308.7464 308.7464 308.8282 312.5213 312.5213 312.5213
   314.1108 314.1108 314.1108 314.3366 314.8510 318.5599 318.5599 321.9979
   321.9979 321.9979 322.0394 322.0394 322.2400 322.2400 322.2400 322.2551
   322.2551 322.2551 322.2644 322.2644 322.2682 322.2682 322.2682 322.2792
   322.2792 322.2792 322.6390 322.6390 322.6390 324.2561 324.4976 324.4976
   324.4976 324.5662 324.5662 324.5662 324.6043 324.6043 324.6043 328.2619
   328.2619 328.3351 328.3351 328.3351 328.4207 332.9862 332.9862 332.9862
   333.0192 333.0192 333.0454 335.9085 335.9085 335.9085 335.9495 335.9495
   335.9495 335.9750 335.9750 335.9750 335.9811 335.9811 335.9811 337.3135
   337.3135 337.3259 337.3259 337.3259 337.3479 339.0123 339.0123 343.6771
   343.6771 343.6771 344.2653 344.2653 344.2653 345.9736 345.9736 345.9736
   347.4243 347.4243 347.4243 347.6059 347.6059 347.7507 347.9131 348.2650
   348.2650 348.2650 348.4691 348.4691 348.4691 348.6410 348.6410 348.6410
   348.7161 348.7161 350.1314 350.1314 350.1314 350.1541 350.1541 350.1541
   350.4869 350.4869 351.3994 351.3994 351.3994 351.4674 351.5597 351.5597
   351.5597 352.5112 353.5615 353.7756 353.7756 353.7756 354.7611 356.1369
   356.1369 356.4484 356.4484 356.4484 358.0448 358.0448 358.0448 358.2581
   358.2581 358.2581 359.0311 359.2335 359.2335 359.3217 359.3217 359.3217
   359.3990 359.3990 359.5143 359.5143 359.5143 359.6592 359.6592 359.6592
   359.7437 359.7437 359.7437 360.7667 360.7667 360.7667 360.8739 360.9614
   360.9614 360.9614 361.3211 363.0524 363.0524 363.0524 363.1334 363.1334
   363.2034 363.2034 363.2034 363.3332 363.3332 363.3332 363.3928 363.3928
   363.3928 363.4018 363.4018 364.2653 364.2983 364.2983 364.2983 364.3279
   364.3279 364.3279 364.3509 364.3509 364.4673 364.4673 364.4673 364.6478
   364.6478 364.6478 364.6528 364.6528 364.6673 364.6673 364.6673 364.6688
   364.6688 364.6688 364.6741 373.5890 373.5890 373.5890 374.3724 374.3724
   374.8313 374.8313 374.8313 374.9259 374.9259 374.9259 374.9620 374.9620
   374.9620 375.4821 375.4821 375.4821 375.8239 375.8264 375.8264 375.8264
   375.9254 376.1515 376.1515 376.1515 376.1730 376.1730 376.1866 376.1866
   376.1866 378.0198 378.0198 378.0198 378.2181 378.2181 378.2181 378.2404
   378.2404 378.3773 378.3773 378.3773 378.4866 381.0768 381.0768 381.1315
   381.2642 381.2642 381.2899 381.2899 381.2899 381.2905 381.2905 381.2905
   381.4144 381.4144 381.4144 381.4417 381.4417 381.4417 381.4607 381.4607
   381.4607 381.4804 381.4853 381.4853 381.4853 381.6198 381.6198 381.6198
   381.7141 381.7141 382.4311 382.4311 382.4970 382.4970 382.4970 382.6522
   383.7371 383.7371 383.7371 384.0057 384.0057 384.0057 384.1247 384.1247
   384.1607 384.2374 384.2374 384.2374 384.2632 384.2632 384.2632 384.3167
   384.3167 384.3167 384.6722 388.6526 388.6526 388.6526 388.8032 389.0294
   389.0294 389.0294 389.1798 389.1798 389.1798 389.2011 389.2011 390.4770
   390.5452 390.5452 390.5452 390.6328 390.6328 390.6328 390.7878 390.7878
   390.8256 390.8256 390.8256 391.3291 391.3291 391.3291 392.2168 392.2168
   392.2168 392.2249 392.3933 393.6593 393.6593 393.6951 393.6951 393.6952

     the Fermi energy is    10.1552 ev
     (compare with:     8.4098 eV, computed in scf)

     Writing all to output data dir out/mp-1519.save/
 
     init_run     :      0.06s CPU      0.08s WALL (       1 calls)
     electrons    :    121.18s CPU    130.43s WALL (       1 calls)

     Called by init_run:
     wfcinit      :      0.00s CPU      0.00s WALL (       1 calls)
     potinit      :      0.01s CPU      0.02s WALL (       1 calls)
     hinit0       :      0.02s CPU      0.03s WALL (       1 calls)

     Called by electrons:
     c_bands      :    121.18s CPU    130.42s WALL (       1 calls)
     v_of_rho     :      0.01s CPU      0.01s WALL (       1 calls)

     Called by c_bands:
     init_us_2    :      0.00s CPU      0.00s WALL (       1 calls)
     init_us_2:cp :      0.00s CPU      0.00s WALL (       1 calls)
     cegterg      :    118.46s CPU    127.52s WALL (       1 calls)

     Called by *egterg:
     cdiaghg      :    110.93s CPU    119.88s WALL (      14 calls)
     h_psi        :      2.18s CPU      2.25s WALL (      15 calls)
     g_psi        :      0.01s CPU      0.01s WALL (      13 calls)

     Called by h_psi:
     h_psi:calbec :      0.04s CPU      0.05s WALL (      15 calls)
     vloc_psi     :      2.09s CPU      2.15s WALL (      15 calls)
     add_vuspsi   :      0.03s CPU      0.03s WALL (      15 calls)

     General routines
     calbec       :      0.04s CPU      0.05s WALL (      15 calls)
     fft          :      0.00s CPU      0.02s WALL (      10 calls)
     fftw         :      1.89s CPU      1.94s WALL (   14832 calls)
 
     Parallel routines
 
     PWSCF        :   2m 1.52s CPU   2m10.95s WALL

 
   This run was terminated on:  23:44:48  20Dec2023            

=------------------------------------------------------------------------------=
   JOB DONE.
=------------------------------------------------------------------------------=
