
     Program PWSCF v.7.1 starts on 22Dec2023 at  2:41:48 

     This program is part of the open-source Quantum ESPRESSO suite
     for quantum simulation of materials; please cite
         "P. Giannozzi et al., J. Phys.:Condens. Matter 21 395502 (2009);
         "P. Giannozzi et al., J. Phys.:Condens. Matter 29 465901 (2017);
         "P. Giannozzi et al., J. Chem. Phys. 152 154105 (2020);
          URL http://www.quantum-espresso.org", 
     in publications or presentations arising from this work. More details at
     http://www.quantum-espresso.org/quote

     Parallel version (MPI), running on    24 processors

     MPI processes distributed on     1 nodes
     123251 MiB available memory on the printing compute node when the environment starts
 
     Reading input from pw_mp-1519_scf_k3000_E65.in
Warning: card &CELL ignored
Warning: card / ignored

     Current dimensions of program PWSCF are:
     Max number of different atomic species (ntypx) = 10
     Max number of k-points (npk) =  40000
     Max angular momentum in pseudopotentials (lmaxx) =  4
 
     K-points division:     npool     =       2
     R & G space division:  proc/nbgrp/npool/nimage =      12
     Subspace diagonalization in iterative solution of the eigenvalue problem:
     a serial algorithm will be used

 
     Parallelization info
     --------------------
     sticks:   dense  smooth     PW     G-vecs:    dense   smooth      PW
     Min         107     107     31                 2576     2576     411
     Max         108     108     32                 2581     2581     414
     Sum        1285    1285    379                30923    30923    4957
 
     Using Slab Decomposition
 


     bravais-lattice index     =            2
     lattice parameter (alat)  =      12.0786  a.u.
     unit-cell volume          =     440.5421 (a.u.)^3
     number of atoms/cell      =            2
     number of atomic types    =            2
     number of electrons       =        26.00
     number of Kohn-Sham states=           26
     kinetic-energy cutoff     =      65.0000  Ry
     charge density cutoff     =     260.0000  Ry
     scf convergence threshold =      1.0E-10
     mixing beta               =       0.7000
     number of iterations used =            8  plain     mixing
     Exchange-correlation= PBE
                           (   1   4   3   4   0   0   0)

     celldm(1)=  12.078578  celldm(2)=   0.000000  celldm(3)=   0.000000
     celldm(4)=   0.000000  celldm(5)=   0.000000  celldm(6)=   0.000000

     crystal axes: (cart. coord. in units of alat)
               a(1) = (  -0.500000   0.000000   0.500000 )  
               a(2) = (   0.000000   0.500000   0.500000 )  
               a(3) = (  -0.500000   0.500000   0.000000 )  

     reciprocal axes: (cart. coord. in units 2 pi/alat)
               b(1) = ( -1.000000 -1.000000  1.000000 )  
               b(2) = (  1.000000  1.000000  1.000000 )  
               b(3) = ( -1.000000  1.000000 -1.000000 )  


     PseudoPot. # 1 for Ca read from file:
     /usr/scratch4/magr4985/MG/HTDF/pseudo/SG15/Ca.upf
     MD5 check sum: b43c970dc090f2312d256360aabdb6f1
     Pseudo is Norm-conserving, Zval = 10.0
     Generated using ONCVPSP code by D. R. Hamann
     Using radial grid of  602 points,  6 beta functions with: 
                l(1) =   0
                l(2) =   0
                l(3) =   1
                l(4) =   1
                l(5) =   2
                l(6) =   2

     PseudoPot. # 2 for Te read from file:
     /usr/scratch4/magr4985/MG/HTDF/pseudo/SG15/Te.upf
     MD5 check sum: dd4de4dac1e38587f63aaf3700bb29d3
     Pseudo is Norm-conserving, Zval = 16.0
     Generated using ONCVPSP code by D. R. Hamann
     Using radial grid of  602 points,  6 beta functions with: 
                l(1) =   0
                l(2) =   0
                l(3) =   1
                l(4) =   1
                l(5) =   2
                l(6) =   2

     atomic species   valence    mass     pseudopotential
        Ca            10.00    40.07800     Ca( 1.00)
        Te            16.00   127.60000     Te( 1.00)

     48 Sym. Ops., with inversion, found



   Cartesian axes

     site n.     atom                  positions (alat units)
         1           Ca  tau(   1) = (   0.0000000   0.0000000   0.0000000  )
         2           Te  tau(   2) = (  -0.5000000   0.5000000   0.5000000  )

     number of k points=    72  Gaussian smearing, width (Ry)=  0.0005
                       cart. coord. in units 2pi/alat
        k(    1) = (   0.0000000   0.0000000   0.0000000), wk =   0.0011574
        k(    2) = (  -0.0833333   0.0833333  -0.0833333), wk =   0.0092593
        k(    3) = (  -0.1666667   0.1666667  -0.1666667), wk =   0.0092593
        k(    4) = (  -0.2500000   0.2500000  -0.2500000), wk =   0.0092593
        k(    5) = (  -0.3333333   0.3333333  -0.3333333), wk =   0.0092593
        k(    6) = (  -0.4166667   0.4166667  -0.4166667), wk =   0.0092593
        k(    7) = (   0.5000000  -0.5000000   0.5000000), wk =   0.0046296
        k(    8) = (   0.0000000   0.1666667   0.0000000), wk =   0.0069444
        k(    9) = (  -0.0833333   0.2500000  -0.0833333), wk =   0.0277778
        k(   10) = (  -0.1666667   0.3333333  -0.1666667), wk =   0.0277778
        k(   11) = (  -0.2500000   0.4166667  -0.2500000), wk =   0.0277778
        k(   12) = (  -0.3333333   0.5000000  -0.3333333), wk =   0.0277778
        k(   13) = (   0.5833333  -0.4166667   0.5833333), wk =   0.0277778
        k(   14) = (   0.5000000  -0.3333333   0.5000000), wk =   0.0277778
        k(   15) = (   0.4166667  -0.2500000   0.4166667), wk =   0.0277778
        k(   16) = (   0.3333333  -0.1666667   0.3333333), wk =   0.0277778
        k(   17) = (   0.2500000  -0.0833333   0.2500000), wk =   0.0277778
        k(   18) = (   0.1666667  -0.0000000   0.1666667), wk =   0.0138889
        k(   19) = (   0.0000000   0.3333333   0.0000000), wk =   0.0069444
        k(   20) = (  -0.0833333   0.4166667  -0.0833333), wk =   0.0277778
        k(   21) = (  -0.1666667   0.5000000  -0.1666667), wk =   0.0277778
        k(   22) = (  -0.2500000   0.5833333  -0.2500000), wk =   0.0277778
        k(   23) = (   0.6666667  -0.3333333   0.6666667), wk =   0.0277778
        k(   24) = (   0.5833333  -0.2500000   0.5833333), wk =   0.0277778
        k(   25) = (   0.5000000  -0.1666667   0.5000000), wk =   0.0277778
        k(   26) = (   0.4166667  -0.0833333   0.4166667), wk =   0.0277778
        k(   27) = (   0.3333333   0.0000000   0.3333333), wk =   0.0138889
        k(   28) = (   0.0000000   0.5000000   0.0000000), wk =   0.0069444
        k(   29) = (  -0.0833333   0.5833333  -0.0833333), wk =   0.0277778
        k(   30) = (  -0.1666667   0.6666667  -0.1666667), wk =   0.0277778
        k(   31) = (   0.7500000  -0.2500000   0.7500000), wk =   0.0277778
        k(   32) = (   0.6666667  -0.1666667   0.6666667), wk =   0.0277778
        k(   33) = (   0.5833333  -0.0833333   0.5833333), wk =   0.0277778
        k(   34) = (   0.5000000   0.0000000   0.5000000), wk =   0.0138889
        k(   35) = (   0.0000000   0.6666667   0.0000000), wk =   0.0069444
        k(   36) = (  -0.0833333   0.7500000  -0.0833333), wk =   0.0277778
        k(   37) = (   0.8333333  -0.1666667   0.8333333), wk =   0.0277778
        k(   38) = (   0.7500000  -0.0833333   0.7500000), wk =   0.0277778
        k(   39) = (   0.6666667  -0.0000000   0.6666667), wk =   0.0138889
        k(   40) = (   0.0000000   0.8333333   0.0000000), wk =   0.0069444
        k(   41) = (   0.9166667  -0.0833333   0.9166667), wk =   0.0277778
        k(   42) = (   0.8333333   0.0000000   0.8333333), wk =   0.0138889
        k(   43) = (   0.0000000  -1.0000000   0.0000000), wk =   0.0034722
        k(   44) = (  -0.1666667   0.3333333   0.0000000), wk =   0.0277778
        k(   45) = (  -0.2500000   0.4166667  -0.0833333), wk =   0.0555556
        k(   46) = (  -0.3333333   0.5000000  -0.1666667), wk =   0.0555556
        k(   47) = (   0.5833333  -0.4166667   0.7500000), wk =   0.0555556
        k(   48) = (   0.5000000  -0.3333333   0.6666667), wk =   0.0277778
        k(   49) = (  -0.1666667   0.5000000   0.0000000), wk =   0.0277778
        k(   50) = (  -0.2500000   0.5833333  -0.0833333), wk =   0.0555556
        k(   51) = (   0.6666667  -0.3333333   0.8333333), wk =   0.0555556
        k(   52) = (   0.5833333  -0.2500000   0.7500000), wk =   0.0555556
        k(   53) = (   0.5000000  -0.1666667   0.6666667), wk =   0.0555556
        k(   54) = (   0.4166667  -0.0833333   0.5833333), wk =   0.0555556
        k(   55) = (   0.3333333   0.0000000   0.5000000), wk =   0.0277778
        k(   56) = (  -0.1666667   0.6666667  -0.0000000), wk =   0.0277778
        k(   57) = (   0.7500000  -0.2500000   0.9166667), wk =   0.0555556
        k(   58) = (   0.6666667  -0.1666667   0.8333333), wk =   0.0555556
        k(   59) = (   0.5833333  -0.0833333   0.7500000), wk =   0.0555556
        k(   60) = (   0.5000000   0.0000000   0.6666667), wk =   0.0277778
        k(   61) = (   0.8333333  -0.1666667   1.0000000), wk =   0.0277778
        k(   62) = (   0.7500000  -0.0833333   0.9166667), wk =   0.0555556
        k(   63) = (   0.6666667   0.0000000   0.8333333), wk =   0.0277778
        k(   64) = (  -0.1666667  -1.0000000  -0.0000000), wk =   0.0138889
        k(   65) = (   0.6666667  -0.3333333   1.0000000), wk =   0.0277778
        k(   66) = (   0.5833333  -0.2500000   0.9166667), wk =   0.0555556
        k(   67) = (   0.5000000  -0.1666667   0.8333333), wk =   0.0277778
        k(   68) = (   0.6666667  -0.1666667   1.0000000), wk =   0.0277778
        k(   69) = (   0.5833333  -0.0833333   0.9166667), wk =   0.0555556
        k(   70) = (   0.5000000   0.0000000   0.8333333), wk =   0.0277778
        k(   71) = (  -0.3333333  -1.0000000   0.0000000), wk =   0.0138889
        k(   72) = (  -0.5000000  -1.0000000   0.0000000), wk =   0.0069444

     Dense  grid:    30923 G-vectors     FFT dimensions: (  45,  45,  45)

     Estimated max dynamical RAM per process >       5.25 MB

     Estimated total dynamical RAM >     118.55 MB

     Initial potential from superposition of free atoms

     starting charge      25.7572, renormalised to      26.0000
     Starting wfcs are random

     total cpu time spent up to now is        1.3 secs

     Self-consistent Calculation

     iteration #  1     ecut=    65.00 Ry     beta= 0.70
     Davidson diagonalization with overlap
     ethr =  1.00E-02,  avg # of iterations =  9.6

     Threshold (ethr) on eigenvalues was too large:
     Diagonalizing with lowered threshold

     Davidson diagonalization with overlap
     ethr =  8.78E-05,  avg # of iterations =  3.3

     total cpu time spent up to now is        4.6 secs

     total energy              =    -248.76999387 Ry
     estimated scf accuracy    <       0.01918794 Ry

     iteration #  2     ecut=    65.00 Ry     beta= 0.70
     Davidson diagonalization with overlap
     ethr =  7.38E-05,  avg # of iterations =  2.0

     total cpu time spent up to now is        5.5 secs

     total energy              =    -248.77277707 Ry
     estimated scf accuracy    <       0.00101476 Ry

     iteration #  3     ecut=    65.00 Ry     beta= 0.70
     Davidson diagonalization with overlap
     ethr =  3.90E-06,  avg # of iterations =  4.1

     total cpu time spent up to now is        6.4 secs

     total energy              =    -248.77290703 Ry
     estimated scf accuracy    <       0.00009296 Ry

     iteration #  4     ecut=    65.00 Ry     beta= 0.70
     Davidson diagonalization with overlap
     ethr =  3.58E-07,  avg # of iterations =  2.0

     total cpu time spent up to now is        7.2 secs

     total energy              =    -248.77292084 Ry
     estimated scf accuracy    <       0.00001168 Ry

     iteration #  5     ecut=    65.00 Ry     beta= 0.70
     Davidson diagonalization with overlap
     ethr =  4.49E-08,  avg # of iterations =  2.0

     total cpu time spent up to now is        8.0 secs

     total energy              =    -248.77292406 Ry
     estimated scf accuracy    <       0.00000038 Ry

     iteration #  6     ecut=    65.00 Ry     beta= 0.70
     Davidson diagonalization with overlap
     ethr =  1.46E-09,  avg # of iterations =  2.0

     total cpu time spent up to now is        8.8 secs

     total energy              =    -248.77292414 Ry
     estimated scf accuracy    <          3.1E-09 Ry

     iteration #  7     ecut=    65.00 Ry     beta= 0.70
     Davidson diagonalization with overlap
     ethr =  1.20E-11,  avg # of iterations =  3.4

     total cpu time spent up to now is        9.7 secs

     total energy              =    -248.77292414 Ry
     estimated scf accuracy    <          1.7E-10 Ry

     iteration #  8     ecut=    65.00 Ry     beta= 0.70
     Davidson diagonalization with overlap
     ethr =  6.63E-13,  avg # of iterations =  2.0

     total cpu time spent up to now is       10.5 secs

     End of self-consistent calculation

          k = 0.0000 0.0000 0.0000 (  3839 PWs)   bands (ev):

   -33.1461 -27.9278 -27.9278 -27.9136 -27.9136 -27.9136 -14.1332 -14.1332
   -14.1332  -2.9088   7.5062   7.5062   7.5062  10.4760  10.4760  10.4760
    10.5450  10.8984  10.8984  15.5055  17.6737  17.6737  17.6737  18.6209
    18.6209  18.6209

          k =-0.0833 0.0833-0.0833 (  3858 PWs)   bands (ev):

   -33.1460 -27.9278 -27.9278 -27.9136 -27.9136 -27.9136 -14.1361 -14.1333
   -14.1333  -2.8686   7.1017   7.3917   7.3917  10.4778  10.5626  10.5626
    10.9841  11.0667  11.0667  15.5864  17.2575  17.4251  17.4251  18.4258
    18.4258  19.0466

          k =-0.1667 0.1667-0.1667 (  3879 PWs)   bands (ev):

   -33.1456 -27.9278 -27.9278 -27.9135 -27.9135 -27.9135 -14.1441 -14.1336
   -14.1336  -2.7552   6.2932   7.1246   7.1246  10.4763  10.7707  10.7707
    11.5329  11.5329  11.8983  15.4928  16.7181  16.7181  17.0463  18.3299
    18.3299  19.7180

          k =-0.2500 0.2500-0.2500 (  3885 PWs)   bands (ev):

   -33.1451 -27.9279 -27.9279 -27.9135 -27.9133 -27.9133 -14.1549 -14.1339
   -14.1339  -2.5899   5.4701   6.8285   6.8285  10.5378  11.0669  11.0669
    12.1612  12.1612  12.6822  15.1987  15.8650  15.8650  17.4458  18.3859
    18.3859  20.5875

          k =-0.3333 0.3333-0.3333 (  3873 PWs)   bands (ev):

   -33.1446 -27.9279 -27.9279 -27.9134 -27.9132 -27.9132 -14.1657 -14.1343
   -14.1343  -2.4103   4.7868   6.5813   6.5813  10.7048  11.4282  11.4282
    12.7158  12.8058  12.8058  15.0427  15.0427  15.6165  17.9100  18.5267
    18.5267  21.8282

          k =-0.4167 0.4167-0.4167 (  3879 PWs)   bands (ev):

   -33.1442 -27.9279 -27.9279 -27.9133 -27.9131 -27.9131 -14.1735 -14.1346
   -14.1346  -2.2675   4.3329   6.4214   6.4214  10.9771  11.7806  11.7806
    12.2522  13.3526  13.3526  14.3370  14.3370  16.5152  18.2957  18.7136
    18.7136  21.4001

          k = 0.5000-0.5000 0.5000 (  3852 PWs)   bands (ev):

   -33.1441 -27.9279 -27.9279 -27.9133 -27.9131 -27.9131 -14.1764 -14.1347
   -14.1347  -2.2124   4.1729   6.3665   6.3665  11.1870  11.9421  11.9470
    11.9470  13.7618  13.7618  13.8447  13.8447  16.9778  18.5857  18.8182
    18.8182  20.5734

          k = 0.0000 0.1667 0.0000 (  3867 PWs)   bands (ev):

   -33.1459 -27.9278 -27.9278 -27.9136 -27.9135 -27.9135 -14.1356 -14.1341
   -14.1341  -2.8560   6.9797   7.3753   7.3753  10.3410  10.7187  10.7187
    10.7698  10.9358  11.4965  15.6361  17.1757  17.1757  17.4214  17.8797
    19.2443  19.2444

          k =-0.0833 0.2500-0.0833 (  3869 PWs)   bands (ev):

   -33.1456 -27.9279 -27.9277 -27.9136 -27.9134 -27.9134 -14.1415 -14.1350
   -14.1340  -2.7690   6.3932   7.1480   7.1812  10.3105  10.7954  10.9090
    11.2120  11.2313  12.2468  15.6601  16.3744  16.7436  17.1734  17.9863
    19.2408  19.7734

          k =-0.1667 0.3333-0.1667 (  3895 PWs)   bands (ev):

   -33.1452 -27.9279 -27.9278 -27.9135 -27.9133 -27.9133 -14.1512 -14.1357
   -14.1341  -2.6240   5.6694   6.8296   6.9109  10.3865  11.0143  11.1419
    11.7401  11.8825  13.0039  15.2174  15.7505  16.1425  17.4444  18.0777
    19.1027  20.4271

          k =-0.2500 0.4167-0.2500 (  3884 PWs)   bands (ev):

   -33.1447 -27.9279 -27.9278 -27.9134 -27.9132 -27.9132 -14.1618 -14.1361
   -14.1346  -2.4519   4.9989   6.5472   6.6551  10.5460  11.3392  11.4718
    12.2874  12.5072  13.2315  14.8149  15.4950  15.5528  17.9132  18.2612
    19.1068  21.4341

          k =-0.3333 0.5000-0.3333 (  3886 PWs)   bands (ev):

   -33.1443 -27.9279 -27.9278 -27.9134 -27.9131 -27.9131 -14.1705 -14.1360
   -14.1355  -2.2984   4.5000   6.3514   6.4663  10.8140  11.7076  11.8181
    12.3682  12.7460  13.5824  14.1655  14.9320  16.1528  18.3432  18.5985
    19.1282  21.3934

          k = 0.5833-0.4167 0.5833 (  3886 PWs)   bands (ev):

   -33.1440 -27.9279 -27.9279 -27.9133 -27.9131 -27.9130 -14.1749 -14.1364
   -14.1355  -2.2138   4.2536   6.2612   6.3705  11.1493  11.8975  11.9699
    12.0226  13.1821  13.5042  14.1129  14.5034  16.6396  18.6329  18.9160
    19.1713  20.3922

          k = 0.5000-0.3333 0.5000 (  3881 PWs)   bands (ev):

   -33.1441 -27.9279 -27.9278 -27.9133 -27.9131 -27.9131 -14.1739 -14.1371
   -14.1347  -2.2310   4.3029   6.2826   6.3782  11.1353  11.7884  11.9223
    12.1406  12.9563  13.7328  14.1308  14.5278  16.5230  18.4891  18.6553
    19.3048  20.6520

          k = 0.4167-0.2500 0.4167 (  3886 PWs)   bands (ev):

   -33.1444 -27.9279 -27.9278 -27.9134 -27.9132 -27.9131 -14.1679 -14.1374
   -14.1338  -2.3431   4.6393   6.4129   6.4890  10.8548  11.4389  11.7886
    12.4465  12.5755  13.4626  14.5981  14.9560  15.8561  18.1207  18.3616
    19.2781  21.5380

          k = 0.3333-0.1667 0.3333 (  3881 PWs)   bands (ev):

   -33.1448 -27.9279 -27.9278 -27.9134 -27.9133 -27.9132 -14.1584 -14.1372
   -14.1331  -2.5083   5.2063   6.6408   6.6904  10.6728  11.0792  11.4154
    11.8960  12.7830  12.9066  15.2650  15.4452  15.4576  17.8813  18.0100
    19.0949  21.0634

          k = 0.2500-0.0833 0.2500 (  3879 PWs)   bands (ev):

   -33.1453 -27.9279 -27.9278 -27.9135 -27.9134 -27.9133 -14.1480 -14.1364
   -14.1327  -2.6759   5.9132   6.9377   6.9532  10.6146  10.7847  11.0662
    11.2866  12.0782  12.5294  15.4096  15.8988  16.3996  17.5973  17.7263
    18.9237  20.3574

          k = 0.1667-0.0000 0.1667 (  3867 PWs)   bands (ev):

   -33.1457 -27.9279 -27.9278 -27.9136 -27.9135 -27.9135 -14.1398 -14.1350
   -14.1328  -2.8048   6.6238   7.2194   7.2346  10.5937  10.5978  10.7341
    10.9368  11.4712  11.7119  15.6411  16.5369  17.3611  17.3647  17.6293
    18.7934  19.7546

          k = 0.0000 0.3333 0.0000 (  3899 PWs)   bands (ev):

   -33.1454 -27.9279 -27.9277 -27.9137 -27.9133 -27.9133 -14.1420 -14.1365
   -14.1365  -2.7149   6.1047   7.0946   7.0946  10.0176  10.9767  11.0411
    11.2902  11.2902  13.0119  15.6807  15.8897  16.6044  16.6044  18.5520
    20.2240  20.2240

          k =-0.0833 0.4167-0.0833 (  3906 PWs)   bands (ev):

   -33.1451 -27.9279 -27.9276 -27.9137 -27.9132 -27.9132 -14.1488 -14.1379
   -14.1370  -2.6033   5.6410   6.8399   6.9063   9.9733  11.1632  11.1731
    11.6754  11.6935  13.7864  14.8010  15.7839  16.3197  16.8446  18.9100
    19.9092  20.6715

          k =-0.1667 0.5000-0.1667 (  3889 PWs)   bands (ev):

   -33.1447 -27.9279 -27.9277 -27.9136 -27.9131 -27.9131 -14.1579 -14.1386
   -14.1377  -2.4578   5.1533   6.4908   6.6889  10.1273  11.4530  11.4930
    12.0649  12.1836  13.7532  14.3861  15.7632  15.9420  17.5109  19.0992
    19.7883  21.3224

          k =-0.2500 0.5833-0.2500 (  3894 PWs)   bands (ev):

   -33.1443 -27.9278 -27.9277 -27.9135 -27.9130 -27.9130 -14.1659 -14.1390
   -14.1386  -2.3149   4.7365   6.1985   6.5019  10.4019  11.8231  11.8661
    12.3442  12.4110  13.4308  14.1167  15.5803  16.0472  18.3497  19.2154
    19.7140  21.3007

          k = 0.6667-0.3333 0.6667 (  3896 PWs)   bands (ev):

   -33.1440 -27.9278 -27.9277 -27.9134 -27.9130 -27.9129 -14.1708 -14.1408
   -14.1377  -2.2171   4.4763   6.0222   6.3819  10.7910  11.9424  12.0304
    12.2787  12.6490  13.2841  14.2163  15.2869  16.2095  18.9604  19.1759
    19.5531  20.4643

          k = 0.5833-0.2500 0.5833 (  3911 PWs)   bands (ev):

   -33.1440 -27.9279 -27.9277 -27.9133 -27.9131 -27.9130 -14.1714 -14.1424
   -14.1363  -2.1991   4.4322   5.9746   6.3471  11.2634  11.5629  11.8579
    12.4555  12.7669  13.1982  14.6687  14.9740  16.1476  18.4280  19.1553
    19.4660  20.9436

          k = 0.5000-0.1667 0.5000 (  3891 PWs)   bands (ev):

   -33.1441 -27.9279 -27.9277 -27.9133 -27.9131 -27.9131 -14.1676 -14.1433
   -14.1348  -2.2675   4.6150   6.0579   6.4022  11.1952  11.5353  11.8760
    12.1657  12.4844  13.7228  14.6378  14.9458  15.8635  17.8948  19.2174
    19.6827  21.0377

          k = 0.4167-0.0833 0.4167 (  3883 PWs)   bands (ev):

   -33.1445 -27.9280 -27.9277 -27.9134 -27.9132 -27.9131 -14.1609 -14.1427
   -14.1334  -2.3975   4.9800   6.2711   6.5395  11.0552  11.2054  11.6302
    11.8722  12.7145  13.4638  14.9807  15.1374  15.4744  17.6234  19.0156
    19.7061  21.3913

          k = 0.3333 0.0000 0.3333 (  3873 PWs)   bands (ev):

   -33.1449 -27.9279 -27.9277 -27.9134 -27.9133 -27.9132 -14.1537 -14.1402
   -14.1327  -2.5470   5.4434   6.5947   6.7369  10.9404  10.9778  11.1879
    11.4459  12.7644  12.9523  15.3177  15.3347  15.7275  17.5513  18.3987
    19.2473  21.1882

          k = 0.0000 0.5000 0.0000 (  3895 PWs)   bands (ev):

   -33.1449 -27.9278 -27.9276 -27.9137 -27.9131 -27.9131 -14.1504 -14.1399
   -14.1399  -2.5323   5.4071   6.8152   6.8152   9.6493  11.1924  11.2259
    11.8929  11.8929  14.0959  14.6845  16.0896  16.4059  16.4059  19.7153
    20.3539  21.1972

          k =-0.0833 0.5833-0.0833 (  3905 PWs)   bands (ev):

   -33.1445 -27.9277 -27.9275 -27.9137 -27.9130 -27.9129 -14.1563 -14.1413
   -14.1413  -2.4268   5.1299   6.5668   6.6705   9.6410  11.3543  11.4559
    12.1350  12.1487  13.4114  15.1099  16.0073  16.3902  17.0489  20.2265
    20.3128  21.5744

          k =-0.1667 0.6667-0.1667 (  3915 PWs)   bands (ev):

   -33.1442 -27.9276 -27.9276 -27.9136 -27.9129 -27.9128 -14.1623 -14.1432
   -14.1416  -2.3124   4.9005   6.1783   6.5186   9.8749  11.6653  11.8664
    12.2680  12.3444  12.8749  14.8538  16.1539  16.2969  18.1140  20.2784
    20.3966  20.9560

          k = 0.7500-0.2500 0.7500 (  3905 PWs)   bands (ev):

   -33.1439 -27.9276 -27.9276 -27.9135 -27.9129 -27.9128 -14.1660 -14.1462
   -14.1408  -2.2206   4.7571   5.8276   6.3988  10.2366  12.0029  12.0519
    12.2768  12.4914  12.7598  14.6324  16.1368  16.1634  18.8004  19.4853
    20.3313  21.0279

          k = 0.6667-0.1667 0.6667 (  3906 PWs)   bands (ev):

   -33.1439 -27.9277 -27.9275 -27.9134 -27.9130 -27.9128 -14.1666 -14.1491
   -14.1390  -2.1800   4.7082   5.6296   6.3362  10.7010  11.7573  11.9808
    12.3927  12.6831  13.0010  14.7633  15.8646  15.9337  18.4682  18.7047
    20.5690  21.5884

          k = 0.5833-0.0833 0.5833 (  3904 PWs)   bands (ev):

   -33.1439 -27.9278 -27.9275 -27.9132 -27.9131 -27.9129 -14.1648 -14.1505
   -14.1368  -2.2043   4.7358   5.6493   6.3420  11.2511  11.5953  11.7079
    12.0317  12.9788  13.2579  15.0249  15.4714  15.5985  17.8272  18.8591
    20.6137  21.7514

          k = 0.5000 0.0000 0.5000 (  3891 PWs)   bands (ev):

   -33.1442 -27.9279 -27.9276 -27.9132 -27.9131 -27.9131 -14.1627 -14.1481
   -14.1348  -2.2855   4.8238   5.8904   6.4144  11.4281  11.5171  11.5521
    11.8738  12.6558  13.7198  14.9083  15.0463  15.6000  17.5909  19.4558
    20.2641  20.9395

          k = 0.0000 0.6667 0.0000 (  3924 PWs)   bands (ev):

   -33.1443 -27.9276 -27.9275 -27.9138 -27.9128 -27.9128 -14.1585 -14.1433
   -14.1433  -2.3664   5.0012   6.6042   6.6042   9.3370  11.3539  11.3726
    12.2664  12.2664  12.9429  16.0646  16.2103  16.7935  16.7935  20.3753
    21.2801  21.8086

          k =-0.0833 0.7500-0.0833 (  3911 PWs)   bands (ev):

   -33.1441 -27.9275 -27.9274 -27.9138 -27.9127 -27.9127 -14.1621 -14.1453
   -14.1443  -2.2919   4.8991   6.3641   6.5105   9.3900  11.4642  11.5076
    12.3337  12.3452  12.6355  15.8851  16.3199  17.0533  17.7339  20.5047
    21.1037  21.2207

          k = 0.8333-0.1667 0.8333 (  3914 PWs)   bands (ev):

   -33.1439 -27.9275 -27.9274 -27.9137 -27.9127 -27.9127 -14.1638 -14.1489
   -14.1438  -2.2227   4.8919   5.9165   6.4172   9.6955  11.7012  11.8042
    12.2899  12.3694  12.5496  15.5070  16.2713  17.1195  18.4674  19.6679
    20.8694  21.2386

          k = 0.7500-0.0833 0.7500 (  3912 PWs)   bands (ev):

   -33.1438 -27.9276 -27.9273 -27.9135 -27.9128 -27.9127 -14.1623 -14.1539
   -14.1420  -2.1782   4.9998   5.4499   6.3494  10.1176  11.8265  12.1275
    12.2302  12.2805  12.8496  15.2863  15.8932  16.9638  18.4172  18.5594
    21.5664  22.0835

          k = 0.6667-0.0000 0.6667 (  3893 PWs)   bands (ev):

   -33.1438 -27.9277 -27.9274 -27.9134 -27.9129 -27.9128 -14.1604 -14.1568
   -14.1395  -2.1714   4.9861   5.3124   6.3226  10.6373  11.8339  11.9243
    12.0657  12.7194  13.1878  15.2981  15.3456  16.3781  17.9600  18.4544
    21.7142  22.2197

          k = 0.0000 0.8333 0.0000 (  3920 PWs)   bands (ev):

   -33.1440 -27.9274 -27.9273 -27.9138 -27.9126 -27.9126 -14.1643 -14.1459
   -14.1459  -2.2593   4.8466   6.4785   6.4785   9.1338  11.1293  11.4795
    12.3820  12.3820  12.5613  16.2742  16.7817  17.7135  17.7135  20.4131
    21.0650  21.0650

          k = 0.9167-0.0833 0.9167 (  3911 PWs)   bands (ev):

   -33.1439 -27.9274 -27.9272 -27.9138 -27.9126 -27.9126 -14.1653 -14.1478
   -14.1460  -2.2236   4.8521   6.2499   6.4318   9.2565  11.1417  11.5989
    12.3643  12.3783  12.5581  16.1626  16.6642  18.0445  18.3295  19.7772
    20.6212  21.1462

          k = 0.8333 0.0000 0.8333 (  3911 PWs)   bands (ev):

   -33.1438 -27.9275 -27.9272 -27.9137 -27.9127 -27.9126 -14.1637 -14.1515
   -14.1446  -2.1941   4.9449   5.7926   6.3842   9.6285  11.4847  11.8542
    12.2740  12.3269  12.6292  15.8769  16.2473  17.8523  18.3612  18.8473
    21.1570  22.2198

          k = 0.0000-1.0000 0.0000 (  3892 PWs)   bands (ev):

   -33.1438 -27.9273 -27.9272 -27.9139 -27.9126 -27.9126 -14.1663 -14.1468
   -14.1468  -2.2237   4.8197   6.4373   6.4373   9.0638  10.9178  11.5272
    12.3946  12.3946  12.5610  16.2944  16.9451  18.4892  18.4892  20.1842
    20.1842  20.4361

          k =-0.1667 0.3333 0.0000 (  3890 PWs)   bands (ev):

   -33.1453 -27.9279 -27.9277 -27.9136 -27.9133 -27.9133 -14.1467 -14.1375
   -14.1339  -2.6685   5.9039   6.9338   6.9597  10.2987  11.0407  11.1196
    11.1950  11.7954  13.0127  15.4745  15.6146  16.4906  17.0850  18.2917
    19.3153  20.7014

          k =-0.2500 0.4167-0.0833 (  3899 PWs)   bands (ev):

   -33.1449 -27.9279 -27.9277 -27.9135 -27.9132 -27.9132 -14.1551 -14.1394
   -14.1341  -2.5234   5.3474   6.6003   6.7237  10.4360  11.2033  11.4441
    11.6192  12.3809  13.4680  14.8184  15.4270  16.0118  17.4234  18.6306
    19.4535  21.0456

          k =-0.3333 0.5000-0.1667 (  3889 PWs)   bands (ev):

   -33.1444 -27.9279 -27.9277 -27.9134 -27.9131 -27.9131 -14.1639 -14.1403
   -14.1349  -2.3676   4.8413   6.3142   6.5201  10.6417  11.4806  11.8244
    12.1074  12.5587  13.5927  14.3454  15.2954  15.9062  17.8578  18.8794
    19.6888  21.3774

          k = 0.5833-0.4167 0.7500 (  3893 PWs)   bands (ev):

   -33.1441 -27.9279 -27.9277 -27.9133 -27.9131 -27.9130 -14.1704 -14.1403
   -14.1359  -2.2456   4.4876   6.1343   6.3851  10.9418  11.8055  11.9275
    12.3133  12.5137  13.7043  14.1368  15.0412  16.1863  18.3512  19.1060
    19.5807  20.6947

          k = 0.5000-0.3333 0.6667 (  3906 PWs)   bands (ev):

   -33.1440 -27.9279 -27.9278 -27.9133 -27.9131 -27.9130 -14.1728 -14.1402
   -14.1365  -2.1990   4.3605   6.0736   6.3381  11.2410  11.5631  12.0210
    12.2957  12.9472  13.1843  14.4964  14.8472  16.3135  18.5812  19.1499
    19.6865  20.1874

          k =-0.1667 0.5000 0.0000 (  3898 PWs)   bands (ev):

   -33.1447 -27.9279 -27.9276 -27.9137 -27.9131 -27.9131 -14.1540 -14.1410
   -14.1374  -2.4939   5.3000   6.6334   6.6984   9.9587  11.2470  11.4784
    11.8343  12.1320  13.9628  14.4651  15.6257  16.4650  16.9583  19.4920
    19.9557  21.1567

          k =-0.2500 0.5833-0.0833 (  3902 PWs)   bands (ev):

   -33.1444 -27.9278 -27.9276 -27.9136 -27.9130 -27.9130 -14.1605 -14.1432
   -14.1380  -2.3657   4.9799   6.2871   6.5110  10.1642  11.4618  11.8855
    12.0804  12.3990  13.4146  14.4598  15.5371  16.5291  17.5830  19.8000
    20.1769  21.0825

          k = 0.6667-0.3333 0.8333 (  3898 PWs)   bands (ev):

   -33.1441 -27.9278 -27.9276 -27.9135 -27.9130 -27.9129 -14.1659 -14.1445
   -14.1389  -2.2528   4.7335   5.9816   6.3712  10.4746  11.8035  11.9873
    12.2668  12.4739  13.2885  14.3024  15.5539  16.3804  18.3136  19.6888
    20.1063  20.7840

          k = 0.5833-0.2500 0.7500 (  3908 PWs)   bands (ev):

   -33.1439 -27.9278 -27.9276 -27.9133 -27.9131 -27.9128 -14.1684 -14.1457
   -14.1389  -2.1900   4.6064   5.8099   6.2968  10.8764  11.5950  12.0727
    12.4336  12.5439  13.2386  14.5396  15.5610  16.0390  18.3515  19.6108
    20.1165  20.4924

          k = 0.5000-0.1667 0.6667 (  3901 PWs)   bands (ev):

   -33.1439 -27.9278 -27.9276 -27.9132 -27.9131 -27.9129 -14.1676 -14.1468
   -14.1377  -2.1990   4.6268   5.7998   6.2994  11.2338  11.3712  11.8936
    12.3179  12.6928  13.3891  14.6810  15.3014  16.0019  18.1098  19.2089
    20.1356  21.1735

          k = 0.4167-0.0833 0.5833 (  3895 PWs)   bands (ev):

   -33.1441 -27.9279 -27.9276 -27.9133 -27.9131 -27.9130 -14.1640 -14.1466
   -14.1360  -2.2767   4.7847   5.9570   6.3793  10.9482  11.5784  11.8940
    11.9900  12.5843  13.8499  14.2459  15.1624  16.1838  17.7169  19.4904
    20.1345  21.0506

          k = 0.3333 0.0000 0.5000 (  3893 PWs)   bands (ev):

   -33.1445 -27.9279 -27.9276 -27.9135 -27.9131 -27.9131 -14.1594 -14.1440
   -14.1346  -2.3967   5.0388   6.2581   6.5261  10.6801  11.3668  11.6830
    11.8862  12.5947  13.6904  14.4109  15.2151  16.1222  17.4536  19.5206
    19.7307  21.2575

          k =-0.1667 0.6667-0.0000 (  3914 PWs)   bands (ev):

   -33.1442 -27.9276 -27.9275 -27.9137 -27.9129 -27.9128 -14.1600 -14.1445
   -14.1417  -2.3380   4.9686   6.4042   6.4748   9.6703  11.3971  11.7565
    12.2426  12.3068  12.9104  15.3379  15.8247  17.1973  17.2139  20.5331
    20.8255  20.8995

          k = 0.7500-0.2500 0.9167 (  3917 PWs)   bands (ev):

   -33.1440 -27.9276 -27.9274 -27.9136 -27.9129 -27.9127 -14.1630 -14.1472
   -14.1426  -2.2505   4.8839   6.0271   6.3373   9.9481  11.5483  12.0408
    12.3110  12.4679  12.6158  15.1158  15.8455  17.0740  18.1148  19.8723
    20.9779  21.0859

          k = 0.6667-0.1667 0.8333 (  3909 PWs)   bands (ev):

   -33.1438 -27.9276 -27.9274 -27.9135 -27.9129 -27.9127 -14.1639 -14.1505
   -14.1422  -2.1887   4.8910   5.6415   6.2595  10.3281  11.7010  11.9917
    12.3004  12.4278  13.0435  14.9371  15.8722  16.5736  18.2881  19.4532
    20.7728  21.3989

          k = 0.5833-0.0833 0.7500 (  3906 PWs)   bands (ev):

   -33.1438 -27.9277 -27.9274 -27.9133 -27.9130 -27.9127 -14.1627 -14.1536
   -14.1405  -2.1714   4.9145   5.4505   6.2399  10.7777  11.5745  11.8937
    12.2642  12.5191  13.4942  14.9595  15.5731  16.1192  18.0965  18.8867
    21.3110  21.6917

          k = 0.5000 0.0000 0.6667 (  3909 PWs)   bands (ev):

   -33.1439 -27.9278 -27.9275 -27.9132 -27.9132 -27.9128 -14.1627 -14.1523
   -14.1381  -2.2041   4.8350   5.6093   6.2817  11.2918  11.3107  11.7349
    12.0913  12.8175  13.5745  14.7964  15.1908  16.1675  17.7876  18.9421
    21.3075  21.3579

          k = 0.8333-0.1667 1.0000 (  3917 PWs)   bands (ev):

   -33.1439 -27.9274 -27.9273 -27.9138 -27.9127 -27.9126 -14.1638 -14.1471
   -14.1455  -2.2395   4.8789   6.2659   6.3082   9.4833  11.3211  11.7528
    12.3188  12.3775  12.5541  16.0370  16.1209  17.7669  17.9535  19.9438
    21.0606  21.1918

          k = 0.7500-0.0833 0.9167 (  3908 PWs)   bands (ev):

   -33.1438 -27.9275 -27.9273 -27.9137 -27.9128 -27.9126 -14.1632 -14.1506
   -14.1453  -2.1948   4.9557   5.8370   6.2351   9.8285  11.4041  12.0317
    12.2012  12.3774  12.7006  15.7462  16.0750  17.2694  18.5230  19.3487
    20.7067  21.9517

          k = 0.6667 0.0000 0.8333 (  3894 PWs)   bands (ev):

   -33.1438 -27.9276 -27.9273 -27.9135 -27.9129 -27.9126 -14.1602 -14.1558
   -14.1433  -2.1699   5.1314   5.3614   6.2169  10.2650  11.6548  11.9252
    12.2574  12.3240  13.1686  15.4665  15.7095  16.6448  18.5198  18.7548
    21.4427  22.1274

          k =-0.1667-1.0000-0.0000 (  3908 PWs)   bands (ev):

   -33.1438 -27.9274 -27.9272 -27.9138 -27.9127 -27.9126 -14.1650 -14.1481
   -14.1469  -2.2073   4.8826   6.2201   6.2401   9.4191  11.1511  11.7519
    12.2934  12.3954  12.5880  16.1029  16.5348  17.8287  18.7295  19.5675
    20.1546  21.8667

          k = 0.6667-0.3333 1.0000 (  3895 PWs)   bands (ev):

   -33.1441 -27.9277 -27.9275 -27.9135 -27.9130 -27.9128 -14.1622 -14.1478
   -14.1392  -2.2704   4.8796   5.9999   6.3024  10.4412  11.4902  11.9901
    12.1775  12.5634  13.2855  14.4948  15.3889  17.0008  17.6166  19.6676
    20.8339  20.9957

          k = 0.5833-0.2500 0.9167 (  3902 PWs)   bands (ev):

   -33.1439 -27.9277 -27.9274 -27.9134 -27.9131 -27.9127 -14.1634 -14.1504
   -14.1408  -2.1982   4.8572   5.7134   6.1757  10.7874  11.4669  11.8117
    12.2896  12.5834  13.5648  14.5569  15.4606  16.5046  18.0427  19.3333
    21.1222  21.2321

          k = 0.5000-0.1667 0.8333 (  3892 PWs)   bands (ev):

   -33.1438 -27.9277 -27.9274 -27.9132 -27.9132 -27.9127 -14.1639 -14.1511
   -14.1417  -2.1713   4.8661   5.5892   6.1337  11.0809  11.1968  11.9360
    12.3584  12.3748  13.8040  14.6614  15.7545  15.8537  18.1474  19.6186
    20.6966  21.1637

          k = 0.6667-0.1667 1.0000 (  3917 PWs)   bands (ev):

   -33.1438 -27.9276 -27.9273 -27.9135 -27.9129 -27.9126 -14.1622 -14.1506
   -14.1445  -2.1966   4.9620   5.8426   6.0521  10.2858  11.3998  11.9149
    12.3642  12.4216  13.0515  15.2246  15.6631  16.9491  18.2934  19.4160
    21.1617  21.6951

          k = 0.5833-0.0833 0.9167 (  3901 PWs)   bands (ev):

   -33.1438 -27.9276 -27.9273 -27.9134 -27.9131 -27.9126 -14.1600 -14.1541
   -14.1452  -2.1656   5.1276   5.5004   5.9678  10.6879  11.4046  11.6752
    12.2878  12.3782  13.7846  15.0982  15.6867  16.0317  18.6622  19.4367
    20.7053  22.1262

          k = 0.5000 0.0000 0.8333 (  3899 PWs)   bands (ev):

   -33.1438 -27.9277 -27.9273 -27.9132 -27.9132 -27.9126 -14.1595 -14.1554
   -14.1435  -2.1662   5.0950   5.4379   6.0247  11.0586  11.1983  11.6655
    12.3444  12.3685  14.1620  14.6783  15.4880  16.0501  18.4418  19.1697
    21.3746  21.8248

          k =-0.3333-1.0000 0.0000 (  3922 PWs)   bands (ev):

   -33.1438 -27.9276 -27.9272 -27.9135 -27.9129 -27.9126 -14.1614 -14.1516
   -14.1472  -2.1741   5.0710   5.7901   5.9021  10.2324  11.3155  11.9068
    12.2160  12.3972  13.1653  15.7699  15.8776  16.3399  19.1614  19.4370
    20.0975  22.0991

          k =-0.5000-1.0000 0.0000 (  3884 PWs)   bands (ev):

   -33.1437 -27.9277 -27.9272 -27.9132 -27.9132 -27.9126 -14.1565 -14.1565
   -14.1473  -2.1572   5.3806   5.3806   5.7529  11.1593  11.1593  11.3550
    12.2582  12.3981  14.6503  14.6545  15.6166  15.6166  19.4064  19.4064
    20.0699  22.0832

     the Fermi energy is     8.4096 ev

!    total energy              =    -248.77292414 Ry
     estimated scf accuracy    <          4.6E-12 Ry
     smearing contrib. (-TS)   =      -0.00000000 Ry
     internal energy E=F+TS    =    -248.77292414 Ry

     The total energy is F=E-TS. E is the sum of the following terms:
     one-electron contribution =    -119.97184633 Ry
     hartree contribution      =      64.02224688 Ry
     xc contribution           =     -28.82012856 Ry
     ewald contribution        =    -164.00319614 Ry

     convergence has been achieved in   8 iterations

     Writing all to output data dir out/mp-1519.save/
 
     init_run     :      0.66s CPU      0.92s WALL (       1 calls)
     electrons    :      8.45s CPU      9.34s WALL (       1 calls)

     Called by init_run:
     wfcinit      :      0.62s CPU      0.84s WALL (       1 calls)
     potinit      :      0.01s CPU      0.01s WALL (       1 calls)
     hinit0       :      0.01s CPU      0.03s WALL (       1 calls)

     Called by electrons:
     c_bands      :      7.42s CPU      8.04s WALL (       9 calls)
     sum_band     :      0.99s CPU      1.18s WALL (       9 calls)
     v_of_rho     :      0.03s CPU      0.04s WALL (       9 calls)
     mix_rho      :      0.01s CPU      0.01s WALL (       9 calls)

     Called by c_bands:
     init_us_2    :      0.08s CPU      0.08s WALL (     684 calls)
     init_us_2:cp :      0.07s CPU      0.08s WALL (     684 calls)
     cegterg      :      6.72s CPU      6.95s WALL (     324 calls)

     Called by *egterg:
     cdiaghg      :      1.04s CPU      1.06s WALL (    1354 calls)
     h_psi        :      5.58s CPU      5.85s WALL (    1426 calls)
     g_psi        :      0.03s CPU      0.03s WALL (    1066 calls)

     Called by h_psi:
     h_psi:calbec :      0.14s CPU      0.14s WALL (    1426 calls)
     vloc_psi     :      5.32s CPU      5.57s WALL (    1426 calls)
     add_vuspsi   :      0.10s CPU      0.11s WALL (    1426 calls)

     General routines
     calbec       :      0.13s CPU      0.14s WALL (    1426 calls)
     fft          :      0.02s CPU      0.04s WALL (      90 calls)
     ffts         :      0.00s CPU      0.00s WALL (       9 calls)
     fftw         :      5.69s CPU      5.96s WALL (   58272 calls)
     davcio       :      0.07s CPU      0.60s WALL (    1112 calls)
 
     Parallel routines
 
     PWSCF        :      9.25s CPU     11.91s WALL

 
   This run was terminated on:   2:41:59  22Dec2023            

=------------------------------------------------------------------------------=
   JOB DONE.
=------------------------------------------------------------------------------=
