
     Program PWSCF v.7.1 starts on 19Nov2023 at 23:18:28 

     This program is part of the open-source Quantum ESPRESSO suite
     for quantum simulation of materials; please cite
         "P. Giannozzi et al., J. Phys.:Condens. Matter 21 395502 (2009);
         "P. Giannozzi et al., J. Phys.:Condens. Matter 29 465901 (2017);
         "P. Giannozzi et al., J. Chem. Phys. 152 154105 (2020);
          URL http://www.quantum-espresso.org", 
     in publications or presentations arising from this work. More details at
     http://www.quantum-espresso.org/quote

     Parallel version (MPI), running on    24 processors

     MPI processes distributed on     1 nodes
     123401 MiB available memory on the printing compute node when the environment starts
 
     Reading input from pw_mp-1087_scf_k3000_E71.in
Warning: card &CELL ignored
Warning: card / ignored

     Current dimensions of program PWSCF are:
     Max number of different atomic species (ntypx) = 10
     Max number of k-points (npk) =  40000
     Max angular momentum in pseudopotentials (lmaxx) =  4
 
     K-points division:     npool     =       2
     R & G space division:  proc/nbgrp/npool/nimage =      12
     Subspace diagonalization in iterative solution of the eigenvalue problem:
     a serial algorithm will be used

 
     Parallelization info
     --------------------
     sticks:   dense  smooth     PW     G-vecs:    dense   smooth      PW
     Min         107     107     31                 2528     2528     408
     Max         108     108     32                 2531     2531     410
     Sum        1285    1285    379                30347    30347    4909
 
     Using Slab Decomposition
 


     bravais-lattice index     =            2
     lattice parameter (alat)  =      11.4291  a.u.
     unit-cell volume          =     373.2322 (a.u.)^3
     number of atoms/cell      =            2
     number of atomic types    =            2
     number of electrons       =        16.00
     number of Kohn-Sham states=           16
     kinetic-energy cutoff     =      71.0000  Ry
     charge density cutoff     =     284.0000  Ry
     scf convergence threshold =      1.0E-10
     mixing beta               =       0.7000
     number of iterations used =            8  plain     mixing
     Exchange-correlation= PBE
                           (   1   4   3   4   0   0   0)

     celldm(1)=  11.429126  celldm(2)=   0.000000  celldm(3)=   0.000000
     celldm(4)=   0.000000  celldm(5)=   0.000000  celldm(6)=   0.000000

     crystal axes: (cart. coord. in units of alat)
               a(1) = (  -0.500000   0.000000   0.500000 )  
               a(2) = (   0.000000   0.500000   0.500000 )  
               a(3) = (  -0.500000   0.500000   0.000000 )  

     reciprocal axes: (cart. coord. in units 2 pi/alat)
               b(1) = ( -1.000000 -1.000000  1.000000 )  
               b(2) = (  1.000000  1.000000  1.000000 )  
               b(3) = ( -1.000000  1.000000 -1.000000 )  


     PseudoPot. # 1 for S  read from file:
     /usr/scratch4/magr4985/MG/HTDF/pseudo/SG15/S.upf
     MD5 check sum: f9d020296ee6110346977bfd66d424f6
     Pseudo is Norm-conserving, Zval =  6.0
     Generated using ONCVPSP code by D. R. Hamann
     Using radial grid of  602 points,  4 beta functions with: 
                l(1) =   0
                l(2) =   0
                l(3) =   1
                l(4) =   1

     PseudoPot. # 2 for Sr read from file:
     /usr/scratch4/magr4985/MG/HTDF/pseudo/SG15/Sr.upf
     MD5 check sum: 3f9bc8d6f3e8472da0cbe0e6a3044a9f
     Pseudo is Norm-conserving, Zval = 10.0
     Generated using ONCVPSP code by D. R. Hamann
     Using radial grid of  602 points,  6 beta functions with: 
                l(1) =   0
                l(2) =   0
                l(3) =   1
                l(4) =   1
                l(5) =   2
                l(6) =   2

     atomic species   valence    mass     pseudopotential
        S              6.00    32.06500     S ( 1.00)
        Sr            10.00    87.62000     Sr( 1.00)

     48 Sym. Ops., with inversion, found



   Cartesian axes

     site n.     atom                  positions (alat units)
         1           Sr  tau(   1) = (   0.0000000   0.0000000   0.0000000  )
         2           S   tau(   2) = (  -0.5000000   0.5000000   0.5000000  )

     number of k points=    72  Gaussian smearing, width (Ry)=  0.0005
                       cart. coord. in units 2pi/alat
        k(    1) = (   0.0000000   0.0000000   0.0000000), wk =   0.0011574
        k(    2) = (  -0.0833333   0.0833333  -0.0833333), wk =   0.0092593
        k(    3) = (  -0.1666667   0.1666667  -0.1666667), wk =   0.0092593
        k(    4) = (  -0.2500000   0.2500000  -0.2500000), wk =   0.0092593
        k(    5) = (  -0.3333333   0.3333333  -0.3333333), wk =   0.0092593
        k(    6) = (  -0.4166667   0.4166667  -0.4166667), wk =   0.0092593
        k(    7) = (   0.5000000  -0.5000000   0.5000000), wk =   0.0046296
        k(    8) = (   0.0000000   0.1666667   0.0000000), wk =   0.0069444
        k(    9) = (  -0.0833333   0.2500000  -0.0833333), wk =   0.0277778
        k(   10) = (  -0.1666667   0.3333333  -0.1666667), wk =   0.0277778
        k(   11) = (  -0.2500000   0.4166667  -0.2500000), wk =   0.0277778
        k(   12) = (  -0.3333333   0.5000000  -0.3333333), wk =   0.0277778
        k(   13) = (   0.5833333  -0.4166667   0.5833333), wk =   0.0277778
        k(   14) = (   0.5000000  -0.3333333   0.5000000), wk =   0.0277778
        k(   15) = (   0.4166667  -0.2500000   0.4166667), wk =   0.0277778
        k(   16) = (   0.3333333  -0.1666667   0.3333333), wk =   0.0277778
        k(   17) = (   0.2500000  -0.0833333   0.2500000), wk =   0.0277778
        k(   18) = (   0.1666667  -0.0000000   0.1666667), wk =   0.0138889
        k(   19) = (   0.0000000   0.3333333   0.0000000), wk =   0.0069444
        k(   20) = (  -0.0833333   0.4166667  -0.0833333), wk =   0.0277778
        k(   21) = (  -0.1666667   0.5000000  -0.1666667), wk =   0.0277778
        k(   22) = (  -0.2500000   0.5833333  -0.2500000), wk =   0.0277778
        k(   23) = (   0.6666667  -0.3333333   0.6666667), wk =   0.0277778
        k(   24) = (   0.5833333  -0.2500000   0.5833333), wk =   0.0277778
        k(   25) = (   0.5000000  -0.1666667   0.5000000), wk =   0.0277778
        k(   26) = (   0.4166667  -0.0833333   0.4166667), wk =   0.0277778
        k(   27) = (   0.3333333   0.0000000   0.3333333), wk =   0.0138889
        k(   28) = (   0.0000000   0.5000000   0.0000000), wk =   0.0069444
        k(   29) = (  -0.0833333   0.5833333  -0.0833333), wk =   0.0277778
        k(   30) = (  -0.1666667   0.6666667  -0.1666667), wk =   0.0277778
        k(   31) = (   0.7500000  -0.2500000   0.7500000), wk =   0.0277778
        k(   32) = (   0.6666667  -0.1666667   0.6666667), wk =   0.0277778
        k(   33) = (   0.5833333  -0.0833333   0.5833333), wk =   0.0277778
        k(   34) = (   0.5000000   0.0000000   0.5000000), wk =   0.0138889
        k(   35) = (   0.0000000   0.6666667   0.0000000), wk =   0.0069444
        k(   36) = (  -0.0833333   0.7500000  -0.0833333), wk =   0.0277778
        k(   37) = (   0.8333333  -0.1666667   0.8333333), wk =   0.0277778
        k(   38) = (   0.7500000  -0.0833333   0.7500000), wk =   0.0277778
        k(   39) = (   0.6666667  -0.0000000   0.6666667), wk =   0.0138889
        k(   40) = (   0.0000000   0.8333333   0.0000000), wk =   0.0069444
        k(   41) = (   0.9166667  -0.0833333   0.9166667), wk =   0.0277778
        k(   42) = (   0.8333333   0.0000000   0.8333333), wk =   0.0138889
        k(   43) = (   0.0000000  -1.0000000   0.0000000), wk =   0.0034722
        k(   44) = (  -0.1666667   0.3333333   0.0000000), wk =   0.0277778
        k(   45) = (  -0.2500000   0.4166667  -0.0833333), wk =   0.0555556
        k(   46) = (  -0.3333333   0.5000000  -0.1666667), wk =   0.0555556
        k(   47) = (   0.5833333  -0.4166667   0.7500000), wk =   0.0555556
        k(   48) = (   0.5000000  -0.3333333   0.6666667), wk =   0.0277778
        k(   49) = (  -0.1666667   0.5000000   0.0000000), wk =   0.0277778
        k(   50) = (  -0.2500000   0.5833333  -0.0833333), wk =   0.0555556
        k(   51) = (   0.6666667  -0.3333333   0.8333333), wk =   0.0555556
        k(   52) = (   0.5833333  -0.2500000   0.7500000), wk =   0.0555556
        k(   53) = (   0.5000000  -0.1666667   0.6666667), wk =   0.0555556
        k(   54) = (   0.4166667  -0.0833333   0.5833333), wk =   0.0555556
        k(   55) = (   0.3333333   0.0000000   0.5000000), wk =   0.0277778
        k(   56) = (  -0.1666667   0.6666667  -0.0000000), wk =   0.0277778
        k(   57) = (   0.7500000  -0.2500000   0.9166667), wk =   0.0555556
        k(   58) = (   0.6666667  -0.1666667   0.8333333), wk =   0.0555556
        k(   59) = (   0.5833333  -0.0833333   0.7500000), wk =   0.0555556
        k(   60) = (   0.5000000   0.0000000   0.6666667), wk =   0.0277778
        k(   61) = (   0.8333333  -0.1666667   1.0000000), wk =   0.0277778
        k(   62) = (   0.7500000  -0.0833333   0.9166667), wk =   0.0555556
        k(   63) = (   0.6666667   0.0000000   0.8333333), wk =   0.0277778
        k(   64) = (  -0.1666667  -1.0000000  -0.0000000), wk =   0.0138889
        k(   65) = (   0.6666667  -0.3333333   1.0000000), wk =   0.0277778
        k(   66) = (   0.5833333  -0.2500000   0.9166667), wk =   0.0555556
        k(   67) = (   0.5000000  -0.1666667   0.8333333), wk =   0.0277778
        k(   68) = (   0.6666667  -0.1666667   1.0000000), wk =   0.0277778
        k(   69) = (   0.5833333  -0.0833333   0.9166667), wk =   0.0555556
        k(   70) = (   0.5000000   0.0000000   0.8333333), wk =   0.0277778
        k(   71) = (  -0.3333333  -1.0000000   0.0000000), wk =   0.0138889
        k(   72) = (  -0.5000000  -1.0000000   0.0000000), wk =   0.0069444

     Dense  grid:    30347 G-vectors     FFT dimensions: (  45,  45,  45)

     Estimated max dynamical RAM per process >       4.95 MB

     Estimated total dynamical RAM >     111.44 MB

     Initial potential from superposition of free atoms

     starting charge      15.7089, renormalised to      16.0000
     Starting wfcs are random

     total cpu time spent up to now is        0.6 secs

     Self-consistent Calculation

     iteration #  1     ecut=    71.00 Ry     beta= 0.70
     Davidson diagonalization with overlap
     ethr =  1.00E-02,  avg # of iterations =  8.7

     Threshold (ethr) on eigenvalues was too large:
     Diagonalizing with lowered threshold

     Davidson diagonalization with overlap
     ethr =  6.59E-04,  avg # of iterations =  1.5

     total cpu time spent up to now is        2.3 secs

     total energy              =     -83.00099851 Ry
     estimated scf accuracy    <       0.10644986 Ry

     iteration #  2     ecut=    71.00 Ry     beta= 0.70
     Davidson diagonalization with overlap
     ethr =  6.65E-04,  avg # of iterations =  2.7

     total cpu time spent up to now is        2.9 secs

     total energy              =     -83.02869979 Ry
     estimated scf accuracy    <       0.04915745 Ry

     iteration #  3     ecut=    71.00 Ry     beta= 0.70
     Davidson diagonalization with overlap
     ethr =  3.07E-04,  avg # of iterations =  2.2

     total cpu time spent up to now is        3.4 secs

     total energy              =     -83.03956714 Ry
     estimated scf accuracy    <       0.00074232 Ry

     iteration #  4     ecut=    71.00 Ry     beta= 0.70
     Davidson diagonalization with overlap
     c_bands:  1 eigenvalues not converged
     ethr =  4.64E-06,  avg # of iterations =  8.2

     total cpu time spent up to now is        4.1 secs

     total energy              =     -83.03967256 Ry
     estimated scf accuracy    <       0.00001040 Ry

     iteration #  5     ecut=    71.00 Ry     beta= 0.70
     Davidson diagonalization with overlap
     ethr =  6.50E-08,  avg # of iterations =  2.4

     total cpu time spent up to now is        4.6 secs

     total energy              =     -83.03967631 Ry
     estimated scf accuracy    <       0.00000040 Ry

     iteration #  6     ecut=    71.00 Ry     beta= 0.70
     Davidson diagonalization with overlap
     ethr =  2.52E-09,  avg # of iterations =  2.4

     total cpu time spent up to now is        5.1 secs

     total energy              =     -83.03967654 Ry
     estimated scf accuracy    <       0.00000002 Ry

     iteration #  7     ecut=    71.00 Ry     beta= 0.70
     Davidson diagonalization with overlap
     ethr =  9.51E-11,  avg # of iterations =  2.4

     total cpu time spent up to now is        5.7 secs

     total energy              =     -83.03967654 Ry
     estimated scf accuracy    <          3.2E-10 Ry

     iteration #  8     ecut=    71.00 Ry     beta= 0.70
     Davidson diagonalization with overlap
     ethr =  2.01E-12,  avg # of iterations =  3.6

     total cpu time spent up to now is        6.4 secs

     End of self-consistent calculation

          k = 0.0000 0.0000 0.0000 (  3719 PWs)   bands (ev):

   -27.8248  -9.7674  -9.7674  -9.7674  -5.1092   5.6599   5.6599   5.6599
     9.2515  10.1069  10.1069  10.1069  10.9829  10.9829  15.4274  20.5723

          k =-0.0833 0.0833-0.0833 (  3761 PWs)   bands (ev):

   -27.8237  -9.7947  -9.7689  -9.7689  -5.0582   5.3972   5.5671   5.5671
     9.5327  10.1402  10.2188  10.2188  11.1768  11.1768  15.7271  19.8728

          k =-0.1667 0.1667-0.1667 (  3768 PWs)   bands (ev):

   -27.8206  -9.8669  -9.7729  -9.7729  -4.9195   4.8160   5.3377   5.3377
     9.8952  10.5355  10.5355  10.5577  11.7185  11.7185  16.4891  18.6913

          k =-0.2500 0.2500-0.2500 (  3756 PWs)   bands (ev):

   -27.8163  -9.9608  -9.7784  -9.7784  -4.7303   4.1883   5.0667   5.0667
    10.0689  11.0278  11.0278  11.3978  12.5056  12.5056  16.7778  18.0482

          k =-0.3333 0.3333-0.3333 (  3759 PWs)   bands (ev):

   -27.8121 -10.0499  -9.7838  -9.7838  -4.5401   3.6594   4.8302   4.8302
    10.3484  11.6602  11.6602  12.0833  13.4095  13.4095  16.1999  16.8008

          k =-0.4167 0.4167-0.4167 (  3768 PWs)   bands (ev):

   -27.8090 -10.1125  -9.7878  -9.7878  -4.3991   3.3098   4.6734   4.6734
    10.7425  12.2076  12.3339  12.3339  14.2472  14.2472  15.7222  15.7222

          k = 0.5000-0.5000 0.5000 (  3798 PWs)   bands (ev):

   -27.8078 -10.1349  -9.7893  -9.7893  -4.3470   3.1876   4.6189   4.6189
    11.0044  12.0482  12.6993  12.6993  14.6557  14.6557  15.1952  15.1952

          k = 0.0000 0.1667 0.0000 (  3767 PWs)   bands (ev):

   -27.8233  -9.7948  -9.7735  -9.7735  -5.0439   5.2396   5.5964   5.5964
     9.5808   9.9015  10.3721  10.3721  11.0447  11.4567  15.8208  19.7837

          k =-0.0833 0.2500-0.0833 (  3759 PWs)   bands (ev):

   -27.8209  -9.8473  -9.7802  -9.7759  -4.9421   4.8067   5.4176   5.4616
     9.7790  10.0256  10.7125  10.7129  11.3041  12.0795  16.4284  18.7620

          k =-0.1667 0.3333-0.1667 (  3761 PWs)   bands (ev):

   -27.8170  -9.9305  -9.7872  -9.7796  -4.7806   4.2963   5.1199   5.2271
     9.8328  10.6625  11.1951  11.2533  11.9050  12.8884  16.9375  17.9100

          k =-0.2500 0.4167-0.2500 (  3765 PWs)   bands (ev):

   -27.8128 -10.0175  -9.7927  -9.7861  -4.6023   3.8173   4.8492   4.9771
    10.0584  11.3371  11.8095  11.9174  12.6969  13.6781  16.2406  16.8935

          k =-0.3333 0.5000-0.3333 (  3771 PWs)   bands (ev):

   -27.8093 -10.0860  -9.7951  -9.7938  -4.4539   3.4569   4.6706   4.7739
    10.4496  11.9730  12.2924  12.4635  13.5195  14.3020  15.7528  15.9379

          k = 0.5833-0.4167 0.5833 (  3772 PWs)   bands (ev):

   -27.8075 -10.1204  -9.8003  -9.7939  -4.3755   3.2769   4.6055   4.6541
    10.8855  11.9433  12.6985  12.7523  14.3243  14.7103  15.1176  15.4140

          k = 0.5000-0.3333 0.5000 (  3769 PWs)   bands (ev):

   -27.8079 -10.1134  -9.8040  -9.7894  -4.3895   3.3085   4.6351   4.6565
    10.8522  12.0027  12.3357  12.8264  13.8841  15.0123  15.3612  15.5133

          k = 0.4167-0.2500 0.4167 (  3772 PWs)   bands (ev):

   -27.8103 -10.0668  -9.8036  -9.7827  -4.4920   3.5492   4.7199   4.8140
    10.4566  11.6672  12.0398  12.3750  13.1797  14.2583  15.9211  16.4979

          k = 0.3333-0.1667 0.3333 (  3765 PWs)   bands (ev):

   -27.8142  -9.9909  -9.7989  -9.7756  -4.6543   3.9635   4.8970   5.0531
    10.1521  11.0479  11.3550  11.7528  12.6483  13.3100  16.4169  17.2682

          k = 0.2500-0.0833 0.2500 (  3755 PWs)   bands (ev):

   -27.8184  -9.9040  -9.7907  -9.7701  -4.8329   4.4875   5.1377   5.3220
    10.0153  10.5500  10.5750  11.1454  11.9512  12.4009  16.9088  17.7267

          k = 0.1667-0.0000 0.1667 (  3771 PWs)   bands (ev):

   -27.8219  -9.8311  -9.7798  -9.7677  -4.9807   5.0235   5.3879   5.5257
     9.8662  10.0651  10.2899  10.6329  11.3577  11.6565  16.1818  18.9398

          k = 0.0000 0.3333 0.0000 (  3767 PWs)   bands (ev):

   -27.8192  -9.8595  -9.7901  -9.7901  -4.8951   4.5277   5.4573   5.4573
     9.4358  10.0881  11.0911  11.0911  11.2214  12.7578  16.8284  18.5566

          k =-0.0833 0.4167-0.0833 (  3761 PWs)   bands (ev):

   -27.8160  -9.9136  -9.7998  -9.7968  -4.7925   4.2096   5.2723   5.3266
     9.3196  10.4959  11.4384  11.5784  11.6707  13.5397  17.1818  17.6419

          k =-0.1667 0.5000-0.1667 (  3756 PWs)   bands (ev):

   -27.8122  -9.9829  -9.8069  -9.8046  -4.6625   3.9226   4.9683   5.1238
     9.4581  11.1568  11.9561  12.1127  12.3241  14.1175  16.1235  16.9780

          k =-0.2500 0.5833-0.2500 (  3776 PWs)   bands (ev):

   -27.8087 -10.0438  -9.8164  -9.8094  -4.5388   3.6876   4.7084   4.9153
     9.8133  11.8609  12.5470  12.6488  12.9370  14.1827  15.4495  16.1946

          k = 0.6667-0.3333 0.6667 (  3768 PWs)   bands (ev):

   -27.8065 -10.0810  -9.8295  -9.8066  -4.4533   3.5254   4.5819   4.7523
    10.3488  11.9420  12.9063  12.9140  13.7194  14.2783  14.9839  15.8358

          k = 0.5833-0.2500 0.5833 (  3762 PWs)   bands (ev):

   -27.8062 -10.0869  -9.8395  -9.7994  -4.4287   3.4715   4.6011   4.6653
    10.8847  11.5656  12.4778  13.0195  13.8688  14.7482  15.4053  15.7969

          k = 0.5000-0.1667 0.5000 (  3766 PWs)   bands (ev):

   -27.8079 -10.0618  -9.8422  -9.7896  -4.4726   3.5534   4.6682   4.7403
    10.7178  11.7907  11.8445  12.5614  13.2957  15.0843  15.8268  16.1424

          k = 0.4167-0.0833 0.4167 (  3768 PWs)   bands (ev):

   -27.8111 -10.0132  -9.8345  -9.7798  -4.5741   3.7719   4.7607   4.9563
    10.4155  11.2611  11.3365  12.4824  12.7397  14.2322  15.9336  16.9972

          k = 0.3333 0.0000 0.3333 (  3761 PWs)   bands (ev):

   -27.8150  -9.9555  -9.8159  -9.7727  -4.7061   4.1007   4.9279   5.1818
    10.2231  10.7558  10.8239  11.7605  12.5184  13.2711  16.5355  17.2924

          k = 0.0000 0.5000 0.0000 (  3767 PWs)   bands (ev):

   -27.8136  -9.9266  -9.8127  -9.8127  -4.7650   4.0645   5.3258   5.3258
     8.9353  10.6111  11.4833  12.0862  12.0862  14.2453  16.6910  17.5429

          k =-0.0833 0.5833-0.0833 (  3775 PWs)   bands (ev):

   -27.8105  -9.9646  -9.8242  -9.8225  -4.7066   3.9555   5.1592   5.2243
     8.8708  11.0432  11.7738  12.5953  12.6336  14.6410  15.6828  17.0596

          k =-0.1667 0.6667-0.1667 (  3779 PWs)   bands (ev):

   -27.8074 -10.0041  -9.8414  -9.8266  -4.6321   3.9004   4.8593   5.0621
     9.1087  11.7197  12.3321  12.9503  13.0806  14.2010  15.1500  16.5718

          k = 0.7500-0.2500 0.7500 (  3775 PWs)   bands (ev):

   -27.8052 -10.0301  -9.8645  -9.8239  -4.5594   3.8631   4.6000   4.8919
     9.5842  12.1844  13.0731  13.0857  13.1548  13.6932  15.0100  16.4266

          k = 0.6667-0.1667 0.6667 (  3778 PWs)   bands (ev):

   -27.8045 -10.0387  -9.8850  -9.8151  -4.5067   3.7815   4.5219   4.7566
    10.2499  11.7650  12.7460  12.9828  13.8062  14.0093  15.3604  16.6228

          k = 0.5833-0.0833 0.5833 (  3773 PWs)   bands (ev):

   -27.8055 -10.0349  -9.8898  -9.8026  -4.4890   3.6908   4.6165   4.6836
    10.9860  11.3012  12.1790  12.3259  14.0180  14.9269  15.7550  16.3617

          k = 0.5000 0.0000 0.5000 (  3775 PWs)   bands (ev):

   -27.8080 -10.0266  -9.8705  -9.7897  -4.5132   3.6768   4.6851   4.7879
    10.8081  11.4412  11.6521  12.2479  13.3655  15.0829  15.8918  16.5419

          k = 0.0000 0.6667 0.0000 (  3771 PWs)   bands (ev):

   -27.8081  -9.9720  -9.8354  -9.8354  -4.7241   3.9817   5.2418   5.2418
     8.5267  11.1752  11.7752  13.0731  13.0731  14.7295  15.2703  17.0798

          k =-0.0833 0.7500-0.0833 (  3768 PWs)   bands (ev):

   -27.8057  -9.9883  -9.8509  -9.8422  -4.7097   4.0407   5.0888   5.1704
     8.5425  11.5990  12.0524  13.3395  13.4031  14.0334  15.1750  17.0547

          k = 0.8333-0.1667 0.8333 (  3777 PWs)   bands (ev):

   -27.8039  -9.9942  -9.8821  -9.8410  -4.6656   4.1307   4.7623   5.0387
     8.8808  12.2542  12.5737  13.0179  13.4222  13.5128  15.2076  17.1853

          k = 0.7500-0.0833 0.7500 (  3779 PWs)   bands (ev):

   -27.8032  -9.9846  -9.9239  -9.8323  -4.6023   4.1772   4.4545   4.8897
     9.4579  12.3103  12.9125  13.0942  13.2697  13.2889  15.5908  17.0828

          k = 0.6667-0.0000 0.6667 (  3765 PWs)   bands (ev):

   -27.8038  -9.9954  -9.9311  -9.8183  -4.5371   3.9413   4.4817   4.7624
    10.2142  11.7680  12.4913  12.6284  13.9756  14.1059  16.0362  16.1539

          k = 0.0000 0.8333 0.0000 (  3788 PWs)   bands (ev):

   -27.8041  -9.9925  -9.8520  -9.8520  -4.7509   4.1411   5.2038   5.2038
     8.2662  11.6384  12.0132  13.6365  13.6365  13.6555  15.1319  17.5671

          k = 0.9167-0.0833 0.9167 (  3789 PWs)   bands (ev):

   -27.8029  -9.9927  -9.8686  -9.8535  -4.7436   4.2299   5.0497   5.1515
     8.3718  11.9261  12.2280  13.3111  13.5323  13.6592  15.1307  18.0872

          k = 0.8333 0.0000 0.8333 (  3777 PWs)   bands (ev):

   -27.8026  -9.9791  -9.9062  -9.8463  -4.6892   4.3059   4.6878   5.0342
     8.8025  12.4490  12.6689  12.9375  13.1431  13.4459  15.4456  17.7894

          k = 0.0000-1.0000 0.0000 (  3812 PWs)   bands (ev):

   -27.8026  -9.9974  -9.8581  -9.8581  -4.7722   4.2505   5.1941   5.1941
     8.1772  11.7695  12.1067  13.3451  13.7556  13.7556  14.9206  18.7273

          k =-0.1667 0.3333 0.0000 (  3758 PWs)   bands (ev):

   -27.8181  -9.8953  -9.7970  -9.7775  -4.8369   4.4233   5.2236   5.3705
     9.7055  10.3398  10.9482  11.2423  11.6736  12.8260  17.0430  17.6218

          k =-0.2500 0.4167-0.0833 (  3763 PWs)   bands (ev):

   -27.8142  -9.9643  -9.8117  -9.7815  -4.6943   4.0362   4.9690   5.1595
     9.8080  10.8839  11.3801  11.8107  12.3340  13.6111  16.4696  17.3035

          k =-0.3333 0.5000-0.1667 (  3773 PWs)   bands (ev):

   -27.8104 -10.0328  -9.8206  -9.7890  -4.5524   3.7077   4.7532   4.9229
    10.0831  11.5244  11.9707  12.4927  12.7944  14.2414  15.8394  16.5861

          k = 0.5833-0.4167 0.7500 (  3765 PWs)   bands (ev):

   -27.8075 -10.0819  -9.8241  -9.7968  -4.4486   3.4857   4.6275   4.7393
    10.5188  11.8743  12.3990  12.8766  13.3871  14.8615  15.2792  15.8448

          k = 0.5000-0.3333 0.6667 (  3760 PWs)   bands (ev):

   -27.8065 -10.0996  -9.8246  -9.8004  -4.4105   3.4070   4.5957   4.6628
    10.8802  11.5874  12.8033  12.9425  14.0484  14.5693  15.4204  15.4450

          k =-0.1667 0.5000 0.0000 (  3764 PWs)   bands (ev):

   -27.8129  -9.9535  -9.8205  -9.8005  -4.7129   4.0036   5.1142   5.2211
     9.2360  10.8481  11.7795  11.9646  12.3016  14.1754  16.2948  17.2967

          k =-0.2500 0.5833-0.0833 (  3772 PWs)   bands (ev):

   -27.8094  -9.9998  -9.8373  -9.8075  -4.6198   3.8519   4.8714   5.0379
     9.4284  11.3809  12.3820  12.4319  12.7790  14.3487  15.5361  16.7601

          k = 0.6667-0.3333 0.8333 (  3775 PWs)   bands (ev):

   -27.8066 -10.0374  -9.8495  -9.8154  -4.5370   3.7502   4.6556   4.8583
     9.8356  11.8966  12.6036  12.9015  13.2335  14.3367  15.0820  16.2550

          k = 0.5833-0.2500 0.7500 (  3768 PWs)   bands (ev):

   -27.8052 -10.0562  -9.8603  -9.8163  -4.4854   3.6805   4.5624   4.7309
    10.4159  11.5334  13.0070  13.0876  13.4468  14.4264  15.2271  16.1107

          k = 0.5000-0.1667 0.6667 (  3768 PWs)   bands (ev):

   -27.8055 -10.0532  -9.8667  -9.8089  -4.4787   3.6512   4.6050   4.6903
    10.7773  11.2746  12.5683  12.7741  13.7544  14.8239  15.5121  15.9943

          k = 0.4167-0.0833 0.5833 (  3773 PWs)   bands (ev):

   -27.8076 -10.0317  -9.8616  -9.7975  -4.5197   3.6928   4.6873   4.8022
    10.3525  11.5771  12.1654  12.3579  13.3331  14.9513  15.4219  16.4952

          k = 0.3333 0.0000 0.5000 (  3761 PWs)   bands (ev):

   -27.8108  -9.9996  -9.8416  -9.7872  -4.5985   3.8230   4.8048   4.9991
    10.0078  11.1866  11.6919  12.5266  12.6548  14.2640  15.8679  17.0195

          k =-0.1667 0.6667-0.0000 (  3772 PWs)   bands (ev):

   -27.8077  -9.9853  -9.8440  -9.8293  -4.6773   3.9513   5.0436   5.1211
     8.8495  11.3941  12.1169  12.9961  13.0599  14.4348  15.2046  16.9386

          k = 0.7500-0.2500 0.9167 (  3771 PWs)   bands (ev):

   -27.8053 -10.0010  -9.8652  -9.8380  -4.6316   3.9948   4.7911   4.9755
     9.1364  11.8747  12.5749  13.0787  13.3143  13.8909  15.1462  16.7691

          k = 0.6667-0.1667 0.8333 (  3776 PWs)   bands (ev):

   -27.8039 -10.0051  -9.8935  -9.8371  -4.5804   4.0313   4.5481   4.8385
     9.6533  11.9336  12.6669  13.2323  13.3592  13.8644  15.3912  16.8645

          k = 0.5833-0.0833 0.7500 (  3779 PWs)   bands (ev):

   -27.8038 -10.0051  -9.9130  -9.8266  -4.5370   3.9371   4.5126   4.7330
    10.3506  11.3359  12.6046  13.0237  13.4346  14.6994  15.7243  16.3479

          k = 0.5000 0.0000 0.6667 (  3781 PWs)   bands (ev):

   -27.8052 -10.0174  -9.8993  -9.8116  -4.5142   3.7813   4.6410   4.6804
    10.7923  11.1440  12.1773  12.5768  13.9155  14.9727  15.5407  16.3619

          k = 0.8333-0.1667 1.0000 (  3772 PWs)   bands (ev):

   -27.8039  -9.9909  -9.8612  -9.8560  -4.7074   4.1448   4.9950   5.0713
     8.6035  11.8439  12.4084  13.1550  13.6132  13.6189  15.2244  17.3669

          k = 0.7500-0.0833 0.9167 (  3782 PWs)   bands (ev):

   -27.8029  -9.9804  -9.8954  -9.8561  -4.6700   4.2626   4.6939   4.9518
     8.9831  12.1884  12.5260  13.1143  13.2399  13.6360  15.5049  17.5674

          k = 0.6667 0.0000 0.8333 (  3775 PWs)   bands (ev):

   -27.8029  -9.9543  -9.9472  -9.8443  -4.6074   4.2991   4.3955   4.8335
     9.5887  11.9141  12.6192  12.9443  13.3903  13.9839  15.8547  16.8741

          k =-0.1667-1.0000-0.0000 (  3778 PWs)   bands (ev):

   -27.8026  -9.9881  -9.8681  -9.8675  -4.7299   4.2783   4.9678   5.0573
     8.5198  11.9700  12.5381  13.1177  13.2420  13.7611  15.2652  18.2799

          k = 0.6667-0.3333 1.0000 (  3774 PWs)   bands (ev):

   -27.8066 -10.0093  -9.8674  -9.8181  -4.5779   3.8505   4.7525   4.8721
     9.6824  11.6204  12.4010  12.7981  13.2700  14.4711  15.1630  16.6673

          k = 0.5833-0.2500 0.9167 (  3775 PWs)   bands (ev):

   -27.8046 -10.0121  -9.8874  -9.8318  -4.5479   3.8989   4.6266   4.7335
    10.1351  11.4610  12.3057  13.1698  13.5833  14.5424  15.4267  16.4346

          k = 0.5000-0.1667 0.8333 (  3766 PWs)   bands (ev):

   -27.8038 -10.0124  -9.8940  -9.8384  -4.5370   3.9331   4.5549   4.6921
    10.6620  10.8457  12.8623  12.9832  13.3565  15.0666  15.5675  16.2765

          k = 0.6667-0.1667 1.0000 (  3765 PWs)   bands (ev):

   -27.8036  -9.9866  -9.8863  -9.8595  -4.6180   4.1272   4.6808   4.8044
     9.4664  11.8902  12.1702  13.3687  13.5644  13.8413  15.5908  16.9106

          k = 0.5833-0.0833 0.9167 (  3774 PWs)   bands (ev):

   -27.8029  -9.9657  -9.9161  -9.8671  -4.5950   4.2341   4.5151   4.6981
    10.0094  11.2590  12.4068  12.9187  13.6469  14.7853  15.9710  16.7386

          k = 0.5000 0.0000 0.8333 (  3771 PWs)   bands (ev):

   -27.8032  -9.9751  -9.9204  -9.8531  -4.5691   4.1047   4.5614   4.6541
    10.6335  10.7050  12.3980  13.0933  13.4776  15.4709  15.5856  16.3750

          k =-0.3333-1.0000 0.0000 (  3786 PWs)   bands (ev):

   -27.8025  -9.9628  -9.8932  -9.8879  -4.6439   4.3690   4.5645   4.7840
     9.3922  11.8908  12.1713  12.9744  13.7723  13.9556  15.8672  17.4585

          k =-0.5000-1.0000 0.0000 (  3736 PWs)   bands (ev):

   -27.8025  -9.9281  -9.9281  -9.8977  -4.6001   4.3812   4.5370   4.5370
    10.5731  10.5731  12.3115  12.8011  13.7780  15.6034  15.9739  16.6075

     the Fermi energy is     6.9880 ev

!    total energy              =     -83.03967654 Ry
     estimated scf accuracy    <          2.6E-11 Ry
     smearing contrib. (-TS)   =      -0.00000000 Ry
     internal energy E=F+TS    =     -83.03967654 Ry

     The total energy is F=E-TS. E is the sum of the following terms:
     one-electron contribution =     -17.61391024 Ry
     hartree contribution      =      13.90721739 Ry
     xc contribution           =     -13.33413255 Ry
     ewald contribution        =     -65.99885114 Ry

     convergence has been achieved in   8 iterations

     Writing all to output data dir out/mp-1087.save/
 
     init_run     :      0.19s CPU      0.26s WALL (       1 calls)
     electrons    :      5.20s CPU      5.79s WALL (       1 calls)

     Called by init_run:
     wfcinit      :      0.15s CPU      0.18s WALL (       1 calls)
     potinit      :      0.01s CPU      0.01s WALL (       1 calls)
     hinit0       :      0.01s CPU      0.04s WALL (       1 calls)

     Called by electrons:
     c_bands      :      4.52s CPU      4.97s WALL (       9 calls)
     sum_band     :      0.63s CPU      0.74s WALL (       9 calls)
     v_of_rho     :      0.04s CPU      0.04s WALL (       9 calls)
     mix_rho      :      0.01s CPU      0.01s WALL (       9 calls)

     Called by c_bands:
     init_us_2    :      0.06s CPU      0.07s WALL (     684 calls)
     init_us_2:cp :      0.06s CPU      0.06s WALL (     684 calls)
     cegterg      :      3.97s CPU      4.13s WALL (     324 calls)

     Called by *egterg:
     cdiaghg      :      0.43s CPU      0.45s WALL (    1483 calls)
     h_psi        :      3.33s CPU      3.48s WALL (    1555 calls)
     g_psi        :      0.02s CPU      0.02s WALL (    1195 calls)

     Called by h_psi:
     h_psi:calbec :      0.08s CPU      0.10s WALL (    1555 calls)
     vloc_psi     :      3.18s CPU      3.30s WALL (    1555 calls)
     add_vuspsi   :      0.05s CPU      0.06s WALL (    1555 calls)

     General routines
     calbec       :      0.08s CPU      0.10s WALL (    1555 calls)
     fft          :      0.02s CPU      0.05s WALL (      90 calls)
     ffts         :      0.00s CPU      0.00s WALL (       9 calls)
     fftw         :      3.42s CPU      3.55s WALL (   36902 calls)
     davcio       :      0.06s CPU      0.37s WALL (    1112 calls)
 
     Parallel routines
 
     PWSCF        :      5.47s CPU      6.64s WALL

 
   This run was terminated on:  23:18:35  19Nov2023            

=------------------------------------------------------------------------------=
   JOB DONE.
=------------------------------------------------------------------------------=
