
     Program PWSCF v.7.1 starts on 18Nov2023 at 20:23:26 

     This program is part of the open-source Quantum ESPRESSO suite
     for quantum simulation of materials; please cite
         "P. Giannozzi et al., J. Phys.:Condens. Matter 21 395502 (2009);
         "P. Giannozzi et al., J. Phys.:Condens. Matter 29 465901 (2017);
         "P. Giannozzi et al., J. Chem. Phys. 152 154105 (2020);
          URL http://www.quantum-espresso.org", 
     in publications or presentations arising from this work. More details at
     http://www.quantum-espresso.org/quote

     Parallel version (MPI), running on     8 processors

     MPI processes distributed on     1 nodes
     123620 MiB available memory on the printing compute node when the environment starts
 
     Reading input from pw_mp-1087_nscf_k10_E71.in
Warning: card &IONS ignored
Warning: card / ignored
Warning: card &CELL ignored
Warning: card / ignored

     Current dimensions of program PWSCF are:
     Max number of different atomic species (ntypx) = 10
     Max number of k-points (npk) =  40000
     Max angular momentum in pseudopotentials (lmaxx) =  4

     Atomic positions and unit cell read from directory:
     out/mp-1087.save/
     Atomic positions from file used, from input discarded
 
 
     R & G space division:  proc/nbgrp/npool/nimage =       8
     Subspace diagonalization in iterative solution of the eigenvalue problem:
     one sub-group per band group will be used
     scalapack distributed-memory algorithm (size of sub-group:  2*  2 procs)

 
     Parallelization info
     --------------------
     sticks:   dense  smooth     PW     G-vecs:    dense   smooth      PW
     Min         160     160     45                 3792     3792     570
     Max         161     161     46                 3795     3795     573
     Sum        1285    1285    361                30347    30347    4573
 
     Using Slab Decomposition
 


     bravais-lattice index     =            2
     lattice parameter (alat)  =      11.4291  a.u.
     unit-cell volume          =     373.2322 (a.u.)^3
     number of atoms/cell      =            2
     number of atomic types    =            2
     number of electrons       =        16.00
     number of Kohn-Sham states=         1200
     kinetic-energy cutoff     =      71.0000  Ry
     charge density cutoff     =     284.0000  Ry
     Exchange-correlation= PBE
                           (   1   4   3   4   0   0   0)

     celldm(1)=  11.429126  celldm(2)=   0.000000  celldm(3)=   0.000000
     celldm(4)=   0.000000  celldm(5)=   0.000000  celldm(6)=   0.000000

     crystal axes: (cart. coord. in units of alat)
               a(1) = (  -0.500000   0.000000   0.500000 )  
               a(2) = (   0.000000   0.500000   0.500000 )  
               a(3) = (  -0.500000   0.500000   0.000000 )  

     reciprocal axes: (cart. coord. in units 2 pi/alat)
               b(1) = ( -1.000000 -1.000000  1.000000 )  
               b(2) = (  1.000000  1.000000  1.000000 )  
               b(3) = ( -1.000000  1.000000 -1.000000 )  


     PseudoPot. # 1 for S  read from file:
     /usr/scratch4/magr4985/MG/HTDF/pseudo/SG15/S.upf
     MD5 check sum: f9d020296ee6110346977bfd66d424f6
     Pseudo is Norm-conserving, Zval =  6.0
     Generated using ONCVPSP code by D. R. Hamann
     Using radial grid of  602 points,  4 beta functions with: 
                l(1) =   0
                l(2) =   0
                l(3) =   1
                l(4) =   1

     PseudoPot. # 2 for Sr read from file:
     /usr/scratch4/magr4985/MG/HTDF/pseudo/SG15/Sr.upf
     MD5 check sum: 3f9bc8d6f3e8472da0cbe0e6a3044a9f
     Pseudo is Norm-conserving, Zval = 10.0
     Generated using ONCVPSP code by D. R. Hamann
     Using radial grid of  602 points,  6 beta functions with: 
                l(1) =   0
                l(2) =   0
                l(3) =   1
                l(4) =   1
                l(5) =   2
                l(6) =   2

     atomic species   valence    mass     pseudopotential
        S              6.00    32.06500     S ( 1.00)
        Sr            10.00    87.62000     Sr( 1.00)

     48 Sym. Ops., with inversion, found



   Cartesian axes

     site n.     atom                  positions (alat units)
         1           Sr  tau(   1) = (   0.0000000   0.0000000   0.0000000  )
         2           S   tau(   2) = (  -0.5000000   0.5000000   0.5000000  )

     number of k points=     3  Gaussian smearing, width (Ry)=  0.0005
                       cart. coord. in units 2pi/alat
        k(    1) = (   0.0000000   0.0000000   0.0000000), wk =   0.2500000
        k(    2) = (   0.5000000  -0.5000000   0.5000000), wk =   1.0000000
        k(    3) = (   0.0000000  -1.0000000   0.0000000), wk =   0.7500000

     Dense  grid:    30347 G-vectors     FFT dimensions: (  45,  45,  45)

     Estimated max dynamical RAM per process >     139.73 MB

     Estimated total dynamical RAM >       1.09 GB

     The potential is recalculated from file :
     out/mp-1087.save/charge-density

     Starting wfcs are random

     Band Structure Calculation
     Davidson diagonalization with overlap

     ethr =  5.00E-06,  avg # of iterations = 12.3

     total cpu time spent up to now is      440.6 secs

     End of band structure calculation

          k = 0.0000 0.0000 0.0000 (  3719 PWs)   bands (ev):

   -27.8248  -9.7674  -9.7674  -9.7674  -5.1091   5.6599   5.6599   5.6599
     9.2515  10.1069  10.1069  10.1069  10.9829  10.9829  15.4274  20.5723
    20.5723  20.5723  22.6135  22.6135  22.6135  24.0349  24.0349  27.8096
    27.8096  27.8096  28.2919  30.3116  30.3116  30.6243  30.6243  30.6243
    32.0204  32.0204  32.0204  38.9734  40.4678  40.4678  40.4678  41.7628
    41.9674  41.9674  41.9674  43.4568  43.4568  43.4568  44.2336  44.2336
    44.2336  45.7999  45.9757  45.9757  45.9757  47.1693  47.1693  47.1963
    47.1963  47.1963  47.8518  47.8518  49.3257  55.2101  55.2101  55.2101
    61.4569  61.4569  61.4569  63.6747  64.7346  64.7346  64.7346  65.9863
    65.9863  65.9863  66.5093  66.5093  67.7501  67.7501  67.7501  71.2814
    72.5277  72.5277  73.4371  73.4371  73.4371  74.1623  74.1623  74.1623
    75.1054  75.9489  75.9489  75.9489  76.4087  76.4087  76.4087  77.4680
    77.4680  77.4680  77.9712  77.9712  77.9712  79.0437  79.0437  79.2400
    79.2400  79.2400  79.8950  79.8950  81.3805  81.3805  81.3805  82.3614
    83.7952  83.7952  84.0905  86.8671  88.2182  88.2182  88.2182  91.8263
    91.8263  91.8263  92.5718  92.5718  92.5718  95.8818  95.8818  95.9741
    95.9741  95.9741  96.0477  96.0477  96.2356  96.2356  96.2356  96.3309
    96.3309  96.3309  97.0587  97.0587  97.0587  98.4838  98.4838  98.4838
    98.8854 100.9954 103.8446 104.3719 104.7212 104.7212 104.7212 105.4136
   105.4136 105.4136 106.1303 106.1303 106.1303 107.7507 107.7507 107.7507
   108.1754 108.1754 108.1754 112.6381 112.6381 112.7605 112.7605 112.7605
   112.9570 114.2637 118.1335 118.1335 118.2842 118.2842 118.2842 121.6643
   121.6643 121.6643 123.1154 123.1154 123.1154 123.5024 123.5024 123.5024
   124.1125 124.1125 128.3954 128.4667 128.4667 128.4667 129.6641 129.6641
   131.0046 131.0046 131.0046 134.2000 134.2000 134.2000 134.4940 134.8788
   134.8788 134.8788 135.3908 135.3908 135.3908 135.6354 135.6354 135.6354
   136.4407 136.4407 137.3444 137.5963 138.1629 138.1629 138.1629 139.2500
   139.2500 139.2500 139.4947 139.6034 139.6034 139.6034 140.1506 140.7177
   140.7177 142.5822 142.5822 142.5822 142.7745 142.7745 142.7745 143.9763
   143.9763 143.9763 144.5817 144.5817 144.6616 144.6616 144.6616 145.0031
   145.0031 145.0031 145.1010 145.1010 145.1010 145.3362 145.3362 145.3362
   145.4043 145.4043 145.6727 145.6727 145.6727 145.7518 145.7518 145.7518
   145.7568 145.7568 145.7878 153.6974 154.0885 154.0885 154.7621 154.7621
   154.7621 155.2499 155.2499 155.2499 155.6643 155.6643 155.6643 155.6643
   155.6643 155.6643 156.9438 156.9438 156.9438 162.1041 162.1041 162.1041
   162.5744 162.5744 162.6424 162.6424 162.6424 162.7400 163.0585 164.6008
   166.0792 166.0792 166.0792 168.9177 168.9177 172.8421 172.8421 172.8421
   172.9541 172.9541 172.9541 173.0567 173.1349 173.1349 173.1491 173.1491
   173.1491 173.3822 173.3822 173.3822 173.3870 173.3870 173.3870 174.6232
   175.5148 175.5148 175.9041 175.9041 175.9041 176.1953 176.1953 176.1953
   176.3401 176.3401 176.4918 176.4918 176.4918 176.8375 176.8375 176.8375
   177.3859 177.3859 177.3859 178.6849 178.6849 180.6555 184.3055 184.3055
   184.3055 187.3382 187.3382 187.3382 189.3795 189.3795 189.3795 189.7807
   190.1216 190.5116 190.5116 190.5116 194.0383 194.0383 194.4083 194.4083
   194.4083 194.7061 194.7061 194.7061 196.2537 197.3335 197.3335 197.3335
   197.9233 197.9233 198.7530 199.1611 199.1611 199.1611 201.7656 201.7656
   201.7656 203.8075 203.8075 203.8075 204.3500 204.3500 204.3500 204.5772
   204.5772 204.5772 204.6018 204.6018 204.6018 207.1866 207.3838 207.3838
   207.4491 207.4491 207.4491 208.0629 208.0629 208.0629 208.3372 208.3372
   208.4564 208.4564 208.4564 208.4859 208.4859 208.4859 208.9512 208.9512
   208.9512 209.1812 209.1812 209.1812 209.3435 211.2654 211.2654 211.2813
   211.2813 211.2813 211.3206 216.4513 216.4513 216.4513 217.5494 219.3639
   219.3639 219.3639 219.5322 220.4038 220.4038 220.7546 220.7546 220.7546
   222.2084 222.2084 222.4709 222.4709 222.4709 222.6936 222.6936 222.6936
   222.8804 222.8804 222.9304 222.9304 222.9304 223.5307 223.5307 223.5307
   223.5599 223.7067 223.7067 223.7067 227.6386 227.6386 227.6906 227.6906
   227.6906 227.7142 227.7142 227.7142 227.7179 227.7179 227.7179 227.7620
   227.7620 227.7620 227.7704 227.8788 227.8788 228.0938 228.0938 228.0938
   229.2136 229.2136 229.2136 229.4094 229.4094 229.4094 229.5025 229.5404
   229.6939 229.6939 229.6939 230.2776 230.2776 230.2776 232.2492 232.2492
   232.2492 233.3118 233.4885 233.4885 233.4885 233.8785 233.8785 234.3031
   234.3031 234.3031 234.7163 234.9798 234.9798 237.7631 237.7631 238.6063
   238.6063 238.6063 239.1349 239.1349 239.1349 239.1703 239.1703 239.1703
   240.0204 240.0204 240.0204 240.0224 240.0224 240.1223 240.5905 240.5905
   240.5905 240.6347 240.6347 241.3157 241.3157 241.3157 242.2419 242.2419
   242.2419 242.3904 242.3904 242.3904 242.5680 242.5761 242.5761 242.5761
   242.7075 242.7075 242.7075 243.6992 243.7710 243.7710 243.7710 243.8047
   243.8047 252.9390 252.9390 252.9390 260.7163 260.7163 260.7163 262.0290
   263.1502 263.1502 264.1508 264.1508 264.1508 265.1161 266.7797 266.7797
   266.7797 267.2365 267.2365 268.2663 268.4271 268.4271 268.4271 268.8661
   268.8661 268.8661 269.0260 269.4836 269.4836 269.4836 269.4925 269.4925
   269.4925 269.5353 269.5353 269.5353 269.5835 269.5835 269.5835 269.7129
   269.7129 269.7909 269.7909 269.7909 269.9401 269.9401 269.9401 270.4801
   270.6009 270.6009 270.6009 275.6944 275.6944 275.9872 275.9872 275.9872
   275.9981 275.9981 275.9981 276.1937 276.1937 276.2110 276.2110 276.2110
   276.4236 276.4236 276.4236 277.3805 277.3805 277.5123 277.5123 277.5123
   277.6598 279.3420 279.3420 279.3420 280.7480 280.7480 283.6868 283.6868
   283.6868 284.2942 284.7320 284.7320 284.7320 284.9176 284.9176 284.9176
   285.3020 285.3020 285.3020 285.7807 285.7807 287.1853 288.5948 288.5948
   288.5948 290.4825 290.7029 290.7029 290.7029 290.8134 290.8134 290.8308
   290.8308 291.3759 291.3759 291.3759 291.5338 291.5338 291.5338 291.5544
   291.5544 291.5544 292.0096 292.0096 292.0096 292.2951 292.2951 292.2951
   292.8100 296.9675 296.9675 298.5445 298.7598 298.7598 298.7598 299.7420
   299.7420 299.7420 300.4863 300.4863 300.4863 300.5841 300.5841 300.5841
   300.6512 300.6512 300.6512 300.8125 301.5493 303.3229 303.3229 303.3229
   304.4257 304.4257 304.4257 304.4491 304.4491 304.7278 304.7278 304.7278
   305.0586 305.5375 305.5375 305.5375 305.6632 305.6632 305.7000 305.7000
   305.7000 306.1004 306.9271 307.0323 307.0323 307.1281 307.1281 307.1281
   307.5146 307.5146 307.5146 307.5886 307.5886 307.5886 307.7865 307.7865
   307.7876 307.7876 307.7876 308.5160 308.5160 308.5160 308.5493 308.5493
   308.6010 308.6010 308.6010 308.6580 308.6580 308.6580 308.7067 310.7323
   310.7323 310.7323 312.6761 315.0352 315.0352 317.6054 317.6054 317.6054
   319.2671 319.2671 319.2671 319.7865 319.7865 319.7865 319.9542 319.9542
   319.9542 319.9558 319.9558 319.9558 320.0725 320.8684 321.0232 321.0232
   321.0232 321.0567 321.0567 322.8024 322.8024 322.8024 327.5151 327.5151
   327.5151 328.1578 328.8268 331.3887 331.3887 331.7755 331.7755 331.7755
   332.0457 332.0457 332.0457 332.3509 332.3509 332.3509 332.6355 332.6355
   332.6355 332.7667 332.7667 332.8512 332.8512 332.8512 334.9448 335.1066
   335.1066 335.1066 335.5071 335.5071 335.5071 335.5814 335.5814 335.5814
   335.6727 335.6727 335.6727 336.0890 336.0890 336.0890 336.5056 336.5056
   336.6874 336.6874 336.6874 336.7228 336.7228 336.9643 337.0916 337.0916
   337.0916 337.5166 337.5166 337.5166 337.8176 337.8176 337.8176 338.3930
   338.3930 338.5236 338.5236 338.5236 338.5306 338.5306 338.6064 338.6064
   338.6064 338.6129 338.6129 338.6129 338.8437 338.8437 338.8437 339.9945
   340.1074 340.1074 340.1074 340.1836 340.1836 340.1836 340.2325 342.7732
   342.8021 342.8021 342.8021 342.8192 342.8192 342.8192 342.8344 342.8344
   342.8666 342.8666 342.9362 342.9362 342.9362 343.0197 343.0197 343.0197
   343.0279 343.0279 343.0279 343.0961 343.0961 343.1462 343.2651 343.2651
   343.2651 343.3770 343.3770 343.3770 343.4744 347.4325 347.4325 347.4325
   348.6446 348.6446 348.6446 348.8288 348.8556 353.0993 353.0993 356.9711
   356.9711 356.9711 357.3694 357.3694 357.3694 357.9121 358.0354 358.0354
   358.1282 358.1282 358.1282 358.3801 358.3801 358.3801 358.5957 358.5957
   358.5957 358.6189 358.6189 358.7577 358.7577 358.7577 360.9802 360.9802
   360.9802 361.0379 361.0379 361.0379 361.3784 361.3784 361.3784 365.4994
   365.4994 365.6733 365.6733 365.6733 365.8116 370.3988 370.4040 370.4040
   370.4040 370.5772 370.5772 372.3109 372.3109 373.5951 373.5951 373.5951
   373.6993 373.6993 373.6993 373.7152 373.7152 373.7152 373.7357 373.7357
   373.7357 375.2008 375.2008 375.2139 375.2139 375.2139 375.2531 376.5340
   376.5340 376.5340 381.3809 382.2079 382.2079 382.2079 383.1570 383.1570
   383.1570 386.9206 386.9297 386.9297 386.9297 387.1205 387.1205 387.1205
   388.2600 388.2600 388.2600 388.3440 388.3440 388.3440 388.3790 388.3790
   388.5364 388.5364 388.8903 388.8903 388.8903 389.0844 390.0178 390.0178
   390.5096 390.5096 390.5096 390.8687 390.8687 390.8687 390.9135 391.3262
   392.6644 392.6644 392.6644 393.4940 393.4940 393.4940 394.0775 394.3076
   394.3076 394.3076 394.7179 394.7179 394.7179 395.1613 395.1613 397.3811
   397.3811 397.3811 398.2918 398.7576 398.7576 399.6998 399.6998 399.6998
   399.9230 399.9230 399.9230 400.1486 400.1486 400.4452 400.4452 400.4452
   400.6760 400.6760 400.6760 401.6817 401.6817 401.6817 401.7733 401.9430
   401.9430 401.9430 402.0505 404.2374 404.2374 404.2374 404.2484 404.2484
   404.3348 404.3348 404.3348 404.4525 404.4525 404.4525 404.4976 404.4976
   404.5440 404.5440 404.5440 405.7283 405.7283 405.7387 405.7387 405.7387
   405.7450 405.7450 405.7512 405.7512 405.7512 405.7527 405.7527 405.7527
   405.7796 405.7796 405.7796 405.7970 405.8374 405.8374 405.8374 405.8766
   405.8766 405.8766 405.8854 414.8164 414.8164 414.8164 415.7546 415.7546
   417.1281 417.1309 417.1309 417.1309 417.3307 417.3307 417.3307 417.4462
   417.4462 417.4462 417.5248 417.5248 417.5248 417.7759 418.5121 418.5121
   418.5121 419.0674 419.0674 419.0674 419.1264 419.1264 419.2320 419.2320
   419.2320 420.5048 420.6450 420.6450 420.6450 420.9243 420.9243 420.9368
   420.9368 420.9368 421.1824 421.1824 421.1824 422.6250 422.6250 423.0859
   423.0859 423.0859 424.5146 424.5146 424.5231 424.5231 424.5231 424.5582
   424.5582 424.5582 424.6383 424.6383 424.6383 424.6656 424.7052 424.8020
   424.8020 424.8020 424.8408 424.8408 424.9597 424.9597 424.9597 425.0047
   425.0047 425.0047 425.7529 425.7529 425.8313 425.8313 425.8313 425.8424
   425.9671 426.1733 426.1733 426.1733 426.2430 426.2430 426.2430 427.3040
   427.3040 427.3040 427.4671 427.4671 427.6551 427.6551 427.6551 428.0100
   428.0100 428.0100 428.1928 431.3957 432.1263 432.1263 432.1263 432.9033
   432.9033 432.9033 433.4251 433.4251 433.4302 433.4302 433.4302 434.6614
   434.7730 434.7730 434.7730 434.9121 434.9121 434.9121 435.0059 435.0059
   435.0059 435.0911 435.0911 435.0911 435.1069 435.1069 436.2220 436.3230
   436.3388 436.3388 436.3388 438.5261 438.5262 438.5600 438.5600 438.5832

          k = 0.5000-0.5000 0.5000 (  3798 PWs)   bands (ev):

   -27.8078 -10.1349  -9.7893  -9.7893  -4.3470   3.1876   4.6189   4.6189
    11.0044  12.0482  12.6993  12.6993  14.6557  14.6557  15.1952  15.1952
    16.3720  18.4726  18.4726  19.9397  22.1566  24.6866  25.8452  25.8452
    27.4426  27.4426  28.7665  29.8822  29.8822  30.7442  31.6084  31.6084
    32.6720  34.9521  36.6244  36.6244  36.9192  36.9192  37.8155  40.3131
    40.8941  40.8941  40.9863  40.9863  41.4182  44.3113  45.6518  45.6518
    46.1476  46.4079  46.4079  48.4373  49.5061  50.2393  50.2393  51.4502
    52.6208  52.6208  55.8435  55.8435  56.7818  56.7818  57.3358  57.3358
    57.4496  57.4496  57.5233  57.7804  58.2478  58.2530  62.0408  62.0767
    64.2232  64.2232  65.0653  65.0653  66.3400  66.3400  67.3107  67.3107
    68.2751  68.2751  68.3440  68.7943  69.2419  70.6535  70.6535  71.0948
    71.0948  72.0046  72.0046  72.7124  72.7874  72.9306  77.3593  78.3494
    78.4733  78.4733  79.0120  79.0120  80.9888  83.0581  83.0581  83.3334
    83.3716  83.5809  83.5809  83.8751  85.1953  85.1953  85.3111  86.8651
    86.9810  86.9810  87.2773  87.2773  87.4196  87.4196  88.0570  89.2384
    92.3728  92.3728  92.3973  92.3973  92.9105  94.3363  95.4130  95.4130
    96.0734  96.1364  96.1364  97.1991  97.1991  97.7126  97.8102  98.7235
    98.7235  98.9147  99.0624  99.0624 100.3308 100.3308 101.0473 101.5523
   101.7622 103.8591 104.7939 104.7939 104.8411 104.8411 105.3497 105.3497
   105.5618 107.3255 107.3490 107.8743 107.8743 108.5991 108.5991 109.8606
   109.8606 111.7290 112.1402 112.7984 112.7984 113.1215 113.1215 115.3662
   115.3662 115.7464 115.8670 115.9269 115.9269 116.2225 116.8028 116.8028
   117.7901 119.7872 119.7872 121.6521 121.8788 122.7068 122.8937 123.0681
   123.0681 123.4238 123.4238 124.0033 125.0732 125.0732 125.6139 126.9203
   126.9203 127.2100 127.6626 127.7202 127.7202 128.9800 128.9800 129.3973
   129.3973 129.5410 129.5646 130.1586 130.1586 130.7114 131.4835 131.4835
   131.9418 131.9418 135.7974 136.3517 136.3517 136.8485 136.8695 136.8695
   137.2454 137.6802 138.6741 139.0445 139.0445 139.1844 139.1844 140.0796
   140.2192 140.2192 140.9239 140.9239 141.0769 141.0769 141.1967 142.2442
   142.2442 142.9251 144.1450 144.5817 144.5817 144.9102 145.8269 145.8269
   145.8341 146.0356 146.4842 146.4842 146.5335 149.1001 149.1001 150.6454
   151.1037 151.1037 151.3917 153.1601 153.1601 153.5186 153.5186 154.2954
   154.8826 154.8826 154.9353 155.0070 155.0070 155.0937 155.5316 156.3589
   156.3589 156.6883 156.6883 156.8180 156.8571 157.0822 157.3889 157.3889
   158.1110 158.1110 158.3478 159.1718 159.1718 159.7987 160.1724 161.6503
   161.6503 163.1888 163.1888 166.7954 169.5514 169.7886 169.7886 170.1020
   170.1020 170.4033 170.4210 170.4210 170.5114 170.5114 171.1938 171.2308
   171.2315 171.2975 171.2975 171.3260 171.3989 171.3989 172.1385 173.2840
   173.5346 173.5346 175.6069 175.7805 175.7805 176.1494 177.2512 177.2512
   177.3481 177.4437 177.4781 177.4781 177.5343 178.0156 178.0259 178.0259
   178.0491 178.0491 178.3109 178.5468 178.5468 178.7161 178.7161 181.0655
   182.2533 182.2533 182.2589 182.2589 183.7343 183.7345 186.4654 186.4654
   186.5740 186.5740 188.1918 188.6054 188.6826 188.9774 188.9774 189.0045
   189.0045 189.7938 189.7938 190.4746 190.4746 190.5328 190.5328 190.5909
   190.5909 191.1014 191.3164 191.3164 191.8405 192.2180 193.3906 193.3906
   194.1378 194.1378 194.2480 194.2958 194.4410 194.5267 194.5267 194.7165
   194.9249 195.3649 196.2746 196.2746 197.4824 197.4824 198.0654 198.2553
   198.2553 199.3191 199.4689 199.4689 202.7162 202.7162 202.8959 202.8959
   203.1284 203.5523 204.4003 204.4003 204.7619 204.7619 205.0764 205.1285
   206.1464 207.4697 207.4697 208.2996 208.2996 208.8406 209.1476 209.1476
   209.5085 209.5085 209.5618 209.9600 210.6416 211.3121 211.3121 211.5026
   211.5026 211.9853 212.0880 212.7961 212.8608 212.8608 213.2686 213.2686
   213.6407 213.7941 215.1721 215.2685 215.2685 215.7056 215.7056 216.2184
   216.4338 217.1670 217.4891 217.4891 217.6204 217.6204 218.3919 218.4082
   218.8388 218.8388 219.3546 219.3546 221.6078 221.6078 221.7846 221.7846
   223.5582 223.5582 224.3712 224.4342 224.7445 224.7445 226.6677 226.7774
   226.7774 227.4204 227.4204 227.7631 228.4622 228.4622 229.4617 229.6695
   229.6695 230.1693 230.1693 230.4907 231.1731 231.3435 231.6720 231.6720
   231.7946 231.8643 231.8643 232.0969 232.0969 232.0999 233.8795 233.8795
   234.3389 234.3389 234.4218 235.2072 235.3309 235.4126 235.4126 235.4557
   237.9829 238.1350 238.1350 238.2310 238.7533 238.7533 239.1316 239.1316
   241.3491 241.3491 241.5407 242.2607 243.1606 243.4243 243.4243 243.4703
   243.4703 243.8170 244.0352 244.1526 244.6389 244.6389 244.6512 244.6512
   245.0990 245.0990 245.9120 245.9362 246.1093 246.1093 246.3500 246.3500
   246.7462 246.7462 247.1446 247.1457 247.3585 247.3585 247.8966 248.7094
   250.6598 251.4955 251.6390 251.6390 251.6601 251.6601 251.9834 251.9834
   252.3173 252.4356 252.4356 252.9254 252.9417 252.9770 253.6996 253.6996
   253.7463 253.7463 254.5361 254.5361 254.6166 254.6166 254.9419 254.9741
   259.0704 259.0704 259.9019 260.0978 260.3233 260.3233 260.5329 260.5329
   261.0398 261.3385 261.3385 261.3947 261.4309 261.4309 262.2444 262.2444
   262.3259 262.3259 262.4825 262.5801 263.7125 264.1066 264.1066 264.2654
   264.2762 264.5811 264.5811 266.8798 267.0014 267.0014 267.0462 267.0462
   267.1796 267.2948 267.9669 267.9669 268.8990 269.1082 269.1082 269.3415
   270.1931 270.1931 270.6290 270.7688 270.7688 271.9206 271.9206 272.3388
   272.8367 273.8432 273.8432 274.3111 274.3111 274.4888 274.5119 274.6988
   274.6988 274.8321 274.9365 274.9365 275.1213 275.1213 276.4414 276.4414
   277.0843 277.6088 279.2693 279.2693 279.9308 279.9308 279.9510 279.9510
   279.9609 281.1066 281.4447 281.4447 281.7862 281.7907 282.1842 282.5834
   283.1082 283.1082 284.6426 284.7817 284.7817 284.7829 284.7829 285.3966
   285.3966 285.4950 285.5553 286.8627 286.8627 287.1551 287.1551 287.9521
   288.6014 288.7046 289.0912 289.0912 289.1048 289.1048 289.3356 289.3361
   293.5433 293.5433 296.0097 296.0097 296.0266 296.0266 297.1196 297.1196
   297.2203 297.7724 297.7724 298.3022 298.3022 298.3410 298.4767 299.1381
   299.2016 299.2016 299.5892 299.5892 299.7645 299.7645 299.7863 299.9181
   300.1114 300.1774 300.1774 300.4762 300.7837 300.9546 301.3054 301.3054
   301.3716 301.3716 302.4299 302.4299 302.5280 302.6700 302.6700 302.7337
   303.1072 303.1072 303.2384 303.3696 303.3696 303.5017 303.8701 303.8886
   303.8886 304.2190 304.2190 304.5654 304.7793 304.7793 305.4316 305.4531
   305.9404 305.9404 306.2500 307.5475 307.5475 307.6091 307.6091 308.3904
   308.7893 309.2355 309.2355 309.8979 310.8331 310.8331 312.3337 312.3337
   312.7851 312.8656 312.9352 312.9352 314.7354 314.7354 315.8052 316.4649
   316.4649 316.9820 317.2451 317.2451 317.3118 317.4483 317.6349 317.6349
   317.7503 317.7503 317.8721 318.2171 318.2171 318.3801 318.3801 318.6199
   318.7208 319.2958 319.2958 319.8098 319.9285 319.9285 320.1304 320.4301
   320.4301 320.5573 320.5661 321.6723 321.9127 321.9127 321.9647 323.4235
   323.4235 323.6777 323.6777 323.7450 323.8462 325.3494 325.3494 325.4578
   326.3981 326.3981 327.1934 327.2103 327.2103 327.2594 327.2594 327.3850
   328.0657 328.0657 328.1459 328.1910 329.6072 329.6072 330.9808 330.9808
   331.1148 331.4922 331.4922 331.7716 333.4624 333.8426 333.8426 333.9293
   333.9293 334.9059 334.9059 335.6140 335.7874 335.7874 335.9406 336.0910
   337.2315 337.2315 337.3996 337.3996 337.5176 337.5249 337.5249 337.5891
   337.7965 337.7965 338.2265 338.2551 338.3470 338.3470 339.3332 339.4757
   339.4757 339.8830 339.8830 340.2183 340.4080 340.6818 340.6818 340.7108
   340.7108 341.1253 342.0141 342.0141 343.2217 343.2217 343.3190 343.3316
   343.3316 343.6776 344.9284 344.9284 344.9752 344.9755 345.2828 345.2828
   347.6677 347.6677 349.5803 350.1296 350.5753 350.5753 350.9231 350.9319
   350.9482 350.9546 350.9546 351.0069 351.0069 351.1418 351.5959 351.5959
   351.7343 351.7343 351.8274 352.0715 352.0787 352.0787 354.7831 355.0415
   355.0415 355.0458 355.0534 355.0534 355.0737 355.9944 355.9944 356.6260
   357.4477 357.4477 358.3092 358.3092 358.5853 358.8559 358.8559 358.8613
   358.9166 358.9166 358.9402 358.9557 359.3921 359.3921 361.0130 361.0130
   362.5876 362.6849 362.6849 362.6976 362.6976 362.8685 362.8695 363.6222
   363.6222 363.8587 364.0092 364.0092 364.0573 364.4894 365.4862 365.8476
   365.9010 365.9010 366.3166 366.5155 366.5155 366.6441 366.7553 366.7553
   369.9060 369.9060 370.1397 370.5466 370.5466 370.6543 370.9971 370.9971
   371.8017 371.8017 371.8275 371.8275 372.4383 372.4883 372.4931 372.4957
   372.7844 372.7844 372.8268 372.8268 372.8575 373.3081 373.3081 373.3557
   373.4525 373.4525 373.7423 373.7423 373.9706 374.0602 374.5445 374.7868
   375.0580 375.0580 375.1194 375.1194 377.8964 377.8964 377.9825 377.9825
   377.9902 378.1457 378.4370 378.4370 378.4794 378.4794 378.6113 378.6170
   380.9806 380.9806 381.2761 382.6672 383.5686 383.5686 384.3467 384.3467
   385.0684 385.0684 385.1401 385.1766 385.1766 385.2055 385.8608 385.8608
   385.8897 385.8897 386.0041 386.0376 386.4418 386.4418 386.5100 386.6588
   386.6588 386.7199 386.8164 388.9931 388.9931 389.1165 389.8678 390.5872
   390.5872 390.6682 390.6682 390.7216 390.9691 390.9691 391.1415 391.5450
   391.7443 391.7443 391.9209 392.0308 392.2029 392.2029 392.5885 392.5885
   392.6081 392.6212 392.6212 392.6428 392.8402 393.0312 393.0424 393.0424
   394.4975 394.9532 394.9532 395.2414 395.4349 395.4349 395.7853 395.7853
   395.8838 396.3478 396.8584 396.8584 397.3102 397.3102 397.3630 397.3630
   400.6785 400.6785 401.0702 401.0702 401.0852 401.2823 401.4818 401.4818
   401.9797 401.9797 402.0098 402.0993 402.3856 402.3856 402.4246 402.4246
   403.0228 403.0229 403.8000 403.8000 403.8187 403.8187 405.3755 405.3756
   406.7788 406.7788 407.8813 407.9690 407.9690 408.3755 408.3874 408.9069
   408.9069 409.4898 409.4898 409.5759 409.5759 410.4171 410.7047 410.8608
   410.8847 410.8847 411.2809 411.2809 411.4949 411.4949 411.5962 411.6196
   412.6446 412.6446 412.7812 412.7812 413.3322 413.3322 413.3606 413.7349
   413.8511 414.0716 414.0738 414.0738 414.3551 414.3551 414.4104 414.4104
   414.4376 414.5597 415.3846 416.3148 416.3148 416.7746 416.8154 416.8284
   416.8284 416.9289 420.5883 420.5883 422.1170 422.1170 422.6656 422.6656
   422.8234 422.9063 423.2185 423.2901 423.2901 423.8868 424.1719 424.1719
   424.2761 424.5013 424.5710 424.5710 424.6379 424.6379 424.8397 424.9923
   424.9923 425.0295 425.0578 425.2383 425.2383 425.3276 425.3276 425.4649
   426.2854 426.2854 426.3442 426.4572 426.4572 426.8519 427.0131 427.0454
   427.0454 427.2337 427.2337 427.2576 427.2576 427.3916 427.3916 427.4866
   427.7365 427.7365 428.6753 428.6753 428.7987 428.7987 428.9216 429.0301
   429.0320 429.0320 429.0333 429.0333 429.0338 429.0579 430.8221 430.8221
   432.0413 432.1160 434.0649 434.0649 434.3356 434.4855 434.7589 434.7589
   439.6784 439.6784 439.8711 439.8711 440.3951 440.3951 440.6476 440.7955
   440.8427 441.0686 441.1300 441.1300 441.2868 441.3387 441.3387 441.9576
   441.9576 441.9724 442.0100 442.0876 442.0876 442.0958 442.0958 442.1029

          k = 0.0000-1.0000 0.0000 (  3812 PWs)   bands (ev):

   -27.8026  -9.9974  -9.8581  -9.8581  -4.7722   4.2505   5.1942   5.1942
     8.1772  11.7695  12.1067  13.3451  13.7556  13.7556  14.9207  18.7269
    18.7269  19.2200  19.2200  20.0539  21.3175  24.2621  25.3156  25.3691
    26.0611  27.4568  27.4568  27.4647  29.3432  30.1031  30.1031  33.1019
    33.1019  33.2193  35.1043  35.7169  36.1248  39.4382  39.4382  40.8800
    40.8800  41.6416  43.3478  43.8947  43.8947  43.9789  44.7693  44.7693
    46.5916  47.4425  47.7521  50.1040  50.4834  50.4834  51.3834  51.9531
    52.4202  53.2494  54.0011  54.8715  55.8765  55.8765  56.7590  56.7590
    56.9566  56.9566  57.0688  58.5706  58.5830  58.6161  61.9091  62.2368
    62.2368  63.7652  65.1204  65.3000  65.3640  65.3640  66.8835  66.8835
    67.4391  67.5348  67.5348  69.1330  69.1330  69.1599  69.7591  69.8291
    69.8291  69.9562  71.4343  74.6342  74.6342  75.4944  75.5812  76.6033
    79.1786  79.8220  80.3052  80.8179  80.8179  81.2261  81.2261  82.4800
    82.4800  82.5572  82.8463  83.5190  85.2130  85.5352  85.7911  86.1726
    86.1726  86.5386  86.5386  86.7256  88.5692  89.0387  91.3047  91.6557
    91.6557  91.7551  91.7551  92.5851  92.9206  93.0036  93.0036  93.5764
    93.7577  93.7577  94.9872  97.6593  97.9000  97.9000  98.9265  99.3724
   100.0369 101.2272 101.7202 103.1702 103.5551 104.2025 104.2625 104.2625
   105.6956 105.6956 106.2208 106.3318 106.3318 107.1350 107.1350 107.7464
   107.8268 108.4129 109.1742 110.0440 110.0638 110.0638 111.2622 111.2622
   112.0253 112.0332 112.3236 112.8558 112.8558 113.3293 113.3293 113.6236
   114.1374 115.0694 116.0259 116.0259 116.0838 116.1982 116.3577 116.3696
   116.7006 116.7006 117.0401 117.7377 117.7377 117.9475 118.2941 120.7784
   121.2790 121.2790 121.6541 122.0060 122.1168 122.1168 122.1301 122.6481
   124.0976 124.0976 124.7329 126.2492 126.5204 127.1643 130.3621 130.3621
   130.5180 130.5383 130.5933 130.5933 130.9240 130.9240 131.3299 131.3299
   131.5175 131.7832 132.8890 133.4162 133.4162 134.1118 134.1805 134.3712
   134.3712 134.5435 134.6180 135.0950 135.2705 135.2705 135.2734 135.5860
   136.5999 136.6265 136.8762 136.8762 146.2743 146.2743 147.2620 147.2620
   147.3834 147.9716 148.3456 148.4419 148.8940 149.6275 149.6893 149.6893
   150.1540 150.1540 150.3606 150.5712 150.5712 151.1070 151.9592 152.6750
   152.6750 152.9631 152.9631 153.0641 153.2481 153.5059 153.6296 153.6296
   155.7521 155.7521 156.0975 156.2216 156.7009 157.1096 157.1096 157.3373
   157.5602 157.7714 157.7838 157.9944 157.9944 158.1194 159.7447 159.7556
   160.4560 160.5574 160.5574 161.4175 161.9319 162.3652 162.3663 162.3663
   163.0601 163.0601 163.6322 163.6322 164.0556 164.7756 166.9012 167.0108
   167.0108 167.5339 167.5885 168.0352 168.0352 168.1922 170.3069 170.8668
   171.0017 171.0017 171.1980 171.1980 171.4958 171.5664 171.8549 173.9400
   175.1169 175.1521 175.1826 175.1826 175.9058 176.2827 176.2827 176.3196
   176.5467 176.5467 176.6661 176.9795 177.0909 177.0909 177.2270 177.6094
   178.3612 178.3612 178.5861 178.5861 179.5958 180.3044 181.2157 181.3168
   181.9662 181.9664 182.6691 182.6832 182.6832 182.7042 182.7042 182.7297
   183.4194 183.4664 184.1668 184.1668 184.5799 185.1032 186.5673 188.4040
   188.4040 188.6214 188.6214 189.2923 190.2205 190.2227 191.2562 191.2562
   191.8879 191.8879 192.2087 193.0454 194.5088 194.7404 195.0607 195.1251
   195.1251 195.2118 195.2118 195.6350 195.7806 196.0663 196.3533 196.3533
   196.6475 196.6475 196.9048 196.9060 197.3057 197.3967 197.5593 197.5593
   201.0197 201.2711 201.2711 201.4408 201.5318 201.7394 201.9452 201.9955
   201.9955 202.5860 202.7728 202.7728 203.1785 203.3377 203.3377 203.3795
   206.4000 206.4000 206.4606 207.8050 208.1852 208.1852 208.8007 208.8007
   209.4074 209.5973 209.7065 210.5977 210.5977 210.8007 211.3621 211.8354
   212.9789 212.9789 213.6652 213.7097 213.7097 214.1957 214.2103 214.6314
   215.2400 215.2400 215.4283 215.8823 215.9596 216.2024 216.2024 216.5073
   216.6351 216.8374 216.8374 216.9905 217.0845 217.0845 217.2068 217.4771
   218.2204 218.2306 218.2306 218.2517 219.9874 220.3646 220.3646 220.6130
   220.8833 220.8833 221.0344 221.0978 221.0978 221.1175 223.0574 223.1393
   223.7366 224.1637 224.1637 225.0888 225.1359 227.9344 229.0731 229.4886
   229.4957 229.9053 230.0840 230.1253 230.1253 230.5293 230.5293 230.5897
   230.5897 230.6453 230.9390 230.9390 230.9736 231.2009 231.2009 231.3253
   234.0661 235.1964 235.1964 236.8877 236.8877 237.1969 237.7235 237.8528
   237.8528 237.8642 237.8892 238.1560 239.4224 240.1163 242.0791 242.0791
   242.3167 242.5817 242.6631 242.6758 242.6758 242.8021 243.9923 243.9923
   244.6025 244.9108 245.5180 246.6945 246.8660 246.8660 246.8698 247.0604
   247.3961 247.3961 247.6043 247.9830 247.9830 248.0465 248.5142 248.5142
   248.7241 248.8837 249.0547 249.6108 249.6409 249.6409 249.7618 250.2199
   250.2199 250.3677 252.8664 252.9207 252.9207 252.9375 253.2409 253.2409
   253.5343 253.5382 254.3197 255.4672 255.4672 255.5530 257.0065 257.0065
   258.1655 258.2582 258.3965 258.3965 258.9274 259.1135 260.0318 260.0892
   260.0892 260.4452 260.6091 260.7126 260.8881 261.2715 261.2715 261.3716
   261.3716 261.7403 261.7719 262.3223 262.4348 262.4348 262.7904 262.8093
   262.8093 262.8390 262.8390 263.0691 263.2545 263.4976 263.5676 263.5676
   263.9663 263.9771 264.6095 264.6095 264.7373 264.7463 265.4938 265.4938
   265.4996 265.4996 265.9559 270.0059 270.0059 270.2827 270.3988 270.4333
   270.4514 270.4514 270.5056 270.5084 270.5084 271.0435 271.1344 272.4686
   272.7710 272.7882 273.4902 273.4902 273.9844 273.9844 274.7814 275.1350
   275.3977 275.9078 275.9293 275.9293 276.7738 277.1159 277.2581 277.2858
   277.2858 278.3443 278.3443 279.1830 279.8375 280.6358 280.6358 281.0194
   281.0446 281.2443 281.2835 281.2835 281.3050 281.3050 281.3311 281.3460
   281.5447 282.0567 282.5535 282.5543 282.5543 282.5907 283.0609 284.1877
   284.1877 284.2694 284.3744 284.3744 284.3883 284.3883 284.4989 284.5644
   284.6784 284.7020 285.5277 285.5277 287.5165 288.2234 288.2253 289.4513
   289.4513 290.9692 291.1592 291.1592 291.3297 291.3297 291.6437 291.7589
   291.7589 291.8093 292.1224 295.3143 295.3143 296.0109 296.0437 296.5855
   296.5855 297.0538 297.3312 297.3562 297.4731 297.4731 297.5674 297.9299
   297.9769 297.9942 298.1993 298.3906 298.3906 298.4802 298.4802 298.5074
   300.1128 300.1254 300.1254 300.1508 300.4331 300.7153 300.9280 301.1341
   301.1341 301.5012 302.8774 302.8938 302.8938 303.8529 303.8529 303.8766
   303.9166 303.9166 303.9702 304.7589 305.3295 305.3379 307.0908 307.9589
   307.9589 309.2771 309.4905 309.8272 309.9231 309.9231 310.0293 310.2856
   310.5458 310.5458 310.9611 311.6637 311.9118 311.9118 312.0363 312.0363
   312.3032 312.4029 312.4564 312.5289 312.5289 312.6445 312.6613 314.1287
   314.1375 314.1473 314.1473 314.1921 314.2128 314.2128 314.2360 314.6073
   314.6073 315.0296 317.8548 317.8548 317.8761 317.8952 318.1352 318.2807
   318.2807 318.4066 318.6095 319.5798 320.0287 320.0287 320.2870 320.2870
   320.9244 321.8790 321.8888 321.8888 325.6659 325.6882 325.6882 325.7511
   325.7511 326.0351 326.5001 326.6557 326.6842 326.6842 326.7567 327.0277
   327.0862 328.1065 328.2977 328.3352 328.3352 328.5242 329.2784 329.2784
   330.2435 330.9233 331.8022 331.8022 332.0145 332.1112 332.1112 332.1203
   332.2105 332.6579 332.7039 332.7039 332.7214 332.7644 333.7416 333.7416
   333.8321 334.9835 334.9835 335.1358 335.2120 335.5398 335.7391 335.7391
   336.1733 336.4664 336.5423 336.5423 336.7493 337.1250 339.8258 339.8971
   340.0100 340.3554 340.3554 340.7933 340.7933 342.0845 342.1423 342.2142
   342.2142 343.6093 343.8926 343.8940 344.5304 344.5304 344.5863 344.5863
   344.9987 344.9987 346.0953 346.1014 347.6070 347.6271 349.5410 350.5575
   350.8780 350.8780 350.9434 351.5738 351.6123 351.6123 351.9348 352.0146
   352.0483 352.1409 352.1409 352.1642 352.3743 352.3743 352.6277 352.6551
   352.6683 352.6683 353.2008 353.9604 353.9604 354.3318 354.7501 355.1279
   356.7506 356.7506 357.1604 357.5372 357.5515 357.6506 357.6506 357.9198
   358.0640 358.0640 358.1908 358.2537 358.2537 358.8067 358.8148 358.9795
   359.4232 359.4232 359.5503 359.5659 359.7014 359.8722 360.0094 360.0094
   360.0569 360.0569 360.1547 360.2465 360.2465 360.4026 360.4387 360.4387
   360.4571 360.5483 360.6321 360.6460 360.6606 360.7058 360.7058 360.9014
   361.1752 361.1752 361.1981 361.2715 361.2715 361.3612 361.5090 361.5090
   361.6208 361.9228 362.1680 362.1703 362.4612 362.4612 362.4837 362.4837
   362.5407 362.8019 363.0213 363.0706 363.0706 363.0927 366.1789 366.1824
   366.1824 366.2735 366.4279 366.4819 366.4819 366.4871 368.4414 368.4675
   368.6976 368.6976 368.7909 368.7909 369.0804 369.0927 374.6163 375.4577
   375.4577 375.5404 376.7622 377.0347 377.1310 377.1310 377.1925 377.2047
   377.2204 377.2204 377.5957 377.5957 377.6540 377.6696 377.6822 377.6822
   377.9386 378.0049 378.3739 378.5455 378.6080 378.6080 378.6415 378.8553
   379.4070 380.0193 380.0193 380.1260 380.1260 380.3540 380.6600 381.1262
   381.2792 381.2792 381.3005 381.3526 381.3526 381.4124 381.6001 381.6387
   381.6570 381.6570 381.6987 381.7870 382.0679 382.0679 382.1847 382.4756
   382.9351 384.2940 384.9051 385.6268 385.6268 388.1187 388.1187 388.2823
   388.6551 388.6551 389.0747 389.6669 389.7767 389.8320 389.8320 390.3281
   390.3281 390.3645 390.4287 390.4476 390.5078 390.9758 390.9758 391.2002
   391.2468 391.2468 391.3738 391.5101 391.8364 392.2912 392.2912 392.3609
   393.1774 393.1774 394.1316 394.2491 394.2491 394.4765 394.7649 395.3224
   395.3315 395.8372 395.8372 396.4377 400.0088 400.0088 400.0519 400.0564
   400.0564 400.0690 400.0823 400.0868 401.8014 401.9351 401.9412 401.9412
   401.9542 401.9697 401.9697 402.0163 402.6617 402.6617 403.5122 403.7128
   404.1393 404.1393 404.1788 404.8640 406.8425 406.9085 407.0523 407.0523
   409.1065 409.1599 409.4179 409.4179 409.5303 409.5303 409.5573 409.8089
   410.2763 410.2763 410.7228 410.7387 411.0288 411.0456 411.0456 411.0721
   411.0721 411.0788 411.1437 411.1532 411.1725 411.6702 411.7057 411.7057
   411.8080 412.9167 412.9684 412.9684 413.2553 413.2644 413.2644 413.2653
   413.3629 413.3629 413.4076 413.4076 413.4730 413.4730 413.5427 413.5529
   413.7549 413.7549 413.7634 413.9144 415.4013 415.4112 415.4112 415.4238
   417.2369 418.4161 418.4568 418.4568 419.5186 420.9117 420.9120 421.0800
   421.8151 421.8151 421.9023 422.2497 422.2497 422.8590 424.2759 424.3763
   424.5103 424.7301 424.7837 424.9635 424.9636 425.1219 425.2850 425.2850
   425.4222 425.4222 425.4428 425.4727 425.5055 425.6089 425.6089 425.6361
   425.7498 425.7498 426.0706 426.0706 428.1027 428.3675 428.5306 429.1693
   429.1693 429.5688 429.6660 429.6660 429.7636 429.7991 429.8732 429.8851
   430.0514 430.0514 430.1339 430.4225 430.4225 430.5525 430.6343 430.6447
   430.6447 430.6486 432.4805 435.1537 435.1537 435.4985 437.5854 437.6531
   437.9954 437.9954 438.4728 438.7546 438.7546 438.8160 439.0754 439.1380
   439.4625 439.4625 439.5582 439.5582 439.7114 439.7290 439.8374 439.8374
   440.1998 440.2071 440.2071 440.2959 440.5133 440.7982 440.7982 440.8737
   443.1603 443.3806 444.7225 444.7376 444.7376 444.7583 444.7630 444.9533

     the Fermi energy is     7.2109 ev
     (compare with:     6.9880 eV, computed in scf)

     Writing all to output data dir out/mp-1087.save/
 
     init_run     :      0.06s CPU      0.09s WALL (       1 calls)
     electrons    :    408.83s CPU    440.26s WALL (       1 calls)

     Called by init_run:
     wfcinit      :      0.00s CPU      0.00s WALL (       1 calls)
     potinit      :      0.01s CPU      0.01s WALL (       1 calls)
     hinit0       :      0.02s CPU      0.04s WALL (       1 calls)

     Called by electrons:
     c_bands      :    408.83s CPU    440.26s WALL (       1 calls)
     v_of_rho     :      0.01s CPU      0.01s WALL (       1 calls)

     Called by c_bands:
     init_us_2    :      0.00s CPU      0.00s WALL (       3 calls)
     init_us_2:cp :      0.00s CPU      0.00s WALL (       3 calls)
     cegterg      :    400.89s CPU    431.80s WALL (       3 calls)

     Called by *egterg:
     cdiaghg      :    377.76s CPU    408.29s WALL (      40 calls)
     h_psi        :      6.67s CPU      6.86s WALL (      43 calls)
     g_psi        :      0.05s CPU      0.05s WALL (      37 calls)

     Called by h_psi:
     h_psi:calbec :      0.11s CPU      0.12s WALL (      43 calls)
     vloc_psi     :      6.45s CPU      6.62s WALL (      43 calls)
     add_vuspsi   :      0.07s CPU      0.07s WALL (      43 calls)

     General routines
     calbec       :      0.11s CPU      0.12s WALL (      43 calls)
     fft          :      0.01s CPU      0.03s WALL (      10 calls)
     fftw         :      5.85s CPU      6.00s WALL (   45676 calls)
 
     Parallel routines
 
     PWSCF        :   6m49.38s CPU   7m21.14s WALL

 
   This run was terminated on:  20:30:47  18Nov2023            

=------------------------------------------------------------------------------=
   JOB DONE.
=------------------------------------------------------------------------------=
