
     Program PWSCF v.7.1 starts on 18Nov2023 at 21:32:22 

     This program is part of the open-source Quantum ESPRESSO suite
     for quantum simulation of materials; please cite
         "P. Giannozzi et al., J. Phys.:Condens. Matter 21 395502 (2009);
         "P. Giannozzi et al., J. Phys.:Condens. Matter 29 465901 (2017);
         "P. Giannozzi et al., J. Chem. Phys. 152 154105 (2020);
          URL http://www.quantum-espresso.org", 
     in publications or presentations arising from this work. More details at
     http://www.quantum-espresso.org/quote

     Parallel version (MPI), running on     8 processors

     MPI processes distributed on     1 nodes
     123612 MiB available memory on the printing compute node when the environment starts
 
     Reading input from pw_mp-1087_nscf_k60_E71.in
Warning: card &IONS ignored
Warning: card / ignored
Warning: card &CELL ignored
Warning: card / ignored

     Current dimensions of program PWSCF are:
     Max number of different atomic species (ntypx) = 10
     Max number of k-points (npk) =  40000
     Max angular momentum in pseudopotentials (lmaxx) =  4

     Atomic positions and unit cell read from directory:
     out/mp-1087.save/
     Atomic positions from file used, from input discarded
 
 
     R & G space division:  proc/nbgrp/npool/nimage =       8
     Subspace diagonalization in iterative solution of the eigenvalue problem:
     one sub-group per band group will be used
     scalapack distributed-memory algorithm (size of sub-group:  2*  2 procs)

 
     Parallelization info
     --------------------
     sticks:   dense  smooth     PW     G-vecs:    dense   smooth      PW
     Min         160     160     45                 3792     3792     579
     Max         161     161     46                 3795     3795     582
     Sum        1285    1285    367                30347    30347    4645
 
     Using Slab Decomposition
 


     bravais-lattice index     =            2
     lattice parameter (alat)  =      11.4291  a.u.
     unit-cell volume          =     373.2322 (a.u.)^3
     number of atoms/cell      =            2
     number of atomic types    =            2
     number of electrons       =        16.00
     number of Kohn-Sham states=         1200
     kinetic-energy cutoff     =      71.0000  Ry
     charge density cutoff     =     284.0000  Ry
     Exchange-correlation= PBE
                           (   1   4   3   4   0   0   0)

     celldm(1)=  11.429126  celldm(2)=   0.000000  celldm(3)=   0.000000
     celldm(4)=   0.000000  celldm(5)=   0.000000  celldm(6)=   0.000000

     crystal axes: (cart. coord. in units of alat)
               a(1) = (  -0.500000   0.000000   0.500000 )  
               a(2) = (   0.000000   0.500000   0.500000 )  
               a(3) = (  -0.500000   0.500000   0.000000 )  

     reciprocal axes: (cart. coord. in units 2 pi/alat)
               b(1) = ( -1.000000 -1.000000  1.000000 )  
               b(2) = (  1.000000  1.000000  1.000000 )  
               b(3) = ( -1.000000  1.000000 -1.000000 )  


     PseudoPot. # 1 for S  read from file:
     /usr/scratch4/magr4985/MG/HTDF/pseudo/SG15/S.upf
     MD5 check sum: f9d020296ee6110346977bfd66d424f6
     Pseudo is Norm-conserving, Zval =  6.0
     Generated using ONCVPSP code by D. R. Hamann
     Using radial grid of  602 points,  4 beta functions with: 
                l(1) =   0
                l(2) =   0
                l(3) =   1
                l(4) =   1

     PseudoPot. # 2 for Sr read from file:
     /usr/scratch4/magr4985/MG/HTDF/pseudo/SG15/Sr.upf
     MD5 check sum: 3f9bc8d6f3e8472da0cbe0e6a3044a9f
     Pseudo is Norm-conserving, Zval = 10.0
     Generated using ONCVPSP code by D. R. Hamann
     Using radial grid of  602 points,  6 beta functions with: 
                l(1) =   0
                l(2) =   0
                l(3) =   1
                l(4) =   1
                l(5) =   2
                l(6) =   2

     atomic species   valence    mass     pseudopotential
        S              6.00    32.06500     S ( 1.00)
        Sr            10.00    87.62000     Sr( 1.00)

     48 Sym. Ops., with inversion, found



   Cartesian axes

     site n.     atom                  positions (alat units)
         1           Sr  tau(   1) = (   0.0000000   0.0000000   0.0000000  )
         2           S   tau(   2) = (  -0.5000000   0.5000000   0.5000000  )

     number of k points=     8  Gaussian smearing, width (Ry)=  0.0005
                       cart. coord. in units 2pi/alat
        k(    1) = (   0.0000000   0.0000000   0.0000000), wk =   0.0312500
        k(    2) = (  -0.2500000   0.2500000  -0.2500000), wk =   0.2500000
        k(    3) = (   0.5000000  -0.5000000   0.5000000), wk =   0.1250000
        k(    4) = (   0.0000000   0.5000000   0.0000000), wk =   0.1875000
        k(    5) = (   0.7500000  -0.2500000   0.7500000), wk =   0.7500000
        k(    6) = (   0.5000000   0.0000000   0.5000000), wk =   0.3750000
        k(    7) = (   0.0000000  -1.0000000   0.0000000), wk =   0.0937500
        k(    8) = (  -0.5000000  -1.0000000   0.0000000), wk =   0.1875000

     Dense  grid:    30347 G-vectors     FFT dimensions: (  45,  45,  45)

     Estimated max dynamical RAM per process >     182.85 MB

     Estimated total dynamical RAM >       1.43 GB

     The potential is recalculated from file :
     out/mp-1087.save/charge-density

     Starting wfcs are random

     Band Structure Calculation
     Davidson diagonalization with overlap

     ethr =  5.00E-06,  avg # of iterations = 11.1

     total cpu time spent up to now is     1129.6 secs

     End of band structure calculation

          k = 0.0000 0.0000 0.0000 (  3719 PWs)   bands (ev):

   -27.8248  -9.7674  -9.7674  -9.7674  -5.1091   5.6599   5.6599   5.6599
     9.2515  10.1069  10.1069  10.1069  10.9829  10.9829  15.4274  20.5723
    20.5723  20.5723  22.6135  22.6135  22.6135  24.0349  24.0349  27.8096
    27.8096  27.8096  28.2919  30.3116  30.3116  30.6243  30.6243  30.6243
    32.0204  32.0204  32.0204  38.9734  40.4678  40.4678  40.4678  41.7628
    41.9674  41.9674  41.9674  43.4568  43.4568  43.4568  44.2336  44.2336
    44.2336  45.7999  45.9757  45.9757  45.9757  47.1693  47.1693  47.1963
    47.1963  47.1963  47.8518  47.8518  49.3257  55.2101  55.2101  55.2101
    61.4569  61.4569  61.4569  63.6747  64.7346  64.7346  64.7346  65.9863
    65.9863  65.9863  66.5093  66.5093  67.7501  67.7501  67.7501  71.2814
    72.5277  72.5277  73.4371  73.4371  73.4371  74.1623  74.1623  74.1623
    75.1054  75.9489  75.9489  75.9489  76.4087  76.4087  76.4087  77.4680
    77.4680  77.4680  77.9712  77.9712  77.9712  79.0437  79.0437  79.2400
    79.2400  79.2400  79.8950  79.8950  81.3805  81.3805  81.3805  82.3614
    83.7952  83.7952  84.0905  86.8671  88.2182  88.2182  88.2182  91.8263
    91.8263  91.8263  92.5718  92.5718  92.5718  95.8818  95.8818  95.9741
    95.9741  95.9741  96.0477  96.0477  96.2356  96.2356  96.2356  96.3309
    96.3309  96.3309  97.0587  97.0587  97.0587  98.4838  98.4838  98.4838
    98.8854 100.9954 103.8446 104.3719 104.7212 104.7212 104.7212 105.4136
   105.4136 105.4136 106.1303 106.1303 106.1303 107.7507 107.7507 107.7507
   108.1754 108.1754 108.1754 112.6381 112.6381 112.7605 112.7605 112.7605
   112.9570 114.2637 118.1335 118.1335 118.2842 118.2842 118.2842 121.6643
   121.6643 121.6643 123.1154 123.1154 123.1154 123.5024 123.5024 123.5024
   124.1125 124.1125 128.3954 128.4667 128.4667 128.4667 129.6641 129.6641
   131.0046 131.0046 131.0046 134.2000 134.2000 134.2000 134.4940 134.8788
   134.8788 134.8788 135.3908 135.3908 135.3908 135.6354 135.6354 135.6354
   136.4407 136.4407 137.3444 137.5963 138.1629 138.1629 138.1629 139.2500
   139.2500 139.2500 139.4947 139.6034 139.6034 139.6034 140.1506 140.7177
   140.7177 142.5822 142.5822 142.5822 142.7745 142.7745 142.7745 143.9763
   143.9763 143.9763 144.5817 144.5817 144.6616 144.6616 144.6616 145.0031
   145.0031 145.0031 145.1010 145.1010 145.1010 145.3362 145.3362 145.3362
   145.4043 145.4043 145.6727 145.6727 145.6727 145.7518 145.7518 145.7518
   145.7568 145.7568 145.7878 153.6974 154.0885 154.0885 154.7621 154.7621
   154.7621 155.2499 155.2499 155.2499 155.6643 155.6643 155.6643 155.6643
   155.6643 155.6643 156.9438 156.9438 156.9438 162.1041 162.1041 162.1041
   162.5744 162.5744 162.6424 162.6424 162.6424 162.7400 163.0585 164.6008
   166.0792 166.0792 166.0792 168.9177 168.9177 172.8421 172.8421 172.8421
   172.9541 172.9541 172.9541 173.0567 173.1349 173.1349 173.1491 173.1491
   173.1491 173.3822 173.3822 173.3822 173.3870 173.3870 173.3870 174.6232
   175.5148 175.5148 175.9041 175.9041 175.9041 176.1953 176.1953 176.1953
   176.3401 176.3401 176.4918 176.4918 176.4918 176.8375 176.8375 176.8375
   177.3859 177.3859 177.3859 178.6849 178.6849 180.6555 184.3055 184.3055
   184.3055 187.3382 187.3382 187.3382 189.3795 189.3795 189.3795 189.7807
   190.1216 190.5116 190.5116 190.5116 194.0383 194.0383 194.4083 194.4083
   194.4083 194.7061 194.7061 194.7061 196.2537 197.3335 197.3335 197.3335
   197.9233 197.9233 198.7530 199.1611 199.1611 199.1611 201.7656 201.7656
   201.7656 203.8075 203.8075 203.8075 204.3500 204.3500 204.3500 204.5772
   204.5772 204.5772 204.6018 204.6018 204.6018 207.1866 207.3838 207.3838
   207.4491 207.4491 207.4491 208.0629 208.0629 208.0629 208.3372 208.3372
   208.4564 208.4564 208.4564 208.4859 208.4859 208.4859 208.9512 208.9512
   208.9512 209.1812 209.1812 209.1812 209.3435 211.2654 211.2654 211.2813
   211.2813 211.2813 211.3206 216.4513 216.4513 216.4513 217.5494 219.3639
   219.3639 219.3639 219.5322 220.4038 220.4038 220.7546 220.7546 220.7546
   222.2084 222.2084 222.4709 222.4709 222.4709 222.6936 222.6936 222.6936
   222.8804 222.8804 222.9304 222.9304 222.9304 223.5307 223.5307 223.5307
   223.5599 223.7067 223.7067 223.7067 227.6386 227.6386 227.6906 227.6906
   227.6906 227.7142 227.7142 227.7142 227.7179 227.7179 227.7179 227.7620
   227.7620 227.7620 227.7704 227.8788 227.8788 228.0938 228.0938 228.0938
   229.2136 229.2136 229.2136 229.4094 229.4094 229.4094 229.5025 229.5404
   229.6939 229.6939 229.6939 230.2776 230.2776 230.2776 232.2492 232.2492
   232.2492 233.3118 233.4885 233.4885 233.4885 233.8785 233.8785 234.3031
   234.3031 234.3031 234.7163 234.9798 234.9798 237.7631 237.7631 238.6063
   238.6063 238.6063 239.1349 239.1349 239.1349 239.1703 239.1703 239.1703
   240.0204 240.0204 240.0204 240.0224 240.0224 240.1223 240.5905 240.5905
   240.5905 240.6347 240.6347 241.3157 241.3157 241.3157 242.2419 242.2419
   242.2419 242.3904 242.3904 242.3904 242.5680 242.5761 242.5761 242.5761
   242.7075 242.7075 242.7075 243.6992 243.7710 243.7710 243.7710 243.8047
   243.8047 252.9390 252.9390 252.9390 260.7163 260.7163 260.7163 262.0290
   263.1502 263.1502 264.1508 264.1508 264.1508 265.1161 266.7797 266.7797
   266.7797 267.2365 267.2365 268.2663 268.4271 268.4271 268.4271 268.8661
   268.8661 268.8661 269.0260 269.4836 269.4836 269.4836 269.4925 269.4925
   269.4925 269.5353 269.5353 269.5353 269.5835 269.5835 269.5835 269.7129
   269.7129 269.7909 269.7909 269.7909 269.9401 269.9401 269.9401 270.4801
   270.6009 270.6009 270.6009 275.6944 275.6944 275.9872 275.9872 275.9872
   275.9981 275.9981 275.9981 276.1937 276.1937 276.2110 276.2110 276.2110
   276.4236 276.4236 276.4236 277.3805 277.3805 277.5123 277.5123 277.5123
   277.6598 279.3420 279.3420 279.3420 280.7480 280.7480 283.6868 283.6868
   283.6868 284.2942 284.7320 284.7320 284.7320 284.9176 284.9176 284.9176
   285.3020 285.3020 285.3020 285.7807 285.7807 287.1853 288.5948 288.5948
   288.5948 290.4825 290.7029 290.7029 290.7029 290.8134 290.8134 290.8308
   290.8308 291.3759 291.3759 291.3759 291.5338 291.5338 291.5338 291.5544
   291.5544 291.5544 292.0096 292.0096 292.0096 292.2951 292.2951 292.2951
   292.8100 296.9675 296.9675 298.5445 298.7598 298.7598 298.7598 299.7420
   299.7420 299.7420 300.4863 300.4863 300.4863 300.5841 300.5841 300.5841
   300.6512 300.6512 300.6512 300.8125 301.5493 303.3229 303.3229 303.3229
   304.4257 304.4257 304.4257 304.4491 304.4491 304.7278 304.7278 304.7278
   305.0586 305.5375 305.5375 305.5375 305.6632 305.6632 305.7000 305.7000
   305.7000 306.1004 306.9271 307.0323 307.0323 307.1281 307.1281 307.1281
   307.5146 307.5146 307.5146 307.5886 307.5886 307.5886 307.7865 307.7865
   307.7876 307.7876 307.7876 308.5160 308.5160 308.5160 308.5493 308.5493
   308.6010 308.6010 308.6010 308.6580 308.6580 308.6580 308.7067 310.7323
   310.7323 310.7323 312.6761 315.0352 315.0352 317.6054 317.6054 317.6054
   319.2671 319.2671 319.2671 319.7865 319.7865 319.7865 319.9542 319.9542
   319.9542 319.9558 319.9558 319.9558 320.0725 320.8684 321.0232 321.0232
   321.0232 321.0567 321.0567 322.8024 322.8024 322.8024 327.5151 327.5151
   327.5151 328.1578 328.8268 331.3887 331.3887 331.7755 331.7755 331.7755
   332.0457 332.0457 332.0457 332.3509 332.3509 332.3509 332.6355 332.6355
   332.6355 332.7667 332.7667 332.8512 332.8512 332.8512 334.9448 335.1066
   335.1066 335.1066 335.5071 335.5071 335.5071 335.5814 335.5814 335.5814
   335.6727 335.6727 335.6727 336.0890 336.0890 336.0890 336.5056 336.5056
   336.6874 336.6874 336.6874 336.7228 336.7228 336.9643 337.0916 337.0916
   337.0916 337.5166 337.5166 337.5166 337.8176 337.8176 337.8176 338.3930
   338.3930 338.5236 338.5236 338.5236 338.5306 338.5306 338.6064 338.6064
   338.6064 338.6129 338.6129 338.6129 338.8437 338.8437 338.8437 339.9945
   340.1074 340.1074 340.1074 340.1836 340.1836 340.1836 340.2325 342.7732
   342.8021 342.8021 342.8021 342.8192 342.8192 342.8192 342.8344 342.8344
   342.8666 342.8666 342.9362 342.9362 342.9362 343.0197 343.0197 343.0197
   343.0279 343.0279 343.0279 343.0961 343.0961 343.1462 343.2651 343.2651
   343.2651 343.3770 343.3770 343.3770 343.4744 347.4325 347.4325 347.4325
   348.6446 348.6446 348.6446 348.8288 348.8556 353.0993 353.0993 356.9711
   356.9711 356.9711 357.3694 357.3694 357.3694 357.9121 358.0354 358.0354
   358.1282 358.1282 358.1282 358.3801 358.3801 358.3801 358.5957 358.5957
   358.5957 358.6189 358.6189 358.7577 358.7577 358.7577 360.9802 360.9802
   360.9802 361.0379 361.0379 361.0379 361.3784 361.3784 361.3784 365.4994
   365.4994 365.6733 365.6733 365.6733 365.8116 370.3988 370.4040 370.4040
   370.4040 370.5772 370.5772 372.3109 372.3109 373.5951 373.5951 373.5951
   373.6993 373.6993 373.6993 373.7152 373.7152 373.7152 373.7357 373.7357
   373.7357 375.2008 375.2008 375.2139 375.2139 375.2139 375.2531 376.5340
   376.5340 376.5340 381.3809 382.2079 382.2079 382.2079 383.1570 383.1570
   383.1570 386.9206 386.9297 386.9297 386.9297 387.1205 387.1205 387.1205
   388.2600 388.2600 388.2600 388.3440 388.3440 388.3440 388.3790 388.3790
   388.5364 388.5364 388.8903 388.8903 388.8903 389.0844 390.0178 390.0178
   390.5096 390.5096 390.5096 390.8687 390.8687 390.8687 390.9135 391.3262
   392.6644 392.6644 392.6644 393.4940 393.4940 393.4940 394.0775 394.3076
   394.3076 394.3076 394.7179 394.7179 394.7179 395.1613 395.1613 397.3811
   397.3811 397.3811 398.2918 398.7576 398.7576 399.6998 399.6998 399.6998
   399.9230 399.9230 399.9230 400.1486 400.1486 400.4452 400.4452 400.4452
   400.6760 400.6760 400.6760 401.6817 401.6817 401.6817 401.7733 401.9430
   401.9430 401.9430 402.0505 404.2374 404.2374 404.2374 404.2484 404.2484
   404.3348 404.3348 404.3348 404.4525 404.4525 404.4525 404.4976 404.4976
   404.5440 404.5440 404.5440 405.7283 405.7283 405.7387 405.7387 405.7387
   405.7450 405.7450 405.7512 405.7512 405.7512 405.7527 405.7527 405.7527
   405.7796 405.7796 405.7796 405.7970 405.8374 405.8374 405.8374 405.8766
   405.8766 405.8766 405.8854 414.8164 414.8164 414.8164 415.7546 415.7546
   417.1281 417.1309 417.1309 417.1309 417.3307 417.3307 417.3307 417.4462
   417.4462 417.4462 417.5248 417.5248 417.5248 417.7759 418.5121 418.5121
   418.5121 419.0674 419.0674 419.0674 419.1264 419.1264 419.2320 419.2320
   419.2320 420.5048 420.6450 420.6450 420.6450 420.9243 420.9243 420.9368
   420.9368 420.9368 421.1824 421.1824 421.1824 422.6250 422.6250 423.0859
   423.0859 423.0859 424.5146 424.5146 424.5231 424.5231 424.5231 424.5582
   424.5582 424.5582 424.6383 424.6383 424.6383 424.6656 424.7052 424.8020
   424.8020 424.8020 424.8408 424.8408 424.9597 424.9597 424.9597 425.0047
   425.0047 425.0047 425.7529 425.7529 425.8313 425.8313 425.8313 425.8424
   425.9671 426.1733 426.1733 426.1733 426.2430 426.2430 426.2430 427.3040
   427.3040 427.3040 427.4671 427.4671 427.6551 427.6551 427.6551 428.0100
   428.0100 428.0100 428.1928 431.3957 432.1263 432.1263 432.1263 432.9033
   432.9033 432.9033 433.4251 433.4251 433.4302 433.4302 433.4302 434.6614
   434.7730 434.7730 434.7730 434.9121 434.9121 434.9121 435.0059 435.0059
   435.0059 435.0911 435.0911 435.0911 435.1069 435.1069 436.2220 436.3230
   436.3388 436.3388 436.3388 438.5262 438.5262 438.5600 438.5600 438.5832

          k =-0.2500 0.2500-0.2500 (  3756 PWs)   bands (ev):

   -27.8163  -9.9608  -9.7784  -9.7784  -4.7303   4.1883   5.0667   5.0667
    10.0689  11.0278  11.0278  11.3978  12.5056  12.5056  16.7778  18.0482
    18.0482  18.4542  20.7517  20.7517  23.2016  24.8466  25.3216  25.3216
    26.9696  26.9696  29.8950  29.8950  31.3169  31.4702  31.8422  31.8422
    32.5284  34.6937  35.8111  35.8111  36.8967  36.8967  37.7812  40.6189
    41.0963  41.6739  41.6739  41.8300  41.8300  43.6060  43.6445  43.6445
    43.9495  45.6001  45.6001  48.9844  48.9844  49.4540  49.8654  49.8654
    49.9523  51.5563  52.6708  54.2835  55.2073  55.2073  56.0316  56.0316
    57.6029  58.9977  58.9977  60.4317  60.4317  60.4482  62.9878  62.9878
    64.7712  66.0080  66.0080  66.2075  66.2075  66.2718  66.9583  68.2642
    68.2642  69.1628  69.4567  70.5943  70.5943  72.5897  72.5897  73.4162
    74.0310  74.0310  74.1646  75.3019  77.5453  77.9297  77.9297  78.9496
    78.9496  79.3186  79.6314  79.6314  80.1277  80.4287  80.5153  80.5153
    81.1396  81.1396  81.7986  81.7986  82.4574  84.0272  84.0272  84.6699
    86.5950  86.5950  86.8495  87.5026  88.9717  88.9717  89.0781  89.1798
    90.4454  91.0681  91.0681  92.0598  92.0598  93.3296  93.3296  93.5302
    93.9666  93.9666  95.0286  95.4794  95.4794  95.7839  96.2463  96.2463
    96.4690  97.2987  98.7263  98.7263 100.4819 100.5707 100.5707 101.7837
   102.1322 102.2195 102.2195 104.0406 104.2041 104.2041 104.9522 104.9522
   105.2117 106.1288 106.1288 106.9358 108.8910 109.3220 109.3220 109.6469
   111.2713 112.8401 112.8401 113.8354 113.8354 115.9377 115.9377 116.2065
   116.2065 116.2891 116.3826 117.3094 117.3094 117.8250 118.1026 119.2401
   119.2401 121.4357 121.4357 121.6539 122.2545 122.4548 122.8019 122.8019
   123.7503 124.3922 124.3922 124.8482 124.8482 125.3096 125.5371 125.5371
   126.5097 126.8354 126.8354 127.0456 127.6174 128.5966 128.5966 129.7628
   129.7628 130.4440 130.6439 130.6439 130.6913 135.6470 136.3459 136.3459
   136.5923 136.6863 136.6863 137.4764 137.8568 137.8568 138.2434 138.2434
   138.7955 139.1654 139.2350 139.2350 140.3374 140.7348 140.7348 140.9566
   141.0335 141.0602 141.0602 141.1259 141.1259 141.5790 141.5790 141.8971
   143.0463 143.0463 143.5371 143.5371 143.7295 143.7418 145.2083 145.2083
   145.7051 146.5067 147.4222 147.4222 148.0179 148.2748 148.4800 148.4800
   148.4817 149.5703 149.5703 149.9515 150.1714 150.1714 151.5990 151.5990
   152.8506 152.8506 152.9399 153.2084 153.2084 154.5510 154.7025 155.8215
   156.3235 156.3235 156.5805 156.8015 156.8015 157.4447 157.4447 157.7172
   158.5308 159.2938 159.2938 162.1508 162.1508 162.2516 162.2516 163.0471
   163.4304 163.6643 163.7792 163.7792 164.2561 164.2561 164.9009 165.1565
   165.1565 165.5479 166.1026 166.1026 166.2839 166.6557 166.6557 166.7544
   167.5464 167.5464 167.5865 169.8251 169.8251 169.8999 170.8846 170.8846
   171.1197 171.4424 171.4424 171.9563 172.7288 172.7288 173.8385 174.8443
   174.8443 175.4009 176.9106 176.9106 177.2944 177.6638 178.6028 178.6028
   180.0763 180.4837 180.4837 180.7276 180.7276 181.6311 183.2425 183.2425
   183.9308 184.1927 184.3602 184.3602 185.8912 187.4590 187.4816 187.4816
   188.0401 188.0401 188.0460 188.2155 188.2155 188.9558 188.9558 189.2248
   189.3357 189.3357 189.3599 189.4835 190.0936 190.1197 190.1197 191.7650
   191.7650 192.7060 193.4394 193.4394 193.5585 195.4219 195.4219 195.5457
   195.7989 195.9582 195.9582 196.2697 196.9072 196.9072 198.2529 198.2529
   198.3970 198.7085 198.7085 198.7494 199.1910 199.1910 199.3433 199.9553
   199.9553 200.2851 200.8123 200.8123 201.6844 204.0522 204.0522 205.3091
   205.3091 205.8062 206.4056 206.5035 206.5035 208.3183 208.3183 208.7125
   209.0901 209.0901 209.3897 209.4051 209.4051 209.5414 210.1137 210.5642
   210.5642 210.9416 210.9811 210.9811 211.3186 211.3186 211.3874 211.9280
   212.9676 212.9676 212.9845 213.1009 214.1031 214.1031 216.3083 216.3083
   216.4057 217.4717 217.4717 217.5234 217.9168 217.9168 218.4798 218.4798
   218.6325 218.6325 218.6438 218.8793 218.8793 219.0010 219.4529 219.8087
   219.8087 220.5597 220.6167 220.6167 221.3831 221.4712 222.0755 222.7866
   222.7866 222.9535 223.2741 223.2741 224.2986 224.2986 224.4089 224.8444
   224.8444 225.2851 225.2851 225.4950 226.4195 226.6676 227.3228 227.3228
   227.3445 227.3445 227.4458 229.0320 229.0320 229.1117 229.1332 229.2590
   229.2590 229.3752 229.3752 229.4742 229.8746 229.8746 230.1340 231.7702
   231.7702 232.0252 232.7438 232.7438 232.9261 233.8981 233.8981 234.1228
   234.1290 234.1290 234.3722 234.6850 235.3906 235.3906 236.0235 236.0909
   236.0909 236.3587 236.8190 236.8190 239.3610 240.3571 240.7972 240.9779
   240.9779 241.1709 242.0932 242.0932 242.8126 242.8126 242.9810 244.8455
   244.9740 244.9740 245.0165 245.0165 245.2984 245.6639 245.6639 246.4940
   246.8264 246.8264 247.3585 247.3585 248.1044 248.1044 249.3989 249.7827
   249.7827 250.2724 250.5386 250.5386 250.6098 251.6456 251.6456 252.2834
   252.2834 252.3541 252.4498 252.5479 252.5479 252.9586 252.9586 253.0584
   253.4450 253.4450 254.1433 254.8006 254.8006 255.0574 255.0880 255.0880
   255.1351 255.5809 255.5809 256.0347 256.4074 256.4074 256.6912 257.1999
   258.0144 259.3278 260.6952 260.6952 261.3479 261.6340 261.6340 262.7462
   263.0079 263.0079 263.0792 263.8626 263.8626 264.6372 264.6372 264.7630
   264.7630 264.9698 265.1010 265.7312 265.7312 266.9298 267.4377 267.4377
   268.0828 268.0828 268.2345 268.2345 268.2764 269.4995 270.4792 270.4792
   271.1158 271.1158 271.2770 271.6158 272.3688 274.7467 274.7467 275.0747
   275.0747 275.5038 275.5273 275.5273 275.9692 276.3742 276.8155 277.7389
   277.7389 278.9991 278.9991 280.0879 280.2543 280.2543 281.2445 281.3089
   281.3089 281.7247 281.7247 282.2139 282.3471 282.3471 282.3482 282.8441
   282.8697 282.8697 284.1673 284.1700 284.2481 284.2481 284.8348 285.2374
   285.2374 285.2612 285.4298 285.4298 285.8111 285.8111 286.1134 286.1221
   286.1221 286.4151 286.8095 286.8095 287.2440 287.2440 287.2899 287.6831
   288.4396 288.4396 288.4564 289.9349 289.9349 290.0352 291.6550 291.6550
   291.6873 292.2597 292.2597 292.4909 293.4759 293.7671 293.7671 294.0348
   295.7712 295.7712 295.9254 296.3049 296.4960 296.4960 296.7339 296.7339
   296.7660 298.2240 299.9182 299.9182 300.4751 300.8756 300.8756 301.1490
   301.1490 301.4856 302.0818 302.3650 302.3650 302.8484 302.8484 302.8968
   303.0492 303.0808 303.0808 303.5570 304.1129 304.1129 304.2211 304.2211
   304.5959 304.5959 304.7528 305.9650 306.1575 306.1575 307.0127 307.0127
   307.1433 307.4703 307.4703 308.1806 308.1806 308.6669 308.6812 308.9675
   308.9675 309.9064 310.1875 310.2115 310.2115 310.3447 310.3447 310.5229
   310.6434 310.6434 310.9046 311.8847 312.1471 312.1471 312.5534 312.5534
   312.6756 312.7752 312.7752 313.1052 313.2080 313.2080 313.3917 313.6642
   313.6642 314.0050 314.0371 314.0371 314.1059 315.1894 315.1894 315.4012
   316.3357 316.3357 316.4021 316.7162 316.7162 316.7556 316.8156 317.4167
   317.4167 317.4947 318.2547 318.2547 318.5621 318.5621 318.9824 319.0950
   320.4460 320.4460 320.6783 321.5453 321.5453 323.9663 324.4823 324.4823
   325.0912 325.0912 325.3961 325.5638 326.0254 326.0254 326.0747 326.3952
   326.4261 326.4261 326.4578 326.4578 327.1782 327.1782 327.6680 327.6680
   327.7115 328.2088 329.1924 329.1924 329.3665 329.3977 329.3977 329.4437
   329.8480 329.8480 329.9571 330.0626 331.1931 331.1931 331.9980 331.9980
   332.6111 332.9433 332.9433 332.9519 333.1909 333.1909 333.4538 333.6059
   333.8950 333.8950 334.1110 334.5046 334.5046 334.6062 335.0189 335.0631
   335.0631 336.1019 336.1019 336.4288 337.4108 337.4108 337.4267 338.6079
   338.6079 339.0601 339.1410 339.1410 339.7921 340.2934 340.2943 340.2943
   342.1457 342.1457 342.3151 342.7618 342.7618 344.0260 344.0260 344.4610
   344.5132 344.5132 345.2020 345.3522 345.7691 345.8618 345.8618 346.4354
   346.5919 346.5919 347.7896 347.8287 347.8287 347.9058 347.9521 347.9521
   348.4837 348.4837 348.7515 349.6097 350.2500 350.2500 350.3884 350.6006
   350.6006 351.1363 351.1363 351.1968 351.8976 351.9487 351.9487 352.3567
   352.3707 352.3707 352.3804 352.7382 352.7382 352.8597 353.4982 353.8464
   353.8464 354.5084 354.5770 354.5770 354.5933 354.6897 354.6897 357.6907
   357.6907 357.8169 357.8169 357.8876 358.7224 358.8513 359.6585 359.6585
   360.3405 360.3405 360.5114 361.0529 361.0529 362.4527 362.4527 362.6114
   362.8367 362.8367 362.9360 363.0386 363.0386 363.0573 363.2769 363.6955
   363.6955 363.7150 363.9844 364.3479 364.3479 364.7248 365.0512 365.0512
   366.6353 366.6353 367.4808 367.4808 367.5056 368.3233 368.3233 369.6611
   369.6611 370.1465 370.1465 370.2143 370.7083 371.3095 371.8284 371.9159
   371.9159 372.2473 372.2473 372.3785 372.4406 372.4406 372.6946 373.0301
   373.1819 373.1819 374.0528 374.0528 374.1402 374.2346 374.2346 376.2225
   376.2225 376.3103 376.4342 377.9152 378.0204 378.0204 378.8862 378.8862
   379.3314 380.3895 380.6619 380.6619 382.0680 382.1831 382.6209 382.6209
   384.0580 384.0580 384.6494 384.7369 384.7369 384.8785 385.4573 385.4573
   385.7674 386.9030 387.0292 387.0292 387.4839 387.5125 387.5125 388.4662
   388.4662 388.5302 388.9251 388.9251 389.0599 389.5577 389.5577 389.8041
   389.8538 390.4797 390.4797 391.0795 391.0795 391.8428 391.8428 392.1407
   392.2671 392.2671 392.4570 392.4570 392.8694 392.9220 393.0718 393.3903
   393.3903 393.8655 393.8655 393.9873 395.0562 395.0562 395.1332 395.4666
   395.4666 395.7647 395.9538 395.9538 396.2600 396.7475 396.7923 396.7923
   397.1560 397.2784 397.3677 397.3677 397.4323 397.4323 398.8097 398.8097
   399.4941 399.8160 400.2332 400.2332 400.6695 400.6695 400.7112 400.9883
   400.9883 401.0666 401.0671 401.3519 401.3519 401.7047 402.2595 402.2595
   402.4719 402.6935 402.6935 403.8195 403.8195 404.4183 405.0596 406.3130
   406.3340 406.3340 407.0338 407.0338 407.1308 407.1490 407.1490 407.2117
   407.2626 407.3446 407.3446 408.1104 408.1104 408.2213 408.2284 408.2284
   408.3061 409.3063 409.3063 409.6351 409.6351 409.6980 410.3546 411.1516
   411.1516 411.3261 411.7603 411.8548 411.8549 412.5806 412.5806 413.4943
   413.5262 413.5262 413.7945 413.7945 413.9049 414.1454 414.6861 414.6861
   414.8241 416.3968 416.6585 416.6585 417.3118 417.4663 418.2290 418.2290
   418.4564 418.4564 418.9351 419.0765 419.0765 419.1119 419.4165 419.4165
   419.6877 419.8613 419.8613 420.1700 420.3801 420.3801 420.8452 421.0663
   421.0663 421.3417 421.3417 421.3559 421.6248 421.6248 421.6445 422.4046
   422.4046 422.4157 422.8297 422.8792 422.8792 424.0431 424.0431 424.2196
   424.2196 424.2995 424.5320 425.1122 425.1238 425.1238 425.7836 427.0411
   427.2996 427.2996 427.4601 427.4601 427.5538 427.9806 428.4922 428.4922
   428.5311 428.8424 429.2218 429.2218 430.7548 430.7548 431.1243 431.2692
   431.2692 431.3955 431.3955 431.4416 431.5724 431.5724 431.7056 431.7056
   431.8559 432.0575 432.0575 432.1412 433.8284 434.8270 434.8270 434.8943
   435.0453 435.0453 435.1328 435.2948 435.2948 435.3951 435.3951 435.6682
   435.6682 435.7134 435.7667 436.0989 436.0989 436.1464 436.3197 437.3820
   437.3820 437.4973 437.4973 437.8617 438.3840 438.3840 438.3909 439.5475
   439.7139 439.7139 439.7680 439.7680 440.5737 440.5772 440.5772 440.5884

          k = 0.5000-0.5000 0.5000 (  3798 PWs)   bands (ev):

   -27.8078 -10.1349  -9.7893  -9.7893  -4.3470   3.1876   4.6189   4.6189
    11.0044  12.0482  12.6993  12.6993  14.6557  14.6557  15.1952  15.1952
    16.3720  18.4726  18.4726  19.9397  22.1566  24.6866  25.8452  25.8452
    27.4426  27.4426  28.7665  29.8822  29.8822  30.7442  31.6084  31.6084
    32.6720  34.9521  36.6244  36.6244  36.9192  36.9192  37.8155  40.3131
    40.8941  40.8941  40.9863  40.9863  41.4182  44.3113  45.6518  45.6518
    46.1476  46.4079  46.4079  48.4373  49.5061  50.2393  50.2393  51.4502
    52.6208  52.6208  55.8435  55.8435  56.7818  56.7818  57.3358  57.3358
    57.4496  57.4496  57.5233  57.7804  58.2478  58.2530  62.0408  62.0767
    64.2232  64.2232  65.0653  65.0653  66.3400  66.3400  67.3107  67.3107
    68.2751  68.2751  68.3440  68.7943  69.2419  70.6535  70.6535  71.0948
    71.0948  72.0046  72.0046  72.7124  72.7874  72.9306  77.3593  78.3494
    78.4733  78.4733  79.0120  79.0120  80.9888  83.0581  83.0581  83.3334
    83.3716  83.5809  83.5809  83.8751  85.1953  85.1953  85.3111  86.8651
    86.9810  86.9810  87.2773  87.2773  87.4196  87.4196  88.0570  89.2384
    92.3728  92.3728  92.3973  92.3973  92.9105  94.3363  95.4130  95.4130
    96.0734  96.1364  96.1364  97.1991  97.1991  97.7126  97.8102  98.7235
    98.7235  98.9147  99.0624  99.0624 100.3308 100.3308 101.0473 101.5523
   101.7622 103.8591 104.7939 104.7939 104.8411 104.8411 105.3497 105.3497
   105.5618 107.3255 107.3490 107.8743 107.8743 108.5991 108.5991 109.8606
   109.8606 111.7290 112.1402 112.7984 112.7984 113.1215 113.1215 115.3662
   115.3662 115.7464 115.8670 115.9269 115.9269 116.2225 116.8028 116.8028
   117.7901 119.7872 119.7872 121.6521 121.8788 122.7068 122.8937 123.0681
   123.0681 123.4238 123.4238 124.0033 125.0732 125.0732 125.6139 126.9203
   126.9203 127.2100 127.6626 127.7202 127.7202 128.9800 128.9800 129.3973
   129.3973 129.5410 129.5646 130.1586 130.1586 130.7114 131.4835 131.4835
   131.9418 131.9418 135.7974 136.3517 136.3517 136.8485 136.8695 136.8695
   137.2454 137.6802 138.6741 139.0445 139.0445 139.1844 139.1844 140.0796
   140.2192 140.2192 140.9239 140.9239 141.0769 141.0769 141.1967 142.2442
   142.2442 142.9251 144.1450 144.5817 144.5817 144.9102 145.8269 145.8269
   145.8341 146.0356 146.4842 146.4842 146.5335 149.1001 149.1001 150.6454
   151.1037 151.1037 151.3917 153.1601 153.1601 153.5186 153.5186 154.2954
   154.8826 154.8826 154.9353 155.0070 155.0070 155.0937 155.5316 156.3589
   156.3589 156.6883 156.6883 156.8180 156.8571 157.0822 157.3889 157.3889
   158.1110 158.1110 158.3478 159.1718 159.1718 159.7987 160.1724 161.6503
   161.6503 163.1888 163.1888 166.7954 169.5514 169.7886 169.7886 170.1020
   170.1020 170.4033 170.4210 170.4210 170.5114 170.5114 171.1938 171.2308
   171.2315 171.2975 171.2975 171.3260 171.3989 171.3989 172.1385 173.2840
   173.5346 173.5346 175.6069 175.7805 175.7805 176.1494 177.2512 177.2512
   177.3481 177.4437 177.4781 177.4781 177.5343 178.0156 178.0259 178.0259
   178.0491 178.0491 178.3109 178.5468 178.5468 178.7161 178.7161 181.0655
   182.2533 182.2533 182.2589 182.2589 183.7343 183.7345 186.4654 186.4654
   186.5740 186.5740 188.1918 188.6054 188.6826 188.9774 188.9774 189.0045
   189.0045 189.7938 189.7938 190.4746 190.4746 190.5328 190.5328 190.5909
   190.5909 191.1014 191.3164 191.3164 191.8405 192.2180 193.3906 193.3906
   194.1378 194.1378 194.2480 194.2958 194.4410 194.5267 194.5267 194.7165
   194.9249 195.3649 196.2746 196.2746 197.4824 197.4824 198.0654 198.2553
   198.2553 199.3191 199.4689 199.4689 202.7162 202.7162 202.8959 202.8959
   203.1284 203.5523 204.4003 204.4003 204.7619 204.7619 205.0764 205.1285
   206.1464 207.4697 207.4697 208.2996 208.2996 208.8406 209.1476 209.1476
   209.5085 209.5085 209.5618 209.9600 210.6416 211.3121 211.3121 211.5026
   211.5026 211.9853 212.0880 212.7961 212.8608 212.8608 213.2686 213.2686
   213.6407 213.7941 215.1721 215.2685 215.2685 215.7056 215.7056 216.2184
   216.4338 217.1670 217.4891 217.4891 217.6204 217.6204 218.3919 218.4082
   218.8388 218.8388 219.3546 219.3546 221.6078 221.6078 221.7846 221.7846
   223.5582 223.5582 224.3712 224.4342 224.7445 224.7445 226.6677 226.7774
   226.7774 227.4204 227.4204 227.7631 228.4622 228.4622 229.4617 229.6695
   229.6695 230.1693 230.1693 230.4907 231.1731 231.3435 231.6720 231.6720
   231.7946 231.8643 231.8643 232.0969 232.0969 232.0999 233.8795 233.8795
   234.3389 234.3389 234.4218 235.2072 235.3309 235.4126 235.4126 235.4557
   237.9829 238.1350 238.1350 238.2310 238.7533 238.7533 239.1316 239.1316
   241.3491 241.3491 241.5407 242.2607 243.1606 243.4243 243.4243 243.4703
   243.4703 243.8170 244.0352 244.1526 244.6389 244.6389 244.6512 244.6512
   245.0990 245.0990 245.9120 245.9362 246.1093 246.1093 246.3500 246.3500
   246.7462 246.7462 247.1446 247.1457 247.3585 247.3585 247.8966 248.7094
   250.6598 251.4955 251.6390 251.6390 251.6601 251.6601 251.9834 251.9834
   252.3173 252.4356 252.4356 252.9254 252.9417 252.9770 253.6996 253.6996
   253.7463 253.7463 254.5361 254.5361 254.6166 254.6166 254.9419 254.9741
   259.0704 259.0704 259.9019 260.0978 260.3233 260.3233 260.5329 260.5329
   261.0398 261.3385 261.3385 261.3947 261.4309 261.4309 262.2444 262.2444
   262.3259 262.3259 262.4825 262.5801 263.7125 264.1066 264.1066 264.2654
   264.2762 264.5811 264.5811 266.8798 267.0014 267.0014 267.0462 267.0462
   267.1796 267.2948 267.9669 267.9669 268.8990 269.1082 269.1082 269.3415
   270.1931 270.1931 270.6290 270.7688 270.7688 271.9206 271.9206 272.3388
   272.8367 273.8432 273.8432 274.3111 274.3111 274.4888 274.5119 274.6988
   274.6988 274.8321 274.9365 274.9365 275.1213 275.1213 276.4414 276.4414
   277.0843 277.6088 279.2693 279.2693 279.9308 279.9308 279.9510 279.9510
   279.9609 281.1066 281.4447 281.4447 281.7862 281.7907 282.1842 282.5834
   283.1082 283.1082 284.6426 284.7817 284.7817 284.7829 284.7829 285.3966
   285.3966 285.4950 285.5553 286.8627 286.8627 287.1551 287.1551 287.9521
   288.6014 288.7046 289.0912 289.0912 289.1048 289.1048 289.3356 289.3361
   293.5433 293.5433 296.0097 296.0097 296.0266 296.0266 297.1196 297.1196
   297.2203 297.7724 297.7724 298.3022 298.3022 298.3410 298.4767 299.1381
   299.2016 299.2016 299.5892 299.5892 299.7645 299.7645 299.7863 299.9181
   300.1114 300.1774 300.1774 300.4762 300.7837 300.9546 301.3054 301.3054
   301.3716 301.3716 302.4299 302.4299 302.5280 302.6700 302.6700 302.7337
   303.1072 303.1072 303.2384 303.3696 303.3696 303.5017 303.8701 303.8886
   303.8886 304.2190 304.2190 304.5654 304.7793 304.7793 305.4316 305.4531
   305.9404 305.9404 306.2500 307.5475 307.5475 307.6091 307.6091 308.3904
   308.7893 309.2355 309.2355 309.8979 310.8331 310.8331 312.3337 312.3337
   312.7851 312.8656 312.9352 312.9352 314.7354 314.7354 315.8052 316.4649
   316.4649 316.9820 317.2451 317.2451 317.3118 317.4483 317.6349 317.6349
   317.7503 317.7503 317.8721 318.2171 318.2171 318.3801 318.3801 318.6199
   318.7208 319.2958 319.2958 319.8098 319.9285 319.9285 320.1304 320.4301
   320.4301 320.5573 320.5661 321.6723 321.9127 321.9127 321.9647 323.4235
   323.4235 323.6777 323.6777 323.7450 323.8462 325.3494 325.3494 325.4578
   326.3981 326.3981 327.1934 327.2103 327.2103 327.2594 327.2594 327.3850
   328.0657 328.0657 328.1459 328.1910 329.6072 329.6072 330.9808 330.9808
   331.1148 331.4922 331.4922 331.7716 333.4624 333.8426 333.8426 333.9293
   333.9293 334.9059 334.9059 335.6140 335.7874 335.7874 335.9406 336.0910
   337.2315 337.2315 337.3996 337.3996 337.5176 337.5249 337.5249 337.5891
   337.7965 337.7965 338.2265 338.2551 338.3470 338.3470 339.3332 339.4757
   339.4757 339.8830 339.8830 340.2183 340.4080 340.6818 340.6818 340.7108
   340.7108 341.1253 342.0141 342.0141 343.2217 343.2217 343.3190 343.3316
   343.3316 343.6776 344.9284 344.9284 344.9752 344.9755 345.2828 345.2828
   347.6677 347.6677 349.5803 350.1296 350.5753 350.5753 350.9231 350.9319
   350.9482 350.9546 350.9546 351.0069 351.0069 351.1418 351.5959 351.5959
   351.7343 351.7343 351.8274 352.0715 352.0787 352.0787 354.7831 355.0415
   355.0415 355.0458 355.0534 355.0534 355.0737 355.9944 355.9944 356.6260
   357.4477 357.4477 358.3092 358.3092 358.5853 358.8559 358.8559 358.8613
   358.9166 358.9166 358.9402 358.9557 359.3921 359.3921 361.0130 361.0130
   362.5876 362.6849 362.6849 362.6976 362.6976 362.8685 362.8695 363.6222
   363.6222 363.8587 364.0092 364.0092 364.0573 364.4894 365.4862 365.8476
   365.9010 365.9010 366.3166 366.5155 366.5155 366.6441 366.7553 366.7553
   369.9060 369.9060 370.1397 370.5466 370.5466 370.6543 370.9971 370.9971
   371.8017 371.8017 371.8275 371.8275 372.4383 372.4883 372.4931 372.4957
   372.7844 372.7844 372.8268 372.8268 372.8575 373.3081 373.3081 373.3557
   373.4525 373.4525 373.7423 373.7423 373.9706 374.0602 374.5445 374.7868
   375.0580 375.0580 375.1194 375.1194 377.8964 377.8964 377.9825 377.9825
   377.9902 378.1457 378.4370 378.4370 378.4794 378.4794 378.6113 378.6170
   380.9806 380.9806 381.2761 382.6672 383.5686 383.5686 384.3467 384.3467
   385.0684 385.0684 385.1401 385.1766 385.1766 385.2055 385.8608 385.8608
   385.8897 385.8897 386.0041 386.0376 386.4418 386.4418 386.5100 386.6588
   386.6588 386.7199 386.8164 388.9931 388.9931 389.1165 389.8678 390.5872
   390.5872 390.6682 390.6682 390.7216 390.9691 390.9691 391.1415 391.5450
   391.7443 391.7443 391.9209 392.0308 392.2029 392.2029 392.5885 392.5885
   392.6081 392.6212 392.6212 392.6428 392.8402 393.0312 393.0424 393.0424
   394.4975 394.9532 394.9532 395.2414 395.4349 395.4349 395.7853 395.7853
   395.8838 396.3478 396.8584 396.8584 397.3102 397.3102 397.3630 397.3630
   400.6785 400.6785 401.0702 401.0702 401.0852 401.2823 401.4818 401.4818
   401.9797 401.9797 402.0098 402.0993 402.3856 402.3856 402.4246 402.4246
   403.0228 403.0229 403.8000 403.8000 403.8187 403.8187 405.3755 405.3756
   406.7788 406.7788 407.8813 407.9690 407.9690 408.3755 408.3874 408.9069
   408.9069 409.4898 409.4898 409.5759 409.5759 410.4171 410.7047 410.8608
   410.8847 410.8847 411.2809 411.2809 411.4949 411.4949 411.5962 411.6196
   412.6446 412.6446 412.7812 412.7812 413.3322 413.3322 413.3606 413.7349
   413.8511 414.0716 414.0738 414.0738 414.3551 414.3551 414.4104 414.4104
   414.4376 414.5597 415.3846 416.3148 416.3148 416.7746 416.8154 416.8284
   416.8284 416.9289 420.5883 420.5883 422.1170 422.1170 422.6656 422.6656
   422.8234 422.9063 423.2185 423.2901 423.2901 423.8868 424.1719 424.1719
   424.2761 424.5013 424.5710 424.5710 424.6379 424.6379 424.8397 424.9923
   424.9923 425.0295 425.0578 425.2383 425.2383 425.3276 425.3276 425.4649
   426.2854 426.2854 426.3442 426.4572 426.4572 426.8519 427.0131 427.0454
   427.0454 427.2337 427.2337 427.2576 427.2576 427.3916 427.3916 427.4866
   427.7365 427.7365 428.6753 428.6753 428.7987 428.7987 428.9216 429.0301
   429.0320 429.0320 429.0333 429.0333 429.0338 429.0579 430.8221 430.8221
   432.0413 432.1160 434.0649 434.0649 434.3356 434.4855 434.7589 434.7589
   439.6784 439.6784 439.8711 439.8711 440.3951 440.3951 440.6476 440.7955
   440.8427 441.0686 441.1300 441.1300 441.2868 441.3387 441.3387 441.9576
   441.9576 441.9724 442.0100 442.0876 442.0876 442.0958 442.0958 442.1029

          k = 0.0000 0.5000 0.0000 (  3767 PWs)   bands (ev):

   -27.8136  -9.9266  -9.8127  -9.8127  -4.7650   4.0646   5.3258   5.3258
     8.9353  10.6111  11.4833  12.0862  12.0862  14.2453  16.6909  17.5427
    17.5427  18.1229  21.2053  22.2414  23.1611  23.9320  23.9320  25.1286
    26.8980  26.8980  28.3670  30.5546  30.5546  31.0514  31.1780  33.1759
    33.1759  34.6697  36.3146  38.0524  38.3613  38.6120  38.6120  39.0841
    39.4570  39.4570  40.3095  40.3095  40.6896  42.5502  42.5658  44.0794
    44.3037  46.7921  47.6123  49.9570  49.9570  51.5759  51.8579  52.7387
    52.7387  53.1245  53.1245  54.3170  54.3170  55.5655  56.0282  56.0282
    56.5879  57.1554  58.1064  58.1064  58.7706  58.8190  60.2538  64.1679
    64.2844  64.7892  64.9086  64.9086  65.6685  66.9642  67.7726  67.8803
    67.8803  69.3094  69.3318  69.3318  69.9725  71.7714  73.8652  73.8652
    74.5515  74.9934  74.9934  76.7395  76.7395  76.8530  77.3108  77.8180
    78.2222  78.2979  78.5548  79.4581  79.4581  80.5425  81.2054  81.2054
    81.8193  82.4619  82.4619  82.9049  83.4607  85.9270  85.9523  85.9523
    86.5579  86.8331  87.5249  87.5249  88.5269  89.3114  89.6018  89.6556
    89.6556  90.1940  90.5333  90.5333  91.0081  91.9061  91.9061  92.3769
    92.8853  92.8853  93.3505  93.8212  94.2099  94.2099  94.7567  97.0131
    98.1501  98.8725 100.0769 100.0769 102.2652 103.3155 104.0626 104.6382
   104.6910 104.6910 104.9390 105.0292 105.0292 105.6376 105.8146 105.8491
   105.8491 106.6753 106.6753 106.8554 107.6877 109.3297 110.9038 111.6710
   111.6710 111.7350 112.2074 112.2074 112.7463 113.0167 113.0949 114.6826
   115.1907 115.1907 115.6826 116.5965 116.7639 118.0734 118.0734 118.6014
   119.7379 120.5357 121.5189 121.5189 122.2221 122.2221 122.6138 123.4186
   123.9724 123.9724 124.2409 124.3470 124.3470 124.7701 124.9562 125.2365
   125.7813 126.9388 126.9388 127.4385 129.0709 129.0709 129.3256 129.4423
   129.4423 130.7878 131.2780 131.4636 132.4617 132.4617 132.6035 132.6035
   132.6170 133.8977 134.2044 135.1173 135.1173 135.3857 136.2948 136.2948
   136.5997 136.7094 136.7094 137.1301 137.4016 138.2346 138.2346 138.4186
   138.6535 139.1410 140.3999 140.3999 141.9637 142.3498 142.5779 144.0500
   144.3896 144.3896 145.7074 146.5165 147.1204 147.1204 148.3694 148.4695
   148.4695 148.4869 149.4335 149.5941 149.5941 150.0119 150.5199 151.0249
   151.5712 151.5712 151.9212 152.1785 152.9411 152.9411 153.1586 154.3972
   154.4126 154.4126 154.9253 155.7964 155.9736 155.9800 155.9800 156.2968
   156.3482 156.3482 157.1632 157.3984 158.1723 158.4922 158.5000 158.5275
   158.5275 158.7862 158.8375 158.8375 159.9743 159.9743 160.6031 160.7739
   161.4152 162.0808 162.0808 162.3085 162.3251 162.5729 162.5729 162.7215
   162.7347 165.2681 165.2681 166.4720 166.4720 166.6864 167.1675 167.3368
   167.7330 168.1400 169.0857 169.0857 169.5138 170.1002 170.1840 170.1840
   172.1727 172.1727 172.3953 172.8556 173.8398 173.8398 174.9007 174.9355
   176.5368 177.3284 177.4257 177.6681 177.6681 178.3910 178.3910 179.3466
   179.5010 179.5010 180.5832 180.8588 180.8588 181.1977 182.2429 182.6959
   183.3999 183.4650 183.4650 184.5435 184.6307 184.6307 184.8462 184.9225
   186.1470 186.1470 187.4295 187.4295 187.4312 187.4854 187.5163 188.3064
   188.5371 188.5371 188.9199 190.0428 190.3214 190.5185 190.9380 190.9380
   192.3595 192.7770 192.7770 193.2923 194.1090 194.3511 194.3511 194.8885
   196.8618 197.4274 197.4274 197.9328 197.9712 198.6917 199.8880 199.8880
   200.3524 200.3524 200.6137 200.6137 200.8714 201.5734 202.9219 202.9929
   203.4807 203.4807 203.5211 203.5211 203.5889 203.6531 204.3861 204.3861
   204.9098 205.1054 206.4452 206.4452 206.5049 206.8589 207.2427 207.3127
   207.6138 208.4965 208.4965 208.5689 208.6146 209.0168 209.0168 209.2480
   209.4219 210.0565 210.1277 210.3149 210.3149 210.8014 210.9044 210.9044
   211.0057 211.1116 211.4022 211.4022 211.5729 213.2722 213.7076 213.7076
   213.9899 214.0948 214.2247 214.2247 214.2685 214.6197 214.6197 215.8097
   216.3970 217.1960 217.3721 217.3721 217.5876 217.7856 217.7963 218.1177
   218.1177 218.3390 218.3390 218.9648 219.8338 220.2422 221.1285 221.1696
   221.1696 221.2803 221.2803 221.3132 221.5378 223.3972 225.4304 225.4304
   225.6778 227.8034 227.9445 228.0253 228.5331 228.5331 228.6157 228.9456
   228.9456 229.3594 229.4514 229.8777 229.9793 229.9793 230.2533 230.7163
   230.7163 231.1317 231.2761 231.2761 231.3716 232.0764 232.3908 232.6235
   232.6235 232.7504 233.5339 233.5339 234.8768 234.8768 235.2778 235.2778
   235.3903 235.8208 237.4812 237.5104 237.9554 237.9554 238.8267 239.9955
   240.0770 240.4516 240.4516 240.7386 240.9872 240.9872 241.0524 241.5041
   241.5041 241.6361 241.9746 242.6505 242.7908 242.7908 242.8397 242.9869
   242.9869 243.5486 243.7555 243.8755 245.0257 245.0257 245.0378 245.7053
   246.5558 246.5558 246.6439 246.7227 247.2151 247.3257 247.3488 247.3488
   248.5723 248.8111 248.8111 248.9023 251.8755 252.8742 252.8742 253.5872
   253.8378 253.8378 253.9054 254.0119 254.9945 254.9945 255.0036 255.0466
   255.2100 255.8173 255.8173 255.9913 256.2497 256.2497 256.3310 256.7703
   257.2716 257.4635 257.4635 257.6933 258.1516 258.2910 258.2910 258.2939
   258.8293 259.1198 259.9901 260.1680 260.1680 260.4137 260.4137 260.4728
   260.9089 261.1183 261.1183 261.2475 261.7345 261.7345 261.7817 262.1805
   263.6212 263.6212 264.5749 264.5944 264.6261 266.0420 266.1821 266.1821
   266.3796 268.5009 268.9636 268.9636 269.1386 270.4954 271.0470 271.3759
   271.3759 271.4891 272.0614 272.0614 272.3699 273.4891 274.5788 276.1744
   276.1744 276.5102 277.4944 277.4944 277.8075 278.1434 278.4747 278.4747
   278.7744 279.0840 279.0840 279.4517 279.5507 280.2886 280.5868 280.8303
   280.8303 281.1194 281.2569 281.2803 281.8604 281.8604 281.8911 282.1320
   282.1320 282.7483 282.7483 282.7670 282.9150 282.9211 282.9979 283.2345
   283.2345 283.2440 284.7595 284.8805 284.8805 285.0324 285.2375 285.2963
   285.4936 285.4936 286.0933 286.1069 286.1530 286.1530 287.8426 287.9305
   287.9562 287.9960 287.9960 288.7259 288.8130 288.9414 288.9414 289.1154
   289.1154 289.7768 292.4665 292.9533 292.9533 293.3317 293.7645 294.9893
   294.9893 296.1373 297.6634 297.9398 297.9398 298.6084 298.6084 298.6177
   299.2582 299.2582 299.3555 299.5486 299.6654 299.8389 299.8389 300.1492
   300.1492 300.1859 300.1892 300.2031 300.3571 300.3571 300.4121 300.6125
   302.1098 302.1098 302.1885 302.2498 303.0606 303.1157 303.1794 303.1794
   303.8594 303.9979 303.9979 304.5905 304.6890 305.2858 305.4195 305.4195
   306.4531 306.4531 306.6373 306.9392 306.9601 308.3092 308.3092 308.6600
   308.6996 308.6996 308.9585 309.2398 309.4756 309.5525 309.5525 310.3783
   311.0444 311.2538 311.2584 311.2584 311.3466 311.3548 311.4244 311.5041
   311.5041 311.5895 311.9809 311.9809 312.0186 313.8894 314.0066 314.5962
   314.6520 314.6520 315.3459 315.3459 315.7478 316.2073 316.4731 316.4731
   316.6533 317.6679 317.8176 318.4934 318.4934 318.5948 319.7524 319.9490
   319.9490 320.1013 321.1366 321.6397 321.6397 322.3048 322.6666 322.7699
   322.7699 322.8146 322.8963 322.8963 323.7435 323.8741 324.4391 324.4391
   324.4639 324.5056 324.5919 324.5919 324.8217 324.9863 325.3033 325.3033
   325.8307 327.2270 327.2914 327.2914 327.3202 327.3202 327.3490 327.3688
   327.5762 327.5762 327.7020 327.8513 327.9186 328.1027 328.1027 328.2626
   329.7244 330.6607 330.6607 331.2566 331.6948 331.7286 332.3349 332.3349
   332.4461 333.4236 334.1850 334.2089 334.2089 334.3300 334.3847 334.4627
   334.5171 334.5171 334.6863 334.7542 334.7542 334.8392 335.1570 335.2342
   335.2342 335.3245 336.1537 336.1537 336.7255 336.7804 336.8917 337.1271
   337.1271 337.3055 337.4277 337.4593 337.7522 337.7522 337.8940 337.8940
   339.2453 340.2040 340.8373 341.7005 341.7005 341.9148 341.9316 343.0980
   343.0980 344.6072 345.4402 345.5272 345.5272 345.5626 345.7590 346.0550
   346.2436 346.2436 346.3952 347.7741 347.9570 347.9570 348.0059 348.3076
   348.7082 348.7082 349.6741 350.1989 350.1989 350.4003 350.5520 351.4584
   351.7239 351.7239 353.3728 353.3728 354.5759 354.7925 355.2680 355.2680
   356.0399 356.3547 356.3851 356.4244 356.6162 357.0132 357.0132 357.0216
   357.7806 357.7806 357.8947 358.4059 358.4491 358.4491 358.5000 358.5410
   358.6342 358.6342 358.6833 359.1297 359.1297 359.1360 360.3460 361.0410
   361.4709 361.4709 362.1749 362.1749 362.4519 362.6936 363.4494 363.4494
   363.4806 363.6036 363.6130 363.9254 363.9964 363.9964 364.1826 364.8052
   365.4820 366.1667 366.1667 366.5965 367.3818 367.3818 368.2943 368.3930
   368.3930 368.4176 368.4351 368.5025 369.4794 369.4794 370.2374 370.3224
   371.0076 371.0368 371.2894 371.2894 371.7935 371.8087 372.0574 372.0574
   372.4090 372.4090 372.4298 372.6002 372.8815 372.8815 372.9670 373.4118
   373.4118 374.6446 374.9959 374.9959 375.0398 376.6823 376.7953 376.7953
   376.8579 376.8878 377.4523 377.6084 377.6084 377.6934 377.6934 377.8268
   378.1193 378.1561 378.1561 378.2029 378.2360 378.6881 378.9374 379.1811
   379.1811 379.6215 379.6215 379.7984 380.5368 380.5368 380.5625 380.6342
   380.9366 381.8049 383.3049 383.3609 383.3609 383.6301 384.1250 384.1250
   384.1633 384.2537 384.4651 384.6222 385.5725 386.7347 386.7347 386.7711
   386.7881 387.3783 387.3783 387.4862 388.3480 388.4641 388.4641 389.2734
   389.3106 389.8256 389.8256 389.8848 389.9827 389.9907 389.9907 390.4898
   390.4898 390.5223 390.9964 391.1422 391.1422 391.1785 391.6719 391.8162
   391.8162 391.9983 392.1851 394.5573 394.5573 394.5894 395.4198 397.4080
   397.4080 398.5374 398.9159 398.9159 398.9426 399.0704 399.1806 399.2833
   399.2833 399.4730 399.4730 399.7704 399.8814 401.6101 401.9294 401.9294
   402.5948 403.3549 403.3592 403.3592 403.5288 404.3240 404.3240 404.3565
   404.9536 405.0655 405.0958 405.1102 405.1951 405.1951 405.5459 406.3496
   406.3496 406.3809 406.5838 406.5838 406.6389 406.7859 406.9084 407.0072
   407.0072 407.0697 408.4126 409.0462 409.3086 409.4670 409.4670 409.7165
   410.1838 410.1838 410.6911 410.8537 410.8537 411.0706 411.7415 411.7415
   411.7844 411.9910 413.2443 413.3358 413.3358 413.4061 413.4061 413.4422
   413.5017 413.8108 414.8722 414.9300 414.9766 414.9766 416.5929 416.5960
   416.5960 417.0005 417.3709 417.6284 417.6523 417.6523 417.7156 417.7968
   417.7968 417.8162 418.5905 418.5905 418.8040 418.8909 419.0149 419.4264
   419.4264 419.4502 420.2301 420.4810 420.5165 420.5346 420.7803 420.7803
   420.9744 420.9744 421.6419 421.6552 421.6552 422.0386 423.0693 423.0856
   424.0058 424.0058 424.8728 425.3029 425.5093 425.6114 425.6114 425.7108
   426.1197 426.1197 426.2767 427.0281 427.0281 427.0952 427.1466 427.3597
   427.3597 427.7492 427.7667 427.9390 427.9390 428.1037 428.3135 428.6412
   428.8300 428.8300 429.1544 429.5894 429.5894 429.7273 430.3869 430.7859
   431.1519 431.1519 431.5831 432.5766 432.5878 432.8458 432.8458 432.8552
   432.8998 433.1043 433.1043 433.1402 433.8000 433.8000 433.8090 433.8251
   433.8385 433.8385 433.8713 433.9003 433.9450 434.2379 434.2379 435.0576
   435.2312 435.3518 435.3518 435.4532 436.7056 436.7056 436.9255 437.5631
   438.9463 439.2968 439.2968 439.5862 440.0608 440.2449 440.3417 440.3417
   440.4223 440.5450 440.5450 440.7935 441.2034 441.2885 441.2886 441.3281

          k = 0.7500-0.2500 0.7500 (  3775 PWs)   bands (ev):

   -27.8052 -10.0301  -9.8645  -9.8239  -4.5593   3.8631   4.6000   4.8919
     9.5842  12.1844  13.0731  13.0857  13.1548  13.6932  15.0100  16.4266
    17.4384  19.4345  20.0311  20.9621  22.8790  23.1450  23.5589  25.0856
    25.9855  27.1198  28.3933  29.0472  29.9370  31.8201  32.0018  32.5456
    33.6459  33.8270  35.3760  35.8042  36.8954  37.2717  37.6387  39.2591
    39.5496  41.2059  42.2489  42.5029  44.3951  45.4411  46.4578  46.5190
    46.9444  47.5763  47.6461  48.3758  48.4296  49.8700  50.1640  51.3332
    51.4314  52.2805  52.7164  54.8832  55.8361  57.0308  57.2716  57.4057
    57.5117  58.5171  59.3785  60.3561  60.7959  60.8767  61.3625  61.3980
    61.5918  61.8826  62.1230  62.7266  64.5111  64.9090  66.5423  66.6089
    67.4647  68.2483  69.1623  69.3571  69.8931  69.9278  71.3201  72.0880
    72.8803  73.1991  73.3026  75.2708  75.3091  75.6786  76.2889  76.6462
    77.1322  78.6028  78.8088  78.9725  79.2518  80.3168  80.4230  81.1941
    81.7209  81.9321  82.0741  82.3045  83.1529  83.8997  84.8766  85.0673
    86.4564  88.8171  89.2855  89.3187  89.6243  90.5442  91.2634  91.4194
    92.0007  92.5264  92.5282  93.0051  93.4030  93.9917  94.8183  95.1498
    95.4120  95.6774  96.0491  97.2529  97.5441  98.0529  98.2547  98.9587
    99.9477 100.0928 100.5967 100.6122 100.9837 101.4471 101.7286 101.7448
   102.8638 103.7531 104.0179 104.6743 105.8908 106.3750 106.6789 106.8295
   107.3145 108.1353 108.1538 108.2156 108.8553 109.5675 109.6884 109.9500
   110.0072 110.5574 111.9523 112.4221 112.9687 113.3037 113.7052 114.8668
   114.8735 114.9349 115.2223 115.6358 116.2767 116.8345 117.4030 118.2870
   118.3552 119.0310 119.4805 119.6550 119.7531 119.8597 120.5033 120.7619
   121.5921 121.9450 122.1704 122.8256 123.1495 123.1775 123.6762 124.0649
   125.2104 125.9643 126.1404 126.3830 127.4089 128.0744 128.2812 128.8566
   128.9530 129.0360 129.7328 130.3908 130.5025 130.5762 131.3852 133.1905
   134.1414 134.9477 135.0068 135.2727 135.4356 135.7086 136.3685 136.6388
   136.8761 136.9777 137.8170 137.9620 138.4489 138.7936 139.4025 139.5809
   139.6966 140.0366 140.1435 140.5607 140.9719 141.5066 141.6275 141.9331
   142.7496 143.0874 143.2072 144.0890 144.2297 144.6204 145.0797 145.5340
   146.3407 147.4441 148.7074 149.7290 150.1304 150.1651 150.7963 151.2468
   151.8618 151.8763 152.3239 152.3305 152.4869 153.0667 153.1448 153.6546
   153.9342 154.1476 154.5115 155.7975 155.8334 156.3124 156.7430 156.9310
   157.0016 158.1026 158.4121 159.0963 159.5887 159.7560 160.3761 160.6818
   161.3151 161.3865 161.8260 161.8641 162.3401 162.5170 162.6648 163.0961
   163.5301 164.1639 164.9346 165.3269 165.5332 165.6701 166.3348 166.7788
   168.1676 168.3140 168.7045 168.9167 169.2075 169.6974 170.0009 170.3791
   170.6525 170.6612 171.0361 171.7953 171.8967 172.0284 172.4838 172.7752
   172.9770 174.0719 174.1933 174.3712 174.7556 174.7971 174.9024 175.3331
   175.3681 175.5453 175.8343 175.9621 176.1877 177.2511 177.3535 178.4231
   178.7739 178.8644 179.9741 180.3736 181.0180 181.0453 181.7948 181.8719
   182.2393 182.4613 182.6460 183.5424 184.2751 184.8384 185.1463 185.3021
   185.4095 185.6280 186.2963 186.5152 186.7191 186.9552 187.0294 187.8426
   188.2923 188.6414 189.9430 190.0658 190.6414 190.7918 191.0996 191.2846
   191.6698 192.1772 192.3432 192.5668 193.0902 193.0979 193.6497 193.9892
   194.1134 194.3568 194.6097 194.7396 195.3560 195.7776 196.1132 196.2386
   196.4670 196.6761 196.6852 197.1021 197.1189 197.7171 197.9047 198.4495
   199.1343 199.1851 199.8307 200.1041 200.1359 200.4651 200.8242 201.2384
   201.8071 201.9849 202.8811 203.1856 203.5278 203.7240 203.7359 204.4216
   204.7751 205.4981 205.5104 206.0954 206.6874 208.1214 208.6676 209.4454
   209.6090 209.7159 210.1283 210.9586 211.1110 211.1682 211.8058 211.9883
   212.2092 212.2964 212.3595 212.8843 213.0561 213.2241 213.3588 213.5203
   213.7616 214.1282 214.3024 215.3801 215.9236 216.0949 216.4375 216.8398
   217.1894 217.6148 217.9391 218.4386 218.7386 218.9903 219.1029 219.2156
   220.0107 220.1185 220.4721 220.8605 221.2940 221.5702 221.7533 222.4016
   222.4696 222.5040 222.6648 222.9029 223.1789 223.8512 223.9541 224.3829
   225.5887 226.1921 226.4709 226.6478 227.6797 228.4078 228.7845 229.4463
   229.4640 230.1343 230.7480 230.8216 231.0886 231.2997 231.4938 232.0453
   232.0912 232.3750 232.7466 233.0475 233.4356 233.7524 233.9667 234.1478
   234.2323 234.6527 235.0708 235.6395 235.8443 236.0285 236.2837 236.8093
   236.9767 237.6470 237.7725 237.9542 238.0265 238.0858 238.5224 238.8178
   239.3705 239.8610 239.9575 240.0850 240.2193 240.4992 240.5858 240.8921
   241.0809 242.3551 243.4510 243.9610 244.3288 244.8300 244.8692 245.1959
   245.2863 245.6328 246.4778 247.0723 247.2573 247.6845 248.5523 248.5743
   248.6547 248.7270 249.0967 249.4998 249.8538 249.8913 250.2194 250.7928
   250.7992 251.3063 251.4879 251.5383 251.7491 252.5014 252.7719 252.8842
   253.3348 253.5212 254.3297 254.5514 254.6175 254.9971 255.0953 255.4061
   255.5001 256.0094 256.0477 256.6634 256.7708 256.9914 257.0180 257.2755
   257.8113 258.2078 258.5662 258.8420 258.9777 259.1812 259.5012 259.5074
   259.8406 260.5705 260.9316 261.3455 261.5034 261.7799 262.6015 262.6947
   262.8500 262.9465 263.2798 263.4075 263.5938 264.1914 264.4257 264.4514
   265.1623 265.1812 265.3423 266.1918 267.2905 267.3116 267.7759 268.0474
   268.2990 268.4400 268.8566 269.1717 269.2983 269.4546 270.0329 270.2954
   270.3750 270.5834 271.1640 271.7210 271.7763 272.2368 272.2925 273.1600
   273.2292 273.3050 274.2311 274.5905 274.7422 274.8135 275.0380 275.0885
   275.3065 276.7441 277.1096 277.2623 277.8676 277.9111 278.2539 278.4532
   278.7206 279.1031 279.1185 280.0293 280.0899 280.1845 280.7140 281.0022
   281.0312 281.2311 281.2893 281.4863 281.9862 282.0188 282.1251 282.1354
   282.1575 282.4011 283.1511 283.6887 284.2193 284.3513 284.7489 284.8474
   285.1885 285.1958 285.4841 286.1936 286.1965 286.6038 286.8668 286.8885
   287.2296 287.6948 288.2432 288.5667 288.7873 289.1274 289.2285 289.4567
   289.6897 290.2582 290.2806 290.7012 290.7472 291.1832 291.4265 291.8498
   292.1536 292.9169 293.1934 294.0353 294.2946 294.3783 294.5883 294.9123
   294.9894 295.3950 295.9400 295.9999 296.0707 296.4536 296.9233 297.3922
   298.1745 298.2144 298.4878 298.5052 298.8119 298.9302 299.0083 299.3403
   299.4376 299.4990 299.6676 299.9091 300.0138 300.3298 301.1255 301.1654
   301.4431 301.5615 302.7167 303.5065 303.7710 304.0118 304.0254 304.0937
   304.4465 304.8675 305.2344 305.3772 305.9209 306.1407 306.9982 307.7745
   307.9141 308.0362 308.1846 308.6655 308.7970 309.0586 309.0886 310.0642
   310.6458 311.2904 311.8155 311.9489 312.4516 312.7311 312.8852 313.0696
   313.1083 313.5960 313.6623 313.8919 313.9068 314.1328 314.5769 314.8653
   315.0789 315.3778 315.6373 315.6779 315.8538 316.0993 316.7694 316.7871
   317.0844 317.2352 317.8096 317.8257 317.9276 318.8168 319.5285 320.1245
   320.4004 320.9623 321.0343 321.8211 321.8834 322.3935 322.9164 323.4576
   323.7263 323.8854 324.1492 324.6526 324.7765 324.9265 325.0134 325.4059
   325.4251 325.5669 325.8186 325.9319 326.3048 326.4242 326.4906 326.8677
   326.9378 327.1219 327.7746 328.0084 328.1591 328.3819 328.7545 328.7854
   329.3037 330.0557 330.1641 330.2857 330.5195 330.6152 330.7354 330.9597
   331.1020 331.1229 331.6098 331.9681 332.2432 332.4172 332.4535 333.0674
   333.1970 333.7073 334.1436 334.2057 334.7965 334.8435 335.5429 335.6353
   335.6374 336.0172 336.5200 336.5221 336.6811 337.3177 337.5647 338.0332
   338.2303 338.5105 338.8542 339.0380 339.5306 339.5603 339.7054 339.8440
   340.5168 341.2927 341.8072 341.8251 342.0971 342.6242 342.6395 343.0201
   343.1397 343.3689 343.3959 343.8104 344.8527 344.9510 345.1502 345.9806
   346.0098 346.1618 346.4816 346.7987 347.2797 347.3131 347.5081 347.7183
   347.8297 348.3942 348.9193 350.2584 350.6721 350.7890 350.8971 351.0249
   351.0762 351.1966 351.4773 351.4924 352.1135 352.9882 353.0217 353.0661
   353.1528 353.1695 353.6134 353.6191 354.7354 354.8883 355.0455 355.2762
   355.3499 355.6700 355.7466 356.0181 356.3325 356.6348 356.6614 356.9233
   357.1149 357.1729 357.7436 357.9262 358.0711 358.6992 359.0323 359.4295
   359.6567 359.7470 359.9827 360.0631 360.1985 360.2928 360.4674 360.7184
   360.9573 360.9648 361.0773 361.7383 361.8190 362.1630 362.4395 362.6531
   362.8741 363.4555 363.6076 363.7288 363.8375 363.9827 364.0998 364.3485
   364.3944 364.5999 365.3220 365.5524 365.9779 366.2222 366.4783 366.6477
   366.7954 367.1838 367.2199 367.5217 367.5259 367.6954 368.0135 368.0321
   368.0555 368.4975 368.7781 368.9904 369.5705 371.1223 372.1243 372.4735
   372.6295 372.8701 373.1697 373.4098 373.4946 373.6912 373.7838 374.5024
   375.4064 375.6090 375.7177 375.9911 376.0588 376.0876 376.3738 376.4278
   376.5803 376.6095 376.6850 376.9008 377.1103 377.1208 377.3553 377.6118
   377.6471 377.7997 377.9182 378.1668 378.3285 378.6973 378.8095 379.0643
   379.5965 380.0199 380.3378 380.4663 380.6304 380.6682 380.8395 381.1532
   381.2846 381.3332 382.2913 382.3827 382.4291 383.2236 383.8192 384.2499
   384.4315 384.6176 385.2490 385.3827 385.9169 386.0533 386.3439 386.5953
   386.6876 386.7311 386.8027 387.0527 387.2386 387.8732 388.1222 388.3905
   388.6866 388.8630 389.4861 389.5099 390.2366 390.2737 390.4781 390.7038
   391.0187 391.4797 391.6141 391.8586 391.9258 392.0949 392.1416 392.2292
   392.3279 392.3523 392.7705 392.9942 393.1849 393.3561 393.4382 394.3028
   394.8709 394.8769 395.8062 396.3156 396.4054 396.5824 396.6053 396.7889
   397.0070 397.1294 397.6951 397.9186 398.4695 398.9773 399.2748 399.3995
   399.6380 399.7136 399.9295 400.1200 400.1863 400.7878 400.8767 400.8999
   400.9889 401.0069 401.3327 401.4761 402.0350 402.1423 402.3450 402.4527
   403.1300 403.5622 403.9280 404.1303 404.1457 405.1253 405.2579 405.6634
   405.7706 406.5556 406.6460 407.1355 407.2032 407.3053 407.3498 407.6473
   407.6852 408.5503 408.6290 408.9298 409.0083 409.4895 409.5160 409.7236
   410.0283 410.2570 410.3297 410.7652 410.9112 411.0667 411.6431 411.6869
   411.9713 412.0862 412.2558 412.7428 412.7614 413.3483 413.3739 413.5695
   413.5991 414.0413 414.1548 414.5077 414.9754 415.2321 415.2988 415.4048
   415.4604 415.5427 416.0782 416.1948 416.5360 417.5699 417.8547 418.2760
   418.3921 418.5858 418.7148 419.0654 419.1813 419.2763 419.3391 419.5224
   419.6542 420.1201 420.4087 420.5952 420.6731 421.0719 421.4237 421.5888
   421.9353 422.7728 423.0904 423.2193 423.5066 423.9633 424.1713 424.3132
   424.8187 424.9327 425.1314 425.1849 425.2790 425.5733 425.7767 426.0557
   426.3450 426.5542 426.8034 427.2902 427.6477 428.1903 428.3068 428.3829
   428.6952 428.9513 429.0243 429.2437 429.3264 429.8336 429.8406 431.4253
   431.4627 432.1934 432.3646 432.9119 432.9294 433.5398 433.9661 434.4094
   434.8132 435.0038 435.3133 435.7349 436.0328 436.1472 436.1640 436.2811
   436.3641 436.8790 437.0113 437.0361 437.0900 437.0909 437.2987 437.5607
   437.6799 437.8975 438.2440 438.4862 438.9088 438.9963 439.0015 439.1053
   439.7196 440.0162 440.0209 440.6060 441.1800 441.5620 441.7534 442.0317
   442.0716 442.3614 442.6173 442.8821 442.9657 443.0848 443.1997 443.2312

          k = 0.5000 0.0000 0.5000 (  3775 PWs)   bands (ev):

   -27.8080 -10.0266  -9.8705  -9.7897  -4.5132   3.6769   4.6851   4.7880
    10.8081  11.4412  11.6521  12.2479  13.3655  15.0829  15.8916  16.5417
    16.6932  18.7870  19.1902  21.7153  23.0051  23.2370  23.3841  24.6692
    27.5698  27.9143  28.6584  29.4580  30.5307  30.8240  32.5124  32.5140
    33.3606  34.1923  35.7385  36.2554  36.4915  36.9158  37.7642  39.0940
    40.4005  40.4824  41.3976  42.2290  43.5547  43.5825  44.2315  46.3094
    46.5759  47.2121  48.0769  48.4160  48.8963  49.2524  51.6043  51.9704
    52.8655  53.8783  54.5069  54.9638  54.9907  55.2717  55.7166  56.1771
    57.0866  57.4355  57.7971  58.1955  58.5484  61.0757  61.1978  62.3342
    63.2087  64.2315  64.8333  66.2771  66.4467  66.5092  66.7742  67.3119
    67.8998  68.7174  68.8435  69.3628  69.8629  69.9670  70.7050  71.1921
    71.8612  72.3795  72.9433  73.9200  74.3088  74.7957  76.3020  76.3268
    76.5542  79.2194  79.7181  80.2432  80.4406  81.1336  81.1807  81.9200
    82.2525  83.3157  84.2109  84.2310  85.0799  85.9249  86.2362  86.5673
    86.5875  86.9445  87.4330  87.4656  87.8412  88.3284  89.1052  89.2494
    89.7072  91.8559  91.8790  92.5365  93.1530  93.4875  94.2755  94.6604
    95.0907  95.2897  95.3650  96.0392  96.5212  97.0255  97.0796  97.3192
    97.9518  99.9903 101.1330 101.7261 102.7694 103.0454 104.0227 104.1130
   104.2192 104.5948 105.0044 105.1903 105.2906 105.3648 105.9200 106.0468
   106.2652 106.7721 107.3988 108.3959 108.5455 108.8878 109.2998 109.3105
   109.6373 110.3303 110.3466 110.6312 111.0643 111.1669 111.6151 113.2436
   114.1023 114.4505 114.4892 115.9377 117.7612 118.2221 119.1017 119.4169
   119.7168 119.9547 120.1628 120.7561 121.4015 122.0838 122.2557 122.5663
   122.7343 122.7673 123.5160 123.5567 124.1301 124.8788 125.4229 125.5892
   125.7336 125.7606 126.1205 126.9664 127.3830 127.6159 128.5070 128.9023
   129.6560 129.9982 130.0451 131.0578 132.7688 133.0626 133.2529 133.4439
   133.6516 134.1529 134.3422 134.5619 134.6281 135.5158 136.1710 136.3701
   136.4576 136.4937 136.8574 137.2056 137.2714 137.7279 138.5723 139.0955
   139.2627 140.7549 141.2277 141.5222 141.9133 142.3161 142.7829 142.9172
   143.5941 143.6244 143.6552 144.8383 144.8460 144.8628 146.1825 146.4545
   146.6301 146.6312 146.8442 147.2185 148.8306 149.4253 149.7880 150.7464
   150.9152 151.2207 151.8257 152.0254 152.0511 152.1969 153.6131 154.1522
   154.5078 154.5570 154.7778 155.2213 155.4239 155.7383 155.9135 155.9877
   156.7747 157.0882 157.6092 157.9341 157.9893 158.4369 159.7875 160.3132
   160.6254 160.6336 160.8421 161.0384 161.2587 161.3152 161.6201 161.9579
   163.1704 163.7008 164.0884 164.2329 164.7175 164.8563 165.9452 166.2115
   166.6369 166.8039 166.8233 168.0172 168.7415 168.8456 168.9098 169.8767
   170.4414 171.4435 171.7224 171.7650 171.7894 172.4701 172.8005 172.9979
   173.8635 174.7548 174.8529 174.9778 175.0846 175.6442 175.7954 176.1253
   176.2226 177.3566 177.6573 177.8068 177.8953 178.4982 178.6371 178.9156
   179.1892 179.3310 179.3435 179.7438 180.2522 180.8111 180.8479 181.0294
   181.9478 182.0211 182.0822 182.6541 183.3029 183.8182 184.0275 184.4869
   185.0843 186.2607 186.3925 186.9993 187.7403 187.9158 188.2502 189.5328
   189.8445 189.9679 190.3440 190.5089 190.6872 190.9724 191.0606 191.2061
   191.2817 191.4273 192.1871 192.4140 192.5453 192.7413 192.8464 193.1886
   194.2402 194.4513 194.8547 195.0874 195.3670 195.4455 195.8539 195.9920
   196.2801 196.3252 196.3485 196.3559 196.7348 197.2980 199.2020 199.4240
   200.8883 201.3054 201.6933 201.8424 202.5880 203.0385 203.0604 203.0815
   204.0700 204.2999 204.6080 204.6812 204.9858 205.2099 205.2786 205.6832
   205.8536 205.9751 206.1375 206.9790 207.8758 207.8996 207.9043 208.6801
   208.9705 209.1330 209.1428 209.6064 209.8028 209.9874 210.2135 210.2673
   210.4804 210.6151 211.6476 212.4503 212.6787 212.8368 213.4259 213.9627
   214.9098 214.9130 215.0271 215.0952 215.4782 215.5813 215.8678 216.3699
   216.4009 216.7558 217.7406 218.0552 218.3818 218.4495 218.5811 218.8417
   219.2088 219.3885 219.8625 220.2592 220.4803 220.5784 220.8661 221.6789
   222.0797 223.5239 224.5353 224.9846 225.5598 225.6176 225.7240 226.5582
   227.3946 227.9472 227.9886 228.1703 229.4738 229.7033 229.7210 230.3652
   230.6181 230.7308 230.9449 230.9600 231.4294 231.8224 232.0193 232.1387
   232.2878 232.6123 232.8835 232.9963 233.1362 233.1474 233.2341 233.2452
   234.7565 234.8673 235.0438 235.0476 235.1989 235.6154 235.6444 236.3817
   236.6267 236.7844 237.1376 237.2255 237.6171 237.9863 238.0048 238.2400
   238.5500 238.5976 238.8528 238.9553 239.5093 240.0205 240.2490 240.5840
   241.1837 241.5813 241.9753 242.6584 243.4322 243.7818 243.8368 243.9113
   243.9852 245.2029 245.2222 245.3295 245.3647 245.8490 246.0377 246.8746
   246.8776 247.4797 248.0657 248.1147 248.2692 248.8216 248.9093 249.3117
   249.4127 249.8835 250.5377 250.7090 251.5658 252.4694 252.6156 252.8400
   252.8866 253.0270 253.4052 253.4270 253.5468 253.8126 254.5000 254.6890
   254.8109 255.5619 256.6719 256.7945 257.2468 257.2576 257.5155 258.0884
   258.3336 258.4607 258.6750 258.8095 259.0059 259.2824 259.5095 259.8182
   259.9828 260.0228 260.5159 260.7376 260.9550 261.4475 261.5669 261.6955
   262.3801 263.0186 263.5780 264.3671 264.4848 264.9819 265.0420 265.0781
   266.0083 266.3724 266.7235 266.8351 267.0491 267.0583 267.4797 267.8271
   268.6264 268.8664 268.9659 269.4198 269.5209 270.5410 270.8147 270.8636
   270.9513 271.0275 271.6505 271.8972 272.1824 272.4294 272.5694 273.3768
   273.7684 273.9619 274.3611 274.5738 274.6086 274.8410 275.3602 275.7632
   275.7802 275.7888 276.1669 276.6806 276.8329 276.9777 277.1123 277.1932
   277.5862 277.6482 277.6839 277.9387 278.2461 279.1532 279.2080 280.3841
   280.8142 281.2207 281.3419 281.3492 281.6202 282.2858 282.8412 282.9271
   283.0645 283.2423 283.6257 283.7577 284.1546 284.5542 285.0592 285.5476
   285.6596 285.7069 286.0386 286.1740 287.1313 287.2316 287.2421 287.5573
   289.1936 289.2747 289.2988 289.6668 289.8320 290.0262 290.1956 290.3673
   290.7582 291.1920 291.8229 291.8846 292.2654 292.5442 292.6641 293.3262
   293.7643 293.9565 294.1390 294.1778 294.5183 294.6789 294.7982 295.5208
   295.5431 296.3553 296.9499 297.5952 297.6775 298.5161 298.9673 299.2449
   299.3566 299.5328 300.2443 300.2950 300.7404 300.8049 300.8422 300.9776
   301.1368 301.4825 301.8897 302.0401 302.5609 302.6165 302.9149 303.0288
   303.0831 303.2977 303.6171 304.4738 304.5497 304.6711 305.2952 305.5912
   305.9520 306.1437 306.2648 306.7435 306.8728 307.1477 307.4788 307.9974
   308.0096 308.2769 308.4823 308.5148 308.6621 309.0183 309.5593 309.5727
   309.6171 310.3321 310.4131 310.7026 310.7815 310.8976 311.1311 311.5991
   312.7593 313.3917 313.4487 313.6169 313.7108 314.1362 314.1803 314.7208
   314.9495 315.1260 315.5736 315.6115 315.8493 316.1780 316.3084 316.5895
   317.1142 317.4115 317.9735 318.1253 318.1985 318.2408 318.2453 318.5471
   318.7036 318.9274 319.0033 319.1037 319.1152 319.1863 319.5661 319.5932
   321.4281 321.4418 322.6200 323.1368 324.3251 324.3960 324.7189 325.5184
   325.6893 325.7263 325.8556 326.0489 326.1410 326.2136 326.3498 326.3536
   326.6898 326.8431 327.8169 327.9641 327.9977 328.1702 328.2958 328.4774
   328.6226 329.2894 329.3296 329.5787 329.7751 330.2287 330.4250 330.7351
   330.9384 331.6461 331.9817 332.0552 332.2725 332.5464 332.7915 332.8525
   333.0603 333.6933 335.1590 335.3406 335.4012 335.4720 335.5949 336.4191
   336.4778 336.5494 336.5513 336.9959 337.2531 337.7236 337.8218 337.9059
   338.3252 338.3412 338.9772 338.9868 339.5203 339.5696 339.7183 339.8204
   340.7124 340.8004 341.4662 341.5091 341.7267 342.0615 342.2604 342.2779
   342.3709 342.3731 342.4014 342.9476 343.4950 343.7826 343.7828 343.9427
   344.7119 344.9962 345.6547 345.6557 345.7625 346.1436 346.3224 346.3590
   346.3786 347.1166 347.2736 347.5769 347.8841 348.8748 348.8877 349.7308
   350.4609 350.6715 350.6880 350.8248 350.9708 351.3180 351.6250 351.9205
   351.9831 352.0527 352.1259 352.2352 352.9088 352.9976 353.1199 353.3663
   353.6602 354.4441 354.5040 354.7040 355.1174 355.4296 355.5530 355.6567
   355.7123 355.9070 356.4456 356.7679 356.8226 356.8588 357.2182 357.2281
   357.7066 358.5109 359.6374 359.6427 359.8807 359.9024 360.2408 360.2578
   360.2715 361.2085 361.6148 362.3578 362.4288 362.4867 362.5707 363.0965
   363.3624 363.7294 363.7511 363.9336 364.4334 364.5468 364.9633 365.0116
   365.2670 365.3171 365.9476 366.1268 366.2250 366.2287 366.2329 368.6882
   369.1511 369.1567 369.1879 369.2459 369.2647 369.2899 369.3323 369.3382
   370.2394 370.6379 371.1531 371.2703 371.5195 372.0171 372.1187 372.5391
   372.7557 373.2559 373.5794 373.6854 373.7521 373.8285 373.9034 374.0917
   374.6537 375.2177 375.4383 375.8707 376.1469 376.4192 376.6707 376.9169
   377.1136 377.4960 377.6195 377.9902 378.3141 378.5164 378.5176 378.6193
   378.7080 379.0730 379.4935 379.5556 379.5749 379.7672 379.8689 380.0103
   380.0435 380.3774 380.5187 380.7553 381.3009 381.8142 382.1073 382.8425
   382.9031 383.3508 383.6500 383.6507 383.6536 384.0041 384.0387 384.0828
   384.6421 385.3739 385.3911 385.8817 386.5356 386.7489 386.9435 387.3023
   388.0854 388.4547 388.5292 388.5469 389.0399 389.2533 389.3924 389.5882
   389.7014 389.7940 389.8577 390.3767 390.3833 390.8016 390.8318 390.8808
   391.0055 391.0199 391.1902 391.2403 391.2693 391.7053 392.3641 392.5316
   392.8117 392.8173 392.8771 393.0460 393.0542 393.0992 393.1248 393.1390
   393.3268 393.4619 393.9122 394.7627 394.8046 395.0951 395.1448 395.7826
   395.7835 396.2866 396.4501 397.8853 398.1147 398.4742 398.5280 398.9103
   399.3439 399.6628 399.6751 400.5404 400.8047 401.3751 401.5309 401.8097
   402.1375 404.1331 404.1590 404.5028 404.6130 404.6366 404.6493 404.9283
   405.0643 405.1022 405.1037 405.1668 405.9808 406.8939 407.0024 407.1635
   407.2176 407.5848 407.5852 407.5934 407.8664 407.9124 407.9861 408.0162
   408.2078 408.2228 408.3169 408.3621 408.4071 408.4480 408.8938 409.3415
   409.3902 410.1263 410.1553 410.2800 410.5928 410.8599 410.9393 411.3596
   411.3682 411.5142 412.0266 412.1200 412.6784 412.7210 412.8699 413.2007
   413.3883 413.7508 413.9387 414.1984 414.8611 415.1418 415.2424 416.0283
   416.2799 416.5647 416.7180 416.9786 417.1824 417.2235 417.7971 418.3744
   418.4567 418.6681 418.9688 419.0880 419.2807 419.5300 420.0392 420.5946
   420.6480 420.6512 420.7722 421.0935 421.1880 422.0418 422.1094 422.4568
   422.4633 422.5663 422.5677 423.7129 423.7359 424.1313 424.1496 424.2245
   424.3711 424.7194 424.7803 425.4748 425.8443 426.0274 426.1819 426.3367
   426.8190 426.9387 426.9426 427.3468 427.3790 427.4716 427.7886 428.0854
   428.1804 428.4049 429.6861 429.9525 430.2858 431.2808 431.3941 431.6141
   431.6311 431.8948 431.9075 431.9815 432.3133 432.5061 432.5833 432.6246
   433.2466 433.3169 433.4206 434.3241 434.8891 435.0773 435.1506 435.1878
   435.2617 435.5516 435.6308 435.7914 436.4353 436.4771 436.8420 436.9903
   437.2977 437.3054 437.3513 437.4279 437.9617 438.8420 438.9510 439.2761
   439.3013 439.3666 439.5525 439.9044 440.0329 440.3205 440.4194 440.7372
   441.1891 441.4606 441.5993 442.2601 442.3078 442.3480 442.4322 442.5249

          k = 0.0000-1.0000 0.0000 (  3812 PWs)   bands (ev):

   -27.8026  -9.9974  -9.8581  -9.8581  -4.7722   4.2505   5.1942   5.1942
     8.1772  11.7695  12.1067  13.3451  13.7556  13.7556  14.9207  18.7269
    18.7269  19.2200  19.2200  20.0539  21.3175  24.2621  25.3156  25.3691
    26.0611  27.4568  27.4568  27.4647  29.3432  30.1031  30.1031  33.1019
    33.1019  33.2193  35.1043  35.7169  36.1248  39.4382  39.4382  40.8800
    40.8800  41.6416  43.3478  43.8947  43.8947  43.9789  44.7693  44.7693
    46.5916  47.4425  47.7521  50.1040  50.4834  50.4834  51.3834  51.9531
    52.4202  53.2494  54.0011  54.8715  55.8765  55.8765  56.7590  56.7590
    56.9566  56.9566  57.0688  58.5706  58.5830  58.6161  61.9091  62.2368
    62.2368  63.7652  65.1204  65.3000  65.3640  65.3640  66.8835  66.8835
    67.4391  67.5348  67.5348  69.1330  69.1330  69.1599  69.7591  69.8291
    69.8291  69.9562  71.4343  74.6342  74.6342  75.4944  75.5812  76.6033
    79.1786  79.8220  80.3052  80.8179  80.8179  81.2261  81.2261  82.4800
    82.4800  82.5572  82.8463  83.5190  85.2130  85.5352  85.7911  86.1726
    86.1726  86.5386  86.5386  86.7256  88.5692  89.0387  91.3047  91.6557
    91.6557  91.7551  91.7551  92.5851  92.9206  93.0036  93.0036  93.5764
    93.7577  93.7577  94.9872  97.6593  97.9000  97.9000  98.9265  99.3724
   100.0369 101.2272 101.7202 103.1702 103.5551 104.2025 104.2625 104.2625
   105.6956 105.6956 106.2208 106.3318 106.3318 107.1350 107.1350 107.7464
   107.8268 108.4129 109.1742 110.0440 110.0638 110.0638 111.2622 111.2622
   112.0253 112.0332 112.3236 112.8558 112.8558 113.3293 113.3293 113.6236
   114.1374 115.0694 116.0259 116.0259 116.0838 116.1982 116.3577 116.3696
   116.7006 116.7006 117.0401 117.7377 117.7377 117.9475 118.2941 120.7784
   121.2790 121.2790 121.6541 122.0060 122.1168 122.1168 122.1301 122.6481
   124.0976 124.0976 124.7329 126.2492 126.5204 127.1643 130.3621 130.3621
   130.5180 130.5383 130.5933 130.5933 130.9240 130.9240 131.3299 131.3299
   131.5175 131.7832 132.8890 133.4162 133.4162 134.1118 134.1805 134.3712
   134.3712 134.5435 134.6180 135.0950 135.2705 135.2705 135.2734 135.5860
   136.5999 136.6265 136.8762 136.8762 146.2743 146.2743 147.2620 147.2620
   147.3834 147.9716 148.3456 148.4419 148.8940 149.6275 149.6893 149.6893
   150.1540 150.1540 150.3606 150.5712 150.5712 151.1070 151.9592 152.6750
   152.6750 152.9631 152.9631 153.0641 153.2481 153.5059 153.6296 153.6296
   155.7521 155.7521 156.0975 156.2216 156.7009 157.1096 157.1096 157.3373
   157.5602 157.7714 157.7838 157.9944 157.9944 158.1194 159.7447 159.7556
   160.4560 160.5574 160.5574 161.4175 161.9319 162.3652 162.3663 162.3663
   163.0601 163.0601 163.6322 163.6322 164.0556 164.7756 166.9012 167.0108
   167.0108 167.5339 167.5885 168.0352 168.0352 168.1922 170.3069 170.8668
   171.0017 171.0017 171.1980 171.1980 171.4958 171.5664 171.8549 173.9400
   175.1169 175.1521 175.1826 175.1826 175.9058 176.2827 176.2827 176.3196
   176.5467 176.5467 176.6661 176.9795 177.0909 177.0909 177.2270 177.6094
   178.3612 178.3612 178.5861 178.5861 179.5958 180.3044 181.2157 181.3168
   181.9662 181.9664 182.6691 182.6832 182.6832 182.7042 182.7042 182.7297
   183.4194 183.4664 184.1668 184.1668 184.5799 185.1032 186.5673 188.4040
   188.4040 188.6214 188.6214 189.2923 190.2205 190.2227 191.2562 191.2562
   191.8879 191.8879 192.2087 193.0454 194.5088 194.7404 195.0607 195.1251
   195.1251 195.2118 195.2118 195.6350 195.7806 196.0663 196.3533 196.3533
   196.6475 196.6475 196.9048 196.9060 197.3057 197.3967 197.5593 197.5593
   201.0197 201.2711 201.2711 201.4408 201.5318 201.7394 201.9452 201.9955
   201.9955 202.5860 202.7728 202.7728 203.1785 203.3377 203.3377 203.3795
   206.4000 206.4000 206.4606 207.8050 208.1852 208.1852 208.8007 208.8007
   209.4074 209.5973 209.7065 210.5977 210.5977 210.8007 211.3621 211.8354
   212.9789 212.9789 213.6652 213.7097 213.7097 214.1957 214.2103 214.6314
   215.2400 215.2400 215.4283 215.8823 215.9596 216.2024 216.2024 216.5073
   216.6351 216.8374 216.8374 216.9905 217.0845 217.0845 217.2068 217.4771
   218.2204 218.2306 218.2306 218.2517 219.9874 220.3646 220.3646 220.6130
   220.8833 220.8833 221.0344 221.0978 221.0978 221.1175 223.0574 223.1393
   223.7366 224.1637 224.1637 225.0888 225.1359 227.9344 229.0731 229.4886
   229.4957 229.9053 230.0840 230.1253 230.1253 230.5293 230.5293 230.5897
   230.5897 230.6453 230.9390 230.9390 230.9736 231.2009 231.2009 231.3253
   234.0661 235.1964 235.1964 236.8877 236.8877 237.1969 237.7235 237.8528
   237.8528 237.8642 237.8892 238.1560 239.4224 240.1163 242.0791 242.0791
   242.3167 242.5817 242.6631 242.6758 242.6758 242.8021 243.9923 243.9923
   244.6025 244.9108 245.5180 246.6945 246.8660 246.8660 246.8698 247.0604
   247.3961 247.3961 247.6043 247.9830 247.9830 248.0465 248.5142 248.5142
   248.7241 248.8837 249.0547 249.6108 249.6409 249.6409 249.7618 250.2199
   250.2199 250.3677 252.8664 252.9207 252.9207 252.9375 253.2409 253.2409
   253.5343 253.5382 254.3197 255.4672 255.4672 255.5530 257.0065 257.0065
   258.1655 258.2582 258.3965 258.3965 258.9274 259.1135 260.0318 260.0892
   260.0892 260.4452 260.6091 260.7126 260.8881 261.2715 261.2715 261.3716
   261.3716 261.7403 261.7719 262.3223 262.4348 262.4348 262.7904 262.8093
   262.8093 262.8390 262.8390 263.0691 263.2545 263.4976 263.5676 263.5676
   263.9663 263.9771 264.6095 264.6095 264.7373 264.7463 265.4938 265.4938
   265.4996 265.4996 265.9559 270.0059 270.0059 270.2827 270.3988 270.4333
   270.4514 270.4514 270.5056 270.5084 270.5084 271.0435 271.1344 272.4686
   272.7710 272.7882 273.4902 273.4902 273.9844 273.9844 274.7814 275.1350
   275.3977 275.9078 275.9293 275.9293 276.7738 277.1159 277.2581 277.2858
   277.2858 278.3443 278.3443 279.1830 279.8375 280.6358 280.6358 281.0194
   281.0446 281.2443 281.2835 281.2835 281.3050 281.3050 281.3311 281.3460
   281.5447 282.0567 282.5535 282.5543 282.5543 282.5907 283.0609 284.1877
   284.1877 284.2694 284.3744 284.3744 284.3883 284.3883 284.4989 284.5644
   284.6784 284.7020 285.5277 285.5277 287.5165 288.2234 288.2253 289.4513
   289.4513 290.9692 291.1592 291.1592 291.3297 291.3297 291.6437 291.7589
   291.7589 291.8093 292.1224 295.3143 295.3143 296.0109 296.0437 296.5855
   296.5855 297.0538 297.3312 297.3562 297.4731 297.4731 297.5674 297.9299
   297.9769 297.9942 298.1993 298.3906 298.3906 298.4802 298.4802 298.5074
   300.1128 300.1254 300.1254 300.1508 300.4331 300.7153 300.9280 301.1341
   301.1341 301.5012 302.8774 302.8938 302.8938 303.8529 303.8529 303.8766
   303.9166 303.9166 303.9702 304.7589 305.3295 305.3379 307.0908 307.9589
   307.9589 309.2771 309.4905 309.8272 309.9231 309.9231 310.0293 310.2856
   310.5458 310.5458 310.9611 311.6637 311.9118 311.9118 312.0363 312.0363
   312.3032 312.4029 312.4564 312.5289 312.5289 312.6445 312.6613 314.1287
   314.1375 314.1473 314.1473 314.1921 314.2128 314.2128 314.2360 314.6073
   314.6073 315.0296 317.8548 317.8548 317.8761 317.8952 318.1352 318.2807
   318.2807 318.4066 318.6095 319.5798 320.0287 320.0287 320.2870 320.2870
   320.9244 321.8790 321.8888 321.8888 325.6659 325.6882 325.6882 325.7511
   325.7511 326.0351 326.5001 326.6557 326.6842 326.6842 326.7567 327.0277
   327.0862 328.1065 328.2977 328.3352 328.3352 328.5242 329.2784 329.2784
   330.2435 330.9233 331.8022 331.8022 332.0145 332.1112 332.1112 332.1203
   332.2105 332.6579 332.7039 332.7039 332.7214 332.7644 333.7416 333.7416
   333.8321 334.9835 334.9835 335.1358 335.2120 335.5398 335.7391 335.7391
   336.1733 336.4664 336.5423 336.5423 336.7493 337.1250 339.8258 339.8971
   340.0100 340.3554 340.3554 340.7933 340.7933 342.0845 342.1423 342.2142
   342.2142 343.6093 343.8926 343.8940 344.5304 344.5304 344.5863 344.5863
   344.9987 344.9987 346.0953 346.1014 347.6070 347.6271 349.5410 350.5575
   350.8780 350.8780 350.9434 351.5738 351.6123 351.6123 351.9348 352.0146
   352.0483 352.1409 352.1409 352.1642 352.3743 352.3743 352.6277 352.6551
   352.6683 352.6683 353.2008 353.9604 353.9604 354.3318 354.7501 355.1279
   356.7506 356.7506 357.1604 357.5372 357.5515 357.6506 357.6506 357.9198
   358.0640 358.0640 358.1908 358.2537 358.2537 358.8067 358.8148 358.9795
   359.4232 359.4232 359.5503 359.5659 359.7014 359.8722 360.0094 360.0094
   360.0569 360.0569 360.1547 360.2465 360.2465 360.4026 360.4387 360.4387
   360.4571 360.5483 360.6321 360.6460 360.6606 360.7058 360.7058 360.9014
   361.1752 361.1752 361.1981 361.2715 361.2715 361.3612 361.5090 361.5090
   361.6208 361.9228 362.1680 362.1703 362.4612 362.4612 362.4837 362.4837
   362.5407 362.8019 363.0213 363.0706 363.0706 363.0927 366.1789 366.1824
   366.1824 366.2735 366.4279 366.4819 366.4819 366.4871 368.4414 368.4675
   368.6976 368.6976 368.7909 368.7909 369.0804 369.0927 374.6163 375.4577
   375.4577 375.5404 376.7622 377.0347 377.1310 377.1310 377.1925 377.2047
   377.2204 377.2204 377.5957 377.5957 377.6540 377.6696 377.6822 377.6822
   377.9386 378.0049 378.3739 378.5455 378.6080 378.6080 378.6415 378.8553
   379.4070 380.0193 380.0193 380.1260 380.1260 380.3540 380.6600 381.1262
   381.2792 381.2792 381.3005 381.3526 381.3526 381.4124 381.6001 381.6387
   381.6570 381.6570 381.6987 381.7870 382.0679 382.0679 382.1847 382.4756
   382.9351 384.2940 384.9051 385.6268 385.6268 388.1187 388.1187 388.2823
   388.6551 388.6551 389.0747 389.6669 389.7767 389.8320 389.8320 390.3281
   390.3281 390.3645 390.4287 390.4476 390.5078 390.9758 390.9758 391.2002
   391.2468 391.2468 391.3738 391.5101 391.8364 392.2912 392.2912 392.3609
   393.1774 393.1774 394.1316 394.2491 394.2491 394.4765 394.7649 395.3224
   395.3315 395.8372 395.8372 396.4377 400.0088 400.0088 400.0519 400.0564
   400.0564 400.0690 400.0823 400.0868 401.8014 401.9351 401.9412 401.9412
   401.9542 401.9697 401.9697 402.0163 402.6617 402.6617 403.5122 403.7128
   404.1393 404.1393 404.1788 404.8640 406.8425 406.9085 407.0523 407.0523
   409.1065 409.1599 409.4179 409.4179 409.5303 409.5303 409.5573 409.8089
   410.2763 410.2763 410.7228 410.7387 411.0288 411.0456 411.0456 411.0721
   411.0721 411.0788 411.1437 411.1532 411.1725 411.6702 411.7057 411.7057
   411.8080 412.9167 412.9684 412.9684 413.2553 413.2644 413.2644 413.2653
   413.3629 413.3629 413.4076 413.4076 413.4730 413.4730 413.5427 413.5529
   413.7549 413.7549 413.7634 413.9144 415.4013 415.4112 415.4112 415.4238
   417.2369 418.4161 418.4568 418.4568 419.5186 420.9117 420.9120 421.0800
   421.8151 421.8151 421.9023 422.2497 422.2497 422.8590 424.2759 424.3763
   424.5103 424.7301 424.7837 424.9635 424.9636 425.1219 425.2850 425.2850
   425.4222 425.4222 425.4428 425.4727 425.5055 425.6089 425.6089 425.6361
   425.7498 425.7498 426.0706 426.0706 428.1027 428.3675 428.5306 429.1693
   429.1693 429.5688 429.6660 429.6660 429.7636 429.7991 429.8732 429.8851
   430.0514 430.0514 430.1339 430.4225 430.4225 430.5525 430.6343 430.6447
   430.6447 430.6486 432.4805 435.1537 435.1537 435.4985 437.5854 437.6531
   437.9954 437.9954 438.4728 438.7546 438.7546 438.8160 439.0754 439.1380
   439.4625 439.4625 439.5582 439.5582 439.7114 439.7290 439.8374 439.8374
   440.1998 440.2071 440.2071 440.2959 440.5133 440.7982 440.7982 440.8737
   443.1603 443.3806 444.7225 444.7376 444.7376 444.7583 444.7630 444.9533

          k =-0.5000-1.0000 0.0000 (  3736 PWs)   bands (ev):

   -27.8025  -9.9281  -9.9281  -9.8977  -4.6000   4.3812   4.5370   4.5370
    10.5731  10.5731  12.3115  12.8011  13.7780  15.6034  15.9739  16.6075
    16.6075  19.0298  19.5781  19.5781  23.2700  24.1860  25.9174  25.9174
    26.3514  26.3514  26.8097  28.3361  28.6258  28.8120  31.0242  31.0242
    33.7868  33.7868  35.6935  38.0845  38.6047  38.6047  38.8939  40.2781
    40.6448  40.8107  41.6395  43.3181  43.3181  43.5381  46.0399  46.0399
    46.6949  46.9391  49.9238  50.0561  50.1065  50.1065  51.5154  51.7191
    51.7191  52.8459  52.8459  53.5719  55.4360  55.4360  56.6234  56.6234
    56.7354  57.2458  58.3137  58.4972  59.5008  59.5008  61.4864  61.5519
    61.5519  61.8128  63.7827  65.5197  65.9176  67.6960  68.0470  68.0470
    68.8846  68.8846  69.6718  69.7275  69.7275  69.8786  70.3841  71.1286
    71.8031  72.4643  72.8773  73.5301  73.5743  73.5743  74.4248  74.4248
    76.8321  77.1075  78.2331  78.5045  78.5045  78.5715  79.1972  79.1972
    80.9104  81.5962  82.1516  83.4109  83.4109  84.2163  84.7844  84.7844
    88.7455  88.8440  90.6961  91.1623  91.1623  91.9643  91.9643  92.9572
    93.4727  93.4727  93.6924  94.0064  95.0108  95.1615  95.1615  95.3173
    96.2183  96.2183  97.3374  97.5522  97.5522  98.6761  98.6761  98.7449
    99.0803  99.5023 100.8194 100.9293 101.9047 101.9047 102.8960 102.9021
   103.4760 105.5546 105.6666 105.6666 105.6851 106.3186 106.3186 106.6546
   107.1954 107.2159 108.0257 108.0257 108.3168 109.1005 109.1668 109.4114
   109.4114 110.8787 110.8787 111.1655 111.7914 112.4235 112.5889 112.6752
   112.6752 113.6418 114.0449 115.1665 115.1665 116.2895 118.8161 119.1969
   119.1979 119.1979 119.2952 120.1174 120.6588 120.6588 121.0452 121.4388
   121.4388 122.2799 122.2999 122.7751 122.7751 124.1981 124.2561 124.4804
   124.8137 124.8577 124.9199 124.9199 125.4225 125.4225 126.2406 126.2406
   127.8040 129.2019 130.6099 130.6099 130.6958 131.3207 131.3295 131.6949
   131.6949 132.2641 132.2641 134.4912 134.5627 135.4031 135.4031 137.6616
   138.6216 138.7416 138.7416 139.0884 139.0884 139.2709 139.6600 139.7467
   140.3872 140.3872 140.5855 141.0031 141.4171 141.5628 141.5628 142.3668
   142.6053 144.5499 144.5499 144.7144 145.7359 145.8307 146.4419 146.5511
   146.5511 147.4877 147.4877 147.7033 149.3178 149.4886 149.9726 149.9726
   151.8423 151.8746 151.8746 151.8923 152.0007 152.6727 152.7994 152.7994
   152.8347 154.1056 154.6751 154.6751 155.0470 155.4358 155.6382 156.5411
   156.5411 156.5428 157.0542 159.4239 160.6470 160.6470 160.8698 160.9450
   162.0498 162.0498 163.0684 163.0684 163.2533 163.7216 163.9252 163.9307
   163.9307 164.6375 165.7430 165.7895 165.8930 165.8930 169.6316 169.6316
   170.5892 170.8675 171.5579 171.5579 172.0315 172.3741 172.5356 172.6126
   172.7161 173.0304 173.0486 173.0486 173.2704 173.2704 173.5184 173.9240
   173.9240 174.2353 174.3416 174.3416 174.5178 174.9014 175.6294 175.6294
   175.6585 175.9895 175.9895 176.8517 178.3423 178.4299 178.5294 178.5294
   178.6247 179.0089 179.0630 179.1372 179.1372 179.7183 179.7549 179.7549
   179.8612 180.2906 180.4428 181.1335 181.1335 182.8421 182.8421 183.6290
   184.7915 184.7915 185.4001 185.9750 187.7321 187.7583 187.7583 187.8748
   188.1253 188.3479 188.8335 188.8335 189.1263 189.1263 189.5001 189.5251
   189.5386 189.8855 190.7081 190.7081 191.9878 191.9878 192.6146 192.6667
   192.6807 192.6807 193.3547 193.3664 193.9200 193.9768 194.0789 194.0789
   196.8764 197.0513 197.0513 197.5515 197.5814 197.5814 197.5945 197.7604
   200.7781 201.2956 201.2956 201.5494 201.6337 202.1572 202.1572 202.8485
   202.9283 203.1850 203.2929 203.3214 203.7071 203.7071 203.9804 203.9804
   204.5660 204.6545 205.1057 205.1057 205.3950 205.9023 206.6230 207.3296
   207.3862 207.3862 207.9227 207.9227 209.0036 209.9211 209.9211 210.1622
   210.3348 211.2233 211.3841 211.3841 211.4564 211.9402 214.3457 214.3619
   214.3619 216.7290 216.8201 216.8201 218.2894 218.8044 219.4920 219.4920
   219.5672 219.9307 220.0347 220.0399 220.0399 220.4600 220.5968 220.9047
   220.9047 221.4444 221.8964 221.9632 221.9680 221.9998 221.9998 222.9061
   222.9560 222.9560 223.3014 223.4053 223.4626 223.4626 223.6412 224.0376
   224.0376 224.1385 225.8974 226.1335 228.2288 228.4851 228.4851 229.1022
   229.7098 229.7098 231.4305 231.7692 231.7692 232.0392 232.6752 232.7115
   232.7115 233.0585 233.4160 233.4160 233.5681 234.0927 234.3307 234.5430
   234.5430 234.9544 235.3810 235.7017 235.7017 236.3851 236.4234 236.4234
   237.2278 237.2278 237.7294 237.7863 238.1685 238.1969 238.2044 238.2044
   238.5246 239.1665 239.1665 240.2586 240.3163 240.3163 241.4844 241.6144
   241.8901 241.9698 241.9698 242.3055 242.6646 242.8071 243.2328 243.2328
   243.5851 244.1429 244.1429 244.2576 244.3185 244.3185 244.6060 244.6085
   244.6085 244.9748 245.1316 245.4923 249.3610 249.3610 250.7481 250.7699
   252.3320 252.3320 253.7267 253.8612 253.9610 254.4320 255.1331 255.1331
   255.9267 255.9267 256.1815 256.9650 257.5731 257.6120 257.6120 257.9173
   257.9173 258.1289 258.8792 258.8792 259.0725 259.7199 259.7199 259.9951
   259.9951 260.2599 260.3452 260.6218 260.7885 261.0382 261.0926 261.0926
   261.2778 261.4715 261.4715 261.4913 262.7401 263.0844 263.2389 263.2389
   263.3543 263.3543 263.4563 263.4571 264.4421 264.7684 264.7706 264.7706
   267.3814 267.6196 267.8067 267.8067 268.2562 269.8405 269.9805 269.9805
   270.1551 270.3602 270.3689 270.3689 270.6816 270.9259 271.0835 271.0835
   271.1526 271.7703 271.7703 271.8349 272.4821 272.7431 272.7431 272.8705
   273.1630 273.1642 273.1642 273.3679 273.7708 273.8024 273.9991 273.9991
   274.3980 274.6477 275.4048 275.5182 275.7790 275.8249 275.8249 275.8351
   275.9037 275.9037 276.4501 276.4501 277.1742 278.0691 278.1635 278.1635
   278.2962 278.3580 279.1381 279.8104 279.8104 280.3297 281.4039 282.5713
   282.5713 283.3830 283.9657 283.9657 284.3013 284.3580 284.4136 284.8904
   284.8904 285.4651 285.7163 285.9916 285.9916 286.3635 287.7586 287.9108
   287.9165 287.9165 287.9352 288.2255 288.2255 288.3195 288.5699 288.9398
   289.0059 289.0059 289.1212 289.3094 289.6063 289.6063 289.9348 290.7920
   290.7920 290.9785 292.9822 293.2013 293.4562 293.4562 294.8358 294.8358
   295.0479 295.0796 295.4118 295.5006 295.5006 295.6878 295.7871 296.7537
   296.7537 296.7709 296.8605 296.9763 296.9763 297.3565 297.7070 297.7070
   298.8908 299.5879 299.5879 299.7244 299.7244 299.8668 299.8852 300.5911
   301.7239 301.7239 301.9167 302.1666 304.0400 304.0400 304.1067 304.2614
   304.6809 304.6809 304.8787 304.9319 305.0817 305.0817 305.5469 305.5664
   305.5664 305.5682 305.8016 307.3405 307.3405 307.8019 308.0166 308.6361
   308.6917 308.6917 308.7444 309.1109 310.1245 310.9494 310.9948 311.2380
   311.2380 311.6265 312.1546 312.1546 313.1245 313.4579 313.4579 313.6766
   314.3802 314.7560 314.7560 316.3215 316.6045 316.8546 316.9390 316.9390
   316.9459 317.5820 317.5820 317.6381 318.2545 318.8965 319.1091 319.1091
   322.1746 322.1746 322.3104 322.4123 322.9774 323.1959 323.4400 324.2381
   324.2381 324.3811 324.3811 324.6191 324.9766 324.9766 325.0038 325.2097
   325.8262 326.0224 326.3835 326.3835 326.6462 326.6564 326.6564 327.7379
   328.5086 328.6157 328.7780 328.7780 329.5249 332.7501 333.1476 333.1476
   333.4277 334.0233 334.4506 334.4506 334.8816 335.1528 335.1775 335.1775
   335.3616 335.3751 335.4924 335.4924 335.7342 335.9660 336.0359 336.0359
   336.2194 336.3109 336.4151 336.4151 336.4279 337.2096 337.2096 337.7593
   337.8455 338.1100 338.1100 338.1659 340.3631 340.7059 340.7059 340.8222
   341.1768 341.6981 341.6981 341.9631 342.4165 342.8297 342.8297 343.2609
   343.2806 343.4937 343.7202 343.7202 343.7585 343.7608 344.2068 344.2068
   344.7118 344.8369 345.0866 345.2230 345.2230 345.2905 345.3333 345.3838
   345.4646 345.4646 345.6244 345.6244 345.6796 345.7715 345.8197 345.8197
   345.9790 346.1954 346.2548 346.2548 347.9514 348.7299 348.8818 348.8818
   348.9077 349.6557 350.5736 350.5736 351.0593 351.1412 351.3362 351.3362
   351.7518 352.2329 352.5653 352.5653 352.7013 352.9359 352.9661 353.2700
   353.3046 353.3046 353.5441 353.9390 354.3666 354.3666 354.5455 355.0358
   355.1336 355.1387 355.1506 355.1506 355.2763 355.2763 355.6660 355.9243
   356.3110 356.3209 356.3209 356.4862 356.4862 356.5813 357.8729 358.3714
   358.3862 358.3862 358.8643 358.8643 361.5935 361.6217 361.6217 362.3057
   363.2894 363.7460 364.2352 365.4105 365.4105 365.6543 366.0613 366.0721
   366.0721 366.2929 367.1826 367.5097 367.6766 367.6766 368.1058 368.1275
   368.3790 368.4030 368.4030 368.9654 368.9654 368.9679 370.1403 370.2317
   370.2317 370.2399 370.3610 370.7222 370.7222 370.7730 371.2679 371.3480
   371.3480 371.3731 371.4691 371.5846 371.5846 371.9531 371.9935 371.9935
   372.9985 373.2618 373.2618 373.2703 374.3952 375.5345 375.5345 375.5825
   375.9349 376.7174 376.7174 376.7778 378.4395 378.4395 378.6241 379.1120
   380.3238 380.3238 380.7409 380.9624 380.9624 381.2910 381.7301 381.8098
   381.9686 382.1069 382.1069 382.7783 382.9918 383.0231 383.1104 383.1104
   383.8020 383.9933 383.9933 383.9983 384.7135 385.3718 385.3718 385.5653
   385.6887 386.4625 386.4627 386.5638 386.5638 386.8746 386.9109 386.9109
   387.3738 387.4881 387.7191 387.7191 387.9729 388.5535 388.7792 388.7925
   388.8943 388.8943 389.2289 389.2289 390.2977 390.3342 390.4220 390.4981
   390.5090 390.5090 390.5520 390.5555 390.5555 390.7699 391.7452 391.7452
   392.0367 392.0367 392.8251 392.9437 393.0745 393.1022 393.1022 393.1212
   393.5998 393.5998 393.8164 394.1569 394.3147 394.3261 394.3261 394.3417
   394.4203 394.4203 394.4738 394.5652 394.7040 394.7298 394.8188 394.8188
   394.8616 394.8645 394.9799 394.9799 395.2138 395.4103 395.4103 395.5675
   399.2720 399.6477 400.0097 400.0097 404.5180 404.5180 404.6880 404.6950
   404.7652 404.7664 404.7664 404.7808 405.1603 405.3255 405.3255 405.5832
   405.9227 405.9227 406.0079 407.5427 407.8456 408.1424 408.1424 408.6058
   409.6001 409.9144 409.9289 409.9289 410.1137 410.2513 410.5462 410.5462
   410.5714 410.7940 410.7940 411.1954 411.1954 411.3109 411.3304 411.4849
   412.3561 412.3833 412.3833 412.4649 412.9131 412.9844 412.9844 413.8736
   414.1099 414.2289 414.2289 414.2454 414.8065 415.1271 415.1271 415.2847
   417.0071 417.3402 417.3402 417.4097 417.6858 417.6858 417.7469 417.8244
   417.9430 417.9767 418.3952 418.3952 418.6126 418.6126 418.9294 418.9383
   419.8313 419.8313 419.8689 419.9320 420.0152 420.0392 420.0392 420.1068
   420.2907 420.6794 420.6794 420.8085 421.9945 422.4376 422.4376 422.5910
   423.6434 423.6703 423.7125 423.7125 424.7852 426.1134 426.4712 426.4846
   426.4846 426.4861 426.6332 426.6332 426.9902 427.4163 428.1073 428.1073
   428.1100 428.1216 428.5087 428.5595 428.5595 428.6000 428.7847 428.8738
   429.0060 429.0060 429.1951 429.1951 430.2231 432.2750 433.7193 435.3193
   435.3193 435.5300 435.6059 435.6453 435.7209 435.7209 435.7523 435.7701
   436.1934 436.1934 437.8617 437.8617 437.9985 438.2656 438.3997 438.3997
   438.4073 438.5999 438.7551 439.0479 439.1913 439.2389 439.2389 439.2934
   439.8257 439.8257 439.9705 440.0958 440.2529 440.2529 440.7659 440.7991
   441.2591 441.2591 441.8054 442.0598 442.0598 442.1905 442.5497 442.6518

     the Fermi energy is     7.2109 ev
     (compare with:     6.9880 eV, computed in scf)

     Writing all to output data dir out/mp-1087.save/
 
     init_run     :      0.07s CPU      0.10s WALL (       1 calls)
     electrons    :   1048.32s CPU   1129.23s WALL (       1 calls)

     Called by init_run:
     wfcinit      :      0.00s CPU      0.00s WALL (       1 calls)
     potinit      :      0.01s CPU      0.02s WALL (       1 calls)
     hinit0       :      0.02s CPU      0.04s WALL (       1 calls)

     Called by electrons:
     c_bands      :   1048.32s CPU   1129.22s WALL (       1 calls)
     v_of_rho     :      0.01s CPU      0.01s WALL (       1 calls)

     Called by c_bands:
     init_us_2    :      0.00s CPU      0.00s WALL (       8 calls)
     init_us_2:cp :      0.00s CPU      0.00s WALL (       8 calls)
     cegterg      :   1027.59s CPU   1107.26s WALL (       8 calls)

     Called by *egterg:
     cdiaghg      :    966.34s CPU   1044.75s WALL (      97 calls)
     h_psi        :     17.71s CPU     18.24s WALL (     105 calls)
     g_psi        :      0.12s CPU      0.12s WALL (      89 calls)

     Called by h_psi:
     h_psi:calbec :      0.27s CPU      0.29s WALL (     105 calls)
     vloc_psi     :     17.14s CPU     17.64s WALL (     105 calls)
     add_vuspsi   :      0.20s CPU      0.20s WALL (     105 calls)

     General routines
     calbec       :      0.27s CPU      0.29s WALL (     105 calls)
     fft          :      0.01s CPU      0.03s WALL (      10 calls)
     fftw         :     15.56s CPU     16.01s WALL (  121952 calls)
 
     Parallel routines
 
     PWSCF        :  17m29.25s CPU  18m50.91s WALL

 
   This run was terminated on:  21:51:13  18Nov2023            

=------------------------------------------------------------------------------=
   JOB DONE.
=------------------------------------------------------------------------------=
