
     Program PWSCF v.7.1 starts on  5Dec2023 at  2:14:17 

     This program is part of the open-source Quantum ESPRESSO suite
     for quantum simulation of materials; please cite
         "P. Giannozzi et al., J. Phys.:Condens. Matter 21 395502 (2009);
         "P. Giannozzi et al., J. Phys.:Condens. Matter 29 465901 (2017);
         "P. Giannozzi et al., J. Chem. Phys. 152 154105 (2020);
          URL http://www.quantum-espresso.org", 
     in publications or presentations arising from this work. More details at
     http://www.quantum-espresso.org/quote

     Parallel version (MPI), running on    24 processors

     MPI processes distributed on     1 nodes
     121741 MiB available memory on the printing compute node when the environment starts
 
     Reading input from pw_mp-12558_nscf_k380_E52.in
Warning: card &IONS ignored
Warning: card / ignored
Warning: card &CELL ignored
Warning: card / ignored

     Current dimensions of program PWSCF are:
     Max number of different atomic species (ntypx) = 10
     Max number of k-points (npk) =  40000
     Max angular momentum in pseudopotentials (lmaxx) =  4

     Atomic positions and unit cell read from directory:
     out/mp-12558.save/
     Atomic positions from file used, from input discarded
 
 
     K-points division:     npool     =       2
     R & G space division:  proc/nbgrp/npool/nimage =      12
     Subspace diagonalization in iterative solution of the eigenvalue problem:
     one sub-group per band group will be used
     scalapack distributed-memory algorithm (size of sub-group:  3*  3 procs)

 
     Parallelization info
     --------------------
     sticks:   dense  smooth     PW     G-vecs:    dense   smooth      PW
     Min          79      79     24                 1654     1654     273
     Max          80      80     25                 1660     1660     275
     Sum         955     955    295                19891    19891    3287
 
     Using Slab Decomposition
 


     bravais-lattice index     =            2
     lattice parameter (alat)  =      11.6335  a.u.
     unit-cell volume          =     393.6194 (a.u.)^3
     number of atoms/cell      =            3
     number of atomic types    =            3
     number of electrons       =        18.00
     number of Kohn-Sham states=         1200
     kinetic-energy cutoff     =      52.0000  Ry
     charge density cutoff     =     208.0000  Ry
     Exchange-correlation= PBE
                           (   1   4   3   4   0   0   0)

     celldm(1)=  11.633547  celldm(2)=   0.000000  celldm(3)=   0.000000
     celldm(4)=   0.000000  celldm(5)=   0.000000  celldm(6)=   0.000000

     crystal axes: (cart. coord. in units of alat)
               a(1) = (  -0.500000   0.000000   0.500000 )  
               a(2) = (   0.000000   0.500000   0.500000 )  
               a(3) = (  -0.500000   0.500000   0.000000 )  

     reciprocal axes: (cart. coord. in units 2 pi/alat)
               b(1) = ( -1.000000 -1.000000  1.000000 )  
               b(2) = (  1.000000  1.000000  1.000000 )  
               b(3) = ( -1.000000  1.000000 -1.000000 )  


     PseudoPot. # 1 for As read from file:
     /usr/scratch4/magr4985/MG/HTDF/pseudo/SG15/As.upf
     MD5 check sum: a2ff92a4799c87c945fff9e6739df4dd
     Pseudo is Norm-conserving, Zval =  5.0
     Generated using ONCVPSP code by D. R. Hamann
     Using radial grid of  602 points,  6 beta functions with: 
                l(1) =   0
                l(2) =   0
                l(3) =   1
                l(4) =   1
                l(5) =   2
                l(6) =   2

     PseudoPot. # 2 for Li read from file:
     /usr/scratch4/magr4985/MG/HTDF/pseudo/SG15/Li.upf
     MD5 check sum: c91dd4cee9943b136ac3b62641658f95
     Pseudo is Norm-conserving, Zval =  3.0
     Generated using ONCVPSP code by D. R. Hamann
     Using radial grid of  602 points,  4 beta functions with: 
                l(1) =   0
                l(2) =   0
                l(3) =   1
                l(4) =   1

     PseudoPot. # 3 for Mg read from file:
     /usr/scratch4/magr4985/MG/HTDF/pseudo/SG15/Mg.upf
     MD5 check sum: 330956729b1f868fdecd9f5113f6a961
     Pseudo is Norm-conserving, Zval = 10.0
     Generated using ONCVPSP code by D. R. Hamann
     Using radial grid of  602 points,  4 beta functions with: 
                l(1) =   0
                l(2) =   0
                l(3) =   1
                l(4) =   1

     atomic species   valence    mass     pseudopotential
        As             5.00    74.92160     As( 1.00)
        Li             3.00     6.94100     Li( 1.00)
        Mg            10.00    24.30500     Mg( 1.00)

     24 Sym. Ops. (no inversion) found



   Cartesian axes

     site n.     atom                  positions (alat units)
         1           Li  tau(   1) = (   0.0000000   0.0000000   0.0000000  )
         2           Mg  tau(   2) = (  -0.5000000   0.5000000   0.5000000  )
         3           As  tau(   3) = (  -0.2500000   0.2500000   0.2500001  )

     number of k points=    16  Gaussian smearing, width (Ry)=  0.0005
                       cart. coord. in units 2pi/alat
        k(    1) = (   0.0000000   0.0000000   0.0000000), wk =   0.0092593
        k(    2) = (  -0.1666667   0.1666667  -0.1666667), wk =   0.0740741
        k(    3) = (  -0.3333333   0.3333333  -0.3333333), wk =   0.0740741
        k(    4) = (   0.5000000  -0.5000000   0.5000000), wk =   0.0370370
        k(    5) = (   0.0000000   0.3333333   0.0000000), wk =   0.0555556
        k(    6) = (  -0.1666667   0.5000000  -0.1666667), wk =   0.2222222
        k(    7) = (   0.6666667  -0.3333333   0.6666667), wk =   0.2222222
        k(    8) = (   0.5000000  -0.1666667   0.5000000), wk =   0.2222222
        k(    9) = (   0.3333333   0.0000000   0.3333333), wk =   0.1111111
        k(   10) = (   0.0000000   0.6666667   0.0000000), wk =   0.0555556
        k(   11) = (   0.8333333  -0.1666667   0.8333333), wk =   0.2222222
        k(   12) = (   0.6666667  -0.0000000   0.6666667), wk =   0.1111111
        k(   13) = (   0.0000000  -1.0000000   0.0000000), wk =   0.0277778
        k(   14) = (   0.6666667  -0.3333333   1.0000000), wk =   0.2222222
        k(   15) = (   0.5000000  -0.1666667   0.8333333), wk =   0.2222222
        k(   16) = (  -0.3333333  -1.0000000   0.0000000), wk =   0.1111111

     Dense  grid:    19891 G-vectors     FFT dimensions: (  40,  40,  40)

     Estimated max dynamical RAM per process >      78.99 MB

     Estimated total dynamical RAM >       1.85 GB

     The potential is recalculated from file :
     out/mp-12558.save/charge-density

     Starting wfcs are random

     Band Structure Calculation
     ParO style diagonalization

     ethr =  5.00E-06,  avg # of iterations =  6.1

     total cpu time spent up to now is      416.3 secs

     End of band structure calculation

          k = 0.0000 0.0000 0.0000 (  2445 PWs)   bands (ev):

   -70.6187 -40.8469 -37.4037 -37.4037 -37.4037  -5.7142   4.6950   4.6950
     4.6950   6.4188   8.8472   8.8472   8.8472  12.8588  12.8588  13.5793
    13.5793  13.5793  14.7290  18.6248  24.1257  24.1257  24.1257  26.4177
    26.4177  26.4177  27.5491  27.5491  28.6285  28.6285  28.6285  34.4364
    34.4364  34.4364  36.8391  36.8391  38.0290  38.6870  38.6870  38.6870
    39.0166  39.0166  39.0166  39.1470  39.1470  39.8190  39.8190  39.8190
    40.8976  40.8976  40.8976  41.3132  41.3322  41.3322  41.3322  43.3073
    43.3073  43.3073  44.1137  45.8496  45.8496  45.8496  51.9574  54.1522
    57.3545  57.3545  58.7180  58.7180  58.7180  63.8027  63.8027  63.8027
    64.1865  66.0159  66.0159  66.0159  66.3446  66.3446  66.3446  66.4059
    66.4059  69.4214  69.4214  69.4214  70.6003  70.6003  70.8242  70.8242
    70.8242  71.7958  71.7958  71.7958  72.7964  72.7964  73.9216  73.9216
    73.9216  74.8074  75.2022  75.2022  75.2022  75.7479  75.7479  75.7479
    76.2747  76.2747  76.2747  77.6581  77.6581  77.6786  77.6786  77.6786
    77.7695  77.7695  77.7695  77.9635  80.4650  85.1061  85.1061  85.1061
    87.7611  87.7611  87.7611  88.4790  88.7306  88.7306  89.5800  89.8953
    89.8953  89.8953  90.8462  90.8462  90.8462  91.3342  91.3342  91.3342
    91.5311  91.5311  91.5311  91.9497  91.9497  96.2699  96.2699  99.0965
    99.0965  99.0965  99.5934 100.8084 100.8173 100.8173 100.8173 101.8363
   101.8438 101.8438 102.1181 102.1181 102.1181 103.4477 103.4477 103.4477
   103.5142 103.5142 103.5142 104.0060 104.0060 104.0060 104.8006 104.8006
   104.8006 105.7503 105.7503 105.7503 112.3824 115.3718 116.7233 116.7233
   116.7233 117.5613 117.5613 117.5613 118.1130 118.1130 119.2736 123.0382
   123.0382 123.0382 123.7371 123.7371 123.7371 126.1306 126.1306 127.0054
   127.0054 127.0054 128.1687 128.4890 128.4890 128.4890 129.7218 129.7218
   129.7218 130.3487 130.3487 130.3487 130.8108 130.8108 132.0324 132.0324
   132.0324 133.2713 133.6693 133.6693 133.6693 133.6813 133.6813 134.1630
   134.1630 134.1630 134.4627 134.4627 134.6649 134.6649 134.6649 134.8446
   134.8446 134.8446 135.5266 135.5266 135.5266 136.1464 136.2156 136.2156
   136.2156 136.2179 136.2179 136.2179 136.2220 136.2764 136.2764 136.4141
   136.4141 136.4141 136.6357 139.8121 139.8121 139.8371 139.8371 139.8371
   139.8545 139.8545 139.8545 139.9086 139.9086 139.9086 140.0063 140.0063
   140.1504 140.1504 140.1504 142.9043 145.3801 145.3801 145.3801 146.3630
   146.3630 150.0988 150.0988 150.0988 152.3593 152.4942 152.4942 152.4942
   153.1927 153.1927 153.1927 153.5349 153.5349 153.5349 154.3699 154.3699
   154.3699 156.1964 156.2675 156.2675 156.3443 156.3443 156.3443 156.4667
   158.0311 158.0311 158.0311 161.7275 161.7275 162.0389 162.3358 162.3358
   162.3358 163.5499 163.5499 163.5499 163.8681 163.8681 163.8681 164.5827
   164.5827 164.5827 164.6045 164.6045 164.9541 164.9541 164.9541 168.1855
   168.1855 168.1855 168.6111 168.6111 169.3446 169.3446 169.3446 169.9365
   169.9365 169.9365 170.0042 170.0724 170.0724 170.0724 170.8317 170.8317
   170.8317 171.1384 171.1384 175.1190 175.1190 175.1190 176.9253 181.3421
   181.3421 181.3421 181.7078 183.9134 183.9134 183.9134 184.6192 187.2376
   187.2376 187.8896 187.8896 187.8897 188.1105 188.1105 188.1105 188.3523
   188.3600 188.3600 190.8557 190.8557 190.8557 192.0330 192.0330 192.0330
   192.3902 192.3902 192.8933 192.8933 192.8933 193.2874 193.3480 193.3480
   193.3480 193.9524 193.9524 193.9524 194.8087 194.8087 195.3457 196.8049
   197.8257 197.8257 197.8257 197.9100 197.9100 197.9100 198.0256 198.0256
   198.0256 198.2018 198.2018 198.2018 198.2962 198.2962 198.2962 200.9170
   200.9170 200.9170 201.2742 201.2742 201.6850 201.6850 201.6850 201.8783
   201.8783 201.8783 201.9554 201.9554 201.9554 202.0709 202.0709 202.1028
   202.1028 202.1028 202.2272 205.5472 205.6714 205.6714 205.6714 206.5626
   206.5626 206.5626 207.6698 209.7316 209.7316 210.5594 210.5594 210.5594
   211.1409 211.1409 211.1409 211.9384 211.9384 211.9384 212.5580 212.5580
   212.5580 213.8661 213.8661 215.2046 215.4166 215.4166 215.4166 216.4827
   216.4827 216.9761 216.9761 216.9761 217.3849 217.3849 217.3849 217.7242
   217.7242 217.7242 218.4055 218.4055 218.4055 218.4854 218.4854 218.9678
   219.1658 219.1658 219.1658 219.5322 219.5322 219.5322 219.8387 219.8387
   219.8387 220.0612 221.0218 223.0056 223.0056 223.9460 223.9460 223.9460
   224.5246 225.4462 225.4462 225.4462 225.4684 225.4684 225.4684 225.6528
   225.6528 225.6528 225.8314 225.8314 226.0214 226.0214 226.0214 226.0788
   226.1832 226.1832 226.1832 229.4072 229.4072 229.4072 229.6130 229.6130
   229.6256 229.6256 229.6256 230.1472 230.1472 230.1472 230.2005 230.2005
   230.2005 230.3975 230.3975 230.5293 230.5293 230.5293 230.5645 230.5645
   230.5645 230.5667 230.5667 230.5667 230.6299 230.6299 230.6944 230.7215
   230.7215 230.7215 230.8014 230.9194 230.9194 230.9194 231.1006 231.1006
   231.1578 231.1578 231.1578 240.9696 240.9696 240.9696 242.8354 245.2290
   245.2290 247.8336 247.8336 247.8336 249.3749 251.1391 251.1391 251.1391
   252.1918 252.2796 252.2796 253.9524 253.9524 253.9524 255.9871 255.9871
   255.9871 256.2624 256.4173 256.4173 256.4173 256.5762 256.5762 256.5762
   256.8043 256.8043 257.4193 257.7494 257.7494 257.7494 258.4752 258.4752
   258.4752 258.9130 258.9130 258.9130 259.2734 259.2734 260.5983 264.2419
   264.2419 264.2419 264.2950 264.2950 264.2950 264.3334 264.3334 264.3334
   264.4292 264.4292 264.4292 266.0103 266.0103 266.0873 266.0873 266.0874
   266.2848 266.2848 266.2848 266.3028 266.3028 266.3028 266.3544 266.3544
   266.3837 266.3837 266.3837 267.2273 267.2273 267.2593 267.2593 267.2593
   267.3275 269.8489 269.8489 269.8489 271.1293 272.5814 272.5814 272.5814
   272.6165 272.6165 273.1709 273.1709 273.1709 275.9390 275.9390 276.1993
   276.1993 276.1993 277.1980 278.4507 278.4507 278.4507 278.7124 278.7124
   278.7124 279.2241 279.2241 279.2241 279.3712 279.3712 279.3712 279.8096
   279.8096 279.8096 280.7050 281.1179 281.1179 281.1179 281.1638 281.1638
   282.2171 282.3059 282.3059 282.3059 283.0486 283.0486 283.1411 283.1411
   283.1411 285.3527 286.6172 286.6172 286.6172 287.9126 287.9126 287.9126
   288.3681 288.4103 288.4103 288.4664 288.4664 288.4664 288.4847 288.4847
   288.4847 288.6259 288.6460 288.6460 288.6460 292.4187 292.4187 292.4187
   292.4281 292.4281 292.4281 292.4512 292.4512 292.4793 292.4793 292.4793
   292.5533 292.8311 292.8311 292.8509 292.8509 292.8509 293.3116 293.3116
   293.3116 293.5206 293.5206 293.5206 293.7247 294.8511 295.7328 295.7328
   295.7328 295.8521 295.8521 295.8521 296.1804 296.1804 296.2305 296.2305
   296.2305 296.5456 296.5456 296.5456 296.8672 297.0470 297.0470 297.0470
   297.2046 297.2046 297.2287 297.2287 297.2287 306.7365 306.7365 306.7365
   307.1738 309.2185 309.2185 309.5639 309.5639 309.5639 310.5387 310.5387
   310.5387 310.6055 310.6055 310.6055 311.0170 311.0170 311.0170 311.1185
   311.1185 311.1185 311.5328 311.5378 311.5378 311.7678 311.7678 311.7678
   311.9739 312.8962 312.8962 313.5341 313.5341 313.5341 313.9225 314.8201
   314.8201 314.8201 316.4779 316.4779 316.4779 316.5835 316.7171 316.7171
   316.7171 317.0191 317.0191 317.3185 317.3185 317.3185 318.3214 318.7785
   318.7785 318.7785 319.3115 319.3115 319.3115 319.3263 319.3263 320.1592
   320.1592 321.5619 321.5619 321.5619 322.7474 322.7474 322.7474 322.8900
   322.8900 322.8900 323.1035 323.2721 323.2721 323.2721 323.3866 323.3866
   323.3866 323.4883 323.4883 323.9855 323.9855 323.9855 323.9944 323.9944
   325.3027 325.3027 325.3027 325.5490 325.5490 325.5490 325.5498 325.5498
   325.5498 325.5767 325.5987 325.7819 325.7819 325.7819 325.7890 325.7890
   325.7890 325.9940 325.9940 325.9940 326.0374 326.0374 326.2184 326.4395
   326.4395 326.4395 326.7895 326.7895 326.7895 327.0824 327.0824 327.0824
   327.0860 327.0860 327.0860 327.5452 327.5452 329.3129 329.3129 329.5188
   329.5188 329.5188 329.9831 330.1528 330.1528 330.1528 330.2373 330.2373
   330.2373 330.3847 330.3847 330.3847 330.5482 330.5482 330.5482 330.7397
   330.7397 330.8805 330.8805 330.8805 330.9932 333.1337 334.5596 334.5596
   334.5596 334.7894 334.7894 334.7894 336.3615 344.9191 344.9191 344.9345
   344.9345 344.9345 344.9401 344.9401 344.9401 345.0154 345.0154 345.0154
   345.0877 345.0877 345.1024 345.1024 345.1024 347.7531 347.7531 347.7531
   348.8647 349.3340 349.3340 351.4173 351.4173 351.4173 351.5341 351.5341
   351.5341 351.6176 351.6176 351.6176 351.6921 351.6921 351.7385 351.7715
   351.7715 351.7715 352.0372 352.0372 352.0372 356.6991 356.6991 356.6991
   356.7025 356.7025 356.7025 356.7784 356.7784 356.7784 356.8500 356.8500
   356.8500 357.1241 357.1241 357.1504 357.1504 357.1504 357.1915 357.1915
   357.1965 357.2467 357.2467 357.2467 357.3197 367.7122 367.7122 367.7122
   368.8418 369.7856 369.7856 369.7856 370.7637 371.4736 371.4736 371.8707
   371.8707 371.8707 371.9553 371.9553 371.9553 372.2766 372.2766 372.2766
   372.3677 372.3677 372.3677 372.4831 372.4831 372.8250 374.7843 374.7843
   374.7843 375.6029 375.6029 375.6029 377.3233 377.3233 377.3864 377.3864
   377.3864 378.0954 378.4549 378.4549 378.4549 379.1144 379.1144 379.1144
   379.4686 382.1398 382.1398 382.3907 382.3907 382.3907 382.6189 382.6189
   382.6189 382.7690 382.7690 382.7690 383.0489 385.1330 385.1330 385.1330
   385.1333 385.1333 385.6433 385.6433 385.6433 385.7550 385.7550 385.7798
   385.7798 385.7798 386.0980 386.0980 386.0980 386.2820 386.6806 386.6806
   386.6806 386.7513 386.8648 386.8648 386.8648 387.7335 387.7335 387.7335
   388.3490 388.3490 388.6661 388.9195 388.9195 388.9195 388.9501 388.9501
   389.0072 389.0072 389.0072 389.0100 389.0100 389.0100 389.0286 389.0286
   389.0286 389.1784 389.1784 390.9877 390.9877 390.9877 391.2000 391.3612
   391.3612 391.3612 391.5179 391.5179 391.5179 391.5597 391.5597 392.0478
   392.1053 392.1053 392.1053 392.1421 392.1421 392.1421 392.1875 392.1875
   392.1875 392.2049 392.2049 396.9245 396.9245 396.9245 397.0729 397.1169
   397.1169 400.1922 400.1922 400.1922 400.4582 400.4582 400.4582 400.6822
   400.6822 400.6822 400.8726 400.8726 401.3575 403.5350 403.5350 403.5350
   403.5647 403.7007 403.7007 403.7007 403.8325 403.8325 403.8326 403.8703
   403.8703 405.3614 405.3614 405.3614 405.8095 405.8095 405.8095 405.9488
   405.9488 405.9488 406.5964 406.7401 406.7401 407.1361 407.1361 407.1361
   407.7819 407.7819 407.7819 407.8200 407.8200 407.8200 408.1356 408.1356
   408.1356 408.6361 408.6361 408.6386 408.6386 408.6386 408.7616 408.7616
   408.7616 408.8611 408.8611 408.8611 408.9440 410.1823 410.1823 410.2149
   410.2149 410.2149 410.2708 412.1349 412.8488 412.8488 412.8488 414.1585
   414.1585 414.1585 414.6559 414.6559 415.5072 415.6769 415.6769 415.6769
   415.9641 415.9641 415.9641 416.4752 416.4752 416.4752 416.6578 416.6578
   416.7717 416.7717 416.7717 416.9461 417.4319 417.4899 417.4899 417.4899
   417.8797 417.8797 417.8797 418.1170 418.1170 418.1170 418.1456 418.1456
   418.3214 418.3214 418.3214 418.4831 418.4831 418.4998 418.4998 418.4998
   418.5946 418.5946 418.5946 418.7511 418.8966 418.8966 418.8966 418.9368
   418.9368 418.9368 419.1487 419.1487 419.1487 419.2727 419.2727 419.2952

          k =-0.1667 0.1667-0.1667 (  2523 PWs)   bands (ev):

   -70.6187 -40.8486 -37.4039 -37.4037 -37.4037  -5.5556   3.1372   4.5002
     4.5002   7.3046   9.2204   9.2204   9.6073  11.6666  11.6666  13.1455
    15.7713  15.8211  15.8212  19.2074  21.9890  21.9890  22.0464  25.6563
    25.6563  27.2596  27.2596  28.6534  28.9062  31.7024  32.2504  32.2504
    33.3765  33.3765  33.8982  33.8982  35.6959  35.6959  36.1393  37.5865
    37.8304  38.1231  38.1231  38.7891  39.7451  39.7451  40.2801  41.4799
    41.4799  41.8645  42.2883  42.2883  43.1310  43.9327  43.9327  45.3459
    46.2204  46.8394  46.8394  47.6843  47.6843  49.4612  51.9354  53.7003
    53.7003  54.9199  57.5638  59.5161  59.5161  60.6028  61.1873  61.1873
    63.0608  63.0608  64.6739  64.8456  64.8456  65.5394  66.3120  66.5294
    66.5294  67.8924  67.8924  68.7429  68.7429  69.1282  69.5648  70.1243
    70.1243  71.2256  71.3167  71.5303  71.5303  72.9724  72.9724  73.4346
    74.9398  74.9398  75.1725  75.4648  75.4768  75.4768  77.1912  77.2230
    77.2230  78.3114  78.3114  78.7525  79.1652  79.1652  79.3448  80.6666
    80.6666  81.4833  82.3760  82.3760  83.0831  83.3326  83.3326  85.0683
    85.0683  85.2903  85.4915  86.2012  86.2012  86.2903  88.9218  88.9218
    89.2319  89.6860  89.6860  90.0864  91.1371  92.2642  92.2642  93.3184
    93.3184  94.2014  94.8506  95.2449  95.2449  95.9140  96.3019  96.3019
    96.6306  97.3200  97.6553  97.6553  97.9947  98.4952  98.4952  98.7347
   100.1767 100.1767 101.5992 101.5992 102.5358 104.5375 104.5375 104.9484
   105.7417 105.7417 105.7984 108.1033 108.1033 109.2208 109.3073 109.3073
   110.2720 110.5014 110.5014 110.6971 111.7853 111.7853 112.1152 115.4154
   116.3175 116.8003 117.0360 117.0360 117.9811 117.9811 118.4123 119.9277
   119.9277 120.6916 122.0986 122.0986 122.7258 122.7258 123.0559 123.7640
   124.3747 124.3747 124.6853 124.8236 125.8896 125.8896 127.0711 127.0963
   127.0963 127.5490 127.5490 128.2803 128.3151 128.3151 128.8619 128.8619
   128.9752 130.5009 130.5009 130.9099 131.2562 131.2562 131.7071 132.0007
   132.0007 132.1871 133.0815 133.0815 133.7197 134.7556 134.7556 134.8610
   135.5687 135.7648 135.7648 136.1490 136.2927 136.2927 136.7266 136.7951
   136.7951 138.3943 138.3943 138.5403 138.6458 139.4703 139.4703 139.8570
   140.0039 140.0039 141.3045 141.3045 141.4514 142.6126 142.6126 142.8577
   143.2926 143.2926 144.0486 144.0672 144.0672 144.4279 144.5683 144.5683
   144.5868 144.7813 146.0669 146.0669 146.3805 146.3805 146.4667 147.0897
   147.5533 147.5533 148.2257 148.2257 148.5289 149.5324 150.2846 150.4152
   150.4152 150.7319 150.7319 151.1564 152.7476 152.7476 153.7951 153.7951
   154.4697 155.1866 155.1866 157.0176 157.1868 157.1868 158.0372 158.8345
   158.8345 158.8592 159.6944 159.6944 159.9303 160.7054 160.7054 161.0839
   161.9821 161.9821 162.5647 162.5647 162.7327 162.9864 163.6674 163.6674
   164.2769 165.0800 165.0800 165.3015 166.1805 166.1805 166.2504 167.4703
   167.6146 167.6146 169.5539 170.1274 170.1274 170.8497 170.9483 171.6311
   171.6311 172.1812 172.7237 172.7237 175.3927 175.5682 175.5682 175.7895
   176.3539 176.3539 176.9796 176.9796 177.7606 178.0427 178.0427 178.3162
   178.9400 178.9400 180.8355 181.4454 181.6209 181.6209 182.9245 182.9245
   183.6110 183.7776 183.7776 184.5916 184.7735 184.7735 186.4694 187.2950
   187.7958 187.7958 187.8786 187.8786 188.1694 188.4849 188.4849 188.7668
   188.8320 188.8320 189.6262 189.6262 189.8158 190.3724 190.5433 190.5433
   190.7861 191.3201 191.3201 192.3090 193.5014 193.6198 193.6198 194.0243
   195.8660 195.8660 195.8817 197.6109 197.6109 198.7554 198.8383 198.8383
   199.6294 199.6294 199.9311 200.0076 200.0076 200.3584 200.5636 201.0193
   201.0193 201.6583 201.6583 202.0427 202.0755 202.0755 202.3109 203.1461
   203.1461 203.2385 203.9188 203.9188 203.9446 204.0681 205.0266 205.0266
   205.5317 205.7105 205.7105 205.7109 207.3213 207.3213 207.4318 207.6480
   208.1883 208.1883 208.6143 208.6143 208.9657 209.0130 209.0130 209.3669
   209.9986 209.9986 210.2468 210.7311 211.2779 211.2779 211.8534 212.2722
   212.2722 213.2511 213.4765 213.4765 213.6962 213.6962 214.2752 214.6285
   214.6285 214.8981 214.8981 215.3392 215.3392 215.4756 215.7293 215.8563
   216.1439 216.1588 216.1588 216.3274 216.3274 216.4424 216.7794 216.7794
   217.3024 217.3024 217.6145 218.4491 218.4491 218.4662 220.3377 220.3377
   220.4132 220.8187 220.8187 220.8900 221.7203 222.5793 222.5793 222.8036
   222.8300 222.8850 222.8850 223.5164 223.7966 223.7966 224.2874 224.5411
   224.5411 225.2667 225.2667 226.0809 226.3211 226.5903 226.5903 227.0764
   227.0764 227.3050 227.6329 227.6329 228.4146 228.7040 228.7642 228.7642
   229.4295 229.4295 230.2735 232.5229 232.5229 233.1481 233.3338 233.4860
   233.4860 233.8168 233.8168 234.1581 234.1581 234.6810 234.6810 234.7084
   234.9351 235.0874 235.0874 235.2857 235.5114 235.7103 238.1943 238.1943
   238.3296 238.7098 238.7098 239.9240 239.9240 240.2031 240.8818 241.1083
   241.1083 241.2786 241.2786 241.3730 241.4743 241.4743 241.4911 242.1547
   244.7380 244.7380 245.1212 245.1212 245.4494 246.6912 247.6949 247.8950
   247.8950 248.1241 248.2567 248.2567 248.5557 248.5558 249.2187 249.2187
   252.3801 252.3801 252.6727 252.6727 252.7118 252.8331 253.9903 254.6379
   254.6379 255.9613 256.4734 256.4734 256.9609 257.0684 257.0684 257.3144
   257.6933 257.6933 258.2233 258.2540 258.2540 258.7196 258.7196 258.8912
   259.0897 259.0897 259.1833 262.2487 262.2487 262.5470 262.7784 262.7784
   263.3396 263.7793 263.7793 263.7945 265.0776 265.4830 265.4830 265.6830
   266.3324 266.6081 266.6081 267.3705 267.3705 267.8059 267.8059 267.8475
   268.2105 268.5254 268.5254 269.2284 269.4603 271.4435 271.4435 271.4634
   271.9565 272.7715 272.7715 272.8281 272.8281 273.4154 273.4154 273.4296
   273.4517 273.5179 273.5179 273.8429 273.8429 274.0905 274.8291 274.8291
   274.8995 275.2824 275.4905 275.4905 275.7400 275.9003 275.9003 276.2316
   276.3016 276.7906 276.7906 277.8565 277.8565 278.0472 278.7011 278.7011
   278.8023 279.2754 279.2754 279.6407 279.6407 279.7640 280.1680 281.6523
   281.6523 282.2723 282.2811 282.2811 282.6188 283.0513 283.4537 283.4537
   284.2207 284.3044 284.3044 284.8769 284.8769 286.0854 286.8152 286.8152
   287.1658 287.6189 287.6189 288.1343 288.1343 288.1848 289.2295 289.2295
   289.5509 290.4895 291.2283 291.2283 291.3703 291.5828 291.5828 291.6795
   292.0240 292.0240 292.0735 292.9041 292.9041 292.9388 294.2338 294.2338
   294.3217 294.5619 294.5619 295.0591 295.1165 295.1165 295.1948 295.2247
   295.2247 295.4685 295.5946 295.5946 295.6080 295.6772 295.6772 295.8355
   295.8355 296.0298 296.0988 297.4710 297.4710 297.7004 298.6435 298.6435
   299.0889 299.3523 299.3523 299.6669 299.6669 299.7150 301.6843 301.9655
   301.9655 302.8715 303.0838 303.5416 303.5416 304.4557 304.4557 304.6389
   304.6389 305.1690 305.2376 305.2376 306.0997 306.2841 306.4003 306.4003
   306.5883 306.7608 306.7608 307.4966 307.5975 307.5975 307.6567 307.8566
   308.1200 308.5130 308.5130 309.4159 309.4159 310.0918 310.0918 310.3485
   310.3485 310.5711 310.6456 310.8206 310.8206 311.6351 312.0377 312.0459
   312.0459 313.1203 313.1203 313.1366 313.4161 313.4161 313.9224 313.9658
   314.3298 314.3298 314.3362 314.8457 314.9571 314.9571 315.4005 315.5156
   315.5156 315.7044 315.7044 315.9738 316.0883 316.0928 316.0928 316.4915
   316.4915 316.8059 317.1848 317.3781 317.3781 318.2010 318.2010 318.4825
   320.3940 320.3940 320.4140 320.8870 320.8949 320.8949 322.1407 322.1407
   322.3758 323.1466 323.1466 323.4935 324.0518 324.2224 324.2224 324.2668
   324.2668 324.3067 324.5197 324.5197 325.5320 325.6587 325.6587 325.8785
   326.2837 326.2837 326.6059 326.7414 326.7414 327.5526 327.5526 327.8637
   328.2149 328.3183 328.3183 328.6053 328.8379 328.8379 329.2800 329.7292
   329.7292 331.1285 331.5087 331.5087 332.0476 332.0476 332.2982 332.4178
   333.1680 333.3813 333.3813 333.6882 333.8821 333.8821 334.1354 334.1354
   334.7144 334.9397 334.9397 335.0618 336.1963 336.1963 337.0737 337.1597
   337.1597 337.3154 337.3384 337.3384 337.6939 337.6939 337.8308 337.8308
   337.8807 337.9248 338.2831 338.8609 338.8609 338.9037 339.3747 339.3747
   340.1156 340.1156 340.1977 340.1977 340.2185 340.2897 340.3554 340.6525
   340.6525 341.6960 341.9555 341.9555 342.2082 342.2082 342.2812 343.3400
   343.6144 343.6144 344.9042 344.9042 345.0311 345.8144 346.1857 346.1857
   346.2888 346.3743 346.3743 346.6825 346.6825 346.7181 348.7445 349.1765
   349.1765 349.7387 350.4819 350.4819 350.5122 350.8626 350.8626 350.8814
   351.3739 351.3739 353.9565 354.6435 354.6435 354.6900 355.3380 356.7379
   356.7379 357.2579 358.8648 358.8648 359.4975 359.5911 359.5911 360.1489
   361.6172 361.6172 361.8067 361.8067 361.9955 362.0556 362.5674 362.5674
   362.7317 363.8893 363.9064 363.9064 363.9155 364.1122 364.1122 366.0266
   366.0266 366.3714 366.3714 367.0727 367.3102 367.3102 367.4699 368.3875
   368.5200 368.5200 368.6380 368.6380 370.0687 370.0687 370.1075 370.4010
   370.4010 370.5214 370.5740 370.5740 371.5697 371.8535 372.2795 372.2795
   372.6877 372.6877 372.7775 373.1381 373.3346 373.3346 374.3279 374.3279
   374.3305 374.4441 374.4441 374.5209 374.5638 374.7852 374.7852 375.7242
   375.7242 375.9246 377.1059 377.1059 377.5156 377.6920 377.6920 377.8375
   379.3051 379.4621 379.4621 379.9149 380.1335 380.1335 380.7372 380.9571
   380.9571 381.6220 381.6220 381.9660 381.9660 382.0347 382.2420 383.1925
   383.3164 383.3164 383.7318 383.7318 384.0798 384.3399 384.4292 384.4292
   384.5984 384.5984 385.0767 385.5123 386.0702 386.0702 386.7646 386.7646
   386.7979 387.2523 387.2869 387.2869 389.5031 389.7783 389.7783 390.2437
   390.2463 390.2463 390.3459 390.4036 390.4036 390.6934 391.6349 392.0409
   392.0409 392.4631 392.8103 392.8103 392.9328 392.9328 393.2021 393.2349
   393.5124 393.5124 393.7959 393.7959 393.9026 394.4285 394.6022 394.6022
   394.7883 394.8320 394.8320 395.4963 395.4963 395.6159 396.1451 396.1451
   396.3638 397.1584 397.1584 397.4074 397.7277 397.8747 397.8747 397.9631
   398.0666 398.0666 398.5706 398.5706 398.8209 398.8209 398.8745 398.9615
   398.9615 398.9851 399.0248 399.0248 399.1450 399.3570 399.4186 399.4186
   399.5181 399.6276 400.2110 400.7123 400.7123 401.2611 401.2611 401.3477
   401.3477 401.3641 401.8621 402.2202 402.2202 402.9043 403.3612 403.3612
   403.4193 403.9319 403.9319 404.2164 404.2976 404.2976 404.4405 404.6611
   404.6777 404.6777 405.5244 405.5244 405.6723 406.0855 406.0855 406.1905
   406.1905 406.2041 406.9413 407.5567 407.5567 407.6758 408.2967 408.2967
   408.3862 408.4608 409.3821 409.3821 410.3225 410.3225 410.5668 410.7812
   410.7812 410.8575 410.9850 410.9850 411.0940 411.2230 411.2230 411.4837
   411.7102 411.7102 411.8555 411.8555 411.9081 412.1054 412.1054 412.2338
   412.2503 412.3330 412.3330 413.4569 413.5793 413.5793 414.9710 415.0237
   415.0237 415.1065 415.1065 415.3091 415.7376 415.8007 415.8007 416.0278
   416.0278 416.0632 417.5817 417.6246 417.6246 418.8905 419.0527 419.0527
   419.1188 420.6530 420.6530 420.7367 420.9072 420.9072 421.1938 421.1938
   421.2138 421.5504 421.5504 422.0711 422.3120 422.8138 422.8138 423.2509
   423.2615 423.2615 423.4983 423.7259 423.7260 423.7591 424.1352 424.1352

          k =-0.3333 0.3333-0.3333 (  2473 PWs)   bands (ev):

   -70.6187 -40.8477 -37.4043 -37.4038 -37.4038  -5.1853   1.4189   4.1950
     4.1950   7.5124   9.1736   9.1736  10.9136  12.3853  12.3853  13.6090
    17.2364  18.2495  18.2495  18.8635  19.1256  19.1256  22.2338  25.7500
    25.7500  27.2149  27.7033  27.7033  28.6162  28.6162  29.6537  30.6827
    31.5414  31.5414  32.4416  33.1550  33.1550  34.8880  36.6892  37.5621
    37.5621  38.5924  38.5924  39.0011  39.8241  39.8241  40.8594  42.5624
    42.5624  42.9119  45.1870  45.8292  45.8292  47.7167  47.7167  49.1358
    49.9017  49.9017  50.2314  50.9640  51.1868  51.1868  52.8652  52.8652
    53.0009  54.2118  54.2118  54.5013  56.4556  56.4556  57.4619  59.0711
    59.0711  60.8415  61.7292  61.8257  61.8257  62.4669  65.0006  65.6400
    65.6400  66.2488  67.5665  67.6101  67.6101  68.5834  68.5834  70.4424
    70.4424  71.2071  71.2071  71.3583  71.6516  71.6516  71.8999  73.6486
    73.8268  73.8268  74.7445  75.5332  75.5966  75.5966  76.8033  78.1588
    78.1588  79.5832  79.5832  80.8823  81.2398  81.4112  81.4775  81.4775
    81.9587  81.9587  82.9055  83.1740  83.1740  84.9317  85.0263  85.0263
    86.3066  87.3633  87.3633  87.9380  88.8728  88.8728  89.6033  89.6033
    89.6581  90.2801  91.1752  91.1752  91.7534  91.7958  91.8984  91.8984
    93.3039  93.3039  93.8468  94.0996  94.2459  94.2459  94.9632  94.9632
    95.6746  97.3629  97.3629  98.8093  99.0869  99.0869 100.6642 100.6642
   101.0092 102.0762 102.7752 103.1856 103.1856 105.5898 106.2544 106.2544
   106.8444 109.1487 109.1487 109.8943 110.3567 110.3567 110.5649 111.8683
   111.8683 112.2853 112.5717 112.5717 113.2372 113.2372 113.7442 114.6015
   114.6015 115.0965 115.3055 115.5446 115.5446 116.7594 116.7594 117.6032
   117.6032 117.6981 118.3550 118.9629 119.0285 119.0285 119.1081 121.0911
   121.0911 121.2154 121.6050 121.6050 122.0572 122.6232 122.8267 122.8267
   123.9472 123.9472 125.2845 125.2845 125.6389 125.9950 127.7080 127.7080
   128.0681 128.8766 129.7955 129.7955 130.4573 130.4573 130.4698 131.8055
   132.3600 132.3600 132.7437 133.1452 133.1452 134.6295 134.6295 134.6497
   134.6901 135.0811 135.0811 135.3556 136.1148 136.1148 136.9548 136.9548
   137.0851 139.0076 139.0076 139.6064 139.6064 139.6674 139.7157 140.3905
   140.8478 140.8478 141.3575 141.5234 141.5234 142.4375 142.6204 142.6204
   143.5078 143.9556 143.9556 145.2371 145.2371 145.7989 146.3600 146.3600
   146.7866 146.7866 146.8048 146.8802 147.7157 147.7157 148.3631 150.0815
   150.0815 150.7334 150.8802 151.2967 151.2967 152.8336 152.8336 152.8741
   153.6752 153.8515 153.8515 154.5484 154.6088 154.6088 155.4870 155.9278
   156.0060 156.0060 156.5039 156.5039 156.7644 158.5661 158.5661 159.2047
   159.5785 159.5785 160.9539 161.2447 161.2447 161.3601 161.4307 162.2448
   162.2448 162.5355 162.9290 162.9290 164.8691 165.1509 165.1509 165.9769
   165.9769 166.3625 166.8570 167.2872 167.2872 167.4991 167.4991 169.7318
   170.7032 170.7032 171.2453 171.2453 171.4255 172.2932 172.9294 172.9294
   173.6437 173.6437 173.7719 174.5281 175.0153 175.0153 175.4746 175.4746
   175.5498 175.9962 176.7167 176.8189 176.8189 177.2049 177.2049 177.3356
   177.5582 177.5582 178.7649 178.7649 178.8256 178.8461 180.6578 180.6578
   180.9384 181.5273 181.5273 182.1908 182.1908 182.3747 182.7916 183.8658
   183.9336 183.9336 185.3829 185.3829 185.8129 186.4659 186.9285 186.9285
   187.2386 187.2386 188.1300 188.4978 188.4978 188.6523 189.0844 190.3247
   190.3247 190.3692 191.1209 191.1209 192.0295 192.6908 192.6908 192.7129
   193.4702 193.4702 193.9854 194.5919 194.5919 194.8731 196.0595 196.3471
   196.3471 196.7713 196.8335 196.8335 198.3089 198.3089 198.3908 198.5806
   198.5806 198.9832 198.9832 200.0958 200.0958 200.3393 201.5467 201.8673
   201.8673 202.7751 202.7751 202.8225 203.1491 203.9294 203.9294 204.2020
   204.8118 204.8118 205.1813 205.3423 205.3423 206.0417 206.0417 206.1583
   206.2145 207.1292 207.1292 207.8999 207.8999 208.1146 208.5577 208.5577
   208.7693 209.8662 210.6254 210.6254 211.2401 211.2401 211.4873 211.6108
   213.4912 213.5854 213.5854 214.3229 214.3229 214.5578 214.9374 214.9374
   215.4816 216.3649 216.3649 216.5247 216.5531 216.6352 216.6352 217.1355
   218.1180 218.2093 218.2093 218.4133 218.4908 218.4908 219.0586 219.0586
   219.1994 219.2785 219.7960 219.7960 220.2298 220.2298 220.4888 221.3049
   221.3049 221.8660 222.8160 222.8160 223.3964 223.7854 223.7854 223.7957
   224.1919 224.3418 224.3418 224.6085 225.0296 225.0296 225.2434 225.2434
   225.9625 226.4464 226.4628 226.4628 227.5419 228.9961 228.9961 229.4689
   229.4689 229.6739 229.9026 230.2744 230.2744 231.0099 231.0099 232.1143
   232.1143 232.4178 233.4366 233.4366 234.0722 235.0217 235.5677 235.5677
   236.2915 236.2916 237.7291 238.7570 238.8853 238.8853 238.9504 238.9880
   239.4080 239.4080 239.4413 239.6719 239.6719 239.7270 239.8839 239.8839
   239.9674 240.8113 240.8113 241.1966 241.1966 241.4936 241.4936 241.6340
   241.7283 242.1493 242.1493 242.5187 243.3791 244.3255 244.3255 244.5563
   244.5563 245.9638 246.0099 246.0099 246.8344 247.9158 247.9158 247.9913
   248.0499 248.0499 248.9482 250.3436 250.3436 250.4759 251.0683 251.2971
   251.2971 251.5559 251.5559 251.7357 251.7357 251.8811 252.0892 252.3252
   252.6930 252.6930 253.7092 253.7092 253.8390 254.0836 254.7197 254.7197
   255.1539 255.8460 255.8460 256.4417 256.5311 256.5311 257.1277 257.7643
   257.7643 257.8212 258.3402 258.3402 258.4720 258.5579 258.8938 258.8938
   259.9666 259.9666 260.4400 260.6355 260.6355 260.9989 262.1395 262.1395
   262.2148 262.7277 262.7277 262.8536 263.8508 263.8509 264.0948 265.1324
   265.1324 265.3055 265.9425 265.9425 267.3662 267.4245 267.4245 269.3313
   269.3313 269.5538 269.9027 269.9061 269.9061 271.9749 271.9749 272.1357
   273.4622 273.4889 273.5236 273.5236 273.8241 273.8241 274.8846 274.9589
   274.9589 275.7534 275.7534 275.8324 276.0179 276.4993 277.5989 277.5989
   278.3127 278.3127 278.8821 279.2377 279.2377 280.1277 280.7744 280.7744
   280.8592 280.8592 281.1527 281.4051 281.4369 281.4369 281.6343 281.6343
   281.8608 283.0099 283.0099 283.1296 284.0237 284.0237 284.0622 284.4514
   284.8459 285.5961 285.5961 286.1169 286.1169 287.3100 287.6559 287.6559
   287.8854 287.9153 287.9153 288.0324 288.8848 288.8848 289.7720 289.8021
   289.8021 290.1518 290.6160 290.6160 290.9080 290.9760 290.9760 291.1111
   291.4821 291.8188 291.8188 293.1248 293.1248 293.3459 293.3459 293.4826
   293.6510 293.6510 293.7673 293.9690 294.1261 294.1587 294.1587 294.9540
   295.1424 295.1424 295.8992 295.9190 295.9190 296.0002 296.4595 296.4595
   296.6812 297.6756 297.6756 297.7648 298.2578 298.5534 298.5534 298.6628
   298.7542 298.7542 299.0815 299.0815 299.6665 299.8081 300.3578 300.3578
   300.6264 300.6264 301.0162 301.2216 301.3429 301.3429 301.7982 301.7982
   301.9930 301.9930 302.0587 302.2860 303.2875 303.4633 303.4633 303.9224
   303.9224 304.0894 304.1721 304.1721 304.2944 304.2944 304.3569 304.3569
   304.5720 304.7315 304.9568 304.9568 305.8033 305.8344 305.8344 306.4098
   306.8896 306.8896 308.1289 308.1289 308.3630 309.1999 309.1999 309.2581
   311.7994 311.8537 311.8537 312.1468 312.3145 312.3145 313.9108 313.9108
   313.9113 314.0968 314.0968 314.1655 316.2220 317.1882 317.1882 317.4785
   317.4785 317.4982 317.6642 317.8792 317.8792 318.1984 318.8227 318.8227
   320.4571 321.4586 321.4586 322.0986 322.0986 322.2916 322.4835 322.4835
   322.5678 323.1789 323.1789 323.2129 323.5475 323.5475 323.9008 323.9008
   323.9983 324.0604 324.1476 324.1986 324.1986 324.3482 324.4509 324.4509
   324.7928 325.0999 325.0999 325.5765 325.7540 325.7540 326.0450 326.0450
   326.1229 327.9183 328.0065 328.0065 328.5129 328.6492 328.8086 328.8086
   329.3390 329.3529 329.3529 329.6308 331.4554 331.4554 331.7853 332.2559
   332.2559 333.0291 333.4972 333.4972 333.8626 334.4623 334.4623 334.6693
   334.7976 334.9341 334.9341 335.5095 335.5095 335.6708 336.3619 336.3619
   336.5341 336.9539 336.9539 337.2438 337.9881 337.9881 338.0662 338.5806
   338.9738 338.9738 339.3827 339.3827 339.4906 340.8328 341.0758 341.0758
   341.7368 341.7368 341.8524 342.3196 342.3196 342.3564 343.6452 343.6452
   343.7288 343.9551 343.9551 344.4825 344.4825 344.5066 344.7966 345.0599
   345.0599 345.0898 345.2233 345.3703 345.3703 345.5535 345.5535 346.4648
   346.4648 346.5272 347.8764 347.8764 348.1915 348.6695 348.6695 348.9557
   349.3650 349.5219 349.5219 350.4876 350.5768 350.5768 350.7491 351.2875
   351.2875 351.8755 352.0786 352.0786 352.2357 352.2357 352.4226 354.1550
   354.7296 355.1790 355.1790 355.2431 355.8202 355.8202 355.9395 355.9826
   355.9826 356.2042 356.2042 356.2473 357.0481 357.0481 357.0569 358.2003
   358.2004 359.6794 359.6794 359.9711 360.8894 361.3580 361.3580 361.9962
   361.9962 362.1227 362.6128 363.3884 363.4138 363.4138 363.6940 363.6940
   364.5736 364.5736 364.8789 365.4871 365.4871 365.5252 365.6464 365.6464
   365.8711 365.9583 366.2479 366.2479 366.3815 366.3816 366.9140 368.6575
   369.0578 369.0578 369.3439 369.3439 369.8177 370.6557 371.1414 371.1414
   371.2878 371.5427 371.5427 371.6780 371.6780 371.6901 371.8689 371.8689
   371.9339 372.3095 372.5072 372.5072 372.8239 373.1721 373.1721 373.2383
   373.3481 373.5245 373.5245 374.8179 374.8179 374.9093 376.4804 377.0055
   377.0055 377.0796 377.1415 377.1415 377.4593 377.4593 377.4731 377.8901
   378.1081 378.1081 378.4373 379.2022 379.2022 379.3363 379.6124 379.6124
   379.6977 380.3530 380.3530 380.6213 380.6213 380.6808 380.7053 382.8114
   383.0345 383.0345 383.4052 383.5467 383.5467 384.1273 384.1273 384.1607
   384.6308 384.6308 384.8375 385.0357 385.0357 385.2435 385.2435 385.3008
   385.4093 385.4093 385.5358 385.8651 386.1902 386.6856 386.6856 386.7400
   386.7400 386.9746 388.6190 388.6190 388.7430 388.7591 388.7591 389.0075
   389.0759 389.0759 389.8779 389.8779 390.0211 390.3680 390.3680 390.5087
   390.7173 390.9567 390.9567 392.5572 392.5572 392.6615 393.6021 393.6021
   393.8113 394.6792 394.6792 394.6952 394.7314 394.9423 394.9423 395.1044
   395.1044 395.1225 395.2253 395.2253 395.2591 395.7256 395.7256 395.7391
   396.3439 396.3439 396.3641 396.8706 398.0383 398.1237 398.1237 398.1241
   398.1755 398.1755 399.5457 399.5457 402.5691 403.3929 403.3929 403.5571
   403.8418 403.8418 404.3043 404.8353 404.8394 404.8394 405.1068 405.1068
   405.1251 405.4771 405.4771 405.5333 405.7077 405.7077 405.8041 405.8041
   405.8247 406.4376 406.5574 406.5574 407.3431 407.3739 407.3739 407.6075
   407.6342 407.6342 407.6977 408.2818 408.2818 408.4268 408.4268 408.4858
   410.1375 410.2665 410.2665 410.7697 410.7697 410.8781 410.9878 411.3243
   411.3243 411.4988 411.4988 411.6522 411.6522 411.7187 412.6348 412.9246
   412.9937 412.9937 413.1554 413.1554 413.2008 413.2799 414.6583 414.6583
   415.1831 415.3956 415.3956 415.8742 416.2666 416.2666 416.7489 416.7489
   416.7875 417.3720 417.3720 417.6615 417.7113 417.7113 417.7384 417.7418
   417.8541 417.8541 418.8700 419.4357 419.4357 420.0011 420.0011 420.0355
   420.2116 421.3054 421.3054 421.9641 422.7479 422.7479 423.3212 424.4384
   424.4384 424.4800 425.2717 425.5778 425.5778 426.0339 426.0339 426.0642
   426.6792 426.6792 426.6942 426.9370 426.9370 427.0963 427.2752 427.6174

          k = 0.5000-0.5000 0.5000 (  2488 PWs)   bands (ev):

   -70.6187 -40.8480 -37.4045 -37.4038 -37.4038  -4.9618   0.7188   4.0698
     4.0698   7.4916   8.9338   8.9338  11.2266  14.3253  14.3253  14.8443
    15.5225  15.5225  16.3310  19.6879  22.3793  22.3793  23.4629  23.7036
    23.7036  25.9471  26.8262  26.8262  27.7316  28.4380  28.4380  30.2541
    30.6639  30.6639  32.1721  32.1721  32.9500  33.6358  36.3259  37.4283
    37.4283  39.1587  39.1587  39.2556  41.3689  43.1757  43.3164  43.3164
    45.0000  45.0000  45.7491  45.7491  46.8421  47.7891  47.7891  48.7727
    49.5002  49.5002  50.1670  51.8964  51.8964  52.6003  52.6004  53.3442
    54.3990  54.3990  55.5017  56.0081  56.0129  56.0129  56.1174  56.9000
    56.9000  58.2977  60.6001  61.7652  61.7652  61.9383  62.5457  62.5457
    63.7628  65.6038  65.6038  65.9115  67.9541  67.9541  68.0636  69.2904
    69.2904  70.5137  71.3542  71.3542  71.9430  73.0768  74.0207  74.0207
    74.8864  74.8864  75.6127  75.6127  76.1406  76.3645  77.1219  77.7792
    77.7792  78.1040  78.1040  78.5451  79.0617  79.9896  80.5802  80.5802
    82.4472  82.4472  84.6547  85.3348  85.3348  85.9068  85.9068  86.8923
    87.0534  87.6160  87.7215  87.7215  88.7565  88.9159  88.9159  90.2416
    90.3616  90.3616  90.6906  91.0465  91.0465  93.5279  93.5279  93.8325
    93.8325  94.0348  94.5845  95.5096  95.9270  95.9270  96.7249  96.7249
    97.7605  97.9568  98.8576  98.8576 101.0808 101.0808 101.7885 101.7885
   102.4553 103.6037 103.6037 103.6154 103.6257 104.3496 104.3496 104.7934
   106.1824 106.1824 106.4931 107.0894 107.0894 108.3798 108.6572 108.6572
   109.1671 109.7096 110.1577 110.1577 112.9893 112.9893 113.9972 114.4794
   114.5577 114.5577 115.4362 115.5146 115.5146 116.3822 117.9683 118.0784
   119.0737 119.0737 119.7041 119.7854 119.7854 120.7142 120.7142 121.6761
   121.6761 122.5322 122.9081 124.0324 124.0324 124.3542 124.3542 124.5848
   124.5848 124.7611 124.9340 124.9340 125.1826 125.8944 125.8944 126.0688
   126.1584 126.1584 126.3919 128.6525 129.2157 129.2157 129.4067 129.5244
   129.5244 130.6007 131.3450 131.3450 131.9545 132.3092 132.3092 132.8082
   132.8082 133.2946 133.8133 133.8133 134.5513 135.0846 135.0846 136.5726
   137.1226 137.2010 137.2010 139.3340 139.4040 140.7156 140.7156 140.8043
   141.9187 141.9187 142.1159 142.4553 142.4711 142.4711 142.7704 142.7704
   142.8934 144.5009 144.5009 144.9312 145.2334 145.2334 145.6977 146.4589
   146.9029 146.9029 148.0556 148.0556 148.7092 150.8594 150.8594 150.8827
   151.0799 151.1557 151.1557 151.5817 151.5817 151.6195 152.1440 152.1440
   153.4016 153.7343 153.7343 155.5651 156.9863 156.9863 159.2625 159.2625
   159.5099 159.9272 160.5522 160.5522 160.8968 161.4032 161.7002 161.7002
   162.7661 162.7661 162.8450 163.7622 164.1081 164.1081 164.5279 164.5279
   164.7541 164.7541 164.8434 165.1680 165.1680 165.3016 165.3149 165.8429
   166.1853 166.8936 166.8936 167.1533 167.1533 167.8653 168.2819 168.2819
   169.0973 169.0973 169.3378 169.3378 169.6199 169.6199 169.7400 170.3487
   172.3744 172.9155 172.9155 173.0477 173.0477 173.0934 173.3033 173.3259
   173.5995 173.5995 173.6472 173.6472 174.9877 174.9994 176.4240 176.4240
   177.6315 178.3451 178.7546 178.7546 180.9217 180.9217 181.2087 181.5209
   181.5209 182.1089 182.1089 182.6291 182.7782 182.7782 183.3445 184.5147
   184.5147 184.7464 185.0092 185.0092 185.2099 185.8821 185.8821 186.5485
   186.6990 186.6990 187.1778 187.1778 188.0893 188.4700 188.4700 188.8406
   189.7602 189.7602 189.8749 189.8749 190.0222 190.2243 190.6860 190.9217
   190.9217 191.9966 193.1145 193.1145 193.6575 194.1627 194.1627 194.9480
   194.9480 195.0358 195.1146 195.1146 195.3337 195.7011 195.7491 195.7491
   196.1555 198.3401 198.5850 198.5850 199.1739 199.1739 199.5471 200.9501
   201.2020 201.4461 201.4461 201.8524 201.8524 201.9627 203.2771 203.2771
   203.2997 203.7001 203.7001 203.7069 207.2401 207.2401 207.4756 207.6385
   207.6385 208.8085 208.8085 209.1252 209.6167 210.4403 210.4403 210.7707
   210.7707 210.8160 211.5592 211.5592 211.7181 211.7859 211.9940 212.2667
   212.2667 212.6082 212.8401 212.8401 213.6188 214.1269 214.1269 214.3135
   214.3135 215.4698 215.4698 216.4778 216.8773 216.8773 217.2428 217.2825
   217.2825 218.0995 218.0995 218.4520 218.8110 218.8110 218.8999 219.3567
   219.3567 219.6260 220.2066 221.5606 221.5606 222.1151 222.1655 222.1655
   222.3263 222.6224 222.6224 223.2466 223.2466 223.4441 224.5676 226.6941
   226.6941 227.2364 227.2364 227.4273 227.4273 227.4441 228.0919 228.0919
   228.4782 228.5189 228.7259 230.5576 230.5576 230.9421 231.2461 231.4091
   231.4091 231.8291 232.5833 232.5833 232.7350 232.7350 233.1202 233.2223
   233.2738 233.9643 233.9643 234.1396 234.1396 234.3546 234.7335 234.7335
   235.3145 235.7377 235.7377 235.8802 236.9739 237.3672 237.3672 238.1410
   238.1410 238.2544 239.9063 239.9356 239.9356 240.4383 240.4383 240.7336
   241.8105 243.0757 243.7432 243.7432 243.9768 243.9768 244.1779 244.2195
   244.2195 244.2867 244.2867 244.3479 244.6376 244.7554 244.7554 244.9850
   245.1401 245.1401 245.2123 245.2123 245.4874 245.4874 245.4969 245.6749
   247.4502 247.6499 247.6499 247.8719 247.8789 247.8789 248.4238 248.4238
   248.6664 248.9149 248.9149 249.5866 249.8807 249.9389 250.0189 250.0189
   250.1256 250.1256 252.3461 252.3461 252.4182 252.4182 252.6921 252.7214
   254.2238 255.6107 255.6474 255.6474 256.3296 256.3296 256.4744 256.7469
   258.3146 258.3146 258.6584 258.6584 258.7212 259.0294 261.3516 261.3516
   261.4937 261.4938 262.9941 263.1383 263.1383 264.1951 265.2803 265.2803
   265.9264 266.1318 266.1318 266.3002 266.3188 266.3188 266.5790 266.5790
   266.6050 266.6050 267.1255 267.1492 268.0728 268.0728 268.0878 268.0878
   268.2028 268.5794 269.3503 269.3503 269.5384 270.0329 270.0386 270.6610
   270.6610 271.6824 271.9542 271.9542 272.0794 272.0794 273.8177 274.0144
   274.0580 274.0580 274.3811 274.3811 275.5772 275.8391 276.7427 276.7427
   276.7576 276.7576 277.0626 277.0626 277.1726 277.2216 277.3870 278.0169
   278.0169 280.0826 280.3187 280.5845 280.5845 281.0927 281.0927 281.5626
   282.5758 282.9078 283.0845 283.0845 283.2176 283.2176 284.2497 284.2497
   284.6360 284.6360 284.7142 284.7142 284.7537 284.7537 285.5935 285.7656
   286.3566 286.4577 287.2611 287.2611 287.5035 287.8285 287.8285 288.0149
   288.0149 288.6762 288.6762 288.9815 289.2450 289.8064 289.8064 290.3845
   290.3845 290.4977 290.5611 290.5611 290.5857 290.7595 290.7595 290.9250
   292.6391 292.6391 292.6867 292.7056 292.7056 292.7616 293.6818 293.6818
   293.7183 293.7183 293.7553 293.8704 295.5965 295.5965 295.8964 296.1395
   296.1395 296.3141 297.9121 298.5477 298.5477 298.7510 298.7510 298.7581
   298.8401 298.8401 298.9212 299.0837 299.1056 299.1056 300.2904 302.1650
   302.5066 302.5066 302.7715 302.7715 302.8726 302.8726 303.1761 303.1761
   303.3018 303.3719 303.7092 303.8555 303.8555 303.9906 303.9906 304.0727
   304.8237 305.6648 305.6648 306.6129 306.6129 307.1557 307.7124 308.1036
   308.1036 308.3815 308.3878 308.3878 308.4399 308.4399 308.5465 308.5805
   308.7237 308.7237 308.9500 309.2726 309.6143 309.8694 309.8694 310.6894
   310.7609 310.7609 311.6642 311.6642 311.7150 311.7150 312.5122 313.0537
   313.1828 313.1828 313.2628 313.2628 313.5453 313.6052 313.6720 313.6720
   313.7262 313.7262 314.5954 315.2130 317.0652 317.0652 317.1655 317.2243
   317.2243 317.4978 322.6938 323.2275 323.2275 323.3232 323.4428 323.4428
   323.5787 323.6258 323.6258 323.6782 323.6782 323.7287 324.4463 324.4463
   324.4599 324.4599 325.2093 325.2093 325.6269 326.6361 326.6361 327.1056
   327.9150 328.8754 328.8754 329.0367 329.0367 329.4257 329.6066 329.6066
   329.7124 329.8034 329.8034 329.9065 330.0684 330.0684 330.1347 330.2177
   330.2177 330.2783 330.3563 330.6176 330.6176 330.7277 330.7277 331.6048
   332.2242 332.2242 332.2473 332.2473 332.2628 332.3198 333.7431 334.0145
   334.0145 334.6796 334.6796 334.6885 335.4997 337.6245 337.9216 337.9216
   338.2342 338.2342 339.3395 339.3395 339.3471 339.3471 339.3556 339.3760
   340.0570 340.0837 340.0837 340.1379 340.1379 340.1514 342.2792 342.3548
   342.5110 342.5110 342.6138 342.6138 342.9633 342.9633 343.0154 343.1326
   343.1326 343.2866 343.2866 343.3233 343.3233 343.4600 343.4954 343.5668
   347.0137 347.0137 347.0584 347.0584 347.5066 347.5581 347.5689 348.4271
   349.3817 349.3817 349.4588 350.3687 350.3687 350.3950 351.1345 351.1345
   351.7472 351.9722 351.9722 352.7180 353.1488 353.1488 353.1827 353.3005
   353.3005 353.3523 353.9467 353.9950 353.9950 354.0495 354.0495 354.2282
   355.4810 355.4810 355.6863 355.8914 355.8914 355.9177 356.0445 356.4083
   356.4083 356.5881 356.5881 357.2584 358.3537 358.3537 358.4545 358.4545
   358.7388 358.9573 360.7238 361.1453 361.2166 361.2166 361.2925 361.2990
   361.2990 361.3193 361.7635 361.7635 361.7838 361.7838 363.1868 363.1868
   363.2038 363.2038 363.3400 363.3750 363.8822 363.9268 363.9269 363.9394
   363.9691 363.9691 364.1617 364.1617 364.2221 364.2221 364.3935 364.4339
   367.2574 367.5941 367.7003 367.7004 367.9456 367.9456 369.7228 369.7228
   369.7874 369.7874 369.9398 370.2443 370.5563 370.5686 370.6047 370.6047
   370.8625 370.8625 370.9863 370.9863 371.3889 371.4015 371.4015 371.6393
   374.5340 375.0610 375.0831 375.0831 375.4900 375.6745 375.6745 375.9983
   376.7101 376.7101 376.7505 376.7505 376.8306 377.0638 377.3898 377.5533
   377.5533 377.7261 377.7261 377.8807 378.4231 378.4231 378.4625 378.4625
   378.8372 379.0911 379.0911 379.2300 379.2300 379.4228 379.4991 379.7494
   379.7494 379.8603 379.8603 379.8943 381.7801 382.2184 382.9468 382.9468
   383.1133 383.2072 383.2072 383.2262 383.9182 383.9182 384.2181 384.2181
   384.3477 384.3477 384.5824 384.5824 384.6108 384.7734 385.3290 385.3290
   385.3783 385.3783 385.3892 385.5471 386.6035 386.6077 386.9330 386.9330
   386.9679 386.9679 389.8371 389.8371 389.8405 389.8405 389.9924 389.9924
   390.1913 390.5378 390.5378 390.6062 390.8038 390.8055 392.9245 393.2309
   393.2309 393.4270 393.4270 393.4715 395.8932 396.5369 396.5369 396.9498
   396.9498 397.7407 398.9092 399.2217 399.9286 399.9286 399.9459 400.2171
   400.2171 400.3766 400.5525 400.5525 400.6670 400.7458 400.7458 401.1095
   401.2281 401.2281 401.2748 401.2748 401.3634 401.3712 401.3712 401.5289
   401.5289 401.5882 401.6227 401.7228 401.7228 401.7452 401.8364 401.8845
   401.8845 402.1650 405.0344 405.0344 405.1514 405.2478 405.2478 405.3931
   405.4664 405.4664 405.4743 405.7046 405.7046 405.7417 406.1953 406.1953
   406.3069 406.3069 406.4159 406.5870 406.6943 406.6943 406.8333 406.8333
   406.9500 407.0189 407.1961 407.4541 407.4541 407.6309 407.6309 407.7205
   410.4394 410.5954 410.5954 410.9956 410.9956 411.1510 411.2365 411.2365
   411.2764 411.2764 411.5931 411.6371 411.6371 411.6510 411.6510 411.6616
   411.8771 412.0023 412.0023 412.2070 412.2070 412.2871 414.0828 414.1497
   414.1497 414.4233 414.4233 414.5266 419.3815 419.3815 419.3916 419.3916
   419.4168 419.4485 422.7778 422.9928 422.9928 423.0951 423.0951 423.2918
   423.2918 423.3619 423.3622 423.3622 423.4490 423.4708 424.4238 424.5222
   424.5861 424.5861 424.8274 424.8274 424.9848 424.9848 425.0886 425.0886
   425.1229 425.2231 427.6173 429.3717 429.3717 429.8615 429.8615 430.6033

          k = 0.0000 0.3333 0.0000 (  2505 PWs)   bands (ev):

   -70.6187 -40.8483 -37.4039 -37.4037 -37.4037  -5.5027   3.2591   4.0906
     4.0906   7.7398   8.6605   9.8937   9.8937  10.4578  13.2851  14.3478
    14.3478  15.4026  16.5788  19.8288  21.3375  21.3375  22.9410  23.4607
    26.5004  26.6876  26.6876  28.9927  31.2915  31.2915  31.8591  32.2793
    32.2793  32.7538  33.2835  34.8608  35.6087  35.6087  36.1409  37.7232
    37.8191  37.8191  37.8539  37.9285  39.5633  39.5633  40.5694  41.3001
    41.3001  42.7210  42.8444  43.4370  43.4370  43.4866  43.7256  44.6795
    47.1546  47.3204  47.3204  48.9544  49.5710  50.2341  50.2341  53.3831
    54.9728  57.5001  58.0031  58.0031  60.0649  60.1402  60.1402  60.8207
    61.9194  61.9194  62.3825  63.3155  64.0758  65.6659  65.7582  65.7582
    66.3119  67.3383  67.3383  68.0173  68.0470  68.3767  68.3767  68.9662
    70.4666  72.1095  72.5097  72.5097  72.7052  72.8132  74.2798  74.2798
    74.6462  75.6843  75.6843  76.0318  76.5477  76.9628  77.2801  77.2801
    77.6186  77.9866  77.9866  78.3868  79.0060  79.8604  79.9416  79.9416
    81.3883  82.1698  82.1698  82.1892  82.8477  83.9393  84.5309  84.7052
    84.7052  84.8809  85.5508  85.5508  85.6599  86.4204  86.4204  86.5890
    88.4748  89.1763  90.7396  90.7396  90.8150  92.3673  92.8498  92.8498
    93.0365  93.8586  94.5386  94.8043  94.8043  96.4691  96.4827  96.4827
    96.5254  97.1141  99.7008  99.7008  99.8198 100.0867 100.3655 100.6257
   100.6257 101.5397 102.2691 102.2691 104.2370 104.7649 104.8131 104.9168
   104.9168 105.7280 105.7280 105.7448 106.4668 107.3121 108.1005 109.3020
   109.3020 110.0594 110.8528 110.8528 110.9351 111.7090 116.3555 116.5025
   116.5025 116.6329 116.8478 116.8478 117.7653 117.9277 118.7801 119.5195
   119.5195 120.2081 120.5383 121.1330 121.4391 121.7617 121.7617 123.2276
   123.4227 123.4227 124.5542 124.7595 124.7595 124.7715 125.8157 125.8209
   125.8209 127.0851 127.5527 127.9878 128.6822 128.6822 128.8331 129.3368
   129.6822 129.7533 129.7533 130.0679 131.0770 131.0770 132.2570 132.2886
   132.2886 132.3816 132.7164 133.1071 133.7991 133.7991 134.2471 134.6058
   134.8612 135.2130 135.2130 136.1115 136.2986 136.4439 136.4439 137.1111
   137.1111 137.4626 138.2714 138.2714 138.2780 138.6954 139.8967 139.8967
   139.8983 140.3514 140.9620 141.6400 141.7836 141.9224 141.9224 143.1582
   143.9243 143.9243 143.9917 144.4324 144.4324 144.5724 144.5840 146.9982
   146.9982 147.1886 147.4684 147.9073 147.9073 147.9158 148.6429 148.7979
   148.8165 148.8165 149.9302 150.6515 150.6515 150.9973 151.2192 151.2192
   151.5226 151.5507 152.4505 152.4505 152.7347 152.9018 153.0914 153.7405
   153.7405 153.8300 153.8762 155.1519 155.9756 155.9756 156.3259 156.4708
   157.2847 157.2847 157.3499 158.6147 159.0779 159.0779 159.7187 159.7687
   160.3369 160.3820 160.3820 161.8679 162.9543 163.7029 164.0157 164.0157
   164.8356 164.8356 165.1141 165.6320 166.1071 168.7163 168.7163 169.5665
   169.6645 169.6645 170.3256 171.4032 171.4032 171.7503 171.9073 172.3126
   172.6069 173.6586 173.6586 174.0745 174.7309 175.0309 175.0309 175.6132
   176.3401 176.5944 176.6912 176.6912 177.1732 177.1830 177.4378 177.4378
   177.9114 177.9114 178.1497 179.7757 180.4162 180.4162 180.4348 181.4888
   182.0240 183.0331 183.0331 184.8949 184.8949 186.6568 186.6568 186.6654
   187.1208 187.3122 187.4765 188.1799 188.7545 188.8921 189.2495 189.2495
   189.8940 189.8940 190.4366 190.4833 190.8268 191.3710 191.7446 191.7446
   192.2601 192.4734 192.4734 193.8969 193.9953 193.9953 194.2605 195.0003
   195.0003 195.3113 195.3968 197.2811 198.2967 198.2967 198.4239 198.4736
   198.6242 199.0647 199.0647 199.2777 199.7823 199.9367 200.1407 200.1407
   200.7592 200.7592 201.5413 201.7608 201.9315 201.9315 202.1070 202.2594
   202.3563 202.4281 202.4281 202.5084 202.8830 202.9092 202.9092 203.3811
   204.2340 204.8309 204.8309 205.1973 205.4249 205.4249 205.9795 206.7966
   206.7966 207.0944 207.8749 208.2041 208.7223 209.0708 209.0708 209.6364
   209.7476 209.7476 209.9604 210.5019 210.8766 211.8060 212.2006 212.2006
   212.2307 212.5289 212.5289 212.7414 212.8195 212.9722 213.0333 213.0333
   213.4903 214.6198 214.6198 214.8769 215.2529 216.2173 216.2173 216.5449
   216.6113 216.6113 216.7727 217.3288 217.6546 217.9593 217.9593 218.0363
   218.3566 218.3566 219.2943 219.3534 219.7275 219.7275 219.8196 220.1527
   220.4837 220.4837 221.1582 221.1724 221.6068 221.6068 221.7328 221.9857
   222.9224 223.2665 223.2665 224.8011 224.9116 224.9116 225.8530 225.8755
   226.1726 226.6768 226.6778 226.6778 226.8670 226.8744 226.8744 227.5155
   227.7006 227.8437 227.9134 227.9134 229.1915 229.4794 229.4794 229.7820
   230.4869 230.4869 230.5035 230.9226 231.2784 231.5876 232.2271 232.2271
   233.1990 233.6409 234.6349 234.6349 235.1122 235.5503 235.5503 236.7685
   236.8457 236.8839 236.8839 237.2521 237.5519 237.6150 237.6150 237.6695
   238.6342 239.9410 240.0716 240.0716 240.6241 240.8495 240.8495 241.0820
   242.0040 243.1773 243.7580 243.7580 243.8339 243.8950 243.8950 244.0563
   244.1682 244.7111 244.7111 244.9650 244.9650 245.3408 245.8119 246.5012
   247.7979 247.9740 247.9740 247.9792 248.6474 248.6474 248.7055 249.0825
   249.1081 249.1081 249.4046 249.4869 252.3387 252.6285 252.6285 252.9792
   253.9289 253.9289 253.9554 254.2703 254.3515 256.1199 256.1199 256.4819
   256.6181 256.7762 256.7762 258.3791 258.6202 259.5969 259.8345 259.8345
   260.2413 260.2413 260.4713 261.4641 262.3096 262.8422 262.8422 263.1765
   263.6714 264.6478 264.6478 264.7249 265.3498 265.4090 265.4090 266.2612
   266.2721 266.3871 266.3871 266.4702 267.2523 267.2544 267.2544 267.5350
   269.1534 269.5156 270.4466 270.4466 270.6032 270.6046 270.9986 270.9986
   271.4923 271.7195 271.8009 271.8009 272.0513 272.3913 272.9801 273.3531
   273.3531 274.2667 274.2667 274.3094 274.6589 274.9230 274.9512 274.9512
   274.9731 275.3505 275.9797 275.9797 276.4083 276.8552 276.9564 276.9783
   276.9783 277.1448 277.1806 277.1806 277.2328 278.0352 278.3595 278.3595
   278.4722 278.5609 280.7831 280.8017 280.8017 281.0606 281.0624 281.1026
   281.1026 281.4813 281.6850 281.7658 281.7658 282.0017 282.2066 282.2066
   282.3735 282.6409 282.7019 282.7385 282.7385 283.1160 285.7554 285.7682
   285.7682 285.8507 285.8507 285.8523 287.1305 287.9994 288.2285 288.2285
   288.7307 289.4154 289.9384 289.9384 289.9688 290.1516 290.1571 290.1571
   290.6340 290.6730 290.6730 290.7563 290.8163 291.1140 293.0710 293.1582
   293.1582 293.2124 294.1319 295.3459 295.3459 295.6949 295.9468 295.9972
   296.1357 296.1357 296.2466 296.7603 296.7603 297.9568 298.3394 298.5012
   299.5389 299.5389 299.6787 300.1861 300.1861 300.3219 300.6605 300.6605
   300.6616 300.7405 301.7201 301.7709 301.7709 302.3948 302.7103 302.7958
   302.7958 303.0018 303.0018 303.1852 303.4054 303.7423 303.7423 303.7515
   303.7913 304.5000 304.5000 304.5654 304.6204 306.4830 306.4830 306.7404
   306.9088 307.6139 307.7497 307.7497 308.2421 308.3527 308.6188 308.6188
   308.8426 309.3421 309.6653 309.7816 309.7816 310.1257 310.1257 310.2749
   310.3151 310.4632 310.4632 310.6813 310.8736 311.3103 311.4856 311.4856
   311.7027 311.8519 312.2956 312.2956 312.6727 312.8992 313.0688 313.0688
   313.2378 313.6879 313.6879 313.7578 313.9155 313.9447 313.9447 314.1007
   314.1350 315.5037 315.5686 315.5686 316.1080 316.1939 316.1939 316.3449
   316.6915 317.5192 318.0281 318.0281 318.5060 319.0813 319.2317 319.2317
   319.2844 320.0216 320.6821 320.6821 320.8887 321.6283 321.6283 321.7832
   321.9361 322.2122 322.5280 322.5280 322.7912 323.3392 323.4027 323.4027
   323.5577 323.9403 323.9886 323.9886 324.3272 325.2359 325.6428 325.6845
   325.6845 326.1480 326.8832 326.9573 326.9573 326.9902 328.4030 328.4030
   328.5477 328.7038 328.7314 328.7314 328.7743 329.6084 329.6728 329.6728
   329.7575 329.9114 330.1197 330.4667 330.4667 332.2037 332.2037 332.2122
   332.7539 333.0155 333.4208 333.4208 333.5109 333.5109 333.7052 333.7596
   333.7596 333.7764 333.8306 333.8910 333.9415 334.4751 334.7419 334.7419
   334.7788 335.2567 335.6057 335.6057 336.0546 336.1036 337.5799 337.5799
   337.8985 338.4530 339.5945 339.7342 339.7342 340.5653 340.6774 340.7167
   340.7167 341.6785 342.4975 343.3068 343.3068 343.8559 343.9291 343.9353
   343.9353 344.2289 344.4354 345.2959 345.2959 345.6630 345.7431 345.8276
   345.8276 346.2373 346.8463 348.1655 348.6402 348.6402 349.2357 349.8121
   349.8121 350.3713 350.5615 350.6079 350.6079 351.2062 351.6223 351.6223
   352.1789 352.7439 352.7439 352.8760 353.0730 353.1546 353.1681 353.1681
   353.2086 355.0042 355.0042 355.1940 355.3609 356.1381 356.2096 356.2096
   356.2470 357.1594 357.5258 357.5258 358.4715 358.5361 358.5361 358.6639
   359.0164 359.0957 359.5176 359.6987 359.6987 361.0113 361.1743 361.2589
   361.2916 361.2916 361.4170 361.4248 361.4255 361.4255 362.0429 362.3971
   362.4184 362.4184 363.5586 363.5586 363.6512 363.6695 363.8921 363.9288
   363.9288 363.9463 364.3198 364.3198 364.6283 364.9219 365.4631 366.0648
   366.0648 366.6664 369.3340 371.7263 371.7263 371.9909 372.2844 372.6397
   372.6416 372.6416 372.9326 373.2463 374.7408 374.7408 374.9040 375.0456
   375.5401 375.5401 375.8201 375.8440 375.8440 376.0249 376.1204 376.2824
   376.4482 376.4482 376.7443 378.2686 378.4857 378.4857 378.6647 378.8942
   379.0340 379.0340 379.2100 379.9745 379.9745 380.1088 380.1088 380.8836
   380.9790 380.9790 381.3335 381.3411 381.4428 381.6754 381.7883 382.4769
   382.4769 382.6008 382.9710 382.9710 383.3008 383.6556 384.0540 384.0540
   384.2990 384.3342 384.6595 384.6663 384.6663 384.9193 386.1169 387.3642
   387.3642 387.9274 389.0386 389.4687 389.5262 389.5262 389.6008 389.7901
   389.7901 390.1561 391.0797 391.3726 391.3726 391.4138 391.5594 391.8733
   391.8733 392.0571 392.1142 392.2714 392.3040 392.3040 392.3895 393.1126
   393.1681 393.1681 393.4051 393.4051 393.5368 393.8275 394.0910 394.1312
   394.1725 394.1725 394.8483 394.8677 395.0278 395.0278 395.5335 395.5335
   395.7275 396.0334 396.0334 396.0612 396.2938 396.3044 396.7033 397.0893
   397.0893 397.1558 397.2933 397.2933 397.3237 397.4684 397.7519 397.7648
   397.7648 398.0406 398.8828 399.0248 399.0248 399.2895 400.1634 400.4411
   400.4411 400.6591 401.5188 401.6419 401.6419 402.0629 402.5118 402.6334
   402.6529 402.6529 402.7755 402.7755 402.8296 402.9200 403.1524 403.8397
   403.8397 404.5978 404.9941 404.9941 404.9976 405.0973 405.3726 405.4832
   405.4832 405.5580 406.1250 406.2129 406.2129 406.2377 406.5826 406.6190
   406.6485 406.6485 406.9112 407.1349 407.1349 407.4236 408.0814 408.3459
   408.4234 408.4234 408.6932 408.6932 408.7319 408.8416 409.3059 410.0029
   410.1930 410.1930 410.5822 410.5822 410.6732 410.8350 412.0755 412.4338
   412.4338 412.5060 413.2154 413.2604 413.2720 413.2720 413.3808 413.4109
   413.4109 413.4485 414.0595 414.1103 414.2247 414.2247 415.2957 415.4389
   415.4389 415.6056 415.7264 416.4264 416.7056 416.7056 417.0024 417.8478
   417.9524 417.9524 418.1357 418.5174 418.7295 418.7295 418.8106 419.9301
   420.2232 420.2232 420.6852 420.9216 420.9216 421.0038 421.2886 421.5764
   421.5803 421.6028 421.6028 421.8172 421.9000 421.9000 421.9629 423.3345
   424.9901 425.1352 425.1352 425.4010 425.7392 426.1910 426.1910 426.4518

          k =-0.1667 0.5000-0.1667 (  2497 PWs)   bands (ev):

   -70.6187 -40.8481 -37.4042 -37.4038 -37.4038  -5.1992   1.9215   3.7165
     3.7363   7.8070   8.9950   9.6868  10.3086  12.1916  13.5338  14.3484
    16.8541  16.9455  17.9061  18.1359  19.3083  21.6113  22.4076  23.1287
    24.3279  26.9904  27.1755  28.2762  29.2151  29.4358  29.9740  31.5860
    31.8854  32.4118  33.2889  33.6034  33.9478  35.2569  35.9876  36.0702
    37.1693  38.7051  38.7721  39.3447  40.4686  40.4728  41.0824  41.4868
    42.0326  42.3325  43.3680  44.4775  46.3006  46.3922  46.6436  47.8892
    49.1755  50.0359  50.5841  50.8700  52.1056  52.8254  52.9359  54.0697
    54.5308  54.6174  55.1262  56.0135  56.4356  58.3069  58.8651  58.9425
    59.6019  59.9288  60.0149  61.1199  62.2795  63.5671  63.9494  64.3253
    64.6343  65.4769  66.0549  66.7375  67.0540  67.6284  68.6832  68.9113
    69.8162  70.3981  71.4779  72.3032  72.6051  72.9879  73.6979  74.5909
    74.6000  74.8381  75.7952  75.8614  76.7493  76.8918  77.1568  77.8400
    78.0513  78.7652  79.2706  79.5113  80.3391  80.9701  81.0201  81.6199
    81.7474  82.4284  82.4904  83.0559  83.7116  84.3955  85.0029  85.1732
    85.5478  86.0295  86.4675  86.8808  87.0593  87.3568  88.5893  89.2921
    89.8203  90.0537  90.4884  90.8753  90.9635  91.7031  92.0087  92.4521
    92.8853  92.9111  94.2024  94.3832  94.8709  96.0946  96.3576  97.1261
    98.6852  98.8311  99.4012  99.6190 100.0883 100.3465 101.1348 102.1056
   102.7053 102.8721 103.7025 104.2749 104.4257 105.1344 105.2409 105.8451
   106.6026 107.0868 107.4476 108.4214 108.7709 109.2851 109.6077 110.4248
   110.5222 111.3689 111.7221 112.7728 112.8407 112.9316 113.4575 113.5072
   114.1085 114.3392 114.5130 115.1645 115.5147 115.5758 116.2719 116.8519
   117.4823 117.7272 118.3266 118.9992 119.1593 119.8903 120.2843 120.5251
   121.0256 121.4388 121.4621 122.2173 122.4024 123.1508 124.0369 124.2227
   124.5651 125.1931 125.4798 126.1306 126.4624 126.5713 127.5384 127.5444
   128.1544 128.6388 128.7043 129.5971 129.7956 130.0902 130.5144 130.5283
   130.8110 131.4968 131.8171 132.1921 133.3771 133.4272 133.9015 134.4703
   134.5394 134.9586 135.0599 135.5316 135.9808 136.7166 137.0999 137.2758
   138.0238 138.6907 139.3325 139.9726 140.0212 140.1420 140.9452 140.9743
   141.5486 141.8008 142.5534 142.9957 142.9984 143.1989 143.4792 143.7808
   143.8627 144.5034 144.6926 145.3285 145.9221 146.0602 146.8266 147.2037
   147.2355 147.6365 148.3432 148.4299 148.6543 148.7246 149.5438 149.9515
   149.9683 150.4383 150.6689 151.3470 151.5050 151.5398 152.1333 152.2402
   152.6694 153.0974 153.7593 153.7648 154.8262 154.8913 155.1751 155.1951
   155.6938 155.9644 156.0507 156.5159 156.6432 157.1635 157.4844 158.0349
   158.8923 159.0459 159.4673 159.5260 160.3828 160.9310 161.1678 161.4960
   162.0109 162.4781 163.3289 163.8021 164.0612 164.1047 164.7192 164.8535
   165.2982 165.3270 166.0411 166.7187 166.7580 167.8430 168.1736 168.3767
   169.2608 169.3385 170.3684 170.5258 170.6809 170.8504 171.4702 171.4960
   171.9161 172.1629 172.6836 173.0202 173.7703 174.7969 175.5355 175.6823
   175.9073 176.1383 176.3115 176.7022 177.0723 177.4887 178.1375 178.1961
   178.8539 179.0108 179.0864 180.0083 180.2641 180.5941 181.6504 182.0055
   182.4325 182.4734 182.9164 183.1866 183.8036 184.4883 184.7771 184.9164
   185.3118 185.7012 186.2195 186.2375 186.7927 186.8105 187.1358 187.6817
   187.7931 188.3041 189.2543 189.7538 189.7838 190.2137 190.2457 190.7210
   191.2652 191.4782 191.6496 191.9477 192.2330 192.9400 192.9809 193.0178
   193.3996 193.4087 193.6679 194.2513 194.7170 194.8363 195.3729 195.6006
   195.7364 196.6460 197.2031 197.2447 197.8073 198.0098 198.0925 198.2113
   198.7892 198.8997 199.3360 200.2488 200.3798 200.7985 201.1097 201.3136
   201.6412 201.8020 202.1255 202.3348 202.4738 202.5657 202.9410 203.4346
   203.9547 204.5788 204.8990 205.0057 205.4069 205.4876 205.9303 205.9629
   206.3103 206.3350 206.5378 206.7330 206.7674 207.9688 208.6860 208.7249
   208.8409 209.2867 209.3216 210.0214 210.3292 210.8911 211.0994 211.3408
   211.5120 212.2469 212.3324 212.3594 212.5166 212.5275 212.6709 212.7396
   213.2972 214.3052 214.9819 215.1900 215.7007 215.8679 216.0593 216.3426
   216.6103 217.1563 217.9694 218.1553 218.6930 219.3648 219.4157 219.5914
   219.7167 220.1241 220.1310 220.3978 220.6790 221.1981 221.6480 221.8611
   222.0909 223.0954 223.2927 223.3118 223.9408 224.0875 224.3363 224.4349
   224.9224 225.9268 226.0019 226.6622 226.7656 226.8484 227.1570 227.2981
   227.5962 227.7947 227.9831 228.2856 228.7069 229.6117 230.4240 230.4922
   230.7143 230.9986 231.0717 231.1998 231.2586 231.5894 231.7323 232.1579
   232.5274 232.7904 232.9353 233.3852 233.5788 233.8013 234.5381 234.8740
   234.9376 235.1445 235.7382 236.0968 236.3034 236.5880 236.7504 236.8806
   237.5931 237.9777 238.1244 238.2960 238.4692 238.6574 238.8548 239.2297
   239.3038 239.4852 239.9207 240.1285 240.6448 240.9324 242.3175 242.3917
   243.2552 243.4633 243.7306 243.7956 244.0441 244.1996 244.7353 245.2710
   245.9979 246.3732 246.5531 246.6200 246.8727 247.6626 248.1884 248.2848
   248.3493 248.6985 249.0561 249.2392 249.4596 249.9922 250.7049 250.9480
   251.0891 251.6832 251.8019 252.2144 252.3457 252.8951 253.1104 253.2502
   253.3021 253.6659 253.8018 253.9891 254.2878 255.2532 255.2681 255.6245
   255.8575 256.2852 256.4058 256.9623 257.0299 257.2437 257.6430 257.6969
   257.8896 258.2062 259.0113 259.2368 259.4592 260.0045 260.3008 260.4624
   260.5079 261.1504 261.2023 261.8000 261.8150 261.9825 262.8613 262.9109
   263.0978 263.4051 263.5159 264.1057 264.1080 264.2043 264.5763 264.6496
   264.9318 265.1860 265.3211 265.3295 266.0269 266.2948 267.5122 267.8499
   269.0740 269.5782 269.7831 270.1557 270.4550 270.8080 271.5524 272.2717
   272.4525 272.7522 273.5260 273.6236 273.7141 273.9140 274.1948 274.6247
   274.8833 275.1924 275.6373 276.0433 276.1446 276.4476 276.5192 276.8533
   276.8656 277.6206 277.8300 278.5206 278.5284 279.0626 280.0880 280.1329
   280.6578 280.7199 280.9120 281.0222 281.1390 281.3650 281.8923 281.8994
   282.0881 282.1714 282.6749 282.8931 282.9584 283.3670 283.6376 284.1186
   284.3129 284.4005 284.4747 284.7415 284.7433 285.0117 285.4439 285.6113
   285.8859 286.1602 286.5219 286.5279 287.0200 287.0970 287.4091 287.6768
   287.8994 288.1561 288.7016 288.8869 289.2701 289.6114 289.9359 290.3377
   290.4318 290.7820 291.0755 291.1034 291.2458 291.2596 291.8628 292.5669
   293.0993 293.1225 293.4372 293.6145 293.6942 294.0402 294.5228 295.0182
   295.2504 295.3742 295.7914 296.3143 296.3910 296.5235 296.8092 296.8682
   297.1872 297.4461 297.6303 297.9305 297.9422 298.3698 298.6004 298.6979
   298.9711 299.2915 299.9327 300.6458 300.7122 301.0707 301.1501 301.2499
   301.6598 301.9124 302.0420 302.9102 302.9468 303.5660 304.0076 304.0306
   304.3788 304.4456 304.7220 304.9034 305.2938 305.3241 305.3646 305.5316
   305.5333 305.8247 306.1900 306.2464 306.4288 306.4491 307.0340 307.2150
   307.7197 307.8526 308.0158 308.2841 308.8207 309.0323 309.2245 309.2481
   309.3714 309.4444 309.8074 310.5861 311.2632 311.4748 311.7661 311.7721
   312.1729 312.5740 312.7098 313.2959 313.4162 313.5173 313.6942 314.2374
   314.3165 314.4240 314.6403 314.6799 314.7808 315.3480 315.3922 315.7668
   315.8054 315.9880 316.3780 316.6794 316.7290 316.9632 317.2189 317.2700
   317.3019 317.4820 317.5134 317.7075 318.3091 318.5033 318.8154 318.8581
   319.1308 319.7901 320.2876 320.3337 321.3923 322.5176 323.1101 323.1342
   323.4994 323.6689 323.6717 323.9344 324.1727 324.2482 324.6898 324.7609
   325.4702 325.8556 326.0989 326.2277 326.4212 326.7674 326.9418 327.4026
   327.5058 327.6488 327.8102 327.9178 327.9488 328.2324 328.2854 328.3159
   328.5744 328.9076 329.0710 329.0925 330.1423 330.3508 330.7044 330.9550
   331.0708 331.4677 331.5103 331.9604 331.9873 332.1592 332.1660 332.9148
   334.8824 334.9551 335.7413 335.8233 335.9266 336.0336 336.2859 336.5173
   336.7951 336.9987 337.5036 337.8192 338.0752 338.4217 338.5100 338.9463
   339.5031 339.5339 339.9132 339.9435 340.2804 340.4367 340.7168 340.7954
   340.8154 340.9867 341.7107 341.9870 342.2671 342.2819 342.8547 342.9975
   343.4253 343.9161 343.9559 344.3056 344.4315 344.6047 344.7626 345.0466
   346.3995 346.4724 347.3574 347.4305 347.9222 348.0620 348.1573 348.6327
   349.1107 349.4538 349.5684 349.8410 350.1965 350.6084 351.1992 351.3650
   351.6064 351.9077 352.1961 352.2083 352.3067 352.3691 352.5508 353.0378
   353.5891 353.8078 353.9194 354.0166 354.2559 354.3419 354.5194 354.6762
   354.7684 354.8219 355.2097 355.3180 355.4923 355.6332 355.8442 355.8757
   356.1262 356.3940 356.8280 356.9123 357.3731 357.4410 357.6393 357.7965
   357.8748 357.9816 358.0835 358.2127 358.8563 359.2284 359.4133 359.8930
   360.0332 360.2958 360.4350 360.4559 360.5978 362.1480 362.1918 362.2380
   362.7418 362.7511 362.9472 363.5012 363.8497 364.4577 364.6543 364.7634
   364.8380 365.3501 365.3891 365.4379 365.6949 366.0984 366.2948 366.4892
   366.7965 367.0951 367.2925 367.3035 367.9195 368.2877 368.5641 368.5672
   369.0354 369.5892 369.9147 370.0308 370.7554 370.8492 370.9030 371.0364
   371.2285 371.2735 371.6136 371.7104 372.7089 373.0075 373.2156 373.2537
   373.6203 373.8156 374.2149 374.2217 374.2560 375.1070 375.2082 375.8889
   376.1059 376.1798 376.3787 377.0216 377.1102 377.3657 377.5763 377.6291
   378.0779 378.4811 378.5695 378.5937 379.2348 379.5748 379.9876 380.1331
   380.2403 380.4613 380.6379 381.2256 381.4752 381.6043 381.7054 381.9290
   381.9304 382.3349 382.5804 382.7802 382.9584 383.0461 383.2142 383.2995
   383.3078 383.6551 384.4643 384.4882 384.6559 384.7264 385.3824 385.5337
   385.6976 386.2469 386.3581 386.8618 386.8751 387.0799 387.8578 388.3471
   388.5170 388.6659 388.6769 389.0830 389.3299 390.1452 390.3371 390.4123
   390.6786 390.8301 390.8958 391.1133 391.2185 391.5400 391.7485 392.3841
   392.5192 392.7379 393.2199 393.2658 393.6031 393.7679 393.9182 394.0648
   394.0940 394.7629 395.0520 395.2565 395.3296 395.8830 395.9184 395.9712
   396.1925 396.3147 396.5134 396.5400 396.6574 396.7681 396.9387 397.0374
   398.0757 398.1203 398.3374 398.4444 398.6175 398.8538 399.0618 399.1344
   399.3963 400.7212 401.3121 401.5819 401.8649 401.8691 402.2236 402.5410
   402.9539 403.3651 403.4694 403.5694 403.8306 403.9287 404.4039 404.7082
   404.7975 404.9396 405.1151 405.1664 405.4138 405.6397 405.8581 406.4918
   406.5022 407.1091 407.1864 407.9323 408.1225 408.1832 408.2696 408.4215
   408.6347 409.4050 409.7343 409.9353 409.9401 410.1654 410.2631 410.2870
   410.4592 410.4729 410.7940 411.0300 411.1213 411.1468 411.5690 412.1269
   412.4223 412.8378 412.9179 413.0675 413.3587 413.6049 414.1056 414.2586
   414.3869 414.6364 414.8151 414.9441 415.1340 415.5245 415.6153 415.7064
   416.1462 416.2404 416.7111 416.7962 417.0474 417.1170 417.2087 417.3083
   417.5154 417.5487 417.7274 417.7603 418.1542 418.2010 418.2735 418.9884
   419.0835 419.1445 419.3333 419.6383 419.9222 420.0074 420.2013 420.5478
   420.6129 420.8063 420.8079 421.0114 421.0965 421.1707 421.6099 421.6561
   421.8241 422.4516 422.6791 422.7783 422.9672 423.0808 424.2706 424.3485
   424.9307 425.1063 425.1213 425.6482 425.6663 425.6928 425.8647 426.0204

          k = 0.6667-0.3333 0.6667 (  2488 PWs)   bands (ev):

   -70.6187 -40.8479 -37.4044 -37.4039 -37.4039  -4.9058   0.9825   3.2543
     3.7131   7.7298   9.2458   9.8634  10.9827  12.9988  14.3507  15.1094
    15.9751  16.0940  18.7845  19.6079  20.4398  22.1468  22.5806  23.6199
    23.8565  25.0843  26.5241  26.5619  26.9631  27.4877  28.9067  29.6486
    30.3657  31.9020  32.0849  34.1102  34.1791  34.7720  35.2911  36.8225
    38.2704  38.2768  39.4081  41.5159  41.6486  42.0458  42.5698  42.8325
    44.4457  44.6152  44.9174  46.3880  46.3890  47.2203  48.2004  48.8433
    48.9339  49.9109  50.4699  51.4400  51.8786  52.4139  53.3742  53.8392
    54.3294  54.5651  55.0816  56.2768  56.3768  56.9032  58.0145  58.1479
    59.1554  59.4250  60.0997  60.9754  61.3144  61.8983  62.1538  63.3739
    63.5650  63.9462  65.3880  65.9645  66.5156  67.0387  67.3253  68.2929
    68.4227  69.6911  70.2096  70.7470  71.7429  72.1613  72.2033  73.5108
    73.9835  74.4812  75.0662  75.6454  75.9166  76.8920  77.1771  78.0188
    78.4170  78.8132  79.5334  79.7292  80.5345  81.3125  81.4733  82.0140
    82.4559  82.6431  82.8841  83.4479  83.9919  84.1820  84.5897  86.2265
    86.3381  87.6917  87.6964  88.6941  88.7896  89.0442  89.4863  90.0878
    90.3727  90.9188  92.0557  93.0047  93.1217  93.5077  94.0970  94.3152
    94.7819  94.9770  95.8538  96.5473  96.8098  96.9653  97.1277  98.1711
    98.4113  98.7804  99.7083 100.0171 100.6753 101.1850 101.3615 101.4555
   101.8600 102.5106 102.8828 103.4118 103.4255 104.7963 105.1546 105.2459
   106.1419 106.2968 106.8581 107.5442 107.6100 107.9621 108.6184 109.1805
   109.7747 110.3902 110.6609 111.0264 111.1713 111.8519 112.1940 112.5990
   113.5930 113.6210 114.2893 114.5174 114.9958 115.2745 116.0772 117.0647
   118.1177 118.2689 118.8850 119.1216 119.5345 119.6413 120.3165 120.3522
   120.8616 121.0680 121.2705 121.8849 122.4858 122.5601 123.0270 123.6606
   124.2830 124.7020 124.9931 125.4859 125.6863 126.1644 127.1955 127.4427
   127.9353 128.0655 128.5202 128.9182 129.2598 129.7782 130.0326 130.2383
   130.9862 131.0799 131.3557 131.4221 132.0168 132.4882 132.9422 133.1977
   133.3364 134.3116 134.7138 134.8062 135.0051 135.2515 135.7323 136.2206
   136.8176 137.3188 137.3817 137.9224 138.4280 138.6043 139.3341 139.9384
   140.2709 140.5511 141.1176 141.3991 141.8021 142.7329 143.4403 144.0599
   144.1009 144.9497 145.2372 145.5617 146.3340 146.7100 147.4381 147.6565
   148.6835 149.2211 149.7574 150.2222 150.3105 150.8703 151.1919 151.3040
   151.7037 151.7215 152.1891 152.2422 152.9136 153.3725 153.4899 153.9527
   154.3687 155.0772 155.2325 155.4183 155.9787 156.0017 156.9376 157.6398
   157.6862 157.8842 157.9033 158.4462 158.5319 158.9674 159.3917 159.6608
   161.3252 161.4654 161.9252 162.0253 162.9870 163.2284 163.5631 163.8029
   164.4450 164.7693 164.8828 165.1103 165.4915 165.7878 166.1402 166.5429
   166.6038 166.8369 167.0242 167.4495 167.7003 167.9065 168.6314 169.2051
   169.2679 169.5485 169.5862 169.8091 170.6637 170.7606 171.1288 171.3929
   172.4386 172.4463 173.2904 173.4040 173.7983 174.1592 174.8147 174.8447
   175.4540 175.4879 175.7647 175.9308 176.3191 176.4298 176.9504 177.4767
   177.6069 178.1320 178.1844 178.6733 179.2129 179.2467 180.3546 180.8233
   181.0270 181.5119 181.8988 182.2378 182.2966 182.5719 182.6446 183.2039
   183.4843 183.7019 184.0255 184.3256 184.7193 184.9633 184.9699 185.5582
   185.8772 185.9576 186.4574 186.7196 187.5053 187.5119 188.4048 188.4793
   188.7219 188.7871 189.5600 190.2291 190.2535 190.6328 191.0280 191.1402
   191.8110 191.9762 192.5434 192.6950 193.3787 193.5073 193.7223 194.8206
   195.1077 196.0769 196.1395 197.0042 197.8259 197.9618 198.2896 198.3601
   198.6929 198.9811 199.1259 199.5232 199.7171 199.8489 199.8965 199.9728
   200.5067 200.5833 201.5913 201.9031 202.0775 202.3721 202.9249 203.1277
   203.4426 203.5985 203.8269 203.9961 204.5865 204.8817 205.2988 205.9542
   206.6252 207.1608 207.2291 207.7868 207.9290 208.1422 208.2033 208.6919
   208.7363 209.0479 209.2008 209.4188 209.7187 210.9899 211.9931 212.0006
   212.3093 212.4115 212.8354 213.2101 213.2371 213.6062 214.4261 214.5642
   215.1863 215.5877 215.7582 215.7971 216.3659 216.5352 216.9920 217.0265
   217.4536 218.2992 218.6346 218.9274 219.4982 219.6367 219.8312 220.1864
   220.7848 221.8163 222.5637 222.7099 222.7435 223.2305 223.3688 223.7380
   223.9289 224.5120 224.5902 224.8644 225.5382 225.6697 225.6820 226.1005
   226.2660 227.1989 227.2717 227.9178 227.9244 228.1180 228.2220 228.7432
   228.8967 228.9383 229.1356 229.4720 229.5660 229.7443 230.2593 230.6308
   230.7011 231.0926 231.2107 231.2997 231.7864 231.9255 232.4637 232.5445
   233.0198 233.3546 233.8303 234.1339 234.4295 234.6695 234.7229 235.0495
   235.2047 235.8336 236.5484 236.6808 236.6842 237.1358 237.3764 237.6715
   238.1789 239.0136 239.0639 239.2582 239.5665 239.7820 240.0819 240.0956
   240.2393 240.6517 240.7509 240.8329 241.2080 241.6324 242.0575 242.9067
   243.1639 243.3437 243.3539 243.7155 244.8980 244.9791 245.2719 245.3314
   245.6180 245.7102 245.8376 246.3957 247.6963 247.8736 248.2327 248.4041
   248.5195 248.6634 248.7040 248.9070 249.2522 249.4492 249.8201 250.2839
[...]
   224.3275 224.6190 225.9435 226.1581 226.9887 227.3558 227.9193 228.0181
   228.1393 228.2353 228.9565 229.6418 230.2920 230.4703 230.5576 231.2168
   231.3409 231.6380 231.8172 232.1892 232.2930 232.8661 233.5446 233.6947
   233.8682 234.0442 235.1572 235.2347 235.4309 235.5825 235.8675 235.9974
   236.2645 236.5833 236.6607 237.2443 237.6491 237.9158 238.2384 238.6911
   238.7369 239.0023 239.3197 239.3350 239.8346 240.0669 240.4493 240.8006
   241.4490 241.6631 242.1241 242.5193 243.2380 243.4796 243.5836 243.7517
   243.9429 244.1761 244.4505 244.9607 245.0890 245.3816 245.4872 245.9119
   246.2431 246.5043 247.1017 247.7154 247.8734 248.4284 248.5549 248.7986
   249.1095 249.2593 249.5343 249.6651 249.7595 250.0601 250.3991 250.5751
   250.8685 251.2600 251.8180 251.9106 253.1987 254.1538 254.6406 254.9669
   255.4568 255.7247 255.9861 256.0439 256.6472 256.7270 256.8029 257.0274
   257.4794 257.5718 257.6152 258.0751 258.4038 258.7503 258.8294 259.1837
   259.3699 259.4755 259.8075 259.9734 260.1584 260.3760 260.6210 260.8560
   261.0099 261.0530 261.4758 261.4774 261.5883 261.9290 262.2323 262.5964
   263.1176 263.3986 263.6312 264.0758 264.5733 265.0697 265.2655 265.3964
   265.7431 265.9437 266.0457 266.1963 267.0039 267.1047 267.2427 267.3363
   267.6425 267.7479 268.7119 268.7778 269.2311 269.4200 269.6458 269.7614
   269.8267 270.3255 270.7356 270.8632 270.9353 271.2991 271.5072 271.6315
   271.7489 271.9103 271.9908 272.0568 272.6139 272.6471 272.8921 273.3577
   273.4695 273.6171 275.0441 275.0775 275.5261 275.9787 276.4672 276.7118
   276.8759 277.6400 277.8052 277.8482 278.0402 278.1649 278.4504 278.4674
   278.5441 278.5597 279.2122 279.5727 280.1861 280.4927 280.5813 280.7863
   281.6404 281.7181 282.1249 282.4416 282.6186 282.8376 283.1200 283.2714
   283.4711 283.8715 283.9527 284.1210 284.8503 284.9743 285.0477 285.2073
   285.6645 285.7317 287.2521 287.4914 287.7927 287.9358 288.5119 288.5583
   288.6917 288.7928 289.3198 289.5229 289.5797 289.9407 290.6551 290.7486
   291.1656 291.5941 291.8293 291.8684 291.9484 292.0680 292.1162 292.3396
   293.0208 293.7210 294.1072 294.6279 295.6369 296.0240 296.3609 296.6662
   296.9048 296.9573 297.2503 297.5140 297.7784 297.8798 298.0481 298.2409
   298.5195 298.6288 299.2869 299.8138 299.9310 300.1044 300.6897 300.7579
   301.1174 301.6643 301.7166 301.9205 302.6627 302.7832 303.0394 303.2613
   304.1556 304.3056 304.5697 304.7251 305.4120 305.7651 306.2583 306.5733
   306.7643 307.1516 307.6527 308.4627 308.7639 308.9778 309.3911 309.5357
   309.9010 310.1627 310.4227 310.6850 311.0007 311.1372 311.4776 311.5632
   311.7087 312.2037 312.3861 312.4595 313.0417 313.0763 313.1150 313.3083
   313.5262 314.3141 314.4715 314.6271 314.7421 314.9111 314.9745 315.1021
   316.6136 316.6608 317.6454 317.9298 318.2803 318.9784 319.2685 319.4061
   319.4710 319.7532 319.8105 319.9018 320.0311 320.3863 320.7027 321.3262
   321.5603 321.5790 321.8436 322.1569 322.3239 322.4340 322.5953 322.6946
   322.8929 322.9850 323.1685 323.3885 323.4353 323.7789 323.9407 324.0675
   324.3199 324.4202 324.5651 324.6918 324.9436 325.0643 325.2608 325.8626
   326.5460 326.7006 327.6201 327.6935 327.9873 328.2178 328.4248 328.5392
   328.6412 328.9730 329.1183 329.3196 329.9703 330.0358 330.1339 330.1966
   330.4386 330.5574 330.9890 331.1179 331.6001 331.8250 331.8781 332.1543
   333.3134 333.4341 334.3828 334.4751 335.1460 335.4223 335.5989 335.9990
   336.0532 336.0866 336.2003 336.2663 336.6764 336.8433 337.1309 337.2022
   338.2374 338.3423 338.4448 339.0451 339.2169 339.3166 339.8662 339.9989
   340.3485 340.5198 340.5942 340.7860 340.8613 341.0852 341.2415 341.4033
   341.5212 341.5739 341.7286 341.9985 342.1031 342.2477 342.4258 343.3477
   343.6498 344.1168 344.3117 344.4382 344.6562 344.7439 344.7912 345.4808
   345.7890 345.9147 346.1772 346.2958 346.3750 346.8599 347.2717 347.8170
   348.0183 348.4293 348.8430 349.1058 349.5674 349.9012 350.0840 350.5474
   350.6524 351.2578 351.3203 351.3909 351.6666 351.7737 352.0170 352.0465
   352.2550 352.4253 352.7355 352.8672 353.1278 353.2543 353.4620 354.0150
   354.0826 354.1766 354.3285 354.5432 354.5480 354.6753 354.8016 354.8413
   355.0059 355.4133 355.4534 355.6720 355.7797 355.8635 355.9942 356.1883
   356.2421 357.3231 358.3928 358.5585 358.5983 358.6680 360.6771 360.7424
   361.2584 361.3362 361.4043 361.7800 361.8663 362.0527 362.7032 363.1839
   363.3399 363.5887 363.7631 364.0435 364.2213 364.3332 364.5171 364.7421
   365.2552 365.6022 365.7303 366.0823 366.2204 366.3312 366.3848 366.7970
   366.8870 367.2081 367.3276 367.4447 367.6077 367.6502 368.6298 368.8139
   369.3747 369.6296 369.6747 370.0637 370.1129 370.4997 370.5585 370.9039
   371.0340 371.0825 371.1335 371.2509 372.1653 372.2788 372.3120 372.8656
   373.0552 373.1785 373.4732 373.5029 373.5762 374.3886 374.5064 374.6811
   374.7394 374.8497 374.9189 375.0843 375.1549 375.2732 375.4589 376.0142
   376.5208 376.8763 376.9698 377.0323 377.0859 377.1898 377.3829 377.9803
   378.2335 378.4385 379.8454 380.1479 380.4027 380.4724 380.9043 380.9446
   381.1513 381.1977 381.2493 381.4487 381.5074 381.8191 381.9056 381.9945
   382.1993 382.5290 383.0307 383.1758 383.3085 383.6544 383.8521 383.9736
   384.1134 384.2565 384.9099 385.1339 385.7627 385.8624 385.8973 386.0403
   386.4612 386.5881 386.8258 386.8778 386.9366 387.0084 387.2159 387.2555
   387.4846 387.5292 388.1955 388.3760 389.1822 389.2519 389.5238 389.5441
   389.9634 389.9865 391.6029 391.6366 391.6773 391.8174 392.6519 392.8276
   393.2087 393.2521 393.3132 393.4298 393.6136 394.0294 394.3381 394.5675
   394.6251 394.9067 395.0548 395.1029 395.4845 395.7404 395.9762 396.4956
   396.5249 396.5939 396.9512 397.0657 397.1397 397.4508 397.4857 397.6491
   397.9697 398.0048 398.0570 398.4585 399.6504 399.9916 400.4513 400.6110
   400.8670 401.1971 402.2885 402.3737 402.8109 402.9785 403.2591 403.3515
   403.4055 403.4599 403.5921 403.8534 403.8827 404.4255 404.7522 404.9568
   405.0589 405.1323 405.9743 406.1072 406.1828 406.2957 406.5732 406.6600
   406.8694 406.9282 407.6822 407.7556 408.5532 408.6990 408.8699 408.9723
   409.3385 409.4538 410.1231 410.1562 410.2535 410.2634 410.4174 410.4592
   410.8781 410.9254 411.4812 411.9712 412.3493 412.4585 412.4852 412.6631
   413.4034 413.6797 413.7426 414.1868 414.8070 415.1384 415.2174 415.3682
   415.6015 415.8080 415.9197 416.1747 416.2354 416.2753 416.3614 416.6357
   417.1344 417.2210 417.2647 418.1674 418.2539 418.5484 418.6118 418.6327
   418.7619 419.0786 419.1755 419.9104 420.2012 421.1672 421.2010 421.4985
   421.6966 422.4251 422.4660 422.6055 422.8205 422.8818 423.1880 423.5652
   423.8609 423.8891 423.9756 424.0992 424.7926 424.8072 425.7160 425.8674
   426.2208 426.3703 427.0297 427.0677 427.0954 427.4615 427.6664 427.9653

          k =-0.3333-1.0000 0.0000 (  2482 PWs)   bands (ev):

   -70.6187 -40.8477 -37.4044 -37.4041 -37.4040  -4.6998   1.3862   2.5296
     2.5598   7.4798   9.0207  10.8764  12.0285  14.0935  14.8667  15.4329
    16.7097  18.0824  18.6422  19.6559  20.2630  20.2954  21.0671  22.2082
    23.4898  24.6286  24.9625  25.4053  26.2199  26.9660  28.9329  29.8386
    30.5458  31.9718  33.1316  33.6592  34.7212  35.5543  35.9200  37.0646
    38.7462  39.5604  39.8017  41.0996  41.1506  41.9281  42.6889  44.1374
    44.2166  44.6140  45.5785  45.9107  46.6787  47.2660  48.8483  48.9474
    49.5810  49.6346  51.0545  51.7294  51.9899  52.9386  53.2734  54.0898
    54.2819  54.4699  56.0199  56.3605  56.7992  57.4913  57.5255  58.2480
    59.1525  59.8152  60.1657  60.7638  60.7870  62.8502  63.4760  63.5121
    64.1134  65.1180  65.3412  65.7563  66.2529  66.4180  67.6724  67.7031
    68.3331  68.3456  68.7673  70.0877  70.6211  70.8440  71.1176  71.3084
    71.7719  71.9740  72.1952  73.3050  73.4535  73.9747  74.4943  75.1141
    75.9899  76.7988  77.9155  79.6615  80.6721  81.7972  81.8502  83.1656
    84.1032  84.7768  84.7971  85.7978  86.5623  87.2252  87.5461  87.9783
    88.2412  88.6816  89.4073  90.3255  90.7108  90.8927  91.3757  91.5075
    91.5239  92.3581  92.6653  93.5870  93.6690  94.7579  94.8093  95.2490
    95.4638  96.3624  96.4383  96.7417  97.0040  97.6245  97.7402  98.3699
    99.4839  99.7613 100.3661 100.5142 101.0941 101.2672 101.5510 101.9582
   102.3188 102.4649 102.7126 103.1298 104.1765 104.7100 104.8759 105.2178
   105.3271 106.1756 107.4897 107.4901 108.0818 108.1111 108.8365 109.1360
   109.8908 110.2700 110.2827 110.4470 111.4861 111.5042 111.8131 112.0023
   112.1687 112.4533 113.1595 113.4957 113.7349 115.1414 115.2191 115.4646
   116.1766 116.3578 116.4966 117.0272 117.2514 117.9621 118.3604 118.8254
   119.5971 119.6081 119.9161 120.2234 120.2692 120.4338 120.7167 120.7710
   122.2181 122.7815 122.9620 123.4395 123.4854 124.6330 125.5930 126.6554
   126.9799 127.7379 128.1432 129.1226 129.7390 130.0806 130.1048 130.5241
   130.6931 130.8286 131.2005 131.5796 132.1286 132.2094 133.9650 134.7031
   135.2423 135.9730 136.1148 136.3081 136.6754 137.3366 137.7546 138.0027
   138.7625 139.4510 139.4739 140.0915 140.4638 141.1362 141.4197 141.5458
   142.2131 142.3283 142.4060 142.6456 142.9766 143.1610 143.8290 143.9336
   144.2454 144.2838 145.5967 146.0707 146.4647 147.0156 147.3566 147.7805
   148.3066 148.5583 149.0506 149.5504 149.7800 149.9878 150.7027 150.8342
   150.9891 151.6274 152.3308 152.4316 152.5419 153.1247 153.4967 153.7112
   154.7113 155.3818 155.6106 156.2208 156.6303 156.9684 157.1452 157.2959
   158.0881 158.5435 158.9367 159.4859 159.7871 159.8551 160.1285 160.7585
   160.9553 161.8601 162.1652 162.3526 162.6915 162.6919 162.7597 163.4721
   164.2080 164.6490 164.6581 164.8895 165.7922 165.8240 166.5282 166.6459
   167.1740 167.4161 167.5113 167.5398 168.8388 169.3416 169.7667 170.1732
   170.4530 170.4968 171.1132 171.6907 171.7938 172.3372 172.4172 172.9719
   173.3316 173.3587 173.6987 173.8502 173.8686 173.9212 174.2740 174.3816
   174.4709 174.7083 174.7452 174.9931 175.3862 175.5995 175.7776 176.0023
   176.3842 176.5791 176.6573 177.2905 177.8066 178.6206 179.1963 179.7866
   179.8788 180.1436 180.8487 180.8703 181.4354 181.6267 183.0853 183.4610
   183.7196 183.8204 184.5735 184.6293 185.1183 185.6168 185.7663 185.8383
   186.2719 186.2991 186.6237 186.7566 187.1408 187.1858 187.8020 187.8094
   188.4835 188.8818 189.1095 189.3960 189.5312 190.1489 190.3153 190.7860
   191.0088 191.3616 191.9034 192.4614 192.9519 193.0461 193.7576 193.8494
   194.3095 194.3290 194.4441 195.0897 195.8730 195.9951 196.2084 196.2845
   197.3716 197.4324 197.7342 197.9242 198.4505 198.9540 199.5582 199.5837
   199.9988 201.0966 202.4079 202.4107 202.8368 203.1221 203.4475 203.4848
   203.8887 204.3387 204.9294 205.1976 205.4486 205.6514 206.3439 206.6136
   206.6984 206.7471 206.9177 207.0563 207.2436 207.3426 208.1137 208.3292
   209.1214 209.6028 209.8053 210.4691 210.7272 210.9517 211.1721 211.4258
   211.5688 211.9045 212.4057 213.6657 213.8706 213.8715 214.2603 214.3625
   214.6531 215.1644 215.4559 215.7601 215.9656 216.0477 216.1105 216.5159
   216.7370 216.9812 218.8993 219.0961 219.1350 219.5117 220.0762 220.1321
   220.3587 221.1279 221.3012 221.5423 221.5822 222.5428 222.5446 223.2275
   223.4251 223.4355 223.8720 224.0702 224.3058 224.5287 224.7380 225.3298
   225.6804 225.7913 225.7960 226.4331 226.8823 226.9969 227.7100 227.7718
   228.0299 228.0467 228.4022 228.4380 228.8992 229.1118 229.3283 229.6500
   230.5616 230.6741 231.7572 232.3739 232.3761 232.9563 233.5782 233.6171
   233.9001 234.1570 234.5119 234.8773 235.6809 235.8328 235.9426 237.2220
   237.3052 238.8014 239.0616 239.0736 239.7359 239.7636 240.1512 240.3916
   240.4518 240.6445 241.6850 241.7834 241.8429 241.9801 242.1102 242.2991
   242.8005 243.0654 243.3640 243.5633 243.9726 244.6774 244.9875 245.0142
   245.3550 245.6342 245.6946 245.7005 246.4577 246.9872 247.0416 247.2874
   247.3723 248.0602 248.5199 248.6978 248.8901 249.2449 249.4909 249.5404
   250.5067 250.5737 250.8657 250.8939 251.2470 251.7361 251.8606 251.8971
   252.3055 252.3418 252.9145 253.3436 253.4425 253.5573 254.0777 254.1057
   254.2525 254.2668 255.0451 255.1409 255.4705 255.6896 255.7517 255.7976
   256.1140 256.8125 257.2447 257.2681 257.5714 258.4407 258.4746 258.5769
   258.6779 258.9183 258.9245 259.2070 259.3016 259.6649 259.6763 259.8553
   259.9796 259.9925 260.7014 260.8171 261.3038 261.4861 261.5955 261.6471
   261.8598 262.1651 262.5222 262.6084 262.6088 262.6968 263.5754 263.7795
   264.2184 264.3606 264.6189 264.7560 265.6256 265.6375 265.7404 265.7506
   265.9320 266.3811 266.8193 266.9322 267.5048 268.0931 268.1765 268.2646
   269.6155 269.7724 270.0362 270.8761 270.9687 270.9853 271.1158 271.3994
   271.6708 271.8288 272.5733 272.6383 273.2651 273.9619 274.2833 274.3325
   274.4505 275.0269 275.3648 275.7114 275.8728 276.1260 276.4657 276.9782
   277.0743 277.2190 277.7359 277.8203 278.0029 278.1191 278.7664 278.8254
   278.8616 278.9513 279.0556 279.1683 279.7130 279.7409 280.2910 280.3198
   280.5557 280.7326 281.5913 282.2549 283.6804 283.9147 284.1249 284.1267
   284.7967 285.0073 285.0711 285.2880 285.5903 285.7358 285.8624 285.8686
   285.9058 285.9600 286.3877 287.3185 287.6645 288.2718 288.3187 288.7328
   288.8697 288.9532 289.0025 289.0057 289.2080 289.2119 289.3036 289.3638
   290.4267 290.7228 290.8958 291.1255 291.3941 291.4222 291.9528 292.4868
   292.5267 293.2487 293.3891 293.4675 294.0066 294.0281 294.3529 294.3584
   295.2023 296.0429 296.1596 296.1851 296.2430 296.4822 296.6544 296.6572
   299.5169 299.5353 299.9750 299.9878 300.1382 300.4468 301.4019 301.4916
   301.8319 302.0638 302.3098 302.3260 302.5882 303.0807 303.6437 303.9903
   304.0445 304.2058 304.9505 304.9941 305.4588 305.4900 305.5472 305.7475
   305.8753 305.9544 305.9908 306.3473 306.6034 306.9573 307.3377 307.4214
   307.8666 308.7013 309.6832 310.3557 310.6183 310.7370 311.2552 311.4156
   311.8631 312.0668 312.7885 313.3783 313.9468 314.0650 314.1025 314.3093
   315.2668 315.2842 315.7612 315.8056 316.2739 316.3070 317.0865 317.2049
   317.3110 317.7168 318.2563 318.2678 318.4182 318.6399 319.1118 319.1171
   319.3338 319.9472 320.5165 320.6876 321.2234 321.4771 321.7404 322.0026
   322.4762 322.5201 322.7454 322.8896 323.1450 323.1912 323.3140 323.3798
   323.7219 323.8588 323.8919 324.3106 325.2168 325.3607 325.8113 325.9943
   326.6737 326.8462 327.3712 327.5117 327.5902 327.7558 328.0147 328.4704
   328.7356 328.9224 328.9992 329.1754 329.3815 329.5080 330.1300 330.4984
   330.7567 331.0471 331.0929 331.1330 331.2229 331.2770 331.3888 331.4206
   331.5617 331.6115 331.8533 332.0553 332.2432 332.2974 332.4093 332.6612
   334.2758 334.4625 334.5221 334.5653 335.3304 335.3485 335.8991 336.0173
   336.3354 336.3414 336.6482 336.8072 336.8256 336.9086 337.0012 337.1011
   337.7506 337.7764 337.8838 338.1023 338.2616 338.2772 338.4619 339.1502
   339.4712 339.6455 339.7363 339.7863 339.8017 340.2605 340.3817 340.7439
   340.7676 340.8331 340.8433 340.8625 340.9736 341.0960 341.3834 342.1545
   342.2164 342.3366 342.3617 342.5502 343.5158 343.8346 343.8673 343.8785
   343.9481 344.3232 344.6065 345.0022 346.9667 346.9992 347.2776 347.4463
   347.9771 348.1320 348.2931 348.3669 348.6031 348.8792 348.8912 349.0171
   349.0497 349.1956 350.0118 350.0645 350.4114 350.5008 350.6334 350.7382
   352.5852 352.5907 353.1804 353.4663 353.5427 353.8309 354.0628 354.2690
   354.7258 355.1299 355.3169 355.3987 355.4409 355.5238 355.7513 355.9421
   356.0750 356.0890 356.1871 357.0685 357.6072 357.7037 358.1506 358.1845
   358.5145 358.9370 359.0068 359.0098 359.1676 359.2548 359.3736 359.4381
   359.4891 359.5238 359.7624 359.9636 360.0961 360.1414 361.1545 361.5543
   361.7493 361.8768 361.9218 362.1001 362.2554 362.3205 362.5355 362.6854
   363.7816 364.0898 364.4087 364.8428 365.2108 365.3890 365.7333 365.8104
   366.0701 366.1533 366.3295 366.5448 367.0556 367.1194 367.3459 367.3846
   367.5905 367.6999 367.7414 368.0239 368.6211 368.7684 368.9273 368.9365
   371.1450 371.2471 371.3820 371.5586 371.6377 371.6918 372.1792 372.3720
   374.0196 374.3282 374.6556 374.7297 374.7970 374.8509 374.9453 375.0597
   375.2740 375.3614 375.5566 375.6814 375.9676 376.3514 376.7783 376.9144
   377.2780 377.3222 378.4290 378.5370 378.5898 378.6898 378.9004 378.9234
   379.7316 379.7697 380.0987 380.1192 380.1947 380.3354 380.7366 380.7604
   381.0561 381.2997 381.6072 381.7091 381.9752 382.0665 382.2351 382.5246
   383.6455 383.6590 383.9280 384.0871 384.4056 384.5735 384.6810 384.7337
   384.9218 385.0186 385.2957 385.3685 385.5151 385.6430 385.6776 385.9037
   386.5402 386.6507 386.6894 386.8042 386.9218 387.4989 387.7757 388.1437
   388.2335 388.3594 388.8147 389.0693 389.2935 389.3839 390.1867 390.2343
   390.4228 390.4648 390.4895 390.5595 390.6143 390.9504 391.2857 391.6310
   391.8251 391.9153 391.9302 392.0356 392.1679 392.3240 392.4682 392.8323
   393.3615 393.6692 394.2407 394.4731 395.9670 395.9790 396.1155 396.1189
   396.3462 396.4705 396.4834 396.5532 396.6879 396.8876 398.5018 398.5408
   399.1532 399.2126 400.0797 400.3629 400.5779 400.7007 401.8925 401.9157
   401.9570 401.9828 402.3473 402.3873 402.7120 402.7224 403.0160 403.1396
   403.6198 403.8560 404.1638 404.3292 404.5573 404.5907 404.7014 404.8165
   405.3714 405.6582 405.7456 405.8195 405.9605 406.2212 406.3005 406.6877
   406.8742 406.9361 407.0626 407.0746 407.4742 407.4777 407.5296 407.6071
   408.6068 408.6091 408.8008 408.9608 409.0624 409.2368 410.9111 410.9276
   411.1030 411.1951 411.2545 411.2876 411.3232 411.3698 412.3222 413.0352
   413.1457 413.5163 413.7608 413.8847 414.4829 414.6156 415.0770 415.7234
   415.7284 415.9156 416.3682 416.6729 416.6864 416.7893 416.9948 417.0779
   417.3283 417.4823 417.7867 417.8215 417.8954 417.8989 418.0787 418.3111
   418.9929 419.1496 419.2545 419.2732 419.5743 419.8044 419.8248 420.0804
   420.5603 420.8315 422.8205 422.9546 423.1728 423.3176 423.4349 423.9156
   426.2823 426.4565 426.7074 426.8095 426.9091 426.9121 427.3497 427.3897
   427.7477 427.8266 427.9358 427.9473 428.0295 428.0454 428.1070 428.1727

     the Fermi energy is     5.6959 ev
     (compare with:     5.8920 eV, computed in scf)

     Writing all to output data dir out/mp-12558.save/
 
     init_run     :      0.02s CPU      0.03s WALL (       1 calls)
     electrons    :    391.48s CPU    416.13s WALL (       1 calls)

     Called by init_run:
     wfcinit      :      0.00s CPU      0.00s WALL (       1 calls)
     potinit      :      0.01s CPU      0.01s WALL (       1 calls)
     hinit0       :      0.01s CPU      0.01s WALL (       1 calls)

     Called by electrons:
     c_bands      :    391.47s CPU    416.10s WALL (       1 calls)
     v_of_rho     :      0.00s CPU      0.00s WALL (       1 calls)

     Called by c_bands:
     init_us_2    :      0.00s CPU      0.00s WALL (       8 calls)
     init_us_2:cp :      0.00s CPU      0.00s WALL (       8 calls)
     paro_k       :    379.12s CPU    402.67s WALL (       8 calls)

     Called by paro_*:
     h_psi        :      8.94s CPU      9.46s WALL (     867 calls)
     g_psi        :      0.18s CPU      0.21s WALL (   83369 calls)

     Called by h_psi:
     h_psi:calbec :      0.24s CPU      0.25s WALL (     867 calls)
     vloc_psi     :      8.48s CPU      8.97s WALL (     867 calls)
     add_vuspsi   :      0.14s CPU      0.15s WALL (     867 calls)

     General routines
     calbec       :      0.23s CPU      0.25s WALL (     867 calls)
     fft          :      0.00s CPU      0.00s WALL (      10 calls)
     fftw         :      7.59s CPU      8.03s WALL (  136558 calls)
 
     Parallel routines
 
     PWSCF        :   6m32.13s CPU   6m57.10s WALL

 
   This run was terminated on:   2:21:14   5Dec2023            

=------------------------------------------------------------------------------=
   JOB DONE.
=------------------------------------------------------------------------------=
