
     Program PWSCF v.7.1 starts on 14Dec2023 at 18:11:45 

     This program is part of the open-source Quantum ESPRESSO suite
     for quantum simulation of materials; please cite
         "P. Giannozzi et al., J. Phys.:Condens. Matter 21 395502 (2009);
         "P. Giannozzi et al., J. Phys.:Condens. Matter 29 465901 (2017);
         "P. Giannozzi et al., J. Chem. Phys. 152 154105 (2020);
          URL http://www.quantum-espresso.org", 
     in publications or presentations arising from this work. More details at
     http://www.quantum-espresso.org/quote

     Parallel version (MPI), running on    24 processors

     MPI processes distributed on     1 nodes
     121429 MiB available memory on the printing compute node when the environment starts
 
     Reading input from pw_mp-22913_scf_k3000_E76.in
Warning: card &CELL ignored
Warning: card / ignored

     Current dimensions of program PWSCF are:
     Max number of different atomic species (ntypx) = 10
     Max number of k-points (npk) =  40000
     Max angular momentum in pseudopotentials (lmaxx) =  4
 
     K-points division:     npool     =       2
     R & G space division:  proc/nbgrp/npool/nimage =      12
     Subspace diagonalization in iterative solution of the eigenvalue problem:
     a serial algorithm will be used

 
     Parallelization info
     --------------------
     sticks:   dense  smooth     PW     G-vecs:    dense   smooth      PW
     Min          99      99     32                 2274     2274     421
     Max         100     100     33                 2276     2276     423
     Sum        1189    1189    385                27301    27301    5065
 
     Using Slab Decomposition
 


     bravais-lattice index     =            7
     lattice parameter (alat)  =       7.6264  a.u.
     unit-cell volume          =     305.3698 (a.u.)^3
     number of atoms/cell      =            2
     number of atomic types    =            2
     number of electrons       =        26.00
     number of Kohn-Sham states=           26
     kinetic-energy cutoff     =      76.0000  Ry
     charge density cutoff     =     304.0000  Ry
     scf convergence threshold =      1.0E-10
     mixing beta               =       0.7000
     number of iterations used =            8  plain     mixing
     Exchange-correlation= PBE
                           (   1   4   3   4   0   0   0)

     celldm(1)=   7.626426  celldm(2)=   0.000000  celldm(3)=   1.376870
     celldm(4)=   0.000000  celldm(5)=   0.000000  celldm(6)=   0.000000

     crystal axes: (cart. coord. in units of alat)
               a(1) = (   0.500000  -0.500000   0.688435 )  
               a(2) = (   0.500000   0.500000   0.688435 )  
               a(3) = (  -0.500000  -0.500000   0.688435 )  

     reciprocal axes: (cart. coord. in units 2 pi/alat)
               b(1) = (  1.000000 -1.000000  0.000000 )  
               b(2) = (  0.000000  1.000000  0.726285 )  
               b(3) = ( -1.000000  0.000000  0.726285 )  


     PseudoPot. # 1 for Br read from file:
     /usr/scratch4/magr4985/MG/HTDF/pseudo/SG15/Br.upf
     MD5 check sum: 5b50323dbf1c0ae0ed9e7f1e72c3f86c
     Pseudo is Norm-conserving, Zval =  7.0
     Generated using ONCVPSP code by D. R. Hamann
     Using radial grid of  602 points,  6 beta functions with: 
                l(1) =   0
                l(2) =   0
                l(3) =   1
                l(4) =   1
                l(5) =   2
                l(6) =   2

     PseudoPot. # 2 for Cu read from file:
     /usr/scratch4/magr4985/MG/HTDF/pseudo/SG15/Cu.upf
     MD5 check sum: 80213f8971cc881d9b4c24e0a73cd931
     Pseudo is Norm-conserving, Zval = 19.0
     Generated using ONCVPSP code by D. R. Hamann
     Using radial grid of  602 points,  6 beta functions with: 
                l(1) =   0
                l(2) =   0
                l(3) =   1
                l(4) =   1
                l(5) =   2
                l(6) =   2

     atomic species   valence    mass     pseudopotential
        Br             7.00    79.90400     Br( 1.00)
        Cu            19.00    63.54600     Cu( 1.00)

      8 Sym. Ops. (no inversion) found



   Cartesian axes

     site n.     atom                  positions (alat units)
         1           Cu  tau(   1) = (   0.5000000   0.0000000   1.0326525  )
         2           Br  tau(   2) = (   0.0000000   0.0000000   0.0000000  )

     number of k points=   163  Gaussian smearing, width (Ry)=  0.0005

     Number of k-points >= 100: set verbosity='high' to print them.

     Dense  grid:    27301 G-vectors     FFT dimensions: (  45,  45,  45)

     Estimated max dynamical RAM per process >      14.47 MB

     Estimated total dynamical RAM >     340.55 MB

     Initial potential from superposition of free atoms

     starting charge      25.9635, renormalised to      26.0000
     Starting wfcs are random

     total cpu time spent up to now is        0.8 secs

     Self-consistent Calculation

     iteration #  1     ecut=    76.00 Ry     beta= 0.70
     Davidson diagonalization with overlap
     ethr =  1.00E-02,  avg # of iterations = 10.7

     Threshold (ethr) on eigenvalues was too large:
     Diagonalizing with lowered threshold

     Davidson diagonalization with overlap
     ethr =  7.22E-04,  avg # of iterations =  2.2

     total cpu time spent up to now is        8.3 secs

     total energy              =    -392.11653001 Ry
     estimated scf accuracy    <       0.20340453 Ry

     iteration #  2     ecut=    76.00 Ry     beta= 0.70
     Davidson diagonalization with overlap
     ethr =  7.82E-04,  avg # of iterations =  2.0

     total cpu time spent up to now is       10.0 secs

     total energy              =    -392.07567820 Ry
     estimated scf accuracy    <       0.60416995 Ry

     iteration #  3     ecut=    76.00 Ry     beta= 0.70
     Davidson diagonalization with overlap
     ethr =  7.82E-04,  avg # of iterations =  2.0

     total cpu time spent up to now is       11.6 secs

     total energy              =    -392.21499139 Ry
     estimated scf accuracy    <       0.01257249 Ry

     iteration #  4     ecut=    76.00 Ry     beta= 0.70
     Davidson diagonalization with overlap
     ethr =  4.84E-05,  avg # of iterations =  5.7

     total cpu time spent up to now is       13.8 secs

     total energy              =    -392.21856172 Ry
     estimated scf accuracy    <       0.00019386 Ry

     iteration #  5     ecut=    76.00 Ry     beta= 0.70
     Davidson diagonalization with overlap
     c_bands:  1 eigenvalues not converged
     c_bands:  1 eigenvalues not converged
     c_bands:  1 eigenvalues not converged
     c_bands:  1 eigenvalues not converged
     c_bands:  2 eigenvalues not converged
     c_bands:  1 eigenvalues not converged
     c_bands:  1 eigenvalues not converged
     c_bands:  1 eigenvalues not converged
     c_bands:  1 eigenvalues not converged
     c_bands:  1 eigenvalues not converged
     c_bands:  1 eigenvalues not converged
     c_bands:  1 eigenvalues not converged
     c_bands:  1 eigenvalues not converged
     ethr =  7.46E-07,  avg # of iterations = 10.3

     total cpu time spent up to now is       17.5 secs

     total energy              =    -392.21878946 Ry
     estimated scf accuracy    <       0.00018872 Ry

     iteration #  6     ecut=    76.00 Ry     beta= 0.70
     Davidson diagonalization with overlap
     ethr =  7.26E-07,  avg # of iterations =  3.1

     total cpu time spent up to now is       19.3 secs

     total energy              =    -392.21880769 Ry
     estimated scf accuracy    <       0.00001000 Ry

     iteration #  7     ecut=    76.00 Ry     beta= 0.70
     Davidson diagonalization with overlap
     ethr =  3.84E-08,  avg # of iterations =  3.1

     total cpu time spent up to now is       21.1 secs

     total energy              =    -392.21881074 Ry
     estimated scf accuracy    <       0.00000857 Ry

     iteration #  8     ecut=    76.00 Ry     beta= 0.70
     Davidson diagonalization with overlap
     ethr =  3.30E-08,  avg # of iterations =  1.7

     total cpu time spent up to now is       22.6 secs

     total energy              =    -392.21881184 Ry
     estimated scf accuracy    <       0.00000016 Ry

     iteration #  9     ecut=    76.00 Ry     beta= 0.70
     Davidson diagonalization with overlap
     c_bands:  1 eigenvalues not converged
     c_bands:  1 eigenvalues not converged
     c_bands:  1 eigenvalues not converged
     ethr =  6.02E-10,  avg # of iterations =  5.6

     total cpu time spent up to now is       25.0 secs

     total energy              =    -392.21881194 Ry
     estimated scf accuracy    <       0.00000014 Ry

     iteration # 10     ecut=    76.00 Ry     beta= 0.70
     Davidson diagonalization with overlap
     c_bands:  1 eigenvalues not converged
     ethr =  5.20E-10,  avg # of iterations =  2.2

     total cpu time spent up to now is       26.8 secs

     total energy              =    -392.21881197 Ry
     estimated scf accuracy    <          1.0E-09 Ry

     iteration # 11     ecut=    76.00 Ry     beta= 0.70
     Davidson diagonalization with overlap
     ethr =  4.00E-12,  avg # of iterations =  2.8

     total cpu time spent up to now is       28.5 secs

     total energy              =    -392.21881197 Ry
     estimated scf accuracy    <          2.1E-10 Ry

     iteration # 12     ecut=    76.00 Ry     beta= 0.70
     Davidson diagonalization with overlap
     ethr =  7.99E-13,  avg # of iterations =  2.0

     total cpu time spent up to now is       30.2 secs

     End of self-consistent calculation

     Number of k-points >= 100: set verbosity='high' to print the bands.

     the Fermi energy is     7.5961 ev

!    total energy              =    -392.21881197 Ry
     estimated scf accuracy    <          1.2E-12 Ry
     smearing contrib. (-TS)   =      -0.00000000 Ry
     internal energy E=F+TS    =    -392.21881197 Ry

     The total energy is F=E-TS. E is the sum of the following terms:
     one-electron contribution =    -326.62648362 Ry
     hartree contribution      =     170.44650239 Ry
     xc contribution           =     -40.21705863 Ry
     ewald contribution        =    -195.82177211 Ry

     convergence has been achieved in  12 iterations

     Writing all to output data dir out/mp-22913.save/
 
     init_run     :      0.52s CPU      0.62s WALL (       1 calls)
     electrons    :     28.27s CPU     29.40s WALL (       1 calls)

     Called by init_run:
     wfcinit      :      0.47s CPU      0.54s WALL (       1 calls)
     potinit      :      0.02s CPU      0.02s WALL (       1 calls)
     hinit0       :      0.02s CPU      0.04s WALL (       1 calls)

     Called by electrons:
     c_bands      :     24.97s CPU     25.98s WALL (      13 calls)
     sum_band     :      3.23s CPU      3.34s WALL (      13 calls)
     v_of_rho     :      0.05s CPU      0.05s WALL (      13 calls)
     mix_rho      :      0.01s CPU      0.01s WALL (      13 calls)

     Called by c_bands:
     init_us_2    :      0.21s CPU      0.22s WALL (    2214 calls)
     init_us_2:cp :      0.21s CPU      0.22s WALL (    2214 calls)
     cegterg      :     22.50s CPU     23.24s WALL (    1066 calls)

     Called by *egterg:
     cdiaghg      :      3.85s CPU      3.93s WALL (    5305 calls)
     h_psi        :     17.12s CPU     17.79s WALL (    5469 calls)
     g_psi        :      0.10s CPU      0.10s WALL (    4321 calls)

     Called by h_psi:
     h_psi:calbec :      0.39s CPU      0.41s WALL (    5469 calls)
     vloc_psi     :     16.35s CPU     17.00s WALL (    5469 calls)
     add_vuspsi   :      0.30s CPU      0.31s WALL (    5469 calls)

     General routines
     calbec       :      0.38s CPU      0.40s WALL (    5469 calls)
     fft          :      0.02s CPU      0.04s WALL (     130 calls)
     ffts         :      0.00s CPU      0.00s WALL (      13 calls)
     fftw         :     17.57s CPU     18.24s WALL (  195536 calls)
 
     Parallel routines
 
     PWSCF        :     28.96s CPU     30.50s WALL

 
   This run was terminated on:  18:12:16  14Dec2023            

=------------------------------------------------------------------------------=
   JOB DONE.
=------------------------------------------------------------------------------=
