
     Program PWSCF v.7.1 starts on 20Nov2023 at  0:26:39 

     This program is part of the open-source Quantum ESPRESSO suite
     for quantum simulation of materials; please cite
         "P. Giannozzi et al., J. Phys.:Condens. Matter 21 395502 (2009);
         "P. Giannozzi et al., J. Phys.:Condens. Matter 29 465901 (2017);
         "P. Giannozzi et al., J. Chem. Phys. 152 154105 (2020);
          URL http://www.quantum-espresso.org", 
     in publications or presentations arising from this work. More details at
     http://www.quantum-espresso.org/quote

     Parallel version (MPI), running on    24 processors

     MPI processes distributed on     1 nodes
     123400 MiB available memory on the printing compute node when the environment starts
 
     Reading input from pw_mp-2472_scf_k3000_E95.in
Warning: card &CELL ignored
Warning: card / ignored

     Current dimensions of program PWSCF are:
     Max number of different atomic species (ntypx) = 10
     Max number of k-points (npk) =  40000
     Max angular momentum in pseudopotentials (lmaxx) =  4
 
     K-points division:     npool     =       2
     R & G space division:  proc/nbgrp/npool/nimage =      12
     Subspace diagonalization in iterative solution of the eigenvalue problem:
     a serial algorithm will be used

 
     Parallelization info
     --------------------
     sticks:   dense  smooth     PW     G-vecs:    dense   smooth      PW
     Min         104     104     30                 2426     2426     386
     Max         106     106     31                 2428     2428     389
     Sum        1261    1261    367                29123    29123    4645
 
     Using Slab Decomposition
 


     bravais-lattice index     =            2
     lattice parameter (alat)  =       9.7653  a.u.
     unit-cell volume          =     232.8067 (a.u.)^3
     number of atoms/cell      =            2
     number of atomic types    =            2
     number of electrons       =        16.00
     number of Kohn-Sham states=           16
     kinetic-energy cutoff     =      95.0000  Ry
     charge density cutoff     =     380.0000  Ry
     scf convergence threshold =      1.0E-10
     mixing beta               =       0.7000
     number of iterations used =            8  plain     mixing
     Exchange-correlation= PBE
                           (   1   4   3   4   0   0   0)

     celldm(1)=   9.765290  celldm(2)=   0.000000  celldm(3)=   0.000000
     celldm(4)=   0.000000  celldm(5)=   0.000000  celldm(6)=   0.000000

     crystal axes: (cart. coord. in units of alat)
               a(1) = (  -0.500000   0.000000   0.500000 )  
               a(2) = (   0.000000   0.500000   0.500000 )  
               a(3) = (  -0.500000   0.500000   0.000000 )  

     reciprocal axes: (cart. coord. in units 2 pi/alat)
               b(1) = ( -1.000000 -1.000000  1.000000 )  
               b(2) = (  1.000000  1.000000  1.000000 )  
               b(3) = ( -1.000000  1.000000 -1.000000 )  


     PseudoPot. # 1 for O  read from file:
     /usr/scratch4/magr4985/MG/HTDF/pseudo/SG15/O.upf
     MD5 check sum: e36c48deb68f4e355fffe4602be2c42c
     Pseudo is Norm-conserving, Zval =  6.0
     Generated using ONCVPSP code by D. R. Hamann
     Using radial grid of  602 points,  4 beta functions with: 
                l(1) =   0
                l(2) =   0
                l(3) =   1
                l(4) =   1

     PseudoPot. # 2 for Sr read from file:
     /usr/scratch4/magr4985/MG/HTDF/pseudo/SG15/Sr.upf
     MD5 check sum: 3f9bc8d6f3e8472da0cbe0e6a3044a9f
     Pseudo is Norm-conserving, Zval = 10.0
     Generated using ONCVPSP code by D. R. Hamann
     Using radial grid of  602 points,  6 beta functions with: 
                l(1) =   0
                l(2) =   0
                l(3) =   1
                l(4) =   1
                l(5) =   2
                l(6) =   2

     atomic species   valence    mass     pseudopotential
        O              6.00    15.99940     O ( 1.00)
        Sr            10.00    87.62000     Sr( 1.00)

     48 Sym. Ops., with inversion, found



   Cartesian axes

     site n.     atom                  positions (alat units)
         1           Sr  tau(   1) = (  -0.5000000   0.5000000   0.5000000  )
         2           O   tau(   2) = (   0.0000000   0.0000000   0.0000000  )

     number of k points=    72  Gaussian smearing, width (Ry)=  0.0005
                       cart. coord. in units 2pi/alat
        k(    1) = (   0.0000000   0.0000000   0.0000000), wk =   0.0011574
        k(    2) = (  -0.0833333   0.0833333  -0.0833333), wk =   0.0092593
        k(    3) = (  -0.1666667   0.1666667  -0.1666667), wk =   0.0092593
        k(    4) = (  -0.2500000   0.2500000  -0.2500000), wk =   0.0092593
        k(    5) = (  -0.3333333   0.3333333  -0.3333333), wk =   0.0092593
        k(    6) = (  -0.4166667   0.4166667  -0.4166667), wk =   0.0092593
        k(    7) = (   0.5000000  -0.5000000   0.5000000), wk =   0.0046296
        k(    8) = (   0.0000000   0.1666667   0.0000000), wk =   0.0069444
        k(    9) = (  -0.0833333   0.2500000  -0.0833333), wk =   0.0277778
        k(   10) = (  -0.1666667   0.3333333  -0.1666667), wk =   0.0277778
        k(   11) = (  -0.2500000   0.4166667  -0.2500000), wk =   0.0277778
        k(   12) = (  -0.3333333   0.5000000  -0.3333333), wk =   0.0277778
        k(   13) = (   0.5833333  -0.4166667   0.5833333), wk =   0.0277778
        k(   14) = (   0.5000000  -0.3333333   0.5000000), wk =   0.0277778
        k(   15) = (   0.4166667  -0.2500000   0.4166667), wk =   0.0277778
        k(   16) = (   0.3333333  -0.1666667   0.3333333), wk =   0.0277778
        k(   17) = (   0.2500000  -0.0833333   0.2500000), wk =   0.0277778
        k(   18) = (   0.1666667  -0.0000000   0.1666667), wk =   0.0138889
        k(   19) = (   0.0000000   0.3333333   0.0000000), wk =   0.0069444
        k(   20) = (  -0.0833333   0.4166667  -0.0833333), wk =   0.0277778
        k(   21) = (  -0.1666667   0.5000000  -0.1666667), wk =   0.0277778
        k(   22) = (  -0.2500000   0.5833333  -0.2500000), wk =   0.0277778
        k(   23) = (   0.6666667  -0.3333333   0.6666667), wk =   0.0277778
        k(   24) = (   0.5833333  -0.2500000   0.5833333), wk =   0.0277778
        k(   25) = (   0.5000000  -0.1666667   0.5000000), wk =   0.0277778
        k(   26) = (   0.4166667  -0.0833333   0.4166667), wk =   0.0277778
        k(   27) = (   0.3333333   0.0000000   0.3333333), wk =   0.0138889
        k(   28) = (   0.0000000   0.5000000   0.0000000), wk =   0.0069444
        k(   29) = (  -0.0833333   0.5833333  -0.0833333), wk =   0.0277778
        k(   30) = (  -0.1666667   0.6666667  -0.1666667), wk =   0.0277778
        k(   31) = (   0.7500000  -0.2500000   0.7500000), wk =   0.0277778
        k(   32) = (   0.6666667  -0.1666667   0.6666667), wk =   0.0277778
        k(   33) = (   0.5833333  -0.0833333   0.5833333), wk =   0.0277778
        k(   34) = (   0.5000000   0.0000000   0.5000000), wk =   0.0138889
        k(   35) = (   0.0000000   0.6666667   0.0000000), wk =   0.0069444
        k(   36) = (  -0.0833333   0.7500000  -0.0833333), wk =   0.0277778
        k(   37) = (   0.8333333  -0.1666667   0.8333333), wk =   0.0277778
        k(   38) = (   0.7500000  -0.0833333   0.7500000), wk =   0.0277778
        k(   39) = (   0.6666667  -0.0000000   0.6666667), wk =   0.0138889
        k(   40) = (   0.0000000   0.8333333   0.0000000), wk =   0.0069444
        k(   41) = (   0.9166667  -0.0833333   0.9166667), wk =   0.0277778
        k(   42) = (   0.8333333   0.0000000   0.8333333), wk =   0.0138889
        k(   43) = (   0.0000000  -1.0000000   0.0000000), wk =   0.0034722
        k(   44) = (  -0.1666667   0.3333333   0.0000000), wk =   0.0277778
        k(   45) = (  -0.2500000   0.4166667  -0.0833333), wk =   0.0555556
        k(   46) = (  -0.3333333   0.5000000  -0.1666667), wk =   0.0555556
        k(   47) = (   0.5833333  -0.4166667   0.7500000), wk =   0.0555556
        k(   48) = (   0.5000000  -0.3333333   0.6666667), wk =   0.0277778
        k(   49) = (  -0.1666667   0.5000000   0.0000000), wk =   0.0277778
        k(   50) = (  -0.2500000   0.5833333  -0.0833333), wk =   0.0555556
        k(   51) = (   0.6666667  -0.3333333   0.8333333), wk =   0.0555556
        k(   52) = (   0.5833333  -0.2500000   0.7500000), wk =   0.0555556
        k(   53) = (   0.5000000  -0.1666667   0.6666667), wk =   0.0555556
        k(   54) = (   0.4166667  -0.0833333   0.5833333), wk =   0.0555556
        k(   55) = (   0.3333333   0.0000000   0.5000000), wk =   0.0277778
        k(   56) = (  -0.1666667   0.6666667  -0.0000000), wk =   0.0277778
        k(   57) = (   0.7500000  -0.2500000   0.9166667), wk =   0.0555556
        k(   58) = (   0.6666667  -0.1666667   0.8333333), wk =   0.0555556
        k(   59) = (   0.5833333  -0.0833333   0.7500000), wk =   0.0555556
        k(   60) = (   0.5000000   0.0000000   0.6666667), wk =   0.0277778
        k(   61) = (   0.8333333  -0.1666667   1.0000000), wk =   0.0277778
        k(   62) = (   0.7500000  -0.0833333   0.9166667), wk =   0.0555556
        k(   63) = (   0.6666667   0.0000000   0.8333333), wk =   0.0277778
        k(   64) = (  -0.1666667  -1.0000000  -0.0000000), wk =   0.0138889
        k(   65) = (   0.6666667  -0.3333333   1.0000000), wk =   0.0277778
        k(   66) = (   0.5833333  -0.2500000   0.9166667), wk =   0.0555556
        k(   67) = (   0.5000000  -0.1666667   0.8333333), wk =   0.0277778
        k(   68) = (   0.6666667  -0.1666667   1.0000000), wk =   0.0277778
        k(   69) = (   0.5833333  -0.0833333   0.9166667), wk =   0.0555556
        k(   70) = (   0.5000000   0.0000000   0.8333333), wk =   0.0277778
        k(   71) = (  -0.3333333  -1.0000000   0.0000000), wk =   0.0138889
        k(   72) = (  -0.5000000  -1.0000000   0.0000000), wk =   0.0069444

     Dense  grid:    29123 G-vectors     FFT dimensions: (  45,  45,  45)

     Estimated max dynamical RAM per process >       5.31 MB

     Estimated total dynamical RAM >     120.37 MB

     Initial potential from superposition of free atoms

     starting charge      15.7183, renormalised to      16.0000
     Starting wfcs are random

     total cpu time spent up to now is        0.4 secs

     Self-consistent Calculation

     iteration #  1     ecut=    95.00 Ry     beta= 0.70
     Davidson diagonalization with overlap
     ethr =  1.00E-02,  avg # of iterations =  8.0

     total cpu time spent up to now is        1.6 secs

     total energy              =     -94.28051683 Ry
     estimated scf accuracy    <       0.39308114 Ry

     iteration #  2     ecut=    95.00 Ry     beta= 0.70
     Davidson diagonalization with overlap
     ethr =  2.46E-03,  avg # of iterations =  2.0

     total cpu time spent up to now is        2.1 secs

     total energy              =     -94.24724383 Ry
     estimated scf accuracy    <       1.15782246 Ry

     iteration #  3     ecut=    95.00 Ry     beta= 0.70
     Davidson diagonalization with overlap
     ethr =  2.46E-03,  avg # of iterations =  2.0

     total cpu time spent up to now is        2.6 secs

     total energy              =     -94.47241248 Ry
     estimated scf accuracy    <       0.01380303 Ry

     iteration #  4     ecut=    95.00 Ry     beta= 0.70
     Davidson diagonalization with overlap
     ethr =  8.63E-05,  avg # of iterations =  1.9

     total cpu time spent up to now is        3.1 secs

     total energy              =     -94.47479002 Ry
     estimated scf accuracy    <       0.00010414 Ry

     iteration #  5     ecut=    95.00 Ry     beta= 0.70
     Davidson diagonalization with overlap
     ethr =  6.51E-07,  avg # of iterations =  4.8

     total cpu time spent up to now is        3.6 secs

     total energy              =     -94.47481279 Ry
     estimated scf accuracy    <       0.00000309 Ry

     iteration #  6     ecut=    95.00 Ry     beta= 0.70
     Davidson diagonalization with overlap
     ethr =  1.93E-08,  avg # of iterations =  1.7

     total cpu time spent up to now is        4.1 secs

     total energy              =     -94.47481323 Ry
     estimated scf accuracy    <       0.00000155 Ry

     iteration #  7     ecut=    95.00 Ry     beta= 0.70
     Davidson diagonalization with overlap
     ethr =  9.70E-09,  avg # of iterations =  1.1

     total cpu time spent up to now is        4.5 secs

     total energy              =     -94.47481345 Ry
     estimated scf accuracy    <          2.0E-09 Ry

     iteration #  8     ecut=    95.00 Ry     beta= 0.70
     Davidson diagonalization with overlap
     ethr =  1.27E-11,  avg # of iterations =  2.2

     total cpu time spent up to now is        5.0 secs

     total energy              =     -94.47481345 Ry
     estimated scf accuracy    <          1.1E-10 Ry

     iteration #  9     ecut=    95.00 Ry     beta= 0.70
     Davidson diagonalization with overlap
     ethr =  6.75E-13,  avg # of iterations =  1.8

     total cpu time spent up to now is        5.5 secs

     End of self-consistent calculation

          k = 0.0000 0.0000 0.0000 (  3695 PWs)   bands (ev):

   -24.6559  -7.2884  -6.3026  -6.3026  -6.3026   7.7325   7.7325   7.7325
    11.6313  13.9597  13.9597  13.9597  16.0992  16.0992  20.2224  30.8533

          k =-0.0833 0.0833-0.0833 (  3650 PWs)   bands (ev):

   -24.6474  -7.4790  -6.3080  -6.3080  -6.1333   7.5167   7.6453   7.6453
    11.9573  13.8747  14.0937  14.0937  16.2787  16.2787  20.6819  30.1500

          k =-0.1667 0.1667-0.1667 (  3656 PWs)   bands (ev):

   -24.6241  -7.8476  -6.3227  -6.3227  -5.8233   7.0259   7.4204   7.4204
    12.7674  13.7474  14.4802  14.4802  16.7722  16.7722  21.8555  28.4744

          k =-0.2500 0.2500-0.2500 (  3647 PWs)   bands (ev):

   -24.5920  -8.2180  -6.3426  -6.3426  -5.5331   6.4843   7.1398   7.1398
    13.6836  13.8745  15.0670  15.0670  17.4775  17.4775  23.1670  26.9903

          k =-0.3333 0.3333-0.3333 (  3651 PWs)   bands (ev):

   -24.5596  -8.5210  -6.3621  -6.3621  -5.3104   6.0241   6.8836   6.8836
    13.9011  14.8838  15.7432  15.7432  18.2917  18.2917  23.3649  25.5181

          k =-0.4167 0.4167-0.4167 (  3639 PWs)   bands (ev):

   -24.5356  -8.7179  -6.3763  -6.3763  -5.1724   5.7203   6.7087   6.7087
    14.1364  15.7118  16.3117  16.3117  19.1086  19.1086  22.6753  23.8564

          k = 0.5000-0.5000 0.5000 (  3648 PWs)   bands (ev):

   -24.5268  -8.7860  -6.3815  -6.3815  -5.1258   5.6145   6.6470   6.6470
    14.2487  16.0362  16.5376  16.5376  19.5522  19.5522  22.3450  23.1047

          k = 0.0000 0.1667 0.0000 (  3655 PWs)   bands (ev):

   -24.6446  -7.5154  -6.3265  -6.3265  -6.0750   7.3350   7.6984   7.6984
    12.0230  13.6252  14.2516  14.2516  16.1928  16.4737  20.8249  30.3434

          k =-0.0833 0.2500-0.0833 (  3651 PWs)   bands (ev):

   -24.6263  -7.7762  -6.3525  -6.3391  -5.8568   6.9559   7.5427   7.5890
    12.5925  13.3930  14.5843  14.6516  16.4609  16.9493  21.7454  28.7142

          k =-0.1667 0.3333-0.1667 (  3642 PWs)   bands (ev):

   -24.5972  -8.1055  -6.3788  -6.3520  -5.6146   6.5454   7.2388   7.3620
    13.3594  13.4855  15.0483  15.2365  17.0385  17.5846  23.0460  26.8398

          k =-0.2500 0.4167-0.2500 (  3649 PWs)   bands (ev):

   -24.5649  -8.4054  -6.3985  -6.3748  -5.4097   6.1715   6.9422   7.0955
    13.5548  14.4400  15.6675  15.8910  17.8445  18.2721  23.5590  25.5693

          k =-0.3333 0.5000-0.3333 (  3650 PWs)   bands (ev):

   -24.5382  -8.6234  -6.4063  -6.4032  -5.2672   5.8863   6.7488   6.8618
    13.9028  15.1429  16.3900  16.4265  18.7654  18.9597  22.6656  23.9774

          k = 0.5833-0.4167 0.5833 (  3654 PWs)   bands (ev):

   -24.5243  -8.7293  -6.4292  -6.4004  -5.1969   5.7372   6.6930   6.7114
    14.1954  15.4438  16.6333  16.9075  19.4378  19.5399  21.9432  23.2123

          k = 0.5000-0.3333 0.5000 (  3652 PWs)   bands (ev):

   -24.5273  -8.7101  -6.4451  -6.3823  -5.2027   5.7547   6.6720   6.7740
    14.1810  15.4240  16.3970  16.8492  19.3063  19.4484  22.0270  23.5893

          k = 0.4167-0.2500 0.4167 (  3645 PWs)   bands (ev):

   -24.5461  -8.5686  -6.4455  -6.3567  -5.2869   5.9430   6.7506   6.9697
    13.9109  14.9943  15.8154  16.3709  18.6001  18.7126  22.9049  24.4051

          k = 0.3333-0.1667 0.3333 (  3646 PWs)   bands (ev):

   -24.5757  -8.3241  -6.4286  -6.3304  -5.4479   6.2797   6.9343   7.2365
    13.6483  14.1543  15.1367  15.7647  17.6690  18.0123  23.5911  25.2890

          k = 0.2500-0.0833 0.2500 (  3654 PWs)   bands (ev):

   -24.6078  -8.0124  -6.3960  -6.3104  -5.6752   6.7172   7.1877   7.5005
    13.1968  13.5665  14.5626  15.1179  16.9193  17.3019  22.6081  26.9273

          k = 0.1667-0.0000 0.1667 (  3657 PWs)   bands (ev):

   -24.6340  -7.6939  -6.3515  -6.3021  -5.9359   7.1789   7.4511   7.6589
    12.3998  13.6807  14.1998  14.5266  16.4336  16.6830  21.3699  28.9253

          k = 0.0000 0.3333 0.0000 (  3651 PWs)   bands (ev):

   -24.6138  -7.8439  -6.3914  -6.3914  -5.7905   6.6972   7.6320   7.6320
    12.7868  12.9007  15.0522  15.0522  16.4617  17.3427  22.3404  28.5675

          k =-0.0833 0.4167-0.0833 (  3634 PWs)   bands (ev):

   -24.5899  -8.0270  -6.4289  -6.4202  -5.6942   6.4693   7.4817   7.5328
    12.6600  13.3815  15.5631  15.6230  16.8079  17.8229  23.4450  26.7372

          k =-0.1667 0.5000-0.1667 (  3627 PWs)   bands (ev):

   -24.5608  -8.2488  -6.4552  -6.4503  -5.5896   6.3098   7.1834   7.3313
    12.7435  14.2086  16.0805  16.2379  17.4820  18.3273  23.9517  25.5001

          k =-0.2500 0.5833-0.2500 (  3634 PWs)   bands (ev):

   -24.5343  -8.4416  -6.4996  -6.4634  -5.4867   6.1938   6.9143   7.0954
    13.1256  14.9025  16.5849  16.7227  18.3766  18.9226  22.6112  24.2226

          k = 0.6667-0.3333 0.6667 (  3646 PWs)   bands (ev):

   -24.5175  -8.5635  -6.5569  -6.4514  -5.3995   6.0736   6.8211   6.8886
    13.6972  15.0611  16.9139  17.0226  19.1359  19.6599  21.5193  23.5054

          k = 0.5833-0.2500 0.5833 (  3649 PWs)   bands (ev):

   -24.5153  -8.5950  -6.6001  -6.4224  -5.3445   5.9820   6.7561   6.9106
    14.1732  14.8445  16.6871  17.0386  19.2919  20.1157  21.2476  23.8085

          k = 0.5000-0.1667 0.5000 (  3647 PWs)   bands (ev):

   -24.5281  -8.5351  -6.6093  -6.3839  -5.3380   5.9909   6.7228   7.1028
    14.0006  14.8144  16.1135  16.6285  19.0017  19.5443  21.8353  24.0663

          k = 0.4167-0.0833 0.4167 (  3637 PWs)   bands (ev):

   -24.5525  -8.3984  -6.5737  -6.3459  -5.3927   6.1268   6.7952   7.3191
    13.6487  14.4532  15.4486  16.2525  18.4219  18.5213  23.1061  24.4067

          k = 0.3333 0.0000 0.3333 (  3641 PWs)   bands (ev):

   -24.5816  -8.2118  -6.4959  -6.3190  -5.5113   6.3806   6.9611   7.4766
    13.4855  13.8014  14.8979  15.8003  17.4618  17.9251  23.6887  24.8941

          k = 0.0000 0.5000 0.0000 (  3615 PWs)   bands (ev):

   -24.5720  -8.0215  -6.4792  -6.4792  -5.7825   6.4258   7.5916   7.5916
    12.1530  13.6175  16.1796  16.1796  16.8661  18.0563  24.3524  26.6965

          k =-0.0833 0.5833-0.0833 (  3623 PWs)   bands (ev):

   -24.5482  -8.0916  -6.5267  -6.5165  -5.8419   6.4567   7.4661   7.5191
    11.9976  14.1990  16.6988  16.7519  17.2980  18.3115  24.4465  25.5187

          k =-0.1667 0.6667-0.1667 (  3626 PWs)   bands (ev):

   -24.5248  -8.1984  -6.6134  -6.5312  -5.8131   6.5349   7.1947   7.3470
    12.2182  14.9131  16.8415  17.1570  18.0593  18.9099  22.6428  24.4943

          k = 0.7500-0.2500 0.7500 (  3637 PWs)   bands (ev):

   -24.5082  -8.3009  -6.7264  -6.5197  -5.7059   6.5348   7.0067   7.1341
    12.7558  15.2745  16.7968  17.3503  18.7485  19.9216  21.2858  23.8833

          k = 0.6667-0.1667 0.6667 (  3639 PWs)   bands (ev):

   -24.5029  -8.3777  -6.8035  -6.4850  -5.5745   6.3473   6.9375   7.0731
    13.4912  14.9406  16.8507  17.1636  19.0644  20.5224  21.1117  23.8991

          k = 0.5833-0.0833 0.5833 (  3638 PWs)   bands (ev):

   -24.5103  -8.4222  -6.8020  -6.4356  -5.4616   6.1682   6.8001   7.2102
    14.1807  14.4018  16.6148  16.6332  19.0852  20.6025  21.2632  23.5808

          k = 0.5000 0.0000 0.5000 (  3635 PWs)   bands (ev):

   -24.5285  -8.4308  -6.7158  -6.3846  -5.3959   6.0880   6.7488   7.3081
    13.8859  14.5870  15.9729  16.3891  18.8993  19.6715  21.8168  24.1923

          k = 0.0000 0.6667 0.0000 (  3631 PWs)   bands (ev):

   -24.5305  -7.9784  -6.5661  -6.5661  -6.1128   6.6374   7.5969   7.5969
    11.5566  14.4700  17.3265  17.3904  17.3904  18.1653  24.1080  25.2759

          k =-0.0833 0.7500-0.0833 (  3635 PWs)   bands (ev):

   -24.5124  -7.9341  -6.6807  -6.5916  -6.2150   6.8333   7.4884   7.5433
    11.5204  14.9936  17.3457  17.5638  18.0076  18.6947  22.6213  24.5719

          k = 0.8333-0.1667 0.8333 (  3652 PWs)   bands (ev):

   -24.4988  -7.9626  -6.8947  -6.5866  -6.0772   6.9764   7.2358   7.3843
    11.8809  15.5662  16.7142  17.8315  18.4340  19.8822  21.3002  24.1402

          k = 0.7500-0.0833 0.7500 (  3645 PWs)   bands (ev):

   -24.4934  -8.0758  -7.0059  -6.5524  -5.8627   6.7759   7.1719   7.2087
    12.5539  15.5325  16.4674  17.7608  18.6931  20.4877  21.2668  23.7905

          k = 0.6667-0.0000 0.6667 (  3627 PWs)   bands (ev):

   -24.4976  -8.2518  -6.9578  -6.4973  -5.6449   6.4449   6.9616   7.2484
    13.4086  14.8844  16.6202  17.2360  18.9547  20.3283  22.5322  22.6083

          k = 0.0000 0.8333 0.0000 (  3631 PWs)   bands (ev):

   -24.5003  -7.7052  -6.6576  -6.6291  -6.6291   7.0686   7.6249   7.6249
    11.1808  15.1907  17.7121  17.9692  18.3698  18.3698  22.1153  24.3209

          k = 0.9167-0.0833 0.9167 (  3631 PWs)   bands (ev):

   -24.4919  -7.5830  -7.0395  -6.6346  -6.4523   7.2204   7.5096   7.5708
    11.2739  15.5348  17.2832  17.9306  18.5709  19.3610  21.3149  24.0946

          k = 0.8333 0.0000 0.8333 (  3642 PWs)   bands (ev):

   -24.4893  -7.7404  -7.1462  -6.6068  -6.1722   7.1902   7.2692   7.4030
    11.7656  15.9749  16.3818  18.2796  18.3213  20.5368  20.7351  23.9091

          k = 0.0000-1.0000 0.0000 (  3612 PWs)   bands (ev):

   -24.4893  -7.2555  -7.2172  -6.6521  -6.6521   7.2889   7.6399   7.6399
    11.0531  15.4665  17.8666  17.9342  18.7585  18.7585  21.2746  23.9830

          k =-0.1667 0.3333 0.0000 (  3652 PWs)   bands (ev):

   -24.6052  -7.9797  -6.4196  -6.3421  -5.6963   6.6294   7.3333   7.5803
    13.1374  13.1440  14.9001  15.2700  16.7610  17.4727  22.7418  26.9106

          k =-0.2500 0.4167-0.0833 (  3640 PWs)   bands (ev):

   -24.5761  -8.2234  -6.4796  -6.3553  -5.5350   6.3410   7.0595   7.4224
    13.1559  13.9148  15.3672  15.9004  17.4002  18.0730  23.8238  25.0418

          k =-0.3333 0.5000-0.1667 (  3645 PWs)   bands (ev):

   -24.5467  -8.4414  -6.5161  -6.3843  -5.4085   6.1173   6.8397   7.1808
    13.4359  14.6633  15.9749  16.3986  18.2966  18.7068  22.9959  24.5225

          k = 0.5833-0.4167 0.7500 (  3640 PWs)   bands (ev):

   -24.5251  -8.5893  -6.5291  -6.4172  -5.3305   5.9697   6.7414   6.9483
    13.8867  14.9927  16.5615  16.8313  19.0497  19.4794  21.8368  23.7457

          k = 0.5000-0.3333 0.6667 (  3658 PWs)   bands (ev):

   -24.5171  -8.6415  -6.5297  -6.4331  -5.3043   5.9168   6.7623   6.8099
    14.1856  14.9480  16.7803  17.1030  19.3794  19.8798  21.3844  23.5987

          k =-0.1667 0.5000 0.0000 (  3629 PWs)   bands (ev):

   -24.5660  -8.1374  -6.5115  -6.4313  -5.6769   6.3743   7.3044   7.5268
    12.4607  13.9191  16.0494  16.2269  17.2155  18.2137  24.4194  24.9334

          k =-0.2500 0.5833-0.0833 (  3633 PWs)   bands (ev):

   -24.5399  -8.2694  -6.5796  -6.4658  -5.6334   6.3485   7.0586   7.3899
    12.6043  14.5932  16.5076  16.6227  17.9499  18.7596  23.1140  24.6997

          k = 0.6667-0.3333 0.8333 (  3631 PWs)   bands (ev):

   -24.5184  -8.3827  -6.6316  -6.5100  -5.5679   6.3278   6.8966   7.1807
    13.0532  14.9963  16.6868  17.0601  18.6739  19.6142  21.7246  23.9487

          k = 0.5833-0.2500 0.7500 (  3641 PWs)   bands (ev):

   -24.5075  -8.4508  -6.6825  -6.5153  -5.5017   6.2460   6.9138   6.9882
    13.6978  14.7513  16.9170  17.1994  19.1560  20.3912  20.9466  23.8320

          k = 0.5000-0.1667 0.6667 (  3643 PWs)   bands (ev):

   -24.5102  -8.4628  -6.7091  -6.4788  -5.4555   6.1693   6.8248   7.0898
    14.0522  14.4689  16.8023  16.9390  19.1272  20.4630  21.0938  23.6909

          k = 0.4167-0.0833 0.5833 (  3638 PWs)   bands (ev):

   -24.5258  -8.4209  -6.6825  -6.4253  -5.4433   6.1541   6.7904   7.2688
    13.5566  14.7083  16.3905  16.4813  18.7910  19.6574  21.8233  24.1564

          k = 0.3333 0.0000 0.5000 (  3643 PWs)   bands (ev):

   -24.5499  -8.3358  -6.5988  -6.3783  -5.4712   6.2089   6.8774   7.4002
    13.2181  14.4124  15.8113  16.2979  18.1737  18.6655  23.1700  24.4611

          k =-0.1667 0.6667-0.0000 (  3637 PWs)   bands (ev):

   -24.5273  -8.0888  -6.6023  -6.5688  -5.9337   6.5934   7.3279   7.5206
    11.9011  14.7053  16.9142  17.3065  17.7096  18.6969  23.1271  24.8361

          k = 0.7500-0.2500 0.9167 (  3639 PWs)   bands (ev):

   -24.5089  -8.1170  -6.7266  -6.6236  -5.8843   6.7236   7.1195   7.4004
    12.1817  15.2178  16.6457  17.6861  18.2984  19.6176  21.7417  24.1130

          k = 0.6667-0.1667 0.8333 (  3638 PWs)   bands (ev):

   -24.4980  -8.1725  -6.8620  -6.6148  -5.7603   6.6507   7.0914   7.2095
    12.7737  15.1672  16.5399  17.7901  18.8164  20.6751  20.8224  23.7864

          k = 0.5833-0.0833 0.7500 (  3637 PWs)   bands (ev):

   -24.4976  -8.2563  -6.9027  -6.5653  -5.6274   6.4431   7.0014   7.2080
    13.5572  14.5528  16.6297  17.5220  19.0060  20.3948  21.7668  23.2079

          k = 0.5000 0.0000 0.6667 (  3637 PWs)   bands (ev):

   -24.5078  -8.3506  -6.8305  -6.4939  -5.5171   6.2681   6.8494   7.2783
    13.9474  14.3153  16.5251  16.9662  18.9882  20.5862  21.3648  23.4881

          k = 0.8333-0.1667 1.0000 (  3637 PWs)   bands (ev):

   -24.4992  -7.8319  -6.8491  -6.6681  -6.2259   7.0364   7.3681   7.5405
    11.5460  15.4016  16.9485  17.9710  18.3426  19.3833  21.6648  24.0706

          k = 0.7500-0.0833 0.9167 (  3644 PWs)   bands (ev):

   -24.4912  -7.8369  -7.0465  -6.6869  -6.0474   7.0505   7.2309   7.4200
    11.9594  15.7574  16.2492  18.2979  18.5474  20.4146  20.8756  23.6411

          k = 0.6667 0.0000 0.8333 (  3649 PWs)   bands (ev):

   -24.4906  -8.0118  -7.0490  -6.6444  -5.8322   6.7544   7.2206   7.2577
    12.6744  15.2179  16.3574  18.1276  18.7358  20.3784  21.6192  23.1967

          k =-0.1667-1.0000-0.0000 (  3634 PWs)   bands (ev):

   -24.4889  -7.5353  -7.1813  -6.6921  -6.3165   7.2789   7.3715   7.5524
    11.4251  15.7177  16.7985  18.0970  18.7624  19.7822  20.9882  23.7426

          k = 0.6667-0.3333 1.0000 (  3628 PWs)   bands (ev):

   -24.5188  -8.2738  -6.7000  -6.5390  -5.6379   6.4229   6.9364   7.3774
    12.7971  14.8823  16.4793  17.1087  18.4567  19.6845  21.8553  24.1919

          k = 0.5833-0.2500 0.9167 (  3641 PWs)   bands (ev):

   -24.5033  -8.2661  -6.7821  -6.6292  -5.6206   6.4496   6.9574   7.2686
    13.2866  14.6586  16.5146  17.5906  18.8717  20.5225  21.1892  23.5341

          k = 0.5000-0.1667 0.8333 (  3630 PWs)   bands (ev):

   -24.4976  -8.2607  -6.8099  -6.6700  -5.6111   6.4413   7.0758   7.1331
    13.9196  14.0423  16.6378  17.7679  19.0940  20.5352  21.2375  23.4883

          k = 0.6667-0.1667 1.0000 (  3652 PWs)   bands (ev):

   -24.4963  -8.0407  -6.8434  -6.7732  -5.8272   6.7683   7.1105   7.3873
    12.5013  15.1624  16.3036  18.2676  18.5787  20.4059  21.1656  23.4502

          k = 0.5833-0.0833 0.9167 (  3646 PWs)   bands (ev):

   -24.4905  -8.0280  -6.9508  -6.8044  -5.7385   6.6546   7.2189   7.2831
    13.1174  14.5199  16.3451  18.4384  18.9198  20.4018  21.5958  22.8910

          k = 0.5000 0.0000 0.8333 (  3640 PWs)   bands (ev):

   -24.4931  -8.1231  -6.9131  -6.7496  -5.6685   6.5433   7.1164   7.2858
    13.8049  13.9144  16.4372  18.1721  18.9672  20.3475  22.0804  22.6151

          k =-0.3333-1.0000 0.0000 (  3652 PWs)   bands (ev):

   -24.4882  -7.8426  -7.0820  -6.7997  -5.8937   6.8765   7.2666   7.3957
    12.3978  15.2619  16.1230  18.6583  18.7702  20.5310  21.0224  23.0903

          k =-0.5000-1.0000 0.0000 (  3676 PWs)   bands (ev):

   -24.4878  -7.9554  -6.9430  -6.9430  -5.7211   6.6450   7.2938   7.2938
    13.7392  13.7392  16.2875  18.7741  18.9861  20.3386  22.1508  22.1508

     the Fermi energy is    10.0530 ev

!    total energy              =     -94.47481345 Ry
     estimated scf accuracy    <          6.2E-11 Ry
     smearing contrib. (-TS)   =      -0.00000000 Ry
     internal energy E=F+TS    =     -94.47481345 Ry

     The total energy is F=E-TS. E is the sum of the following terms:
     one-electron contribution =     -18.77831248 Ry
     hartree contribution      =      17.46209382 Ry
     xc contribution           =     -15.91468533 Ry
     ewald contribution        =     -77.24390946 Ry

     convergence has been achieved in   9 iterations

     Writing all to output data dir out/mp-2472.save/
 
     init_run     :      0.20s CPU      0.25s WALL (       1 calls)
     electrons    :      4.55s CPU      5.10s WALL (       1 calls)

     Called by init_run:
     wfcinit      :      0.14s CPU      0.17s WALL (       1 calls)
     potinit      :      0.01s CPU      0.01s WALL (       1 calls)
     hinit0       :      0.02s CPU      0.05s WALL (       1 calls)

     Called by electrons:
     c_bands      :      3.88s CPU      4.27s WALL (       9 calls)
     sum_band     :      0.63s CPU      0.73s WALL (       9 calls)
     v_of_rho     :      0.04s CPU      0.04s WALL (      10 calls)
     mix_rho      :      0.01s CPU      0.01s WALL (       9 calls)

     Called by c_bands:
     init_us_2    :      0.06s CPU      0.06s WALL (     684 calls)
     init_us_2:cp :      0.06s CPU      0.06s WALL (     684 calls)
     cegterg      :      3.50s CPU      3.64s WALL (     324 calls)

     Called by *egterg:
     cdiaghg      :      0.35s CPU      0.37s WALL (    1280 calls)
     h_psi        :      3.02s CPU      3.14s WALL (    1316 calls)
     g_psi        :      0.02s CPU      0.02s WALL (     956 calls)

     Called by h_psi:
     h_psi:calbec :      0.07s CPU      0.08s WALL (    1316 calls)
     vloc_psi     :      2.89s CPU      3.01s WALL (    1316 calls)
     add_vuspsi   :      0.04s CPU      0.05s WALL (    1316 calls)

     General routines
     calbec       :      0.07s CPU      0.07s WALL (    1316 calls)
     fft          :      0.03s CPU      0.06s WALL (      99 calls)
     ffts         :      0.00s CPU      0.00s WALL (       9 calls)
     fftw         :      3.15s CPU      3.27s WALL (   34496 calls)
     davcio       :      0.06s CPU      0.34s WALL (    1130 calls)
 
     Parallel routines
 
     PWSCF        :      4.86s CPU      5.79s WALL

 
   This run was terminated on:   0:26:44  20Nov2023            

=------------------------------------------------------------------------------=
   JOB DONE.
=------------------------------------------------------------------------------=
