
     Program PWSCF v.7.1 starts on 18Nov2023 at  0:23:34 

     This program is part of the open-source Quantum ESPRESSO suite
     for quantum simulation of materials; please cite
         "P. Giannozzi et al., J. Phys.:Condens. Matter 21 395502 (2009);
         "P. Giannozzi et al., J. Phys.:Condens. Matter 29 465901 (2017);
         "P. Giannozzi et al., J. Chem. Phys. 152 154105 (2020);
          URL http://www.quantum-espresso.org", 
     in publications or presentations arising from this work. More details at
     http://www.quantum-espresso.org/quote

     Parallel version (MPI), running on     8 processors

     MPI processes distributed on     1 nodes
     123519 MiB available memory on the printing compute node when the environment starts
 
     Reading input from pw_mp-20351_nscf_k0_E56.in
Warning: card &IONS ignored
Warning: card / ignored
Warning: card &CELL ignored
Warning: card / ignored

     Current dimensions of program PWSCF are:
     Max number of different atomic species (ntypx) = 10
     Max number of k-points (npk) =  40000
     Max angular momentum in pseudopotentials (lmaxx) =  4

     Atomic positions and unit cell read from directory:
     out/mp-20351.save/
     Atomic positions from file used, from input discarded
 
 
     R & G space division:  proc/nbgrp/npool/nimage =       8
     Subspace diagonalization in iterative solution of the eigenvalue problem:
     one sub-group per band group will be used
     scalapack distributed-memory algorithm (size of sub-group:  2*  2 procs)

 
     Parallelization info
     --------------------
     sticks:   dense  smooth     PW     G-vecs:    dense   smooth      PW
     Min         119     119     30                 2448     2448     305
     Max         120     120     31                 2452     2452     308
     Sum         955     955    241                19603    19603    2445
 
     Using Slab Decomposition
 


     bravais-lattice index     =            2
     lattice parameter (alat)  =      11.1569  a.u.
     unit-cell volume          =     347.1883 (a.u.)^3
     number of atoms/cell      =            2
     number of atomic types    =            2
     number of electrons       =        18.00
     number of Kohn-Sham states=          912
     kinetic-energy cutoff     =      56.0000  Ry
     charge density cutoff     =     224.0000  Ry
     Exchange-correlation= PBE
                           (   1   4   3   4   0   0   0)

     celldm(1)=  11.156853  celldm(2)=   0.000000  celldm(3)=   0.000000
     celldm(4)=   0.000000  celldm(5)=   0.000000  celldm(6)=   0.000000

     crystal axes: (cart. coord. in units of alat)
               a(1) = (  -0.500000   0.000000   0.500000 )  
               a(2) = (   0.000000   0.500000   0.500000 )  
               a(3) = (  -0.500000   0.500000   0.000000 )  

     reciprocal axes: (cart. coord. in units 2 pi/alat)
               b(1) = ( -1.000000 -1.000000  1.000000 )  
               b(2) = (  1.000000  1.000000  1.000000 )  
               b(3) = ( -1.000000  1.000000 -1.000000 )  


     PseudoPot. # 1 for In read from file:
     /usr/scratch4/magr4985/MG/HTDF/pseudo/SG15/In.upf
     MD5 check sum: 2123f823f6143602c63cd302e3a0bdd6
     Pseudo is Norm-conserving, Zval = 13.0
     Generated using ONCVPSP code by D. R. Hamann
     Using radial grid of  602 points,  6 beta functions with: 
                l(1) =   0
                l(2) =   0
                l(3) =   1
                l(4) =   1
                l(5) =   2
                l(6) =   2

     PseudoPot. # 2 for P  read from file:
     /usr/scratch4/magr4985/MG/HTDF/pseudo/SG15/P.upf
     MD5 check sum: 0688a67b2b263c6b42d3d97c42745426
     Pseudo is Norm-conserving, Zval =  5.0
     Generated using ONCVPSP code by D. R. Hamann
     Using radial grid of  602 points,  4 beta functions with: 
                l(1) =   0
                l(2) =   0
                l(3) =   1
                l(4) =   1

     atomic species   valence    mass     pseudopotential
        In            13.00   114.81800     In( 1.00)
        P              5.00    30.97380     P ( 1.00)

     24 Sym. Ops. (no inversion) found



   Cartesian axes

     site n.     atom                  positions (alat units)
         1           In  tau(   1) = (   0.0000000   0.0000000   0.0000000  )
         2           P   tau(   2) = (  -0.2500000   0.2500000   0.2500001  )

     number of k points=     1  Gaussian smearing, width (Ry)=  0.0005
                       cart. coord. in units 2pi/alat
        k(    1) = (   0.0000000   0.0000000   0.0000000), wk =   2.0000000

     Dense  grid:    19603 G-vectors     FFT dimensions: (  40,  40,  40)

     Estimated max dynamical RAM per process >      63.27 MB

     Estimated total dynamical RAM >     506.15 MB

     The potential is recalculated from file :
     out/mp-20351.save/charge-density

     Starting wfcs are random

     Band Structure Calculation
     Davidson diagonalization with overlap

     ethr =  5.00E-06,  avg # of iterations =  8.0

     total cpu time spent up to now is       53.3 secs

     End of band structure calculation

          k = 0.0000 0.0000 0.0000 (  2445 PWs)   bands (ev):

    -6.8742  -6.8742  -6.8742  -6.7319  -6.7319  -4.0441   7.3249   7.3249
     7.3249   7.9173  11.4290  11.4290  11.4290  15.8074  16.7300  16.7300
    18.5220  18.5220  18.5220  21.1634  28.8766  28.8766  28.8766  31.0253
    31.1118  31.1118  31.1118  31.8547  31.8547  31.8583  31.8583  31.8583
    40.0505  40.9348  40.9348  41.9463  41.9463  41.9463  42.5142  44.4346
    44.4346  44.4346  45.3722  45.3722  45.3722  45.9241  45.9241  45.9241
    47.1018  47.1018  47.1018  47.6085  47.6085  47.6085  50.6980  51.0093
    51.0093  53.5219  53.5219  53.5219  53.7042  54.0444  54.0444  54.0444
    60.9776  63.4933  63.4933  64.5878  64.5878  64.5878  68.1924  68.1924
    68.1924  69.0514  69.1301  69.1301  69.1301  74.8006  74.8006  76.4092
    76.4092  76.4092  76.6433  76.7066  76.7066  76.7066  78.5627  78.5627
    79.0406  79.0406  79.0406  82.9293  82.9293  82.9293  83.4423  83.4423
    83.4423  83.5279  83.5279  83.5279  85.1024  85.1024  85.1024  85.3747
    85.3747  86.4828  86.6698  87.5509  87.5509  87.5509  87.6186  87.6186
    87.6186  87.6879  87.6879  88.0142  88.0142  88.0142  92.7112  94.0652
    94.0652  94.0652  98.0990  98.0990  98.0990  98.2553  98.2553  98.2553
    99.2901  99.2901  99.2901  99.7303  99.8360  99.8360  99.8360 100.6512
   100.6512 101.4242 101.4242 101.4242 101.7477 101.7477 104.9646 107.5058
   108.6252 108.6252 108.6252 109.5557 109.5557 111.2181 111.2181 111.2181
   112.1342 112.7377 112.7377 112.7377 113.6498 113.6498 113.6498 113.9000
   114.3332 114.3332 114.3332 114.5092 114.5092 114.5092 115.6634 115.6634
   115.6634 118.0007 118.0007 118.0007 119.0436 119.0436 122.5402 124.2934
   124.2934 124.2934 124.6589 124.6589 124.6589 126.0127 126.0127 126.0127
   128.4674 128.4674 130.2848 134.8372 134.8372 134.8372 135.7709 137.2117
   137.2117 138.2066 138.2066 138.2066 139.4671 139.4671 139.4671 141.1350
   141.1350 141.1350 142.9306 142.9306 142.9306 144.5642 144.5642 144.5642
   144.9909 144.9909 145.9588 145.9588 145.9588 146.1025 146.1025 146.1025
   146.3640 147.7225 147.7225 147.7225 147.7833 148.0237 148.0237 148.4718
   148.4718 148.4718 149.1973 149.5880 149.5880 149.5880 150.0564 150.0564
   150.0564 150.5404 150.6158 150.6158 150.6158 151.1088 151.1088 151.3937
   152.4648 152.4648 152.4648 152.6206 152.6206 154.1304 154.1304 154.1304
   154.8335 154.8335 154.8335 155.2207 155.2207 155.2207 155.4748 155.4748
   155.5877 155.5877 155.5877 158.0347 158.0347 160.8935 160.8935 160.8935
   161.6422 163.0038 163.0038 163.0038 167.3813 167.3813 167.3813 167.4971
   168.2288 168.2288 168.2288 168.3536 168.3536 168.3536 168.6515 168.6515
   170.2504 170.2504 170.2504 170.7345 170.7345 170.7345 171.7568 171.9817
   171.9817 172.0505 172.0505 172.0505 172.1441 176.7871 176.7871 176.7871
   177.4068 177.4068 177.4068 178.0664 178.0664 178.0664 178.4284 178.4284
   178.4284 179.0905 179.0905 180.2727 183.2772 183.2772 183.2772 184.6742
   184.6742 184.6742 185.0465 185.0465 186.2196 186.2196 186.2196 186.6036
   187.2883 187.2883 187.2883 187.4563 187.4563 187.4563 188.1473 188.1473
   188.5394 188.5394 188.5394 192.7183 192.7183 192.7183 194.6650 194.6650
   197.0917 198.5564 198.5564 198.5564 199.8454 200.6077 200.6077 200.6077
   201.6548 201.6548 201.6548 202.0997 202.0997 203.1548 203.9502 203.9502
   203.9502 206.7446 206.7446 206.7446 207.1333 207.3849 207.3849 207.7643
   207.7643 207.7643 208.5989 208.5989 208.5989 210.5656 210.6975 210.6975
   210.6975 211.9246 211.9246 211.9693 211.9693 211.9693 213.5809 215.9925
   215.9925 215.9925 216.3860 216.3860 216.3860 216.5353 216.5353 216.5353
   216.6298 216.6298 216.6298 220.4851 220.4851 220.5438 220.5438 220.5438
   220.5696 220.6814 220.6814 220.6814 220.7478 220.7478 220.7478 220.8209
   220.8560 220.8560 220.8560 222.0501 222.0501 222.0501 223.3350 223.3350
   223.4552 223.4552 223.4552 224.8671 225.1260 225.1260 225.1260 225.9256
   225.9256 225.9256 226.5688 226.5688 227.3244 229.5165 229.5165 229.5165
   229.5756 229.5756 229.5756 230.6157 230.6157 230.6157 231.0237 231.0237
   231.0237 232.1386 232.1386 235.7752 235.7752 235.7752 235.8876 235.8876
   236.8832 236.8832 236.8832 237.3695 237.3695 237.3695 237.4064 237.4064
   237.4064 238.3110 238.3110 238.3110 238.4515 238.4515 238.7405 238.8636
   240.0715 240.0715 240.0715 240.1458 240.1458 240.1458 240.3725 240.6183
   240.6183 240.6183 240.9803 241.8002 241.8002 245.4355 245.4355 245.4355
   246.5205 246.5205 246.8607 246.8607 246.8607 246.8850 246.8850 246.8850
   247.2368 247.2368 247.2368 248.5108 249.2459 249.2459 249.2459 249.5283
   249.5700 249.5700 249.5700 251.4272 251.4272 251.4922 251.4922 251.4922
   251.5432 251.5432 251.5432 251.8624 251.8624 251.8624 251.8644 251.8644
   251.8644 252.1574 252.1574 252.2495 252.5814 252.5814 252.5814 252.9712
   252.9712 252.9712 253.3395 253.4444 253.4444 253.4920 253.4920 253.4920
   253.5284 253.5284 253.5284 253.7171 253.7171 253.7171 253.9929 253.9929
   254.0043 254.0043 254.0043 267.1587 267.1587 268.3097 268.3097 268.3097
   268.5764 269.5081 269.5081 269.5081 271.1969 271.1969 271.1969 271.2664
   271.4819 271.4819 273.6439 275.4997 275.4997 275.4997 277.7768 277.7768
   277.7768 278.2953 278.2953 278.4106 278.4106 278.4106 278.7623 278.7623
   278.7623 279.8431 280.1037 280.1037 280.1037 282.5674 282.5674 282.5674
   282.7642 283.3035 283.3035 283.9968 283.9968 283.9968 285.9327 288.7726
   288.7726 288.7726 288.9357 288.9357 288.9357 289.1766 289.1766 289.1766
   289.2634 289.2634 289.2634 290.0735 290.0735 291.1393 291.1393 291.1393
   291.3160 291.3160 291.3160 291.5024 291.5024 291.5900 291.5900 291.5900
   291.6531 291.6531 291.6531 292.3788 292.3788 292.3788 292.3814 292.3814
   292.4718 293.6563 293.6563 293.6563 294.2467 294.2467 294.9169 294.9169
   294.9169 294.9886 294.9886 294.9886 295.1220 300.2408 300.2408 300.9784
   300.9784 300.9784 302.1948 302.5784 302.5784 302.5784 303.5475 303.5475
   303.5475 303.6707 303.6707 303.6707 303.9825 303.9825 304.5758 304.5758
   304.5758 305.2085 305.5653 305.5653 305.5653 305.5998 305.5998 305.5998
   305.6971 305.6971 305.6971 307.1392 307.3312 307.3312 307.3312 307.4344
   307.4344 313.3562 313.3753 313.3753 313.3753 313.8521 313.8521 313.8521
   314.5965 316.5900 316.5900 316.5900 316.6102 316.6102 316.6807 316.6807
   316.6807 317.0987 317.0987 317.0987 317.3133 317.8890 317.9585 317.9585
   318.0706 318.0706 318.0706 318.2376 318.2376 318.2376 318.3088 318.3088
   318.3088 319.6873 319.6873 319.7878 319.7878 319.7878 320.1999 320.1999
   320.1999 320.4469 320.4469 320.4469 320.6804 323.7550 323.7550 323.8726
   323.8726 323.8726 324.0159 324.0159 324.0159 324.3093 324.3093 324.3093
   324.6071 326.4718 326.4718 326.4877 326.4877 326.4877 326.4907 326.4907
   326.4907 326.6030 326.6030 326.6030 326.6509 336.3582 336.3582 336.3582
   336.4073 336.4073 336.8508 337.4258 337.4258 337.4258 337.4703 337.4703
   337.8391 338.3280 338.3280 338.3280 339.2400 339.2400 339.2400 339.2562
   339.2562 339.2562 339.5039 339.5039 339.5039 340.6260 340.6260 340.6338
   340.6338 340.6338 340.6651 341.3771 341.3771 341.3771 342.0865 342.1719
   342.1719 342.1719 343.5734 343.5734 343.5734 344.4863 344.4863 344.4863
   344.9581 344.9581 344.9581 345.2410 345.8119 345.8119 347.3148 347.3148
   347.3148 347.7171 347.7171 349.2416 349.4725 349.4725 349.4725 349.5179
   349.5179 350.6366 350.6366 350.6366 351.5810 351.5810 351.5810 351.6745
   351.6745 351.6745 352.0604 352.0604 352.0604 352.4120 352.4120 352.8034
   352.8034 352.8034 352.8832 352.8832 353.6075 353.6075 353.6075 354.1418
   354.4625 354.5085 354.6854 354.6854 354.6854 355.2001 355.2001 355.2001
   355.2723 355.2723 355.2723 355.6598 355.6598 355.6598 355.6882 355.9358
   355.9358 355.9358 356.1133 356.1133 356.1133 357.2637 357.2637 357.5287
   357.5287 357.5287 357.8272 357.8272 357.8272 358.0354 358.0354 358.0354
   358.1905 358.1905 358.1905 358.4247 358.4247 360.4633 360.4633 360.7158
   360.7158 360.7158 361.1819 361.1819 361.1819 361.2223 361.4128 361.4128
   361.4128 361.4670 361.4670 361.4670 361.8415 361.8415 361.8415 361.9057
   361.9057 362.2111 362.2111 362.2111 362.3888 367.4985 367.4985 367.4985
   367.5679 367.7431 367.7431 367.7431 367.9196 376.8823 376.8823 376.9971
   376.9971 376.9971 377.0876 377.0876 377.0876 377.1468 377.1468 377.1468
   377.2451 377.2451 377.2451 377.2624 377.2624 381.5162 381.5162 382.0354
   382.0354 382.0354 382.0661 383.1639 383.1639 383.4163 383.4163 383.4163
   383.4931 383.4931 383.4931 383.5206 383.6053 383.6053 383.6053 383.6268

     the Fermi energy is     7.5592 ev
     (compare with:     7.5592 eV, computed in scf)

     Writing all to output data dir out/mp-20351.save/
 
     init_run     :      0.04s CPU      0.07s WALL (       1 calls)
     electrons    :     49.27s CPU     53.06s WALL (       1 calls)

     Called by init_run:
     wfcinit      :      0.00s CPU      0.00s WALL (       1 calls)
     potinit      :      0.01s CPU      0.01s WALL (       1 calls)
     hinit0       :      0.01s CPU      0.03s WALL (       1 calls)

     Called by electrons:
     c_bands      :     49.27s CPU     53.06s WALL (       1 calls)
     v_of_rho     :      0.01s CPU      0.01s WALL (       1 calls)

     Called by c_bands:
     init_us_2    :      0.00s CPU      0.00s WALL (       1 calls)
     init_us_2:cp :      0.00s CPU      0.00s WALL (       1 calls)
     cegterg      :     48.00s CPU     51.64s WALL (       1 calls)

     Called by *egterg:
     cdiaghg      :     45.53s CPU     49.15s WALL (       9 calls)
     h_psi        :      0.86s CPU      0.90s WALL (      10 calls)
     g_psi        :      0.01s CPU      0.01s WALL (       8 calls)

     Called by h_psi:
     h_psi:calbec :      0.02s CPU      0.02s WALL (      10 calls)
     vloc_psi     :      0.83s CPU      0.86s WALL (      10 calls)
     add_vuspsi   :      0.01s CPU      0.01s WALL (      10 calls)

     General routines
     calbec       :      0.02s CPU      0.02s WALL (      10 calls)
     fft          :      0.01s CPU      0.02s WALL (      10 calls)
     fftw         :      0.73s CPU      0.76s WALL (   10464 calls)
 
     Parallel routines
 
     PWSCF        :     49.51s CPU     53.68s WALL

 
   This run was terminated on:   0:24:28  18Nov2023            

=------------------------------------------------------------------------------=
   JOB DONE.
=------------------------------------------------------------------------------=
