
     Program PWSCF v.7.1 starts on 18Nov2023 at  2:31:56 

     This program is part of the open-source Quantum ESPRESSO suite
     for quantum simulation of materials; please cite
         "P. Giannozzi et al., J. Phys.:Condens. Matter 21 395502 (2009);
         "P. Giannozzi et al., J. Phys.:Condens. Matter 29 465901 (2017);
         "P. Giannozzi et al., J. Chem. Phys. 152 154105 (2020);
          URL http://www.quantum-espresso.org", 
     in publications or presentations arising from this work. More details at
     http://www.quantum-espresso.org/quote

     Parallel version (MPI), running on    24 processors

     MPI processes distributed on     1 nodes
     123268 MiB available memory on the printing compute node when the environment starts
 
     Reading input from pw_mp-20351_scf_k3000_E56.in
Warning: card &CELL ignored
Warning: card / ignored

     Current dimensions of program PWSCF are:
     Max number of different atomic species (ntypx) = 10
     Max number of k-points (npk) =  40000
     Max angular momentum in pseudopotentials (lmaxx) =  4
 
     K-points division:     npool     =       2
     R & G space division:  proc/nbgrp/npool/nimage =      12
     Subspace diagonalization in iterative solution of the eigenvalue problem:
     a serial algorithm will be used

 
     Parallelization info
     --------------------
     sticks:   dense  smooth     PW     G-vecs:    dense   smooth      PW
     Min          79      79     24                 1632     1632     273
     Max          80      80     25                 1635     1635     275
     Sum         955     955    295                19603    19603    3287
 
     Using Slab Decomposition
 


     bravais-lattice index     =            2
     lattice parameter (alat)  =      11.1569  a.u.
     unit-cell volume          =     347.1883 (a.u.)^3
     number of atoms/cell      =            2
     number of atomic types    =            2
     number of electrons       =        18.00
     number of Kohn-Sham states=           18
     kinetic-energy cutoff     =      56.0000  Ry
     charge density cutoff     =     224.0000  Ry
     scf convergence threshold =      1.0E-10
     mixing beta               =       0.7000
     number of iterations used =            8  plain     mixing
     Exchange-correlation= PBE
                           (   1   4   3   4   0   0   0)

     celldm(1)=  11.156853  celldm(2)=   0.000000  celldm(3)=   0.000000
     celldm(4)=   0.000000  celldm(5)=   0.000000  celldm(6)=   0.000000

     crystal axes: (cart. coord. in units of alat)
               a(1) = (  -0.500000   0.000000   0.500000 )  
               a(2) = (   0.000000   0.500000   0.500000 )  
               a(3) = (  -0.500000   0.500000   0.000000 )  

     reciprocal axes: (cart. coord. in units 2 pi/alat)
               b(1) = ( -1.000000 -1.000000  1.000000 )  
               b(2) = (  1.000000  1.000000  1.000000 )  
               b(3) = ( -1.000000  1.000000 -1.000000 )  


     PseudoPot. # 1 for In read from file:
     /usr/scratch4/magr4985/MG/HTDF/pseudo/SG15/In.upf
     MD5 check sum: 2123f823f6143602c63cd302e3a0bdd6
     Pseudo is Norm-conserving, Zval = 13.0
     Generated using ONCVPSP code by D. R. Hamann
     Using radial grid of  602 points,  6 beta functions with: 
                l(1) =   0
                l(2) =   0
                l(3) =   1
                l(4) =   1
                l(5) =   2
                l(6) =   2

     PseudoPot. # 2 for P  read from file:
     /usr/scratch4/magr4985/MG/HTDF/pseudo/SG15/P.upf
     MD5 check sum: 0688a67b2b263c6b42d3d97c42745426
     Pseudo is Norm-conserving, Zval =  5.0
     Generated using ONCVPSP code by D. R. Hamann
     Using radial grid of  602 points,  4 beta functions with: 
                l(1) =   0
                l(2) =   0
                l(3) =   1
                l(4) =   1

     atomic species   valence    mass     pseudopotential
        In            13.00   114.81800     In( 1.00)
        P              5.00    30.97380     P ( 1.00)

     24 Sym. Ops. (no inversion) found



   Cartesian axes

     site n.     atom                  positions (alat units)
         1           In  tau(   1) = (   0.0000000   0.0000000   0.0000000  )
         2           P   tau(   2) = (  -0.2500000   0.2500000   0.2500001  )

     number of k points=    72  Gaussian smearing, width (Ry)=  0.0005
                       cart. coord. in units 2pi/alat
        k(    1) = (   0.0000000   0.0000000   0.0000000), wk =   0.0011574
        k(    2) = (  -0.0833333   0.0833333  -0.0833333), wk =   0.0092593
        k(    3) = (  -0.1666667   0.1666667  -0.1666667), wk =   0.0092593
        k(    4) = (  -0.2500000   0.2500000  -0.2500000), wk =   0.0092593
        k(    5) = (  -0.3333333   0.3333333  -0.3333333), wk =   0.0092593
        k(    6) = (  -0.4166667   0.4166667  -0.4166667), wk =   0.0092593
        k(    7) = (   0.5000000  -0.5000000   0.5000000), wk =   0.0046296
        k(    8) = (   0.0000000   0.1666667   0.0000000), wk =   0.0069444
        k(    9) = (  -0.0833333   0.2500000  -0.0833333), wk =   0.0277778
        k(   10) = (  -0.1666667   0.3333333  -0.1666667), wk =   0.0277778
        k(   11) = (  -0.2500000   0.4166667  -0.2500000), wk =   0.0277778
        k(   12) = (  -0.3333333   0.5000000  -0.3333333), wk =   0.0277778
        k(   13) = (   0.5833333  -0.4166667   0.5833333), wk =   0.0277778
        k(   14) = (   0.5000000  -0.3333333   0.5000000), wk =   0.0277778
        k(   15) = (   0.4166667  -0.2500000   0.4166667), wk =   0.0277778
        k(   16) = (   0.3333333  -0.1666667   0.3333333), wk =   0.0277778
        k(   17) = (   0.2500000  -0.0833333   0.2500000), wk =   0.0277778
        k(   18) = (   0.1666667  -0.0000000   0.1666667), wk =   0.0138889
        k(   19) = (   0.0000000   0.3333333   0.0000000), wk =   0.0069444
        k(   20) = (  -0.0833333   0.4166667  -0.0833333), wk =   0.0277778
        k(   21) = (  -0.1666667   0.5000000  -0.1666667), wk =   0.0277778
        k(   22) = (  -0.2500000   0.5833333  -0.2500000), wk =   0.0277778
        k(   23) = (   0.6666667  -0.3333333   0.6666667), wk =   0.0277778
        k(   24) = (   0.5833333  -0.2500000   0.5833333), wk =   0.0277778
        k(   25) = (   0.5000000  -0.1666667   0.5000000), wk =   0.0277778
        k(   26) = (   0.4166667  -0.0833333   0.4166667), wk =   0.0277778
        k(   27) = (   0.3333333   0.0000000   0.3333333), wk =   0.0138889
        k(   28) = (   0.0000000   0.5000000   0.0000000), wk =   0.0069444
        k(   29) = (  -0.0833333   0.5833333  -0.0833333), wk =   0.0277778
        k(   30) = (  -0.1666667   0.6666667  -0.1666667), wk =   0.0277778
        k(   31) = (   0.7500000  -0.2500000   0.7500000), wk =   0.0277778
        k(   32) = (   0.6666667  -0.1666667   0.6666667), wk =   0.0277778
        k(   33) = (   0.5833333  -0.0833333   0.5833333), wk =   0.0277778
        k(   34) = (   0.5000000   0.0000000   0.5000000), wk =   0.0138889
        k(   35) = (   0.0000000   0.6666667   0.0000000), wk =   0.0069444
        k(   36) = (  -0.0833333   0.7500000  -0.0833333), wk =   0.0277778
        k(   37) = (   0.8333333  -0.1666667   0.8333333), wk =   0.0277778
        k(   38) = (   0.7500000  -0.0833333   0.7500000), wk =   0.0277778
        k(   39) = (   0.6666667  -0.0000000   0.6666667), wk =   0.0138889
        k(   40) = (   0.0000000   0.8333333   0.0000000), wk =   0.0069444
        k(   41) = (   0.9166667  -0.0833333   0.9166667), wk =   0.0277778
        k(   42) = (   0.8333333   0.0000000   0.8333333), wk =   0.0138889
        k(   43) = (   0.0000000  -1.0000000   0.0000000), wk =   0.0034722
        k(   44) = (  -0.1666667   0.3333333   0.0000000), wk =   0.0277778
        k(   45) = (  -0.2500000   0.4166667  -0.0833333), wk =   0.0555556
        k(   46) = (  -0.3333333   0.5000000  -0.1666667), wk =   0.0555556
        k(   47) = (   0.5833333  -0.4166667   0.7500000), wk =   0.0555556
        k(   48) = (   0.5000000  -0.3333333   0.6666667), wk =   0.0277778
        k(   49) = (  -0.1666667   0.5000000   0.0000000), wk =   0.0277778
        k(   50) = (  -0.2500000   0.5833333  -0.0833333), wk =   0.0555556
        k(   51) = (   0.6666667  -0.3333333   0.8333333), wk =   0.0555556
        k(   52) = (   0.5833333  -0.2500000   0.7500000), wk =   0.0555556
        k(   53) = (   0.5000000  -0.1666667   0.6666667), wk =   0.0555556
        k(   54) = (   0.4166667  -0.0833333   0.5833333), wk =   0.0555556
        k(   55) = (   0.3333333   0.0000000   0.5000000), wk =   0.0277778
        k(   56) = (  -0.1666667   0.6666667  -0.0000000), wk =   0.0277778
        k(   57) = (   0.7500000  -0.2500000   0.9166667), wk =   0.0555556
        k(   58) = (   0.6666667  -0.1666667   0.8333333), wk =   0.0555556
        k(   59) = (   0.5833333  -0.0833333   0.7500000), wk =   0.0555556
        k(   60) = (   0.5000000   0.0000000   0.6666667), wk =   0.0277778
        k(   61) = (   0.8333333  -0.1666667   1.0000000), wk =   0.0277778
        k(   62) = (   0.7500000  -0.0833333   0.9166667), wk =   0.0555556
        k(   63) = (   0.6666667   0.0000000   0.8333333), wk =   0.0277778
        k(   64) = (  -0.1666667  -1.0000000  -0.0000000), wk =   0.0138889
        k(   65) = (   0.6666667  -0.3333333   1.0000000), wk =   0.0277778
        k(   66) = (   0.5833333  -0.2500000   0.9166667), wk =   0.0555556
        k(   67) = (   0.5000000  -0.1666667   0.8333333), wk =   0.0277778
        k(   68) = (   0.6666667  -0.1666667   1.0000000), wk =   0.0277778
        k(   69) = (   0.5833333  -0.0833333   0.9166667), wk =   0.0555556
        k(   70) = (   0.5000000   0.0000000   0.8333333), wk =   0.0277778
        k(   71) = (  -0.3333333  -1.0000000   0.0000000), wk =   0.0138889
        k(   72) = (  -0.5000000  -1.0000000   0.0000000), wk =   0.0069444

     Dense  grid:    19603 G-vectors     FFT dimensions: (  40,  40,  40)

     Estimated max dynamical RAM per process >       4.00 MB

     Estimated total dynamical RAM >      91.21 MB

     Initial potential from superposition of free atoms

     starting charge      17.8730, renormalised to      18.0000
     Starting wfcs are random

     total cpu time spent up to now is        0.4 secs

     Self-consistent Calculation

     iteration #  1     ecut=    56.00 Ry     beta= 0.70
     Davidson diagonalization with overlap
     ethr =  1.00E-02,  avg # of iterations =  8.9

     Threshold (ethr) on eigenvalues was too large:
     Diagonalizing with lowered threshold

     Davidson diagonalization with overlap
     ethr =  7.51E-04,  avg # of iterations =  2.0

     total cpu time spent up to now is        2.1 secs

     total energy              =    -117.76595630 Ry
     estimated scf accuracy    <       0.12616835 Ry

     iteration #  2     ecut=    56.00 Ry     beta= 0.70
     Davidson diagonalization with overlap
     ethr =  7.01E-04,  avg # of iterations =  2.3

     total cpu time spent up to now is        2.7 secs

     total energy              =    -117.80416836 Ry
     estimated scf accuracy    <       0.04666265 Ry

     iteration #  3     ecut=    56.00 Ry     beta= 0.70
     Davidson diagonalization with overlap
     ethr =  2.59E-04,  avg # of iterations =  2.1

     total cpu time spent up to now is        3.2 secs

     total energy              =    -117.81330804 Ry
     estimated scf accuracy    <       0.00062556 Ry

     iteration #  4     ecut=    56.00 Ry     beta= 0.70
     Davidson diagonalization with overlap
     ethr =  3.48E-06,  avg # of iterations =  7.2

     total cpu time spent up to now is        3.8 secs

     total energy              =    -117.81341411 Ry
     estimated scf accuracy    <       0.00003434 Ry

     iteration #  5     ecut=    56.00 Ry     beta= 0.70
     Davidson diagonalization with overlap
     ethr =  1.91E-07,  avg # of iterations =  2.1

     total cpu time spent up to now is        4.2 secs

     total energy              =    -117.81341933 Ry
     estimated scf accuracy    <       0.00000215 Ry

     iteration #  6     ecut=    56.00 Ry     beta= 0.70
     Davidson diagonalization with overlap
     ethr =  1.19E-08,  avg # of iterations =  2.5

     total cpu time spent up to now is        4.7 secs

     total energy              =    -117.81342001 Ry
     estimated scf accuracy    <       0.00000006 Ry

     iteration #  7     ecut=    56.00 Ry     beta= 0.70
     Davidson diagonalization with overlap
     ethr =  3.09E-10,  avg # of iterations =  3.0

     total cpu time spent up to now is        5.2 secs

     total energy              =    -117.81342005 Ry
     estimated scf accuracy    <          2.9E-09 Ry

     iteration #  8     ecut=    56.00 Ry     beta= 0.70
     Davidson diagonalization with overlap
     ethr =  1.59E-11,  avg # of iterations =  2.5

     total cpu time spent up to now is        5.6 secs

     End of self-consistent calculation

          k = 0.0000 0.0000 0.0000 (  2445 PWs)   bands (ev):

    -6.8742  -6.8742  -6.8742  -6.7319  -6.7319  -4.0441   7.3248   7.3248
     7.3248   7.9172  11.4289  11.4289  11.4289  15.8074  16.7300  16.7300
    18.5220  18.5221

          k =-0.0833 0.0833-0.0833 (  2466 PWs)   bands (ev):

    -6.8821  -6.8710  -6.8710  -6.7320  -6.7320  -3.9672   6.3973   7.2403
     7.2403   8.6043  11.4549  11.5586  11.5586  16.2180  16.3682  16.3682
    18.1780  19.1390

          k =-0.1667 0.1667-0.1667 (  2475 PWs)   bands (ev):

    -6.9024  -6.8629  -6.8629  -6.7316  -6.7316  -3.7430   5.1520   7.0325
     7.0325   9.0524  11.8006  11.8563  11.8563  15.9324  15.9324  16.7571
    18.1767  20.3797

          k =-0.2500 0.2500-0.2500 (  2463 PWs)   bands (ev):

    -6.9295  -6.8528  -6.8528  -6.7296  -6.7296  -3.3938   3.9253   6.7888
     6.7888   9.0614  12.1139  12.1139  12.6018  15.9036  15.9036  16.4468
    19.5757  21.8394

          k =-0.3333 0.3333-0.3333 (  2473 PWs)   bands (ev):

    -6.9554  -6.8446  -6.8446  -6.7258  -6.7258  -2.9683   2.8352   6.5771
     6.5771   8.9277  12.1947  12.1947  13.5454  16.1966  16.4082  16.4082
    20.9981  22.2700

          k =-0.4167 0.4167-0.4167 (  2461 PWs)   bands (ev):

    -6.9739  -6.8397  -6.8397  -6.7215  -6.7215  -2.5727   2.0272   6.4370
     6.4370   8.8152  12.1652  12.1653  14.2179  16.3921  17.2935  17.2935
    20.2291  20.7811

          k = 0.5000-0.5000 0.5000 (  2452 PWs)   bands (ev):

    -6.9805  -6.8382  -6.8382  -6.7197  -6.7197  -2.3977   1.7125   6.3884
     6.3884   8.7742  12.1412  12.1412  14.4062  16.7294  17.9521  17.9521
    19.5330  19.9081

          k = 0.0000 0.1667 0.0000 (  2457 PWs)   bands (ev):

    -6.8879  -6.8681  -6.8681  -6.7344  -6.7297  -3.9417   6.3562   7.0818
     7.0818   8.8687  11.1079  11.7675  11.7675  15.7820  16.3807  16.7971
    18.7517  18.7517

          k =-0.0833 0.2500-0.0833 (  2466 PWs)   bands (ev):

    -6.9053  -6.8613  -6.8599  -6.7365  -6.7277  -3.7667   5.4247   6.8294
     6.9042   9.3798  11.0174  12.1364  12.1417  15.2420  16.6038  17.0733
    18.4261  19.5173

          k =-0.1667 0.3333-0.1667 (  2476 PWs)   bands (ev):

    -6.9287  -6.8530  -6.8495  -6.7371  -6.7251  -3.4585   4.2736   6.5739
     6.6546   9.5223  11.3746  12.4599  12.5604  15.1718  16.4863  17.1173
    19.1988  20.8300

          k =-0.2500 0.4167-0.2500 (  2465 PWs)   bands (ev):

    -6.9530  -6.8450  -6.8407  -6.7345  -6.7217  -3.0546   3.1709   6.3699
     6.3771   9.4223  11.7723  12.5688  13.0948  15.6750  16.8107  16.8431
    20.6075  21.9801

          k =-0.3333 0.5000-0.3333 (  2458 PWs)   bands (ev):

    -6.9722  -6.8395  -6.8354  -6.7294  -6.7189  -2.6369   2.2744   6.1238
     6.2722   9.3010  11.8777  12.4965  13.8815  16.2456  17.0467  17.5877
    20.0981  20.6949

          k = 0.5833-0.4167 0.5833 (  2460 PWs)   bands (ev):

    -6.9818  -6.8369  -6.8338  -6.7241  -6.7190  -2.3687   1.7829   5.9585
     6.2721   9.2349  11.9110  12.3803  14.4513  16.6175  17.7913  17.9623
    19.1307  19.9938

          k = 0.5000-0.3333 0.5000 (  2453 PWs)   bands (ev):

    -6.9794  -6.8368  -6.8352  -6.7227  -6.7215  -2.4287   1.8887   5.8970
     6.3750   9.2445  12.0006  12.2983  14.3711  16.6822  17.0807  18.1814
    19.0522  20.9733

          k = 0.4167-0.2500 0.4167 (  2456 PWs)   bands (ev):

    -6.9654  -6.8401  -6.8392  -6.7285  -6.7222  -2.7703   2.5419   5.9510
     6.5651   9.3252  12.1348  12.2414  13.6748  16.0868  16.5678  17.5866
    20.0169  21.9795

          k = 0.3333-0.1667 0.3333 (  2473 PWs)   bands (ev):

    -6.9431  -6.8486  -6.8449  -6.7333  -6.7249  -3.1968   3.5228   6.1240
     6.8111   9.4377  12.1215  12.1232  12.8578  15.4566  16.4793  17.0871
    19.9967  21.7241

          k = 0.2500-0.0833 0.2500 (  2471 PWs)   bands (ev):

    -6.9177  -6.8589  -6.8535  -6.7350  -6.7277  -3.5748   4.6423   6.4144
     7.0591   9.4476  11.6401  11.8710  12.4695  15.3596  16.1721  17.2865
    18.6875  20.2241

          k = 0.1667-0.0000 0.1667 (  2481 PWs)   bands (ev):

    -6.8953  -6.8675  -6.8633  -6.7342  -6.7299  -3.8412   5.7041   6.8234
     7.2291   9.1023  11.3646  11.6155  12.0516  15.7353  16.2785  16.7981
    18.4174  19.0438

          k = 0.0000 0.3333 0.0000 (  2473 PWs)   bands (ev):

    -6.9230  -6.8512  -6.8512  -6.7417  -6.7239  -3.6438   5.1658   6.5420
     6.5420   9.8882  10.4780  12.5972  12.5972  14.5973  16.9929  17.7140
    19.4343  19.4343

          k =-0.0833 0.4167-0.0833 (  2471 PWs)   bands (ev):

    -6.9445  -6.8415  -6.8400  -6.7455  -6.7203  -3.3848   4.3708   6.2413
     6.2656  10.0978  10.4992  12.9136  13.0405  14.5745  17.0228  18.2843
    19.4411  20.2980

          k =-0.1667 0.5000-0.1667 (  2467 PWs)   bands (ev):

    -6.9648  -6.8347  -6.8300  -6.7459  -6.7171  -3.0183   3.4171   5.8722
     6.0621  10.0164  11.0502  12.8649  13.2552  15.3681  17.2741  18.0479
    20.4484  21.5688

          k =-0.2500 0.5833-0.2500 (  2458 PWs)   bands (ev):

    -6.9802  -6.8313  -6.8238  -6.7421  -6.7152  -2.6074   2.5431   5.5069
     5.9645   9.9195  11.5519  13.1193  13.2043  16.2748  17.8757  17.9346
    20.0280  20.7397

          k = 0.6667-0.3333 0.6667 (  2450 PWs)   bands (ev):

    -6.9883  -6.8306  -6.8217  -6.7356  -6.7166  -2.2827   1.9550   5.2216
     5.9851   9.8746  11.7161  13.0329  13.9030  16.5855  18.0012  18.2562
    19.1375  20.1965

          k = 0.5833-0.2500 0.5833 (  2450 PWs)   bands (ev):

    -6.9872  -6.8314  -6.8233  -6.7292  -6.7220  -2.2297   1.8689   5.0587
     6.1200   9.9010  11.8103  12.8550  14.3456  16.6687  16.9978  18.0614
    19.6211  21.2177

          k = 0.5000-0.1667 0.5000 (  2461 PWs)   bands (ev):

    -6.9771  -6.8336  -6.8288  -6.7293  -6.7253  -2.4877   2.3223   5.0497
     6.3486   9.9846  11.9740  12.6877  13.6628  15.9469  17.3236  18.4424
    19.1380  22.0064

          k = 0.4167-0.0833 0.4167 (  2457 PWs)   bands (ev):

    -6.9598  -6.8381  -6.8375  -6.7349  -6.7241  -2.8887   3.1038   5.2356
     6.6306  10.0607  12.1358  12.4629  12.7449  15.2548  17.5599  18.2040
    19.4165  20.9055

          k = 0.3333 0.0000 0.3333 (  2485 PWs)   bands (ev):

    -6.9388  -6.8495  -6.8441  -6.7367  -6.7252  -3.2777   3.9475   5.6866
     6.8987   9.9388  11.7780  12.1394  12.5952  15.0796  16.7392  18.1953
    18.8140  21.0490

          k = 0.0000 0.5000 0.0000 (  2477 PWs)   bands (ev):

    -6.9666  -6.8274  -6.8274  -6.7530  -6.7160  -3.1785   4.0024   5.9661
     5.9661   9.8358  10.4052  13.6676  13.6676  14.2324  17.2993  19.3021
    20.5382  20.5383

          k =-0.0833 0.5833-0.0833 (  2462 PWs)   bands (ev):

    -6.9859  -6.8178  -6.8160  -6.7569  -6.7122  -2.8615   3.3383   5.6116
     5.7423   9.7996  10.4709  13.5968  14.0930  15.1390  17.5377  19.5303
    20.8361  21.4373

          k =-0.1667 0.6667-0.1667 (  2455 PWs)   bands (ev):

    -6.9984  -6.8148  -6.8086  -6.7558  -6.7105  -2.4831   2.6358   5.1342
     5.6307   9.8557  10.9484  13.3931  14.1537  16.2907  18.0394  19.2405
    20.2789  20.7966

          k = 0.7500-0.2500 0.7500 (  2454 PWs)   bands (ev):

    -7.0028  -6.8171  -6.8059  -6.7501  -6.7126  -2.1460   2.0895   4.6950
     5.6460   9.8808  11.6700  13.4859  13.9687  16.6836  18.0768  19.2066
    19.5508  20.3294

          k = 0.6667-0.1667 0.6667 (  2450 PWs)   bands (ev):

    -6.9994  -6.8217  -6.8077  -6.7419  -6.7188  -2.0123   1.8978   4.4044
     5.7858   9.9807  12.1050  13.6989  14.0170  15.9811  17.0746  19.2570
    20.1943  21.3235

          k = 0.5833-0.0833 0.5833 (  2457 PWs)   bands (ev):

    -6.9898  -6.8268  -6.8142  -6.7337  -6.7268  -2.1719   2.1388   4.3381
     6.0298  10.1531  12.2756  13.3789  13.7696  16.0573  16.2803  19.3856
    20.4051  21.6269

          k = 0.5000 0.0000 0.5000 (  2461 PWs)   bands (ev):

    -6.9760  -6.8319  -6.8253  -6.7329  -6.7273  -2.5158   2.6243   4.5919
     6.3357  10.2834  12.3740  12.8685  12.9538  15.4197  17.6201  19.1127
    19.4726  20.5318

          k = 0.0000 0.6667 0.0000 (  2465 PWs)   bands (ev):

    -7.0062  -6.8032  -6.8032  -6.7650  -6.7079  -2.6013   2.9182   5.4927
     5.4927   9.4129  10.1620  14.8537  14.8537  14.9014  17.6703  20.5748
    21.3873  21.3873

          k =-0.0833 0.7500-0.0833 (  2449 PWs)   bands (ev):

    -7.0189  -6.7969  -6.7945  -6.7674  -6.7056  -2.2795   2.4078   5.1478
     5.3554   9.4676  10.1492  14.6250  15.1990  16.1826  18.0231  19.9757
    20.5451  21.2094

          k = 0.8333-0.1667 0.8333 (  2450 PWs)   bands (ev):

    -7.0216  -6.7998  -6.7912  -6.7635  -6.7071  -1.9799   2.0042   4.6323
     5.3493   9.5921  10.7495  14.4474  15.0619  16.7616  18.1733  19.2487
    20.0954  21.1212

          k = 0.7500-0.0833 0.7500 (  2455 PWs)   bands (ev):

    -7.0153  -6.8079  -6.7935  -6.7554  -6.7130  -1.8295   1.8431   4.1979
     5.4749   9.7245  11.6859  14.4483  14.6689  15.8447  17.3408  19.8930
    20.9830  21.1501

          k = 0.6667-0.0000 0.6667 (  2440 PWs)   bands (ev):

    -7.0033  -6.8178  -6.8013  -6.7447  -6.7207  -1.9127   1.9430   4.0477
     5.7150   9.9424  12.3685  14.0970  14.3712  15.2116  16.5136  20.4451
    21.2725  21.4721

          k = 0.0000 0.8333 0.0000 (  2446 PWs)   bands (ev):

    -7.0333  -6.7850  -6.7850  -6.7744  -6.7020  -2.0373   2.0428   5.1879
     5.1879   9.1891   9.7677  15.9047  16.0545  16.0545  18.0072  19.9455
    19.9455  20.9304

          k = 0.9167-0.0833 0.9167 (  2462 PWs)   bands (ev):

    -7.0370  -6.7855  -6.7816  -6.7730  -6.7020  -1.8318   1.7802   4.9055
     5.1519   9.3114   9.8812  15.7120  16.1572  16.8062  18.2221  19.1832
    19.4823  21.2181

          k = 0.8333 0.0000 0.8333 (  2448 PWs)   bands (ev):

    -7.0298  -6.7943  -6.7844  -6.7662  -6.7063  -1.7521   1.7353   4.4570
     5.2520   9.4907  10.6588  15.3190  15.5713  16.2596  17.8167  19.4896
    20.1395  21.8296

          k = 0.0000-1.0000 0.0000 (  2450 PWs)   bands (ev):

    -7.0429  -6.7783  -6.7783  -6.7780  -6.6999  -1.7700   1.6698   5.0832
     5.0832   9.1327   9.5945  16.4254  16.7787  16.7787  18.1515  19.0948
    19.0948  20.6243

          k =-0.1667 0.3333 0.0000 (  2472 PWs)   bands (ev):

    -6.9251  -6.8534  -6.8495  -6.7395  -6.7246  -3.5496   4.7220   6.2643
     6.8150   9.8349  10.8985  12.4154  12.5975  14.9064  16.6199  17.8048
    18.7571  19.9177

          k =-0.2500 0.4167-0.0833 (  2467 PWs)   bands (ev):

    -6.9472  -6.8445  -6.8398  -6.7403  -6.7217  -3.2113   3.7827   5.8103
     6.6111   9.9996  11.2559  12.6320  12.8210  15.0993  16.9107  17.9048
    19.4981  21.2656

          k =-0.3333 0.5000-0.1667 (  2460 PWs)   bands (ev):

    -6.9672  -6.8379  -6.8319  -6.7375  -6.7195  -2.8003   2.8346   5.5305
     6.3625   9.9278  11.6679  12.6987  13.2065  15.6997  17.3816  17.8975
    19.8491  21.6304

          k = 0.5833-0.4167 0.7500 (  2453 PWs)   bands (ev):

    -6.9813  -6.8347  -6.8268  -6.7320  -6.7191  -2.4205   2.0986   5.3846
     6.1696   9.8427  11.7081  12.7569  13.9490  16.3650  17.4682  18.3206
    19.0392  20.9304

          k = 0.5000-0.3333 0.6667 (  2454 PWs)   bands (ev):

    -6.9864  -6.8339  -6.8252  -6.7285  -6.7200  -2.2536   1.8083   5.3405
     6.0972   9.8098  11.6825  12.7533  14.4553  16.5328  17.5394  18.2244
    18.9656  20.7771

          k =-0.1667 0.5000 0.0000 (  2467 PWs)   bands (ev):

    -6.9650  -6.8318  -6.8284  -6.7494  -6.7167  -3.0959   3.7327   5.6864
     6.1485  10.2535  10.5248  12.9261  13.5812  14.9017  17.3018  18.9885
    19.6108  21.2680

          k =-0.2500 0.5833-0.0833 (  2451 PWs)   bands (ev):

    -6.9815  -6.8268  -6.8184  -6.7494  -6.7146  -2.7203   2.9781   5.2401
     5.9320  10.2865  11.0133  12.7036  13.9357  15.6107  17.9485  18.8454
    19.9080  21.2684

          k = 0.6667-0.3333 0.8333 (  2449 PWs)   bands (ev):

    -6.9918  -6.8260  -6.8123  -6.7453  -6.7150  -2.3384   2.2948   4.9171
     5.7665  10.2553  11.5577  12.8012  14.0224  16.2748  18.4642  18.5255
    19.2812  20.9414

          k = 0.5833-0.2500 0.7500 (  2451 PWs)   bands (ev):

    -6.9951  -6.8275  -6.8106  -6.7392  -6.7184  -2.1006   1.9104   4.7044
     5.7465  10.2816  11.6841  13.1954  14.2812  15.9779  17.9976  18.7049
    19.2838  21.1714

          k = 0.5000-0.1667 0.6667 (  2449 PWs)   bands (ev):

    -6.9911  -6.8295  -6.8130  -6.7360  -6.7218  -2.1588   2.0062   4.6261
     5.8785  10.3682  11.7193  13.0930  14.2832  15.8777  17.2864  18.7554
    19.8684  21.5472

          k = 0.4167-0.0833 0.5833 (  2455 PWs)   bands (ev):

    -6.9807  -6.8321  -6.8197  -6.7387  -6.7213  -2.4696   2.5157   4.7374
     6.1219  10.4660  11.7797  12.5438  13.7819  15.6366  17.8228  18.8888
    19.3288  21.2222

          k = 0.3333 0.0000 0.5000 (  2460 PWs)   bands (ev):

    -6.9655  -6.8364  -6.8296  -6.7412  -6.7205  -2.8613   3.1810   5.1200
     6.4042  10.4254  11.4631  12.4025  13.3121  15.2041  17.8558  18.7914
    19.1679  20.7082

          k =-0.1667 0.6667-0.0000 (  2450 PWs)   bands (ev):

    -7.0018  -6.8105  -6.8047  -6.7603  -6.7095  -2.5379   2.7971   5.2304
     5.5388   9.8734  10.4288  13.5830  14.8412  15.6597  17.9971  19.8159
    20.5583  21.2637

          k = 0.7500-0.2500 0.9167 (  2450 PWs)   bands (ev):

    -7.0096  -6.8106  -6.7977  -6.7583  -6.7098  -2.1895   2.2784   4.7915
     5.3727  10.0539  10.8785  13.3718  15.0589  16.2823  18.6021  18.9525
    20.2840  20.8309

          k = 0.6667-0.1667 0.8333 (  2456 PWs)   bands (ev):

    -7.0093  -6.8153  -6.7958  -6.7522  -6.7140  -1.9349   1.9415   4.3897
     5.3733  10.1443  11.6859  13.3136  14.8489  16.0138  18.2006  19.0678
    20.3243  21.0248

          k = 0.5833-0.0833 0.7500 (  2453 PWs)   bands (ev):

    -7.0028  -6.8215  -6.7989  -6.7447  -6.7202  -1.9122   1.9239   4.1703
     5.5318  10.3063  12.1717  13.3113  14.7344  15.3143  17.1845  19.8986
    20.5740  21.6622

          k = 0.5000 0.0000 0.6667 (  2454 PWs)   bands (ev):

    -6.9928  -6.8273  -6.8073  -6.7395  -6.7236  -2.1329   2.1826   4.2576
     5.8050  10.5020  12.2426  12.6461  14.5098  15.5243  16.8167  19.9903
    20.4428  21.1025

          k = 0.8333-0.1667 1.0000 (  2451 PWs)   bands (ev):

    -7.0270  -6.7941  -6.7876  -6.7680  -6.7047  -2.0017   2.0308   4.9625
     5.1122   9.6338  10.1217  14.6325  15.9847  16.3884  18.4626  19.1698
    19.9712  21.5302

          k = 0.7500-0.0833 0.9167 (  2454 PWs)   bands (ev):

    -7.0251  -6.8000  -6.7860  -6.7630  -6.7080  -1.7990   1.8147   4.5340
     5.0802   9.8733  10.7251  14.4247  15.3940  16.6383  18.3453  19.0940
    19.9246  21.9373

          k = 0.6667 0.0000 0.8333 (  2460 PWs)   bands (ev):

    -7.0156  -6.8107  -6.7894  -6.7550  -6.7143  -1.7664   1.8146   4.1725
     5.2445  10.0630  11.6960  14.1018  14.5321  16.1168  17.5588  19.8652
    20.5999  21.7316

          k =-0.1667-1.0000-0.0000 (  2456 PWs)   bands (ev):

    -7.0360  -6.7876  -6.7828  -6.7697  -6.7032  -1.7527   1.7034   4.9147
     4.9208   9.5618   9.9825  15.6226  15.7567  17.0928  18.3738  19.0898
    19.2077  21.5362

          k = 0.6667-0.3333 1.0000 (  2461 PWs)   bands (ev):

    -6.9935  -6.8241  -6.8072  -6.7495  -6.7152  -2.3651   2.5039   4.7092
     5.6708  10.8328  11.0981  12.4082  14.7594  15.6353  18.3365  19.0090
    19.9932  20.9984

          k = 0.5833-0.2500 0.9167 (  2448 PWs)   bands (ev):

    -7.0002  -6.8241  -6.7996  -6.7466  -6.7178  -2.0471   2.0836   4.4138
     5.4210  10.9149  11.5686  12.5290  15.0118  15.6048  17.7786  19.4686
    20.2107  21.1730

          k = 0.5000-0.1667 0.8333 (  2454 PWs)   bands (ev):

    -7.0023  -6.8245  -6.7972  -6.7446  -6.7196  -1.9118   1.9055   4.3256
     5.3215  10.9253  11.6152  12.9938  14.7471  15.4408  18.3640  18.8191
    20.1546  21.7148

          k = 0.6667-0.1667 1.0000 (  2454 PWs)   bands (ev):

    -7.0134  -6.8129  -6.7902  -6.7562  -6.7125  -1.9141   1.9866   4.5276
     5.0228  10.7107  10.9682  13.1222  15.3048  16.2536  18.3070  19.4039
    20.0014  21.4130

          k = 0.5833-0.0833 0.9167 (  2455 PWs)   bands (ev):

    -7.0114  -6.8177  -6.7879  -6.7517  -6.7167  -1.7654   1.8495   4.3001
     4.9059  10.9300  11.6957  13.0169  14.2585  16.5997  18.5338  18.9536
    20.2092  21.6053

          k = 0.5000 0.0000 0.8333 (  2452 PWs)   bands (ev):

    -7.0064  -6.8219  -6.7909  -6.7480  -6.7194  -1.8216   1.9079   4.2063
     5.0831  11.0774  11.9524  12.6466  14.3282  16.2030  17.7837  19.8873
    20.2471  21.4631

          k =-0.3333-1.0000 0.0000 (  2450 PWs)   bands (ev):

    -7.0204  -6.8079  -6.7848  -6.7582  -6.7118  -1.7175   1.7763   4.6090
     4.6417  10.6240  10.9099  14.0717  14.3714  17.2828  18.5080  19.2298
    19.3004  22.1129

          k =-0.5000-1.0000 0.0000 (  2468 PWs)   bands (ev):

    -7.0116  -6.8193  -6.7853  -6.7511  -6.7180  -1.6996   1.8163   4.4664
     4.5183  11.6238  11.6262  12.8545  13.5477  17.3470  18.5422  19.3011
    19.3365  21.8047

     the Fermi energy is     7.6136 ev

!    total energy              =    -117.81342005 Ry
     estimated scf accuracy    <          7.4E-11 Ry
     smearing contrib. (-TS)   =      -0.00000000 Ry
     internal energy E=F+TS    =    -117.81342005 Ry

     The total energy is F=E-TS. E is the sum of the following terms:
     one-electron contribution =     -41.93934996 Ry
     hartree contribution      =      30.56710066 Ry
     xc contribution           =     -17.37349906 Ry
     ewald contribution        =     -89.06767169 Ry

     convergence has been achieved in   8 iterations

     Writing all to output data dir out/mp-20351.save/
 
     init_run     :      0.24s CPU      0.35s WALL (       1 calls)
     electrons    :      4.53s CPU      5.21s WALL (       1 calls)

     Called by init_run:
     wfcinit      :      0.22s CPU      0.30s WALL (       1 calls)
     potinit      :      0.01s CPU      0.01s WALL (       1 calls)
     hinit0       :      0.01s CPU      0.03s WALL (       1 calls)

     Called by electrons:
     c_bands      :      3.93s CPU      4.40s WALL (       9 calls)
     sum_band     :      0.55s CPU      0.66s WALL (       9 calls)
     v_of_rho     :      0.03s CPU      0.03s WALL (       9 calls)
     mix_rho      :      0.03s CPU      0.03s WALL (       9 calls)

     Called by c_bands:
     init_us_2    :      0.04s CPU      0.05s WALL (     684 calls)
     init_us_2:cp :      0.04s CPU      0.04s WALL (     684 calls)
     cegterg      :      3.17s CPU      3.35s WALL (     324 calls)

     Called by *egterg:
     cdiaghg      :      0.53s CPU      0.56s WALL (    1468 calls)
     h_psi        :      2.55s CPU      2.71s WALL (    1540 calls)
     g_psi        :      0.02s CPU      0.02s WALL (    1180 calls)

     Called by h_psi:
     h_psi:calbec :      0.07s CPU      0.07s WALL (    1540 calls)
     vloc_psi     :      2.43s CPU      2.58s WALL (    1540 calls)
     add_vuspsi   :      0.04s CPU      0.05s WALL (    1540 calls)

     General routines
     calbec       :      0.07s CPU      0.07s WALL (    1540 calls)
     fft          :      0.01s CPU      0.03s WALL (      90 calls)
     ffts         :      0.00s CPU      0.00s WALL (       9 calls)
     fftw         :      2.64s CPU      2.82s WALL (   42280 calls)
     davcio       :      0.05s CPU      0.33s WALL (    1112 calls)
 
     Parallel routines
 
     PWSCF        :      5.07s CPU      6.69s WALL

 
   This run was terminated on:   2:32: 3  18Nov2023            

=------------------------------------------------------------------------------=
   JOB DONE.
=------------------------------------------------------------------------------=
