
     Program PWSCF v.7.1 starts on  6Apr2024 at 22:33:23 

     This program is part of the open-source Quantum ESPRESSO suite
     for quantum simulation of materials; please cite
         "P. Giannozzi et al., J. Phys.:Condens. Matter 21 395502 (2009);
         "P. Giannozzi et al., J. Phys.:Condens. Matter 29 465901 (2017);
         "P. Giannozzi et al., J. Chem. Phys. 152 154105 (2020);
          URL http://www.quantum-espresso.org", 
     in publications or presentations arising from this work. More details at
     http://www.quantum-espresso.org/quote

     Parallel version (MPI), running on     8 processors

     MPI processes distributed on     1 nodes
     239935 MiB available memory on the printing compute node when the environment starts
 
     Reading input from pw_Sb_nscf_k0_E45.in
Warning: card &IONS ignored
Warning: card / ignored
Warning: card &CELL ignored
Warning: card / ignored

     Current dimensions of program PWSCF are:
     Max number of different atomic species (ntypx) = 10
     Max number of k-points (npk) =  40000
     Max angular momentum in pseudopotentials (lmaxx) =  4

     Atomic positions and unit cell read from directory:
     out/Sb.save/
     Atomic positions from file used, from input discarded
 
 
     R & G space division:  proc/nbgrp/npool/nimage =       8
     Subspace diagonalization in iterative solution of the eigenvalue problem:
     one sub-group per band group will be used
     scalapack distributed-memory algorithm (size of sub-group:  2*  2 procs)

 
     Parallelization info
     --------------------
     sticks:   dense  smooth     PW     G-vecs:    dense   smooth      PW
     Min          93      93     23                10817    10817    1347
     Max          94      94     24                10844    10844    1366
     Sum         745     745    187                86573    86573   10857
 
     Using Slab Decomposition
 


     bravais-lattice index     =            4
     lattice parameter (alat)  =       7.7553  a.u.
     unit-cell volume          =    2121.0124 (a.u.)^3
     number of atoms/cell      =            2
     number of atomic types    =            1
     number of electrons       =        30.00
     number of Kohn-Sham states=         1200
     kinetic-energy cutoff     =      45.0000  Ry
     charge density cutoff     =     180.0000  Ry
     Exchange-correlation= PBE
                           (   1   4   3   4   0   0   0)

     celldm(1)=   7.755267  celldm(2)=   0.000000  celldm(3)=   5.250762
     celldm(4)=   0.000000  celldm(5)=   0.000000  celldm(6)=   0.000000

     crystal axes: (cart. coord. in units of alat)
               a(1) = (   1.000000   0.000000   0.000000 )  
               a(2) = (  -0.500000   0.866025   0.000000 )  
               a(3) = (   0.000000   0.000000   5.250762 )  

     reciprocal axes: (cart. coord. in units 2 pi/alat)
               b(1) = (  1.000000  0.577350  0.000000 )  
               b(2) = (  0.000000  1.154701  0.000000 )  
               b(3) = (  0.000000  0.000000  0.190449 )  


     PseudoPot. # 1 for Sb read from file:
     /usr/scratch4/magr4985/FGWC/FGWC/pseudo/SG15/Sb.upf
     MD5 check sum: 0417cd6c0fe8ce4611e2b23135f1abd9
     Pseudo is Norm-conserving, Zval = 15.0
     Generated using ONCVPSP code by D. R. Hamann
     Using radial grid of  602 points,  6 beta functions with: 
                l(1) =   0
                l(2) =   0
                l(3) =   1
                l(4) =   1
                l(5) =   2
                l(6) =   2

     atomic species   valence    mass     pseudopotential
        Sb            15.00   121.76000     Sb( 1.00)

     12 Sym. Ops., with inversion, found



   Cartesian axes

     site n.     atom                  positions (alat units)
         1           Sb  tau(   1) = (   0.5000000   0.2886752   2.4245708  )
         2           Sb  tau(   2) = (   0.0000000   0.5773502   2.8261916  )

     number of k points=     1  Gaussian smearing, width (Ry)=  0.0005
                       cart. coord. in units 2pi/alat
        k(    1) = (   0.0000000   0.0000000   0.0000000), wk =   2.0000000

     Dense  grid:    86573 G-vectors     FFT dimensions: (  36,  36, 180)

     Estimated max dynamical RAM per process >     195.60 MB

     Estimated total dynamical RAM >       1.53 GB

     The potential is recalculated from file :
     out/Sb.save/charge-density

     Starting wfcs are random

     Band Structure Calculation
     Davidson diagonalization with overlap

     ethr =  5.00E-06,  avg # of iterations = 10.0

     total cpu time spent up to now is       81.8 secs

     End of band structure calculation

          k = 0.0000 0.0000 0.0000 ( 10857 PWs)   bands (ev):

   -30.2840 -30.2840 -30.2114 -30.2114 -30.1493 -30.0998 -30.0998 -30.0477
   -30.0160 -30.0160 -12.9650  -7.9787  -2.2960  -1.6170  -1.6170  -0.0318
     1.1543   1.1543   2.6650   2.8841   3.5730   4.0602   5.1061   5.6878
     5.8833   6.5295   6.5295   7.3624   7.4994   8.3008   8.3008   8.8555
     8.9107  11.2962  11.2962  11.3494  11.7648  12.1801  12.1801  12.4712
    13.3674  13.9559  13.9559  14.4891  14.4891  14.5011  14.7012  14.9754
    14.9796  14.9796  15.0434  15.0434  15.1301  15.4935  15.6956  15.7008
    15.7008  15.7089  15.7089  15.8604  15.8604  15.9562  15.9562  16.0640
    16.1949  16.2434  16.2883  17.4306  17.4306  17.5381  17.5632  17.5632
    17.7736  17.7736  17.8539  17.8539  17.9209  18.1293  18.2839  19.8977
    19.9792  19.9792  20.1752  20.1752  20.3441  20.4874  20.4874  20.5194
    20.5194  20.7212  20.9981  21.1121  21.1283  22.4837  23.2127  23.2127
    23.4173  23.4173  23.5844  23.8155  23.8959  23.8959  23.9157  23.9157
    24.3614  24.5152  25.1679  25.1679  25.8481  25.8481  25.9431  26.2137
    27.3119  27.3119  27.4290  27.4965  27.4965  27.6228  27.9230  27.9663
    27.9663  28.0230  28.0230  28.3794  28.6223  29.6402  30.8341  30.8341
    30.8412  30.8875  30.8875  31.8837  31.8837  32.0626  32.2883  32.2883
    32.4399  32.4399  32.6828  32.6855  32.9110  32.9110  33.0811  33.5517
    33.7592  33.7592  33.8673  33.8806  34.6182  35.1496  35.2772  35.5893
    35.5893  36.5328  36.5328  37.6298  37.6298  37.6367  37.8067  37.9299
    37.9299  38.0470  38.0470  38.1682  38.1682  38.2474  38.2474  38.2584
    38.4225  38.4225  38.4998  38.4998  38.6205  38.6323  38.7790  38.8542
    38.8542  38.9115  38.9115  38.9446  39.0780  39.3543  39.4361  39.4361
    39.4587  39.5014  39.5056  39.5671  39.6437  39.6437  39.7337  39.7337
    39.8355  39.8355  40.1399  41.0154  41.0154  41.2537  41.3421  41.3981
    41.4665  41.4665  41.5405  41.5405  41.7308  41.7308  41.9152  42.7500
    42.7500  42.7838  42.7838  42.9763  43.2302  43.2302  43.6920  43.6920
    43.8582  43.9458  43.9718  44.0798  44.0798  44.2177  44.2177  44.2571
    44.2793  44.3923  44.3923  44.5242  44.5242  44.5252  44.5252  44.6522
    44.6522  44.6645  44.8884  45.5762  45.6345  45.9850  45.9850  46.2777
    46.6553  46.9321  46.9321  47.2130  47.2346  47.2923  47.4991  47.4991
    47.5100  47.7769  47.7769  47.9605  48.0209  48.0209  48.1153  48.1153
    48.7871  49.6861  49.6861  49.8454  50.1369  50.1369  50.1779  50.1779
    50.3517  50.3517  50.4443  50.5933  50.5933  50.6051  50.6254  50.6723
    50.6723  50.6891  50.6891  50.7840  50.8083  50.8083  51.1680  51.1680
    51.1865  51.2937  51.3006  51.3778  51.4253  51.4728  51.4728  51.6385
    51.6385  51.6441  51.7043  51.7043  51.7415  51.7415  51.7557  51.7976
    51.7976  51.8290  51.9413  52.0919  52.0919  52.1259  52.1259  52.4167
    52.8620  53.1399  53.1399  53.1796  53.2728  53.4735  53.4735  53.5842
    53.5842  53.7037  53.7037  53.8611  53.9674  54.3233  54.6087  55.0034
    55.0034  55.7687  55.7777  55.7777  55.8106  55.8150  55.8150  55.8987
    55.8987  55.9120  56.0208  56.1827  56.2241  56.2241  56.4204  56.4204
    56.4542  56.4542  56.6149  56.6149  56.6714  56.9719  57.1698  57.6502
    57.6502  57.8522  57.8522  58.0490  58.0490  58.1657  58.5327  58.5327
    58.6609  58.9807  58.9807  59.0911  59.1628  59.4415  59.4772  59.4772
    59.5187  59.6603  59.6603  59.6869  59.6869  60.2914  60.2930  60.8624
    61.0691  61.0691  61.1057  61.3380  61.3380  61.4854  61.4854  61.8748
    61.8748  62.1344  62.4834  62.6213  62.6275  62.6943  63.2717  63.2717
    63.3110  63.3160  63.3160  63.3279  63.6786  63.6786  63.7585  63.7585
    64.1576  64.3372  64.4742  64.8206  64.8206  64.8516  64.8516  65.6903
    66.0081  66.0081  66.2566  66.2566  66.7394  66.8317  66.8317  67.0630
    67.1639  67.1639  67.2790  67.5281  67.5281  67.6323  67.8422  67.8422
    67.9164  67.9839  68.2661  68.2800  68.2800  68.3018  68.3262  68.3262
    68.5053  68.5221  68.5221  68.6774  68.8366  68.9089  68.9089  70.1511
    70.1511  70.2695  70.3781  70.3781  70.9238  71.2901  71.2901  71.6014
    72.3252  72.5707  72.5707  72.6148  72.6148  73.2545  73.2545  73.3499
    73.8797  73.8797  73.8871  73.8871  73.9986  74.0382  74.0750  74.1544
    74.4692  74.4697  74.4697  74.5247  74.5247  74.5801  74.6052  74.6052
    75.1131  75.1131  75.1468  75.3056  75.3057  75.4108  75.5773  75.6875
    75.6875  75.7228  75.7228  75.8566  75.8566  76.2166  76.3346  76.4147
    76.4147  76.4952  77.4368  77.4368  77.4891  77.5623  77.5623  78.0911
    78.0911  78.3573  78.8591  79.0240  79.2162  79.2162  79.2891  79.2891
    79.7453  79.8347  80.4552  80.4552  80.5881  80.5881  80.8713  80.8713
    80.9232  81.1685  81.1750  81.1750  81.4307  81.5850  81.5850  81.8270
    81.9731  81.9731  82.0186  82.0186  82.3731  82.4406  82.5516  82.8995
    82.9852  83.0580  83.3081  83.3081  83.3791  83.3791  83.4272  83.4272
    83.8851  83.8851  83.9797  84.1442  84.1442  84.2496  84.7176  84.7176
    84.7447  84.7447  84.7557  85.0462  85.3763  85.4220  85.4220  85.4361
    85.5043  85.5299  85.5299  85.6184  85.6184  85.7549  85.9831  85.9831
    86.1540  86.1540  86.1871  86.1871  86.1982  86.2672  86.2865  86.3711
    86.3711  86.3975  86.3975  86.4246  86.4341  86.4411  86.4582  86.4582
    86.5406  86.5406  86.5714  86.5714  86.6853  86.7995  86.7995  86.8332
    86.9016  86.9108  86.9807  87.0849  87.0849  87.1178  87.1178  87.1413
    87.1692  87.1692  87.2234  87.2490  87.2490  87.2682  87.2747  87.2788
    87.2788  87.2821  87.2821  87.5013  87.5013  87.5873  87.5873  88.0559
    88.1964  88.4472  88.4799  88.5108  88.5108  88.5263  88.5548  88.6945
    88.6945  88.7561  88.7561  88.8904  88.8904  89.0356  89.0356  89.0487
    89.0487  89.1303  89.1536  89.1816  89.1816  89.4389  89.4389  89.4943
    89.4943  89.5989  89.7175  89.7175  89.8126  89.8635  89.8635  89.9609
    89.9671  90.3250  90.3719  90.4837  90.4837  90.5808  90.9975  90.9975
    91.2545  91.2971  91.2976  91.2976  91.4178  91.5170  91.5170  91.5309
    91.5309  91.7857  91.7857  91.7911  91.7911  91.7996  91.8208  91.8434
    92.0300  92.0737  92.0737  92.2192  92.2192  92.3869  92.3869  92.5016
    92.7191  92.7420  92.7939  92.7939  93.1398  93.2105  93.2105  93.2850
    93.5379  93.5379  93.6526  93.7042  93.9965  93.9965  94.0581  94.1388
    94.1388  94.3243  94.3368  94.4414  94.4414  94.4919  94.4919  94.6602
    94.6602  94.6914  94.7130  94.7130  94.9366  94.9366  94.9814  95.0051
    95.0051  95.0260  95.0260  95.2126  95.2126  95.2126  95.2377  95.2608
    95.2608  95.3380  95.4409  95.6645  95.6645  95.7040  95.7138  95.7138
    96.2081  96.5802  96.7418  96.7418  96.8046  97.3733  97.3733  97.5645
    97.5645  97.8853  97.8994  97.9139  98.0247  98.0247  98.1209  98.1209
    98.4070  98.7541  98.7541  98.8173  98.8429  98.8429  98.9880  98.9880
    99.0650  99.0650  99.1271  99.1271  99.1512  99.1712  99.1952  99.3274
    99.3376  99.4477  99.4477  99.5101  99.7680  99.7680  99.9461 100.0760
   100.0760 100.2904 100.2904 100.7543 100.8496 100.8972 101.0073 101.0073
   101.1656 101.1656 101.1664 101.5102 101.5102 101.5877 101.8771 101.9881
   101.9881 102.0724 102.4406 102.4406 102.4618 102.9134 102.9308 103.0110
   103.0164 103.1383 103.1383 103.3457 103.4730 103.4730 103.6376 103.6376
   103.7422 103.7792 103.7792 103.9540 103.9540 104.0905 104.1035 104.1286
   104.1286 104.2361 104.2361 104.5447 104.5447 104.6928 104.6928 104.9459
   104.9459 104.9852 105.2585 105.2585 105.2694 105.2694 105.4853 105.6499
   105.7885 105.8124 105.8124 106.1668 106.3306 106.4320 106.4707 106.4707
   106.5527 106.5527 107.1225 107.2202 107.2202 107.3895 107.4060 107.4060
   107.5600 107.6098 107.7678 107.8571 107.8571 108.3907 108.3907 108.7996
   108.7996 108.8447 108.8467 108.8695 108.9015 108.9015 108.9524 108.9711
   109.0901 109.0901 109.2850 109.2850 109.3474 109.3474 109.5115 109.5722
   109.5740 109.8209 109.8209 109.9130 109.9130 110.0289 110.0289 110.0685
   110.0685 110.0885 110.2278 110.2712 110.2712 110.3444 110.3444 110.4232
   110.5022 110.5315 110.5315 110.5692 110.6187 110.6187 110.7838 110.7838
   110.7877 110.8351 110.8351 110.9140 110.9140 110.9536 110.9865 111.0216
   111.0956 111.0956 111.2403 111.2781 111.2781 111.5303 111.5303 112.2358
   112.3188 112.3727 112.3727 112.4243 112.4493 112.7172 112.7172 112.7754
   112.8856 112.8856 112.9922 112.9922 113.1614 113.6286 113.6726 113.6972
   113.6972 114.0333 114.0730 114.0730 114.0803 114.0803 114.2705 114.3000
   114.3358 114.8143 114.8143 114.8664 115.0365 115.1454 115.1454 115.2038
   115.2038 115.2345 115.2345 115.2460 115.2460 115.4533 115.4533 115.4972
   115.5628 115.5628 115.6066 115.6305 115.6561 115.8438 115.8438 115.8765
   115.8765 115.9056 116.0655 116.0655 116.0880 116.0880 116.3834 116.6402
   116.6402 116.8939 116.8939 117.0579 117.3163 117.3163 117.5068 117.5511
   117.5511 117.7091 117.7760 117.7760 117.8103 117.8103 117.8219 118.0114
   118.0569 118.1690 118.2011 118.2035 118.3023 118.4058 118.4058 118.4398
   118.4398 118.6676 118.6676 118.7689 118.7689 119.2952 119.3567 119.3567
   119.6721 119.7360 119.7360 119.7366 119.7366 119.8173 120.0558 120.0622
   120.2440 120.2440 120.3457 120.3835 120.3835 120.7021 120.7021 120.9255
   121.0830 121.1464 121.2587 121.2587 121.3490 121.5558 121.7636 121.7636
   121.9297 121.9297 122.2848 122.2848 122.3789 122.3789 122.4034 122.4302
   122.5109 122.5109 122.5493 122.7317 122.7317 122.7386 122.7483 122.7483
   123.2499 123.2564 123.2564 123.2643 123.3017 123.3017 123.6379 123.6379
   123.8880 123.9710 124.0093 124.0093 124.1485 124.1555 125.1101 125.4411
   125.4411 125.4631 125.4631 125.6635 125.9505 126.1761 126.1761 126.4499
   126.4499 126.8045 126.8311 127.1342 127.1342 127.1418 127.1418 127.3700
   127.3700 127.5151 127.5151 127.8050 127.8222 127.9732 128.2523 128.2523
   128.2642 128.3103 128.3103 128.4122 128.4448 128.4448 128.5048 129.0159
   129.0159 129.0225 129.0225 129.2176 129.2176 129.3413 129.4152 129.4417
   129.4758 129.5090 129.5090 129.5927 129.5927 129.7014 129.7014 129.7298
   129.7298 129.7805 129.7850 129.9741 129.9900 130.2578 130.2578 130.2967
   130.2967 130.4004 130.4034 130.4218 130.4218 130.6171 130.6322 130.6861
   130.6861 130.7272 130.7272 131.1789 131.1789 131.4774 131.4774 131.7236
   132.0088 132.0088 132.0564 132.1912 132.3856 132.9803 132.9803 133.0875
   133.7114 133.7114 133.9239 134.2208 134.2208 134.6988 134.9433 134.9806
   134.9806 135.2514 135.2514 135.5445 135.5445 135.7588 135.9660 136.0515
   136.1101 136.1101 136.3359 136.3708 136.3708 136.3881 136.6227 136.7408
   136.9167 136.9167 137.0497 137.6320 137.6320 137.7170 137.7170 137.8432
   137.9090 138.0350 138.0350 138.0686 138.1186 138.1186 138.4045 138.4045
   138.5833 138.5833 138.6986 138.6986 138.8344 139.0453 139.0453 139.0527
   139.1776 139.1776 139.2540 139.2540 139.3676 139.3729 139.4785 139.5169
   139.5169 139.8243 139.8243 139.8766 139.8766 140.2668 140.2668 140.3397
   140.3448 140.5054 140.5320 140.6061 140.6061 140.6881 140.6881 140.7061
   140.7188 141.0010 141.0010 141.0710 141.1481 141.1481 141.2793 141.3497
   141.3497 141.3805 141.4014 141.4691 141.4691 141.5004 141.6239 141.6239

     the Fermi energy is    -0.7783 ev
     (compare with:    -0.7064 eV, computed in scf)

     Writing all to output data dir out/Sb.save/
 
     init_run     :      0.22s CPU      0.26s WALL (       1 calls)
     electrons    :     79.19s CPU     81.32s WALL (       1 calls)

     Called by init_run:
     wfcinit      :      0.00s CPU      0.00s WALL (       1 calls)
     potinit      :      0.03s CPU      0.04s WALL (       1 calls)
     hinit0       :      0.02s CPU      0.04s WALL (       1 calls)

     Called by electrons:
     c_bands      :     79.19s CPU     81.31s WALL (       1 calls)
     v_of_rho     :      0.03s CPU      0.03s WALL (       1 calls)

     Called by c_bands:
     init_us_2    :      0.00s CPU      0.00s WALL (       1 calls)
     init_us_2:cp :      0.00s CPU      0.00s WALL (       1 calls)
     cegterg      :     76.89s CPU     78.94s WALL (       1 calls)

     Called by *egterg:
     cdiaghg      :     65.51s CPU     67.45s WALL (      11 calls)
     h_psi        :      2.61s CPU      2.64s WALL (      12 calls)
     g_psi        :      0.02s CPU      0.02s WALL (      10 calls)

     Called by h_psi:
     h_psi:calbec :      0.06s CPU      0.06s WALL (      12 calls)
     vloc_psi     :      2.48s CPU      2.50s WALL (      12 calls)
     add_vuspsi   :      0.05s CPU      0.05s WALL (      12 calls)

     General routines
     calbec       :      0.06s CPU      0.06s WALL (      12 calls)
     fft          :      0.02s CPU      0.04s WALL (      10 calls)
     fftw         :      2.20s CPU      2.23s WALL (   18466 calls)
 
     Parallel routines
 
     PWSCF        :   1m19.81s CPU   1m22.15s WALL

 
   This run was terminated on:  22:34:45   6Apr2024            

=------------------------------------------------------------------------------=
   JOB DONE.
=------------------------------------------------------------------------------=
