
     Program PWSCF v.7.1 starts on 14Apr2024 at  2:23:28 

     This program is part of the open-source Quantum ESPRESSO suite
     for quantum simulation of materials; please cite
         "P. Giannozzi et al., J. Phys.:Condens. Matter 21 395502 (2009);
         "P. Giannozzi et al., J. Phys.:Condens. Matter 29 465901 (2017);
         "P. Giannozzi et al., J. Chem. Phys. 152 154105 (2020);
          URL http://www.quantum-espresso.org", 
     in publications or presentations arising from this work. More details at
     http://www.quantum-espresso.org/quote

     Parallel version (MPI), running on    32 processors

     MPI processes distributed on     1 nodes
     245651 MiB available memory on the printing compute node when the environment starts
 
     Reading input from pw_Sb_scf_k3000_E45.in
Warning: card &CELL ignored
Warning: card / ignored

     Current dimensions of program PWSCF are:
     Max number of different atomic species (ntypx) = 10
     Max number of k-points (npk) =  40000
     Max angular momentum in pseudopotentials (lmaxx) =  4
 
     R & G space division:  proc/nbgrp/npool/nimage =      32
     Subspace diagonalization in iterative solution of the eigenvalue problem:
     a serial algorithm will be used

 
     Parallelization info
     --------------------
     sticks:   dense  smooth     PW     G-vecs:    dense   smooth      PW
     Min          23      23      6                 2697     2697     406
     Max          24      24      7                 2724     2724     437
     Sum         745     745    211                86573    86573   13467
 
     Using Slab Decomposition
 


     bravais-lattice index     =            4
     lattice parameter (alat)  =       7.7553  a.u.
     unit-cell volume          =    2121.0124 (a.u.)^3
     number of atoms/cell      =            2
     number of atomic types    =            1
     number of electrons       =        30.00
     number of Kohn-Sham states=           30
     kinetic-energy cutoff     =      45.0000  Ry
     charge density cutoff     =     180.0000  Ry
     scf convergence threshold =      1.0E-10
     mixing beta               =       0.7000
     number of iterations used =            8  plain     mixing
     Exchange-correlation= PBE
                           (   1   4   3   4   0   0   0)

     celldm(1)=   7.755267  celldm(2)=   0.000000  celldm(3)=   5.250762
     celldm(4)=   0.000000  celldm(5)=   0.000000  celldm(6)=   0.000000

     crystal axes: (cart. coord. in units of alat)
               a(1) = (   1.000000   0.000000   0.000000 )  
               a(2) = (  -0.500000   0.866025   0.000000 )  
               a(3) = (   0.000000   0.000000   5.250762 )  

     reciprocal axes: (cart. coord. in units 2 pi/alat)
               b(1) = (  1.000000  0.577350  0.000000 )  
               b(2) = (  0.000000  1.154701  0.000000 )  
               b(3) = (  0.000000  0.000000  0.190449 )  


     PseudoPot. # 1 for Sb read from file:
     /usr/scratch4/magr4985/FGWC/FGWC/pseudo/SG15/Sb.upf
     MD5 check sum: 0417cd6c0fe8ce4611e2b23135f1abd9
     Pseudo is Norm-conserving, Zval = 15.0
     Generated using ONCVPSP code by D. R. Hamann
     Using radial grid of  602 points,  6 beta functions with: 
                l(1) =   0
                l(2) =   0
                l(3) =   1
                l(4) =   1
                l(5) =   2
                l(6) =   2

     atomic species   valence    mass     pseudopotential
        Sb            15.00   121.76000     Sb( 1.00)

     12 Sym. Ops., with inversion, found



   Cartesian axes

     site n.     atom                  positions (alat units)
         1           Sb  tau(   1) = (   0.5000000   0.2886752   2.4245708  )
         2           Sb  tau(   2) = (   0.0000000   0.5773502   2.8261916  )

     number of k points=    44  Gaussian smearing, width (Ry)=  0.0018
                       cart. coord. in units 2pi/alat
        k(    1) = (   0.0000000   0.0000000   0.0000000), wk =   0.0050000
        k(    2) = (   0.0000000   0.0577350   0.0000000), wk =   0.0300000
        k(    3) = (   0.0000000   0.1154701   0.0000000), wk =   0.0300000
        k(    4) = (   0.0000000   0.1732051   0.0000000), wk =   0.0300000
        k(    5) = (   0.0000000   0.2309401   0.0000000), wk =   0.0300000
        k(    6) = (   0.0000000   0.2886751   0.0000000), wk =   0.0300000
        k(    7) = (   0.0000000   0.3464102   0.0000000), wk =   0.0300000
        k(    8) = (   0.0000000   0.4041452   0.0000000), wk =   0.0300000
        k(    9) = (   0.0000000   0.4618802   0.0000000), wk =   0.0300000
        k(   10) = (   0.0000000   0.5196152   0.0000000), wk =   0.0300000
        k(   11) = (   0.0000000  -0.5773503   0.0000000), wk =   0.0150000
        k(   12) = (   0.0500000   0.0866025   0.0000000), wk =   0.0300000
        k(   13) = (   0.0500000   0.1443376   0.0000000), wk =   0.0600000
        k(   14) = (   0.0500000   0.2020726   0.0000000), wk =   0.0600000
        k(   15) = (   0.0500000   0.2598076   0.0000000), wk =   0.0600000
        k(   16) = (   0.0500000   0.3175426   0.0000000), wk =   0.0600000
        k(   17) = (   0.0500000   0.3752777   0.0000000), wk =   0.0600000
        k(   18) = (   0.0500000   0.4330127   0.0000000), wk =   0.0600000
        k(   19) = (   0.0500000   0.4907477   0.0000000), wk =   0.0600000
        k(   20) = (   0.0500000   0.5484828   0.0000000), wk =   0.0600000
        k(   21) = (   0.1000000   0.1732051   0.0000000), wk =   0.0300000
        k(   22) = (   0.1000000   0.2309401   0.0000000), wk =   0.0600000
        k(   23) = (   0.1000000   0.2886751   0.0000000), wk =   0.0600000
        k(   24) = (   0.1000000   0.3464102   0.0000000), wk =   0.0600000
        k(   25) = (   0.1000000   0.4041452   0.0000000), wk =   0.0600000
        k(   26) = (   0.1000000   0.4618802   0.0000000), wk =   0.0600000
        k(   27) = (   0.1000000   0.5196152   0.0000000), wk =   0.0600000
        k(   28) = (   0.1000000   0.5773503   0.0000000), wk =   0.0300000
        k(   29) = (   0.1500000   0.2598076   0.0000000), wk =   0.0300000
        k(   30) = (   0.1500000   0.3175426   0.0000000), wk =   0.0600000
        k(   31) = (   0.1500000   0.3752777   0.0000000), wk =   0.0600000
        k(   32) = (   0.1500000   0.4330127   0.0000000), wk =   0.0600000
        k(   33) = (   0.1500000   0.4907477   0.0000000), wk =   0.0600000
        k(   34) = (   0.1500000   0.5484828   0.0000000), wk =   0.0600000
        k(   35) = (   0.2000000   0.3464102   0.0000000), wk =   0.0300000
        k(   36) = (   0.2000000   0.4041452   0.0000000), wk =   0.0600000
        k(   37) = (   0.2000000   0.4618802   0.0000000), wk =   0.0600000
        k(   38) = (   0.2000000   0.5196152   0.0000000), wk =   0.0600000
        k(   39) = (   0.2000000   0.5773503   0.0000000), wk =   0.0300000
        k(   40) = (   0.2500000   0.4330127   0.0000000), wk =   0.0300000
        k(   41) = (   0.2500000   0.4907477   0.0000000), wk =   0.0600000
        k(   42) = (   0.2500000   0.5484828   0.0000000), wk =   0.0600000
        k(   43) = (   0.3000000   0.5196152   0.0000000), wk =   0.0300000
        k(   44) = (   0.3000000   0.5773503   0.0000000), wk =   0.0300000

     Dense  grid:    86573 G-vectors     FFT dimensions: (  36,  36, 180)

     Estimated max dynamical RAM per process >       3.88 MB

     Estimated total dynamical RAM >     124.22 MB

     Initial potential from superposition of free atoms

     starting charge      29.8803, renormalised to      30.0000

     negative rho (up, down):  6.059E-04 0.000E+00
     Starting wfcs are random

     total cpu time spent up to now is        2.8 secs

     Self-consistent Calculation

     iteration #  1     ecut=    45.00 Ry     beta= 0.70
     Davidson diagonalization with overlap
     ethr =  1.00E-02,  avg # of iterations =  9.9

     Threshold (ethr) on eigenvalues was too large:
     Diagonalizing with lowered threshold

     Davidson diagonalization with overlap
     ethr =  9.90E-05,  avg # of iterations =  8.3

     negative rho (up, down):  3.104E-05 0.000E+00

     total cpu time spent up to now is        7.0 secs

     total energy              =    -282.12069656 Ry
     estimated scf accuracy    <       0.02040106 Ry

     iteration #  2     ecut=    45.00 Ry     beta= 0.70
     Davidson diagonalization with overlap
     ethr =  6.80E-05,  avg # of iterations =  2.6

     negative rho (up, down):  1.043E-05 0.000E+00

     total cpu time spent up to now is        8.1 secs

     total energy              =    -282.12311757 Ry
     estimated scf accuracy    <       0.00374013 Ry

     iteration #  3     ecut=    45.00 Ry     beta= 0.70
     Davidson diagonalization with overlap
     ethr =  1.25E-05,  avg # of iterations =  5.8

     negative rho (up, down):  1.583E-06 0.000E+00

     total cpu time spent up to now is        9.3 secs

     total energy              =    -282.12417399 Ry
     estimated scf accuracy    <       0.00088940 Ry

     iteration #  4     ecut=    45.00 Ry     beta= 0.70
     Davidson diagonalization with overlap
     ethr =  2.96E-06,  avg # of iterations =  6.2

     total cpu time spent up to now is       10.4 secs

     total energy              =    -282.12434443 Ry
     estimated scf accuracy    <       0.00000738 Ry

     iteration #  5     ecut=    45.00 Ry     beta= 0.70
     Davidson diagonalization with overlap
     ethr =  2.46E-08,  avg # of iterations =  2.3

     total cpu time spent up to now is       11.3 secs

     total energy              =    -282.12434572 Ry
     estimated scf accuracy    <       0.00000032 Ry

     iteration #  6     ecut=    45.00 Ry     beta= 0.70
     Davidson diagonalization with overlap
     ethr =  1.07E-09,  avg # of iterations =  2.2

     total cpu time spent up to now is       12.3 secs

     total energy              =    -282.12434582 Ry
     estimated scf accuracy    <          4.6E-09 Ry

     iteration #  7     ecut=    45.00 Ry     beta= 0.70
     Davidson diagonalization with overlap
     ethr =  1.52E-11,  avg # of iterations =  4.0

     total cpu time spent up to now is       13.2 secs

     total energy              =    -282.12434582 Ry
     estimated scf accuracy    <          2.1E-10 Ry

     iteration #  8     ecut=    45.00 Ry     beta= 0.70
     Davidson diagonalization with overlap
     ethr =  6.84E-13,  avg # of iterations =  2.1

     total cpu time spent up to now is       14.1 secs

     End of self-consistent calculation

          k = 0.0000 0.0000 0.0000 ( 10857 PWs)   bands (ev):

   -30.2840 -30.2840 -30.2114 -30.2114 -30.1493 -30.0998 -30.0998 -30.0477
   -30.0160 -30.0160 -12.9650  -7.9786  -2.2960  -1.6170  -1.6170  -0.0318
     1.1543   1.1543   2.6650   2.8841   3.5730   4.0602   5.1061   5.6878
     5.8833   6.5295   6.5295   7.3624   7.4994   8.3008

          k = 0.0000 0.0577 0.0000 ( 10847 PWs)   bands (ev):

   -30.2838 -30.2827 -30.2112 -30.2106 -30.1490 -30.1004 -30.0998 -30.0481
   -30.0175 -30.0161 -12.9380  -7.9765  -2.2834  -1.9411  -1.6824   0.2376
     1.0831   1.2171   2.7024   2.9159   3.6034   4.0912   5.1716   5.6827
     5.9101   6.3502   6.4965   7.2432   7.6170   8.3832

          k = 0.0000 0.1155 0.0000 ( 10845 PWs)   bands (ev):

   -30.2833 -30.2789 -30.2106 -30.2081 -30.1481 -30.1022 -30.0998 -30.0492
   -30.0218 -30.0163 -12.8575  -7.9745  -2.5676  -2.2492  -1.8548   0.4739
     1.1366   1.3754   2.8122   3.0058   3.6879   4.1831   5.1718   5.5764
     5.9875   6.4532   6.4770   6.8288   7.9639   8.4620

          k = 0.0000 0.1732 0.0000 ( 10843 PWs)   bands (ev):

   -30.2826 -30.2729 -30.2095 -30.2040 -30.1467 -30.1051 -30.0998 -30.0512
   -30.0286 -30.0165 -12.7244  -7.9858  -3.2213  -2.2065  -2.0859   0.2401
     1.5349   1.5650   2.9645   3.1561   3.8179   4.3235   4.9437   5.6240
     6.0924   6.4800   6.4932   7.0260   8.1462   8.5457

          k = 0.0000 0.2309 0.0000 ( 10814 PWs)   bands (ev):

   -30.2816 -30.2648 -30.2080 -30.1987 -30.1447 -30.1091 -30.0999 -30.0543
   -30.0372 -30.0169 -12.5406  -8.0338  -3.8068  -2.3340  -2.1816  -0.0690
     1.7284   1.8105   3.0967   3.3695   3.9968   4.4774   4.9201   5.6803
     6.1485   6.4602   6.6804   7.4813   8.0621   8.7868

          k = 0.0000 0.2887 0.0000 ( 10808 PWs)   bands (ev):

   -30.2805 -30.2553 -30.2059 -30.1922 -30.1424 -30.1141 -30.1003 -30.0597
   -30.0459 -30.0173 -12.3092  -8.1498  -4.2665  -2.5712  -2.2176  -0.3040
     1.8071   1.8355   3.2583   3.6006   4.2062   4.6811   5.0272   5.8537
     6.2685   6.6820   7.0403   7.2968   8.1796   8.9860

          k = 0.0000 0.3464 0.0000 ( 10802 PWs)   bands (ev):

   -30.2794 -30.2453 -30.2025 -30.1847 -30.1401 -30.1200 -30.1011 -30.0688
   -30.0520 -30.0178 -12.0358  -8.3585  -4.5631  -2.7805  -2.3537  -0.4011
     1.5936   1.8854   3.5224   3.7870   4.3817   4.9346   5.1273   6.3090
     6.4431   6.9200   7.1565   7.5663   7.9899   8.6257

          k = 0.0000 0.4041 0.0000 ( 10802 PWs)   bands (ev):

   -30.2783 -30.2364 -30.1968 -30.1767 -30.1387 -30.1267 -30.1023 -30.0800
   -30.0559 -30.0182 -11.7309  -8.6561  -4.6937  -2.9513  -2.5803  -0.3595
     1.3122   1.8954   3.7588   3.9049   4.5946   5.1950   5.4431   6.2733
     6.8986   7.1218   7.3282   7.6852   8.1247   8.2278

          k = 0.0000 0.4619 0.0000 ( 10834 PWs)   bands (ev):

   -30.2775 -30.2302 -30.1880 -30.1682 -30.1402 -30.1341 -30.1036 -30.0899
   -30.0585 -30.0186 -11.4165  -8.9988  -4.6969  -3.0772  -2.8381  -0.2300
     1.0434   1.8861   3.6199   4.3120   4.9315   5.4940   5.8703   6.1458
     6.6893   7.1117   7.4837   7.6409   8.0218   8.1996

          k = 0.0000 0.5196 0.0000 ( 10834 PWs)   bands (ev):

   -30.2770 -30.2268 -30.1771 -30.1598 -30.1459 -30.1419 -30.1037 -30.0969
   -30.0601 -30.0188 -11.1445  -9.3032  -4.6414  -3.1541  -3.0497  -0.0816
     0.8310   1.8740   3.4755   4.7812   5.2836   5.7062   6.0134   6.3317
     6.3619   6.7391   7.2534   7.5305   7.8556   8.1941

          k = 0.0000-0.5774 0.0000 ( 10818 PWs)   bands (ev):

   -30.2768 -30.2259 -30.1703 -30.1535 -30.1511 -30.1479 -30.1025 -30.1003
   -30.0607 -30.0189 -11.0249  -9.4362  -4.6084  -3.1800  -3.1343  -0.0083
     0.7404   1.8689   3.4193   5.1912   5.3181   5.6296   6.0155   6.2283
     6.6266   6.8538   6.9318   7.0454   7.9107   8.5190

          k = 0.0500 0.0866 0.0000 ( 10841 PWs)   bands (ev):

   -30.2835 -30.2802 -30.2108 -30.2089 -30.1484 -30.1017 -30.0998 -30.0488
   -30.0204 -30.0162 -12.8843  -7.9745  -2.3803  -2.2602  -1.8202   0.5491
     0.9441   1.3830   2.7773   2.9757   3.6604   4.1529   5.2022   5.6130
     5.9625   6.3826   6.3914   7.0457   7.8301   8.4455

          k = 0.0500 0.1443 0.0000 ( 10854 PWs)   bands (ev):

   -30.2829 -30.2752 -30.2099 -30.2057 -30.1473 -30.1041 -30.0997 -30.0504
   -30.0259 -30.0164 -12.7775  -7.9790  -2.9689  -2.2243  -2.0571   0.5514
     1.0532   1.6612   2.9173   3.0895   3.7646   4.2722   5.0053   5.6328
     6.0572   6.2689   6.7438   6.8660   8.1163   8.5087

          k = 0.0500 0.2021 0.0000 ( 10830 PWs)   bands (ev):

   -30.2821 -30.2681 -30.2086 -30.2011 -30.1456 -30.1076 -30.0996 -30.0529
   -30.0337 -30.0168 -12.6189  -8.0080  -3.5549  -2.3474  -2.1718   0.2406
     1.3717   1.8992   3.0665   3.2672   3.9111   4.4259   4.8276   5.7282
     6.1305   6.3093   6.7472   7.3049   8.2312   8.6387

          k = 0.0500 0.2598 0.0000 ( 10810 PWs)   bands (ev):

   -30.2810 -30.2592 -30.2068 -30.1952 -30.1433 -30.1122 -30.0997 -30.0570
   -30.0425 -30.0172 -12.4111  -8.0892  -4.0578  -2.6141  -2.1707  -0.0428
     1.5930   1.9596   3.1982   3.4970   4.1051   4.5917   4.9097   5.7906
     6.1872   6.5087   6.9599   7.5420   8.1103   8.9625

          k = 0.0500 0.3175 0.0000 ( 10811 PWs)   bands (ev):

   -30.2800 -30.2493 -30.2042 -30.1883 -30.1409 -30.1178 -30.1002 -30.0644
   -30.0499 -30.0177 -12.1580  -8.2522  -4.4240  -2.8553  -2.2433  -0.2207
     1.7023   1.8101   3.4061   3.7286   4.3101   4.8216   5.0562   6.0068
     6.3193   6.7754   7.1926   7.6254   8.0263   8.7233

          k = 0.0500 0.3753 0.0000 ( 10797 PWs)   bands (ev):

   -30.2789 -30.2396 -30.1999 -30.1806 -30.1388 -30.1242 -30.1010 -30.0750
   -30.0546 -30.0181 -11.8673  -8.5089  -4.6296  -3.0539  -2.4154  -0.2567
     1.5082   1.7773   3.7044   3.8689   4.4904   5.0734   5.2888   6.3361
     6.5143   7.0291   7.2848   7.7308   8.0947   8.3463

          k = 0.0500 0.4330 0.0000 ( 10789 PWs)   bands (ev):

   -30.2779 -30.2318 -30.1927 -30.1724 -30.1387 -30.1311 -30.1023 -30.0859
   -30.0578 -30.0186 -11.5537  -8.8359  -4.6920  -3.1992  -2.6588  -0.1700
     1.2125   1.7919   3.7468   4.1276   4.7708   5.3706   5.6719   6.2521
     6.9351   6.9931   7.4184   7.7722   7.8257   8.1773

          k = 0.0500 0.4907 0.0000 ( 10826 PWs)   bands (ev):

   -30.2773 -30.2270 -30.1826 -30.1641 -30.1430 -30.1378 -30.1034 -30.0942
   -30.0600 -30.0189 -11.2505  -9.1719  -4.6646  -3.2804  -2.9115  -0.0139
     0.9425   1.7969   3.5819   4.5724   5.1456   5.6749   6.1227   6.1564
     6.4488   6.9695   7.3139   7.7674   7.9226   8.0347

          k = 0.0500 0.5485 0.0000 ( 10828 PWs)   bands (ev):

   -30.2769 -30.2249 -30.1722 -30.1573 -30.1493 -30.1449 -30.1033 -30.0988
   -30.0611 -30.0190 -11.0364  -9.4099  -4.6201  -3.2914  -3.0991   0.1346
     0.7473   1.7994   3.4684   5.0623   5.4290   5.7061   5.9810   6.3249
     6.6111   6.6650   7.0864   7.2553   7.7331   8.4109

          k = 0.1000 0.1732 0.0000 ( 10837 PWs)   bands (ev):

   -30.2822 -30.2692 -30.2087 -30.2020 -30.1458 -30.1072 -30.0994 -30.0524
   -30.0325 -30.0168 -12.6452  -8.0006  -3.4322  -2.4124  -2.1715   0.6332
     0.9679   1.9461   3.0733   3.2168   3.8771   4.4155   4.7724   5.7882
     6.1237   6.2233   6.8766   7.1557   8.4449   8.5323

          k = 0.1000 0.2309 0.0000 ( 10796 PWs)   bands (ev):

   -30.2814 -30.2612 -30.2071 -30.1970 -30.1438 -30.1115 -30.0992 -30.0558
   -30.0406 -30.0172 -12.4623  -8.0616  -3.8795  -2.7662  -2.1515   0.4120
     1.1901   2.0718   3.2231   3.4013   4.0181   4.5829   4.7021   5.9335
     6.1224   6.4135   6.9989   7.4949   8.4186   8.7992

          k = 0.1000 0.2887 0.0000 ( 10802 PWs)   bands (ev):

   -30.2804 -30.2516 -30.2050 -30.1909 -30.1413 -30.1169 -30.0991 -30.0619
   -30.0484 -30.0177 -12.2321  -8.1896  -4.2494  -3.0806  -2.1773   0.1902
     1.3844   2.0054   3.3811   3.6452   4.2096   4.7370   4.9183   5.8666
     6.2424   6.6853   7.3125   7.6754   8.1341   8.8849

          k = 0.1000 0.3464 0.0000 ( 10801 PWs)   bands (ev):

   -30.2794 -30.2414 -30.2018 -30.1838 -30.1388 -30.1232 -30.0992 -30.0715
   -30.0539 -30.0182 -11.9600  -8.4044  -4.4996  -3.3296  -2.2871   0.0688
     1.4708   1.8031   3.6266   3.8826   4.4292   4.9789   5.2040   5.8610
     6.4576   6.9950   7.3997   7.6271   8.2429   8.5230

          k = 0.1000 0.4041 0.0000 ( 10804 PWs)   bands (ev):

   -30.2785 -30.2322 -30.1965 -30.1761 -30.1374 -30.1301 -30.0998 -30.0828
   -30.0577 -30.0187 -11.6558  -8.7006  -4.6239  -3.4990  -2.4889   0.0745
     1.3809   1.6559   3.8785   4.0445   4.6672   5.2675   5.5384   6.1079
     6.6734   7.1587   7.3746   7.7030   7.7312   8.2709

          k = 0.1000 0.4619 0.0000 ( 10810 PWs)   bands (ev):

   -30.2777 -30.2256 -30.1882 -30.1680 -30.1410 -30.1349 -30.1014 -30.0921
   -30.0605 -30.0191 -11.3407  -9.0385  -4.6553  -3.5761  -2.7477   0.1886
     1.1272   1.6443   3.7819   4.4248   5.0130   5.6138   5.9565   6.2512
     6.7297   6.8577   7.5016   7.6764   7.8488   8.0125

          k = 0.1000 0.5196 0.0000 ( 10822 PWs)   bands (ev):

   -30.2772 -30.2222 -30.1774 -30.1607 -30.1486 -30.1394 -30.1040 -30.0965
   -30.0622 -30.0194 -11.0650  -9.3413  -4.6462  -3.5590  -2.9991   0.3745
     0.8580   1.6559   3.6258   4.8996   5.4212   5.9064   6.0655   6.3058
     6.4682   6.8841   7.0515   7.6068   7.7381   8.2189

          k = 0.1000 0.5774 0.0000 ( 10814 PWs)   bands (ev):

   -30.2770 -30.2212 -30.1692 -30.1612 -30.1496 -30.1442 -30.1052 -30.0975
   -30.0629 -30.0195 -10.9420  -9.4756  -4.6384  -3.5154  -3.1263   0.5874
     0.6197   1.6623   3.5612   5.4004   5.4302   5.7674   6.0139   6.3996
     6.5238   6.9959   7.0189   7.1739   7.4170   8.5970

          k = 0.1500 0.2598 0.0000 ( 10814 PWs)   bands (ev):

   -30.2806 -30.2523 -30.2052 -30.1918 -30.1414 -30.1167 -30.0986 -30.0610
   -30.0478 -30.0177 -12.2570  -8.1691  -4.1535  -3.2055  -2.1595   0.4993
     1.1102   2.1126   3.4295   3.5552   4.1347   4.6995   4.8313   5.9339
     6.1811   6.6664   7.3851   7.5304   8.5530   8.6822

          k = 0.1500 0.3175 0.0000 ( 10798 PWs)   bands (ev):

   -30.2797 -30.2422 -30.2026 -30.1857 -30.1387 -30.1230 -30.0980 -30.0697
   -30.0536 -30.0183 -12.0068  -8.3503  -4.3553  -3.5750  -2.2280   0.4421
     1.1202   2.0673   3.6428   3.7922   4.3337   4.8970   5.1239   5.6868
     6.3896   6.9664   7.3908   7.7321   8.5056   8.8399

          k = 0.1500 0.3753 0.0000 ( 10794 PWs)   bands (ev):

   -30.2789 -30.2320 -30.1990 -30.1787 -30.1363 -30.1301 -30.0975 -30.0808
   -30.0578 -30.0189 -11.7186  -8.6102  -4.4890  -3.8225  -2.3796   0.3824
     1.1107   1.9562   3.8993   4.0541   4.6067   5.1856   5.4715   5.5974
     6.5354   7.2786   7.3085   7.7427   8.0839   8.6920

          k = 0.1500 0.4330 0.0000 ( 10802 PWs)   bands (ev):

   -30.2781 -30.2234 -30.1931 -30.1709 -30.1395 -30.1336 -30.0982 -30.0911
   -30.0612 -30.0195 -11.4057  -8.9288  -4.5873  -3.9114  -2.6080   0.3765
     1.0877   1.8147   4.0178   4.3436   4.9163   5.5127   5.7814   5.9374
     6.5914   7.1007   7.5013   7.6920   7.9407   8.0510

          k = 0.1500 0.4907 0.0000 ( 10807 PWs)   bands (ev):

   -30.2776 -30.2181 -30.1840 -30.1630 -30.1481 -30.1350 -30.1039 -30.0943
   -30.0638 -30.0199 -11.0981  -9.2568  -4.6682  -3.8525  -2.8728   0.4035
     1.0867   1.6811   3.8955   4.7779   5.3031   5.8843   6.0276   6.3507
     6.5104   6.8073   7.2778   7.7216   7.9997   8.0992

          k = 0.1500 0.5485 0.0000 ( 10816 PWs)   bands (ev):

   -30.2773 -30.2159 -30.1730 -30.1622 -30.1515 -30.1394 -30.1082 -30.0944
   -30.0652 -30.0201 -10.8737  -9.4970  -4.7158  -3.7338  -3.0903   0.4262
     1.1070   1.5920   3.7860   5.2761   5.7109   5.8048   6.0505   6.2987
     6.7437   6.8568   7.1251   7.4268   7.5283   8.2294

          k = 0.2000 0.3464 0.0000 ( 10812 PWs)   bands (ev):

   -30.2791 -30.2318 -30.1999 -30.1796 -30.1359 -30.1303 -30.0966 -30.0801
   -30.0579 -30.0190 -11.7398  -8.5785  -4.3734  -4.0084  -2.3420   0.6378
     0.8413   2.1477   3.9615   3.9738   4.5629   5.1423   5.4120   5.4711
     6.4304   7.2521   7.2951   7.9876   8.3596   8.8255

          k = 0.2000 0.4041 0.0000 ( 10795 PWs)   bands (ev):

   -30.2784 -30.2216 -30.1962 -30.1724 -30.1387 -30.1333 -30.0953 -30.0913
   -30.0618 -30.0197 -11.4396  -8.8664  -4.4442  -4.2095  -2.5266   0.5406
     0.8709   2.1422   4.1958   4.3227   4.8733   5.3565   5.4366   5.8211
     6.3378   7.3914   7.6534   7.7118   8.0509   8.4402

          k = 0.2000 0.4619 0.0000 ( 10801 PWs)   bands (ev):

   -30.2779 -30.2137 -30.1902 -30.1645 -30.1478 -30.1323 -30.1033 -30.0928
   -30.0652 -30.0202 -11.1233  -9.1883  -4.6737  -4.0765  -2.7671   0.3454
     1.0846   2.0250   4.2619   4.7117   5.1918   5.6222   5.7339   6.2618
     6.4006   7.0011   7.5880   7.8543   7.9702   8.1309

          k = 0.2000 0.5196 0.0000 ( 10808 PWs)   bands (ev):

   -30.2775 -30.2095 -30.1809 -30.1602 -30.1537 -30.1342 -30.1113 -30.0913
   -30.0677 -30.0206 -10.8344  -9.4876  -4.8251  -3.8827  -3.0174   0.2241
     1.3303   1.8290   4.1745   5.1752   5.4587   5.8418   6.2041   6.3387
     6.7364   6.8509   7.1081   7.7395   7.8507   7.9050

          k = 0.2000 0.5774 0.0000 ( 10812 PWs)   bands (ev):

   -30.2774 -30.2084 -30.1707 -30.1693 -30.1494 -30.1376 -30.1139 -30.0907
   -30.0687 -30.0207 -10.6960  -9.6307  -4.8760  -3.7680  -3.1515   0.1835
     1.5832   1.5917   4.1285   5.4535   5.7450   5.7749   6.0510   6.5378
     6.7029   7.2749   7.2794   7.3447   7.3866   7.7994

          k = 0.2500 0.4330 0.0000 ( 10796 PWs)   bands (ev):

   -30.2780 -30.2113 -30.1931 -30.1649 -30.1477 -30.1314 -30.1030 -30.0922
   -30.0658 -30.0204 -11.1326  -9.1619  -4.6707  -4.1626  -2.7256   0.3144
     1.0582   2.2137   4.5545   4.6878   5.1600   5.2524   5.6296   6.2298
     6.2807   7.4560   7.5634   7.6970   8.0825   8.2025

          k = 0.2500 0.4907 0.0000 ( 10801 PWs)   bands (ev):

   -30.2777 -30.2035 -30.1879 -30.1582 -30.1558 -30.1308 -30.1135 -30.0893
   -30.0695 -30.0209 -10.8179  -9.4728  -4.9033  -3.9529  -2.9604   0.0950
     1.3340   2.1269   4.7175   5.1150   5.2411   5.5592   5.9272   6.5559
     6.6966   6.8679   7.4099   7.5571   7.9030   8.1406

          k = 0.2500 0.5485 0.0000 ( 10819 PWs)   bands (ev):

   -30.2775 -30.2002 -30.1793 -30.1680 -30.1478 -30.1336 -30.1198 -30.0870
   -30.0722 -30.0212 -10.5605  -9.7299  -5.0244  -3.7478  -3.1751  -0.0213
     1.6030   1.9404   4.6809   5.2014   5.6437   6.0352   6.2155   6.4770
     6.9216   7.0609   7.2290   7.2836   7.6149   7.7789

          k = 0.3000 0.5196 0.0000 ( 10814 PWs)   bands (ev):

   -30.2775 -30.1943 -30.1855 -30.1675 -30.1473 -30.1300 -30.1238 -30.0851
   -30.0739 -30.0214 -10.5072  -9.7690  -5.0819  -3.7364  -3.1783  -0.0989
     1.6083   2.0711   5.0825   5.3362   5.3725   5.7914   6.3182   6.6639
     6.8678   6.8701   7.1966   7.4494   7.5221   7.6517

          k = 0.3000 0.5774 0.0000 ( 10806 PWs)   bands (ev):

   -30.2775 -30.1907 -30.1813 -30.1748 -30.1401 -30.1331 -30.1282 -30.0824
   -30.0767 -30.0216 -10.2972  -9.9737  -5.1455  -3.5712  -3.3396  -0.1684
     1.7984   1.9507   5.0172   5.3637   5.8929   6.1503   6.2928   6.5543
     6.7281   6.9470   7.0072   7.4609   7.6111   7.7247

     the Fermi energy is    -0.7065 ev

!    total energy              =    -282.12434582 Ry
     estimated scf accuracy    <          9.5E-12 Ry
     smearing contrib. (-TS)   =      -0.00000000 Ry
     internal energy E=F+TS    =    -282.12434582 Ry

     The total energy is F=E-TS. E is the sum of the following terms:
     one-electron contribution =   -1148.72670616 Ry
     hartree contribution      =     570.57601415 Ry
     xc contribution           =     -31.72399568 Ry
     ewald contribution        =     327.75034187 Ry

     convergence has been achieved in   8 iterations

     Writing all to output data dir out/Sb.save/
 
     init_run     :      1.77s CPU      2.35s WALL (       1 calls)
     electrons    :     10.50s CPU     11.42s WALL (       1 calls)

     Called by init_run:
     wfcinit      :      1.71s CPU      2.19s WALL (       1 calls)
     potinit      :      0.00s CPU      0.02s WALL (       1 calls)
     hinit0       :      0.02s CPU      0.09s WALL (       1 calls)

     Called by electrons:
     c_bands      :      9.26s CPU      9.91s WALL (       9 calls)
     sum_band     :      1.17s CPU      1.29s WALL (       9 calls)
     v_of_rho     :      0.03s CPU      0.03s WALL (       9 calls)
     mix_rho      :      0.04s CPU      0.05s WALL (       9 calls)

     Called by c_bands:
     init_us_2    :      0.03s CPU      0.04s WALL (     836 calls)
     init_us_2:cp :      0.03s CPU      0.04s WALL (     836 calls)
     cegterg      :      8.97s CPU      9.18s WALL (     396 calls)

     Called by *egterg:
     cdiaghg      :      1.58s CPU      1.61s WALL (    2267 calls)
     h_psi        :      8.39s CPU      8.62s WALL (    2355 calls)
     g_psi        :      0.02s CPU      0.02s WALL (    1915 calls)

     Called by h_psi:
     h_psi:calbec :      0.15s CPU      0.16s WALL (    2355 calls)
     vloc_psi     :      8.14s CPU      8.36s WALL (    2355 calls)
     add_vuspsi   :      0.08s CPU      0.08s WALL (    2355 calls)

     General routines
     calbec       :      0.15s CPU      0.15s WALL (    2355 calls)
     fft          :      0.02s CPU      0.10s WALL (      90 calls)
     ffts         :      0.00s CPU      0.00s WALL (       9 calls)
     fftw         :      8.86s CPU      9.11s WALL (   90824 calls)
     davcio       :      0.06s CPU      0.82s WALL (    1344 calls)
 
     Parallel routines
 
     PWSCF        :     12.66s CPU     15.83s WALL

 
   This run was terminated on:   2:23:44  14Apr2024            

=------------------------------------------------------------------------------=
   JOB DONE.
=------------------------------------------------------------------------------=
