
     Program PWSCF v.7.1 starts on  8Apr2024 at 10:35:24 

     This program is part of the open-source Quantum ESPRESSO suite
     for quantum simulation of materials; please cite
         "P. Giannozzi et al., J. Phys.:Condens. Matter 21 395502 (2009);
         "P. Giannozzi et al., J. Phys.:Condens. Matter 29 465901 (2017);
         "P. Giannozzi et al., J. Chem. Phys. 152 154105 (2020);
          URL http://www.quantum-espresso.org", 
     in publications or presentations arising from this work. More details at
     http://www.quantum-espresso.org/quote

     Parallel version (MPI), running on     8 processors

     MPI processes distributed on     1 nodes
     238884 MiB available memory on the printing compute node when the environment starts
 
     Reading input from pw_Sb_nscf_k131_E45.in
Warning: card &IONS ignored
Warning: card / ignored
Warning: card &CELL ignored
Warning: card / ignored

     Current dimensions of program PWSCF are:
     Max number of different atomic species (ntypx) = 10
     Max number of k-points (npk) =  40000
     Max angular momentum in pseudopotentials (lmaxx) =  4

     Atomic positions and unit cell read from directory:
     out/Sb.save/
     Atomic positions from file used, from input discarded
 
 
     R & G space division:  proc/nbgrp/npool/nimage =       8
     Subspace diagonalization in iterative solution of the eigenvalue problem:
     one sub-group per band group will be used
     scalapack distributed-memory algorithm (size of sub-group:  2*  2 procs)

 
     Parallelization info
     --------------------
     sticks:   dense  smooth     PW     G-vecs:    dense   smooth      PW
     Min          93      93     26                10817    10817    1672
     Max          94      94     27                10844    10844    1687
     Sum         745     745    211                86573    86573   13419
 
     Using Slab Decomposition
 


     bravais-lattice index     =            4
     lattice parameter (alat)  =       7.7553  a.u.
     unit-cell volume          =    2121.0124 (a.u.)^3
     number of atoms/cell      =            2
     number of atomic types    =            1
     number of electrons       =        30.00
     number of Kohn-Sham states=         1200
     kinetic-energy cutoff     =      45.0000  Ry
     charge density cutoff     =     180.0000  Ry
     Exchange-correlation= PBE
                           (   1   4   3   4   0   0   0)

     celldm(1)=   7.755267  celldm(2)=   0.000000  celldm(3)=   5.250762
     celldm(4)=   0.000000  celldm(5)=   0.000000  celldm(6)=   0.000000

     crystal axes: (cart. coord. in units of alat)
               a(1) = (   1.000000   0.000000   0.000000 )  
               a(2) = (  -0.500000   0.866025   0.000000 )  
               a(3) = (   0.000000   0.000000   5.250762 )  

     reciprocal axes: (cart. coord. in units 2 pi/alat)
               b(1) = (  1.000000  0.577350  0.000000 )  
               b(2) = (  0.000000  1.154701  0.000000 )  
               b(3) = (  0.000000  0.000000  0.190449 )  


     PseudoPot. # 1 for Sb read from file:
     /usr/scratch4/magr4985/FGWC/FGWC/pseudo/SG15/Sb.upf
     MD5 check sum: 0417cd6c0fe8ce4611e2b23135f1abd9
     Pseudo is Norm-conserving, Zval = 15.0
     Generated using ONCVPSP code by D. R. Hamann
     Using radial grid of  602 points,  6 beta functions with: 
                l(1) =   0
                l(2) =   0
                l(3) =   1
                l(4) =   1
                l(5) =   2
                l(6) =   2

     atomic species   valence    mass     pseudopotential
        Sb            15.00   121.76000     Sb( 1.00)

     12 Sym. Ops., with inversion, found



   Cartesian axes

     site n.     atom                  positions (alat units)
         1           Sb  tau(   1) = (   0.5000000   0.2886752   2.4245708  )
         2           Sb  tau(   2) = (   0.0000000   0.5773502   2.8261916  )

     number of k points=    10  Gaussian smearing, width (Ry)=  0.0005
                       cart. coord. in units 2pi/alat
        k(    1) = (   0.0000000   0.0000000   0.0000000), wk =   0.0312500
        k(    2) = (   0.0000000   0.1443376   0.0000000), wk =   0.1875000
        k(    3) = (   0.0000000   0.2886751   0.0000000), wk =   0.1875000
        k(    4) = (   0.0000000   0.4330127   0.0000000), wk =   0.1875000
        k(    5) = (   0.0000000  -0.5773503   0.0000000), wk =   0.0937500
        k(    6) = (   0.1250000   0.2165064   0.0000000), wk =   0.1875000
        k(    7) = (   0.1250000   0.3608439   0.0000000), wk =   0.3750000
        k(    8) = (   0.1250000   0.5051815   0.0000000), wk =   0.3750000
        k(    9) = (   0.2500000   0.4330127   0.0000000), wk =   0.1875000
        k(   10) = (   0.2500000   0.5773503   0.0000000), wk =   0.1875000

     Dense  grid:    86573 G-vectors     FFT dimensions: (  36,  36, 180)

     Estimated max dynamical RAM per process >     442.98 MB

     Estimated total dynamical RAM >       3.46 GB

     The potential is recalculated from file :
     out/Sb.save/charge-density

     Starting wfcs are random

     Band Structure Calculation
     Davidson diagonalization with overlap

     ethr =  5.00E-06,  avg # of iterations = 11.0

     total cpu time spent up to now is      861.7 secs

     End of band structure calculation

          k = 0.0000 0.0000 0.0000 ( 10857 PWs)   bands (ev):

   -30.2840 -30.2840 -30.2114 -30.2114 -30.1493 -30.0998 -30.0998 -30.0477
   -30.0160 -30.0160 -12.9650  -7.9787  -2.2960  -1.6170  -1.6170  -0.0318
     1.1543   1.1543   2.6650   2.8841   3.5730   4.0602   5.1061   5.6878
     5.8833   6.5295   6.5295   7.3624   7.4994   8.3008   8.3008   8.8555
     8.9107  11.2962  11.2962  11.3494  11.7648  12.1801  12.1801  12.4712
    13.3674  13.9559  13.9559  14.4891  14.4891  14.5011  14.7012  14.9754
    14.9796  14.9796  15.0434  15.0434  15.1301  15.4935  15.6956  15.7008
    15.7008  15.7089  15.7089  15.8604  15.8604  15.9562  15.9562  16.0640
    16.1949  16.2434  16.2883  17.4306  17.4306  17.5381  17.5632  17.5632
    17.7736  17.7736  17.8539  17.8539  17.9209  18.1293  18.2839  19.8977
    19.9792  19.9792  20.1752  20.1752  20.3441  20.4874  20.4874  20.5194
    20.5194  20.7212  20.9981  21.1121  21.1283  22.4837  23.2127  23.2127
    23.4173  23.4173  23.5844  23.8155  23.8959  23.8959  23.9157  23.9157
    24.3614  24.5152  25.1679  25.1679  25.8481  25.8481  25.9431  26.2137
    27.3119  27.3119  27.4290  27.4965  27.4965  27.6228  27.9230  27.9663
    27.9663  28.0230  28.0230  28.3794  28.6223  29.6402  30.8341  30.8341
    30.8412  30.8875  30.8875  31.8837  31.8837  32.0626  32.2883  32.2883
    32.4399  32.4399  32.6828  32.6855  32.9110  32.9110  33.0811  33.5517
    33.7592  33.7592  33.8673  33.8806  34.6182  35.1496  35.2772  35.5893
    35.5893  36.5328  36.5328  37.6298  37.6298  37.6367  37.8067  37.9299
    37.9299  38.0470  38.0470  38.1682  38.1682  38.2474  38.2474  38.2584
    38.4225  38.4225  38.4998  38.4998  38.6205  38.6323  38.7790  38.8542
    38.8542  38.9115  38.9115  38.9446  39.0780  39.3543  39.4361  39.4361
    39.4587  39.5014  39.5056  39.5671  39.6437  39.6437  39.7337  39.7337
    39.8355  39.8355  40.1399  41.0154  41.0154  41.2537  41.3421  41.3981
    41.4665  41.4665  41.5405  41.5405  41.7308  41.7308  41.9152  42.7500
    42.7500  42.7838  42.7838  42.9763  43.2302  43.2302  43.6920  43.6920
    43.8582  43.9458  43.9718  44.0798  44.0798  44.2177  44.2177  44.2571
    44.2793  44.3923  44.3923  44.5242  44.5242  44.5252  44.5252  44.6522
    44.6522  44.6645  44.8884  45.5762  45.6345  45.9850  45.9850  46.2777
    46.6553  46.9321  46.9321  47.2130  47.2346  47.2923  47.4991  47.4991
    47.5100  47.7769  47.7769  47.9605  48.0209  48.0209  48.1153  48.1153
    48.7871  49.6861  49.6861  49.8454  50.1369  50.1369  50.1779  50.1779
    50.3517  50.3517  50.4443  50.5933  50.5933  50.6051  50.6254  50.6723
    50.6723  50.6891  50.6891  50.7840  50.8083  50.8083  51.1680  51.1680
    51.1865  51.2937  51.3006  51.3778  51.4253  51.4728  51.4728  51.6385
    51.6385  51.6441  51.7043  51.7043  51.7415  51.7415  51.7557  51.7976
    51.7976  51.8290  51.9413  52.0919  52.0919  52.1259  52.1259  52.4167
    52.8620  53.1399  53.1399  53.1796  53.2728  53.4735  53.4735  53.5842
    53.5842  53.7037  53.7037  53.8611  53.9674  54.3233  54.6087  55.0034
    55.0034  55.7687  55.7777  55.7777  55.8106  55.8150  55.8150  55.8987
    55.8987  55.9120  56.0208  56.1827  56.2241  56.2241  56.4204  56.4204
    56.4542  56.4542  56.6149  56.6149  56.6714  56.9719  57.1698  57.6502
    57.6502  57.8522  57.8522  58.0490  58.0490  58.1657  58.5327  58.5327
    58.6609  58.9807  58.9807  59.0911  59.1628  59.4415  59.4772  59.4772
    59.5187  59.6603  59.6603  59.6869  59.6869  60.2914  60.2930  60.8624
    61.0691  61.0691  61.1057  61.3380  61.3380  61.4854  61.4854  61.8748
    61.8748  62.1344  62.4834  62.6213  62.6275  62.6943  63.2717  63.2717
    63.3110  63.3160  63.3160  63.3279  63.6786  63.6786  63.7585  63.7585
    64.1576  64.3372  64.4742  64.8206  64.8206  64.8516  64.8516  65.6903
    66.0081  66.0081  66.2566  66.2566  66.7394  66.8317  66.8317  67.0630
    67.1639  67.1639  67.2790  67.5281  67.5281  67.6323  67.8422  67.8422
    67.9164  67.9839  68.2661  68.2800  68.2800  68.3018  68.3262  68.3262
    68.5053  68.5221  68.5221  68.6774  68.8366  68.9089  68.9089  70.1511
    70.1511  70.2695  70.3781  70.3781  70.9238  71.2901  71.2901  71.6014
    72.3252  72.5707  72.5707  72.6148  72.6148  73.2545  73.2545  73.3499
    73.8797  73.8797  73.8871  73.8871  73.9986  74.0382  74.0750  74.1544
    74.4692  74.4697  74.4697  74.5247  74.5247  74.5801  74.6052  74.6052
    75.1131  75.1131  75.1468  75.3056  75.3057  75.4108  75.5773  75.6875
    75.6875  75.7228  75.7228  75.8566  75.8566  76.2166  76.3346  76.4147
    76.4147  76.4952  77.4368  77.4368  77.4891  77.5623  77.5623  78.0911
    78.0911  78.3573  78.8591  79.0240  79.2162  79.2162  79.2891  79.2891
    79.7453  79.8347  80.4552  80.4552  80.5881  80.5881  80.8713  80.8713
    80.9232  81.1685  81.1750  81.1750  81.4307  81.5850  81.5850  81.8270
    81.9731  81.9731  82.0186  82.0186  82.3731  82.4406  82.5516  82.8995
    82.9852  83.0580  83.3081  83.3081  83.3791  83.3791  83.4272  83.4272
    83.8851  83.8851  83.9797  84.1442  84.1442  84.2496  84.7176  84.7176
    84.7447  84.7447  84.7557  85.0462  85.3763  85.4220  85.4220  85.4361
    85.5043  85.5299  85.5299  85.6184  85.6184  85.7549  85.9831  85.9831
    86.1540  86.1540  86.1871  86.1871  86.1982  86.2672  86.2865  86.3711
    86.3711  86.3975  86.3975  86.4246  86.4341  86.4411  86.4582  86.4582
    86.5406  86.5406  86.5714  86.5714  86.6853  86.7995  86.7995  86.8332
    86.9016  86.9108  86.9807  87.0849  87.0849  87.1178  87.1178  87.1413
    87.1692  87.1692  87.2234  87.2490  87.2490  87.2682  87.2747  87.2788
    87.2788  87.2821  87.2821  87.5013  87.5013  87.5873  87.5873  88.0559
    88.1964  88.4472  88.4799  88.5108  88.5108  88.5263  88.5548  88.6945
    88.6945  88.7561  88.7561  88.8904  88.8904  89.0356  89.0356  89.0487
    89.0487  89.1303  89.1536  89.1816  89.1816  89.4389  89.4389  89.4943
    89.4943  89.5989  89.7175  89.7175  89.8126  89.8635  89.8635  89.9609
    89.9671  90.3250  90.3719  90.4837  90.4837  90.5808  90.9975  90.9975
    91.2545  91.2971  91.2976  91.2976  91.4178  91.5170  91.5170  91.5309
    91.5309  91.7857  91.7857  91.7911  91.7911  91.7996  91.8208  91.8434
    92.0300  92.0737  92.0737  92.2192  92.2192  92.3869  92.3869  92.5016
    92.7191  92.7420  92.7939  92.7939  93.1398  93.2105  93.2105  93.2850
    93.5379  93.5379  93.6526  93.7042  93.9965  93.9965  94.0581  94.1388
    94.1388  94.3243  94.3368  94.4414  94.4414  94.4919  94.4919  94.6602
    94.6602  94.6914  94.7130  94.7130  94.9366  94.9366  94.9815  95.0051
    95.0051  95.0260  95.0260  95.2126  95.2126  95.2126  95.2377  95.2608
    95.2608  95.3380  95.4409  95.6645  95.6645  95.7040  95.7138  95.7138
    96.2081  96.5802  96.7418  96.7418  96.8046  97.3733  97.3733  97.5645
    97.5645  97.8853  97.8994  97.9139  98.0247  98.0247  98.1209  98.1209
    98.4070  98.7541  98.7541  98.8173  98.8429  98.8429  98.9880  98.9880
    99.0650  99.0650  99.1271  99.1271  99.1512  99.1712  99.1952  99.3274
    99.3376  99.4477  99.4477  99.5101  99.7680  99.7680  99.9461 100.0760
   100.0760 100.2904 100.2904 100.7543 100.8496 100.8972 101.0073 101.0073
   101.1656 101.1656 101.1664 101.5102 101.5102 101.5877 101.8771 101.9881
   101.9881 102.0724 102.4406 102.4406 102.4618 102.9134 102.9308 103.0110
   103.0164 103.1383 103.1383 103.3457 103.4730 103.4730 103.6376 103.6376
   103.7422 103.7792 103.7792 103.9540 103.9540 104.0905 104.1035 104.1286
   104.1286 104.2361 104.2361 104.5447 104.5447 104.6928 104.6928 104.9459
   104.9459 104.9852 105.2585 105.2585 105.2694 105.2694 105.4853 105.6499
   105.7885 105.8124 105.8124 106.1668 106.3306 106.4320 106.4707 106.4707
   106.5527 106.5527 107.1225 107.2202 107.2202 107.3895 107.4060 107.4060
   107.5600 107.6098 107.7678 107.8571 107.8571 108.3907 108.3907 108.7996
   108.7996 108.8447 108.8467 108.8695 108.9015 108.9015 108.9524 108.9711
   109.0901 109.0901 109.2850 109.2850 109.3474 109.3474 109.5115 109.5722
   109.5740 109.8209 109.8209 109.9130 109.9130 110.0289 110.0289 110.0685
   110.0685 110.0885 110.2278 110.2712 110.2712 110.3444 110.3444 110.4232
   110.5022 110.5315 110.5315 110.5692 110.6187 110.6187 110.7838 110.7838
   110.7877 110.8351 110.8351 110.9140 110.9140 110.9536 110.9865 111.0216
   111.0956 111.0956 111.2403 111.2781 111.2781 111.5303 111.5303 112.2358
   112.3188 112.3727 112.3727 112.4243 112.4493 112.7172 112.7172 112.7754
   112.8856 112.8856 112.9922 112.9922 113.1614 113.6286 113.6726 113.6972
   113.6972 114.0333 114.0730 114.0730 114.0803 114.0803 114.2705 114.3000
   114.3358 114.8143 114.8143 114.8664 115.0365 115.1454 115.1454 115.2038
   115.2038 115.2345 115.2345 115.2460 115.2460 115.4533 115.4533 115.4972
   115.5628 115.5628 115.6066 115.6305 115.6561 115.8438 115.8438 115.8765
   115.8765 115.9056 116.0655 116.0655 116.0880 116.0880 116.3834 116.6402
   116.6402 116.8939 116.8939 117.0579 117.3163 117.3163 117.5068 117.5511
   117.5511 117.7091 117.7760 117.7760 117.8103 117.8103 117.8219 118.0114
   118.0569 118.1690 118.2011 118.2035 118.3023 118.4058 118.4058 118.4398
   118.4398 118.6676 118.6676 118.7689 118.7689 119.2952 119.3567 119.3567
   119.6721 119.7360 119.7360 119.7366 119.7366 119.8173 120.0558 120.0622
   120.2440 120.2440 120.3457 120.3835 120.3835 120.7021 120.7021 120.9255
   121.0830 121.1464 121.2587 121.2587 121.3490 121.5558 121.7636 121.7636
   121.9297 121.9297 122.2848 122.2848 122.3789 122.3789 122.4034 122.4302
   122.5109 122.5109 122.5493 122.7317 122.7317 122.7386 122.7483 122.7483
   123.2499 123.2564 123.2564 123.2643 123.3017 123.3017 123.6379 123.6379
   123.8880 123.9710 124.0093 124.0093 124.1485 124.1555 125.1101 125.4411
   125.4411 125.4631 125.4631 125.6635 125.9505 126.1761 126.1761 126.4499
   126.4499 126.8045 126.8311 127.1342 127.1342 127.1418 127.1418 127.3700
   127.3700 127.5151 127.5151 127.8050 127.8222 127.9732 128.2523 128.2523
   128.2642 128.3103 128.3103 128.4122 128.4448 128.4448 128.5048 129.0159
   129.0159 129.0225 129.0225 129.2176 129.2176 129.3413 129.4152 129.4417
   129.4758 129.5090 129.5090 129.5927 129.5927 129.7014 129.7014 129.7298
   129.7298 129.7805 129.7850 129.9741 129.9900 130.2578 130.2578 130.2967
   130.2967 130.4004 130.4034 130.4218 130.4218 130.6171 130.6322 130.6861
   130.6861 130.7272 130.7272 131.1789 131.1789 131.4774 131.4774 131.7236
   132.0088 132.0088 132.0564 132.1912 132.3856 132.9803 132.9803 133.0875
   133.7114 133.7114 133.9239 134.2208 134.2208 134.6988 134.9433 134.9806
   134.9806 135.2514 135.2514 135.5445 135.5445 135.7588 135.9660 136.0515
   136.1101 136.1101 136.3359 136.3708 136.3708 136.3881 136.6227 136.7408
   136.9167 136.9167 137.0497 137.6320 137.6320 137.7170 137.7170 137.8432
   137.9090 138.0350 138.0350 138.0686 138.1186 138.1186 138.4045 138.4045
   138.5833 138.5833 138.6986 138.6986 138.8344 139.0453 139.0453 139.0527
   139.1776 139.1776 139.2540 139.2540 139.3676 139.3729 139.4785 139.5169
   139.5169 139.8243 139.8243 139.8766 139.8766 140.2668 140.2668 140.3397
   140.3448 140.5054 140.5320 140.6061 140.6061 140.6881 140.6881 140.7061
   140.7188 141.0010 141.0010 141.0710 141.1481 141.1481 141.2793 141.3497
   141.3497 141.3805 141.4014 141.4691 141.4691 141.5004 141.6239 141.6239

          k = 0.0000 0.1443 0.0000 ( 10839 PWs)   bands (ev):

   -30.2830 -30.2762 -30.2101 -30.2062 -30.1475 -30.1035 -30.0998 -30.0501
   -30.0249 -30.0164 -12.7974  -7.9773  -2.8986  -2.2277  -1.9660   0.3851
     1.3289   1.4703   2.8873   3.0724   3.7473   4.2491   5.0566   5.5859
     6.0402   6.4579   6.6010   6.7578   8.0879   8.4976   8.9938   9.1561
     9.6539  10.3637  10.6136  11.4911  11.6051  12.0223  12.1976  12.2798
    12.7400  13.0005  13.0855  13.3135  13.4184  13.6861  13.7510  13.8379
    14.4309  14.4708  14.5580  14.6723  14.8295  15.0534  15.4153  15.8457
    15.8599  16.1126  16.3201  16.3566  16.4613  16.5539  16.6892  16.6930
    16.7745  17.4045  17.4260  17.4902  17.5188  17.6201  17.7420  17.8796
    18.1907  18.8272  18.8899  19.0056  19.0072  19.0272  19.2918  19.3532
    19.4417  19.5598  19.6553  20.3976  20.6267  20.7661  20.8468  20.8781
    21.1106  21.3082  21.7354  21.8212  21.9689  22.1931  22.2862  22.4732
    22.5803  22.6266  22.9240  23.5116  23.6806  24.2815  24.8328  25.0101
    25.2017  25.2527  25.3476  25.6117  25.7277  26.1883  26.2410  26.4807
    26.5140  26.6415  26.7109  26.7613  27.1234  27.5249  27.6047  28.8784
    29.0589  29.0630  29.3166  29.4260  29.7711  29.9500  29.9873  30.0686
    30.3575  30.6630  30.8651  31.0507  31.2316  31.2711  31.4578  31.4654
    31.9800  32.2239  32.3591  32.7018  33.2640  33.4979  33.5192  33.8860
    33.9896  34.1105  34.2274  34.3032  34.5246  34.6134  34.8110  35.1099
    35.2402  35.2590  35.2689  35.4779  35.5293  35.5401  35.6685  35.7680
    36.0120  36.3288  36.4459  36.6115  36.9984  37.0835  37.1356  37.2656
    37.3177  37.4640  37.6917  38.3797  38.4143  38.4407  38.6021  38.8354
    38.9865  39.0268  39.1386  39.1467  39.3611  39.4579  39.6706  39.6845
    39.7189  39.7795  39.9113  39.9600  39.9702  40.0834  40.1856  40.5567
    40.6903  40.8888  40.9265  41.0553  41.3242  41.4770  41.5322  41.7216
    41.7279  41.7589  41.8254  42.2171  42.4815  42.6896  42.7615  42.8206
    43.0050  43.0584  43.0905  43.2151  43.3797  43.3977  43.4956  43.5745
    43.6241  43.8933  43.9281  44.0772  44.2058  44.2560  44.3245  44.4638
    44.5663  44.5990  44.6111  44.8418  44.9516  45.2267  45.4629  45.4977
    45.5992  45.9044  45.9398  45.9745  46.0244  46.1507  46.2716  46.4694
    46.6697  46.7254  46.9617  47.0488  47.0686  47.1745  47.2454  47.3541
    47.4290  47.4996  47.6963  47.6969  47.7289  47.8518  47.8801  47.9521
    47.9967  47.9982  48.2330  48.2925  48.3249  48.4726  48.6730  48.7154
    48.7633  48.7757  48.9288  48.9801  49.0989  49.2145  49.5091  49.5842
    49.8022  49.8985  50.0700  50.2342  50.4134  50.5183  50.6381  50.6514
    50.8059  50.9779  51.4108  51.4671  51.6608  51.6850  51.7098  51.7488
    52.0244  52.0259  52.2044  52.2106  52.2778  52.5301  52.6062  52.6969
    52.7094  52.9379  53.1038  53.2055  53.2443  53.3943  53.5000  53.5734
    53.6653  53.7072  53.8590  53.8728  54.0943  54.1114  54.3212  54.4593
    54.4921  54.7449  54.8219  54.8525  54.9525  55.1367  55.3256  55.5401
    55.6864  55.8114  55.8987  56.0043  56.0436  56.2975  56.4010  56.4969
    56.5264  56.6325  56.6348  56.7429  56.7841  56.8234  56.9051  56.9808
    57.0215  57.0593  57.2135  57.3269  57.3570  57.4102  57.5472  57.6360
    57.8019  57.8088  57.8425  57.9782  58.2653  58.7189  59.0239  59.0649
    59.1991  59.3107  59.3647  59.6967  59.8242  59.8378  59.9342  60.0166
    60.2571  60.3968  60.4591  60.7193  60.8470  60.9566  60.9919  61.3641
    61.3849  61.4449  61.6252  61.6266  61.9132  62.1141  62.1411  62.1681
    62.1899  62.2435  62.4062  62.4496  62.5832  62.6978  62.9296  63.0268
    63.2321  63.2379  63.4478  63.4803  63.5333  63.7970  64.1112  64.2140
    64.6672  64.7375  65.0884  65.0997  65.2264  65.2898  65.4023  65.5266
    65.6479  65.8482  66.0150  66.1688  66.4237  66.4970  66.5582  66.8170
    66.8442  66.8650  66.9558  67.1358  67.5443  67.5652  67.6163  67.7980
    67.8948  68.1201  68.3567  68.4230  68.5411  68.5780  68.8291  69.0116
    69.1535  69.3100  69.3797  69.6008  69.6185  69.8974  69.9596  70.4439
    70.7004  70.7183  70.8531  70.9331  71.1229  71.1234  71.3432  71.4234
    71.4423  71.6933  71.7740  72.0408  72.1046  72.3132  72.4994  72.5112
    72.6216  72.7048  72.9482  73.0088  73.3669  73.5184  73.6638  73.8282
    73.8496  74.0129  74.0692  74.3187  74.3632  74.4292  74.6144  74.7496
    74.8700  75.2106  75.3101  75.3833  75.5487  75.6254  75.7295  76.0759
    76.2851  76.3349  76.6216  76.7166  76.8312  76.9021  77.0622  77.1785
    77.1822  77.2943  77.4037  77.5533  77.5637  77.6576  77.9786  78.0182
    78.0952  78.3074  78.3768  78.4973  78.5424  78.9046  78.9315  78.9452
    79.0627  79.0795  79.1677  79.3478  79.4656  79.6783  79.7094  79.7221
    79.8325  79.9944  80.0981  80.1063  80.2472  80.3121  80.4324  80.5473
    80.6191  80.7032  80.8210  80.9165  81.1175  81.1923  81.2632  81.3052
    81.4638  81.4957  81.6551  81.6764  81.8659  81.8735  81.9664  82.0421
    82.1811  82.2049  82.2547  82.4208  82.4410  82.6728  82.7201  82.8814
    82.8912  82.9840  83.0700  83.1524  83.2042  83.2868  83.2950  83.3252
    83.5372  83.5816  83.6698  83.7679  83.9337  83.9587  84.0532  84.0757
    84.2633  84.2818  84.3887  84.3949  84.5730  84.6148  84.6766  84.8864
    84.9872  85.1173  85.1337  85.3416  85.3798  85.3821  85.5590  85.6213
    85.6406  85.7159  85.8126  85.9351  85.9355  86.0101  86.0266  86.0696
    86.1653  86.3169  86.3384  86.5059  86.6378  86.6937  86.7036  86.8128
    86.9455  87.1960  87.3384  87.4056  87.5220  87.5489  87.6599  87.6974
    87.7815  87.8321  87.9171  87.9310  87.9360  88.1147  88.1379  88.1495
    88.2503  88.4286  88.5126  88.5507  88.6370  88.6516  88.7771  88.8386
    88.8719  89.0029  89.1183  89.2332  89.4775  89.5054  89.5448  89.6064
    89.7025  89.8576  90.0811  90.1134  90.1955  90.2775  90.2938  90.3869
    90.5049  90.6544  90.6876  90.7231  90.7688  90.8165  90.9069  90.9657
    91.0179  91.1991  91.2363  91.3191  91.3318  91.4621  91.5736  91.5791
    91.8254  91.8705  91.9927  92.2781  92.3023  92.4092  92.4314  92.4647
    92.5438  92.6331  92.7559  92.8675  92.8920  92.8993  92.9794  93.0442
    93.1591  93.1682  93.2019  93.2572  93.2779  93.3650  93.4310  93.4872
    93.5610  93.5648  93.6229  93.6925  93.8737  93.8831  93.9507  94.0138
    94.0485  94.0743  94.1255  94.1377  94.1918  94.3813  94.5073  94.5846
    94.6503  94.6810  94.7097  94.7723  94.8279  94.9569  95.0189  95.0717
    95.1755  95.3916  95.4513  95.4606  95.5590  95.6542  95.6939  95.8926
    95.9385  96.0497  96.0546  96.0752  96.2798  96.4176  96.4999  96.5273
    96.5969  96.6343  96.6701  96.6886  96.6972  96.8942  96.9291  97.1101
    97.1791  97.2305  97.4195  97.4766  97.4883  97.5464  97.7097  97.7115
    97.7634  97.7686  97.8512  98.0026  98.1284  98.2082  98.2165  98.2508
    98.3030  98.3558  98.6639  98.7446  98.7509  98.9613  99.0040  99.0412
    99.0915  99.1732  99.2895  99.4646  99.5339  99.6806  99.8130  99.9565
   100.1343 100.2971 100.4307 100.5455 100.6289 100.7297 100.8084 100.8395
   100.8963 100.8999 100.9359 101.0935 101.1896 101.2127 101.2668 101.3669
   101.5343 101.5780 101.6444 101.6720 101.7759 101.9196 102.0123 102.0859
   102.2497 102.2635 102.3138 102.5035 102.6265 102.6790 102.6932 102.8004
   102.8059 102.8688 102.9058 103.0313 103.0676 103.2016 103.2379 103.3977
   103.4413 103.4870 103.5512 103.6081 103.7457 103.8766 104.0186 104.0426
   104.1053 104.1233 104.2460 104.3211 104.4108 104.4580 104.5411 104.7859
   104.8330 104.8549 105.0338 105.1276 105.1641 105.3060 105.3770 105.3959
   105.4514 105.5043 105.5135 105.5784 105.8070 105.9329 105.9544 106.0330
   106.0712 106.1825 106.3380 106.4088 106.4436 106.4822 106.5192 106.5824
   106.7433 106.7565 106.8403 106.8885 106.9006 106.9455 106.9947 107.1834
   107.2012 107.2946 107.4267 107.5521 107.5568 107.7045 107.8692 107.8812
   107.9948 108.0391 108.1205 108.1741 108.2908 108.4127 108.4754 108.5413
   108.6546 108.7069 108.7157 108.8283 108.8876 108.9853 109.2522 109.2588
   109.4026 109.4886 109.5585 109.7772 109.7801 109.8275 110.0023 110.1477
   110.2681 110.5440 110.5633 110.7095 110.7402 110.7701 110.9168 110.9522
   111.0845 111.0858 111.2974 111.3316 111.3669 111.5051 111.6408 111.6445
   111.6610 111.9246 112.0143 112.2778 112.3039 112.3304 112.6251 112.8269
   112.8794 113.0966 113.1837 113.2714 113.3843 113.4291 113.5334 113.5687
   113.7583 113.7985 113.8444 113.8632 114.0572 114.0765 114.2606 114.3066
   114.4457 114.4807 114.5701 114.5776 114.6900 114.7580 114.8017 114.8661
   114.8719 114.9483 114.9879 115.0527 115.1317 115.1610 115.1945 115.2944
   115.3023 115.3766 115.4700 115.4705 115.5562 115.6504 115.7067 115.8380
   115.9473 116.0818 116.0904 116.2144 116.2797 116.2857 116.4558 116.4858
   116.5827 116.6312 116.8071 116.8119 116.9921 117.0072 117.0258 117.0680
   117.1916 117.2669 117.3478 117.3538 117.3871 117.5533 117.6625 117.7512
   117.8556 117.9355 118.0572 118.1105 118.1274 118.2668 118.3349 118.3804
   118.3827 118.5360 118.6913 118.7290 119.0382 119.0979 119.1010 119.2663
   119.3447 119.4233 119.4509 119.5563 119.6537 119.8541 119.9374 120.1137
   120.1246 120.2729 120.3007 120.3480 120.4232 120.5685 120.7835 120.7864
   120.9713 121.0428 121.0759 121.2400 121.4241 121.6601 121.7222 121.7797
   121.8552 121.8885 122.2369 122.3380 122.3641 122.4541 122.5005 122.5621
   122.6263 122.6619 122.8143 122.9108 122.9266 122.9952 123.0849 123.1991
   123.2296 123.2846 123.3717 123.4023 123.5068 123.5605 123.5948 123.8130
   123.9635 124.0113 124.1046 124.1070 124.1507 124.1991 124.2118 124.4106
   124.4441 124.5692 124.5933 124.8205 124.8411 124.8672 124.9510 125.2069
   125.3618 125.4425 125.8031 125.8170 125.9433 126.0938 126.1306 126.2074
   126.5085 126.5997 126.7425 126.9421 126.9870 127.0142 127.1507 127.3388
   127.3832 127.4407 127.5435 127.6291 127.6688 127.7957 127.9761 128.0011
   128.0783 128.1494 128.2081 128.2487 128.3886 128.3904 128.4888 128.5558
   128.5782 128.8357 128.8438 129.0785 129.0982 129.1763 129.1771 129.2854
   129.3480 129.5751 129.6329 129.6809 129.7152 129.9374 129.9383 130.1010
   130.2254 130.3443 130.5178 130.6262 130.6751 130.8339 130.8417 130.9509
   130.9922 131.2234 131.2917 131.2954 131.4363 131.6320 131.6781 131.7054
   131.8594 131.9384 132.0376 132.0797 132.2183 132.3341 132.3360 132.4395
   132.4872 132.5287 132.6485 132.8671 132.8794 133.0068 133.1550 133.1738
   133.3783 133.4239 133.5069 133.6947 133.8587 133.8884 134.2851 134.4109
   134.7166 134.7894 134.9282 134.9687 135.1747 135.2177 135.3162 135.4251
   135.4415 135.5500 135.6626 135.7582 135.8178 135.8609 136.0062 136.1730
   136.2660 136.3439 136.4196 136.5670 136.5776 136.7254 136.7580 136.8011
   136.9022 136.9301 137.1026 137.1526 137.2065 137.2479 137.3351 137.4312
   137.4585 137.5843 137.6620 137.7643 137.7894 137.8432 137.9143 137.9364
   138.1180 138.1982 138.2227 138.2909 138.4769 138.5263 138.5588 138.6150
   138.7122 138.7181 138.7903 138.8965 138.8968 139.1336 139.2620 139.3276
   139.4032 139.5152 139.5319 139.5445 139.7116 139.7683 139.8336 139.8937
   139.8947 140.2061 140.2214 140.3625 140.4990 140.5168 140.6741 140.7118
   140.8734 140.9265 141.0106 141.0599 141.1244 141.1587 141.2867 141.4807

          k = 0.0000 0.2887 0.0000 ( 10808 PWs)   bands (ev):

   -30.2805 -30.2553 -30.2059 -30.1922 -30.1424 -30.1141 -30.1003 -30.0597
   -30.0459 -30.0173 -12.3092  -8.1498  -4.2665  -2.5712  -2.2176  -0.3040
     1.8071   1.8354   3.2583   3.6006   4.2062   4.6811   5.0272   5.8537
     6.2685   6.6820   7.0403   7.2968   8.1795   8.9859   9.1617   9.4039
     9.6027   9.8226  10.0621  10.6826  10.7784  11.0207  11.7255  12.0042
    12.1290  12.3163  12.5954  12.7159  12.8008  12.8441  12.8943  13.5239
    13.5376  13.5817  13.7081  14.1216  15.0129  15.0181  15.1634  15.4143
    15.5485  15.6662  15.7887  16.0833  16.6279  16.9387  17.0914  17.7542
    17.7859  17.9720  18.0405  18.2633  18.3210  18.4702  18.6249  18.7145
    18.7867  18.8630  18.9352  19.4481  19.5677  19.6445  19.8474  20.9227
    21.0390  21.0716  21.2878  21.3296  21.3938  21.5408  21.6878  21.6881
    21.7538  21.8376  22.0230  22.4075  22.4904  22.5686  22.6514  22.8536
    23.5303  23.8164  24.0410  24.1032  24.2189  24.4918  24.6348  24.6692
    25.3524  25.6451  25.6585  25.7522  26.0255  26.3996  26.5142  26.6561
    26.8219  26.9942  27.2867  27.4079  27.4309  27.4429  27.5637  27.8016
    27.9224  28.3222  29.2298  29.8766  30.1054  30.1407  30.1639  30.3034
    30.3660  30.4486  30.5283  30.6095  30.6685  30.8370  31.1709  31.3303
    31.4833  31.4877  31.5101  31.5432  31.6563  31.8311  32.0584  32.4578
    32.7324  32.9047  33.0461  33.0499  33.2460  33.4005  33.4070  33.4262
    33.6131  33.6424  34.2647  34.5229  34.8322  35.0456  35.3680  35.4896
    35.5985  35.6825  35.9611  35.9953  36.1678  36.2212  36.2681  36.3470
    36.4735  36.5259  36.8395  36.9646  37.8745  38.0653  38.3395  38.5412
    38.6403  38.9778  39.0622  39.0763  39.1089  39.1912  39.3852  39.4278
    39.4401  39.4951  39.6275  39.7587  39.8021  39.8778  40.0632  40.2232
    40.3489  40.3798  40.5383  40.5814  40.7069  40.8082  41.0468  41.2848
    41.3484  41.7314  41.8232  41.8481  42.0333  42.0940  42.1881  42.2518
    42.3537  42.3657  42.3994  42.5036  42.5455  42.8014  42.9894  43.1275
    43.4594  43.5120  43.5978  43.7707  44.1075  44.4855  44.5755  44.7292
    44.8199  44.8753  44.9867  45.0808  45.1548  45.1781  45.3053  45.4027
    45.5169  45.5905  45.6786  45.8899  46.1039  46.1954  46.4731  46.4812
    46.7585  46.9857  47.0398  47.0544  47.3544  47.4287  47.5526  47.6181
    47.8280  47.9728  48.0625  48.0918  48.1243  48.1387  48.1771  48.3384
    48.3682  48.4097  48.4755  48.5015  48.5568  48.6540  48.7294  48.7805
    48.9269  48.9287  48.9525  49.0009  49.1236  49.1519  49.2976  49.3126
    49.7154  49.7469  50.5332  50.6129  50.6708  50.9170  50.9461  50.9993
    51.0004  51.1658  51.1915  51.3450  51.6054  51.8900  52.0134  52.1743
    52.3068  52.4292  52.4848  52.6123  52.8803  53.0646  53.1539  53.2931
    53.4510  53.5135  53.5412  53.6662  53.9897  54.0065  54.0401  54.1330
    54.2404  54.2881  54.4062  54.5087  54.5584  54.5978  55.0284  55.0530
    55.3052  55.5092  55.5893  55.7502  55.9064  56.0798  56.3523  56.5788
    56.6396  56.8672  56.9070  56.9770  57.0515  57.0617  57.1987  57.2144
    57.3539  57.3783  57.4732  57.5083  57.6776  57.8718  57.9555  57.9993
    58.0963  58.1324  58.3401  58.4165  58.4450  58.4615  58.5996  58.9381
    59.0614  59.1722  59.2939  59.3279  59.5480  59.8892  59.9577  60.2048
    60.2992  60.3707  60.4956  60.7407  60.8168  60.9910  61.2019  61.3918
    61.3920  61.6493  61.7224  61.7799  61.9385  62.2231  62.2803  62.2961
    62.4815  62.5264  62.6994  62.7863  62.8071  62.9029  63.0017  63.0306
    63.1568  63.2541  63.2964  63.3781  63.4983  63.5341  63.7385  63.8702
    63.9198  64.0935  64.1047  64.1360  64.3617  64.4724  64.5575  64.8621
    65.1870  65.2855  65.4165  65.6594  65.7929  65.8134  65.9378  65.9848
    66.0956  66.1932  66.3517  66.4510  66.5555  66.5721  66.6992  66.7242
    67.1621  67.3039  67.3718  67.4596  67.7780  68.3125  68.3975  68.4633
    68.5521  68.6362  68.7349  68.8068  68.8941  69.0608  69.1813  69.2334
    69.5262  69.5347  69.6640  69.7679  69.9652  70.0536  70.1460  70.2173
    70.3752  70.6835  70.8711  70.9280  71.0033  71.3059  71.4408  71.5947
    71.6025  71.6503  71.6743  71.7690  72.0786  72.2337  72.2601  72.3558
    72.3945  72.6205  72.6279  72.7024  72.8112  73.0127  73.0186  73.1274
    73.2735  73.3119  73.3937  73.5279  73.5996  73.6881  73.8649  73.8927
    73.9284  74.1582  74.3040  74.3939  74.4155  74.5362  74.6324  74.8149
    74.9355  75.0172  75.0536  75.1170  75.1745  75.2646  75.2876  75.3514
    75.4007  75.4828  75.4884  75.6742  75.7295  75.7670  75.8861  75.9832
    75.9976  76.1280  76.2363  76.2954  76.5156  76.5293  76.8972  77.0074
    77.0425  77.1554  77.2037  77.3459  77.4033  77.4107  77.7786  77.8326
    77.9863  78.0574  78.1496  78.1755  78.3261  78.4367  78.4729  78.6102
    78.8075  78.8094  79.2741  79.4140  79.4515  79.8050  79.9720  80.0785
    80.1151  80.1406  80.2031  80.3359  80.5197  80.5880  80.7986  80.8605
    80.8651  80.9078  80.9374  81.1738  81.1929  81.2257  81.3093  81.3908
    81.5208  81.5880  81.6389  81.8104  81.9470  82.0300  82.2191  82.3254
    82.3975  82.4111  82.6000  82.6684  82.8186  82.9097  83.0310  83.2265
    83.2762  83.3370  83.4011  83.6062  83.6721  83.7129  83.7629  83.8458
    83.9765  84.0264  84.0462  84.0679  84.2219  84.2744  84.3605  84.5167
    84.6537  84.7734  84.8658  84.9336  85.0380  85.1172  85.1204  85.2846
    85.3218  85.4268  85.7133  85.7181  85.9928  86.1318  86.4270  86.5024
    86.5233  86.6239  86.8121  86.9007  87.0044  87.0704  87.3192  87.4223
    87.4509  87.5438  87.6297  87.6975  87.8141  87.9951  88.0364  88.0840
    88.2057  88.2849  88.4205  88.5997  88.7017  88.8281  88.9997  89.1366
    89.2171  89.3011  89.3519  89.4177  89.4675  89.5475  89.6208  89.7864
    89.8237  89.8321  89.9222  89.9258  89.9795  90.1457  90.3231  90.3681
    90.4426  90.5206  90.6287  90.7018  90.7413  90.8267  90.8290  90.8723
    90.9662  90.9720  91.1996  91.2286  91.2920  91.3928  91.4950  91.5331
    91.7643  91.8769  91.8996  91.9992  92.0165  92.1555  92.2399  92.2759
    92.3586  92.4066  92.4372  92.5451  92.5912  92.6226  92.6684  92.6908
    92.8380  92.9365  93.0701  93.0980  93.1297  93.1443  93.2222  93.2472
    93.2930  93.4221  93.5387  93.5985  93.7521  93.8528  94.0729  94.3531
    94.4842  94.5605  94.6414  94.8578  95.0048  95.0558  95.0945  95.2278
    95.4509  95.4976  95.5664  95.6482  95.8090  95.9121  96.2217  96.3271
    96.4195  96.4560  96.4883  96.8091  96.8486  96.9268  96.9302  96.9928
    97.1623  97.1792  97.3434  97.4940  97.5879  97.7580  97.9438  97.9651
    98.0868  98.1467  98.2916  98.3053  98.4122  98.5369  98.5527  98.5994
    98.6539  98.6779  98.8652  98.8929  98.8931  99.0812  99.1258  99.1879
    99.3257  99.3951  99.4025  99.4359  99.5639  99.6027  99.6454  99.6502
    99.8026  99.8273  99.8487  99.9559  99.9569 100.0200 100.1706 100.2543
   100.3619 100.4602 100.5565 100.7026 100.7176 100.8418 100.8619 100.8646
   100.8901 100.9906 101.0398 101.0508 101.1517 101.2030 101.2390 101.3049
   101.3174 101.3412 101.4415 101.5023 101.5197 101.6028 101.6317 101.7717
   101.9028 101.9644 102.0248 102.0322 102.0485 102.0892 102.2465 102.3033
   102.3210 102.4075 102.4852 102.5041 102.5950 102.6312 102.6522 102.7165
   102.7884 102.8069 102.8329 102.8685 102.9710 103.1028 103.1323 103.3348
   103.4544 103.5764 103.6336 103.9066 103.9354 104.0632 104.1408 104.1703
   104.1860 104.2361 104.4448 104.4766 104.5652 104.5821 104.6415 104.6870
   104.7008 104.7226 104.8802 104.9143 104.9637 105.1333 105.2459 105.3781
   105.4981 105.6515 105.9509 105.9737 106.1915 106.1975 106.2575 106.2992
   106.3972 106.4925 106.5637 106.6999 106.7077 106.8289 106.8616 106.8965
   107.1043 107.1394 107.1890 107.2366 107.3521 107.3862 107.5276 107.6110
   107.6929 107.7331 107.7850 107.8367 107.8402 107.9597 107.9664 108.1093
   108.2990 108.3347 108.3694 108.5117 108.5937 108.6639 108.6873 108.7216
   108.9114 109.0100 109.0677 109.1920 109.2501 109.3050 109.3402 109.3651
   109.5029 109.7320 109.7649 109.7775 110.0537 110.0991 110.1599 110.2701
   110.2755 110.3850 110.5807 110.6363 110.7224 110.8027 110.8762 111.0155
   111.1429 111.1669 111.1723 111.2699 111.3157 111.3477 111.5723 111.6092
   111.8498 111.8947 111.9298 112.1314 112.2926 112.3178 112.5718 112.6989
   112.8457 112.9497 113.1618 113.1686 113.3565 113.3885 113.4678 113.7367
   113.7909 113.9088 113.9211 114.0423 114.0509 114.1676 114.3605 114.4294
   114.5684 114.6006 114.6794 114.7008 114.9223 115.0404 115.1230 115.2598
   115.2652 115.2817 115.4089 115.5124 115.5272 115.6639 115.8102 116.0646
   116.1987 116.4067 116.4628 116.5209 116.6666 116.6960 116.8816 116.9237
   116.9755 117.1346 117.3595 117.3978 117.5800 117.6207 117.6449 117.9329
   117.9709 117.9873 118.0148 118.0294 118.1727 118.1821 118.3211 118.4258
   118.6453 118.7024 118.7782 118.9715 118.9783 119.1142 119.1551 119.2824
   119.3480 119.3756 119.4904 119.4974 119.5874 119.6504 119.7874 119.8464
   119.9036 119.9159 119.9201 120.0556 120.1015 120.2262 120.2286 120.2491
   120.3013 120.3790 120.4121 120.4846 120.4954 120.5891 120.7356 120.7474
   120.8764 121.0170 121.1158 121.3339 121.4397 121.5525 121.7661 121.8210
   121.9135 121.9221 121.9635 122.2197 122.2436 122.2615 122.5315 122.5845
   122.6081 122.7398 122.8727 123.0005 123.0712 123.1190 123.3160 123.3545
   123.3981 123.5473 123.7078 123.7982 123.9687 124.0123 124.0475 124.0896
   124.1866 124.2363 124.4550 124.5293 124.6092 124.6616 124.8312 124.9230
   124.9271 125.0683 125.2118 125.2605 125.2789 125.3475 125.4112 125.5339
   125.6460 125.6808 125.8192 125.8606 125.8642 126.1813 126.3121 126.3744
   126.3870 126.5909 126.5915 126.7224 126.7308 126.8395 126.9837 127.0399
   127.0893 127.1465 127.2322 127.2549 127.3572 127.5171 127.6215 127.7571
   127.8297 127.9041 127.9283 128.0587 128.1265 128.1307 128.3106 128.4727
   128.5087 128.5681 128.6804 128.7110 128.7384 128.7408 128.8287 128.8514
   128.9318 129.1139 129.1575 129.2037 129.3303 129.3472 129.3480 129.4672
   129.5947 129.6386 129.7250 129.7796 129.8314 129.9544 129.9633 130.2442
   130.3885 130.4022 130.4566 130.6236 130.7306 130.8726 130.9001 130.9518
   130.9593 131.1496 131.1695 131.2218 131.3860 131.3984 131.5214 131.5440
   131.6455 131.7089 131.7173 131.8147 131.8401 131.9355 132.1114 132.1355
   132.1702 132.2330 132.3233 132.5378 132.6104 132.7182 132.7444 132.8157
   132.8810 133.0869 133.1135 133.1967 133.2467 133.4124 133.4178 133.6452
   133.6621 133.8052 134.0055 134.0349 134.0616 134.0829 134.1256 134.3879
   134.3965 134.5880 134.6476 134.7263 134.7289 134.7673 134.9704 135.0472
   135.1943 135.3260 135.3323 135.4300 135.5338 135.6180 135.7153 135.7871
   135.7903 135.9154 136.0607 136.1304 136.2876 136.2951 136.3330 136.3430
   136.4330 136.4902 136.6462 136.8359 136.8874 136.9044 137.0565 137.1468
   137.1687 137.2603 137.2809 137.3485 137.4314 137.5698 137.6237 137.6891
   137.7178 137.8262 137.8668 137.8984 137.9936 138.0983 138.2258 138.2640
   138.2677 138.3131 138.3221 138.4249 138.4780 138.4994 138.5068 138.6456
   138.6730 138.9213 138.9501 139.0777 139.1810 139.2464 139.3622 139.4532
   139.5208 139.6144 139.7615 139.7828 139.8957 140.0161 140.1181 140.2107

          k = 0.0000 0.4330 0.0000 ( 10800 PWs)   bands (ev):

   -30.2779 -30.2329 -30.1928 -30.1725 -30.1390 -30.1303 -30.1030 -30.0853
   -30.0573 -30.0184 -11.5726  -8.8260  -4.7074  -3.0202  -2.7100  -0.3017
     1.1733   1.8920   3.7015   4.0965   4.7517   5.3449   5.6476   6.1985
     6.9748   7.0659   7.3877   7.7554   7.9675   8.4140   8.5865   8.6136
     9.0506   9.0553   9.9669  10.3035  10.4429  10.6362  11.3119  11.7789
    11.9147  12.1965  12.2310  12.7732  12.8085  12.9710  13.0215  13.1987
    13.3951  13.4594  13.5784  13.6979  14.0106  14.4155  14.7895  14.8738
    14.9690  15.1213  15.6759  16.4239  16.5934  16.7364  17.0993  17.3839
    17.5236  17.6970  17.8014  17.9344  18.1119  19.1240  19.1298  20.0297
    20.3362  20.3888  20.4620  20.7226  20.8836  21.0083  21.0762  21.1442
    21.1932  21.3742  21.5905  21.8601  21.9666  22.0178  22.1059  22.4052
    22.4425  22.7892  23.1075  23.4684  23.7155  23.7732  23.9424  24.1450
    24.7655  24.7694  24.9424  25.0386  25.2616  25.4123  25.5999  25.6047
    25.6693  26.2051  26.3474  26.3478  26.4013  26.5241  26.5806  26.6031
    26.8694  26.8945  27.0477  27.2284  27.5888  27.7453  27.7455  27.8791
    27.9394  28.0383  28.1136  28.2665  28.6688  28.8304  29.4794  29.4944
    29.5404  29.7089  29.7710  29.8520  29.9505  29.9748  30.0101  30.0672
    30.2517  30.3290  30.3746  30.7440  30.9460  31.1040  31.3471  31.4238
    32.1918  32.3750  32.4073  32.6672  32.9434  32.9933  33.3994  33.5699
    33.7443  33.8025  33.8619  34.2162  34.2815  34.3970  34.4959  34.6615
    34.7734  34.7909  35.1292  35.2354  35.3513  35.5675  35.6694  35.7768
    35.7923  35.8991  36.0251  36.1185  36.4307  36.9043  37.1035  37.3445
    37.3906  37.5238  37.9210  38.0456  38.2872  38.4509  38.4843  38.9122
    39.0579  39.4364  39.4781  39.4966  39.6268  39.8784  39.9271  40.0254
    40.1449  40.2788  40.3224  40.4310  40.5297  40.5793  40.6436  40.7572
    41.1438  41.2141  41.3070  41.3935  41.4625  41.4904  41.8300  41.9250
    42.3582  42.5028  42.8301  42.8506  42.9323  43.1743  43.1757  43.3363
    43.3846  43.4071  43.4718  43.5946  43.6517  43.7762  43.7851  43.9429
    43.9904  44.0655  44.1963  44.2518  44.3777  44.4212  44.4976  44.6499
    44.7442  45.0948  45.1866  45.4986  45.6985  45.8245  45.8436  46.0743
    46.0865  46.1748  46.1846  46.3679  46.7779  46.7938  47.0590  47.3389
    47.5555  47.8922  47.9273  48.0388  48.2036  48.2667  48.3987  48.5705
    48.7924  48.8553  48.9510  48.9721  49.1823  49.2914  49.3247  49.4508
    49.4609  49.5601  49.5958  49.8823  49.9727  49.9946  50.2011  50.2037
    50.5105  50.7420  50.8622  51.0069  51.3046  51.4054  51.8939  51.9639
    52.0598  52.2403  52.4009  52.5744  52.9918  53.0212  53.1574  53.2487
    53.2812  53.2890  53.4951  53.6998  53.8885  53.9900  54.2361  54.3684
    54.4545  54.4548  54.7205  54.7506  54.8354  54.8506  55.0675  55.0837
    55.2512  55.4508  55.6186  55.7313  55.7567  56.1080  56.2204  56.2885
    56.3775  56.4588  56.4779  56.5408  56.6678  56.7089  56.7588  56.8231
    56.8285  56.9706  57.0587  57.3853  57.3890  57.6185  57.6962  57.7345
    57.8891  58.0249  58.1155  58.2356  58.5630  58.6332  58.8361  58.8993
    59.0663  59.1837  59.2947  59.5191  59.8998  59.9372  60.2891  60.2929
    60.3841  60.7461  60.8297  60.9791  61.0529  61.1975  61.3161  61.3918
    61.5100  61.7931  61.8422  61.9185  61.9248  62.0263  62.1710  62.2113
    62.3538  62.4090  62.6026  62.6113  62.7557  62.8605  63.1208  63.1253
    63.2101  63.4258  63.4612  63.5731  63.6625  63.7497  63.7588  63.8415
    64.0224  64.0695  64.1358  64.1476  64.2637  64.3006  64.3314  64.4450
    64.5225  64.5694  64.9248  65.3440  65.4018  65.5129  65.5224  65.7206
    65.7372  65.8500  65.8553  66.1172  66.1776  66.3870  66.4609  66.4934
    66.4998  66.5928  66.6350  66.7540  66.7825  66.8759  66.9317  67.0134
    67.0256  67.1088  67.3648  67.4920  67.6530  67.9916  68.0815  68.2062
    68.3579  68.3601  68.3830  68.5419  68.7956  68.9398  69.1486  69.2705
    69.3987  69.4856  69.7045  69.7528  69.8346  69.9390  69.9508  70.1035
    70.1182  70.1895  70.2183  70.2465  70.2675  70.3234  70.4020  70.5832
    70.6845  70.7258  70.8290  70.8398  70.8801  71.0434  71.0515  71.0840
    71.1729  71.2601  71.3203  71.3685  71.4144  71.5683  71.6177  71.6993
    71.9127  72.0472  72.0512  72.2052  72.2340  72.4734  72.5156  72.5463
    72.6360  72.6818  72.8371  72.8877  72.8919  72.9859  73.1082  73.2033
    73.3804  73.6305  73.7126  73.7353  73.8270  73.9346  74.1199  74.3471
    74.4157  74.5050  74.6147  74.6316  74.7649  74.9998  75.2894  75.3845
    75.4142  75.4505  75.6074  75.6904  75.8768  76.1495  76.2565  76.2988
    76.3050  76.4119  76.4482  76.5045  76.6283  76.9020  77.1311  77.1893
    77.2578  77.2777  77.4519  77.8002  77.9214  78.0804  78.0846  78.2301
    78.3013  78.3557  78.4648  78.5844  78.6432  78.6965  78.7593  78.8066
    78.9509  79.0744  79.0974  79.1370  79.2583  79.3139  79.3741  79.4184
    79.4498  79.5624  79.8230  80.0350  80.5687  80.5713  80.6424  80.7074
    81.0998  81.2041  81.2090  81.3317  81.6325  81.6691  81.8052  82.0245
    82.1195  82.1310  82.3984  82.5034  82.5975  82.8098  82.8441  82.9143
    82.9251  83.0964  83.2412  83.2961  83.3484  83.4129  83.4240  83.5229
    83.5646  83.6737  83.7333  83.7382  83.9573  83.9728  84.1034  84.1383
    84.1547  84.2221  84.2660  84.3149  84.3398  84.4858  84.5074  84.6362
    84.7340  84.9183  85.0497  85.1165  85.3279  85.3567  85.4190  85.7111
    85.7528  85.8525  85.9567  86.1118  86.1438  86.3275  86.3744  86.4528
    86.5813  86.7612  86.7701  86.9263  86.9781  87.1773  87.2471  87.3153
    87.4465  87.5054  87.5909  87.6691  87.7637  87.8217  87.8999  88.0594
    88.0852  88.1334  88.2836  88.3288  88.3456  88.6171  88.7017  88.8232
    88.9492  88.9751  89.0892  89.1125  89.2319  89.2399  89.6374  89.7895
    89.8056  89.9177  89.9211  90.1229  90.2835  90.2944  90.5000  90.5967
    90.6306  90.7673  90.7781  90.7824  91.0852  91.2253  91.3407  91.4571
    91.6444  91.7817  91.9279  91.9599  92.0928  92.2227  92.2627  92.3381
    92.4097  92.4170  92.4553  92.6283  92.6527  92.6984  92.8129  92.8658
    93.0199  93.0347  93.1623  93.2035  93.4061  93.4573  93.5294  93.6092
    93.7022  93.8094  93.8988  93.9576  94.1466  94.2330  94.2505  94.4556
    94.6234  94.6777  94.7689  94.8249  94.8748  94.9394  95.0422  95.0466
    95.0587  95.2180  95.2532  95.3580  95.4915  95.5483  95.9042  95.9634
    96.0686  96.1174  96.2156  96.3055  96.3550  96.3985  96.4460  96.5331
    96.6559  96.6997  96.9528  97.0582  97.2877  97.3636  97.4109  97.4521
    97.4820  97.5740  97.6795  97.7898  97.8057  97.9535  98.0078  98.1335
    98.3082  98.4096  98.4308  98.4889  98.5482  98.5779  98.6481  98.9454
    99.0388  99.0578  99.0609  99.2013  99.2875  99.3180  99.3366  99.4738
    99.4899  99.6154  99.7697  99.8857 100.1226 100.1522 100.1722 100.3116
   100.4601 100.5917 100.7281 100.8584 100.8823 100.8951 100.9173 100.9980
   101.0054 101.0522 101.0767 101.2063 101.2671 101.3787 101.5572 101.6314
   101.6387 101.6583 101.7958 101.8727 101.9652 102.0760 102.1750 102.2940
   102.3391 102.4118 102.6165 102.8620 102.8649 102.8865 103.1686 103.1850
   103.3495 103.5075 103.5299 103.6234 103.6398 103.6961 103.7720 104.0104
   104.1565 104.1713 104.3827 104.5236 104.5606 104.7025 104.7278 104.8461
   104.9255 105.0049 105.0438 105.2886 105.3798 105.4538 105.5476 105.5497
   105.6007 105.6908 105.7721 105.8941 105.9108 105.9859 106.0744 106.1769
   106.2005 106.2572 106.4103 106.4360 106.4851 106.5227 106.5444 106.5715
   106.7465 106.8655 106.8667 106.8977 106.9161 107.1736 107.1900 107.2215
   107.2864 107.5330 107.6042 107.7271 107.8178 107.9431 107.9907 108.0500
   108.3329 108.4777 108.4876 108.5870 108.6031 108.6337 108.7003 108.8462
   109.0186 109.2086 109.2277 109.2425 109.4051 109.7578 109.7604 109.9040
   109.9775 110.0132 110.1341 110.1755 110.3041 110.3536 110.4596 110.5647
   110.6686 110.7401 110.7641 110.7952 110.8199 110.9532 111.0412 111.0617
   111.1146 111.1577 111.2999 111.3588 111.4215 111.4502 111.5189 111.6048
   111.8985 111.9582 111.9790 112.1074 112.1539 112.3275 112.3914 112.5110
   112.5410 112.6484 112.6590 112.7071 112.7724 112.7856 112.9016 113.0352
   113.0880 113.1332 113.2462 113.2737 113.3357 113.4191 113.5314 113.5354
   113.6930 113.8134 113.9007 113.9855 113.9867 113.9941 114.2367 114.2682
   114.3986 114.4135 114.4425 114.5101 114.5309 114.6966 114.7999 114.9434
   114.9742 115.0153 115.1743 115.3308 115.4712 115.5389 115.5588 115.5924
   115.6307 115.6757 115.7988 115.8467 116.0371 116.3159 116.3167 116.4515
   116.4741 116.7305 116.8630 117.0795 117.1143 117.2697 117.3003 117.5294
   117.5557 117.6258 117.7999 117.8168 118.0209 118.0212 118.1774 118.1856
   118.2816 118.5183 118.5231 118.5995 118.8407 118.8874 119.0878 119.1048
   119.1519 119.3284 119.4082 119.5972 119.6057 119.8396 120.0127 120.0399
   120.1357 120.2051 120.2279 120.2554 120.4012 120.4290 120.5358 120.5887
   120.6257 120.7574 120.7682 120.8067 120.9315 121.0391 121.1634 121.2234
   121.2333 121.4653 121.4702 121.4896 121.6139 121.6246 121.7202 121.7702
   121.8131 121.8431 121.8542 121.9694 121.9862 122.1245 122.1582 122.2138
   122.2722 122.3276 122.3661 122.5023 122.5856 122.6464 122.7253 122.8032
   122.8866 122.8889 122.9247 122.9735 123.0437 123.2141 123.2361 123.2996
   123.3758 123.4522 123.5385 123.6561 123.7146 123.7968 123.8007 123.8886
   124.1062 124.1913 124.2512 124.4438 124.5823 124.7221 124.9197 124.9976
   125.0096 125.0244 125.1087 125.2111 125.2985 125.3201 125.4797 125.5623
   125.5696 125.5950 125.6220 125.8244 125.8664 125.8806 125.9160 126.0734
   126.1387 126.1474 126.3086 126.3491 126.4037 126.4869 126.6258 126.7514
   126.7935 127.0536 127.0649 127.1781 127.2159 127.2628 127.4195 127.4222
   127.5077 127.5545 127.6485 127.6775 127.6880 127.8905 127.8991 127.9990
   128.0340 128.1425 128.1659 128.2150 128.2736 128.3846 128.4335 128.4556
   128.4748 128.5669 128.6082 128.7523 128.8103 128.8367 128.9513 129.0069
   129.0146 129.1233 129.1281 129.2829 129.3816 129.4002 129.5435 129.5737
   129.7377 129.7736 129.9008 129.9224 130.0135 130.0307 130.1901 130.2463
   130.2803 130.2829 130.3917 130.4199 130.4972 130.5272 130.6640 130.7209
   130.8895 131.0385 131.0812 131.2588 131.2931 131.3783 131.5219 131.5748
   131.7702 131.8780 131.9262 132.0416 132.1252 132.3824 132.4046 132.4263
   132.6406 132.6720 132.7781 132.9362 133.0243 133.0427 133.1517 133.2406
   133.3116 133.3298 133.3662 133.3811 133.3987 133.5034 133.6039 133.6416
   133.7411 133.8787 133.9188 134.0668 134.0863 134.0951 134.2661 134.2852
   134.3469 134.4086 134.4108 134.4706 134.5250 134.5680 134.6866 134.7652
   134.7820 134.8602 134.9732 135.0134 135.0225 135.1157 135.1346 135.4404
   135.5590 135.6165 135.6671 135.7570 135.9463 136.0441 136.1426 136.1987
   136.3639 136.4251 136.4670 136.5836 136.6572 136.7724 136.8157 136.8392
   136.8719 136.9912 137.1132 137.2055 137.2706 137.3840 137.4039 137.4488
   137.5539 137.6601 137.7294 137.8097 137.8338 137.8668 137.9191 138.0053
   138.0317 138.1426 138.1912 138.2499 138.4002 138.4148 138.4984 138.5467
   138.7260 138.7262 138.8475 138.9140 139.0041 139.0106 139.0341 139.1974

          k = 0.0000-0.5774 0.0000 ( 10818 PWs)   bands (ev):

   -30.2768 -30.2259 -30.1703 -30.1535 -30.1511 -30.1479 -30.1025 -30.1003
   -30.0607 -30.0189 -11.0249  -9.4362  -4.6084  -3.1800  -3.1343  -0.0083
     0.7404   1.8689   3.4193   5.1912   5.3181   5.6296   6.0155   6.2283
     6.6266   6.8538   6.9318   7.0453   7.9107   8.5188   8.8319   8.8489
     8.8595   9.3830  10.3352  10.4556  10.5435  11.3375  11.3454  11.4796
    11.5405  11.5854  11.5866  11.8726  12.0320  12.0958  12.7872  12.8080
    12.8360  13.0840  14.3524  14.5773  14.5786  14.5807  14.7429  14.9824
    15.1685  15.2635  15.9356  16.0245  16.3515  17.1606  17.2857  17.4085
    17.4855  17.5428  17.6984  18.3515  18.6310  18.8743  19.0298  19.0694
    19.7478  20.0072  20.1500  20.5105  20.8765  20.9056  21.0700  21.2283
    22.1716  23.1034  23.1066  23.2816  23.2955  23.3285  23.6187  23.7208
    23.8424  23.8456  23.9151  23.9189  24.0313  24.0735  24.4269  24.4484
    24.6074  24.6908  24.7194  24.8152  24.9177  24.9277  24.9844  25.0515
    25.0760  25.2089  25.9099  25.9104  26.3800  26.5251  26.5307  26.5657
    26.6701  26.7302  26.8741  27.0803  27.2701  27.8838  28.3000  28.3601
    28.5634  28.7415  28.9793  29.0399  29.1674  29.1697  29.2153  29.4311
    29.5635  29.6350  29.6720  29.6885  29.7519  29.7718  29.7816  29.7926
    29.9496  30.0161  30.0696  30.3043  30.5984  30.7472  30.9648  31.0082
    32.1635  32.2114  32.4065  32.4071  32.4699  32.6267  32.6336  32.7100
    32.7473  32.8700  33.0892  33.1467  33.2898  33.6507  34.0522  34.5240
    34.5767  34.6503  34.8953  34.9700  35.0389  35.0626  35.1687  35.4361
    35.5747  35.7144  35.8671  35.9366  36.2028  36.3432  36.6261  36.7924
    36.8293  36.8532  37.0050  37.3311  37.3576  38.0539  38.5501  38.6645
    38.8693  38.9555  39.0623  39.0744  39.4847  40.3703  40.4557  40.5996
    40.7483  40.9514  40.9713  41.0297  41.2272  41.2589  41.3116  41.3802
    41.4654  41.6250  41.6692  41.6731  41.7951  41.8750  41.9011  41.9065
    42.1268  42.1622  42.1820  42.4079  42.4126  42.4173  42.5482  42.5525
    42.6114  42.6262  42.6951  42.7155  42.9408  42.9491  43.0502  43.1179
    43.1299  43.2771  44.0788  44.3847  44.4075  44.5277  44.5689  44.6058
    44.7945  44.8257  44.9608  45.4262  45.9140  46.0769  46.3318  46.4795
    46.8140  46.8461  46.8476  46.9484  47.0628  47.1007  47.1804  47.1844
    47.1933  47.3566  47.3824  47.5014  47.7268  47.7965  47.8887  48.0130
    48.0564  48.0863  48.3889  48.7984  48.9883  49.1152  49.1711  49.5843
    49.7132  49.7484  49.9923  50.2288  50.2759  50.5923  50.6809  50.7146
    50.7598  50.8554  51.0715  51.3055  51.7576  51.9345  52.0363  52.0603
    52.1930  52.2746  52.6442  52.8574  53.1397  53.1488  53.1679  53.3154
    53.6231  53.6660  53.8491  53.8625  54.0837  54.2048  54.2385  54.2618
    54.7102  54.8449  54.8499  54.9127  55.0625  55.1034  55.2901  55.2960
    55.3979  55.5711  55.7231  56.1487  56.4531  56.8976  57.0051  57.2654
    57.4350  57.4899  57.7830  58.0421  58.1265  58.5307  58.6298  58.6989
    58.7994  58.8130  58.9339  59.2010  59.3155  59.3215  59.3258  59.3925
    59.3941  59.4597  59.5673  59.5934  59.6126  59.6448  59.7101  59.7631
    59.8147  59.9630  59.9727  60.0722  60.1457  60.1552  60.2810  60.3205
    60.3792  60.3846  60.4227  60.4746  60.5990  60.6516  61.0214  61.0224
    61.1873  61.5932  61.6382  61.7757  61.7953  61.9978  62.2622  62.2825
    62.4722  62.4793  62.5025  62.6997  62.7036  62.9104  63.1185  63.2016
    63.2912  63.4798  63.8586  64.1470  64.2357  64.3610  64.3914  64.5298
    64.6840  64.6851  64.7141  64.8020  64.8295  64.9209  64.9512  65.0493
    65.0749  65.1753  65.2822  65.3151  65.3326  65.4866  65.5035  65.5274
    65.5408  65.6169  65.6873  65.7023  65.8330  65.9821  66.0473  66.1282
    66.2249  66.3201  66.3379  66.3713  66.4110  66.4258  66.4996  66.6366
    66.6524  66.6547  66.7563  66.8150  66.8877  66.9826  67.3745  67.4598
    67.4979  67.6745  67.7688  67.8526  67.9197  68.0364  68.0869  68.1014
    68.1944  68.2249  68.3211  68.3649  68.4778  68.5422  68.5477  68.7103
    68.7416  68.7876  68.9428  69.3079  69.5235  69.7510  70.1244  70.3730
    70.4650  70.5138  70.5811  70.7933  70.8221  70.8763  70.9388  71.0304
    71.0405  71.0566  71.1127  71.4376  71.4793  71.7459  71.7831  71.7942
    71.9062  72.1005  72.1006  72.1439  72.1674  72.3365  72.4754  72.4808
    72.5642  72.7252  72.8180  73.1145  73.1566  73.3491  73.6750  73.8123
    73.8160  74.0028  74.1131  74.1640  74.1928  74.2316  74.3413  74.3777
    74.4309  74.7462  75.0555  75.0596  75.0859  75.0909  75.2909  75.4173
    75.4499  75.6405  75.9292  76.1454  76.2052  76.2932  76.4115  76.4410
    76.4414  76.6092  76.9315  76.9528  76.9572  76.9699  77.1708  77.2442
    77.4003  77.4763  77.5057  77.5780  77.6409  77.6902  77.7653  77.8707
    77.9379  77.9736  77.9882  78.2935  78.3140  78.3190  78.3583  78.4284
    78.4876  78.5410  78.6512  78.6739  78.6944  78.8616  78.9719  79.0824
    79.7643  79.8079  79.9381  80.0952  80.2617  80.3275  80.4617  80.4658
    80.7822  80.8242  80.9833  81.0304  81.0765  81.2228  81.2348  81.4835
    81.6103  81.8671  82.0986  82.1284  82.1569  82.3868  82.5793  82.6375
    82.7897  82.8740  82.8845  82.9661  83.0230  83.0257  83.1062  83.2005
    83.2181  83.2740  83.3610  83.3958  83.4484  83.4524  83.4547  83.5357
    83.6012  83.6862  83.7654  83.7926  83.9686  83.9819  83.9873  84.1141
    84.3116  84.3677  84.4667  84.4823  84.4981  84.7453  84.8283  84.8758
    84.9612  85.0560  85.2562  85.5353  85.5497  85.5791  85.7333  85.7632
    85.8231  85.9673  86.0193  86.1548  86.1665  86.3180  86.3329  86.4760
    86.4960  86.7579  86.9904  87.4421  87.5730  87.6214  87.8871  87.9163
    88.2922  88.3595  88.3797  88.4288  88.4469  88.4845  88.5039  88.5244
    88.7923  88.8212  88.8959  88.9119  89.0956  89.1153  89.2036  89.5907
    89.7240  89.8978  89.9090  90.0506  90.0783  90.2403  90.2955  90.3371
    90.3542  90.5736  90.6201  90.6519  90.7216  91.0059  91.2426  91.2830
    91.3895  91.5914  91.9216  91.9901  92.1223  92.1972  92.4083  92.5517
    92.6298  92.6813  92.7777  92.8300  92.9653  93.1089  93.2241  93.2910
    93.3372  93.3456  93.5473  93.6038  93.7986  93.9207  93.9555  93.9834
    94.0857  94.1295  94.2791  94.3160  94.4283  94.5493  94.5634  94.5866
    94.6437  94.7764  94.8505  94.8861  94.8988  94.9374  95.0232  95.1577
    95.2001  95.2645  95.3589  95.4148  95.4424  95.5042  95.6518  95.6995
    95.7143  95.7229  95.7339  95.7540  95.9429  95.9455  95.9627  95.9883
    96.0733  96.1243  96.1495  96.1631  96.2433  96.3572  96.4554  96.5289
    96.5442  96.6096  97.2030  97.3964  97.6199  97.6242  97.7137  97.7729
    97.7869  97.9049  97.9158  98.2417  98.4038  98.4476  98.6779  98.8358
    98.9545  99.0409  99.1024  99.3126  99.4375  99.6826  99.7931  99.8005
    99.9210  99.9438 100.0411 100.1000 100.1615 100.2745 100.4229 100.4584
   100.6059 100.8492 100.8683 100.8906 100.8997 100.9290 100.9494 101.0709
   101.0756 101.1993 101.2676 101.3524 101.5123 101.5667 101.5984 101.6702
   101.7411 101.7774 101.8455 101.9686 102.0154 102.1310 102.3558 102.3724
   102.4249 102.4774 102.5057 102.6674 102.7397 102.9345 102.9435 103.0575
   103.1107 103.1518 103.3232 103.3243 103.4167 103.4734 103.5331 103.5679
   103.6827 103.6994 103.8945 103.9063 103.9517 104.0647 104.0882 104.3036
   104.4962 104.5552 105.2145 105.2481 105.3292 105.5141 105.5724 105.5870
   105.7067 105.7169 105.8421 106.0297 106.0661 106.2181 106.2544 106.5179
   106.6428 106.6754 107.1939 107.3764 107.4307 107.5060 107.5211 107.5601
   107.6244 107.8005 107.8678 108.1258 108.1313 108.1595 108.1797 108.3764
   108.3897 108.6350 108.6812 108.7542 108.8539 108.9144 109.1422 109.1436
   109.2176 109.3212 109.6269 109.7587 109.8394 109.8922 109.9176 110.0014
   110.0961 110.3602 110.3671 110.5021 110.6680 110.7056 110.7317 110.7382
   110.9264 110.9453 111.0957 111.3181 111.3377 111.5186 111.5843 111.6324
   111.6409 111.9158 111.9305 112.0609 112.2602 112.3638 112.4489 112.5263
   112.6048 112.6274 112.7752 112.7780 112.7825 112.9044 112.9218 112.9821
   113.0301 113.0804 113.0981 113.1561 113.2926 113.3268 113.4213 113.4278
   113.4745 113.4897 113.5263 113.5334 113.6447 113.6868 113.7114 113.8461
   113.9204 113.9681 113.9728 114.1124 114.1976 114.3059 114.3305 114.3772
   114.3779 114.5212 114.5377 114.6250 114.7029 114.8687 115.0431 115.1499
   115.2093 115.2490 115.6402 115.6567 115.6673 115.7067 115.8897 115.9288
   115.9336 115.9802 116.0985 116.2564 116.2890 116.4304 116.4433 116.8351
   116.8680 116.9474 117.0533 117.1506 117.2734 117.3892 117.4865 117.5568
   117.5748 117.6261 117.7142 117.7508 118.0294 118.0552 118.0877 118.1465
   118.2916 118.3733 118.4491 118.4851 118.5178 118.5281 118.6247 118.6279
   118.6894 118.7273 118.7858 118.8161 118.9400 118.9597 119.0439 119.0933
   119.1701 119.1844 119.1928 119.3187 119.4161 119.4717 119.5236 119.6044
   119.6053 119.6273 119.7831 119.8098 119.8728 119.9015 119.9356 119.9357
   119.9568 120.0383 120.0457 120.1161 120.1542 120.2482 120.3070 120.3505
   120.5173 120.5226 120.6734 120.7839 120.8131 120.8223 120.9257 120.9969
   121.1203 121.1313 121.1337 121.2339 121.2574 121.3400 121.3603 121.5298
   121.6732 121.6969 121.7513 121.7725 121.7987 121.9027 121.9912 122.0269
   122.1730 122.2205 122.2638 122.4069 122.6699 122.7226 123.0263 123.1232
   123.2798 123.4417 123.4776 123.5768 123.6018 123.6169 123.6406 123.9051
   124.0134 124.0350 124.1280 124.1541 124.1853 124.2345 124.3193 124.3839
   124.3924 124.5182 124.8118 124.9240 124.9353 125.1118 125.1186 125.2362
   125.2624 125.3662 125.3663 125.3922 125.4238 125.4665 125.5428 125.5589
   125.6531 125.6875 125.7862 125.9196 126.0953 126.1129 126.1414 126.1428
   126.1676 126.2980 126.3145 126.3606 126.4543 126.5077 126.6554 126.7625
   126.9676 127.0121 127.0146 127.1586 127.2252 127.4054 127.6922 127.7242
   127.7577 127.8976 127.9581 128.0031 128.2055 128.2730 128.3122 128.3720
   128.3798 128.4524 128.7174 128.7556 128.8039 128.9375 129.1256 129.3188
   129.5899 129.6711 129.6989 129.7092 129.7780 129.8501 129.9213 130.1035
   130.1565 130.1672 130.2360 130.2984 130.3376 130.3916 130.5286 130.5776
   130.5910 130.6088 130.6501 130.6538 130.7643 130.8210 130.8513 131.0000
   131.0606 131.0968 131.1774 131.1802 131.2429 131.4044 131.4494 131.4546
   131.5311 131.6278 131.6297 131.6472 131.6632 131.7418 131.8027 131.8107
   131.8159 131.8507 131.9044 131.9085 131.9487 131.9971 132.0353 132.1983
   132.2110 132.2926 132.4560 132.5233 132.7217 132.8497 132.9030 133.0248
   133.0386 133.1379 133.1792 133.2307 133.3151 133.3758 133.5223 133.5774
   133.7141 133.7204 133.7893 133.8474 134.0044 134.0132 134.0622 134.1275
   134.1595 134.4898 134.5009 134.5476 134.6555 134.8491 134.8806 135.2654
   135.3368 135.3442 135.3508 135.4258 135.4849 135.5237 135.6140 135.6216
   135.7115 135.8315 135.9240 135.9342 136.0153 136.0529 136.1479 136.2700
   136.2800 136.4230 136.4886 136.6083 136.6506 136.6913 136.7533 136.8062
   136.8108 136.8779 136.9474 137.0413 137.0555 137.0719 137.1391 137.1712
   137.2643 137.3370 137.4494 137.4495 137.5473 137.5965 137.6832 137.9859
   138.0013 138.1303 138.1612 138.2992 138.3205 138.5336 138.5608 138.5916

          k = 0.1250 0.2165 0.0000 ( 10817 PWs)   bands (ev):

   -30.2814 -30.2614 -30.2072 -30.1972 -30.1438 -30.1114 -30.0991 -30.0557
   -30.0403 -30.0172 -12.4688  -8.0583  -3.8500  -2.7948  -2.1498   0.5375
     1.0730   2.0884   3.2381   3.3783   4.0034   4.6013   4.6514   5.9737
     6.1040   6.4032   7.0086   7.4633   8.5473   8.7518   8.9146   9.1978
     9.4874  10.3514  10.6512  10.9315  11.1479  11.3763  11.4483  11.9210
    11.9249  11.9597  12.1261  12.6201  12.7657  12.7691  13.5569  13.6905
    13.7871  13.9600  13.9988  15.0048  15.0211  15.5514  15.5553  15.8982
    16.1818  16.2043  16.2392  16.3701  16.4262  16.4490  16.6217  16.7706
    16.7964  17.0568  17.3430  17.5364  18.2175  18.2454  18.3363  18.5324
    19.1996  19.5210  19.6648  19.7329  19.9575  19.9919  20.0357  20.0903
    20.5982  20.6763  20.7782  20.8356  20.9121  20.9500  21.1254  21.2063
    21.4705  21.5062  21.5105  21.9894  22.5060  22.6374  22.6715  22.8346
    23.0090  23.7132  23.8101  23.8171  23.9820  24.3492  24.4044  24.6285
    24.6434  25.2214  25.2339  25.5804  25.6853  26.3866  26.4201  26.7917
    26.8996  27.0299  27.7663  27.9539  28.1277  28.2856  28.4413  28.5405
    28.6081  28.6859  28.8073  28.8250  28.9770  29.3779  29.4127  29.5304
    29.9624  30.0055  30.0676  30.3983  30.9255  31.1539  31.1641  31.4178
    32.1380  32.1480  32.5301  32.5329  32.6935  32.8498  33.0182  33.1045
    33.1744  33.4297  33.4873  33.5277  33.7213  33.9627  34.0092  34.2688
    34.3409  34.3445  34.5080  34.5715  34.8773  34.9781  35.2162  35.4531
    35.6990  35.7082  35.7969  35.9064  35.9801  36.0891  36.4952  36.8727
    36.9219  37.2303  37.3657  37.5897  37.6234  37.8336  37.8702  38.0312
    38.0806  38.2928  38.4401  38.6164  38.6294  38.7935  38.8936  39.1335
    39.3016  39.4497  39.5117  39.7721  39.8495  40.1705  40.2457  40.3187
    40.4289  40.4622  40.5549  40.6645  40.8219  40.8258  41.8488  41.9816
    42.2275  42.3147  42.4904  42.6388  42.7326  42.7714  42.9714  43.0283
    43.0677  43.2098  43.2467  43.3069  43.3182  43.3288  43.4912  43.5655
    43.6629  43.6864  43.7334  43.8262  43.9315  44.0779  44.1560  44.3945
    44.5025  44.5949  44.6672  44.8155  44.8156  44.9055  44.9604  45.0369
    45.1151  45.2010  45.5539  45.6978  46.1095  46.1815  46.2030  46.3914
    46.6339  46.6946  46.7463  46.8953  47.0078  47.0906  47.3063  47.3371
    47.4355  47.5419  47.7122  47.8077  47.8657  47.8808  47.9215  48.0171
    48.1025  48.2535  48.3208  48.4163  48.4469  48.8787  48.9175  48.9584
    49.0198  49.1347  49.2103  49.2981  49.5629  49.5908  49.8472  50.5022
    50.5597  50.6532  50.8645  50.8744  50.8975  51.0178  51.0666  51.1706
    51.2593  51.3460  51.4724  51.5228  51.7731  51.8193  51.9405  51.9893
    52.0392  52.2504  52.2589  52.3214  52.4424  52.5368  52.6037  52.7776
    52.8146  52.8163  53.0229  53.1503  53.2724  53.5317  53.5543  53.9263
    53.9482  54.0432  54.0959  54.2371  54.2879  54.2935  54.4073  54.8242
    54.9144  54.9517  55.0963  55.3512  55.4881  55.6265  55.7860  55.8088
    55.8179  56.0134  56.1799  56.4152  56.4726  56.5649  56.6832  56.7515
    56.9102  56.9430  57.0170  57.2712  57.2955  57.3574  57.7263  57.7789
    57.8844  58.2960  58.4341  58.5930  58.6913  58.8074  58.9608  59.1645
    59.2176  59.4748  59.5846  59.7169  59.7890  59.8534  59.9824  59.9864
    60.1181  60.1460  60.2001  60.2676  60.4592  60.7141  60.7793  61.0060
    61.0122  61.1217  61.1541  61.2743  61.2984  61.3612  61.4355  61.6863
    61.9008  61.9807  62.1220  62.2586  62.4382  62.7051  62.7520  62.8102
    62.8975  63.0567  63.0704  63.3030  63.3356  63.5678  63.8094  63.8398
    63.9478  64.0537  64.0842  64.2802  64.2950  64.4585  64.5080  64.5637
    64.8501  64.9270  65.2185  65.2392  65.4448  65.5520  65.6592  65.8642
    65.8963  66.0168  66.0465  66.1997  66.2361  66.6633  66.7168  66.9236
    66.9319  67.0279  67.0928  67.2093  67.3744  67.7294  67.8950  67.9793
    68.2985  68.5733  68.6525  68.8455  68.8697  69.0170  69.0329  69.1558
    69.3075  69.5629  69.7291  70.0681  70.1262  70.3006  70.5461  70.5956
    70.6953  70.9909  71.0946  71.1467  71.1930  71.3098  71.3736  71.4146
    71.6153  71.6532  71.7465  71.7888  71.8095  71.9189  72.2856  72.5366
    72.6193  72.6985  72.8388  72.8900  73.0771  73.1102  73.1115  73.2827
    73.3026  73.4398  73.4463  73.5549  73.5767  73.6679  73.8107  73.9425
    73.9942  74.1807  74.3258  74.3326  74.3945  74.5204  74.5443  74.7864
    74.8575  75.1565  75.2599  75.7000  75.7152  75.7816  75.9016  75.9511
    76.3394  76.4039  76.6031  76.7081  76.8485  76.9703  77.0063  77.2864
    77.3164  77.4074  77.5254  77.5945  77.7059  77.7517  77.8846  77.9900
    78.0635  78.1630  78.2643  78.2883  78.3492  78.3693  78.5425  78.6430
    78.6478  78.8061  78.8653  78.8775  78.9953  79.0413  79.0915  79.2335
    79.2369  79.3790  79.4822  79.6788  79.7181  79.8799  80.2127  80.2312
    80.2401  80.2891  80.3896  80.4776  80.5502  80.6173  80.7368  80.7756
    80.7973  80.9288  81.0294  81.0583  81.1610  81.4107  81.5102  81.6076
    81.6495  81.9045  81.9210  82.1686  82.2663  82.3353  82.3731  82.4924
    82.4957  82.5944  82.6990  82.7025  82.8478  82.9176  83.0528  83.1245
    83.1878  83.2731  83.3579  83.3935  83.4796  83.5089  83.6468  83.7156
    83.7654  84.0148  84.1639  84.3154  84.3810  84.4345  84.6301  84.7607
    84.7900  85.0132  85.0948  85.1459  85.3043  85.3071  85.3880  85.4486
    85.6395  85.7195  85.7628  85.8552  86.1057  86.2361  86.3244  86.4915
    86.5269  86.5704  86.6238  86.6654  86.7482  86.7738  86.8900  86.9109
    87.0840  87.0948  87.2917  87.4610  87.5302  87.6773  87.7823  87.8205
    87.8353  88.0430  88.1071  88.3388  88.3411  88.5597  88.5923  88.8374
    88.8752  89.0751  89.1552  89.3421  89.5427  89.5526  89.5678  89.6817
    90.0189  90.1435  90.1534  90.2871  90.4555  90.4747  90.6181  90.6353
    90.6943  90.7475  90.9020  90.9726  91.0446  91.0662  91.1799  91.2253
    91.2359  91.2877  91.3599  91.4987  91.4990  91.6338  91.6913  91.8553
    91.9265  92.0889  92.1222  92.3087  92.3125  92.4108  92.4255  92.6504
    92.8063  92.8834  93.0156  93.2714  93.3575  93.4671  93.5585  93.5988
    93.6090  93.7905  93.8994  93.9653  94.0788  94.0799  94.1914  94.3582
    94.4719  94.5015  94.5788  94.6355  94.8159  94.8312  94.8844  95.0027
    95.0743  95.1494  95.2162  95.2569  95.3629  95.4094  95.4388  95.4773
    95.5100  95.5538  95.6004  95.7258  95.8238  95.8748  95.8870  95.9163
    95.9442  96.0092  96.0354  96.0917  96.1860  96.2817  96.3741  96.5635
    96.6209  96.6475  96.6728  96.7633  96.8087  96.8314  96.9109  96.9385
    96.9776  97.1048  97.2658  97.3805  97.3931  97.7917  97.8316  98.0153
    98.0371  98.0669  98.1700  98.2023  98.2256  98.3944  98.5314  98.5337
    98.5845  98.6878  98.8510  98.9739  99.0849  99.0978  99.3419  99.3577
    99.3921  99.5532  99.5798  99.6875  99.6970  99.7783  99.8564  99.9166
    99.9462 100.0580 100.1198 100.1763 100.2170 100.2882 100.3131 100.3677
   100.4579 100.6226 100.6238 100.7233 100.7305 100.8538 100.8784 100.8964
   100.9214 100.9688 101.0675 101.1423 101.1738 101.1771 101.2212 101.3138
   101.4045 101.4523 101.5565 101.5664 101.7824 101.8809 102.0266 102.1780
   102.2306 102.2677 102.3517 102.3604 102.4726 102.4846 102.5884 102.6256
   102.6464 102.7734 102.8196 102.9549 103.0190 103.1411 103.1863 103.2821
   103.3162 103.4213 103.4721 103.5394 103.5686 103.7350 103.8494 103.8694
   103.9875 104.1194 104.1197 104.1986 104.2473 104.3541 104.3723 104.4808
   104.6152 104.6495 104.7497 104.8800 104.9890 105.0276 105.1311 105.2777
   105.3185 105.4245 105.4579 105.5897 105.6807 105.7764 105.8216 105.8233
   105.9096 105.9882 106.0121 106.3602 106.5028 106.6174 106.7655 106.8184
   106.8631 106.9970 107.0139 107.0817 107.2927 107.3706 107.4869 107.5417
   107.5906 107.9913 108.0467 108.2673 108.3149 108.3575 108.5815 108.6792
   108.7259 108.7849 108.8643 109.0503 109.0585 109.1869 109.1996 109.2034
   109.3461 109.5117 109.5218 109.6477 109.7694 109.7949 109.8363 109.9837
   110.0982 110.0985 110.1876 110.3538 110.4862 110.5243 110.5248 110.5943
   110.6695 110.7915 110.8333 110.8673 111.0450 111.1204 111.1295 111.3372
   111.3687 111.4401 111.4669 111.5266 111.6180 111.6215 111.6528 111.7258
   111.7331 111.8336 112.1232 112.2428 112.2728 112.3425 112.4136 112.5629
   112.5838 112.7300 112.8738 112.9141 112.9662 112.9904 113.0517 113.1539
   113.2032 113.2687 113.3144 113.3383 113.4006 113.5429 113.6292 113.6713
   113.8051 113.8964 114.0942 114.1407 114.1970 114.2008 114.2969 114.3156
   114.5102 114.5181 114.6069 114.7521 114.8150 114.8466 114.9080 115.2040
   115.3954 115.4205 115.5775 115.6763 115.8691 115.9103 115.9401 116.0726
   116.2314 116.3586 116.4803 116.8721 116.8759 116.9451 117.1448 117.1702
   117.3266 117.4089 117.5008 117.5222 117.6102 117.8685 117.8790 118.0702
   118.0735 118.1228 118.2144 118.4256 118.4368 118.5858 118.5898 118.8456
   118.8947 119.0490 119.1091 119.1702 119.2831 119.3211 119.4353 119.5853
   119.6583 119.7815 119.9489 119.9498 120.1162 120.1782 120.3631 120.3995
   120.5237 120.5524 120.5630 120.7034 120.7554 120.7620 120.8249 120.9732
   121.0592 121.1166 121.2301 121.3269 121.4245 121.5128 121.7575 121.8092
   121.8693 121.9553 121.9681 122.0836 122.1482 122.3278 122.3649 122.5729
   122.7605 122.8418 122.8915 122.8968 123.1300 123.2218 123.3047 123.3206
   123.4395 123.5263 123.6323 123.6922 123.6997 123.8711 123.9539 124.1156
   124.1624 124.1634 124.3583 124.3889 124.3891 124.4882 124.5338 124.5887
   124.7612 124.7963 124.8452 124.8768 124.9553 125.0111 125.0988 125.1160
   125.2907 125.3155 125.5013 125.6082 125.6835 125.7499 125.9141 125.9481
   126.0143 126.1558 126.3213 126.3294 126.5409 126.5659 126.7623 126.7998
   126.9554 127.0703 127.1282 127.2503 127.2759 127.5241 127.5964 127.6489
   127.7632 127.7758 128.0351 128.0825 128.1052 128.2449 128.2646 128.3161
   128.4755 128.4866 128.5853 128.7019 128.7561 128.8434 128.9808 129.0585
   129.0615 129.1561 129.2060 129.2083 129.2691 129.2791 129.3876 129.4357
   129.5880 129.7276 129.8064 129.8699 129.9977 130.0603 130.1414 130.2127
   130.3057 130.4395 130.5330 130.6231 130.7685 130.8419 130.8546 130.9819
   131.0207 131.0563 131.1766 131.2841 131.3391 131.5694 131.5915 131.7464
   131.8862 132.0168 132.2243 132.2476 132.3091 132.3221 132.5433 132.6669
   132.7087 132.7554 132.8404 132.8942 132.9123 132.9902 133.1874 133.2406
   133.2888 133.3138 133.4142 133.5450 133.6538 133.7034 133.7193 133.7583
   133.8342 133.9249 133.9275 133.9736 134.1368 134.1546 134.1887 134.2108
   134.3530 134.5819 134.6465 134.7154 134.8013 134.8718 134.9289 135.0029
   135.0846 135.2016 135.3405 135.3931 135.6849 135.6887 135.8495 136.0689
   136.1140 136.2243 136.3688 136.4947 136.5404 136.6153 136.8441 136.8580
   136.8878 137.0338 137.1049 137.1848 137.2888 137.3078 137.4161 137.5576
   137.5781 137.5980 137.6229 137.7398 137.7624 137.8297 137.9076 138.0247
   138.1520 138.2045 138.3325 138.4259 138.5072 138.5508 138.6631 138.7605
   138.9106 138.9689 138.9701 139.1693 139.2765 139.3355 139.4301 139.4945
   139.5081 139.7314 139.7762 139.8287 139.8673 139.9420 139.9649 140.0293
   140.0973 140.1254 140.3148 140.3178 140.3904 140.4248 140.5567 140.7042

          k = 0.1250 0.3608 0.0000 ( 10793 PWs)   bands (ev):

   -30.2792 -30.2369 -30.2004 -30.1814 -30.1375 -30.1265 -30.0984 -30.0759
   -30.0558 -30.0185 -11.8444  -8.5006  -4.5044  -3.5806  -2.3267   0.2307
     1.2946   1.8663   3.7582   3.9639   4.5069   5.0742   5.3274   5.7287
     6.5297   7.1448   7.3728   7.6196   8.1592   8.7377   9.0045   9.3898
     9.5608   9.6505   9.8363  10.0210  10.2589  10.4689  11.0836  11.1136
    11.2970  11.5986  11.8641  12.0375  12.9042  12.9463  13.0645  13.3642
    13.8101  14.0816  14.2425  14.3645  14.4610  14.7888  15.0256  15.5621
    15.6258  15.7284  15.9179  16.4951  17.0144  17.1296  17.2918  17.4949
    17.6335  17.7333  17.8131  17.8869  18.2642  18.4554  18.7612  18.8191
    19.1038  19.1479  19.4598  20.1386  20.2747  20.3489  20.5485  20.9350
    21.4818  21.5511  21.7649  21.9488  22.1366  22.2356  22.2909  22.6675
    22.8446  22.9505  23.1417  23.2145  23.2833  23.3590  23.4494  23.6523
    23.6788  23.7975  23.8910  24.3758  24.6384  24.6807  24.9771  25.0899
    25.8645  26.1961  26.2154  26.2580  26.3543  26.5602  26.6660  26.6915
    26.9386  27.0331  27.2254  27.3301  27.3968  27.4860  27.6724  27.7577
    27.8458  27.9662  28.0707  28.1944  28.3117  29.0125  29.2015  29.2822
    29.5818  29.7895  29.9892  30.4043  30.6041  30.6787  30.8369  31.0848
    31.1586  31.5020  31.7319  31.7673  31.9430  32.0554  32.1416  32.2449
    32.3252  32.4307  32.6176  32.7661  33.0265  33.1271  33.4068  33.5619
    33.6940  33.8311  34.0006  34.1502  34.6784  34.7172  34.9312  35.0509
    35.1906  35.3088  35.5758  35.5874  35.6628  35.7811  36.0083  36.1930
    36.4651  36.5534  36.6060  36.7101  36.8127  36.8280  37.1499  37.2859
    37.5900  37.6293  37.7497  37.8789  38.0937  38.1454  38.3812  38.5485
    38.8513  38.9661  39.0036  39.2569  39.4515  39.5132  39.5981  39.6580
    39.7966  39.9017  39.9802  40.0182  40.1220  40.2464  40.3501  40.4698
    40.5457  40.8766  40.9128  41.0165  41.1261  41.2472  41.4327  41.5749
    41.7881  41.8922  42.2413  42.5796  42.6948  42.8008  43.0199  43.1646
    43.3964  43.7218  43.7691  43.9293  44.0282  44.1123  44.4275  44.4652
    44.5757  44.6286  44.7388  44.8321  44.9488  45.1447  45.2953  45.4329
    45.4837  45.5437  45.6456  45.7228  45.9118  45.9612  46.2176  46.4381
    46.7033  46.8456  46.9830  47.1041  47.2213  47.4331  47.6061  47.7461
    47.8263  47.8855  48.2122  48.4067  48.4571  48.5514  48.6281  48.7542
    48.8468  48.9631  49.0295  49.1184  49.2398  49.4983  49.6133  49.6961
    49.8308  49.8952  49.9361  50.0168  50.0782  50.2173  50.3034  50.6358
    50.7544  50.9808  51.0414  51.0798  51.3217  51.4376  51.6381  51.8016
    51.8241  52.0069  52.0763  52.4283  52.4414  52.7018  52.8460  52.8771
    53.0548  53.1718  53.2505  53.2864  53.4290  53.5210  53.5592  53.6773
    53.7239  53.8350  53.9742  54.0898  54.2178  54.2587  54.3390  54.4281
    54.5457  54.6730  54.7217  54.7809  54.8445  54.9628  55.1109  55.4834
    55.5469  55.6739  55.8326  55.9530  56.0295  56.0540  56.2733  56.4130
    56.4803  56.6069  56.8866  57.1899  57.3051  57.4254  57.5432  57.6255
    57.7852  57.8833  57.9207  58.0289  58.0545  58.2138  58.2649  58.3339
    58.6455  58.7344  58.7866  58.8731  59.2583  59.3617  59.4908  59.6154
    59.7957  59.8819  60.0243  60.2172  60.3645  60.5730  60.6269  60.6464
    60.7120  60.8567  61.0595  61.1548  61.3558  61.6194  61.6824  61.8140
    61.8913  61.9364  62.0508  62.1875  62.3042  62.5831  62.7498  62.8312
    62.9746  63.0684  63.1857  63.3727  63.4665  63.5634  63.6982  63.7977
    63.8888  64.0609  64.2799  64.4281  64.5482  64.6283  64.7739  64.8354
    65.1054  65.1777  65.5381  65.6250  65.7254  65.8394  65.8884  66.0600
    66.2117  66.2797  66.2968  66.3895  66.5462  66.6283  66.7102  66.7747
    66.8507  66.8868  66.9427  66.9680  67.0888  67.1344  67.2596  67.3121
    67.3996  67.5380  67.6333  67.6970  67.7589  67.8346  67.8567  67.9662
    68.0437  68.1998  68.2428  68.4250  68.5891  68.8395  68.8989  68.9977
    69.1320  69.1442  69.1925  69.2844  69.3368  69.5073  69.5719  69.6323
    69.7718  69.8188  69.9553  70.1124  70.3496  70.4918  70.7078  70.7348
    70.9025  70.9542  71.0548  71.1003  71.2728  71.2995  71.4938  71.5913
    71.7173  71.7616  71.8740  72.0423  72.0607  72.0925  72.1883  72.2596
    72.3222  72.4207  72.5088  72.6951  72.7252  72.7950  72.9436  72.9804
    73.1255  73.1572  73.2511  73.4723  73.5078  73.6770  73.7532  73.8980
    73.9847  74.1109  74.1525  74.3252  74.3468  74.6218  74.6975  74.8293
    75.0153  75.1982  75.2471  75.3884  75.4416  75.6243  75.6920  75.8042
    75.8898  76.1619  76.1952  76.2560  76.4231  76.5869  76.6356  76.7102
    76.8448  76.9431  77.0309  77.1334  77.1788  77.3319  77.3786  77.4675
    77.5087  77.6850  77.7419  77.7695  77.9207  78.0802  78.1639  78.1984
    78.2092  78.2688  78.3779  78.4061  78.5168  78.7661  78.8661  78.9980
    79.0667  79.2657  79.3363  79.4615  79.5246  79.6108  79.6459  79.7777
    79.7901  80.0810  80.1017  80.2090  80.2424  80.2714  80.4237  80.5421
    80.5766  80.6989  80.8124  80.8685  81.1120  81.2330  81.4790  81.5125
    81.6575  81.8240  81.9894  82.0486  82.1908  82.3066  82.4435  82.6516
    82.7512  82.8260  82.8722  82.9824  83.2076  83.3584  83.3843  83.4797
    83.5374  83.6214  83.7916  83.9337  84.0184  84.1135  84.2295  84.2898
    84.3806  84.5036  84.5405  84.7134  84.7752  84.8345  84.8859  85.0095
    85.0880  85.1913  85.2097  85.3544  85.3957  85.5061  85.6147  85.7077
    85.8431  85.9366  86.0241  86.1294  86.1627  86.3161  86.4079  86.5711
    86.7628  86.8180  86.9045  87.1250  87.2447  87.2541  87.3994  87.5175
    87.7281  87.9100  88.0510  88.1072  88.2505  88.3586  88.5105  88.5410
    88.7322  88.8431  88.8730  88.9455  89.1158  89.2379  89.2649  89.4094
    89.5137  89.5209  89.6550  89.7733  89.8153  89.9267  89.9792  90.0477
    90.1177  90.1709  90.1969  90.3155  90.4050  90.4697  90.5197  90.6366
    90.7409  90.7661  90.9363  91.0085  91.1039  91.2070  91.2836  91.3817
    91.4637  91.4993  91.5727  91.6990  91.7987  91.8938  92.0580  92.0989
    92.2071  92.2409  92.4108  92.4332  92.5863  92.7537  93.0015  93.1431
    93.1958  93.2567  93.3676  93.4215  93.5357  93.6273  93.6878  93.8288
    93.8893  94.0304  94.0859  94.1687  94.2175  94.3239  94.4014  94.5053
    94.5989  94.6400  94.6914  94.7521  94.9170  95.0332  95.1107  95.1255
    95.2126  95.3205  95.4743  95.6055  95.7291  95.8498  95.9240  95.9525
    96.0417  96.1339  96.2620  96.3347  96.3981  96.5438  96.6265  96.6530
    96.7223  96.8033  96.9347  97.0976  97.2398  97.2702  97.4615  97.4655
    97.5521  97.6323  97.7563  97.8179  97.8695  97.9361  98.0582  98.1983
[...]
    74.8709  74.9832  75.0338  75.1570  75.2347  75.3120  75.4398  75.5119
    75.5790  75.7772  75.8920  75.9596  75.9927  76.0331  76.1312  76.2882
    76.3958  76.4152  76.4319  76.5496  76.6857  76.6875  76.9301  76.9573
    77.0886  77.1899  77.1984  77.4313  77.5128  77.6754  77.7526  77.7934
    78.0375  78.1468  78.1854  78.2647  78.4171  78.6405  78.6548  78.8564
    78.8796  78.9517  78.9706  79.1001  79.1704  79.2810  79.3591  79.4282
    79.4833  79.4865  79.5506  79.5857  79.7056  79.7574  79.7680  79.8150
    79.8664  80.1977  80.3973  80.4188  80.5160  80.5727  80.5970  80.9041
    81.1520  81.2832  81.4314  81.5969  81.7361  81.7709  81.9565  82.0806
    82.0862  82.2785  82.5104  82.5825  82.6763  82.7411  82.8901  82.9093
    82.9857  83.1640  83.1769  83.3889  83.4010  83.5378  83.6278  83.6504
    83.7533  83.9701  84.0915  84.2403  84.3273  84.4781  84.6198  84.6481
    84.6937  84.8470  84.8806  84.9374  85.0210  85.1167  85.1862  85.2812
    85.3081  85.6285  85.6766  85.7323  85.7587  85.8505  85.9329  85.9588
    86.1321  86.2510  86.3115  86.3601  86.4134  86.5160  86.5173  86.5727
    86.5960  86.6571  86.8425  86.8746  87.1843  87.2175  87.3268  87.4373
    87.4431  87.5728  87.6815  87.7180  87.9006  87.9407  88.0498  88.1572
    88.1632  88.2762  88.2796  88.3298  88.4154  88.5225  88.5259  88.6521
    88.7227  88.7264  88.8000  88.8618  88.9129  89.0087  89.2177  89.7289
    89.7472  90.1798  90.3991  90.4590  90.4678  90.6981  90.8585  91.0150
    91.0479  91.1046  91.1973  91.4271  91.5348  91.5868  91.7790  91.8084
    91.9261  92.2092  92.2384  92.2451  92.2702  92.5109  92.6634  92.7677
    92.8546  92.9500  93.1287  93.2221  93.2292  93.3677  93.3734  93.5287
    93.5948  93.6727  93.7681  93.8541  93.9669  94.0226  94.1973  94.4030
    94.4888  94.6075  94.6342  94.6999  94.7527  94.7754  94.9240  94.9475
    94.9829  95.2158  95.2826  95.3944  95.5065  95.7996  95.8099  95.8601
    96.0446  96.1983  96.3877  96.4290  96.5259  96.6658  96.6858  96.8481
    96.8613  97.0296  97.1039  97.1940  97.2453  97.3091  97.3658  97.5025
    97.5290  97.5944  97.6727  97.8273  97.9526  98.0101  98.1053  98.1078
    98.2035  98.3249  98.4468  98.4839  98.5400  98.6280  98.7790  99.0001
    99.0330  99.0660  99.1409  99.3456  99.3595  99.5076  99.5525  99.9031
    99.9122  99.9768 100.0441 100.1064 100.1769 100.3706 100.5762 100.6579
   100.8150 100.8479 100.8706 100.9027 100.9557 101.0327 101.4043 101.4098
   101.4382 101.6019 101.6354 101.6701 101.7632 101.9171 102.0748 102.3237
   102.3822 102.4503 102.5613 102.6774 102.7765 102.8330 102.9546 103.1612
   103.1766 103.2298 103.4208 103.4634 103.6031 103.7456 103.8944 103.9038
   103.9659 104.1093 104.1113 104.1497 104.2234 104.2546 104.3780 104.6277
   104.7828 104.8729 104.9466 105.0462 105.2790 105.3631 105.4963 105.5951
   105.6246 105.6923 105.8419 105.8654 105.9227 106.0568 106.0647 106.2137
   106.2215 106.2509 106.4362 106.4485 106.4852 106.6322 106.6352 106.7093
   106.8207 106.9486 107.0642 107.1912 107.2250 107.2654 107.3354 107.4369
   107.5357 107.5603 107.7099 107.9073 107.9218 108.0648 108.2300 108.2749
   108.4168 108.4909 108.5149 108.6034 108.6230 108.7535 108.8258 108.9591
   108.9667 109.0398 109.0624 109.1357 109.3537 109.3600 109.4706 109.4930
   109.6286 109.6483 109.9053 110.0085 110.0234 110.1484 110.2486 110.2605
   110.3410 110.5895 110.7483 110.7925 110.8207 111.0899 111.1202 111.1594
   111.3282 111.3375 111.4745 111.5322 111.6721 111.8797 111.9620 111.9671
   112.1627 112.2143 112.4106 112.4115 112.4888 112.5468 112.5615 112.7891
   112.7963 112.8532 112.8911 112.9702 113.0665 113.0971 113.1073 113.1868
   113.2116 113.2472 113.2956 113.3969 113.4997 113.5139 113.6615 113.7185
   113.7542 113.7779 113.9612 114.1536 114.1640 114.2430 114.2652 114.2836
   114.3250 114.5184 114.5526 114.6190 114.6845 114.7906 114.8170 114.8672
   114.8735 114.9007 115.0194 115.1100 115.1883 115.2085 115.2636 115.2804
   115.3083 115.3592 115.4328 115.4674 115.6139 115.6794 115.7051 115.7693
   115.8284 115.8565 116.0323 116.1500 116.1501 116.2579 116.3976 116.4081
   116.6110 116.7696 117.0466 117.0609 117.1494 117.2003 117.2181 117.3102
   117.5621 117.5983 117.7289 117.7682 117.8206 117.9085 118.1136 118.1781
   118.3344 118.3891 118.3980 118.4521 118.4734 118.6701 118.8228 118.8989
   118.9416 119.0549 119.1195 119.1636 119.2459 119.2941 119.4025 119.4900
   119.5520 119.6538 119.7534 119.8182 119.9685 120.0775 120.1112 120.1147
   120.2543 120.3248 120.3677 120.4079 120.5266 120.5732 120.6410 120.7339
   120.8844 120.9753 120.9866 121.1838 121.2190 121.2693 121.2867 121.3604
   121.4637 121.5429 121.5656 121.6568 121.7537 121.8264 121.8621 121.9567
   122.0435 122.0690 122.1065 122.2224 122.2655 122.3996 122.4859 122.5423
   122.6749 122.7273 122.8042 122.9924 123.0374 123.0852 123.1832 123.1968
   123.3792 123.4039 123.5259 123.5356 123.6497 123.7846 123.8828 123.8907
   124.0150 124.0173 124.1798 124.2327 124.2786 124.4347 124.4541 124.5341
   124.5717 124.5934 124.6538 124.6905 124.8319 124.8873 124.9094 124.9569
   125.1374 125.2171 125.3484 125.3586 125.3675 125.3957 125.4949 125.6520
   125.8619 125.9076 126.2099 126.2932 126.3527 126.5572 126.6067 126.6407
   126.7489 126.8488 126.8913 127.0113 127.0303 127.1598 127.2571 127.3389
   127.4698 127.6321 127.7476 127.8769 127.9788 128.1034 128.1261 128.2248
   128.3517 128.4416 128.4578 128.7065 128.7276 128.7289 128.8725 129.0387
   129.0396 129.0867 129.1777 129.1892 129.2090 129.3709 129.4568 129.5410
   129.5618 129.5771 129.6263 129.6778 129.8419 129.9382 129.9889 130.0814
   130.0974 130.1688 130.2554 130.3404 130.3837 130.3902 130.4303 130.5008
   130.5298 130.6586 130.7176 130.7389 130.8306 130.8980 130.9366 130.9992
   131.1036 131.1163 131.2097 131.2446 131.3478 131.4281 131.4450 131.6259
   131.6427 131.6953 131.8373 131.8460 131.8772 132.1618 132.1925 132.2186
   132.2830 132.3100 132.3748 132.4398 132.5110 132.5329 132.6110 132.6203
   132.7081 132.7232 132.8964 132.9211 133.0154 133.0421 133.2089 133.2940
   133.3279 133.3675 133.4064 133.4925 133.5496 133.6148 133.6941 133.6959
   133.9471 133.9567 134.0322 134.0587 134.0863 134.2105 134.2981 134.4167
   134.4285 134.4578 134.5383 134.6743 134.8588 134.8808 134.9435 135.0767
   135.1253 135.1727 135.1863 135.2674 135.3869 135.4119 135.4490 135.5148
   135.5578 135.7331 135.8064 135.8174 135.9379 135.9746 136.0128 136.0650
   136.1311 136.2565 136.4257 136.5879 136.6629 136.8400 136.8757 137.0178
   137.0554 137.1758 137.1778 137.3311 137.3459 137.4272 137.5293 137.6884
   137.7555 137.8879 137.9177 137.9922 138.0050 138.1275 138.3375 138.3482
   138.4722 138.5116 138.5314 138.5553 138.6854 138.7170 138.8128 138.8787

          k = 0.2500 0.5774 0.0000 ( 10820 PWs)   bands (ev):

   -30.2775 -30.1999 -30.1758 -30.1717 -30.1459 -30.1349 -30.1205 -30.0866
   -30.0726 -30.0213 -10.5147  -9.7757  -5.0397  -3.7071  -3.2170  -0.0361
     1.6749   1.8783   4.6730   5.1950   5.9066   5.9375   6.1469   6.7074
     6.7716   7.0931   7.2422   7.4699   7.5204   7.5748   7.6972   8.1435
     8.8125   8.9411   9.0814   9.3108   9.3456   9.4645  10.0340  10.6830
    10.9217  11.5714  11.8320  12.0550  12.1017  12.5512  12.7709  13.5095
    13.5097  13.7344  15.0315  15.3243  15.4685  15.4928  15.5467  15.7412
    16.3252  16.3892  16.5708  16.9986  17.0568  17.2249  17.7905  17.8607
    17.9561  18.7914  19.0524  19.2054  19.2875  19.4731  19.5250  19.6272
    19.7507  19.8701  19.9613  20.0522  20.0538  20.6568  20.6879  20.7476
    20.9034  21.0720  21.1024  21.1822  21.2032  22.0358  22.2760  22.3194
    22.6311  22.7019  22.7815  22.7869  23.0188  23.4663  23.9882  24.0049
    24.3149  24.4736  24.7705  25.1720  25.1722  25.3753  25.3876  25.5583
    25.6721  25.8826  25.9102  25.9486  26.0983  26.5505  27.0978  27.7414
    28.2883  28.3400  28.5441  28.5851  28.7853  28.7910  28.9802  28.9938
    29.1764  29.2565  29.4810  29.5191  29.6287  29.7850  29.8465  29.9250
    29.9282  30.0146  30.0675  30.1072  30.1986  30.4357  30.5099  30.8602
    30.9629  31.1596  31.2140  31.2865  31.3556  31.4305  31.6302  31.6870
    31.7735  31.9166  32.5521  32.6764  32.6948  32.8972  32.9186  33.0034
    33.0454  33.1789  33.2369  33.3095  33.3773  33.4938  33.9921  34.0426
    34.0739  34.2289  34.2858  34.3630  34.3704  34.4136  34.5969  34.6640
    35.2416  35.2695  35.3477  35.5537  35.6962  35.7666  35.9363  35.9842
    36.1362  36.2080  36.2175  36.2678  36.6792  36.8903  37.1005  37.3156
    37.3432  37.5294  37.6639  37.7484  37.8407  37.9975  38.1723  38.4802
    38.6045  38.6485  38.9253  38.9529  39.0423  39.2099  39.2892  39.3740
    39.9728  40.1948  40.3621  40.5135  40.7391  41.2150  41.3741  41.6833
    41.6964  41.7322  41.9280  42.1583  42.1706  42.4246  42.4808  42.5955
    42.7737  42.7881  43.1360  43.1484  43.2508  43.3934  43.4254  43.4906
    43.7561  43.8647  43.9003  44.1313  44.3557  44.7019  45.2777  45.7562
    45.9962  46.1657  46.2760  46.3752  46.4137  46.5252  46.5502  46.6934
    46.8015  46.9833  47.1110  47.6453  47.8500  48.0543  48.1243  48.3462
    48.5072  48.6140  48.8969  48.9568  49.0991  49.1544  49.5762  49.8417
    49.9668  50.0165  50.2901  50.3491  50.5120  50.5468  50.7758  50.8105
    51.1974  51.2376  51.3307  51.4482  51.5404  51.6343  51.7547  51.7989
    51.8803  51.9388  52.0337  52.1005  52.1977  52.2855  52.3884  52.6254
    52.8988  53.1064  53.2353  53.3420  53.4209  53.5797  53.7879  53.8348
    54.0008  54.0861  54.1086  54.2796  54.6249  54.8914  55.0622  55.2739
    55.3739  55.4270  55.5252  55.6050  55.7979  55.8084  56.0333  56.1312
    56.1769  56.3306  56.4076  56.4366  56.5445  56.5545  56.6629  56.6972
    56.7679  56.8443  56.9457  56.9793  57.1702  57.2504  57.4135  57.5491
    57.7342  57.7436  57.8905  57.9066  57.9376  58.0128  58.0687  58.1435
    58.1747  58.2732  58.4750  58.5359  58.5841  58.6565  58.8475  58.8619
    59.0774  59.1430  59.2776  59.4750  59.5707  59.5946  59.8058  59.8455
    59.8644  59.8739  59.9062  60.0442  60.0810  60.3179  60.4849  60.6098
    60.6964  60.8056  60.8805  60.9578  61.2332  61.2450  61.3749  61.4227
    61.9777  62.0980  62.2311  62.4065  62.5128  62.6211  62.8183  62.8954
    63.0774  63.2973  63.3728  63.3910  63.5291  63.6664  63.7101  63.7702
    63.9654  64.0538  64.1563  64.2773  64.4192  64.4373  64.4848  64.5417
    64.6180  64.6649  64.8650  65.0031  65.1082  65.1596  65.2239  65.2900
    65.3920  65.7058  65.7502  65.7594  65.8180  65.9371  66.0699  66.1602
    66.2380  66.3513  66.5908  66.6145  66.6278  66.7383  66.8030  67.1424
    67.1679  67.2303  67.4114  67.5146  67.6399  67.6422  67.8137  68.0130
    68.0836  68.1882  68.3168  68.4229  68.5467  68.7060  68.7097  68.7545
    68.8765  69.1762  69.2762  69.2781  69.3578  69.3980  69.5756  69.6861
    69.7371  69.8607  69.8770  70.0427  70.0584  70.1085  70.3487  70.4248
    70.4489  70.7722  70.9681  71.0571  71.0830  71.1748  71.2652  71.5755
    71.5884  71.7519  71.8300  72.1947  72.2037  72.3355  72.3553  72.6157
    72.7771  72.8391  72.9073  72.9599  73.1585  73.1996  73.3360  73.4217
    73.5050  73.5665  73.7117  73.7146  73.9389  74.0940  74.1070  74.2027
    74.2104  74.3722  74.4644  74.5474  74.6126  74.6659  74.8325  74.9197
    75.0279  75.0903  75.1422  75.2550  75.3699  75.4681  75.4780  75.7190
    75.7903  75.9596  75.9855  76.0386  76.0572  76.1214  76.2340  76.3972
    76.7379  76.7660  76.9041  76.9722  77.0409  77.0751  77.1898  77.3356
    77.3665  77.5425  77.6110  77.6633  77.7616  77.7719  77.7993  77.8780
    77.9099  78.0218  78.0819  78.1211  78.2015  78.4912  78.6653  78.7220
    78.7588  78.7732  78.9106  78.9237  78.9690  79.2834  79.4200  79.5171
    79.6079  79.6342  79.7660  79.7796  79.8378  80.0484  80.1239  80.1281
    80.1858  80.3113  80.3457  80.4342  80.4534  80.5133  80.5267  80.6422
    80.6703  80.7756  80.8227  80.8829  80.9935  81.0339  81.1401  81.3260
    81.3804  81.8323  81.8670  82.0072  82.0104  82.1329  82.1520  82.2576
    82.3615  82.4685  82.5148  82.6690  82.8572  82.9956  83.0252  83.1868
    83.1955  83.3025  83.3084  83.4800  83.4928  83.4995  83.6785  83.7614
    83.7679  83.9348  84.0306  84.2249  84.3607  84.4297  84.4398  84.5492
    84.8469  84.8807  84.9293  85.0090  85.0432  85.2316  85.2596  85.5413
    85.6259  85.6570  85.8122  85.9514  86.0306  86.1591  86.2784  86.2860
    86.5073  86.5401  86.6408  86.6967  86.7371  86.8972  86.9959  87.0669
    87.1068  87.3011  87.3486  87.4713  87.4763  87.5500  87.5878  87.6213
    87.7733  87.8174  87.9309  87.9710  88.1452  88.1682  88.2718  88.3448
    88.3492  88.6143  88.6153  88.8670  88.9701  89.0529  89.2113  89.2631
    89.5366  89.7031  89.8011  90.2431  90.2796  90.3066  90.4441  90.5051
    90.5707  90.7381  90.9373  90.9768  91.0449  91.0650  91.2775  91.3283
    91.4092  91.5070  91.6027  91.6596  91.7770  91.8145  92.1313  92.2132
    92.4976  92.6489  92.7445  92.9087  92.9584  93.0681  93.0906  93.2395
    93.3542  93.3589  93.4446  93.4942  93.8145  93.8697  94.0836  94.0923
    94.1224  94.1717  94.5877  94.6057  94.8614  94.8632  95.0178  95.0620
    95.2074  95.2926  95.4967  95.5115  95.6083  95.6550  95.8171  95.9584
    96.0066  96.3860  96.5052  96.6034  96.8009  96.8812  97.0575  97.2457
    97.2574  97.3957  97.3989  97.5253  97.5261  97.7334  97.7529  97.8193
    97.9003  98.1292  98.1985  98.3067  98.3418  98.3470  98.4203  98.5025
    98.6317  98.7688  99.0132  99.2181  99.2287  99.3140  99.3552  99.3586
    99.4597  99.6079  99.6694  99.7772  99.8379  99.8788  99.9442 100.0629
   100.1309 100.2310 100.2655 100.3247 100.3899 100.5047 100.5534 100.5639
   100.7029 100.7664 100.8325 100.8442 100.8760 101.0000 101.0430 101.1480
   101.3942 101.4641 101.4977 101.6866 101.8051 101.8797 101.9953 102.0369
   102.2122 102.3455 102.5798 102.7555 102.8113 103.0464 103.1235 103.2603
   103.4693 103.4803 103.5609 103.6898 103.8985 104.2115 104.2550 104.3532
   104.6362 104.7152 104.7477 104.8656 104.9526 104.9686 105.0620 105.1815
   105.2999 105.3254 105.5489 105.5514 105.6056 105.6922 105.7408 105.7438
   105.8721 105.8879 105.9986 106.0936 106.2984 106.3190 106.5186 106.6129
   106.6967 106.7440 106.9116 106.9469 106.9899 107.0302 107.1660 107.1997
   107.3356 107.3999 107.5439 107.7145 107.7381 107.8424 108.0522 108.1392
   108.1580 108.1714 108.2795 108.2955 108.3635 108.5108 108.7228 108.7842
   108.8941 109.0094 109.0676 109.1595 109.1936 109.2525 109.3388 109.3542
   109.4094 109.5847 109.6122 109.6493 109.6740 109.8004 109.8219 109.8941
   109.9229 109.9904 110.0602 110.1012 110.1392 110.1946 110.3480 110.3946
   110.4325 110.5603 110.6775 110.7278 110.7915 110.8024 111.0300 111.0849
   111.1819 111.2620 111.3046 111.3219 111.5025 111.5201 111.6040 111.8632
   111.8993 111.9113 112.0509 112.1420 112.1430 112.2071 112.4493 112.6101
   112.6219 112.6747 112.8528 113.0341 113.0499 113.1220 113.2717 113.3137
   113.5255 113.5392 113.5402 113.6936 113.7663 113.9148 114.1162 114.2660
   114.2905 114.2946 114.4845 114.5694 114.6295 114.6827 114.9001 114.9321
   114.9862 114.9891 115.1568 115.1604 115.2230 115.4254 115.5497 115.5737
   115.7106 115.7679 115.7989 115.8446 115.9578 116.0064 116.0982 116.2394
   116.5036 116.5590 116.6622 116.7384 116.7534 116.8722 116.9270 117.1530
   117.1940 117.2403 117.2596 117.3923 117.3986 117.5600 117.6569 117.6815
   117.7971 117.8184 117.8599 117.8703 117.9779 117.9867 118.1490 118.2467
   118.2853 118.2946 118.3128 118.3348 118.4547 118.4867 118.6710 118.7297
   118.7940 118.8559 118.8896 118.9268 119.0422 119.0438 119.1901 119.3102
   119.3159 119.3936 119.4995 119.5987 119.6946 119.7088 119.7471 119.8869
   119.9736 120.1072 120.1499 120.2665 120.2753 120.3483 120.3582 120.4632
   120.5222 120.5549 120.5956 120.6473 120.7314 120.8174 120.8842 120.9747
   121.0355 121.1155 121.1776 121.2776 121.3393 121.3823 121.4662 121.5188
   121.5393 121.6178 121.7314 121.7949 121.7966 121.9079 122.0337 122.0416
   122.1058 122.2142 122.2393 122.3514 122.5719 122.5741 122.6661 122.6975
   122.8267 122.8752 122.9428 122.9458 123.0348 123.0961 123.2098 123.2550
   123.3211 123.3260 123.3460 123.4517 123.5065 123.6442 123.7486 123.7643
   123.8088 123.8487 123.9381 123.9433 124.1506 124.1564 124.2000 124.3118
   124.3603 124.5245 124.5508 124.5562 124.7124 124.7558 124.7716 124.8205
   124.8302 124.8492 124.9934 125.0651 125.1286 125.2212 125.2943 125.4889
   125.4967 125.6703 125.7908 125.8940 125.9994 126.0460 126.0521 126.0824
   126.2241 126.2933 126.3756 126.4607 126.4679 126.5228 126.6164 126.6488
   126.7314 126.7556 126.9528 126.9543 127.0709 127.0711 127.1037 127.1782
   127.3272 127.3308 127.4087 127.4444 127.4775 127.6134 127.6492 127.8048
   127.9306 127.9626 128.1490 128.1893 128.2264 128.2682 128.3721 128.3827
   128.5318 128.7993 128.8533 128.9736 129.1058 129.1063 129.2213 129.3351
   129.3918 129.4319 129.4697 129.5309 129.7606 129.7612 129.8695 129.9502
   130.0253 130.3328 130.3466 130.4014 130.4623 130.5601 130.7439 130.7447
   130.8371 130.9022 130.9180 130.9943 131.1402 131.1883 131.2016 131.3019
   131.3708 131.4198 131.4671 131.5308 131.5870 131.6318 131.6447 131.8263
   131.9272 131.9926 132.0255 132.0760 132.0797 132.1672 132.2234 132.2925
   132.3495 132.3639 132.4115 132.5378 132.5609 132.6378 132.7119 132.7506
   132.8470 132.8538 132.9360 132.9582 132.9950 133.1012 133.2021 133.2489
   133.2777 133.3567 133.4654 133.5335 133.5621 133.6659 133.7067 133.8691
   133.8944 133.9150 133.9967 134.0161 134.0271 134.1260 134.1306 134.3029
   134.3444 134.3637 134.5748 134.6486 134.6763 134.6913 134.8310 134.8865
   134.9262 135.0416 135.0850 135.1507 135.3286 135.3976 135.4376 135.4652
   135.6040 135.7068 135.7904 135.8805 135.8927 136.0292 136.1063 136.1997
   136.3346 136.4111 136.4998 136.5236 136.5447 136.6358 136.7447 136.8284
   136.8646 136.9913 137.0881 137.3995 137.4118 137.4840 137.5308 137.7508
   137.9093 137.9279 137.9976 138.0977 138.1854 138.2698 138.4190 138.4762

     the Fermi energy is    -0.7783 ev
     (compare with:    -0.7064 eV, computed in scf)

     Writing all to output data dir out/Sb.save/
 
     init_run     :      0.20s CPU      0.22s WALL (       1 calls)
     electrons    :    836.84s CPU    861.36s WALL (       1 calls)

     Called by init_run:
     wfcinit      :      0.00s CPU      0.00s WALL (       1 calls)
     potinit      :      0.03s CPU      0.03s WALL (       1 calls)
     hinit0       :      0.01s CPU      0.03s WALL (       1 calls)

     Called by electrons:
     c_bands      :    836.83s CPU    861.35s WALL (       1 calls)
     v_of_rho     :      0.01s CPU      0.02s WALL (       1 calls)

     Called by c_bands:
     init_us_2    :      0.00s CPU      0.00s WALL (      10 calls)
     init_us_2:cp :      0.00s CPU      0.00s WALL (      10 calls)
     cegterg      :    817.41s CPU    841.33s WALL (      10 calls)

     Called by *egterg:
     cdiaghg      :    706.73s CPU    729.09s WALL (     120 calls)
     h_psi        :     23.76s CPU     24.18s WALL (     130 calls)
     g_psi        :      0.20s CPU      0.20s WALL (     110 calls)

     Called by h_psi:
     h_psi:calbec :      0.56s CPU      0.58s WALL (     130 calls)
     vloc_psi     :     22.47s CPU     22.83s WALL (     130 calls)
     add_vuspsi   :      0.48s CPU      0.48s WALL (     130 calls)

     General routines
     calbec       :      0.56s CPU      0.58s WALL (     130 calls)
     fft          :      0.01s CPU      0.03s WALL (      10 calls)
     fftw         :     20.05s CPU     20.37s WALL (  177048 calls)
 
     Parallel routines
 
     PWSCF        :  13m58.80s CPU  14m25.01s WALL

 
   This run was terminated on:  10:49:49   8Apr2024            

=------------------------------------------------------------------------------=
   JOB DONE.
=------------------------------------------------------------------------------=
