
     Program PWSCF v.7.1 starts on 14Nov2023 at 10:50: 4 

     This program is part of the open-source Quantum ESPRESSO suite
     for quantum simulation of materials; please cite
         "P. Giannozzi et al., J. Phys.:Condens. Matter 21 395502 (2009);
         "P. Giannozzi et al., J. Phys.:Condens. Matter 29 465901 (2017);
         "P. Giannozzi et al., J. Chem. Phys. 152 154105 (2020);
          URL http://www.quantum-espresso.org", 
     in publications or presentations arising from this work. More details at
     http://www.quantum-espresso.org/quote

     Parallel version (MPI), running on     8 processors

     MPI processes distributed on     1 nodes
     123499 MiB available memory on the printing compute node when the environment starts
 
     Reading input from pw_mp-1138_nscf_k10_E116.in
Warning: card &IONS ignored
Warning: card / ignored
Warning: card &CELL ignored
Warning: card / ignored

     Current dimensions of program PWSCF are:
     Max number of different atomic species (ntypx) = 10
     Max number of k-points (npk) =  40000
     Max angular momentum in pseudopotentials (lmaxx) =  4

     Atomic positions and unit cell read from directory:
     out/mp-1138.save/
     Atomic positions from file used, from input discarded
 
 
     R & G space division:  proc/nbgrp/npool/nimage =       8
     Subspace diagonalization in iterative solution of the eigenvalue problem:
     one sub-group per band group will be used
     scalapack distributed-memory algorithm (size of sub-group:  2*  2 procs)

 
     Parallelization info
     --------------------
     sticks:   dense  smooth     PW     G-vecs:    dense   smooth      PW
     Min         119     119     33                 2446     2446     371
     Max         120     120     35                 2450     2450     372
     Sum         955     955    271                19579    19579    2975
 
     Using Slab Decomposition
 


     bravais-lattice index     =            2
     lattice parameter (alat)  =       7.7166  a.u.
     unit-cell volume          =     114.8711 (a.u.)^3
     number of atoms/cell      =            2
     number of atomic types    =            2
     number of electrons       =        10.00
     number of Kohn-Sham states=         1200
     kinetic-energy cutoff     =     116.0000  Ry
     charge density cutoff     =     464.0000  Ry
     Exchange-correlation= PBE
                           (   1   4   3   4   0   0   0)

     celldm(1)=   7.716558  celldm(2)=   0.000000  celldm(3)=   0.000000
     celldm(4)=   0.000000  celldm(5)=   0.000000  celldm(6)=   0.000000

     crystal axes: (cart. coord. in units of alat)
               a(1) = (  -0.500000   0.000000   0.500000 )  
               a(2) = (   0.000000   0.500000   0.500000 )  
               a(3) = (  -0.500000   0.500000   0.000000 )  

     reciprocal axes: (cart. coord. in units 2 pi/alat)
               b(1) = ( -1.000000 -1.000000  1.000000 )  
               b(2) = (  1.000000  1.000000  1.000000 )  
               b(3) = ( -1.000000  1.000000 -1.000000 )  


     PseudoPot. # 1 for F  read from file:
     /usr/scratch4/magr4985/MG/HTDF/pseudo/SG15/F.upf
     MD5 check sum: 1d8275f47d602dd53cad6bcdc0eda7dc
     Pseudo is Norm-conserving, Zval =  7.0
     Generated using ONCVPSP code by D. R. Hamann
     Using radial grid of  602 points,  4 beta functions with: 
                l(1) =   0
                l(2) =   0
                l(3) =   1
                l(4) =   1

     PseudoPot. # 2 for Li read from file:
     /usr/scratch4/magr4985/MG/HTDF/pseudo/SG15/Li.upf
     MD5 check sum: c91dd4cee9943b136ac3b62641658f95
     Pseudo is Norm-conserving, Zval =  3.0
     Generated using ONCVPSP code by D. R. Hamann
     Using radial grid of  602 points,  4 beta functions with: 
                l(1) =   0
                l(2) =   0
                l(3) =   1
                l(4) =   1

     atomic species   valence    mass     pseudopotential
        F              7.00    18.99840     F ( 1.00)
        Li             3.00     6.94100     Li( 1.00)

     48 Sym. Ops., with inversion, found



   Cartesian axes

     site n.     atom                  positions (alat units)
         1           Li  tau(   1) = (   0.0000000   0.0000000   0.0000000  )
         2           F   tau(   2) = (  -0.5000000   0.5000000   0.5000000  )

     number of k points=     3  Gaussian smearing, width (Ry)=  0.0005
                       cart. coord. in units 2pi/alat
        k(    1) = (   0.0000000   0.0000000   0.0000000), wk =   0.2500000
        k(    2) = (   0.5000000  -0.5000000   0.5000000), wk =   1.0000000
        k(    3) = (   0.0000000  -1.0000000   0.0000000), wk =   0.7500000

     Dense  grid:    19579 G-vectors     FFT dimensions: (  40,  40,  40)

     Estimated max dynamical RAM per process >      68.26 MB

     Estimated total dynamical RAM >     546.12 MB

     The potential is recalculated from file :
     out/mp-1138.save/charge-density

     Starting wfcs are random

     Band Structure Calculation
     ParO style diagonalization

     ethr =  5.00E-06,  avg # of iterations =  5.7

     total cpu time spent up to now is      228.8 secs

     End of band structure calculation

          k = 0.0000 0.0000 0.0000 (  2421 PWs)   bands (ev):

   -40.3273 -19.1534   0.6161   0.6161   0.6161   9.3852  24.0781  24.0781
    24.0781  24.6575  24.6575  24.6575  27.5084  31.6753  31.6753  44.3774
    44.3774  44.3774  47.8763  64.4512  64.4512  64.4512  65.9098  67.8025
    67.8025  68.4154  68.4154  68.4154  68.4917  68.4917  68.4917  84.1516
    84.1516  89.9394  89.9394  89.9394  93.5904  93.5904  93.5904  95.1452
    95.1452  95.1452  96.0721  96.0721  96.0721  96.5442  97.6679  97.6679
    97.6679  98.5335  98.5335  98.5335  99.0790  99.0790  99.1959 101.9228
   101.9228 101.9228 102.9540 121.0080 121.0080 121.0080 125.8884 133.5356
   133.5356 141.2984 141.2984 141.2984 147.0636 155.0377 155.0377 155.0377
   160.8734 160.8734 161.2300 161.2300 161.2300 161.8642 161.8642 161.8642
   165.0358 167.4524 167.9723 167.9723 167.9723 168.9583 168.9583 168.9583
   169.1038 169.1038 169.7520 169.7520 169.7520 169.7941 169.7941 169.9126
   169.9126 169.9126 172.6848 172.6848 172.6848 174.0696 174.0696 174.0696
   175.6067 175.6067 175.6067 176.6368 176.6368 177.4009 177.4009 177.4009
   177.9169 195.9498 195.9498 195.9498 199.0694 204.5904 204.5904 204.5904
   205.6421 210.1152 210.1152 210.1152 210.2855 210.2855 211.4056 211.4056
   211.4056 211.9423 211.9423 211.9423 211.9752 211.9752 211.9752 212.4218
   212.4218 213.4488 213.4488 213.4488 221.8810 221.8810 224.1460 233.5530
   233.5530 233.5530 233.9126 233.9126 233.9126 235.7155 236.6375 237.9154
   237.9154 237.9154 238.2747 238.2747 238.2747 239.0154 239.0154 239.0154
   239.3108 239.3108 239.3108 242.7926 242.8332 242.8332 242.8332 242.8430
   242.8430 261.2120 261.2120 261.2120 270.0442 278.0040 278.0040 278.0040
   279.2618 279.2618 279.5951 279.5951 279.5951 286.1345 286.1345 286.1345
   290.6534 297.1020 297.1020 297.1020 298.6915 298.6915 300.6329 300.6329
   300.6329 304.0895 304.0895 304.0895 305.3561 305.3561 305.3561 306.6412
   306.6412 306.6412 307.1734 307.2577 307.2577 309.0239 309.0239 309.0239
   309.5276 309.5276 309.5276 310.1428 311.7143 311.7143 312.1119 312.1119
   312.1119 312.9055 312.9055 312.9055 313.0643 313.0643 313.0643 313.1156
   313.1156 313.7472 313.7472 313.7472 313.9492 314.0287 314.0287 314.0287
   314.0550 314.0550 314.4392 314.4392 314.4392 314.6821 314.8079 314.8079
   314.8079 315.6922 319.1568 319.3996 319.3996 319.3996 319.6408 319.6408
   319.7479 319.7479 319.7479 320.2688 320.2688 320.2688 320.5059 320.5059
   320.5746 320.5746 320.5746 341.8992 341.8992 341.8992 346.0357 346.7273
   346.7273 352.5552 352.5552 352.5552 352.7612 352.7612 352.7612 353.0262
   353.0262 353.0262 353.2266 353.2266 353.2266 356.9837 356.9837 357.1017
   357.1017 357.1017 357.2906 366.9052 366.9052 366.9052 374.1765 374.1765
   374.1765 374.5525 374.5751 381.8517 381.8517 381.8517 382.0340 382.0340
   382.4469 382.4469 382.4469 382.5791 382.5791 382.5791 382.5957 382.5957
   382.5957 382.7511 382.7511 385.5775 385.5775 385.5775 389.2749 389.2749
   389.4705 389.4705 389.4705 389.6491 389.8704 389.8704 389.8704 390.2127
   390.2127 390.2127 390.2812 390.2812 390.2812 390.5173 390.9499 390.9499
   390.9499 391.0992 391.0992 417.8203 417.8203 417.8203 420.6034 424.7241
   424.7241 424.7241 424.9009 426.5103 426.5103 426.5103 435.4006 435.9172
   435.9172 443.4066 443.4066 443.4066 443.7192 443.7192 443.7192 444.6771
   444.6771 444.6771 445.8341 445.8341 447.1834 452.8749 452.8749 452.8749
   454.2540 454.2540 454.2540 454.4168 454.4168 454.4168 454.5431 454.5431
   454.5431 454.6580 454.6580 454.6580 456.1086 456.5675 456.5675 456.5675
   456.8668 456.8668 456.8668 457.0779 457.0779 457.1389 457.1389 457.1389
   457.6842 457.6842 457.6842 458.1418 458.1418 458.1620 458.2154 458.2154
   458.2154 459.2056 459.2599 459.2599 459.2599 459.2764 459.2764 462.9853
   462.9853 462.9853 463.0836 463.0836 463.3727 463.3727 463.3727 463.6046
   463.6046 463.6046 463.8473 485.1131 485.1131 485.1131 490.1827 491.0887
   491.0887 491.0887 491.4601 495.0351 495.0351 495.3206 495.3206 495.3206
   495.5894 495.5894 495.5894 495.9023 495.9023 495.9023 496.3146 496.3146
   496.3146 496.5680 496.5680 499.9407 499.9407 500.2344 500.2344 500.2344
   500.3480 500.3480 500.3480 500.5916 500.5916 500.5916 500.6143 500.6143
   500.6143 500.8806 500.8806 501.6498 501.7940 501.7940 501.7940 501.9803
   501.9803 501.9803 502.2050 505.2606 505.2606 505.2606 511.7121 515.0962
   515.0962 515.4882 515.4882 515.4882 517.4010 517.4010 517.4010 518.0606
   518.4736 518.4736 518.4736 519.3621 519.3621 519.3621 521.3226 521.3226
   521.3226 521.8344 522.3187 522.3187 522.3187 523.0982 523.0982 523.3687
   523.3687 523.3687 523.8918 526.3412 526.3412 526.9717 526.9717 526.9717
   527.0260 527.0260 527.0260 527.0853 527.0853 527.0853 527.7995 527.7995
   527.8309 527.8309 527.8309 528.3809 528.5277 528.5277 528.5277 528.5609
   528.5609 529.7786 529.7786 529.7786 529.7858 529.7858 529.7858 529.9971
   529.9971 529.9971 530.0020 530.0020 530.0020 530.6600 530.6600 530.7040
   530.7040 530.7040 530.7663 561.7705 561.7705 561.7705 564.5978 565.0893
   565.0893 587.1551 587.1551 587.1551 594.2872 594.4387 594.4387 594.4387
   594.8221 595.4462 595.4462 595.8444 595.8444 595.8444 596.1741 596.4225
   596.4225 596.4225 596.4361 596.4361 596.4361 596.5758 596.5758 596.5758
   596.7401 596.7401 596.7401 596.9816 596.9816 599.4979 599.4979 600.6266
   600.6266 600.6266 600.6630 600.6630 600.6630 600.8072 601.1271 605.1213
   605.1213 605.1213 605.3401 605.3401 605.3401 605.4022 605.4022 605.4022
   605.5218 605.5218 605.5218 608.3377 608.3377 608.3491 608.3491 608.3491
   608.3562 608.3562 608.4245 608.4245 608.4245 608.4822 608.4822 608.4822
   608.5666 608.5666 608.5666 609.5217 609.5217 609.5967 609.5967 609.5967
   609.7167 634.3674 634.3674 634.3674 637.8157 638.2800 638.2800 638.2800
   638.4678 638.4678 638.5471 638.5471 638.5471 641.6537 641.6537 641.6537
   641.7666 641.7666 642.3256 642.3256 642.3256 642.3874 642.7212 642.7212
   642.7212 642.7339 642.7339 642.7339 642.9260 642.9260 642.9260 643.2395
   643.3619 643.3619 643.3619 643.4371 643.4371 652.7491 652.7491 652.7491
   655.9697 658.2695 658.2695 658.2695 658.8662 658.8662 658.8662 658.8709
   658.8709 666.7970 667.5200 667.5200 667.5200 667.6157 667.6157 667.6157
   667.6388 667.6388 667.8270 667.8270 667.8270 668.0139 668.0139 668.0139
   668.1812 668.1812 668.1812 668.1989 668.9099 672.0366 672.0366 672.1001
   672.1001 672.1001 672.2346 672.2346 672.2346 672.3864 672.3864 672.3864
   672.4957 674.3457 674.3457 674.3457 674.3519 674.3519 674.4813 674.4813
   674.4813 674.6035 674.6035 674.6035 674.7273 675.6946 675.6946 675.6946
   676.2813 677.5384 677.5384 677.5384 677.9334 677.9334 677.9334 677.9410
   677.9410 678.5943 678.8834 678.8834 678.8834 679.0941 679.0941 679.0941
   679.2565 679.2565 679.2795 679.2795 679.2795 709.3124 709.3124 709.3124
   711.3166 711.5826 711.5826 712.5841 712.5841 712.5841 712.6461 712.6461
   712.6461 712.7068 712.7068 712.7068 712.9369 712.9369 712.9369 713.4961
   713.4961 713.6725 713.6725 713.6725 713.8294 722.1601 722.1601 722.1601
   724.5227 725.4544 725.4544 732.1270 732.1270 732.1270 733.4537 733.4537
   733.4537 733.4637 733.8241 738.2431 738.2431 738.2431 738.4738 738.4738
   738.4738 738.5195 738.5195 738.5195 738.6168 738.6168 738.6168 738.6554
   738.6554 738.7899 738.7899 742.7589 742.7589 742.7589 742.7799 742.7799
   742.7799 742.9107 742.9107 742.9107 743.0023 743.0023 743.0023 743.5784
   743.5784 743.7350 743.7350 743.7350 743.7522 743.7522 743.8020 743.8020
   743.8020 743.8611 743.8611 743.8611 743.9908 743.9908 743.9908 745.2345
   745.2345 745.2345 745.2630 745.2639 745.2639 745.2639 745.3495 745.4385
   745.4385 745.4385 746.5339 747.7371 747.7595 747.7595 747.7595 747.9147
   747.9147 747.9149 747.9149 747.9149 747.9558 747.9558 748.2329 748.2329
   748.2329 748.2486 748.3884 748.3884 748.3884 748.4833 748.4833 748.4833
   748.7896 748.7896 748.7896 748.9983 748.9983 752.4021 752.4021 752.5311
   752.5311 752.5311 752.7956 752.9310 752.9310 752.9310 752.9327 752.9327
   752.9327 753.1305 753.1305 753.1305 753.1327 753.1327 753.1327 753.4035
   753.4035 753.4972 753.4972 753.4972 753.6519 779.5976 779.5976 779.5976
   780.3652 780.4195 780.5063 780.5063 780.5063 788.6090 788.6090 788.6464
   788.6464 788.6464 788.6542 788.6542 788.6542 788.6794 788.6794 788.6794
   788.7065 788.7065 788.7616 788.7616 788.7616 801.8124 801.8124 801.8124
   803.4130 803.6959 803.6959 807.2402 807.2402 807.2402 807.3296 807.3296
   807.3296 807.3999 807.3999 807.3999 807.4017 807.4017 807.4017 812.0163
   812.0163 812.1159 812.1159 812.1159 812.2882 816.2733 816.2981 816.2981
   816.2981 816.3185 816.3185 818.2891 818.2891 818.2891 818.3016 818.3016
   818.3016 818.3591 818.3591 818.3591 818.3888 818.3888 818.3888 819.2463
   819.2463 819.2852 819.2852 819.2852 819.3726 855.6763 855.6763 855.6763
   856.6036 856.9388 856.9388 856.9388 857.0587 857.8769 857.8769 857.9347
   857.9347 857.9347 858.0243 858.0243 858.0243 858.1126 858.1126 858.1126
   858.1279 858.1279 858.1279 858.2318 858.2318 873.1603 873.1603 873.1603
   874.6742 875.6915 875.6915 875.6915 876.7004 876.7004 876.7358 876.7358
   876.7358 878.1901 879.5394 879.5394 879.5394 880.2580 880.2580 880.2580
   881.2000 884.1781 884.1781 884.1781 884.3677 884.3677 884.4887 884.4887
   884.4887 884.7848 884.7848 884.9516 884.9516 884.9516 885.0234 885.0234
   885.0234 885.5619 885.8328 885.8328 885.8328 886.1017 886.1017 886.1017
   886.1745 887.8611 887.8611 887.8611 888.3708 888.3708 888.4026 888.4026
   888.4452 888.4452 888.4452 888.5023 888.5023 888.5023 888.5373 888.5373
   888.5373 888.6006 888.6006 888.6006 889.3258 889.7640 889.7640 889.9582
   890.0250 890.0250 890.0250 890.0595 890.0595 890.0595 890.0755 890.0755
   890.0808 890.0808 890.0808 890.4907 890.4907 890.4907 890.5401 890.5401
   890.5401 890.7321 890.7321 890.8440 890.8440 890.8440 891.1737 896.1800
   896.1800 896.1800 896.1885 896.1885 896.1885 896.2265 896.2265 896.2426
   896.2426 896.2426 896.3146 922.4768 922.4768 922.4768 923.1734 923.3432
   923.3432 926.7482 926.7482 926.7482 926.9361 926.9361 926.9361 927.3538
   927.3538 927.3538 927.3637 927.6560 927.6560 928.1946 928.6101 928.6101
   928.6101 928.8376 928.8376 928.8376 928.9825 928.9825 928.9825 929.0983
   929.0983 929.8178 929.8178 929.8178 930.0987 930.0987 930.0987 930.1299
   930.1299 930.1299 930.4544 930.4544 930.4544 932.6235 932.6235 932.7751
   932.7751 932.7751 932.8171 932.8692 932.8692 932.8692 932.9578 932.9578
   932.9578 933.3144 933.3144 933.3144 933.3318 933.3318 933.4192 933.4192
   933.4192 933.5163 933.5163 933.5163 933.6093 934.4084 934.4084 934.4852
   934.4852 934.4852 934.6396 949.3858 949.3858 949.3858 950.4305 950.7991
   950.7991 950.7991 950.9887 950.9887 951.0086 951.0086 951.0086 952.4348
   952.4348 952.4348 952.5865 952.5865 952.5865 952.6439 952.6439 952.9417
   952.9417 952.9417 953.2818 956.2394 956.6278 956.6278 956.6278 956.9770
   956.9770 956.9770 957.4247 957.4247 957.4537 957.4537 957.4537 958.2744
   958.5735 958.5735 958.5735 958.7778 958.7778 958.7778 958.9481 958.9481
   958.9500 958.9500 958.9500 962.0342 962.0342 962.0466 962.0466 962.0466
   962.1969 962.1969 962.1969 962.3018 962.3018 962.3018 962.3353 962.4572

          k = 0.5000-0.5000 0.5000 (  2452 PWs)   bands (ev):

   -40.2786 -18.7518  -1.7621   0.4036   0.4036  11.2455  16.8812  19.2627
    19.2627  30.4358  30.9861  30.9861  33.4446  36.9768  36.9768  44.9210
    44.9210  46.5774  52.1833  52.4558  52.4558  54.9482  60.6329  60.6329
    64.9150  67.8012  70.0832  70.0832  71.3180  71.3180  74.3289  74.3775
    74.6348  74.6348  76.2141  85.9362  85.9362  89.0666  89.9909  89.9909
    91.3062  95.9820  97.9955  97.9955 101.9751 102.6354 102.6354 107.0549
   107.9497 107.9497 108.8331 108.8331 115.4697 118.6546 118.6546 120.6217
   122.4585 122.4585 122.9456 125.8617 125.8617 126.5939 126.5939 127.3424
   128.0399 128.0399 128.0474 128.0474 129.3248 129.3942 138.6928 141.0737
   141.0737 141.1157 146.1273 146.7784 146.7784 147.1103 147.1103 157.1296
   157.1296 157.4619 157.8190 160.5772 160.5772 161.3118 162.7731 163.7410
   163.7410 164.8313 167.9108 170.4442 170.4442 172.8134 173.4834 173.4834
   177.0841 177.0841 177.6221 178.4430 178.4430 181.2961 182.5751 182.5751
   182.5782 182.5782 182.6232 182.6340 191.6952 192.7481 192.7481 194.8765
   194.8765 196.5504 197.2129 198.8111 198.8111 198.9323 198.9323 199.8504
   199.8648 208.6709 208.6709 210.8179 212.9591 213.0339 213.0339 214.7791
   214.7791 215.0520 215.0520 216.1347 217.3709 217.3709 217.7022 218.0388
   218.0388 218.0822 220.2402 227.3444 227.9203 227.9203 228.0945 229.4199
   229.4199 230.2676 235.5398 235.5398 235.5577 235.5577 236.9405 236.9405
   237.0705 237.0705 237.4185 237.4268 243.6530 243.6530 248.3126 248.8220
   250.0638 250.0638 252.1849 253.6779 253.6779 254.2809 254.2809 254.4593
   254.6433 257.2101 257.2101 261.9069 261.9069 268.5567 268.5567 268.7840
   268.8698 268.8698 269.4704 270.8562 274.9376 277.6417 277.6417 281.0626
   281.4064 282.8269 282.8269 283.6093 284.1576 285.0330 285.0330 285.4612
   285.4612 286.4020 286.8949 286.8949 288.7198 288.7198 289.0413 289.6624
   289.6624 289.8682 289.8682 289.8934 290.1406 290.4153 290.4153 290.4235
   290.4235 291.5223 301.9287 301.9287 302.2072 303.7017 303.7017 304.7672
   305.2691 307.3797 307.3797 307.5065 307.5065 308.0922 308.6194 308.6194
   308.6535 308.6535 308.7456 308.9102 316.1146 316.7849 316.7849 318.8217
   318.8217 321.4838 322.3979 324.3835 325.1661 325.1661 325.3262 325.3262
   325.4293 325.6149 327.5505 333.6740 333.6740 337.0200 337.0200 339.6295
   341.3003 341.9526 341.9526 342.0760 342.0769 342.0769 342.3449 342.3449
   342.5163 343.1058 343.1058 343.7276 345.1653 345.1653 345.1910 345.1910
   345.2432 345.3647 345.9654 355.0049 355.0049 356.9368 356.9368 358.6338
   362.6955 365.7312 365.7312 367.3575 370.1959 370.8877 370.8877 372.3860
   372.3860 373.3537 373.3537 376.4959 377.2180 377.3267 377.3267 377.5140
   377.5140 379.0850 379.2328 379.2328 379.3729 379.3729 379.3789 379.8657
   379.8657 379.9165 379.9165 380.1288 380.1602 380.9034 388.9512 390.0746
   390.0746 390.4052 390.9616 391.9746 391.9746 395.2562 395.2562 395.2988
   395.2988 395.2993 395.5618 395.7400 395.7400 395.8236 395.8236 397.7542
   397.7542 397.7591 397.7903 397.8003 397.8003 397.9183 399.2979 399.2979
   399.3018 399.3018 400.5719 400.5726 404.7809 408.0515 414.3492 414.3492
   415.2291 415.4303 415.4303 415.9969 416.3851 416.3851 416.4553 416.4553
   423.0438 423.0438 423.9604 426.3595 427.9685 427.9685 428.2622 428.6448
   428.6448 428.9459 428.9459 431.9955 433.1309 433.1309 433.2054 433.3617
   433.4674 433.4674 434.2083 434.2083 434.3920 434.3920 434.7098 434.8610
   439.0203 439.0203 444.1317 444.1317 444.6589 445.3027 447.7458 448.1521
   448.1521 450.1118 450.3929 450.3929 450.8660 450.9304 450.9304 450.9664
   450.9664 451.3293 451.3293 451.4101 451.4101 451.4165 451.4167 451.4879
   465.0437 465.0437 465.9425 466.6958 467.1627 467.1627 468.1015 468.1015
   468.1557 468.7857 468.7857 468.9506 468.9506 468.9622 469.1207 469.1207
   469.2207 469.4273 472.8736 479.6295 481.3164 481.3164 481.6876 483.4264
   483.4264 485.4427 485.4427 485.4812 485.4812 485.5553 485.5808 485.6177
   485.6188 485.6188 485.6847 485.6847 485.8165 486.3249 489.2771 489.2771
   489.3509 489.3509 492.5290 494.9073 494.9073 496.4217 496.4217 499.7364
   500.2466 500.8826 500.8826 500.9355 500.9355 501.8253 503.2981 503.7039
   503.7039 504.4700 504.4977 504.4977 506.0114 506.0343 506.0343 506.2230
   506.2230 506.4527 508.1160 508.1697 508.1697 508.2246 508.2246 508.2591
   515.5549 518.5297 518.5297 519.2461 519.2461 519.6835 523.5468 523.5468
   523.7674 523.7674 524.0563 524.1468 529.6388 533.5086 533.5086 536.1920
   536.1920 537.2368 537.4970 538.9136 539.4513 539.4513 539.4566 539.4566
   539.5975 540.2972 540.3319 540.3319 540.3445 540.3445 540.4132 540.4825
   541.8848 541.8848 541.9094 541.9094 542.0186 542.1295 549.4788 550.8612
   550.8612 551.2419 551.3550 551.9861 551.9861 553.1017 553.1017 553.2654
   553.2654 554.6958 554.6958 555.1743 555.2103 555.2103 555.5902 555.8681
   558.4855 558.6092 559.2296 559.3309 559.6609 559.6609 559.7730 559.7730
   559.8220 559.8220 559.9172 559.9172 559.9827 559.9827 560.0190 560.0190
   560.3843 560.3983 561.0092 561.0092 561.0543 561.0543 561.2786 561.2955
   574.1989 574.4474 574.4474 575.0205 575.0205 575.3254 576.7085 577.0114
   577.0114 577.0941 577.0941 577.2662 577.2678 577.2889 577.2889 577.3775
   577.3775 577.3780 579.3957 579.3957 579.4107 579.4107 579.5175 579.5259
   592.7267 592.7267 592.9850 593.5582 593.5582 594.2866 594.4000 594.4084
   594.7150 594.7150 594.7725 594.7725 601.1973 605.1438 608.1346 608.1346
   608.8805 609.1550 609.1550 609.7092 611.2637 611.2637 611.4152 611.4152
   611.5880 611.5880 611.6111 611.6111 611.8978 611.9208 612.0509 612.0509
   612.2171 612.2573 612.2573 612.6756 615.4047 615.4047 615.4064 615.4064
   616.8328 616.8343 627.2319 627.6507 627.8434 627.8434 628.8604 629.1174
   629.1174 629.3589 629.3589 629.4476 629.4476 629.8726 633.6619 633.6619
   633.6662 633.6662 633.9253 633.9275 637.5370 637.5370 639.3851 640.6964
   640.6964 641.2600 642.0460 642.5790 642.5790 643.0087 643.2999 643.6198
   643.6198 644.0030 648.3086 648.3086 648.4837 649.0364 649.0364 649.0493
   651.2310 651.2310 651.2347 651.2347 660.2536 660.2536 660.6840 662.0460
   662.0460 662.4689 663.2269 663.2269 663.5216 663.5216 663.5450 664.2128
   665.2298 665.2298 665.2633 665.3439 665.8039 665.8039 665.9365 666.2301
   666.3144 666.3144 666.5234 666.5234 667.4805 667.5211 667.5239 667.5239
   667.6028 667.6371 667.6371 667.7041 667.7041 667.7084 667.7084 667.7438
   668.6861 668.6861 668.7222 668.7438 668.7438 668.8031 669.7093 669.7093
   669.7271 669.7271 669.7717 669.8692 682.1972 682.1972 682.2184 682.2211
   682.2211 683.1552 683.5976 683.5976 683.6644 683.6644 683.6804 683.6865
   686.1459 686.1459 686.1459 686.2087 686.2575 686.2575 696.2679 697.6785
   697.8396 697.8396 698.1087 698.1087 700.7544 700.7544 701.3390 701.3390
   701.3411 701.5833 701.7679 701.8730 701.8730 701.8913 701.8913 701.8933
   703.9751 703.9751 704.0099 704.0099 704.1287 704.1287 704.1724 704.2031
   704.2059 704.6332 704.7172 704.7172 704.8687 704.8687 704.8744 704.9598
   704.9598 705.0343 717.7886 719.0474 719.4984 719.4984 719.7339 719.7339
   719.8769 719.9545 720.6106 720.6106 720.6307 720.6307 721.1849 721.3774
   721.3774 721.4228 721.4540 721.4540 721.5870 721.5870 721.5923 721.5923
   721.6051 721.6326 731.6655 731.8406 735.2261 735.2261 735.6507 735.6507
   735.7097 736.0133 741.0524 741.0524 741.0607 741.0607 741.3943 741.3943
   741.4251 741.4251 741.4392 741.5127 751.1565 751.5617 751.5617 751.9640
   751.9640 752.6341 752.7355 753.0429 753.0429 753.0627 753.0627 753.0728
   755.3737 755.5116 755.5116 755.6493 755.6493 755.6613 755.8149 755.8149
   755.8182 755.8182 755.8276 755.8739 757.2088 757.2088 757.2146 757.2146
   757.4920 757.5195 759.3528 759.3528 759.3730 759.3730 759.3948 759.4414
   767.5074 767.7711 768.5089 768.5089 768.6473 768.6473 773.6666 773.6666
   773.7100 773.7100 773.7803 773.8225 775.5919 775.8661 775.8661 775.8846
   776.0414 776.0414 776.3494 776.3494 776.3738 776.3738 776.4936 776.5029
   778.0657 778.0657 778.0810 778.0810 778.1174 778.1433 790.2232 790.5547
   791.6807 791.6807 791.6917 791.6917 791.7115 791.7115 791.8676 791.9525
   791.9525 792.0235 792.6731 792.6731 792.7153 792.7153 792.7550 792.8220
   795.6121 795.6121 795.6154 795.6154 796.0016 796.0022 804.1676 804.2905
   804.2905 804.4160 804.4160 804.4751 808.9298 809.2073 810.0188 810.0188
   810.1484 810.2177 810.2177 810.4029 810.7684 810.7979 810.7979 810.8168
   810.8168 810.8216 811.1495 811.1555 811.1555 811.1636 811.1636 811.2882
   823.8232 823.9957 823.9957 824.5198 824.5198 824.5500 825.4336 825.4336
   825.4708 825.5484 825.5523 825.5523 826.5988 826.5988 826.8079 826.8079
   827.1621 827.3950 827.4103 827.7133 827.7133 827.7442 827.7657 827.8106
   827.9487 827.9487 828.1351 828.1351 828.2038 828.2038 830.6995 830.7109
   830.8326 830.8326 830.8580 830.8580 831.3831 831.3831 831.4052 831.4052
   831.4923 831.5096 831.8649 831.8649 831.8707 831.8707 832.0094 832.0212
   847.6142 847.6414 847.7380 847.7380 847.7760 847.7760 848.2031 848.2031
   848.2259 848.2259 848.3112 848.3214 848.3492 848.3944 848.4980 848.4980
   848.5291 848.5291 858.9768 858.9768 859.5436 859.5436 859.5741 859.7935
   863.5415 863.5648 863.5648 863.5811 863.5811 863.6265 865.2563 865.2563
   865.3351 865.3394 865.3968 865.3968 866.1769 866.1769 866.2117 866.2369
   866.2369 866.3339 866.4732 866.4732 866.6410 866.6753 866.6873 866.6873
   873.8463 874.4452 876.5905 876.5905 876.7168 876.7879 876.7879 877.1432
   878.6069 878.6069 878.6505 878.6505 880.6965 881.4355 882.5167 882.5167
   882.6854 882.6854 882.8282 882.8282 883.2247 883.2247 883.2275 883.2388
   883.9320 883.9413 883.9527 883.9527 883.9549 883.9549 884.1972 884.2465
   884.2465 884.2661 884.2661 884.2774 885.0590 885.0590 885.0711 885.0711
   885.5350 885.5358 886.8280 886.8280 886.8285 886.8285 887.8677 887.8678
   901.2549 901.2549 901.2592 901.2592 901.3753 901.4378 901.5643 901.5643
   901.5817 901.6548 901.6548 901.7054 916.4529 916.5190 916.5892 916.5892
   916.6523 916.6523 917.0022 917.0022 917.1558 917.1558 917.2217 917.2742
   917.5479 917.5479 917.5540 917.6333 917.6333 917.7904 918.1282 918.1282
   918.1712 918.1712 918.3004 918.3039 918.3325 918.4806 918.4806 918.5244
   918.5779 918.5779 919.2696 919.2696 919.4074 919.4945 919.4945 919.4975
   931.1106 931.2149 935.3156 935.3156 935.3297 935.3672 935.3672 935.4922
   935.9003 935.9243 935.9659 935.9659 935.9802 935.9802 936.0924 936.0924
   936.1470 936.1573 936.1573 936.2315 936.5945 936.7017 936.7017 936.7268
   936.7268 936.7412 937.3185 937.3185 937.3197 937.4133 937.4133 937.4796
   938.9217 938.9217 939.1192 939.1680 939.1680 939.1740 939.3747 939.4484
   939.4484 939.5585 939.5585 939.5991 939.7148 939.7148 939.7192 939.7192
   940.3988 940.3988 940.4031 940.4031 940.4953 940.4970 952.1879 952.1879
   952.2435 952.3299 952.3379 952.3379 957.5347 957.5347 957.5430 957.5430
   957.5986 957.6027 972.4876 972.4902 972.4902 972.5763 972.5763 972.6294
   972.6501 972.6501 972.6557 972.7179 972.7179 972.7295 973.7475 973.7475
   973.8050 973.9550 973.9560 973.9560 974.0444 974.0444 974.0649 974.0649
   974.0905 974.1014 984.9541 985.0024 985.0133 985.0133 985.0692 985.0692

          k = 0.0000-1.0000 0.0000 (  2450 PWs)   bands (ev):

   -40.2658 -18.5147  -2.1933  -0.3141  -0.3141  15.0602  16.9888  17.6358
    20.3987  20.3987  33.0698  38.3011  39.6141  41.3889  41.3889  43.6384
    43.7020  43.7020  48.9694  48.9694  52.9584  53.3302  57.5757  57.5757
    59.6965  60.2664  69.8198  71.4283  73.0472  73.0472  75.0427  77.8171
    77.8171  78.1653  78.5263  79.2992  85.1348  87.3948  87.3948  87.7031
    88.4622  98.0063  98.0063  99.2767 107.4967 107.4967 108.3065 110.0650
   111.8845 111.8845 112.2473 112.9486 114.7837 114.7837 117.4978 118.5682
   120.3981 122.0451 123.3718 123.3718 123.8427 123.8427 124.6837 124.7305
   127.1886 127.1886 130.1944 132.4210 138.4155 143.5891 145.0341 145.0752
   145.0752 146.0974 146.2642 146.2642 146.3920 147.0217 150.1037 150.4660
   150.4660 150.5266 150.5266 150.6825 153.1501 154.6605 156.8545 156.8545
   156.8578 156.8578 161.5704 161.6109 166.9826 166.9826 171.5208 173.3578
   177.2829 180.0521 180.8862 180.8862 182.2177 184.4930 184.4930 185.1324
   185.3841 185.3841 187.0476 187.3711 187.3711 187.6129 187.9457 188.0072
   190.5604 191.4635 191.4635 191.8443 195.6757 203.3638 203.3638 204.5332
   214.1605 214.1605 214.2421 215.2047 216.4398 217.0255 217.0255 217.0265
   218.2484 219.4977 220.3365 222.2179 222.2179 222.7575 222.7575 223.3037
   225.8274 226.4590 229.4437 229.8357 230.6661 230.6661 231.0483 231.2685
   231.8861 231.8861 232.0798 232.0798 232.8929 232.9425 239.0489 241.2211
   241.2211 244.0811 249.4316 249.4316 250.6438 251.7032 252.3484 252.3961
   253.8885 253.8885 254.7432 255.1416 255.1416 255.3191 255.3373 255.3373
   256.6182 256.6182 257.0831 257.2601 257.2623 257.2623 257.9654 258.2062
   258.2332 259.2953 259.8730 259.8730 260.1751 261.5836 266.5621 266.8081
   266.8081 267.5534 267.6338 267.8495 267.8495 268.0708 276.6023 276.6023
   282.1609 282.4402 282.7188 287.7355 289.6793 289.6793 290.2121 290.2121
   291.3058 291.4306 292.0104 292.0104 293.9115 294.5533 294.5857 294.5857
   294.8606 295.1037 295.9788 298.8028 298.8028 299.0023 299.1095 299.5581
   299.5581 299.8245 300.8173 300.8173 300.9691 301.1600 309.8861 309.8861
   312.4743 312.8522 316.5287 324.3315 327.6988 327.6988 328.8142 330.0156
   330.0156 330.1468 332.0986 332.2181 332.3089 333.4565 333.4565 333.7067
   336.6146 336.6146 336.9395 336.9395 337.0503 337.2744 337.2744 337.4683
   337.7357 337.9254 337.9254 338.0952 341.9534 341.9619 344.7380 346.1756
   346.1756 352.1505 356.0205 356.4120 356.7777 356.7777 357.8731 357.8731
   358.8049 358.8985 358.8985 359.0965 359.6417 360.3924 361.2404 362.3069
   362.4098 362.4098 363.3109 363.4027 363.4027 363.7414 363.9092 364.8427
   364.8427 366.4930 366.5095 366.5095 366.8946 366.9358 366.9358 366.9715
   367.1108 367.3295 367.3317 367.3317 367.4557 369.6498 375.4036 375.4139
   375.5988 375.5988 375.6668 375.6668 375.9461 375.9569 385.6405 390.2874
   390.2874 391.3436 394.1335 394.1335 395.1733 396.2957 396.2966 396.3990
   396.5014 397.7670 397.8823 397.8823 398.1186 398.1186 399.4004 400.9483
   400.9483 401.1197 401.1197 401.3069 401.3120 401.4390 401.4730 401.6790
   402.0681 402.0681 402.7445 402.7445 406.6480 406.6631 410.4497 410.4545
   412.3997 412.3997 412.4719 412.4719 413.4043 413.4150 417.7850 417.7850
   425.1231 426.3344 431.7159 431.8980 431.9601 432.4720 433.0208 433.0208
   433.5128 433.5128 434.2408 434.2516 434.2974 434.2974 435.0262 435.0262
   435.0580 435.3807 435.6969 437.3415 438.2672 438.5492 438.5492 438.5785
   440.4836 440.4836 440.6565 440.8029 442.7093 442.7424 442.7424 442.8169
   445.8802 445.8863 445.9458 445.9458 445.9997 445.9997 446.1071 446.1320
   447.7426 447.7432 447.7450 447.7450 457.3961 457.3961 458.7589 460.6174
   460.6578 463.2535 469.0038 469.0038 469.3423 469.6293 469.7756 469.7756
   469.9474 469.9474 471.2783 471.2783 472.4762 473.3451 473.3451 473.3881
   474.2496 474.2955 474.3256 474.5958 474.6941 475.4046 475.4962 475.4962
   476.0596 476.1481 476.1481 476.2373 477.5874 478.4680 478.4680 478.8527
   479.1393 479.4153 479.4153 479.5334 479.6988 479.6988 479.8341 479.8614
   480.6838 480.8220 480.8220 480.9028 483.6838 483.7956 483.7956 483.8994
   484.3773 484.3908 484.3948 484.3948 499.0804 502.1918 502.1918 503.5527
   504.4374 504.4374 504.9504 505.0265 507.5664 507.5914 508.1613 508.1613
   508.2311 508.2311 508.8881 508.9070 512.4853 512.4853 514.4585 514.6989
   514.7769 514.7769 514.8202 514.9043 529.2520 530.1219 530.1219 536.8110
   537.0882 537.0882 537.7515 537.7698 539.1688 539.5822 539.9062 539.9062
   540.1676 540.5683 540.5683 540.8622 543.0414 544.4064 544.4064 544.5638
   544.6878 544.8510 544.8510 544.8903 544.9214 545.0250 545.0250 545.1987
   546.6374 546.6374 547.1106 547.1870 550.0284 550.0284 550.8504 551.2250
   551.6191 551.7549 551.7549 551.9625 552.0792 552.2554 552.2718 552.2718
   552.6519 552.7240 552.7240 552.8365 555.7480 555.7987 556.0314 556.0314
   556.0544 556.0544 556.3189 556.3447 565.3571 565.3571 566.7704 567.7907
   568.8830 572.4789 572.5088 574.3864 574.6373 574.6373 575.2540 575.2540
   576.0487 576.4115 578.8320 578.8543 578.8819 579.0993 579.0993 579.2588
   579.2588 579.4758 579.4758 579.4795 579.4795 579.5936 579.6657 579.7598
   579.8868 580.2105 581.9332 581.9332 582.5794 582.6292 582.8778 582.8778
   582.9294 582.9878 583.6288 583.6769 583.6769 583.7700 586.7236 586.7236
   586.8170 586.9279 587.2731 587.2731 587.3307 587.4173 589.5605 589.5605
   589.5965 589.5965 592.4277 592.4536 592.4724 592.4724 592.4732 592.4810
   592.4810 592.5131 594.5068 594.5078 606.7763 606.7763 608.7050 608.9372
   609.4050 610.5031 610.5560 610.5560 610.8318 611.5965 611.5965 611.6438
   611.9675 611.9675 612.5175 612.5195 616.9965 616.9966 617.5319 617.5319
   617.5443 617.5443 618.0079 618.0398 618.7510 618.8765 618.8765 618.9037
   619.1663 619.5640 619.5882 619.5882 619.6224 620.4741 620.4741 620.6140
   621.4701 621.4701 621.6009 621.6187 626.3195 626.3195 626.3254 626.3405
   626.3693 626.3693 626.4280 626.4622 639.8527 639.8527 642.4392 642.8258
   647.5803 648.9429 648.9429 649.1932 649.2480 649.6738 649.6818 649.6818
   649.7287 650.7368 652.5123 652.5123 654.2977 654.2977 654.3386 654.3775
   654.3775 655.0483 655.0855 655.1157 655.1157 655.2189 658.6794 658.7861
   658.8265 659.0279 659.0279 659.2676 659.2944 659.2944 659.3492 659.3716
   659.8527 659.9425 659.9425 659.9701 659.9701 660.0846 660.1097 660.1377
   662.2120 662.2120 662.2258 662.2296 663.0142 663.0277 665.0032 665.0032
   665.0087 665.0087 665.9454 665.9456 679.5941 679.5941 680.1082 681.5654
   682.3174 682.3380 682.3380 682.3983 685.6621 685.7572 685.7572 686.0654
   686.4471 686.4471 686.5885 687.1156 687.2361 687.6023 687.7549 687.7549
   688.1589 688.1589 688.1854 688.4589 690.0437 690.0453 690.1381 690.1381
   690.1671 690.1671 690.2271 690.2872 692.0548 692.0548 692.8957 693.1629
   694.4739 694.5980 694.6365 694.6365 698.1524 698.1524 698.1953 698.2375
   698.9417 698.9417 698.9528 698.9546 714.9067 714.9067 715.1246 716.2056
   716.6191 717.7671 717.9461 718.0219 718.0219 718.4754 720.9111 720.9111
   721.8403 721.8918 722.0611 722.0611 722.2171 722.2171 722.3094 722.5342
   722.7047 722.8414 722.9629 722.9629 722.9637 723.0346 724.4152 724.4430
   724.4430 724.5468 727.7158 727.7158 727.7167 727.7343 728.0569 728.0641
   728.0682 728.0682 730.3431 731.5614 731.8412 731.8412 732.0684 732.0684
   732.3685 732.4119 736.1223 736.1374 736.1374 736.1803 748.8933 751.4971
   752.7905 752.7905 754.1191 754.1191 754.2109 754.2813 754.3635 755.2365
   758.6108 758.6108 758.9781 758.9781 760.1136 760.1136 760.5404 760.9445
   761.4851 762.0403 762.0403 762.0946 763.1000 763.1132 764.1069 764.2308
   764.2308 764.4639 764.9097 765.1137 765.1137 765.2472 766.7893 766.8017
   767.1496 767.1496 767.3680 767.3680 767.6653 767.8558 771.9636 772.0017
   772.0017 772.0478 772.3770 772.4585 772.4585 772.5296 772.7262 772.7688
   772.7688 772.7873 773.0519 773.0855 773.0855 773.1282 788.7291 788.9875
   788.9875 790.3715 790.8752 790.8752 791.1750 791.1777 793.1710 793.4707
   793.5095 793.5095 793.5234 793.5384 794.0389 794.0389 794.1391 794.1391
   794.3045 794.3045 794.3542 794.7449 795.1315 795.2066 795.2388 795.2703
   795.3602 795.4689 795.5626 795.5626 795.8386 795.8386 796.2245 796.2245
   796.3091 796.3260 796.3260 796.3769 796.4644 796.5817 796.6232 796.6791
   796.9388 796.9388 796.9626 796.9626 797.2213 797.2428 798.3645 799.2319
   799.2319 799.4568 799.9323 799.9323 800.2505 800.3072 800.5208 800.5208
   801.1593 801.2111 801.7297 801.8579 801.8825 801.8825 803.0760 803.0760
   803.1131 803.2103 803.7073 803.7225 803.7225 803.7426 806.6404 806.6672
   806.6672 806.7073 806.8539 806.8539 806.8602 806.8801 808.6038 808.6107
   808.8199 808.8199 808.8371 808.8371 809.0527 809.0605 830.3467 830.3467
   830.3884 830.7168 830.7753 830.7753 830.8334 830.8727 831.8489 831.8548
   831.8784 831.8784 831.8940 831.8940 831.9743 831.9851 838.0650 838.0650
   838.8718 839.0146 839.3186 839.4462 839.6185 839.6185 839.6363 839.6363
   839.7103 839.8627 839.9070 840.1850 840.1850 840.3540 840.6647 840.7347
   840.7347 840.7848 841.1182 841.2017 841.2017 841.3051 841.3344 841.4411
   841.4411 841.5076 841.5987 841.6787 841.6787 841.7527 863.5045 864.6122
   865.2598 865.2598 865.6568 865.6568 866.2539 866.2732 866.2732 866.3954
   866.4079 866.4224 866.5321 866.5321 866.7944 866.8055 870.8182 870.8182
   871.1162 871.3247 871.3488 871.4193 871.4193 871.4542 872.7887 873.1580
   873.1580 873.3331 873.3348 873.4922 873.4922 873.5480 873.6024 873.6234
   873.6234 873.6349 878.9063 878.9130 878.9502 878.9502 878.9664 878.9664
   879.0391 879.0525 880.9608 880.9679 880.9903 880.9903 880.9922 880.9922
   881.0204 881.0365 891.0232 891.0232 892.2265 892.9673 893.5635 894.0252
   894.0252 894.3415 895.7240 896.3299 897.5121 898.3465 898.3465 898.6399
   898.6399 898.7951 898.8023 898.8082 902.1785 902.2503 902.2503 902.3528
   903.2603 903.2976 903.2976 903.3058 903.3104 903.3104 903.6803 903.7042
   904.9547 904.9874 905.2357 905.2357 905.2418 905.2418 905.4352 905.4472
   906.2431 906.2763 906.2805 906.2805 906.5830 906.6188 906.8972 906.8972
   906.9111 906.9111 907.2296 907.2308 907.4977 907.5043 907.5043 907.5177
   908.9758 908.9860 908.9860 909.0003 911.7279 911.7279 912.0407 912.0606
   913.4356 913.4610 913.4710 913.4710 914.3265 914.3265 914.3298 914.3298
   919.2627 919.2661 933.2518 933.2518 933.6794 933.7573 935.0049 935.0270
   935.0270 935.0908 938.0891 938.3744 938.3744 938.4532 938.6375 938.6375
   938.7370 938.8380 938.8767 938.9817 938.9817 939.1095 939.2627 939.3168
   939.3168 939.4184 943.6344 943.6688 943.6688 943.7022 944.3630 944.3702
   944.3702 944.3709 945.6217 945.6217 946.2881 946.3679 946.5542 946.5547
   946.5547 946.5823 948.1049 948.3642 948.3642 948.4716 948.6274 948.7372
   948.7372 948.7642 949.3167 949.3241 949.3241 949.4744 949.4916 949.5706
   949.5706 949.6207 972.2792 972.2792 972.5239 972.5492 972.6721 972.7663
   972.7663 972.7771 974.1052 974.4108 974.4108 974.5036 974.5096 974.5164
   974.5164 974.5607 974.5625 974.8839 977.7875 977.7910 977.7910 977.8139
   978.0272 978.0365 978.0365 978.0630 978.4563 978.4563 978.5720 978.5720
   980.4007 980.4007 980.4920 980.6962 980.7405 980.7533 980.8162 980.8162

     the Fermi energy is     7.6815 ev
     (compare with:     3.9152 eV, computed in scf)

     Writing all to output data dir out/mp-1138.save/
 
     init_run     :      0.04s CPU      0.05s WALL (       1 calls)
     electrons    :    212.61s CPU    228.55s WALL (       1 calls)

     Called by init_run:
     wfcinit      :      0.00s CPU      0.00s WALL (       1 calls)
     potinit      :      0.01s CPU      0.01s WALL (       1 calls)
     hinit0       :      0.02s CPU      0.02s WALL (       1 calls)

     Called by electrons:
     c_bands      :    212.60s CPU    228.55s WALL (       1 calls)
     v_of_rho     :      0.01s CPU      0.01s WALL (       1 calls)

     Called by c_bands:
     init_us_2    :      0.00s CPU      0.00s WALL (       3 calls)
     init_us_2:cp :      0.00s CPU      0.00s WALL (       3 calls)
     paro_k       :    205.58s CPU    221.04s WALL (       3 calls)

     Called by paro_*:
     h_psi        :      3.66s CPU      3.88s WALL (     299 calls)
     g_psi        :      0.08s CPU      0.09s WALL (   29292 calls)

     Called by h_psi:
     h_psi:calbec :      0.06s CPU      0.06s WALL (     299 calls)
     vloc_psi     :      3.55s CPU      3.76s WALL (     299 calls)
     add_vuspsi   :      0.04s CPU      0.04s WALL (     299 calls)

     General routines
     calbec       :      0.05s CPU      0.06s WALL (     299 calls)
     fft          :      0.00s CPU      0.01s WALL (      10 calls)
     fftw         :      3.16s CPU      3.35s WALL (   48020 calls)
 
     Parallel routines
 
     PWSCF        :   3m33.05s CPU   3m49.14s WALL

 
   This run was terminated on:  10:53:53  14Nov2023            

=------------------------------------------------------------------------------=
   JOB DONE.
=------------------------------------------------------------------------------=
