
     Program PWSCF v.7.1 starts on 20Dec2023 at 21: 2:28 

     This program is part of the open-source Quantum ESPRESSO suite
     for quantum simulation of materials; please cite
         "P. Giannozzi et al., J. Phys.:Condens. Matter 21 395502 (2009);
         "P. Giannozzi et al., J. Phys.:Condens. Matter 29 465901 (2017);
         "P. Giannozzi et al., J. Chem. Phys. 152 154105 (2020);
          URL http://www.quantum-espresso.org", 
     in publications or presentations arising from this work. More details at
     http://www.quantum-espresso.org/quote

     Parallel version (MPI), running on    24 processors

     MPI processes distributed on     1 nodes
     122838 MiB available memory on the printing compute node when the environment starts
 
     Reading input from pw_mp-2114_nscf_k260_E106.in
Warning: card &IONS ignored
Warning: card / ignored
Warning: card &CELL ignored
Warning: card / ignored

     Current dimensions of program PWSCF are:
     Max number of different atomic species (ntypx) = 10
     Max number of k-points (npk) =  40000
     Max angular momentum in pseudopotentials (lmaxx) =  4

     Atomic positions and unit cell read from directory:
     out/mp-2114.save/
     Atomic positions from file used, from input discarded
 
 
     K-points division:     npool     =       2
     R & G space division:  proc/nbgrp/npool/nimage =      12
     Subspace diagonalization in iterative solution of the eigenvalue problem:
     one sub-group per band group will be used
     scalapack distributed-memory algorithm (size of sub-group:  3*  3 procs)

 
     Parallelization info
     --------------------
     sticks:   dense  smooth     PW     G-vecs:    dense   smooth      PW
     Min         104     104     30                 2426     2426     386
     Max         106     106     31                 2428     2428     389
     Sum        1261    1261    367                29123    29123    4645
 
     Using Slab Decomposition
 


     bravais-lattice index     =            2
     lattice parameter (alat)  =       9.2535  a.u.
     unit-cell volume          =     198.0857 (a.u.)^3
     number of atoms/cell      =            2
     number of atomic types    =            2
     number of electrons       =        16.00
     number of Kohn-Sham states=         1200
     kinetic-energy cutoff     =     106.0000  Ry
     charge density cutoff     =     424.0000  Ry
     Exchange-correlation= PBE
                           (   1   4   3   4   0   0   0)

     celldm(1)=   9.253465  celldm(2)=   0.000000  celldm(3)=   0.000000
     celldm(4)=   0.000000  celldm(5)=   0.000000  celldm(6)=   0.000000

     crystal axes: (cart. coord. in units of alat)
               a(1) = (  -0.500000   0.000000   0.500000 )  
               a(2) = (   0.000000   0.500000   0.500000 )  
               a(3) = (  -0.500000   0.500000   0.000000 )  

     reciprocal axes: (cart. coord. in units 2 pi/alat)
               b(1) = ( -1.000000 -1.000000  1.000000 )  
               b(2) = (  1.000000  1.000000  1.000000 )  
               b(3) = ( -1.000000  1.000000 -1.000000 )  


     PseudoPot. # 1 for N  read from file:
     /usr/scratch4/magr4985/MG/HTDF/pseudo/SG15/N.upf
     MD5 check sum: c233fa8df51455e992258b7c3dee8a9f
     Pseudo is Norm-conserving, Zval =  5.0
     Generated using ONCVPSP code by D. R. Hamann
     Using radial grid of  602 points,  4 beta functions with: 
                l(1) =   0
                l(2) =   0
                l(3) =   1
                l(4) =   1

     PseudoPot. # 2 for Y  read from file:
     /usr/scratch4/magr4985/MG/HTDF/pseudo/SG15/Y.upf
     MD5 check sum: 1a657b90673a6e990374512484d9703d
     Pseudo is Norm-conserving, Zval = 11.0
     Generated using ONCVPSP code by D. R. Hamann
     Using radial grid of  602 points,  6 beta functions with: 
                l(1) =   0
                l(2) =   0
                l(3) =   1
                l(4) =   1
                l(5) =   2
                l(6) =   2

     atomic species   valence    mass     pseudopotential
        N              5.00    14.00670     N ( 1.00)
        Y             11.00    88.90590     Y ( 1.00)

     48 Sym. Ops., with inversion, found



   Cartesian axes

     site n.     atom                  positions (alat units)
         1           Y   tau(   1) = (   0.0000000   0.0000000   0.0000000  )
         2           N   tau(   2) = (  -0.5000000   0.5000000   0.5000000  )

     number of k points=    16  Gaussian smearing, width (Ry)=  0.0005
                       cart. coord. in units 2pi/alat
        k(    1) = (   0.0000000   0.0000000   0.0000000), wk =   0.0092593
        k(    2) = (  -0.1666667   0.1666667  -0.1666667), wk =   0.0740741
        k(    3) = (  -0.3333333   0.3333333  -0.3333333), wk =   0.0740741
        k(    4) = (   0.5000000  -0.5000000   0.5000000), wk =   0.0370370
        k(    5) = (   0.0000000   0.3333333   0.0000000), wk =   0.0555556
        k(    6) = (  -0.1666667   0.5000000  -0.1666667), wk =   0.2222222
        k(    7) = (   0.6666667  -0.3333333   0.6666667), wk =   0.2222222
        k(    8) = (   0.5000000  -0.1666667   0.5000000), wk =   0.2222222
        k(    9) = (   0.3333333   0.0000000   0.3333333), wk =   0.1111111
        k(   10) = (   0.0000000   0.6666667   0.0000000), wk =   0.0555556
        k(   11) = (   0.8333333  -0.1666667   0.8333333), wk =   0.2222222
        k(   12) = (   0.6666667  -0.0000000   0.6666667), wk =   0.1111111
        k(   13) = (   0.0000000  -1.0000000   0.0000000), wk =   0.0277778
        k(   14) = (   0.6666667  -0.3333333   1.0000000), wk =   0.2222222
        k(   15) = (   0.5000000  -0.1666667   0.8333333), wk =   0.2222222
        k(   16) = (  -0.3333333  -1.0000000   0.0000000), wk =   0.1111111

     Dense  grid:    29123 G-vectors     FFT dimensions: (  45,  45,  45)

     Estimated max dynamical RAM per process >     106.51 MB

     Estimated total dynamical RAM >       2.50 GB

     The potential is recalculated from file :
     out/mp-2114.save/charge-density

     Starting wfcs are random

     Band Structure Calculation
     Davidson diagonalization with overlap

     ethr =  5.00E-06,  avg # of iterations = 10.3

     total cpu time spent up to now is      659.9 secs

     End of band structure calculation

          k = 0.0000 0.0000 0.0000 (  3695 PWs)   bands (ev):

   -28.8022  -8.4668  -8.4668  -8.4668  -0.8288  12.0322  12.0322  12.0322
    15.1655  15.1655  15.1655  16.1634  17.1402  17.1402  22.9533  35.3070
    35.3070  35.3070  36.5595  36.5595  36.5595  39.7108  39.7108  39.7108
    41.1925  41.1925  45.9997  45.9997  45.9997  46.0684  52.9822  52.9822
    58.4599  58.4599  58.4599  60.9005  61.3640  61.3640  61.3640  61.4463
    65.8856  65.8856  65.8856  67.5140  67.5140  67.5140  69.4203  69.4203
    69.4203  69.4895  69.4895  69.4895  72.6165  72.6165  73.4210  73.4210
    73.4210  74.4619  75.0861  84.0264  84.0264  84.0264  85.1671  85.1671
    97.1988  97.1988  97.1988  97.1991 101.8078 101.8078 101.8078 102.3347
   102.3347 102.3347 103.8434 103.8434 109.1207 109.1207 109.1207 109.8005
   114.0877 114.0877 114.0877 116.5293 116.5293 116.5293 117.1030 117.1030
   117.3193 117.3193 117.3193 118.2421 118.2421 118.2421 118.5524 119.6737
   119.6737 119.6737 120.0467 120.0467 120.0467 120.2654 120.2654 121.4646
   121.4646 121.4646 123.8869 123.8869 124.8332 124.8332 124.8332 125.7209
   128.3570 136.2658 136.2658 136.2658 137.3314 138.5661 138.5661 138.5661
   141.7827 141.7827 146.9886 146.9886 147.0076 147.0076 147.0076 147.0196
   147.0196 147.0196 147.0335 147.0335 147.0335 147.1323 147.1323 147.1323
   148.3713 148.3713 148.3713 148.8669 148.8669 151.9432 159.5451 160.2420
   160.2420 160.2420 160.4625 160.4625 160.4625 162.7903 164.1799 164.1799
   164.1799 164.6561 164.6561 164.6561 165.6730 165.6730 165.6730 165.8491
   165.8491 165.8491 171.2773 172.0185 172.0185 172.0964 172.0964 172.0964
   172.2138 185.2782 185.2782 185.3108 185.3108 185.3108 185.3859 185.3859
   185.3859 188.4564 188.4564 188.4564 194.7585 194.7585 194.7585 195.4734
   203.0643 203.0643 203.0643 203.9804 203.9804 205.0858 205.0858 205.0858
   205.3700 206.1351 206.1351 206.1351 206.7694 206.7694 207.8620 207.8620
   207.8620 208.0289 208.0289 208.0289 210.2345 211.6781 211.6781 211.6781
   212.0606 212.0606 212.7272 212.7272 212.7272 213.2227 213.6069 213.6069
   214.3149 215.4514 215.4514 215.4514 215.8872 215.8872 215.8872 217.0591
   217.0591 217.0591 217.5231 217.5231 217.5231 218.4588 219.9498 219.9498
   219.9498 220.0453 220.0453 220.6997 220.6997 220.6997 221.6602 221.6602
   221.6602 222.2390 223.2841 223.2841 223.2841 223.4171 223.4171 224.1257
   224.1257 224.1257 224.7272 224.7272 224.7272 225.2073 225.2073 225.2073
   225.2639 225.2639 228.0553 238.4083 238.4083 238.4083 239.4694 239.4694
   241.2998 241.2998 241.2998 241.4677 241.4677 241.4677 241.5920 241.5920
   241.5920 241.7800 241.7800 241.7800 244.9012 249.1239 249.1239 249.2060
   249.2060 249.2060 249.2882 255.2817 255.2817 255.2817 255.3037 256.9729
   256.9729 256.9729 259.6559 263.4844 263.4844 263.6378 263.6378 263.6378
   264.1051 264.1051 264.1051 264.2180 264.2180 264.2180 264.3028 264.3028
   264.3028 264.4204 264.4204 268.9245 268.9245 268.9245 270.1463 270.4456
   270.4456 270.4456 272.2402 272.2402 272.2402 272.2762 272.2762 272.2762
   272.2888 272.2888 272.2888 272.2953 272.2953 272.4414 272.4414 272.4414
   272.4677 272.4677 274.6113 284.3339 284.3339 284.3339 291.2917 291.2917
   293.2676 293.4584 293.4584 293.4584 293.6429 295.3813 295.3813 295.3813
   297.4214 297.4214 297.4214 297.8779 297.8779 298.0569 298.0569 298.0569
   299.9959 301.2768 301.2768 301.2768 301.7919 310.2737 310.2737 310.2737
   313.4662 313.4662 313.4662 313.8566 313.8566 313.8566 314.1120 314.1120
   314.1120 314.5893 314.5893 314.5893 316.9716 316.9716 316.9716 317.0713
   317.3199 317.3199 317.3199 317.3357 317.3357 317.5148 317.5148 317.5148
   317.6070 317.6070 317.7425 317.7425 317.7425 317.7598 317.7598 317.7598
   319.6974 319.6974 319.8701 319.8701 319.8701 320.0004 320.1585 320.1585
   320.1585 320.2369 320.2369 320.2369 322.3304 322.3304 322.3687 322.3687
   322.3687 322.4234 328.8690 336.8202 337.6264 337.6264 337.6264 337.9792
   337.9792 337.9792 340.4048 340.8899 340.8899 341.1535 341.1535 341.1535
   341.4872 341.4872 341.4872 341.9463 341.9463 341.9463 342.0836 342.0836
   342.0836 342.6845 342.6845 345.8428 345.8428 345.8428 347.4237 347.4237
   347.4237 347.5178 347.5178 347.5178 347.5751 347.5751 347.5849 347.5849
   347.6372 347.6372 347.6372 347.6804 347.6804 347.6804 349.7532 349.8348
   349.8348 349.8348 349.9553 349.9553 349.9553 350.1114 354.4647 354.4647
   354.4647 354.6657 354.6657 355.6023 355.6023 355.6023 356.0682 356.0682
   356.0682 356.0714 356.8642 356.8642 356.8642 358.3201 358.3201 358.3201
   358.3696 358.8997 358.8997 358.8997 360.6456 360.6456 360.9053 360.9053
   360.9053 361.3775 365.7812 365.7812 366.1454 366.1454 366.1454 366.8381
   366.8381 366.8381 366.8891 366.8891 366.8891 367.1872 367.2388 367.2388
   367.2388 367.2459 367.2459 367.9088 367.9088 367.9088 368.0155 368.0155
   368.0954 370.2836 370.2836 370.2836 370.3070 370.3070 370.3070 370.4368
   370.4368 370.4368 370.4687 370.4687 370.4687 371.9572 372.0107 372.0107
   372.0107 372.0254 372.0254 379.7366 379.7366 379.7366 384.7591 384.7591
   391.3044 406.3278 406.3278 406.3278 409.3334 410.3593 410.3593 410.3593
   410.3618 411.1765 411.1765 411.1765 411.5686 411.5686 411.5686 411.5744
   411.5744 411.5744 411.6271 411.6271 411.6271 411.8910 411.8910 412.4129
   412.4129 412.4129 413.0345 413.0345 415.1963 415.1963 415.1963 415.3519
   415.3629 415.3629 415.3629 415.4400 415.6886 415.6886 416.7005 416.7005
   416.7005 416.7375 416.7375 416.7375 416.8330 416.8330 416.8330 416.9419
   416.9419 416.9419 423.6059 423.6059 423.6091 423.6091 423.6091 423.6412
   423.6412 423.6412 423.7843 423.7843 423.7843 423.8306 423.8306 423.8306
   423.8771 423.8771 424.4561 424.4561 424.4571 424.4571 424.4571 424.4920
   425.2537 434.5375 434.5375 434.5375 434.7388 434.7388 434.7388 436.1665
   436.1976 436.1976 437.9694 437.9694 437.9694 442.8698 442.8698 442.8698
   445.5762 445.6475 445.6475 445.6475 445.6938 445.6938 446.3479 446.3479
   446.3479 446.3547 446.3547 446.3547 446.4374 446.4374 446.4374 446.4691
   446.4691 446.4691 447.5660 447.5660 448.3935 449.9447 449.9447 449.9447
   454.3227 454.3227 454.3227 455.0573 455.0573 455.5957 455.5957 455.5957
   459.8361 459.8361 459.8361 459.8651 459.8651 459.8651 459.8924 459.8924
   459.8924 459.9050 460.4003 460.8703 460.9359 460.9359 461.4651 461.4651
   461.4651 462.3575 462.3575 462.3575 462.5658 462.5658 462.5658 462.5664
   462.5664 463.6899 463.9185 463.9185 463.9185 464.4930 464.4930 464.4930
   464.7993 468.7401 468.7401 468.7401 470.7784 470.7784 470.7916 470.7916
   470.7916 470.8524 470.8524 470.8524 470.8865 470.8865 470.8865 470.8947
   471.1750 471.1750 471.1750 471.3163 471.3163 471.9749 471.9749 471.9749
   473.4912 473.7478 473.7478 473.7478 473.8191 473.8191 473.8191 474.0285
   474.0285 474.0285 474.0485 474.0485 475.0518 486.2590 486.2590 486.2590
   491.7632 491.7632 492.0906 492.0906 492.0906 492.4399 492.4399 492.4399
   492.4755 492.4787 492.4787 492.4787 492.5565 492.5565 492.5565 492.9362
   492.9362 493.0077 493.0077 493.0077 493.0591 493.6722 493.6722 493.6722
   498.9098 498.9559 498.9559 505.0884 505.0884 505.0884 505.5032 508.1078
   508.1078 508.1078 508.6186 508.6186 508.6369 508.8517 508.8517 508.8517
   508.8858 508.8858 508.8858 509.1400 509.1400 509.1400 511.6925 511.6925
   511.6925 512.1265 512.1265 514.3495 514.3495 514.3495 514.4431 514.4431
   514.4431 514.5846 514.5846 514.5846 514.7284 514.7284 514.7284 514.8250
   514.8250 515.1068 515.1068 515.1068 515.2785 515.2785 515.2785 515.6077
   515.6077 515.6077 515.6595 515.6595 515.6595 515.8221 515.8221 516.5413
   516.5413 516.5413 517.5276 517.7499 517.9614 517.9614 517.9614 518.1734
   518.1734 518.1734 518.3847 518.9071 518.9071 518.9071 519.7350 519.7350
   519.9593 519.9593 519.9593 519.9733 519.9733 519.9733 520.2705 520.2705
   520.2705 520.7460 520.7460 520.7460 521.8890 521.8890 522.9537 523.1003
   523.1291 523.1291 523.1291 523.1417 523.1417 524.8497 524.8497 524.8829
   524.8829 524.8829 524.8883 524.8883 524.8883 524.8964 524.8964 524.8964
   524.9442 524.9442 525.0161 525.0161 525.0161 525.4714 525.4714 525.4714
   525.4727 525.4742 525.4742 525.4742 525.4812 536.1529 536.1529 536.1529
   537.9651 539.9261 539.9261 539.9261 540.1468 548.2352 548.2352 548.2352
   548.3306 548.3306 548.3516 548.3516 548.3516 548.4473 548.4473 548.4473
   548.5000 548.5000 548.5000 548.5221 548.5221 552.0845 552.0845 552.0845
   555.9781 555.9781 555.9781 556.1336 556.1336 556.1336 556.1502 556.1502
   556.1502 556.6926 558.4215 558.4215 558.4215 558.8992 558.8992 560.8693
   560.8693 560.8693 560.9446 561.1286 561.1286 566.9849 566.9985 566.9985
   567.0523 567.0523 567.0523 570.6727 570.6727 570.6727 570.6729 570.6729
   570.6729 570.6737 570.6737 570.6737 570.7008 570.7008 570.7008 572.5091
   572.5106 572.5106 572.5106 572.5119 572.5119 592.0695 592.0695 592.0695
   593.6366 593.6366 593.6366 593.6648 593.7108 593.7482 593.7482 593.7482
   593.8266 593.8266 593.8266 593.8468 593.8468 593.8468 593.9247 593.9247
   595.2124 595.2124 595.6326 595.6326 595.6326 597.6975 597.6975 597.6975
   597.8137 597.8137 597.8137 598.7190 600.4602 600.4602 600.4602 600.6453
   600.6453 603.9844 603.9844 603.9844 606.0118 607.7199 608.8663 608.8663
   608.8663 610.0154 612.0072 612.0072 612.0970 612.0970 612.0970 613.4190
   613.4190 613.4190 613.8705 613.8705 613.8705 613.9874 613.9874 613.9874
   614.0019 614.0019 614.0019 614.0329 614.0329 614.3536 614.3536 614.3536
   614.7855 615.1391 615.1391 615.1391 615.5766 616.5488 616.5488 617.1925
   617.1925 617.1925 617.3857 617.3857 617.3857 617.4350 617.4350 617.4393
   617.4393 617.4393 617.8231 617.8231 617.8231 617.8709 617.8709 617.8709
   618.2320 618.2320 618.4053 618.4053 618.4053 618.6946 618.6946 618.6946
   618.7770 618.8337 618.8337 618.8472 618.8472 618.8472 618.8674 618.8674
   618.8674 619.5239 619.5239 619.6766 620.2484 620.3270 620.3270 620.3270
   620.4080 620.4080 620.4080 620.4634 620.4634 620.4634 621.9832 621.9832
   621.9832 624.6873 624.6873 639.4699 639.4699 639.4699 640.7875 641.4794
   641.4794 641.4794 641.6515 641.6515 641.6515 641.7244 641.7592 641.7592
   641.8997 641.8997 641.8997 641.9047 641.9047 641.9047 642.0585 642.0585
   642.0585 642.0848 642.0848 642.0848 642.4352 642.4352 642.8841 642.8841
   642.8841 643.6436 643.6436 643.6436 643.8242 643.8242 643.8242 643.9371
   646.0273 646.0273 647.7423 647.9329 647.9329 647.9329 648.0209 648.0209
   648.0209 648.0753 648.0753 648.0753 648.0775 648.0775 648.0775 648.1145
   648.1145 648.1541 648.1982 648.1982 648.1982 648.2039 648.2039 648.2039
   649.0074 649.0074 649.0074 649.8173 649.8173 650.3300 650.3300 650.3300
   650.4326 650.6550 650.6550 654.7399 654.7399 654.7399 656.7989 656.7989
   656.7989 657.7697 657.7697 658.0579 658.2762 658.2762 658.2762 658.3109
   658.3109 658.3109 658.4587 658.4587 658.4587 658.5910 660.5959 660.5959
   660.5959 664.2232 664.2232 664.3636 664.4558 664.4558 664.4558 664.7221
   664.7221 664.7511 664.7511 664.7511 664.9928 664.9928 664.9928 665.1649
   665.1649 665.1649 665.4572 665.4641 665.4641 665.4641 665.6946 665.6946
   666.4819 666.4819 666.4819 668.9671 669.1391 669.1391 669.1391 669.5200
   670.0060 670.0060 670.0060 670.1003 670.1003 670.2030 670.2030 670.2030

          k =-0.1667 0.1667-0.1667 (  3656 PWs)   bands (ev):

   -28.7733  -8.7743  -8.4876  -8.4876  -0.3905  10.6251  11.2445  11.2445
    15.3657  15.8051  15.8051  17.5212  18.3944  18.3944  24.5668  31.6040
    32.5206  32.5206  37.0632  37.4961  37.4961  37.7073  37.7073  40.4963
    42.1262  42.1262  46.3610  48.3220  48.3220  48.6242  53.6471  54.0820
    54.0820  56.5253  56.5253  59.3717  59.3717  59.9952  61.2884  61.9087
    62.9848  64.2745  64.2745  65.6661  67.5931  67.5931  69.8981  69.8981
    69.9235  72.1125  72.1125  73.2648  73.3099  74.1145  74.1145  78.1975
    78.9460  78.9460  80.6618  80.6618  80.8460  86.2678  88.6049  88.6049
    90.6846  92.2612  92.2612  96.1567  99.6626  99.6626 101.4010 102.4250
   102.4250 103.0151 103.7626 105.3800 105.3800 107.3144 107.3144 108.0466
   108.0466 110.0449 110.1481 110.1481 110.7494 114.0496 114.0496 114.3993
   116.6808 117.3358 117.3358 117.9961 117.9961 119.5432 120.0661 120.2246
   120.2246 120.7257 120.8618 120.8618 121.8274 124.4508 124.4508 124.7224
   125.8616 127.8797 129.5924 129.5924 129.7089 130.8453 130.8453 132.3219
   132.3219 133.4669 133.4669 134.4768 134.4768 135.7038 135.7038 136.4467
   137.7952 139.3245 139.6824 139.6824 142.4520 142.7784 142.7784 144.3612
   145.7752 146.6091 146.6091 148.6166 151.2082 151.2082 152.4045 153.0703
   153.0703 153.8146 153.8146 154.3763 154.5347 154.5347 154.6694 155.3399
   155.8935 156.2883 156.2883 158.4937 158.4937 160.3434 162.9252 162.9252
   163.0783 164.0154 164.0154 166.3135 168.1019 168.1019 170.7501 170.7501
   171.8709 172.2585 174.7537 174.7537 175.1199 175.4870 175.4870 176.8222
   180.3981 183.9702 183.9702 184.4725 184.4725 184.6149 185.3955 185.3955
   185.5282 186.5212 190.1311 190.4297 190.4297 192.2596 192.2596 192.2944
   193.6705 193.6705 194.7866 197.4495 197.4495 199.6739 199.6739 199.8553
   201.3457 202.1321 202.1321 202.8239 203.4218 203.4218 204.2874 204.6614
   204.6614 205.2873 205.2873 206.3777 206.7058 207.6694 207.6694 208.4758
   209.2965 209.2965 209.3289 211.7612 211.7612 212.2558 212.7470 212.7470
   212.7661 213.5859 213.5859 215.1005 217.0145 217.3618 217.3618 218.5469
   218.8897 218.8897 219.7183 219.7183 220.2211 220.5713 220.5713 221.2371
   221.5732 221.5732 223.3416 223.7416 223.7416 224.0220 225.0827 225.0827
   225.8178 225.9910 225.9910 226.8390 226.8390 227.8298 227.9883 227.9883
   227.9989 228.2595 229.1567 229.1567 229.3110 230.8224 231.1926 231.1926
   232.9150 232.9150 233.3611 235.2570 236.3493 236.3493 237.8117 238.1470
   238.1470 238.2353 238.9047 238.9047 238.9334 239.5903 242.3372 242.3372
   245.1184 245.1184 246.4187 246.4187 248.1580 250.3614 250.4761 250.4761
   251.8117 251.8117 251.8417 252.5411 252.5411 252.8120 253.8132 253.8794
   253.8794 256.3581 256.7192 256.7192 257.9104 257.9104 259.8867 260.7047
   260.7047 260.9897 261.6724 261.8915 261.8915 262.5466 263.3109 263.3109
   263.9043 263.9043 263.9394 265.8778 265.8778 267.0309 270.1168 272.6269
   272.6269 273.0281 273.8039 273.8039 275.3006 275.3006 275.4711 275.9894
   277.0231 277.1323 277.1323 278.0048 278.0048 279.4761 281.8346 283.6006
   283.6006 284.8373 284.8373 285.0575 285.5379 285.5379 285.5678 286.9926
   286.9926 287.1656 291.0785 293.8123 293.8123 294.3339 295.1014 295.1014
   296.8673 296.8673 296.8829 297.3531 297.3531 297.3710 297.8223 298.4899
   298.4899 298.8760 299.7121 299.7121 300.1337 300.5654 300.5654 300.8049
   300.8049 301.2506 301.3168 301.3168 304.1157 304.9385 304.9385 309.1774
   309.1781 309.1781 309.5528 312.8118 312.8118 314.2860 315.0853 315.0853
   315.1587 317.0916 317.5126 317.5126 318.1943 318.1943 318.3972 318.4829
   318.4898 318.4898 318.9642 319.0641 319.0641 320.8124 321.3750 321.3750
   322.8675 322.8675 322.9455 322.9835 323.2637 323.2637 324.9021 324.9021
   325.4729 325.6103 327.9426 328.6257 328.6257 329.1419 329.3006 329.3006
   329.3340 329.3480 329.3480 330.0196 333.1209 333.1209 334.0420 336.4279
   336.5435 336.5435 336.6872 336.6872 337.6016 337.6016 337.6849 337.9614
   337.9614 337.9701 338.3134 338.3134 338.9058 339.2760 339.6449 339.6449
   340.1358 340.7222 340.7222 340.9227 340.9721 340.9721 341.0952 341.0952
   341.1855 342.9992 342.9992 343.1996 343.3623 343.3623 346.5947 346.5947
   346.5970 347.1058 347.1058 348.0003 348.3078 348.7027 348.9106 348.9106
   349.1292 349.3907 349.3907 349.7299 349.7299 352.0357 352.0357 352.1524
   352.2969 352.6836 352.7588 352.7588 353.8172 353.8923 353.8923 356.6746
   356.6746 357.7310 359.6836 359.6836 360.4756 360.6778 360.6778 360.8986
   361.1364 361.1364 361.4277 361.8877 362.4547 362.4547 363.8778 364.0730
   364.0730 364.1159 364.6370 364.6370 365.2775 365.2959 365.2959 365.5252
   366.7128 366.7128 367.2061 367.2061 367.2525 368.0422 368.0422 370.4757
   372.6244 372.6244 373.5099 373.5099 373.8153 375.0987 375.5305 375.5305
   377.3727 377.4022 377.4022 378.1733 378.7958 379.4624 379.4624 380.6061
   380.6061 380.7618 381.8367 381.9276 381.9276 382.3681 383.8575 385.2151
   385.2151 388.9016 389.7420 389.7420 390.3467 393.0387 393.0387 393.3372
   393.7293 393.7293 394.6853 395.0115 395.0115 395.7207 395.7207 396.8603
   396.8603 397.0963 397.2663 397.9740 397.9740 398.3584 398.3584 399.5861
   399.5861 399.6290 400.3576 402.4279 402.4279 403.2568 403.6256 403.6256
   408.3947 409.6822 409.6822 409.8018 410.6299 410.6299 410.8557 411.0270
   411.0270 411.5593 411.5929 411.5929 411.6302 413.3815 413.3815 413.6422
   418.6233 418.6233 420.0221 420.3443 420.5751 420.5751 422.1957 422.1957
   422.7827 425.5019 426.2979 426.2979 426.3895 426.9428 426.9428 427.4386
   428.0139 428.0139 429.3612 429.3612 430.1841 430.1912 430.3395 430.3395
   430.8069 430.8069 431.0368 431.9775 431.9968 431.9968 432.5089 433.1875
   433.1875 434.5127 434.7333 434.9019 434.9019 435.0936 435.1083 435.1083
   435.9973 436.2839 436.2839 436.5977 436.5977 436.8564 437.1833 437.5419
   437.5419 438.0710 438.0710 438.3824 438.4101 438.4101 439.3015 440.0849
   440.0849 440.4367 442.5946 443.2965 443.2965 443.3563 445.1588 445.1588
   445.3045 446.6786 446.6786 446.7283 447.1692 447.1692 451.6113 451.8859
   451.8859 452.9042 453.1461 453.1562 453.1562 453.3313 453.3313 454.0032
   454.0032 455.6967 455.7737 455.7737 456.1970 460.3985 460.3985 461.1097
   461.4796 461.4800 461.4800 461.7307 461.9336 461.9336 462.0371 462.0371
   462.0590 462.6192 462.8139 462.8139 463.2725 463.4049 463.4049 463.6767
   463.8054 463.8054 466.9788 466.9788 466.9793 468.2390 468.2390 468.3282
   468.6014 468.6014 468.8138 468.9372 468.9372 469.1273 470.3463 471.6478
   471.6478 471.8895 471.8895 472.5117 473.1510 473.1515 473.1515 473.3090
   473.5327 473.5327 474.8947 474.8947 475.3806 476.8797 477.4078 477.4078
   477.5996 477.6928 477.6928 477.7565 478.7856 478.7856 480.2407 480.2407
   481.7073 484.7280 484.7280 484.9188 484.9188 484.9486 485.0401 485.1798
   485.1798 485.7881 485.8245 485.8245 487.6578 487.8765 487.8765 488.3511
   489.7212 490.5608 490.5608 490.6586 491.8536 491.8536 493.6285 494.2922
   494.2922 494.4183 494.7469 494.7469 495.8054 495.8054 495.8064 495.9254
   496.1633 496.1633 496.4681 496.4758 496.4758 496.7616 496.8310 496.8310
   496.8707 498.9248 498.9248 499.4803 500.9589 500.9589 501.3178 501.4974
   501.6234 501.6234 501.8820 501.8820 502.0908 502.1468 502.1468 502.5952
   503.0093 503.0093 503.1120 503.5400 503.7610 503.7610 505.1657 505.6883
   505.6883 505.8533 508.1218 508.1218 508.8248 509.9303 510.2346 510.2346
   511.1168 511.1530 511.1530 511.6485 511.6485 511.8592 512.4718 512.4718
   512.7477 515.4413 515.4413 515.6006 515.6112 515.6112 515.6706 515.6706
   516.2366 516.6018 516.6018 517.0797 518.1170 518.3265 518.3265 518.5560
   519.2040 519.2040 521.0517 521.0517 521.0799 522.6296 523.2496 523.2496
   523.8818 523.8818 524.1390 524.5431 525.1779 525.1779 526.0202 526.0202
   526.3940 529.4063 529.4226 529.4300 529.4300 530.5566 530.5566 531.3264
   531.6416 531.6416 533.3388 533.3388 533.5067 533.5722 533.7568 533.7568
   533.7766 533.7766 533.9986 534.2714 534.3208 534.3208 534.6892 535.0442
   535.0442 535.7686 535.7686 535.8399 536.9250 536.9250 537.0558 540.0260
   540.3171 540.3171 540.6220 540.7276 540.7276 542.3366 542.3366 542.4849
   543.3101 543.4368 543.4368 544.0831 544.0831 544.1320 544.3887 544.7095
   544.7095 544.8041 544.8446 544.8446 545.9241 545.9241 546.2080 546.4788
   546.4788 548.0022 548.4486 548.4678 548.4678 549.3090 549.4437 549.7352
   549.7352 550.4863 550.4863 554.8697 554.8697 555.7222 556.7955 556.8375
   556.8375 557.3290 557.3290 557.3290 560.3413 560.3413 560.3448 561.3136
   561.3136 561.6795 563.9584 563.9759 563.9759 567.7811 567.8905 567.8905
   569.8821 571.0550 571.0550 571.5208 571.6823 572.3798 572.4904 572.4904
   577.4434 577.6113 578.0605 578.0605 578.8804 578.8804 580.0271 580.0271
   580.0975 581.4265 581.4265 581.9549 581.9988 581.9988 582.6721 582.6721
   583.2233 583.9428 583.9428 584.4942 584.5742 584.5742 586.0407 586.0407
   586.0615 586.1096 586.1096 587.6438 588.7609 588.7609 589.0449 590.1595
   590.6090 590.6090 591.5699 591.7732 591.7732 593.7130 594.2225 594.2225
   594.3406 594.3690 594.3690 594.8815 594.9383 594.9383 595.4758 595.4758
   595.5300 596.0064 596.8100 596.8100 597.1376 597.4956 597.4956 597.7423
   597.9474 597.9483 597.9483 599.0630 599.0630 602.6491 603.4792 603.4792
   603.4924 604.1905 604.1905 607.7960 607.7960 609.0024 609.7176 609.7176
   610.0020 610.1406 610.1406 610.9160 610.9662 611.6055 611.6055 611.8606
   612.3687 612.3687 613.8042 613.8042 615.4204 615.4717 615.4887 615.4887
   615.6456 615.6456 615.6830 616.4492 617.5087 617.5087 617.9639 618.2041
   618.2041 618.3914 619.1020 619.1020 619.1486 619.7354 619.7354 619.8826
   619.9473 619.9473 620.0473 620.4856 620.4856 621.6097 621.6097 621.8277
   623.0865 623.0865 623.1410 623.1422 623.3012 623.3257 623.3257 623.6786
   623.6786 624.7471 625.1723 625.4505 625.4505 627.2908 627.2908 627.9690
   627.9690 628.2547 628.6217 628.6217 628.8687 629.3981 629.5181 629.5181
   630.0332 630.0332 630.5019 630.7654 630.9626 630.9626 631.5270 631.5659
   631.5659 631.6944 631.9062 632.5522 632.5522 633.6410 633.6410 634.1170
   634.4449 634.6450 634.6747 634.6747 636.7917 636.7917 637.1314 637.4807
   638.3776 638.3776 639.1388 639.1388 640.9873 641.6286 641.6286 641.7727
   642.1437 642.1437 642.2358 643.4853 643.7007 643.7007 643.9184 644.1410
   644.1410 644.5570 644.6751 644.6751 645.3614 645.4582 645.4582 646.0411
   646.0411 646.5842 646.7886 646.7886 646.8468 647.1502 647.5499 647.5499
   647.9671 647.9671 648.9256 648.9594 648.9594 649.2091 649.2091 649.3563
   649.6672 650.0047 650.1777 650.1777 650.8004 650.8004 651.6319 651.7236
   651.7939 652.2284 652.2284 652.8854 652.8854 653.8138 653.8138 654.9872
   655.5390 655.6070 655.6070 656.1083 656.1083 657.5059 657.5059 657.6858
   658.9602 659.0772 659.0772 659.4215 659.4215 659.4262 659.4831 659.9527
   659.9527 660.3641 661.5727 661.5727 661.8793 662.4473 662.4473 663.0544
   663.0544 663.1771 663.1788 663.5479 663.5479 665.5837 665.5837 666.2377
   666.6197 666.6608 666.6608 666.6952 668.5185 669.4349 669.4349 669.9074
   669.9074 671.8657 671.8867 671.8867 671.9250 672.7470 672.7470 672.9997
   673.6096 673.6096 674.1123 674.1123 674.2437 675.0172 675.0172 675.8078

          k =-0.3333 0.3333-0.3333 (  3675 PWs)   bands (ev):

   -28.7148  -9.3213  -8.5288  -8.5288   0.4610   8.7565  10.1940  10.1940
    16.2889  17.3163  17.3163  19.1975  20.7155  20.7155  26.0087  28.2024
    28.2024  30.7256  34.7640  35.8856  35.8856  38.7415  38.7415  41.2370
    42.5433  42.5433  47.2617  48.4900  49.1724  49.1724  52.3823  53.8004
    53.8004  54.9255  54.9255  56.6695  57.3936  60.1340  61.9275  61.9275
    63.1665  63.1665  64.4225  65.7454  65.7454  67.9582  70.0563  71.3545
    71.3545  76.2839  76.2839  77.5998  78.5663  78.5663  78.8454  79.0951
    79.0951  80.7783  82.3540  82.3540  82.6954  87.1483  90.7339  90.7449
    90.7449  92.9144  92.9144  94.0917  94.0917  95.1274  96.5728  96.5728
    97.7377  97.9490 100.5157 100.5157 102.9897 102.9897 104.1231 105.2442
   105.2827 105.2827 109.0844 109.6572 109.6572 110.5703 115.4735 115.4735
   116.7118 116.7118 117.2700 117.2700 117.3429 117.5835 118.9157 119.9080
   119.9080 122.9647 122.9647 123.1295 123.7613 126.1416 126.1416 127.9402
   128.9138 128.9661 128.9661 130.0400 130.0400 131.1635 131.1649 131.1649
   131.4578 132.8719 133.2814 133.2814 139.1427 140.8987 141.5109 141.5109
   142.0047 143.3562 143.3562 143.7695 143.7695 144.3933 145.2635 145.2635
   145.9729 147.2129 147.2129 147.3583 148.7612 148.7612 149.1116 149.5598
   149.5598 149.8082 153.0211 153.0211 154.8044 154.9564 154.9564 156.9886
   156.9886 157.0657 160.9846 161.7738 161.7738 163.3303 163.7340 163.7340
   165.6375 165.8963 166.0303 166.0303 171.2740 171.2740 172.6552 174.9230
   174.9230 175.1962 176.6612 176.6612 177.4328 179.2478 181.0931 181.0931
   181.4820 181.4820 181.7828 183.5129 184.6660 184.6660 184.6736 185.5381
   185.5381 186.0262 186.0262 186.7387 187.5964 187.5964 187.8394 187.8837
   187.8837 190.1174 190.1174 190.6625 190.8724 192.9118 192.9118 194.0905
   194.3670 194.3670 196.2178 198.6311 198.6311 198.7965 199.4731 199.4731
   201.5366 201.5366 202.0364 202.5112 205.6777 207.4512 208.1402 208.1402
   209.2633 210.0827 210.0827 211.4018 211.4018 212.0886 212.0886 212.8374
   213.0786 213.9764 214.2524 214.2786 214.2786 215.7208 215.7208 216.5150
   216.5150 216.6553 218.3163 218.6916 218.6916 219.8134 220.8098 220.8098
   221.4751 221.4751 224.2224 224.2224 224.6908 225.0740 226.4400 226.8716
   226.8716 228.0910 228.0910 228.2919 228.8791 229.8098 229.8098 231.1775
   231.2977 231.2977 232.3490 232.8636 232.8636 233.2276 233.2276 235.0821
   235.2576 235.2576 236.3187 239.2210 239.2210 239.4950 241.2900 241.2900
   241.4723 243.3173 243.3173 244.3938 244.4067 244.4067 244.5169 244.5226
   246.7851 246.9598 246.9598 247.6258 247.6258 250.7925 250.7925 250.9661
   251.0563 251.7169 253.3407 253.3407 256.4075 257.0283 257.0283 257.6326
   257.6326 258.6169 258.6169 259.2337 259.3666 261.0931 261.0931 261.2331
   261.7541 262.0632 262.1780 262.1780 262.7936 262.7936 263.4478 264.3369
   264.3369 267.1690 267.1690 267.4118 268.4022 268.4022 271.0139 273.8572
   274.9915 274.9915 275.2573 275.2573 277.8732 278.3324 278.3324 278.6174
   279.2761 279.2761 280.0444 280.3431 280.3431 280.8734 280.8734 280.9800
   281.6198 282.7323 282.7323 283.3265 283.6826 283.6826 284.5782 285.3243
   285.3243 286.7526 286.8318 286.9155 286.9155 287.6547 287.6547 287.8050
   291.7573 294.6963 294.6963 296.5652 296.5652 297.4717 297.5652 297.8440
   297.8440 298.1822 298.6366 298.6366 299.0960 299.0960 299.1850 299.2047
   300.1463 300.1463 300.7443 300.7443 302.2193 302.3594 304.2665 304.5397
   304.5397 309.6862 310.0579 310.0579 310.2831 310.2831 311.9119 312.6236
   312.6236 313.0150 313.0150 313.0295 313.0448 313.5338 313.5338 314.5269
   314.5560 314.8471 314.8471 316.3337 316.3337 317.1243 317.2533 317.2533
   318.8109 318.8109 319.6187 319.6187 319.6572 320.8234 320.8234 320.9808
   321.0115 321.4956 321.4956 322.8093 325.3289 325.3289 327.7216 327.7216
   327.8874 328.3319 329.6533 329.6533 330.4102 330.4102 330.6620 331.1088
   331.4736 331.4736 331.7310 331.7310 331.8834 332.7662 335.0379 335.0379
   336.7103 339.9137 339.9137 339.9799 340.2977 340.2977 340.6243 342.1034
   342.1034 342.4820 342.5124 342.5277 342.5277 343.2834 343.2834 344.1330
   344.7766 344.7766 345.1525 345.4666 345.6467 345.6467 345.9151 348.8878
   348.8878 348.9680 349.6091 349.6091 350.0744 350.2285 350.2285 350.6617
   352.2870 352.2870 352.4080 354.0859 354.0859 354.7120 355.0606 356.8826
   356.8826 356.9590 357.2431 357.3304 357.3304 358.3681 358.3681 358.7581
   358.7581 358.7750 359.3810 359.3810 359.9907 361.5896 361.6903 361.6903
   362.0729 362.1388 362.1388 363.2596 364.2330 364.2330 364.3240 364.4410
   364.4410 366.2102 367.9542 367.9542 370.0514 370.0514 373.2557 373.4154
   373.4154 374.0861 376.8251 377.0103 377.0103 377.2070 377.2070 378.4552
   378.8442 378.8442 379.7401 379.7778 379.7778 379.9077 381.4594 381.4594
   381.6314 383.5857 383.5954 383.5954 384.2093 384.8632 384.8632 385.4806
   385.5012 385.5012 386.6708 387.0552 387.0552 388.0559 388.0688 388.0688
   389.2759 389.2759 389.6508 389.8083 389.8083 390.0312 392.1882 392.5155
   392.5155 392.9372 393.2891 393.2891 395.6841 395.6841 396.1829 397.6585
   397.7292 397.8707 397.8707 398.2713 398.2713 399.2343 399.2343 400.0519
   400.0981 400.0981 400.1701 400.4854 400.4854 400.5574 401.6639 401.6639
   402.8869 403.0552 405.2340 405.2340 406.0595 410.2042 410.2042 410.4762
   410.5436 410.5436 410.5572 410.9486 411.9852 411.9852 412.4674 412.6376
   412.6376 412.7864 412.9726 412.9726 414.3672 414.3672 414.7516 415.4191
   415.4530 415.4530 415.4787 416.8880 416.8880 417.0687 417.0687 417.1396
   419.8207 420.4945 420.6961 420.6961 421.2857 421.2857 422.7080 423.4803
   423.4803 424.2647 424.2647 424.2915 426.3545 426.3545 429.0014 431.5720
   431.5720 431.7708 431.8056 431.8056 432.8145 434.4507 434.9872 434.9872
   437.4128 437.4837 437.4837 439.5182 439.5182 441.3104 441.9331 441.9331
   442.0526 442.4309 442.6392 442.6392 443.9905 444.2481 444.2481 444.5773
   444.5773 444.7346 444.8549 445.5005 445.5005 446.0052 446.0052 446.3280
   447.0105 447.2427 447.2427 448.5966 449.3613 449.3613 449.8929 449.8929
   450.6645 451.1021 451.1021 452.0769 452.1477 452.1477 453.0344 454.2017
   454.9555 454.9555 455.7219 455.7219 458.2244 458.2864 458.2864 459.3056
   460.7060 460.7284 460.7284 460.8361 460.8361 461.1182 462.6690 463.5362
   463.5362 464.0888 464.0888 464.4180 465.0016 465.0022 465.0022 465.2623
   465.4419 465.4419 465.9138 465.9138 466.6782 467.1824 467.1824 467.5776
   467.6659 467.6659 468.4838 468.4838 468.6343 468.7455 468.7455 468.8040
   469.4466 471.9967 473.2736 474.0410 474.0410 475.4761 475.7071 475.9066
   475.9066 476.7234 476.7234 477.3694 477.3694 477.5821 477.8931 478.4627
   478.4627 478.6760 478.6760 478.7938 478.8759 479.1634 479.1634 479.4115
   479.4115 479.4552 479.4634 481.0631 481.5294 481.5294 482.0413 482.0413
   482.3073 482.3073 482.3077 482.9064 483.6737 483.6737 483.8063 483.8063
   483.8697 483.8697 483.9630 484.0785 484.0785 484.4521 484.4521 484.4914
   484.7619 486.0165 486.0165 486.1989 488.3967 488.4170 488.4170 490.7701
   490.7736 490.7736 493.5591 493.5591 493.6695 494.0593 494.2047 494.2047
   497.3404 498.0561 498.0561 499.5850 499.5850 500.6007 500.6007 500.6404
   500.6525 502.3395 504.2803 504.2803 506.5720 506.5720 507.3020 508.1046
   508.2526 508.2526 509.1175 509.1175 509.8457 509.9133 509.9133 510.4177
   510.4177 510.4583 510.4989 510.9234 510.9234 511.2192 511.5564 512.0857
   512.1963 512.1963 512.6983 512.6983 513.5938 513.5938 514.7734 514.9796
   514.9796 514.9836 516.1087 516.2833 516.2833 517.5342 517.5342 518.9765
   520.8055 520.8055 521.0437 521.8734 521.8734 522.1148 523.0616 523.2501
   523.2501 523.7898 523.8501 523.8501 524.5285 524.5285 524.5425 526.3860
   526.3860 526.5652 528.0315 528.3814 529.3246 529.3246 530.3555 530.3555
   530.4272 530.7919 530.8202 530.8202 532.0745 532.1506 532.1506 533.2639
   533.2639 533.4261 533.9193 533.9193 533.9778 534.3489 534.4540 534.4540
   535.1223 535.4562 535.4562 535.7943 535.8979 535.9865 535.9865 536.9233
   536.9233 538.1029 542.4091 542.4091 543.2773 543.9836 544.1066 544.4376
   544.4376 545.5987 545.5987 546.1805 546.2590 546.2590 547.9685 547.9685
   548.3474 548.3474 548.5888 548.7222 548.7222 548.8504 550.4332 550.6188
   550.6188 550.6217 551.6377 551.6377 552.5617 552.8525 552.8525 554.0340
   554.0340 554.0817 554.2640 554.4690 554.4690 556.0428 556.0428 556.1229
   558.2547 558.2547 558.5715 560.2864 560.7381 560.7381 562.0506 562.8465
   562.8465 563.1571 563.1986 563.1986 563.5110 564.0642 564.0642 564.1578
   564.5902 564.5902 565.7085 565.7618 565.7618 566.4173 566.4173 566.5642
   566.7757 566.7757 566.7816 567.4406 567.4660 567.4660 568.2510 569.6489
   569.6489 573.0030 573.6102 573.6102 577.3304 578.0539 578.0539 578.5340
   578.5340 579.0248 579.1142 579.1142 579.2552 579.3148 579.3148 579.7538
   581.2352 581.2420 581.2420 581.6714 581.7650 581.9522 581.9522 582.4445
   582.4445 583.0110 583.0110 583.4001 583.9747 584.2388 584.2388 585.5037
   585.9966 585.9966 586.1846 586.1846 587.3792 590.2685 590.3085 590.3085
   592.8980 594.4103 594.4103 594.5886 594.5886 594.6597 594.8519 594.8519
   595.0349 595.2671 595.9079 596.0267 596.0267 596.5592 596.5592 596.9276
   597.0034 597.3553 597.3553 597.6211 597.6398 597.8500 597.8500 598.2635
   598.2635 598.2882 598.7899 598.7899 598.9470 599.3322 599.3322 600.2290
   601.1142 601.1142 601.7498 601.7498 601.7933 603.4046 603.4046 603.7341
   604.6286 604.6286 604.8329 605.2564 606.0908 606.2498 606.2498 608.1648
   608.1648 608.6543 609.3454 609.6894 609.6894 610.4123 610.4123 611.9296
   612.9852 612.9852 613.2440 613.7851 613.7851 614.8039 614.9589 615.1402
   615.1402 615.4951 615.4951 615.5804 615.7356 615.8074 615.8074 616.8997
   617.0872 617.0872 617.4883 617.4883 621.0108 621.0108 621.2359 621.2406
   621.2406 621.2437 621.3718 621.4276 621.4276 621.6424 622.1451 622.1451
   625.6941 625.6941 625.7967 625.8308 625.8308 626.6888 627.3314 627.7726
   627.7726 628.4652 628.7894 628.7894 629.5072 629.6904 629.6904 629.7026
   629.9684 630.0189 630.0189 630.8450 630.8450 631.4608 631.6158 632.0554
   632.0554 632.6989 632.7817 632.7817 632.8225 632.9383 632.9383 633.8419
   633.8419 639.8849 639.8849 640.7937 641.0436 641.0436 641.3708 641.5721
   642.9681 642.9681 643.2193 643.2193 643.6408 644.2274 645.2717 645.2717
   645.9817 645.9817 646.1691 646.7677 646.7893 646.7893 647.2246 647.3439
   647.4817 647.4817 647.8528 648.3260 648.3260 648.4305 648.4305 648.5250
   648.5250 648.5797 648.9047 648.9916 648.9916 649.4708 649.6987 649.6987
   651.1599 652.6288 652.6288 652.9743 652.9743 654.3306 654.4459 654.6004
   654.6004 654.9158 655.1588 655.1588 655.3175 655.4438 655.4438 655.4898
   657.0977 657.0977 657.5099 657.5747 657.5747 657.6728 657.7869 657.7869
   659.9857 659.9857 660.4657 660.5767 661.7104 661.9816 661.9816 662.3617
   662.3617 663.7082 663.7082 664.1296 664.3870 665.6214 665.6214 666.0115
   666.0115 666.8773 668.6408 668.8623 669.4687 669.4687 672.0381 672.0381
   672.8633 674.1148 674.1148 674.9352 675.5553 675.7577 675.7577 676.8081
   676.8081 677.8695 678.3434 678.3560 678.3560 678.6085 678.9911 678.9911
   679.4039 679.4039 679.4956 679.5627 679.6485 679.6485 679.8633 679.8633

          k = 0.5000-0.5000 0.5000 (  3648 PWs)   bands (ev):

   -28.6852  -9.5693  -8.5491  -8.5491   0.8952   7.9743   9.7893   9.7893
    17.6912  18.3704  18.3704  18.7533  22.1438  22.1438  25.8019  25.8019
    25.8792  31.9411  34.6826  34.9835  34.9835  39.2970  39.2970  40.0849
    43.5766  43.5766  46.6253  47.1719  47.1719  47.8695  51.1059  52.7275
    52.7275  55.6622  55.6622  55.7812  58.7832  59.2304  63.3024  63.3024
    65.0834  65.0834  66.8763  67.4795  68.8176  68.8176  69.5595  69.5595
    70.5256  70.5256  71.7783  74.2824  79.5564  83.4099  83.7663  83.7663
    85.0489  85.0489  86.1229  86.1229  86.4547  86.4547  87.2660  87.2660
    88.6271  88.7059  89.7119  89.7333  90.1652  90.1652  96.9235  97.6297
   100.5157 100.5157 101.7849 101.7849 102.2547 102.2547 103.1965 103.6504
   104.2446 104.2446 105.9157 105.9157 110.7058 113.1269 113.1269 113.2311
   113.7512 114.5858 114.5858 115.8776 115.8776 116.6297 118.4588 118.8342
   118.8342 120.4387 123.9809 123.9809 125.1975 126.0867 127.8006 127.8006
   128.2856 128.2856 128.5334 129.4967 132.2849 132.2849 134.4076 134.4076
   134.5015 135.2114 137.2399 137.2399 137.3248 138.4377 138.4377 139.1290
   140.9900 140.9900 142.5496 142.5496 143.8297 145.1371 145.1371 146.8183
   146.8446 148.4584 149.3748 149.3748 151.9342 151.9342 152.7100 152.7100
   153.0104 153.7339 155.3531 156.3058 156.3058 157.0961 157.5625 157.5625
   157.6818 161.2047 161.2047 161.7027 161.7027 163.9346 164.2164 164.2288
   164.6745 164.6745 165.3797 165.3797 168.8849 168.8849 172.7311 173.1234
   173.1234 173.7868 173.7868 173.8010 176.5047 176.5047 176.7146 177.2762
   177.3665 177.3665 178.2271 178.2271 179.4181 183.1167 183.5191 183.5191
   186.1159 186.5011 187.1597 187.1597 187.5217 187.5217 189.8580 190.5450
   192.8009 192.8009 193.6668 194.8674 196.0650 196.0650 197.1282 197.1282
   198.0172 198.0172 198.6050 199.6951 199.8808 199.8808 200.0185 200.0185
   200.3974 200.4211 200.5348 200.5348 200.9718 201.7074 201.7074 201.8162
   201.8162 205.2748 207.1202 207.6621 207.6621 211.1753 211.1753 212.4513
   212.4921 213.5406 213.5516 213.6824 213.6824 214.6925 214.6925 215.3381
   215.3381 215.5432 215.5432 216.3975 216.3975 216.6742 220.5232 220.5232
   221.1911 221.7742 222.5600 222.9895 225.2148 225.2148 225.7377 225.7377
   226.2331 226.8767 228.4702 228.4702 230.4218 232.7445 233.0295 233.0295
   235.0449 235.6760 235.6760 235.8094 236.2142 236.2257 236.2257 237.0454
   237.0454 238.4995 238.9148 238.9148 238.9407 238.9407 240.3650 240.3650
   241.8611 241.9343 241.9343 242.2276 242.2276 242.2724 242.3814 243.4381
   245.3638 245.3638 245.4078 250.8093 250.8093 254.0384 256.2576 256.2576
   257.3603 257.7080 257.7080 260.3037 260.6081 260.6081 260.8345 260.9360
   260.9360 261.0011 261.0011 261.3976 261.4568 261.8269 261.8286 262.3454
   262.3454 262.9344 262.9344 263.5130 263.5130 266.3113 269.2633 269.2633
   269.9438 271.3024 272.1035 272.1035 272.2209 272.6141 272.6141 273.3118
   273.3118 273.4181 273.8576 273.8576 273.9342 273.9485 273.9485 274.6501
   274.7452 274.9695 274.9695 275.5396 275.5396 276.9669 277.7587 278.1535
   278.1535 278.1566 278.1566 280.2140 280.2148 284.9503 289.2894 289.2894
   289.3177 289.3177 289.3769 289.5676 289.5691 289.5691 290.3800 290.3800
   292.4528 293.3842 293.3842 294.7154 294.7154 294.7313 295.1736 295.1736
   296.3902 296.4292 296.4876 296.4876 296.8099 296.8099 298.4785 298.8138
   298.8138 298.9644 298.9657 298.9657 299.0918 299.2230 300.7268 300.7268
   301.5906 301.5906 301.9206 301.9988 301.9988 302.6569 305.6561 305.6561
   312.3000 312.3733 312.3733 312.7124 313.6789 313.7789 313.7789 313.8785
   313.8785 314.3098 314.3098 314.3313 314.3313 314.5083 314.5361 317.1730
   321.7372 321.7372 321.7775 321.9715 322.3873 322.3873 322.6280 322.6280
   323.0442 323.8442 323.8442 325.6867 326.3603 327.2488 327.3219 327.3219
   327.3613 327.3613 327.4271 329.2481 329.4423 329.4423 331.8076 332.3858
   332.4365 332.4365 332.8647 334.2744 334.2744 334.2753 334.2753 334.6155
   334.6155 335.9704 336.2523 336.2523 336.5139 336.5139 336.8687 336.8687
   336.9137 337.2451 337.7014 342.0701 342.0701 342.0963 342.0963 343.7361
   344.0819 344.0819 344.5164 344.5164 344.8108 347.9059 350.0640 350.3469
   350.3469 350.3625 350.3625 350.5167 350.8347 350.8347 350.8843 350.8843
   350.9865 354.5417 355.7445 355.7874 355.7874 355.9570 355.9570 356.0142
   357.3854 359.6137 359.6137 359.6991 359.6991 361.1222 361.1222 361.1856
   361.5468 361.5468 362.1373 362.1745 363.9346 364.0634 364.0634 364.4336
   364.6285 364.6285 368.9032 372.5038 372.5038 372.8866 373.0629 373.0629
   373.3806 373.3806 373.4693 373.4762 373.5122 373.6447 373.7303 373.7303
   374.6468 374.6468 377.1217 377.1217 377.2412 377.3601 377.3856 377.3856
   377.7772 380.5320 380.5320 381.5591 381.5591 381.6984 382.1497 382.2094
   382.2094 383.7206 383.7206 383.8953 383.9899 384.3624 384.3624 386.3450
   386.4657 386.5669 386.5726 386.5726 386.7481 386.7481 386.9061 387.0027
   387.0027 387.0116 387.1297 387.1297 387.1365 388.0038 388.0038 388.0804
   388.0804 390.4173 390.4173 390.5190 390.5190 390.5229 390.6243 394.2625
   398.4727 398.5308 398.6372 398.6372 398.9612 398.9612 400.6973 400.8341
   400.8341 401.1328 401.1328 401.5928 401.5988 401.6760 401.6760 401.7287
   401.7287 402.8024 403.4566 403.4566 403.4669 403.4669 403.5153 403.5219
   410.8345 410.8345 410.8973 410.9360 411.0941 411.0941 411.5880 412.3410
   412.3410 413.2421 413.2421 414.2967 416.4966 417.2033 419.5882 419.5882
   419.6154 419.6154 420.5427 420.8147 420.8147 422.0624 422.0624 422.2309
   422.2309 422.2408 422.2479 422.2734 422.2734 422.6831 424.2707 424.2707
   425.3352 425.3352 425.6273 426.6565 427.4032 427.4032 427.4058 427.4058
   429.8344 429.8351 431.7555 432.4774 432.4774 434.2886 434.2886 434.7027
   435.3096 435.3096 435.6203 435.6976 436.2751 436.2883 436.2883 436.3737
   436.6716 436.6716 437.3171 437.3171 437.4077 437.4077 438.2005 439.4008
   439.4008 442.1023 442.1023 442.1093 442.1093 442.3391 442.3401 442.5190
   443.5741 444.5268 448.0972 448.0972 449.9984 450.1031 450.1031 453.0691
   453.0785 453.0785 453.0966 453.0966 456.5830 456.5830 456.6021 456.9357
   457.9949 457.9949 458.3647 458.5772 458.5772 458.8972 459.1208 459.1208
   459.8904 459.8904 460.1153 460.2298 460.2298 460.2476 460.5791 460.9376
   460.9376 461.1687 461.1687 461.3499 462.3103 462.4694 462.4694 462.7851
   462.8519 462.8519 462.8778 462.8778 463.1290 463.5490 463.5490 465.0486
   465.2378 465.2378 465.6944 465.7273 465.7273 466.4206 466.8447 466.9434
   466.9434 466.9833 466.9833 467.2489 469.1929 469.1929 470.0750 470.0750
   470.1457 472.6692 474.1912 474.1912 474.4570 474.5923 474.9915 474.9915
   477.3312 477.3808 477.3808 477.4084 477.4398 477.4398 479.6839 481.7146
   481.7146 482.5517 482.5517 483.5638 484.8104 484.8104 484.9363 484.9363
   485.0056 485.4512 485.8682 485.9304 485.9304 486.4480 486.7485 486.7485
   487.1176 487.1176 487.2007 487.2078 487.2607 487.2607 490.7395 490.8569
   490.8569 491.0479 491.0479 491.3705 491.4037 491.4037 491.8678 491.8678
   491.8683 492.7132 496.7075 497.8218 497.8218 497.8622 498.1146 498.1146
   498.2684 498.2684 498.4988 498.4988 499.2958 499.6408 501.5905 501.5996
   501.5996 501.9214 501.9796 501.9926 501.9972 501.9972 502.0713 502.0713
   502.6080 502.6080 503.4366 506.6158 508.3470 508.3470 508.4259 509.4113
   509.6370 509.6370 512.9808 512.9808 513.9632 514.9523 514.9628 514.9628
   514.9981 515.0588 515.0588 515.1313 515.1313 515.7655 515.7655 516.3497
   516.7755 516.7755 518.0982 518.0982 520.9067 520.9067 521.6351 522.2117
   522.2371 522.2569 522.2569 522.4418 522.9422 522.9422 522.9961 523.0179
   523.0179 523.4074 523.5867 524.3995 524.3995 525.6612 525.6612 525.7261
   525.7261 526.2904 528.2021 528.2280 528.2280 528.2399 528.4117 528.4117
   530.1448 532.0569 532.0569 532.7722 532.7722 533.7610 536.6558 536.6575
   536.7015 536.7015 536.7413 536.7413 536.9681 537.2476 537.2476 537.2969
   537.3909 537.3909 537.5281 537.9769 537.9769 538.0844 538.0844 539.2827
   542.2934 542.2934 542.2954 542.2955 542.2955 542.2993 546.2292 547.8556
   547.8556 548.1663 548.2169 548.2169 548.3520 548.3520 548.4807 548.4902
   548.6912 548.6912 549.0450 549.0450 549.0498 549.2215 549.2215 549.3021
   550.7693 551.0182 551.0182 551.5319 552.2090 552.2090 553.6290 553.6290
   553.6383 553.6390 553.8450 553.8450 559.3748 561.5482 562.2952 562.7007
   562.7007 562.8426 562.8449 562.9774 562.9774 563.1266 563.1266 563.1314
   563.4663 563.4663 563.4881 563.4881 564.2225 564.2242 564.2242 564.5423
   569.5786 569.5786 569.9514 570.2333 570.2333 570.5699 571.3556 571.4718
   571.4718 571.6638 571.6638 571.8042 571.8055 571.9106 572.1351 572.1351
   572.5493 572.5493 572.6130 572.6130 572.6834 572.9610 573.0677 573.0677
   573.1115 573.1115 573.7023 574.2648 575.3766 575.3786 575.5228 575.5228
   575.5531 575.5531 577.6621 577.6621 577.6896 577.7120 577.7120 577.7193
   578.1497 578.1497 578.3762 578.3762 578.4332 578.4576 578.5120 578.5120
   589.3658 589.6185 589.6185 589.7438 589.8597 589.8597 590.0837 590.0837
   590.1082 590.1082 590.5179 590.5634 590.5634 590.5727 590.5753 590.6710
   590.6710 590.6849 594.3597 594.4599 594.5979 594.5979 594.9519 594.9519
   596.5234 596.5234 596.6969 596.6969 596.7479 596.9853 597.1657 598.8645
   598.8645 599.7658 599.8032 599.9770 599.9770 600.0019 600.0019 600.3597
   600.8289 601.0208 601.0836 601.0836 601.1584 601.1584 602.0481 602.0481
   603.2404 603.2404 603.2717 603.6205 604.5676 605.6327 605.6327 606.7306
   606.7306 607.9591 607.9591 608.0614 611.2634 611.2634 611.2949 611.2949
   611.7146 611.9856 611.9856 613.2655 613.2965 613.2965 613.8547 613.8551
   614.0692 614.1479 614.3486 614.3486 614.5631 614.5925 614.5925 614.6651
   614.7627 614.7948 614.7948 614.8783 614.8890 614.8890 615.4910 615.4910
   615.8161 615.8161 618.8321 618.8321 618.8364 618.8364 620.4692 620.4692
   623.2238 623.2473 623.2473 623.3655 623.6291 623.6291 628.0352 628.1685
   628.1685 628.7007 629.0097 629.0097 629.5157 629.5157 631.7116 632.0474
   632.0639 632.0639 632.7894 633.9108 633.9108 634.7087 634.9664 634.9664
   634.9948 634.9948 635.0031 635.0302 635.6574 635.6574 635.9067 635.9546
   635.9546 636.4341 636.9964 637.5050 637.5231 637.5231 637.5754 637.5754
   637.9228 637.9228 638.4269 638.6439 638.6439 639.1393 641.6273 641.6273
   643.0261 644.5548 647.1263 647.2158 647.2158 647.5175 647.5175 647.7974
   648.1941 648.2787 648.5311 648.5311 648.6734 648.6734 648.7223 648.7818
   648.8280 648.8280 648.9086 649.2420 649.2420 649.3314 649.3314 649.5959
   650.1321 650.1321 650.5258 651.4224 651.4224 652.9389 652.9389 653.3756
   653.3756 653.7194 653.7194 653.7573 653.9285 654.0094 654.0094 654.2519
   654.2519 654.3405 654.6032 654.6032 654.8055 654.8889 654.8889 654.9372
   655.1248 655.1252 655.1441 655.1441 655.3322 655.3322 659.4871 660.3219
   660.3219 660.5402 661.8200 661.8200 665.8751 665.8841 665.8841 665.8956
   665.8974 665.8974 670.7447 672.6434 672.6434 674.0192 674.0192 674.6747
   674.6758 674.6758 674.7045 674.7073 674.9483 675.0564 675.2884 675.2884
   675.3785 675.3785 675.8855 675.8855 675.9027 675.9072 675.9072 675.9665
   676.1234 676.1295 676.1295 676.2338 677.1091 677.1091 680.1666 680.1666

          k = 0.0000 0.3333 0.0000 (  3651 PWs)   bands (ev):

   -28.7638  -8.7529  -8.5478  -8.5478  -0.3453  10.0249  11.6523  11.6523
    14.1388  16.6421  16.6421  16.9387  17.5034  20.0154  25.0818  31.3975
    31.3975  32.6573  35.6582  36.2377  37.8338  37.8338  37.8758  41.2627
    41.2627  44.1178  46.8497  48.3438  48.3438  49.4423  52.8430  52.8430
    53.6167  54.6556  56.1688  61.1246  61.1246  61.2113  62.1625  62.2305
    62.2305  63.1531  63.7233  65.8484  66.7891  66.7891  67.3898  68.0803
    69.2174  72.7355  72.8757  72.8757  75.6640  77.1902  77.1902  77.5886
    77.5886  79.4151  81.3949  84.7798  85.5924  85.5924  85.7472  88.8583
    88.8583  91.0301  93.0115  95.3718  95.4155  99.2657  99.2657  99.3193
   103.2885 103.2885 103.4450 103.9489 106.9275 106.9275 108.3039 108.3039
   108.4154 108.9452 109.3703 110.8101 111.7699 113.8246 114.3656 114.3656
   114.4871 114.4871 115.6230 117.6775 118.9557 118.9557 119.4603 119.8897
   120.1453 121.0824 121.0824 122.5521 124.6140 126.3044 126.7466 127.2302
   127.2302 128.7331 128.7996 128.7996 129.0878 130.8461 131.0929 131.0929
   132.5350 133.5249 134.3237 134.3237 136.3427 136.4647 136.4770 136.4770
   138.9559 139.8448 139.8889 139.8889 141.2571 141.4226 142.1644 142.1644
   143.8834 144.2100 144.2100 148.2140 150.0625 150.3402 151.1701 151.1701
   152.4328 152.4328 152.5699 153.1937 155.6511 156.0037 156.0037 156.1871
   156.6246 161.9971 162.2564 162.2564 162.8131 163.0064 163.2462 163.2462
   163.4895 165.0745 165.0745 165.6743 166.4896 169.7260 170.0855 171.6602
   171.6602 173.2556 173.5588 173.5588 174.6911 175.8545 175.9185 175.9185
   177.1906 177.4836 182.6185 182.6185 185.1299 185.5809 185.6309 185.6309
   186.6681 189.5442 190.0261 190.0261 190.9153 191.6673 191.6758 191.6758
   193.5773 195.5131 195.5131 195.5367 197.5447 197.8886 197.8886 198.1338
   200.2617 201.1798 201.4428 201.4428 201.5764 202.2424 203.8610 204.6049
   204.6049 206.3723 206.3723 206.5524 207.2815 208.2377 208.3903 208.3903
   208.5278 208.6964 208.8064 210.2451 210.2451 210.6260 210.6260 211.0392
   211.1873 211.9649 212.0248 213.3833 213.8352 213.8352 214.9335 217.3549
   217.3549 217.6827 218.5166 218.5166 218.6635 218.6769 219.2443 219.2443
   221.2552 222.7356 222.7356 224.1590 224.8048 224.9136 225.3348 226.3832
   226.3832 227.5763 227.5763 228.1568 228.6886 230.0520 230.2985 230.7025
   230.7025 232.1966 232.6067 234.5783 234.5783 235.0738 235.4940 236.6863
   236.6863 237.3896 238.1789 238.3946 238.9203 238.9203 239.6278 240.0051
   240.0051 240.2499 240.4631 241.9367 241.9744 241.9744 242.0795 242.6053
   243.1845 243.1845 244.1047 244.1047 244.4340 244.4598 245.0180 245.7022
   246.2969 246.2969 250.2741 250.5287 250.7642 251.1972 251.1972 252.6366
   252.7285 252.7285 253.0651 253.3880 253.9808 254.0952 254.0952 260.7673
   261.9919 261.9919 263.4689 264.3082 264.3082 264.3986 264.4136 264.4575
   266.7006 266.7006 268.4906 269.6733 270.5707 270.5707 271.3245 274.7626
   274.7626 274.8804 275.3163 276.0712 276.0712 276.0739 277.2894 277.6887
   277.7198 278.0901 278.0901 279.2464 279.4265 279.4265 280.0609 282.1635
   282.4928 282.4928 282.6146 282.8328 284.7912 284.9098 284.9098 285.8106
   285.8106 285.8843 287.5850 287.5850 290.9648 291.3658 293.6598 295.1305
   295.1305 295.1935 295.5181 296.6444 296.9537 296.9537 297.2496 297.3673
   297.3673 297.5111 297.7754 298.2133 299.1273 299.1273 299.4725 301.9120
   301.9120 302.0514 303.3527 309.1558 309.1558 310.5675 311.5718 312.5474
   312.8386 312.8386 313.3044 314.4313 314.4313 314.5747 315.1528 315.3107
   315.4933 315.4933 316.3638 316.4476 316.4476 316.8183 317.5319 319.1862
   319.2607 319.2607 319.4580 319.7893 320.0070 320.0070 320.1554 320.2776
   320.4631 320.4631 320.6820 321.9290 321.9964 322.3435 322.3435 322.6911
   324.8163 324.8605 324.8605 324.8885 326.5152 326.5152 327.5775 327.9899
   328.1342 328.1342 328.7134 328.8767 328.9442 329.6040 329.6040 332.8517
   333.6025 333.6025 334.5185 336.1984 336.3275 336.3556 336.3556 336.3647
   336.7841 337.4634 337.4634 338.9115 339.0778 339.0778 339.1389 340.1653
   340.7016 340.7197 340.7197 340.7704 341.0727 341.6857 341.6857 342.8023
   342.8023 343.3561 343.9359 343.9359 344.1011 344.1281 344.1458 344.8273
   344.8273 346.8964 347.2631 347.2631 347.6207 347.6747 349.3082 349.3082
   349.6197 349.7261 351.4520 351.9126 351.9126 352.2550 352.5161 353.1364
   353.6388 353.6388 354.1839 354.5658 355.2822 355.2822 355.3005 355.3287
   356.7041 356.7041 358.2019 359.5508 359.7174 359.7174 359.8946 360.2108
   360.7911 361.4195 361.4195 362.2278 362.5024 362.8829 362.8829 363.0480
   366.0053 366.0053 367.7778 368.2527 368.3150 368.3990 368.3990 370.0578
   370.0639 370.5097 370.5097 371.1436 373.6322 373.6322 373.6504 373.7052
   373.7052 373.8313 373.9768 374.3133 374.5316 374.5316 374.6614 374.6938
   379.9443 379.9443 380.0012 382.1526 382.6099 382.6099 383.0536 383.0536
   383.0674 383.1109 383.5545 384.0035 384.0509 384.0509 384.8823 384.9816
   385.0305 385.0305 386.1431 387.0097 387.0097 388.1983 388.4508 388.8504
   388.8504 388.8568 390.9871 391.6112 391.6112 391.7477 392.5258 395.9943
   396.7513 399.2079 399.2079 399.4616 399.4616 399.4777 399.7887 399.9003
   400.0978 400.1594 400.1594 401.8887 403.8857 403.8857 405.1213 406.2293
   407.8876 407.9097 407.9097 408.4939 409.3424 409.7904 409.7904 410.4938
   411.0402 411.6042 411.6042 411.8291 413.0371 413.1893 413.6862 413.6862
   416.2762 416.2762 416.8991 417.3084 418.0027 418.0310 418.0310 419.7371
   420.0549 424.5422 424.5422 425.0651 425.3868 425.3868 425.4944 425.6601
   425.9249 426.0125 427.6036 427.6036 428.4976 428.4976 428.5126 428.6926
   429.0672 430.6009 430.6009 432.2640 434.4934 434.9836 434.9836 436.2544
   436.2728 436.7483 436.7483 437.0045 437.0617 437.0617 437.7437 437.9772
   438.6112 438.6112 438.7695 438.8274 438.9662 439.1089 439.1089 439.7422
   440.0527 440.7100 440.7100 440.7371 440.8671 441.2309 441.2346 441.2346
   441.6169 442.6453 442.6453 443.0518 443.1047 444.5487 445.8716 445.8716
   445.9785 446.0369 446.3803 446.3803 446.8688 448.4699 448.4699 448.7710
   449.1163 449.8513 450.5763 450.5763 451.1861 451.1861 451.1994 451.3482
   451.8925 451.8925 454.0591 454.0620 454.8051 454.8741 454.8741 455.5456
   455.5456 455.9146 455.9517 456.0011 457.8191 458.2303 459.0631 459.0631
   459.1037 459.4093 459.9259 460.0585 460.0585 460.5399 460.8010 460.8010
   461.4996 461.5687 461.7604 462.8107 462.8107 463.0539 469.1409 469.1409
   469.1742 469.7110 472.9462 472.9559 472.9559 473.0634 473.9752 473.9752
   474.6990 476.9357 476.9631 476.9631 477.7276 477.7276 478.3446 478.5794
   478.8850 479.6507 479.9717 479.9717 480.0629 480.2334 480.2334 480.6917
   481.2092 481.3768 481.3768 481.7696 483.8119 483.8119 483.8364 484.5679
   485.4645 485.7501 485.7501 485.8505 486.1219 486.1418 486.1418 486.7847
   486.9650 487.0561 487.2258 487.2258 487.3924 487.9901 487.9901 488.1058
   488.4166 488.4166 488.5018 490.8983 491.1495 491.1495 491.5580 492.3687
   492.3752 492.3752 492.3774 492.4948 492.7872 492.7872 492.8068 493.0951
   493.0951 494.2243 494.3749 494.4134 494.4134 494.8129 494.9059 495.1024
   496.0259 496.0813 496.0813 496.1038 496.1472 497.1874 497.1874 498.3627
   498.7025 499.9833 499.9833 500.6349 500.9729 501.2072 501.3885 501.3885
   501.5964 504.3235 504.3235 504.3264 504.6760 504.6760 504.6896 504.7198
   505.1891 505.4928 505.4928 505.9224 506.0932 510.0898 510.0898 510.1635
   511.3597 513.3686 513.3686 513.5341 513.5354 513.7505 514.3195 514.3195
   515.0110 515.2208 515.6265 515.6265 515.6362 515.7382 515.7998 515.7998
   516.3335 516.3335 516.3380 516.4266 516.6958 518.1509 519.8449 519.8449
   522.1148 522.1148 522.1601 523.7245 523.8124 524.1310 524.1310 524.2060
   524.2975 524.2975 524.3053 524.3663 525.5152 525.7831 525.7831 525.9068
   525.9444 526.0971 527.0493 527.0493 527.0847 528.6830 528.6830 529.9633
   530.2215 530.5366 530.7818 530.8314 530.8314 531.1130 532.2278 532.2278
   532.2759 532.3162 533.0010 533.4434 533.7418 533.7418 533.8888 533.8888
   534.1386 534.6197 535.2326 535.3436 535.3436 535.5876 538.6507 538.8289
   538.8289 539.7884 540.8073 540.8073 540.8151 540.9869 542.1773 542.6774
   542.6774 542.6895 544.3568 544.3568 545.8093 546.7216 546.7280 546.9376
   546.9376 547.3245 552.2542 552.5726 552.5726 552.8488 552.8756 552.8756
   553.8919 553.8919 554.0864 555.1015 555.9080 555.9080 557.6018 558.6103
   558.6967 558.8105 558.8105 558.9377 559.3527 559.3909 559.3909 559.4115
   559.9950 560.2328 560.2328 560.7926 561.4065 561.9849 562.0850 562.0850
   562.2669 566.4786 567.7608 567.7608 568.2658 569.1920 570.3306 570.3368
   570.3368 570.4304 571.2761 571.2761 571.2951 571.4139 571.7302 572.2926
   573.4738 573.4738 574.0128 574.0682 574.0682 574.2735 574.2892 574.5918
   574.5918 574.8874 576.4525 576.4525 577.2060 577.4834 577.8135 577.8135
   577.8475 578.4050 579.3563 579.6409 579.8754 579.8754 581.8038 581.8038
   582.0793 582.7944 583.6811 583.7055 583.7055 583.7314 586.6773 587.2306
   587.2306 587.3597 589.6182 589.9046 589.9046 590.1218 592.1341 592.1341
   592.2867 593.4325 593.4608 594.3650 594.3650 594.3772 594.8835 595.1643
   595.1643 597.1341 597.3130 597.3130 597.4217 598.3737 598.3737 598.8777
   599.1551 601.1374 601.1374 601.6825 602.1400 602.1400 602.8084 603.0450
   603.0466 603.0466 603.4059 603.4819 604.9611 605.5635 606.6177 606.6177
   608.9832 608.9832 609.0251 610.8306 611.0108 611.0555 611.0555 611.0936
   611.1558 611.1780 611.2268 611.2268 611.2422 611.7547 611.7547 611.8830
   612.2840 613.3086 614.3403 614.3403 614.5893 615.8503 615.8503 616.2358
   617.3416 618.3302 619.6440 619.6440 620.3768 620.4726 620.4726 620.5107
   620.6971 620.8676 620.8676 620.8815 621.2367 621.4989 621.4989 621.5403
   621.8241 621.8681 623.2022 623.5561 623.6631 623.6631 626.7118 626.8645
   626.8645 627.6267 627.6267 627.7397 627.8321 628.0938 628.3018 628.3018
   628.3931 629.0860 629.5609 630.0882 630.3534 630.3692 630.3692 630.8621
   630.8621 631.1339 631.4767 632.6966 632.7739 632.7739 633.1198 633.4265
   633.7247 633.7247 635.0892 635.0892 635.2126 635.6233 635.9615 635.9615
   636.0420 636.5457 636.8031 636.8031 636.9029 637.0617 638.1676 638.3905
   638.3905 638.4096 638.6893 638.9532 638.9554 638.9554 639.0069 639.2089
   640.3114 640.3114 640.9339 641.0365 641.0365 641.5569 642.5586 642.5586
   642.6886 642.9528 643.3654 643.3654 643.4868 645.1495 645.1495 645.2079
   645.2499 645.5896 645.6668 645.7000 645.8593 645.8593 646.5441 647.4098
   647.4098 648.2992 648.5927 648.5927 648.6757 649.1807 650.2676 650.3138
   650.3138 650.3323 650.7775 651.8563 651.8563 651.9625 652.0928 652.2866
   652.2866 652.5737 652.7734 652.7734 653.0467 653.0553 653.1430 653.7579
   653.7579 654.2032 654.2540 654.8474 654.8474 655.4589 655.6516 655.6516
   655.7889 656.4509 657.3914 657.3914 657.4064 658.7798 658.7798 658.7836
   659.7997 660.5564 661.4063 664.5693 664.5761 664.5761 665.0695 665.0695
   665.1148 665.6170 666.4168 669.6806 669.7026 669.7026 670.3234 670.8997
   671.3753 671.3753 672.0896 672.1680 672.2484 672.3234 672.3234 672.6794
   672.7077 672.7077 673.3867 673.8552 674.1312 674.9586 674.9586 676.1924
   676.8704 677.2844 677.2845 678.0022 678.0022 678.4982 678.5890 678.5890

          k =-0.1667 0.5000-0.1667 (  3639 PWs)   bands (ev):

   -28.7153  -9.1389  -8.6085  -8.6048   0.1299   9.2017  10.6584  10.9792
    14.3723  17.8525  17.9741  18.3872  18.9565  21.6739  26.5488  28.4463
    28.5248  31.8260  34.3143  35.4344  36.7576  37.4990  37.5582  41.2444
    41.5359  46.7890  46.8550  47.5202  49.8067  49.9308  50.9942  51.3746
    53.5514  55.2509  56.4355  57.2393  57.4695  59.7886  61.3513  61.4814
    62.6979  63.7502  64.5246  66.6574  67.4501  68.4588  69.3636  69.7895
    71.3944  74.1013  74.6775  76.3428  77.3137  78.2992  78.7856  79.5765
    82.3241  82.4005  84.8623  85.2053  86.0785  86.3125  87.1968  89.2834
    89.8357  91.8323  92.3444  92.5741  94.6245  95.0232  95.2246  96.5778
    96.9276  99.0274 100.8300 101.5466 101.8489 102.9142 104.6609 105.0563
   106.4938 108.0660 109.1951 109.3414 110.0432 111.8359 113.3131 114.0093
   114.3198 115.5978 117.2116 117.6237 118.8351 119.6401 119.7911 120.6579
   121.6613 122.4576 123.0082 123.1749 124.5608 124.9320 125.1040 126.9763
   127.9430 128.0830 129.3719 131.1090 131.2644 131.4882 132.9851 133.0259
   133.5646 133.8341 134.7781 135.1447 135.1988 136.0293 137.8424 139.4708
   139.5752 141.5274 141.5394 142.3850 143.1562 143.4529 143.7627 145.2131
   145.3258 146.7101 147.1836 147.3597 148.8746 149.2875 149.4434 150.5965
   152.1434 152.2027 153.6069 153.6258 153.9070 155.1459 157.3132 157.6910
   158.3755 159.0617 160.7710 163.0626 163.6954 164.1820 164.5763 167.2715
   167.4785 169.7269 170.2585 171.0121 171.0831 171.7180 172.1566 172.1747
   172.8748 173.5940 174.6423 174.6822 176.3257 177.1402 177.5320 178.0332
   178.7202 179.0828 180.1933 180.8141 181.6930 182.2069 182.8865 183.9024
   185.5647 186.0506 187.1398 187.3053 188.2036 188.4407 189.6470 190.0833
   190.4261 190.9179 191.3721 191.8158 193.2104 193.5060 193.8557 194.8588
   195.9348 196.5925 197.2854 197.3963 198.1143 200.1557 200.5447 201.2864
   201.6866 202.8369 202.8785 203.1274 203.6947 204.3092 205.1917 205.3752
   206.2307 206.4117 207.8757 208.0456 208.7644 209.5820 209.8035 209.8863
   211.5789 212.1408 212.3168 214.7397 215.3309 215.7837 216.5095 216.5227
   217.8733 218.5442 219.2471 220.1817 220.5626 221.0848 221.8219 222.2460
   223.4988 224.4937 225.4723 225.9556 226.4685 226.7173 226.9193 227.4594
   227.5393 228.1584 228.2216 229.2425 229.4044 230.9465 231.5258 231.5742
   232.2160 232.7352 233.5172 234.3628 234.4200 235.6568 236.4776 236.6513
   236.9644 237.6575 238.0199 239.3091 240.4429 241.2891 241.6042 241.9238
   241.9480 242.6682 243.3452 243.9710 244.8135 245.5558 245.6271 246.0061
   246.1832 246.2176 246.7738 246.9707 247.6670 247.9056 247.9814 248.9473
   249.4671 250.3016 250.4497 251.8900 252.2830 253.3803 253.4761 253.7652
   253.9907 254.2379 256.4171 256.8915 258.4652 258.9960 259.4000 260.3204
   260.4616 260.6509 261.0786 262.6939 263.8070 264.8494 265.4324 265.9759
   267.5514 269.4560 269.8171 270.5580 271.2993 271.4487 271.6187 271.8980
   272.5165 273.1362 273.9780 274.0190 274.6017 275.4177 276.2873 276.3959
   277.8426 278.0188 278.2414 278.3466 278.5453 278.8408 278.9662 279.6952
   280.1653 280.9106 281.3148 282.1671 282.3956 283.4208 284.6700 287.0531
   287.3433 288.5139 290.1437 291.4734 291.5510 291.9661 293.6121 293.6730
   294.5635 296.0944 296.2230 296.7708 297.2308 297.2966 298.4802 298.5900
   298.5905 298.8802 299.0810 299.7800 299.8068 300.6894 300.7326 301.4106
   301.5218 302.7850 302.7964 303.2246 303.4687 304.3382 304.6357 305.4758
   305.5719 306.0505 306.5171 306.9159 308.1484 309.5605 309.8420 310.5818
   311.2752 312.1336 312.5365 313.0917 313.4052 313.4577 313.5617 313.7514
   314.2724 314.5165 316.4134 316.8570 317.2855 317.3231 319.0259 319.2192
   319.4409 320.1020 320.4109 320.4184 320.8453 321.0797 321.6742 321.9270
   322.3936 322.6404 323.3140 323.4796 325.0650 325.3465 325.5990 326.7072
   326.9973 327.3477 327.7166 328.0767 329.6966 329.9529 330.7572 331.2315
   331.4624 331.8675 331.9574 333.1872 333.5764 333.9018 334.4607 334.9206
   335.5955 336.1916 336.6650 337.3965 337.6954 338.1641 338.1907 338.3729
   339.1350 339.2194 339.7706 340.4622 340.4670 340.5271 341.1451 341.3293
   341.5618 341.9040 342.0270 342.6029 343.1944 343.9193 345.6802 346.0458
   347.4895 348.4740 349.4094 349.5833 350.0125 351.6384 351.7948 352.8986
   352.9645 353.2359 354.2846 354.7586 354.9759 355.0740 355.5427 356.0106
   356.7908 357.5372 358.7701 359.4621 360.0896 360.8222 360.8649 361.3550
   361.6071 361.6852 362.4937 362.6454 363.4630 363.6078 364.3212 364.5806
   364.5840 364.6263 365.7487 366.1077 366.2931 366.4708 366.7063 366.9145
   367.0598 367.9686 368.7091 369.0634 369.3032 369.9323 370.3103 370.8619
   372.2693 373.1060 373.1751 374.8174 375.6890 376.3312 376.3974 376.7850
   377.0921 377.8169 377.9168 378.2594 378.4056 378.8617 379.2231 380.1601
   380.4624 380.5711 380.8472 381.1013 381.5071 382.9091 383.0817 383.1869
   383.9453 384.4891 386.2536 386.2820 386.9566 387.0958 387.9649 388.6192
   389.4535 389.9787 390.1200 390.6016 391.0419 391.4879 391.8606 392.4825
   393.1056 393.7134 394.1384 394.3808 394.7250 395.5979 395.8819 396.9342
   397.8928 398.1056 398.1894 398.5571 398.8763 399.3392 399.4924 399.7960
   400.2600 400.4437 402.0953 402.4874 402.7080 404.1617 404.5925 405.7808
   405.8076 405.9396 406.0939 406.2633 406.8313 406.8769 408.2997 409.0542
   409.9479 410.4624 410.8694 411.1894 411.9962 412.1137 412.2705 412.5941
   413.0504 413.1822 413.3611 413.4587 413.6235 414.1627 415.0280 415.5278
   415.5612 416.3579 416.9467 416.9789 418.3237 419.7188 420.1341 420.5330
   421.2927 421.9575 423.0807 423.5680 423.9236 424.4970 424.5367 424.7051
   425.0956 425.1750 425.6328 426.6976 427.0504 428.4872 428.5323 428.9924
   429.3426 430.9433 432.0720 432.6446 432.7384 433.8614 433.8805 434.5633
   435.0867 435.6353 435.7902 436.6638 436.6896 437.0259 437.9135 438.2233
   438.9200 439.6114 439.7963 439.9327 440.5886 441.1820 441.1980 441.3398
   441.5977 442.8373 444.0160 444.7941 446.0955 447.7085 447.9790 448.5149
   448.7551 448.8114 449.2362 449.3557 449.9473 450.1326 450.5994 450.6754
   451.0692 451.8921 452.4842 452.4981 453.1046 453.1495 453.6272 453.6895
   454.0772 454.2131 454.5275 456.0084 456.4062 456.4546 456.6491 456.7238
   457.4106 457.5871 457.7712 458.9742 459.3547 459.4673 459.8725 459.8881
   460.5522 461.1559 461.3610 461.6665 462.0839 462.2550 462.2708 462.8544
   462.9932 463.2033 463.8475 464.2727 464.3063 465.2417 466.8464 468.2054
   468.5247 468.8001 468.8796 469.3678 469.5148 469.8057 470.1248 470.2105
   471.0458 471.0847 472.2167 472.8788 473.0428 473.4216 473.9695 474.1599
   474.3625 475.1451 475.6438 475.7607 476.7896 476.7998 477.1725 477.5250
   477.7580 477.8313 478.1379 478.4322 479.5192 480.1226 480.1494 481.0079
   481.2140 481.5125 482.9061 483.5505 483.9022 484.1387 485.3276 485.5111
   485.5151 485.6903 485.9728 486.1542 486.6422 486.8718 486.9666 487.5347
   487.5436 487.6544 487.8524 488.3182 488.5171 490.3517 490.3800 491.0257
   491.5276 491.8955 491.9998 492.6880 492.7503 492.8483 493.4495 494.2220
   494.5105 494.6483 494.7254 495.4770 496.1132 496.5354 497.7231 498.1172
   498.3754 498.7367 498.9275 499.1629 499.8363 500.2242 500.7074 501.2806
   501.5188 501.9163 501.9176 503.1722 503.4809 503.5001 503.7392 503.8524
   504.6035 504.6722 504.7381 504.9940 505.0140 505.8198 506.4499 506.6300
   506.8338 506.9495 506.9722 508.4278 508.8726 509.6085 509.9275 509.9488
   509.9703 510.4014 511.2084 511.6805 512.1793 512.2675 513.2782 513.2951
   513.4171 513.8924 514.5012 514.8385 514.9064 516.8302 517.7299 517.7478
   519.6499 520.0017 520.2072 520.3596 520.4830 520.6699 520.6848 520.8412
   521.7994 521.8400 523.3774 523.6156 523.7329 524.1255 524.1980 524.2352
   524.6669 524.8970 524.9746 525.0360 525.7247 528.4571 529.0993 529.5465
   529.5769 529.8402 530.1040 530.7965 531.1090 531.2432 532.0867 532.4153
   533.7352 534.1369 534.4254 534.8764 535.0320 535.2707 536.1667 536.3687
   536.5244 536.7205 536.8884 537.1539 537.2825 537.6021 537.7931 539.8991
   540.9481 540.9907 542.7219 543.2300 544.0058 544.1295 544.7494 544.8563
   544.8993 545.5513 545.7505 545.9207 546.0588 546.5030 546.6269 547.4710
   547.6518 548.3269 548.6156 548.8971 548.9514 549.5225 550.1734 552.5592
   552.9418 554.1394 554.4048 554.7056 554.8115 555.2423 556.2701 556.5955
   556.9051 557.5577 558.2586 558.5023 559.3292 559.7373 559.8846 560.5656
   560.6980 560.8575 561.7601 561.9048 561.9237 562.0354 562.3870 562.4641
   562.5749 562.8048 563.0933 563.4397 563.7075 563.8104 564.0097 565.2084
   565.3681 565.9897 566.1156 566.2990 566.6611 567.2180 567.5956 567.9491
   568.5646 568.7308 569.6372 569.8364 569.8823 569.9544 570.3988 571.6633
   571.8950 572.2718 572.3634 572.4405 572.5976 572.7689 572.7847 572.9102
   573.2493 573.4384 573.7733 573.9115 574.6827 577.2018 578.6388 578.9477
   579.1609 579.2624 579.4255 579.9575 580.1601 580.6632 580.9221 581.0423
   581.0982 581.8223 582.2059 582.3481 582.4115 583.0813 584.0342 584.5777
   585.3090 585.4018 585.7704 586.4983 586.5497 587.4820 588.2851 588.3873
   588.9516 589.2882 589.7487 589.7926 589.9233 590.1435 590.3718 590.6414
   591.0146 591.1127 591.3017 591.4987 592.2034 592.3771 592.4515 593.1578
   593.7160 594.3707 595.4337 595.4767 596.0755 596.9090 597.0183 597.6075
   598.2879 598.5045 599.0888 599.3255 599.6326 600.1973 600.2612 602.0292
   602.4489 602.8263 603.6266 604.8910 605.4615 605.6692 605.9661 606.1912
   606.3986 606.8702 607.7972 608.5647 608.7932 608.8730 609.3668 609.8826
   610.0432 610.2098 610.3279 610.4337 610.6145 610.7916 610.9732 611.4298
   611.5683 612.0008 612.8075 613.0109 613.0900 613.1489 613.2714 614.2195
   614.4239 614.6896 614.9706 615.1499 615.5847 616.1608 617.6311 618.7990
   619.3325 619.6163 620.0392 620.8561 621.0078 621.5738 622.2616 622.6124
   622.6165 622.6510 622.7137 622.7865 622.9929 622.9952 623.4753 623.6635
   624.1877 624.9874 625.0540 625.5587 626.5934 626.9295 626.9906 627.3457
   627.3842 627.5228 628.2107 629.0494 629.0829 629.1630 629.8454 630.4431
   630.6350 631.0350 631.4830 631.5715 632.0597 632.1305 633.3043 633.3946
   633.4515 634.1037 634.3667 635.3185 636.1181 636.7871 636.7968 636.9750
   638.2219 639.0773 639.5580 639.9527 640.5569 640.6662 641.2301 641.3445
   643.1808 643.8755 644.2149 644.2271 644.7505 645.2860 645.3799 645.6154
   645.7876 645.8858 646.2591 646.4682 646.4747 646.7629 646.9376 647.2024
   647.6661 647.8156 648.3433 648.9469 649.2643 649.5504 649.7116 649.7415
   650.0074 650.3263 650.5661 651.3362 651.8334 652.3304 652.3688 653.5174
   654.2277 654.3502 654.5461 654.9210 655.2994 656.0137 656.3058 656.8350
   656.9884 657.3013 657.4550 658.6700 659.8251 660.1592 660.1616 660.3197
   660.5923 660.8040 660.9463 661.1670 661.5076 661.7041 661.7140 661.8875
   662.4164 662.7745 663.1830 663.4057 663.7999 664.1463 664.2582 664.3990
   664.6025 664.8382 664.9146 665.1684 665.3148 665.7703 665.9733 666.1653
   667.2169 667.3663 667.4317 667.6122 667.8261 667.9524 668.1406 669.2184
   669.4637 669.9457 669.9618 670.5208 670.9834 671.2688 671.9558 672.0202
   672.4247 672.8837 673.2193 673.2215 673.8140 674.0370 674.1917 674.3779
   674.8558 675.0352 675.5920 675.9052 676.7849 677.2345 677.3324 677.7280

          k = 0.6667-0.3333 0.6667 (  3646 PWs)   bands (ev):

   -28.6760  -9.4326  -8.6973  -8.6099   0.5553   8.6357  10.0105  10.1893
    15.9182  18.0396  18.6692  20.0127  21.2428  22.3271  24.9089  26.5423
    27.1510  32.6172  33.9107  34.7670  35.6588  38.0262  38.8097  40.6406
    42.7986  43.7251  44.9982  45.8204  49.6220  49.9333  50.6625  51.3714
    53.1930  54.5533  55.0780  57.0300  58.4603  59.9278  60.9997  61.9142
    62.9792  66.4283  67.5630  68.3511  70.0655  70.2826  70.5217  71.1704
    72.1176  72.2010  74.5899  76.4793  77.8858  78.1682  79.9703  81.2473
    81.7425  82.9653  83.5914  85.4548  86.2551  88.1955  89.5012  90.3597
    90.5906  91.2816  92.1663  92.3553  93.0302  93.0627  95.4521  96.2749
    97.4103  98.7477  99.6356 100.2231 100.7369 102.3487 103.7680 103.9258
   104.8356 104.9452 106.2751 108.7704 109.2730 110.0936 110.8918 110.9125
   112.5101 114.3169 115.1096 116.2420 116.7731 116.8480 120.0335 121.2771
   121.7190 122.3215 122.9706 124.2858 124.3958 124.4891 126.0605 126.3110
   126.5452 127.2228 127.5767 129.3030 130.0673 130.9585 131.8217 133.0940
   134.2453 135.8508 138.0777 138.7259 139.0662 140.1355 140.2800 141.5840
   142.2304 142.2573 142.7414 143.1994 143.6966 145.5508 145.9375 146.6706
   147.5477 147.6548 147.9798 148.2029 150.9458 151.2492 151.5634 153.5310
   155.2293 156.2285 156.7339 157.7262 157.9505 158.5260 159.6317 160.1479
   160.5666 161.0703 161.9565 162.9456 163.1187 163.2463 163.3352 163.8366
   165.2797 165.4377 166.8357 167.5102 168.0729 168.7873 169.5828 170.1191
   171.2879 172.1361 173.1945 174.2421 174.4191 175.6909 175.7475 176.6928
   178.6693 179.2520 179.3143 180.0494 182.6684 182.7320 183.1693 183.9858
   184.0701 184.3178 184.9486 185.9963 186.8878 188.7600 189.3142 189.5530
   190.2642 190.8554 191.4079 191.4160 192.4103 192.5342 193.1251 193.9908
   194.0639 195.0254 195.5073 198.4579 198.4881 199.3024 199.3863 200.2169
   200.9990 202.7048 203.2838 203.6051 204.0654 205.1172 205.2027 206.0488
   206.9703 207.4739 207.7322 208.6319 208.8142 209.3070 209.5793 209.6914
   209.9058 210.8557 210.9312 211.5916 213.5546 213.6948 214.2060 215.4675
   216.3508 216.3637 217.3644 217.3674 218.0281 218.3403 220.7090 221.3978
   221.5364 222.2934 222.5705 222.8963 224.9275 225.4907 226.1708 226.6511
   226.6908 227.4631 228.6577 228.7962 230.5167 231.0466 231.8621 232.1584
   233.2710 234.0345 234.3640 234.6491 235.1936 236.4093 237.8199 238.2633
   238.5454 238.8853 239.6341 239.6437 240.2690 240.5210 241.0508 241.7623
   242.3657 242.5156 242.7110 243.5320 244.5256 244.9728 248.0991 248.5790
   248.7894 250.4374 250.6373 250.9965 252.9259 253.2762 254.5910 254.7218
   255.7762 256.3178 256.3540 257.0122 257.2146 257.3972 258.0771 258.8849
   259.3802 259.8599 260.3670 260.3744 260.9737 261.1241 261.6380 262.9353
   263.2876 263.7547 263.9549 264.0221 264.3329 264.7518 264.7625 264.9298
   265.5813 266.5226 267.5173 270.8172 270.8827 271.4091 271.4793 272.2229
   272.8962 273.2420 273.4940 275.6619 276.0310 276.3436 276.5928 276.6554
   276.7517 278.2535 279.2616 279.4433 279.6452 280.1646 280.2408 280.7594
   281.5619 282.2055 282.5345 283.5415 283.6781 284.3050 284.8414 285.0357
   286.0519 286.5542 287.2249 288.3073 288.5295 288.7472 289.1975 289.8353
   290.1201 290.3016 290.5973 290.8029 291.8390 292.5861 293.1112 293.7425
   294.4890 295.0823 296.2846 296.6827 297.5471 298.1870 298.4189 298.7694
   299.0799 299.7008 299.9477 301.2216 301.4987 301.6812 302.6894 302.9730
   303.6687 303.7954 304.0731 304.5946 306.1012 307.1049 307.5818 307.5988
   308.3619 308.6155 309.4583 309.7374 310.1502 310.8119 311.3978 312.5645
   314.4723 314.7684 315.1307 315.5382 315.9302 316.5111 316.8981 317.8970
   318.1819 318.7404 319.5892 319.6478 320.4799 320.6601 320.8167 320.9083
   322.0463 322.2032 323.1708 323.2155 324.6432 325.2029 325.4044 325.9015
   326.1920 326.6685 326.9311 327.6256 328.6037 329.3599 330.2607 330.5471
   331.1065 331.4838 331.7171 332.1730 332.4677 333.8004 333.8850 334.3353
   335.6395 336.2717 336.4934 336.7469 338.3823 339.7949 339.9610 340.6894
   341.6103 341.6218 342.4360 342.8764 342.9689 343.1308 343.5361 345.3329
   346.2878 346.4906 346.5927 346.8590 347.5297 347.6412 348.4331 348.5319
   349.0420 349.0995 349.4439 349.8978 349.9074 350.0898 351.5124 352.5996
   352.6893 352.8964 354.4147 354.5410 354.9821 357.4672 357.8582 357.9556
   358.2798 358.4010 359.4147 361.1380 361.4014 361.8237 361.9057 362.3957
   362.6168 362.9890 363.1903 363.9576 363.9800 364.1219 364.7128 364.9405
   365.2922 365.5035 366.0704 366.5293 367.0106 368.3154 369.4180 370.4457
   371.1743 372.1403 372.2143 372.7897 373.1492 373.3200 373.7474 374.0587
   374.0827 374.5537 374.7492 375.0191 375.3716 375.8953 376.3985 376.5200
   377.8123 378.0136 379.1090 379.1488 379.8662 379.9483 380.2686 380.7711
   381.2476 382.5556 383.1198 383.4705 383.8088 384.0961 384.1623 384.3943
   385.5263 385.6058 385.9220 387.1511 387.5302 387.7373 388.3573 388.5865
   388.8151 388.9413 389.3865 390.3452 390.9857 391.0851 392.5751 393.4181
   393.4791 394.2423 394.5638 395.0484 395.2240 395.6963 395.8975 397.7372
   398.0499 398.1723 398.6709 399.0593 399.3833 399.4881 400.0863 400.1443
   401.5011 401.9615 402.3377 403.0243 403.2564 403.4723 403.9637 405.3969
   405.6155 406.5432 407.3477 407.8579 408.4376 408.5024 408.7493 408.8095
   408.9961 409.4153 409.9120 410.3514 410.4888 410.7305 411.0687 411.5089
   411.9397 412.3499 413.1199 413.8180 413.9674 415.2456 415.9091 416.9466
   417.6305 418.3240 419.0002 419.2620 419.2884 420.2397 420.3511 420.9754
   421.0265 421.6588 422.4957 423.4461 423.8510 424.5146 424.9870 425.6390
   425.9832 425.9836 426.2663 426.3505 427.1346 427.2691 428.1896 428.7923
[...]
   365.2238 365.8066 367.0037 367.0311 367.2903 367.3764 367.8273 368.0229
   369.5073 370.3940 370.9057 371.2615 372.7118 373.3795 373.8419 374.3132
   374.6805 374.8616 376.2220 376.2798 377.7741 378.2892 378.5836 378.6169
   379.0456 379.6224 379.8183 379.8254 379.9826 380.0899 380.8216 380.8230
   382.6678 383.3367 384.9410 384.9779 386.5540 386.9650 386.9909 387.2263
   387.3361 387.5215 387.6900 387.7695 388.3792 389.3483 389.5336 390.1757
   390.5155 390.6850 390.8656 391.5361 392.0131 392.5748 393.5158 393.6148
   393.7364 394.6167 394.8404 395.1248 395.2914 395.5891 396.5449 396.9491
   397.4633 397.8675 398.1124 398.9557 399.4642 400.1496 401.3848 402.5931
   402.9867 405.2092 405.2130 405.3528 405.7420 405.8521 406.2279 407.0831
   407.4041 407.5583 407.7046 408.1808 409.8054 409.8786 410.6378 410.6729
   411.2842 411.5531 412.2276 412.5136 413.1888 413.9566 414.3516 414.5995
   416.0828 416.0841 416.2025 416.5665 416.5777 416.7750 416.8826 416.9545
   417.5603 417.9804 418.0279 418.0502 418.3738 418.4309 420.1233 420.5923
   421.8337 422.1269 423.4265 423.5535 423.7616 424.7277 425.1945 425.4467
   425.4704 425.8087 426.0971 426.3026 426.8344 426.8875 427.2504 427.6823
   428.5012 428.6602 429.2813 429.6024 429.8718 430.3185 430.3874 431.2217
   431.3080 431.4680 432.2486 432.3986 432.5048 432.6470 434.0784 434.3537
   434.4256 435.4367 435.5443 436.3606 436.4727 436.8512 437.4812 437.5036
   438.5288 438.6694 438.7830 438.9294 439.5140 439.6159 439.6654 440.4097
   440.4538 440.5107 440.9669 442.5555 442.5716 443.1667 443.9696 444.1596
   444.3629 445.1159 445.5475 445.8521 447.0997 447.2495 448.0489 448.0707
   449.3086 450.2945 451.1764 451.6450 451.6735 452.1413 453.5570 453.6051
   454.0193 454.2679 454.4252 454.6339 454.9698 455.8552 456.1119 456.7970
   457.1470 457.4717 457.7275 457.8309 458.3351 458.4070 460.1629 460.2576
   460.9382 461.1543 461.5784 462.1397 462.2712 462.7657 463.8068 463.8599
   464.4378 464.5721 466.7618 467.6451 467.9451 468.1260 468.2855 468.2967
   468.3946 468.4141 469.8784 470.5952 471.1663 471.3301 472.7937 473.1521
   473.2278 473.3678 473.8339 474.2592 474.5315 476.1185 476.1453 476.3078
   476.7026 477.4878 477.6331 478.3324 478.9863 479.1792 480.0000 480.0928
   481.0954 481.7983 482.7135 482.7145 483.4974 483.5395 485.3946 485.8563
   486.7536 486.7992 487.4311 487.7724 487.9040 488.0646 488.1748 488.7440
   489.3683 489.8200 490.8244 491.5885 491.6320 493.9095 495.1076 495.7480
   495.7517 496.5914 496.8309 497.2574 497.6188 497.6705 499.1013 499.4375
   499.5539 499.8453 500.2128 500.4885 500.9997 501.5798 501.7236 501.7555
   502.1462 502.7158 502.8432 503.3660 503.3946 503.7697 504.0544 504.1576
   504.5269 504.5787 504.8323 505.3429 505.7546 506.6443 507.3374 507.4686
   507.5601 507.9342 508.4368 508.4428 508.9381 509.7758 510.8711 511.4913
   511.7975 511.9218 513.2003 513.8019 514.0890 514.3333 514.5329 514.5381
   514.6199 515.1026 515.8111 516.1661 516.5558 516.8684 517.2532 517.7628
   517.8996 518.1177 518.2284 518.5008 519.2519 519.5648 519.8787 519.9229
   520.6212 521.2429 521.9671 522.6486 522.9647 523.3321 523.6145 523.6681
   524.0276 524.0741 524.8093 526.0158 526.0765 526.2261 527.1604 527.2593
   527.7660 528.7639 529.1268 529.7059 530.7110 531.2473 532.7155 532.9426
   533.3070 533.7403 534.1871 534.2066 534.3281 535.2202 535.4425 535.6230
   535.7401 535.8393 536.4262 537.2415 537.6538 538.0147 538.0718 538.4133
   538.8859 539.0695 539.5356 539.7220 539.9411 540.5121 540.9262 540.9467
   541.3239 541.5186 542.3181 542.7296 542.7421 543.0735 543.3638 543.7373
   543.9540 544.1514 544.2951 544.6180 545.1719 545.7214 546.0328 547.5601
   547.8075 547.8987 548.1946 548.5839 548.5933 549.8589 550.8905 551.5779
   551.6364 551.7086 551.7512 552.0546 552.4770 553.4180 553.9894 554.4365
   554.5536 555.2834 555.5583 556.6026 556.8250 556.9573 557.3368 557.6011
   557.6408 557.7640 558.5714 559.2721 559.4427 559.8373 559.9476 560.4546
   560.7215 560.9327 562.7701 563.1385 564.3717 564.8119 565.2817 565.5167
   565.7719 566.1160 566.1426 566.2628 566.7219 566.8847 567.1127 567.2584
   567.4117 567.5941 567.6535 567.7593 567.8111 568.1226 568.3438 568.4151
   568.7576 570.0719 570.1384 571.5103 572.0912 572.2982 573.2914 574.0417
   574.3561 574.6049 575.2254 575.3104 575.6144 577.7671 577.7706 578.8413
   579.0589 580.3934 580.8028 581.0152 581.2758 581.4511 581.7229 581.9979
   582.8803 583.0597 583.2630 583.2976 583.3354 584.1994 584.6981 585.1126
   585.3850 585.6752 586.5781 587.4095 587.6157 587.6408 587.9640 588.6653
   588.6654 589.2801 589.3675 590.0123 590.2714 590.3139 590.9915 591.0750
   591.3320 591.7246 591.7253 591.9079 591.9356 592.2862 592.4447 592.8898
   593.3480 593.5406 594.2043 594.4624 594.7787 595.3797 596.5414 596.7622
   596.9100 597.4513 597.6573 597.7673 597.8316 599.2487 599.6690 599.7291
   600.0313 600.5072 600.8410 601.1683 601.3397 601.5528 601.7405 602.1374
   602.2715 603.0677 603.0687 603.9890 604.6833 604.9041 606.3553 606.9543
   606.9727 607.1983 607.8606 608.1516 608.4302 608.4349 608.4699 608.8587
   609.1084 609.1356 609.7446 609.9040 610.9802 611.3117 611.5874 611.6176
   612.2213 612.8072 612.9167 613.3524 614.9020 615.0045 615.3322 615.3474
   615.4637 615.6593 616.1982 616.2084 616.3047 616.5353 616.6159 617.4829
   618.3944 618.6869 618.9734 619.0766 619.2185 619.3919 619.8460 620.2866
   620.5169 621.0728 621.3987 621.8107 624.2987 624.4721 624.9067 625.3751
   625.8318 626.2884 626.8977 626.9276 627.3561 627.6005 628.3913 628.6449
   629.0203 629.3243 629.4917 630.4765 630.6986 631.1465 631.1595 631.6770
   631.7026 631.7999 631.8389 632.0953 632.2998 632.4804 633.0791 633.1222
   633.7273 633.8798 634.5306 634.9141 637.0237 637.1434 638.0429 638.6489
   638.8355 640.0144 640.2138 640.2224 640.7892 641.0145 641.7062 641.8538
   642.5905 642.8214 643.8243 643.9004 644.1110 644.1455 644.3520 644.3678
   645.7209 645.7558 645.9742 646.0664 647.4946 648.3706 648.5626 648.7422
   648.8939 649.9906 651.0483 651.5574 651.6675 651.7237 651.8790 651.9663
   652.0608 652.1594 652.2659 652.3225 652.3766 652.3795 652.9349 653.1731
   653.4319 653.4587 654.4640 654.6489 654.7502 655.6055 655.8418 656.0356
   657.8141 657.9986 658.5952 659.0248 659.8075 660.4639 660.8792 661.0374
   661.0615 661.2719 661.7268 662.2641 662.4854 663.5512 663.8439 664.4344
   664.4703 664.9785 665.0152 665.8722 666.4466 666.8768 666.9762 667.5058
   667.5874 668.0799 668.3537 668.7095 668.7170 668.9772 669.0679 670.3497
   670.7767 670.8911 672.3132 672.8160 673.5694 673.5963 673.8786 673.9721
   673.9773 674.4763 674.5998 674.7445 675.1367 676.3924 677.3422 678.3456
   678.8962 678.8964 679.5259 679.5891 680.5195 680.5415 681.0854 681.1110

          k =-0.3333-1.0000 0.0000 (  3652 PWs)   bands (ev):

   -28.6477  -9.1753  -8.9192  -8.8486  -0.0564  10.2757  10.4464  10.6767
    14.4349  17.6809  19.2343  19.9085  20.5458  23.9015  24.0613  26.7519
    28.5226  31.4429  31.7814  34.9132  38.7206  38.7286  40.3313  40.5029
    41.7009  43.3026  43.4514  44.6226  47.1929  47.5043  48.6842  49.5727
    50.9198  56.4572  57.0887  57.5253  60.4455  62.5817  62.9317  63.0052
    64.0465  65.6082  66.4052  68.9337  70.0480  70.1873  70.5413  72.3263
    74.3774  74.4345  75.8499  77.6814  77.8097  77.8896  78.8669  78.9451
    83.3668  83.9409  84.2066  86.4577  87.3948  87.4088  87.4954  88.6572
    90.1030  91.2032  91.6030  92.0081  93.2395  93.4739  93.9828  94.8128
    96.1767  98.3323  99.0416  99.1411 103.0616 103.2263 104.5473 105.7175
   106.9129 107.2783 107.8080 108.1583 108.2832 109.7724 110.3651 111.2448
   112.1106 112.2400 112.3943 112.6428 114.8084 116.0950 118.2252 118.6596
   118.6698 118.8548 119.7716 119.8571 122.3427 123.1865 123.6420 124.2535
   125.0021 127.1105 127.7812 129.5911 131.9923 132.7292 134.9094 135.7351
   136.6718 138.1017 138.4558 140.2295 140.3770 140.6286 141.5679 142.9360
   143.7599 144.0689 144.0810 144.7673 146.1631 147.1281 147.9979 148.0858
   148.4223 148.8845 149.9950 150.7944 152.6979 153.6527 153.8223 154.7380
   155.1748 156.2647 156.5642 157.9449 158.3164 159.6728 160.0785 161.7626
   161.8154 162.2522 162.8294 163.3392 163.4872 164.3068 165.9148 166.7575
   166.9773 167.4503 168.2288 168.8240 169.3326 169.6803 169.6918 170.2712
   171.2320 171.5402 171.6174 172.5048 173.4905 174.8352 174.9120 175.3978
   176.5148 177.1253 177.3893 177.5772 180.3439 181.7081 181.8991 182.2215
   183.0083 183.7622 184.6093 185.1427 185.7101 187.0089 188.1166 188.8813
   188.8906 189.0816 189.9278 190.0740 191.1877 191.5262 191.6672 192.3531
   193.3798 193.4168 193.8297 194.1248 194.3124 194.8068 195.1170 195.9666
   197.0098 197.2045 197.9603 198.0339 201.4472 203.9744 204.4839 205.8611
   206.2276 208.0302 208.9597 209.2146 209.6161 210.0508 210.3868 210.6001
   210.6625 211.5134 212.4080 212.5286 212.5512 214.1374 218.1520 218.6205
   218.7505 219.1474 219.4052 219.6361 219.9796 220.7821 221.2850 221.3519
   222.5299 222.7192 222.9440 223.5894 223.6519 225.7252 227.4720 227.5850
   229.7136 230.0328 230.5799 230.9005 231.2498 231.6326 232.7596 233.1231
   233.1690 234.4653 234.5719 234.9453 236.3502 236.4386 238.6096 238.6844
   239.0461 239.2006 240.2060 241.0129 241.2081 242.4298 242.4974 243.3276
   243.3294 243.4234 243.7615 245.4943 245.6114 248.1460 248.5690 249.0477
   249.0842 249.1474 250.8537 252.5511 252.8619 253.0903 253.2028 253.5605
   255.2005 255.4844 255.7314 256.3747 257.7175 257.9398 258.1119 258.1338
   258.6335 260.0653 261.9044 262.0649 262.7300 263.0217 263.1294 263.1705
   264.3834 264.6886 264.8566 264.9297 267.3158 267.6861 269.3254 269.4414
   269.5049 269.9739 269.9771 270.1949 270.4206 271.7012 271.8933 272.3872
   273.6487 273.7952 274.4705 275.3382 275.4897 275.7854 275.8396 276.4350
   276.9640 277.7495 277.7508 277.7549 278.3669 279.0479 279.1906 281.3087
   281.3233 281.3703 282.1082 282.3794 282.5137 283.1454 283.3988 284.0628
   284.4924 284.7637 285.0104 285.3224 286.5003 287.8443 288.4415 289.7045
   290.4591 290.4787 290.5604 291.0039 291.8479 291.8669 292.1380 292.1554
   292.2033 293.8184 293.8369 293.9204 294.5402 294.9979 295.6439 296.5248
   297.8498 297.8975 298.0574 298.1201 299.0832 300.1015 300.7785 302.3592
   302.4087 303.5654 303.9379 304.0142 304.3461 304.9245 308.4933 308.7175
   308.8437 308.9465 309.1975 309.5794 311.5820 311.9974 312.4274 312.4703
   313.1554 313.5175 314.9850 315.5481 316.1895 317.3503 317.6905 317.7566
   318.1080 318.6389 319.2633 319.2820 319.2884 319.5365 319.7313 319.9544
   321.8660 323.1190 323.4002 323.6719 323.9241 324.1644 324.5987 324.7455
   325.3268 325.3799 325.4721 326.0837 327.1371 327.1411 328.9305 330.3498
   330.6601 330.7421 331.3766 332.2697 333.1452 333.4858 334.4686 334.6174
   335.4013 336.0873 338.4782 339.1714 339.1919 339.9406 339.9512 340.9903
   341.0027 341.1380 343.7585 343.8814 344.3114 344.3490 344.5548 344.9292
   345.2719 345.3365 345.3484 345.4415 345.7134 345.8232 345.9553 346.1407
   348.4582 348.7421 349.2706 349.4013 350.6559 352.3016 353.5892 353.9896
   354.0767 354.4689 354.9342 355.4872 355.4891 356.6221 356.6385 357.4541
   358.9566 358.9961 359.3438 359.4211 359.4321 359.6069 360.0584 360.2386
   360.4555 360.7845 362.7127 363.6224 363.6880 364.1602 364.8527 364.8911
   365.5045 365.5911 366.0617 367.2268 367.2687 367.8458 368.1205 368.6668
   368.8204 370.3112 370.6117 371.2804 371.4384 371.9425 372.6509 373.0158
   374.1272 374.9126 376.6210 376.6878 377.2563 377.9204 378.2319 380.6910
   382.1404 382.7467 383.6535 383.7674 384.2020 384.9501 385.2365 385.2509
   385.3516 385.7238 385.7691 385.8863 386.3120 386.9360 386.9806 387.2529
   387.6529 387.7229 387.9228 388.3767 389.0806 389.9155 390.0306 390.0853
   391.0810 391.9966 394.0133 394.1717 394.3833 394.3865 394.5996 394.6348
   396.0490 397.9551 398.0983 398.2122 398.2844 398.4417 399.2142 399.2831
   400.5429 401.1867 401.6120 402.0068 402.2584 402.2719 402.5667 402.6287
   402.8336 404.2479 405.6137 405.6852 405.8996 406.2828 407.4651 407.4941
   407.6081 407.8633 407.9159 408.0100 409.4051 409.4066 409.5541 409.8774
   409.9193 410.0391 410.2021 411.0303 411.7788 411.8423 413.1041 413.1432
   413.1912 413.8384 413.8679 413.9311 414.0115 415.2657 415.5565 415.8934
   416.2839 416.5361 416.5865 416.5929 416.7761 417.3281 418.1946 418.2029
   418.2999 418.3501 418.8101 418.9430 419.8892 423.1790 423.4158 423.8709
   424.1493 424.3075 424.3841 424.8232 425.2897 426.1011 426.1140 426.6318
   426.7007 427.0826 427.1617 427.4781 427.8689 428.5999 428.7363 428.9588
   429.4573 429.5698 430.4067 430.9970 431.1096 431.7470 432.5110 433.4661
   433.9114 434.0625 434.2710 434.4994 436.4317 436.6938 439.2290 439.8841
   439.9720 440.1821 443.2112 443.3797 443.4742 443.6136 443.8670 443.9806
   444.1947 444.2156 444.4151 444.5634 444.6254 444.7357 444.7758 444.8636
   445.0148 445.3587 446.0243 447.0461 447.4233 447.9224 448.6074 448.9984
   449.7836 450.1483 450.2285 450.2713 450.6978 450.7715 450.8266 452.5025
   452.5731 452.9940 452.9988 453.2935 453.4762 453.6115 454.2180 454.6204
   455.3319 455.8287 455.8358 456.3494 457.2263 460.3195 460.8206 461.1670
   461.2341 461.3831 461.6511 461.7369 461.8001 462.9385 463.0777 463.0920
   463.5293 464.8470 464.9095 465.0345 465.3020 465.3888 466.0937 467.8330
   467.8890 468.1740 469.2335 469.5383 469.8195 469.8908 470.3151 470.3308
   470.6940 474.4355 474.5335 474.6122 475.4587 476.4822 477.1709 477.1753
   477.9863 478.3689 478.4775 479.1487 480.3219 480.4883 480.6545 480.9579
   481.8210 482.8674 483.0757 483.3987 483.9619 484.0600 484.3962 484.5721
   485.2220 485.9163 486.1859 486.3211 486.3342 486.4364 487.0871 487.3041
   487.5318 488.2701 488.2780 488.2943 489.7634 490.7028 491.0871 491.6111
   491.6260 491.9642 492.2600 492.3555 493.5735 495.8510 496.4186 496.7520
   496.7549 497.6022 500.7746 501.2068 501.5778 501.8808 502.6800 502.7170
   502.7310 502.9488 503.1897 503.5701 504.5639 504.8174 507.8148 508.0134
   509.7660 510.1033 510.2658 510.7643 510.9237 511.1343 511.5531 511.6628
   511.7973 512.2529 513.0617 513.0883 513.1406 513.1695 513.2929 513.3920
   514.6434 514.7591 514.8212 515.0780 515.9867 516.0831 516.2974 516.5433
   516.6395 516.8844 517.5238 517.7261 518.3184 518.4672 518.8304 518.9093
   519.5262 520.2176 520.8123 521.7539 522.9870 523.3020 523.3371 523.6155
   523.7964 524.5456 524.6351 525.1686 525.2624 525.3271 525.6644 526.0070
   526.4049 526.5302 527.1791 527.3125 527.5438 528.4115 528.5031 528.6579
   528.8894 529.1358 529.3982 529.5340 529.5859 529.5904 529.6524 529.7149
   530.1423 530.8844 531.6595 531.9901 532.6689 532.8017 533.3242 533.8450
   534.0904 535.0614 535.2700 537.8892 538.0574 538.0840 538.0958 539.2557
   539.7956 540.0231 540.0874 540.2494 540.5470 540.5925 540.6456 541.6152
   541.6995 542.1305 543.1576 543.2017 543.2109 543.9966 544.0878 544.2388
   544.2406 544.7408 544.7931 545.1785 545.4276 545.5362 545.6969 545.8241
   546.0268 546.0932 546.4899 546.6104 546.6405 546.7892 546.8724 547.1677
   547.5367 547.6995 549.8508 549.9457 552.2704 552.5288 552.5609 552.5821
   552.8752 553.2217 553.3887 554.7265 555.0247 555.5212 555.7271 555.7881
   556.7744 557.6782 559.2012 559.8403 559.9166 560.1322 561.5116 561.5615
   562.3786 562.6843 563.6530 564.0782 564.9452 565.7872 565.8397 566.3069
   566.3487 566.4781 566.7358 567.0611 567.2316 567.3149 567.4175 567.4887
   567.8017 567.8312 567.9568 568.2334 568.9551 569.8372 570.2256 570.8960
   571.0270 571.2428 571.4975 571.9966 572.4686 572.8200 573.4453 573.4593
   573.5314 573.8164 574.1939 575.5886 575.7654 575.8304 576.2967 576.5326
   576.6405 577.0283 577.1181 577.3550 577.4782 577.6477 578.5041 578.8893
   579.3966 579.7505 579.7636 582.5095 582.9007 583.6553 583.7415 583.7538
   583.8129 584.5648 584.6038 585.4304 585.5048 585.7008 585.7289 586.2271
   586.2293 586.2603 586.6657 587.4120 587.4918 587.5841 588.3372 589.7763
   590.2211 590.2569 590.3866 590.6659 594.0293 594.1704 594.3323 594.7910
   595.6204 595.8099 595.9591 596.0665 596.2196 596.5622 596.6923 596.7347
   596.8147 597.0432 597.2623 597.4455 597.7387 597.9123 598.3200 599.2354
   600.3772 600.7319 600.7365 601.0573 601.3278 601.4100 601.9433 601.9987
   602.2027 602.9697 603.2598 604.7422 604.9971 605.0107 605.9584 607.3251
   608.0690 608.7328 608.7972 608.9207 609.5760 610.0225 610.0303 610.4463
   610.7381 610.8465 611.0988 611.7474 611.9457 612.1093 612.1822 612.1991
   613.2633 614.5325 614.5967 615.0697 615.1459 615.1469 615.5233 615.6711
   616.0751 616.1199 616.1518 616.1897 616.7724 616.8976 617.2776 617.7697
   618.2513 618.5953 618.6738 619.1833 619.2892 620.4346 620.4629 620.9923
   621.2773 621.4484 621.8109 621.8724 622.0415 622.1394 622.2308 623.0224
   623.3179 623.4085 623.7316 624.4746 625.6889 625.7257 626.4993 626.6912
   629.6159 629.8726 630.0055 630.7699 630.9221 631.1400 631.4124 631.6225
   632.6000 632.7522 633.6508 633.8292 633.9625 634.1808 634.6442 634.9052
   635.1342 635.3395 635.5426 635.6778 636.1258 636.9147 636.9346 637.9923
   639.1374 639.3431 640.0384 640.1975 641.5233 641.5927 642.6043 642.6686
   643.8126 644.0108 644.0980 644.2782 644.6690 644.8322 645.5538 646.1969
   646.2016 646.4086 646.6925 646.8002 646.8206 647.2037 647.6118 647.6878
   648.3397 648.3826 648.6302 648.9528 650.0583 650.1062 651.4176 652.1499
   652.2559 652.2818 652.5167 652.7353 653.0886 653.1257 653.4907 653.6412
   653.6619 653.7257 653.7358 653.9058 654.0654 654.3466 654.5264 654.8479
   655.2152 655.8910 655.9229 660.1040 661.2245 661.3068 661.7657 661.9950
   662.5059 662.9954 663.0394 663.1172 663.5374 663.5460 663.5851 664.1892
   664.7720 664.8203 664.8636 664.8694 665.3226 665.6301 665.9385 665.9644
   666.1727 667.4546 667.6988 668.4522 668.5033 668.5608 668.9601 672.1742
   672.9610 673.1080 673.2362 673.2865 673.5179 673.7938 674.1100 674.2002
   675.0743 675.4151 675.9742 676.0817 676.4425 677.5492 678.1736 678.7602
   679.0107 679.1009 679.1011 679.8839 680.3587 680.3745 680.8880 681.0786

     the Fermi energy is    12.1501 ev
     (compare with:    12.1599 eV, computed in scf)

     Writing all to output data dir out/mp-2114.save/
 
     init_run     :      0.03s CPU      0.04s WALL (       1 calls)
     electrons    :    621.10s CPU    659.58s WALL (       1 calls)

     Called by init_run:
     wfcinit      :      0.00s CPU      0.00s WALL (       1 calls)
     potinit      :      0.01s CPU      0.01s WALL (       1 calls)
     hinit0       :      0.01s CPU      0.01s WALL (       1 calls)

     Called by electrons:
     c_bands      :    621.10s CPU    659.56s WALL (       1 calls)
     v_of_rho     :      0.00s CPU      0.00s WALL (       1 calls)

     Called by c_bands:
     init_us_2    :      0.00s CPU      0.00s WALL (       8 calls)
     init_us_2:cp :      0.00s CPU      0.00s WALL (       8 calls)
     cegterg      :    587.88s CPU    623.93s WALL (       8 calls)

     Called by *egterg:
     cdiaghg      :    544.40s CPU    579.19s WALL (      90 calls)
     h_psi        :     12.20s CPU     12.63s WALL (      98 calls)
     g_psi        :      0.09s CPU      0.09s WALL (      82 calls)

     Called by h_psi:
     h_psi:calbec :      0.21s CPU      0.22s WALL (      98 calls)
     vloc_psi     :     11.66s CPU     12.07s WALL (      98 calls)
     add_vuspsi   :      0.15s CPU      0.15s WALL (      98 calls)

     General routines
     calbec       :      0.21s CPU      0.22s WALL (      98 calls)
     fft          :      0.00s CPU      0.00s WALL (      10 calls)
     fftw         :     10.66s CPU     11.03s WALL (  118496 calls)
 
     Parallel routines
 
     PWSCF        :  10m21.89s CPU  11m 0.87s WALL

 
   This run was terminated on:  21:13:29  20Dec2023            

=------------------------------------------------------------------------------=
   JOB DONE.
=------------------------------------------------------------------------------=
