
     Program PWSCF v.7.1 starts on 20Dec2023 at 19: 3:18 

     This program is part of the open-source Quantum ESPRESSO suite
     for quantum simulation of materials; please cite
         "P. Giannozzi et al., J. Phys.:Condens. Matter 21 395502 (2009);
         "P. Giannozzi et al., J. Phys.:Condens. Matter 29 465901 (2017);
         "P. Giannozzi et al., J. Chem. Phys. 152 154105 (2020);
          URL http://www.quantum-espresso.org", 
     in publications or presentations arising from this work. More details at
     http://www.quantum-espresso.org/quote

     Parallel version (MPI), running on     8 processors

     MPI processes distributed on     1 nodes
     122951 MiB available memory on the printing compute node when the environment starts
 
     Reading input from pw_mp-2114_nscf_k10_E106.in
Warning: card &IONS ignored
Warning: card / ignored
Warning: card &CELL ignored
Warning: card / ignored

     Current dimensions of program PWSCF are:
     Max number of different atomic species (ntypx) = 10
     Max number of k-points (npk) =  40000
     Max angular momentum in pseudopotentials (lmaxx) =  4

     Atomic positions and unit cell read from directory:
     out/mp-2114.save/
     Atomic positions from file used, from input discarded
 
 
     R & G space division:  proc/nbgrp/npool/nimage =       8
     Subspace diagonalization in iterative solution of the eigenvalue problem:
     one sub-group per band group will be used
     scalapack distributed-memory algorithm (size of sub-group:  2*  2 procs)

 
     Parallelization info
     --------------------
     sticks:   dense  smooth     PW     G-vecs:    dense   smooth      PW
     Min         157     157     45                 3639     3639     558
     Max         158     158     46                 3641     3641     560
     Sum        1261    1261    361                29123    29123    4477
 
     Using Slab Decomposition
 


     bravais-lattice index     =            2
     lattice parameter (alat)  =       9.2535  a.u.
     unit-cell volume          =     198.0857 (a.u.)^3
     number of atoms/cell      =            2
     number of atomic types    =            2
     number of electrons       =        16.00
     number of Kohn-Sham states=         1200
     kinetic-energy cutoff     =     106.0000  Ry
     charge density cutoff     =     424.0000  Ry
     Exchange-correlation= PBE
                           (   1   4   3   4   0   0   0)

     celldm(1)=   9.253465  celldm(2)=   0.000000  celldm(3)=   0.000000
     celldm(4)=   0.000000  celldm(5)=   0.000000  celldm(6)=   0.000000

     crystal axes: (cart. coord. in units of alat)
               a(1) = (  -0.500000   0.000000   0.500000 )  
               a(2) = (   0.000000   0.500000   0.500000 )  
               a(3) = (  -0.500000   0.500000   0.000000 )  

     reciprocal axes: (cart. coord. in units 2 pi/alat)
               b(1) = ( -1.000000 -1.000000  1.000000 )  
               b(2) = (  1.000000  1.000000  1.000000 )  
               b(3) = ( -1.000000  1.000000 -1.000000 )  


     PseudoPot. # 1 for N  read from file:
     /usr/scratch4/magr4985/MG/HTDF/pseudo/SG15/N.upf
     MD5 check sum: c233fa8df51455e992258b7c3dee8a9f
     Pseudo is Norm-conserving, Zval =  5.0
     Generated using ONCVPSP code by D. R. Hamann
     Using radial grid of  602 points,  4 beta functions with: 
                l(1) =   0
                l(2) =   0
                l(3) =   1
                l(4) =   1

     PseudoPot. # 2 for Y  read from file:
     /usr/scratch4/magr4985/MG/HTDF/pseudo/SG15/Y.upf
     MD5 check sum: 1a657b90673a6e990374512484d9703d
     Pseudo is Norm-conserving, Zval = 11.0
     Generated using ONCVPSP code by D. R. Hamann
     Using radial grid of  602 points,  6 beta functions with: 
                l(1) =   0
                l(2) =   0
                l(3) =   1
                l(4) =   1
                l(5) =   2
                l(6) =   2

     atomic species   valence    mass     pseudopotential
        N              5.00    14.00670     N ( 1.00)
        Y             11.00    88.90590     Y ( 1.00)

     48 Sym. Ops., with inversion, found



   Cartesian axes

     site n.     atom                  positions (alat units)
         1           Y   tau(   1) = (   0.0000000   0.0000000   0.0000000  )
         2           N   tau(   2) = (  -0.5000000   0.5000000   0.5000000  )

     number of k points=     3  Gaussian smearing, width (Ry)=  0.0005
                       cart. coord. in units 2pi/alat
        k(    1) = (   0.0000000   0.0000000   0.0000000), wk =   0.2500000
        k(    2) = (   0.5000000  -0.5000000   0.5000000), wk =   1.0000000
        k(    3) = (   0.0000000  -1.0000000   0.0000000), wk =   0.7500000

     Dense  grid:    29123 G-vectors     FFT dimensions: (  45,  45,  45)

     Estimated max dynamical RAM per process >     138.10 MB

     Estimated total dynamical RAM >       1.08 GB

     The potential is recalculated from file :
     out/mp-2114.save/charge-density

     Starting wfcs are random

     Band Structure Calculation
     Davidson diagonalization with overlap

     ethr =  5.00E-06,  avg # of iterations =  9.7

     total cpu time spent up to now is      376.9 secs

     End of band structure calculation

          k = 0.0000 0.0000 0.0000 (  3695 PWs)   bands (ev):

   -28.8022  -8.4668  -8.4668  -8.4668  -0.8288  12.0321  12.0321  12.0321
    15.1655  15.1655  15.1655  16.1634  17.1402  17.1402  22.9533  35.3070
    35.3070  35.3070  36.5595  36.5595  36.5595  39.7108  39.7108  39.7108
    41.1925  41.1925  45.9997  45.9997  45.9997  46.0684  52.9822  52.9822
    58.4599  58.4599  58.4599  60.9005  61.3640  61.3640  61.3640  61.4463
    65.8856  65.8856  65.8856  67.5140  67.5140  67.5140  69.4203  69.4203
    69.4203  69.4895  69.4895  69.4895  72.6165  72.6165  73.4210  73.4210
    73.4210  74.4619  75.0861  84.0264  84.0264  84.0264  85.1671  85.1671
    97.1988  97.1988  97.1988  97.1991 101.8078 101.8078 101.8078 102.3347
   102.3347 102.3347 103.8434 103.8434 109.1207 109.1207 109.1207 109.8005
   114.0877 114.0877 114.0877 116.5293 116.5293 116.5293 117.1030 117.1030
   117.3193 117.3193 117.3193 118.2421 118.2421 118.2421 118.5524 119.6737
   119.6737 119.6737 120.0467 120.0467 120.0467 120.2654 120.2654 121.4646
   121.4646 121.4646 123.8869 123.8869 124.8332 124.8332 124.8332 125.7209
   128.3570 136.2658 136.2658 136.2658 137.3314 138.5661 138.5661 138.5661
   141.7827 141.7827 146.9886 146.9886 147.0076 147.0076 147.0076 147.0196
   147.0196 147.0196 147.0335 147.0335 147.0335 147.1323 147.1323 147.1323
   148.3713 148.3713 148.3713 148.8669 148.8669 151.9432 159.5451 160.2420
   160.2420 160.2420 160.4625 160.4625 160.4625 162.7903 164.1799 164.1799
   164.1799 164.6561 164.6561 164.6561 165.6730 165.6730 165.6730 165.8491
   165.8491 165.8491 171.2773 172.0185 172.0185 172.0964 172.0964 172.0964
   172.2138 185.2782 185.2782 185.3108 185.3108 185.3108 185.3859 185.3859
   185.3859 188.4564 188.4564 188.4564 194.7585 194.7585 194.7585 195.4734
   203.0643 203.0643 203.0643 203.9804 203.9804 205.0858 205.0858 205.0858
   205.3700 206.1351 206.1351 206.1351 206.7694 206.7694 207.8620 207.8620
   207.8620 208.0289 208.0289 208.0289 210.2345 211.6781 211.6781 211.6781
   212.0606 212.0606 212.7272 212.7272 212.7272 213.2227 213.6069 213.6069
   214.3149 215.4514 215.4514 215.4514 215.8872 215.8872 215.8872 217.0591
   217.0591 217.0591 217.5231 217.5231 217.5231 218.4588 219.9498 219.9498
   219.9498 220.0453 220.0453 220.6997 220.6997 220.6997 221.6602 221.6602
   221.6602 222.2390 223.2841 223.2841 223.2841 223.4171 223.4171 224.1257
   224.1257 224.1257 224.7272 224.7272 224.7272 225.2073 225.2073 225.2073
   225.2639 225.2639 228.0553 238.4083 238.4083 238.4083 239.4694 239.4694
   241.2998 241.2998 241.2998 241.4677 241.4677 241.4677 241.5920 241.5920
   241.5920 241.7800 241.7800 241.7800 244.9012 249.1239 249.1239 249.2060
   249.2060 249.2060 249.2882 255.2817 255.2817 255.2817 255.3037 256.9729
   256.9729 256.9729 259.6559 263.4844 263.4844 263.6378 263.6378 263.6378
   264.1051 264.1051 264.1051 264.2180 264.2180 264.2180 264.3028 264.3028
   264.3028 264.4204 264.4204 268.9245 268.9245 268.9245 270.1463 270.4456
   270.4456 270.4456 272.2402 272.2402 272.2402 272.2762 272.2762 272.2762
   272.2888 272.2888 272.2888 272.2953 272.2953 272.4414 272.4414 272.4414
   272.4677 272.4677 274.6113 284.3339 284.3339 284.3339 291.2917 291.2917
   293.2676 293.4584 293.4584 293.4584 293.6429 295.3813 295.3813 295.3813
   297.4214 297.4214 297.4214 297.8780 297.8780 298.0569 298.0569 298.0569
   299.9959 301.2768 301.2768 301.2768 301.7919 310.2737 310.2737 310.2737
   313.4662 313.4662 313.4662 313.8566 313.8566 313.8566 314.1120 314.1120
   314.1120 314.5893 314.5893 314.5893 316.9716 316.9716 316.9716 317.0713
   317.3199 317.3199 317.3199 317.3357 317.3357 317.5148 317.5148 317.5148
   317.6070 317.6070 317.7425 317.7425 317.7425 317.7598 317.7598 317.7598
   319.6974 319.6974 319.8701 319.8701 319.8701 320.0004 320.1585 320.1585
   320.1585 320.2369 320.2369 320.2369 322.3304 322.3304 322.3687 322.3687
   322.3687 322.4234 328.8690 336.8202 337.6264 337.6264 337.6264 337.9792
   337.9792 337.9792 340.4048 340.8899 340.8899 341.1535 341.1535 341.1535
   341.4872 341.4872 341.4872 341.9463 341.9463 341.9463 342.0836 342.0836
   342.0836 342.6845 342.6845 345.8428 345.8428 345.8428 347.4237 347.4237
   347.4237 347.5178 347.5178 347.5178 347.5751 347.5751 347.5849 347.5849
   347.6372 347.6372 347.6372 347.6804 347.6804 347.6804 349.7532 349.8348
   349.8348 349.8348 349.9553 349.9553 349.9553 350.1114 354.4647 354.4647
   354.4647 354.6657 354.6657 355.6023 355.6023 355.6023 356.0682 356.0682
   356.0682 356.0714 356.8642 356.8642 356.8642 358.3201 358.3201 358.3201
   358.3696 358.8997 358.8997 358.8997 360.6456 360.6456 360.9053 360.9053
   360.9053 361.3775 365.7812 365.7812 366.1454 366.1454 366.1454 366.8381
   366.8381 366.8381 366.8891 366.8891 366.8891 367.1872 367.2388 367.2388
   367.2388 367.2459 367.2459 367.9088 367.9088 367.9088 368.0155 368.0155
   368.0954 370.2836 370.2836 370.2836 370.3070 370.3070 370.3070 370.4368
   370.4368 370.4368 370.4687 370.4687 370.4687 371.9572 372.0107 372.0107
   372.0107 372.0254 372.0254 379.7366 379.7366 379.7366 384.7591 384.7591
   391.3044 406.3278 406.3278 406.3278 409.3334 410.3593 410.3593 410.3593
   410.3618 411.1765 411.1765 411.1765 411.5686 411.5686 411.5686 411.5744
   411.5744 411.5744 411.6271 411.6271 411.6271 411.8910 411.8910 412.4129
   412.4129 412.4129 413.0345 413.0345 415.1963 415.1963 415.1963 415.3519
   415.3629 415.3629 415.3629 415.4400 415.6886 415.6886 416.7005 416.7005
   416.7005 416.7375 416.7375 416.7375 416.8330 416.8330 416.8330 416.9419
   416.9419 416.9419 423.6059 423.6059 423.6091 423.6091 423.6091 423.6412
   423.6412 423.6412 423.7843 423.7843 423.7843 423.8306 423.8306 423.8306
   423.8771 423.8771 424.4561 424.4561 424.4571 424.4571 424.4571 424.4920
   425.2537 434.5375 434.5375 434.5375 434.7388 434.7388 434.7388 436.1665
   436.1976 436.1976 437.9694 437.9694 437.9694 442.8698 442.8698 442.8698
   445.5762 445.6475 445.6475 445.6475 445.6938 445.6938 446.3479 446.3479
   446.3479 446.3547 446.3547 446.3547 446.4374 446.4374 446.4374 446.4691
   446.4691 446.4691 447.5660 447.5660 448.3935 449.9447 449.9447 449.9447
   454.3227 454.3227 454.3227 455.0573 455.0573 455.5957 455.5957 455.5957
   459.8361 459.8361 459.8361 459.8651 459.8651 459.8651 459.8924 459.8924
   459.8924 459.9050 460.4003 460.8703 460.9359 460.9359 461.4651 461.4651
   461.4651 462.3575 462.3575 462.3575 462.5658 462.5658 462.5658 462.5664
   462.5664 463.6899 463.9185 463.9185 463.9185 464.4930 464.4930 464.4930
   464.7993 468.7401 468.7401 468.7401 470.7784 470.7784 470.7916 470.7916
   470.7916 470.8524 470.8524 470.8524 470.8865 470.8865 470.8865 470.8947
   471.1750 471.1750 471.1750 471.3163 471.3163 471.9749 471.9749 471.9749
   473.4912 473.7478 473.7478 473.7478 473.8191 473.8191 473.8191 474.0285
   474.0285 474.0285 474.0485 474.0485 475.0518 486.2590 486.2590 486.2590
   491.7632 491.7632 492.0906 492.0906 492.0906 492.4399 492.4399 492.4399
   492.4755 492.4787 492.4787 492.4787 492.5565 492.5565 492.5565 492.9362
   492.9362 493.0077 493.0077 493.0077 493.0591 493.6722 493.6722 493.6722
   498.9098 498.9559 498.9559 505.0884 505.0884 505.0884 505.5032 508.1078
   508.1078 508.1078 508.6186 508.6186 508.6369 508.8517 508.8517 508.8517
   508.8858 508.8858 508.8858 509.1400 509.1400 509.1400 511.6925 511.6925
   511.6925 512.1265 512.1265 514.3495 514.3495 514.3495 514.4431 514.4431
   514.4431 514.5846 514.5846 514.5846 514.7284 514.7284 514.7284 514.8250
   514.8250 515.1068 515.1068 515.1068 515.2785 515.2785 515.2785 515.6077
   515.6077 515.6077 515.6595 515.6595 515.6595 515.8221 515.8221 516.5413
   516.5413 516.5413 517.5276 517.7499 517.9614 517.9614 517.9614 518.1734
   518.1734 518.1734 518.3847 518.9071 518.9071 518.9071 519.7350 519.7350
   519.9593 519.9593 519.9593 519.9733 519.9733 519.9733 520.2705 520.2705
   520.2705 520.7460 520.7460 520.7460 521.8890 521.8890 522.9537 523.1003
   523.1291 523.1291 523.1291 523.1417 523.1417 524.8497 524.8497 524.8829
   524.8829 524.8829 524.8883 524.8883 524.8883 524.8964 524.8964 524.8964
   524.9442 524.9442 525.0161 525.0161 525.0161 525.4714 525.4714 525.4714
   525.4727 525.4742 525.4742 525.4742 525.4812 536.1529 536.1529 536.1529
   537.9651 539.9261 539.9261 539.9261 540.1468 548.2352 548.2352 548.2352
   548.3306 548.3306 548.3516 548.3516 548.3516 548.4473 548.4473 548.4473
   548.5000 548.5000 548.5000 548.5221 548.5221 552.0845 552.0845 552.0845
   555.9781 555.9781 555.9781 556.1336 556.1336 556.1336 556.1502 556.1502
   556.1502 556.6926 558.4215 558.4215 558.4215 558.8992 558.8992 560.8693
   560.8693 560.8693 560.9446 561.1286 561.1286 566.9849 566.9985 566.9985
   567.0523 567.0523 567.0523 570.6727 570.6727 570.6727 570.6729 570.6729
   570.6729 570.6737 570.6737 570.6737 570.7008 570.7008 570.7008 572.5091
   572.5106 572.5106 572.5106 572.5119 572.5119 592.0695 592.0695 592.0695
   593.6366 593.6366 593.6366 593.6649 593.7108 593.7482 593.7482 593.7482
   593.8266 593.8266 593.8266 593.8468 593.8468 593.8468 593.9247 593.9247
   595.2124 595.2124 595.6326 595.6326 595.6326 597.6975 597.6975 597.6975
   597.8137 597.8137 597.8137 598.7190 600.4602 600.4602 600.4602 600.6453
   600.6453 603.9844 603.9844 603.9844 606.0118 607.7199 608.8663 608.8663
   608.8663 610.0154 612.0072 612.0072 612.0970 612.0970 612.0970 613.4190
   613.4190 613.4190 613.8705 613.8705 613.8705 613.9874 613.9874 613.9874
   614.0019 614.0019 614.0019 614.0329 614.0329 614.3536 614.3536 614.3536
   614.7855 615.1391 615.1391 615.1391 615.5766 616.5488 616.5488 617.1925
   617.1925 617.1925 617.3857 617.3857 617.3857 617.4350 617.4350 617.4393
   617.4393 617.4393 617.8231 617.8231 617.8231 617.8709 617.8709 617.8709
   618.2320 618.2320 618.4053 618.4053 618.4053 618.6946 618.6946 618.6946
   618.7770 618.8337 618.8337 618.8472 618.8472 618.8472 618.8674 618.8674
   618.8674 619.5239 619.5239 619.6766 620.2484 620.3270 620.3270 620.3270
   620.4080 620.4080 620.4080 620.4634 620.4634 620.4634 621.9832 621.9832
   621.9832 624.6873 624.6873 639.4699 639.4699 639.4699 640.7875 641.4794
   641.4794 641.4794 641.6515 641.6515 641.6515 641.7244 641.7592 641.7592
   641.8997 641.8997 641.8997 641.9047 641.9047 641.9047 642.0585 642.0585
   642.0585 642.0848 642.0848 642.0848 642.4352 642.4352 642.8841 642.8841
   642.8841 643.6436 643.6436 643.6436 643.8242 643.8242 643.8242 643.9371
   646.0273 646.0273 647.7423 647.9329 647.9329 647.9329 648.0209 648.0209
   648.0209 648.0753 648.0753 648.0753 648.0775 648.0775 648.0775 648.1145
   648.1145 648.1541 648.1982 648.1982 648.1982 648.2039 648.2039 648.2039
   649.0074 649.0074 649.0074 649.8173 649.8173 650.3300 650.3300 650.3300
   650.4326 650.6550 650.6550 654.7399 654.7399 654.7399 656.7989 656.7989
   656.7989 657.7697 657.7697 658.0578 658.2762 658.2762 658.2762 658.3109
   658.3109 658.3109 658.4587 658.4587 658.4587 658.5910 660.5959 660.5959
   660.5959 664.2232 664.2232 664.3636 664.4558 664.4558 664.4558 664.7221
   664.7221 664.7511 664.7511 664.7511 664.9928 664.9928 664.9928 665.1649
   665.1649 665.1649 665.4572 665.4641 665.4641 665.4641 665.6946 665.6946
   666.4819 666.4819 666.4819 668.9671 669.1391 669.1391 669.1391 669.5200
   670.0060 670.0060 670.0060 670.1003 670.1003 670.2030 670.2030 670.2030

          k = 0.5000-0.5000 0.5000 (  3648 PWs)   bands (ev):

   -28.6851  -9.5693  -8.5491  -8.5491   0.8952   7.9743   9.7893   9.7893
    17.6912  18.3704  18.3704  18.7533  22.1438  22.1438  25.8019  25.8019
    25.8792  31.9411  34.6826  34.9835  34.9835  39.2970  39.2970  40.0849
    43.5766  43.5766  46.6253  47.1719  47.1719  47.8695  51.1059  52.7275
    52.7275  55.6622  55.6622  55.7812  58.7832  59.2304  63.3024  63.3024
    65.0834  65.0834  66.8763  67.4795  68.8176  68.8176  69.5595  69.5595
    70.5256  70.5256  71.7783  74.2824  79.5564  83.4099  83.7663  83.7663
    85.0489  85.0489  86.1229  86.1229  86.4547  86.4547  87.2660  87.2660
    88.6271  88.7059  89.7119  89.7333  90.1652  90.1652  96.9235  97.6297
   100.5157 100.5157 101.7849 101.7849 102.2547 102.2547 103.1965 103.6504
   104.2446 104.2446 105.9157 105.9157 110.7058 113.1269 113.1269 113.2311
   113.7512 114.5858 114.5858 115.8776 115.8776 116.6297 118.4588 118.8342
   118.8342 120.4387 123.9809 123.9809 125.1975 126.0867 127.8006 127.8006
   128.2856 128.2856 128.5334 129.4967 132.2849 132.2849 134.4076 134.4076
   134.5015 135.2114 137.2399 137.2399 137.3248 138.4377 138.4377 139.1290
   140.9900 140.9900 142.5496 142.5496 143.8297 145.1371 145.1371 146.8183
   146.8446 148.4584 149.3748 149.3748 151.9342 151.9342 152.7100 152.7100
   153.0104 153.7339 155.3531 156.3058 156.3058 157.0961 157.5625 157.5625
   157.6818 161.2047 161.2047 161.7027 161.7027 163.9346 164.2164 164.2288
   164.6745 164.6745 165.3797 165.3797 168.8849 168.8849 172.7311 173.1234
   173.1234 173.7868 173.7868 173.8010 176.5047 176.5047 176.7146 177.2762
   177.3665 177.3665 178.2271 178.2271 179.4181 183.1167 183.5191 183.5191
   186.1159 186.5011 187.1597 187.1597 187.5217 187.5217 189.8580 190.5450
   192.8009 192.8009 193.6668 194.8674 196.0650 196.0650 197.1282 197.1282
   198.0172 198.0172 198.6050 199.6951 199.8808 199.8808 200.0185 200.0185
   200.3974 200.4211 200.5348 200.5348 200.9718 201.7074 201.7074 201.8162
   201.8162 205.2748 207.1202 207.6621 207.6621 211.1753 211.1753 212.4513
   212.4921 213.5406 213.5516 213.6824 213.6824 214.6925 214.6925 215.3381
   215.3381 215.5432 215.5432 216.3975 216.3975 216.6742 220.5232 220.5232
   221.1911 221.7742 222.5600 222.9895 225.2148 225.2148 225.7377 225.7377
   226.2331 226.8767 228.4702 228.4702 230.4218 232.7445 233.0295 233.0295
   235.0449 235.6760 235.6760 235.8094 236.2142 236.2257 236.2257 237.0454
   237.0454 238.4995 238.9148 238.9148 238.9408 238.9408 240.3650 240.3650
   241.8611 241.9343 241.9343 242.2276 242.2276 242.2724 242.3814 243.4381
   245.3638 245.3638 245.4078 250.8093 250.8093 254.0384 256.2576 256.2576
   257.3603 257.7080 257.7080 260.3037 260.6081 260.6081 260.8345 260.9360
   260.9360 261.0011 261.0011 261.3976 261.4568 261.8269 261.8286 262.3454
   262.3454 262.9344 262.9344 263.5130 263.5130 266.3113 269.2633 269.2633
   269.9438 271.3024 272.1035 272.1035 272.2209 272.6141 272.6141 273.3118
   273.3118 273.4181 273.8576 273.8576 273.9342 273.9485 273.9485 274.6501
   274.7452 274.9695 274.9695 275.5396 275.5396 276.9669 277.7587 278.1535
   278.1535 278.1566 278.1566 280.2140 280.2148 284.9503 289.2894 289.2894
   289.3177 289.3177 289.3769 289.5676 289.5691 289.5691 290.3800 290.3800
   292.4528 293.3842 293.3842 294.7154 294.7154 294.7313 295.1736 295.1736
   296.3902 296.4292 296.4876 296.4876 296.8099 296.8099 298.4785 298.8138
   298.8138 298.9644 298.9657 298.9657 299.0918 299.2230 300.7268 300.7268
   301.5906 301.5906 301.9206 301.9988 301.9988 302.6569 305.6561 305.6561
   312.3000 312.3733 312.3733 312.7124 313.6789 313.7789 313.7789 313.8785
   313.8785 314.3098 314.3098 314.3313 314.3313 314.5083 314.5361 317.1730
   321.7372 321.7372 321.7775 321.9715 322.3873 322.3873 322.6280 322.6280
   323.0442 323.8442 323.8442 325.6867 326.3603 327.2488 327.3219 327.3219
   327.3613 327.3613 327.4271 329.2481 329.4423 329.4423 331.8076 332.3858
   332.4365 332.4365 332.8647 334.2744 334.2744 334.2753 334.2753 334.6155
   334.6155 335.9704 336.2523 336.2523 336.5139 336.5139 336.8687 336.8687
   336.9137 337.2451 337.7014 342.0701 342.0701 342.0963 342.0963 343.7361
   344.0819 344.0819 344.5164 344.5164 344.8108 347.9059 350.0640 350.3469
   350.3469 350.3625 350.3625 350.5167 350.8347 350.8347 350.8843 350.8843
   350.9865 354.5417 355.7445 355.7874 355.7874 355.9570 355.9570 356.0142
   357.3854 359.6137 359.6137 359.6991 359.6991 361.1222 361.1222 361.1856
   361.5468 361.5468 362.1373 362.1745 363.9346 364.0634 364.0634 364.4336
   364.6285 364.6285 368.9032 372.5038 372.5038 372.8866 373.0629 373.0629
   373.3806 373.3806 373.4693 373.4762 373.5122 373.6447 373.7303 373.7303
   374.6468 374.6468 377.1217 377.1217 377.2412 377.3601 377.3856 377.3856
   377.7772 380.5320 380.5320 381.5591 381.5591 381.6984 382.1497 382.2094
   382.2094 383.7206 383.7206 383.8953 383.9899 384.3624 384.3624 386.3450
   386.4657 386.5669 386.5726 386.5726 386.7481 386.7481 386.9061 387.0027
   387.0027 387.0116 387.1297 387.1297 387.1365 388.0038 388.0038 388.0804
   388.0804 390.4173 390.4173 390.5190 390.5190 390.5229 390.6243 394.2625
   398.4727 398.5308 398.6372 398.6372 398.9612 398.9612 400.6973 400.8341
   400.8341 401.1328 401.1328 401.5928 401.5988 401.6760 401.6760 401.7287
   401.7287 402.8024 403.4566 403.4566 403.4669 403.4669 403.5153 403.5219
   410.8345 410.8345 410.8973 410.9360 411.0941 411.0941 411.5880 412.3410
   412.3410 413.2421 413.2421 414.2967 416.4966 417.2033 419.5882 419.5882
   419.6154 419.6154 420.5427 420.8147 420.8147 422.0624 422.0624 422.2309
   422.2309 422.2408 422.2479 422.2734 422.2734 422.6831 424.2707 424.2707
   425.3352 425.3352 425.6273 426.6565 427.4032 427.4032 427.4058 427.4058
   429.8344 429.8351 431.7555 432.4774 432.4774 434.2886 434.2886 434.7027
   435.3096 435.3096 435.6203 435.6976 436.2751 436.2883 436.2883 436.3737
   436.6716 436.6716 437.3171 437.3171 437.4077 437.4077 438.2005 439.4008
   439.4008 442.1023 442.1023 442.1093 442.1093 442.3391 442.3401 442.5190
   443.5741 444.5268 448.0971 448.0971 449.9984 450.1031 450.1031 453.0691
   453.0785 453.0785 453.0966 453.0966 456.5830 456.5830 456.6021 456.9357
   457.9949 457.9949 458.3647 458.5772 458.5772 458.8972 459.1208 459.1208
   459.8904 459.8904 460.1153 460.2298 460.2298 460.2476 460.5791 460.9376
   460.9376 461.1687 461.1687 461.3499 462.3103 462.4694 462.4694 462.7851
   462.8519 462.8519 462.8778 462.8778 463.1290 463.5490 463.5490 465.0486
   465.2378 465.2378 465.6944 465.7273 465.7273 466.4206 466.8447 466.9434
   466.9434 466.9833 466.9833 467.2489 469.1929 469.1929 470.0750 470.0750
   470.1457 472.6692 474.1912 474.1912 474.4570 474.5923 474.9915 474.9915
   477.3312 477.3808 477.3808 477.4084 477.4398 477.4398 479.6839 481.7146
   481.7146 482.5517 482.5517 483.5638 484.8104 484.8104 484.9363 484.9363
   485.0056 485.4512 485.8682 485.9305 485.9305 486.4480 486.7485 486.7485
   487.1176 487.1176 487.2007 487.2078 487.2607 487.2607 490.7395 490.8569
   490.8569 491.0479 491.0479 491.3705 491.4037 491.4037 491.8678 491.8678
   491.8683 492.7132 496.7075 497.8218 497.8218 497.8622 498.1146 498.1146
   498.2684 498.2684 498.4988 498.4988 499.2958 499.6408 501.5905 501.5996
   501.5996 501.9214 501.9796 501.9926 501.9972 501.9972 502.0713 502.0713
   502.6080 502.6080 503.4366 506.6158 508.3470 508.3470 508.4259 509.4113
   509.6370 509.6370 512.9808 512.9808 513.9632 514.9523 514.9628 514.9628
   514.9981 515.0588 515.0588 515.1313 515.1313 515.7655 515.7655 516.3497
   516.7755 516.7755 518.0982 518.0982 520.9067 520.9067 521.6351 522.2117
   522.2371 522.2569 522.2569 522.4418 522.9422 522.9422 522.9961 523.0179
   523.0179 523.4074 523.5867 524.3995 524.3995 525.6612 525.6612 525.7261
   525.7261 526.2904 528.2021 528.2280 528.2280 528.2399 528.4117 528.4117
   530.1448 532.0569 532.0569 532.7722 532.7722 533.7610 536.6558 536.6575
   536.7015 536.7015 536.7413 536.7413 536.9681 537.2476 537.2476 537.2969
   537.3909 537.3909 537.5281 537.9769 537.9769 538.0844 538.0844 539.2827
   542.2934 542.2934 542.2954 542.2955 542.2955 542.2993 546.2292 547.8556
   547.8556 548.1663 548.2169 548.2169 548.3520 548.3520 548.4807 548.4902
   548.6912 548.6912 549.0450 549.0450 549.0498 549.2215 549.2215 549.3021
   550.7693 551.0182 551.0182 551.5319 552.2090 552.2090 553.6290 553.6290
   553.6383 553.6390 553.8450 553.8450 559.3748 561.5482 562.2952 562.7007
   562.7007 562.8426 562.8449 562.9774 562.9774 563.1266 563.1266 563.1314
   563.4663 563.4663 563.4881 563.4881 564.2225 564.2242 564.2242 564.5423
   569.5786 569.5786 569.9514 570.2333 570.2333 570.5699 571.3556 571.4718
   571.4718 571.6638 571.6638 571.8042 571.8055 571.9106 572.1351 572.1351
   572.5493 572.5493 572.6130 572.6130 572.6834 572.9610 573.0677 573.0677
   573.1115 573.1115 573.7023 574.2648 575.3766 575.3786 575.5228 575.5228
   575.5531 575.5531 577.6621 577.6621 577.6896 577.7120 577.7120 577.7193
   578.1497 578.1497 578.3762 578.3762 578.4332 578.4576 578.5120 578.5120
   589.3658 589.6185 589.6185 589.7438 589.8597 589.8597 590.0837 590.0837
   590.1082 590.1082 590.5179 590.5634 590.5634 590.5727 590.5753 590.6710
   590.6710 590.6849 594.3597 594.4599 594.5979 594.5979 594.9519 594.9519
   596.5234 596.5234 596.6969 596.6969 596.7479 596.9853 597.1657 598.8645
   598.8645 599.7658 599.8032 599.9770 599.9770 600.0019 600.0019 600.3597
   600.8289 601.0208 601.0836 601.0836 601.1584 601.1584 602.0481 602.0481
   603.2404 603.2404 603.2717 603.6205 604.5676 605.6327 605.6327 606.7306
   606.7306 607.9591 607.9591 608.0614 611.2634 611.2634 611.2949 611.2949
   611.7146 611.9856 611.9856 613.2655 613.2965 613.2965 613.8547 613.8551
   614.0692 614.1479 614.3486 614.3486 614.5631 614.5925 614.5925 614.6651
   614.7627 614.7948 614.7948 614.8783 614.8890 614.8890 615.4910 615.4910
   615.8161 615.8161 618.8321 618.8321 618.8364 618.8364 620.4692 620.4692
   623.2238 623.2473 623.2473 623.3655 623.6291 623.6291 628.0352 628.1685
   628.1685 628.7007 629.0097 629.0097 629.5157 629.5157 631.7116 632.0474
   632.0639 632.0639 632.7894 633.9108 633.9108 634.7087 634.9664 634.9664
   634.9948 634.9948 635.0031 635.0302 635.6574 635.6574 635.9067 635.9546
   635.9546 636.4341 636.9964 637.5050 637.5231 637.5231 637.5754 637.5754
   637.9228 637.9228 638.4269 638.6439 638.6439 639.1393 641.6273 641.6273
   643.0261 644.5548 647.1263 647.2158 647.2158 647.5175 647.5175 647.7974
   648.1941 648.2788 648.5311 648.5311 648.6734 648.6734 648.7223 648.7818
   648.8280 648.8280 648.9086 649.2420 649.2420 649.3314 649.3314 649.5959
   650.1321 650.1321 650.5258 651.4224 651.4224 652.9389 652.9389 653.3756
   653.3756 653.7194 653.7194 653.7573 653.9285 654.0094 654.0094 654.2519
   654.2519 654.3405 654.6032 654.6032 654.8055 654.8889 654.8889 654.9372
   655.1248 655.1252 655.1441 655.1441 655.3322 655.3322 659.4871 660.3219
   660.3219 660.5402 661.8200 661.8200 665.8751 665.8841 665.8841 665.8956
   665.8974 665.8974 670.7447 672.6434 672.6434 674.0192 674.0192 674.6747
   674.6758 674.6758 674.7045 674.7073 674.9483 675.0564 675.2884 675.2884
   675.3785 675.3785 675.8855 675.8855 675.9027 675.9072 675.9072 675.9665
   676.1234 676.1295 676.1295 676.2338 677.1091 677.1091 680.1666 680.1666

          k = 0.0000-1.0000 0.0000 (  3612 PWs)   bands (ev):

   -28.6482  -9.2991  -8.7865  -8.7865  -0.4125  10.5117  11.6340  11.6340
    12.2285  18.8603  19.2129  19.8993  19.8993  22.2720  23.4390  28.4651
    28.4651  31.6675  32.2507  35.8458  35.8458  38.9896  41.6342  42.1700
    42.7434  42.7434  42.9488  43.9363  43.9363  46.3014  52.9586  52.9586
    53.0842  54.6445  54.9032  55.8104  60.0169  60.3699  60.3699  63.4250
    65.3042  65.3042  66.8954  69.5095  69.5095  70.4280  70.4941  72.5799
    74.5230  74.5651  74.5651  78.3662  78.3662  80.4011  81.4703  83.4723
    83.4988  84.4274  84.4274  84.5074  85.7674  86.6494  86.6494  88.3785
    88.3785  88.7148  88.9913  89.2510  91.5925  98.1003  98.2233  99.5834
    99.5834  99.8907  99.8907 100.0951 101.2036 101.6017 102.9036 102.9036
   104.4950 104.4950 105.0001 106.0935 106.2470 107.9769 107.9769 109.0496
   109.0496 111.3184 115.1950 115.8089 115.8158 115.8158 117.2250 121.9281
   123.3980 123.3980 123.5330 124.2821 124.2821 124.5536 124.5770 124.7617
   128.5734 130.8238 131.0086 131.0086 131.6252 131.6252 131.8319 132.3893
   134.3072 134.3072 134.9639 136.6110 139.2445 139.7894 139.7894 139.8585
   140.3820 140.3820 141.3514 143.9724 144.4821 145.2604 145.2604 145.7197
   147.6345 151.1154 152.0056 152.0056 152.9930 152.9930 156.5334 156.5595
   156.6352 157.2047 157.2563 160.5711 160.6896 160.6896 160.7515 161.4475
   161.4475 161.9805 161.9805 163.1772 163.8218 163.9983 167.3671 169.2716
   169.2716 170.2951 170.2951 170.5291 171.1265 172.0069 172.0069 172.5552
   173.2079 173.4287 174.7754 174.7754 175.7145 175.7145 176.0863 177.5919
   177.7418 177.9238 177.9481 177.9481 179.3551 179.3562 179.3562 179.5491
   179.9694 179.9694 180.4080 181.7976 181.9310 183.5929 184.6293 186.8921
   186.8921 187.6502 187.9591 188.2013 188.2013 188.5858 189.1453 190.9637
   191.2291 191.2291 196.2881 196.2881 199.3579 199.3766 200.1268 200.1268
   200.4969 201.2495 201.2495 202.1581 204.0440 204.6650 204.7291 204.7291
   204.8509 205.7073 206.5077 206.5853 207.3387 207.3387 207.4658 207.6793
   207.6793 207.7026 207.9292 207.9292 208.3628 209.9453 210.5479 211.4988
   212.7176 213.7628 213.7628 221.9404 227.6560 227.6560 228.3703 228.6052
   228.6445 229.5744 229.5744 229.6748 229.6958 230.9205 230.9205 231.6123
   232.0869 232.0869 232.1866 232.1866 233.4058 233.6684 233.6812 233.6812
   233.6967 233.9073 233.9435 233.9435 239.3030 239.4593 239.5216 239.5216
   239.7722 240.8353 240.8488 240.9166 240.9166 242.3577 242.9666 243.4534
   243.4534 244.7291 245.1966 245.1966 246.8188 247.1691 248.3982 249.0739
   249.0739 249.1825 250.1007 250.1007 250.3325 252.3529 252.5531 253.9763
   253.9763 254.1433 254.2052 254.3072 254.3072 255.9086 256.0486 256.0486
   256.1903 256.6512 256.8835 256.8835 257.0010 260.2321 260.6413 260.7094
   261.0451 261.0451 261.0519 261.0519 261.2417 261.3543 267.1667 269.8800
   269.8800 270.5865 271.5141 271.5141 271.9245 271.9245 272.0716 272.0852
   272.8758 272.8758 273.4960 273.5147 274.6527 276.2013 276.5949 276.5949
   276.7116 276.7322 276.7322 277.1079 277.1600 278.4879 278.5384 279.4160
   279.6371 279.6371 279.7632 279.7632 282.1038 282.1204 285.6829 285.6875
   287.1270 287.1270 287.6642 289.0616 289.0616 289.0899 289.0899 289.5398
   290.4799 290.6869 290.7043 294.8984 295.5291 297.2948 297.2948 297.6719
   298.0053 298.3244 298.3244 299.2766 299.5519 300.0358 300.0358 300.0476
   300.1685 300.1685 300.4628 300.5097 300.7243 300.8650 300.8650 301.1823
   301.5574 301.5574 302.9053 304.0320 304.5366 304.5366 304.5439 310.7086
   310.8279 310.8279 310.9430 310.9585 311.1199 311.1199 311.1294 311.1294
   311.2373 311.2950 311.4235 311.7370 315.8821 315.8821 317.3613 319.0870
   319.3711 322.2670 322.2670 322.4985 322.5105 322.5105 322.5360 322.5360
   322.6730 323.3713 324.3596 324.7046 324.7046 324.8252 325.2101 325.2909
   325.4301 325.4301 327.0611 327.0611 328.3846 330.4594 330.5133 330.5367
   331.1568 331.1993 331.2280 331.5497 331.5497 331.7731 331.7731 332.3749
   332.7168 332.7168 332.9639 332.9727 332.9727 332.9796 333.3427 335.9055
   335.9882 336.0646 336.0646 336.6857 337.2686 337.3735 337.3735 337.5130
   338.0935 338.1194 338.1194 338.1212 344.8464 346.7636 346.7636 349.0043
   349.2047 349.2941 349.2941 352.5044 352.5056 352.5185 352.9670 352.9670
   352.9795 352.9795 353.1487 353.6219 354.4682 354.4682 355.4826 355.4826
   355.4901 355.7023 355.7046 358.0624 362.6486 363.3370 363.3370 363.7099
   363.8014 364.2030 364.8050 364.8050 367.9508 368.1773 368.1773 371.6260
   371.9844 371.9844 372.5408 372.8257 373.0884 374.0995 374.0995 375.7279
   375.8277 375.8277 375.9252 376.5476 376.7653 376.9975 376.9975 378.5888
   378.5888 378.7034 378.8178 381.4538 381.7110 381.7110 382.6780 382.9097
   383.0058 383.0058 383.7830 383.9216 383.9216 384.3643 384.4450 384.5546
   384.5546 384.5828 384.5963 384.6595 384.8774 384.8774 384.9292 385.6793
   386.0003 386.1162 386.1405 386.1405 386.2138 386.2352 386.2352 386.2443
   386.5229 393.0822 393.7800 396.0066 396.0066 397.4112 397.4112 397.8846
   397.9769 399.1135 399.3873 399.3873 399.4461 399.6476 400.2567 400.2567
   400.3461 400.5003 400.6735 400.6735 400.7982 400.8121 400.8121 400.8194
   400.8341 402.2523 403.4758 403.4758 404.2313 404.7751 404.7751 404.8033
   404.8301 404.9009 405.0572 405.0572 405.2347 405.4809 405.4905 405.4905
   405.8758 406.1558 406.3821 406.6812 406.6812 408.1651 408.1651 408.2984
   408.2984 412.3419 413.8230 413.8258 413.8258 413.8584 413.8595 413.8963
   413.8963 413.9004 416.2029 416.2063 418.0305 418.0305 418.5132 419.0768
   420.7450 420.7450 421.3447 421.6305 422.0014 422.0014 422.5881 422.9372
   422.9401 422.9401 423.8728 424.2662 427.1563 428.4362 428.4590 428.7692
   428.7692 428.8853 428.8853 429.0358 429.1382 429.7835 429.7835 430.8426
   430.8426 431.0272 431.0751 431.0945 431.1964 431.6432 431.6432 431.9931
   432.0010 432.0469 432.0469 434.2696 435.1579 435.1579 436.2310 436.2836
   436.2836 436.2944 436.4133 436.4133 436.5212 436.5388 436.7429 439.3123
   444.5875 445.7185 445.7185 448.9481 448.9845 449.0472 449.3484 449.3484
   449.7039 449.7039 450.0579 450.3563 450.3563 450.8915 450.8915 451.8514
   454.4049 454.4617 454.5160 454.5358 454.6637 455.2700 455.2700 455.3095
   455.3144 455.3144 456.2485 456.4228 456.4228 456.5919 456.5937 456.7530
   457.0551 457.0551 457.1420 457.4100 457.6898 457.6898 457.8435 458.3306
   458.4362 458.4362 458.5452 458.9921 460.5608 460.5654 464.1240 464.1240
   464.1468 464.1468 465.9323 465.9335 468.2160 468.2160 468.4351 470.9632
   472.5083 472.5083 472.7990 474.3941 476.0316 476.0316 476.0531 476.3933
   476.6418 476.6418 476.7961 476.7961 476.9623 477.1787 477.1998 477.6502
   477.8017 477.8017 477.8200 479.0534 479.1969 479.4624 479.4624 479.6257
   480.0775 480.0775 480.0996 480.1022 480.1028 480.1060 480.1060 480.1689
   480.4030 480.4030 481.7474 482.9117 485.1238 485.1238 485.2547 485.2741
   485.3065 485.3065 485.3543 485.6486 485.7555 487.5496 487.5496 490.5564
   493.7666 493.7666 493.8659 495.8405 495.8405 495.8906 495.9722 496.1849
   497.4568 497.5259 499.3358 499.3358 499.3976 499.4124 499.9770 500.4225
   500.4225 501.7192 501.8413 502.0522 502.3236 502.3236 502.5377 502.5377
   503.0383 503.0843 506.1677 507.5782 507.6051 507.6051 507.6317 507.8539
   507.8578 507.8578 507.8837 508.3445 508.3445 508.9173 508.9335 508.9855
   508.9855 510.8456 511.5685 511.5685 511.5768 511.9280 512.9269 513.5718
   513.5718 514.0984 515.0573 516.8164 517.8275 519.2782 519.2782 521.4878
   521.4878 522.7010 522.7010 523.3439 523.8549 524.4143 525.1354 525.1354
   525.3467 525.3467 527.2495 528.9362 529.1788 529.5793 529.5793 529.7285
   529.7285 530.0607 530.4641 531.0381 531.2513 531.2513 531.3773 531.3889
   531.4027 531.9279 531.9829 532.6286 532.9383 532.9383 536.1327 536.1893
   536.4404 536.4404 536.6095 536.6095 536.7618 537.0322 537.6498 537.6498
   537.6956 538.1554 538.5563 538.5570 538.5669 538.5669 543.8451 544.2461
   544.2461 546.6666 547.1738 547.1738 547.8736 548.7354 549.0361 549.0361
   549.0388 549.0388 549.1016 549.2267 549.2679 549.2927 549.3862 549.5164
   549.5164 549.8762 549.8762 550.1429 550.1652 550.1652 550.2355 550.3481
   550.3774 550.3829 550.6569 550.8700 550.8700 550.9128 550.9128 551.1183
   551.1301 552.0377 552.4352 552.4736 552.6859 552.6907 553.0390 553.0872
   553.0872 553.1261 553.1261 553.8298 553.8298 554.1330 554.3619 554.3619
   554.6899 555.0538 555.0538 555.1740 555.1740 555.1900 555.1956 555.7474
   555.7482 555.7667 555.7667 556.2838 556.3055 556.4584 556.4584 556.5280
   557.5194 557.8890 557.8890 558.0307 558.1279 559.1554 561.4889 561.4921
   561.4921 561.5034 561.6109 561.6195 561.6195 561.6666 564.0572 564.0603
   564.2171 564.2171 564.3079 564.3079 564.3931 564.4043 575.5564 575.6165
   575.6165 575.6193 575.6361 575.6649 575.6649 576.3428 576.6194 576.7541
   576.8541 576.9132 576.9132 578.4718 578.8488 578.8488 580.6957 580.6957
   581.1582 582.7846 583.0850 583.1049 583.1049 583.1730 583.3531 583.3531
   583.7083 583.8897 583.8897 583.9537 584.2506 584.3422 584.3936 584.4227
   584.4251 584.4251 584.5279 584.5279 584.6041 584.6731 584.6731 584.6934
   584.7062 584.8337 585.0975 585.0975 585.1763 586.0015 595.3378 597.1815
   597.1815 597.7678 597.9884 597.9884 599.0517 599.0517 599.1502 599.2103
   599.3239 599.3239 599.4550 599.5370 599.7673 600.0787 600.5510 600.5510
   600.9417 601.4997 601.5230 601.5230 601.7490 602.5118 602.5501 602.5501
   603.1702 603.4042 603.5346 603.5703 603.5703 603.8448 605.4894 608.1053
   608.1053 608.2352 608.5334 608.5334 609.1152 610.0553 610.4773 610.4946
   610.6468 610.6468 610.8041 610.8159 611.0027 611.0027 613.9827 613.9827
   613.9885 614.0338 614.0398 614.0722 614.0722 614.1261 616.2617 616.2617
   616.4208 618.1148 619.9545 622.0236 622.2045 622.2058 622.2058 622.3975
   622.6559 622.6620 622.6620 623.8256 624.1847 624.1847 624.6747 625.0840
   625.4237 625.5668 625.9192 626.1739 626.1739 626.2464 626.2464 626.4115
   626.6998 627.2144 627.2144 629.4483 629.4659 629.4659 629.5436 629.5493
   629.8048 629.8048 630.0739 630.1127 630.6082 630.6555 630.9643 630.9643
   631.1302 631.1436 631.2863 631.2863 631.3632 631.3632 631.4039 631.4168
   633.3185 633.3185 633.7427 633.7427 633.8292 633.8468 633.8468 633.8677
   634.1453 634.1453 635.3821 635.5612 636.7417 636.7902 636.8800 636.8800
   642.2211 642.2215 643.8781 643.8781 643.8961 645.3340 646.9300 646.9300
   649.0629 649.2056 649.3733 649.3741 649.4382 649.4382 649.4789 649.5929
   649.6172 649.6172 649.6425 650.1615 650.1615 650.6708 652.5674 652.8038
   653.0680 653.0680 653.6963 653.6963 654.8848 654.9140 654.9140 656.7924
   656.8502 657.0137 657.0456 657.0456 657.6163 657.6222 657.6222 657.6286
   657.8827 658.1548 659.1575 659.1575 659.1912 659.2503 659.2944 659.2944
   659.3367 659.5396 659.6409 659.6409 659.7726 659.7726 659.7763 660.0175
   660.1551 661.5848 670.3248 672.6496 672.6496 672.9111 673.0227 673.0750
   673.2297 673.2297 673.7665 673.7665 674.5377 674.6171 674.6843 674.7316
   674.7316 675.2309 675.2309 675.9122 675.9122 676.0955 676.7496 677.3059
   677.6329 677.6409 677.6409 677.6616 677.6616 677.6889 677.7403 678.0611
   678.5077 678.5130 678.5130 679.2533 679.8275 680.1318 680.1318 680.1843

     the Fermi energy is    12.1654 ev
     (compare with:    12.1599 eV, computed in scf)

     Writing all to output data dir out/mp-2114.save/
 
     init_run     :      0.06s CPU      0.06s WALL (       1 calls)
     electrons    :    349.49s CPU    376.62s WALL (       1 calls)

     Called by init_run:
     wfcinit      :      0.00s CPU      0.00s WALL (       1 calls)
     potinit      :      0.01s CPU      0.02s WALL (       1 calls)
     hinit0       :      0.02s CPU      0.02s WALL (       1 calls)

     Called by electrons:
     c_bands      :    349.49s CPU    376.62s WALL (       1 calls)
     v_of_rho     :      0.01s CPU      0.01s WALL (       1 calls)

     Called by c_bands:
     init_us_2    :      0.00s CPU      0.00s WALL (       3 calls)
     init_us_2:cp :      0.00s CPU      0.00s WALL (       3 calls)
     cegterg      :    341.78s CPU    368.43s WALL (       3 calls)

     Called by *egterg:
     cdiaghg      :    320.14s CPU    346.44s WALL (      32 calls)
     h_psi        :      6.48s CPU      6.69s WALL (      35 calls)
     g_psi        :      0.04s CPU      0.04s WALL (      29 calls)

     Called by h_psi:
     h_psi:calbec :      0.09s CPU      0.10s WALL (      35 calls)
     vloc_psi     :      6.28s CPU      6.47s WALL (      35 calls)
     add_vuspsi   :      0.07s CPU      0.07s WALL (      35 calls)

     General routines
     calbec       :      0.09s CPU      0.10s WALL (      35 calls)
     fft          :      0.01s CPU      0.01s WALL (      10 calls)
     fftw         :      5.69s CPU      5.87s WALL (   44756 calls)
 
     Parallel routines
 
     PWSCF        :   5m49.97s CPU   6m17.27s WALL

 
   This run was terminated on:  19: 9:35  20Dec2023            

=------------------------------------------------------------------------------=
   JOB DONE.
=------------------------------------------------------------------------------=
