
     Program PWSCF v.7.1 starts on  7Dec2023 at  3:15:13 

     This program is part of the open-source Quantum ESPRESSO suite
     for quantum simulation of materials; please cite
         "P. Giannozzi et al., J. Phys.:Condens. Matter 21 395502 (2009);
         "P. Giannozzi et al., J. Phys.:Condens. Matter 29 465901 (2017);
         "P. Giannozzi et al., J. Chem. Phys. 152 154105 (2020);
          URL http://www.quantum-espresso.org", 
     in publications or presentations arising from this work. More details at
     http://www.quantum-espresso.org/quote

     Parallel version (MPI), running on    24 processors

     MPI processes distributed on     1 nodes
     122164 MiB available memory on the printing compute node when the environment starts
 
     Reading input from pw_mp-22865_scf_k3000_E77.in
Warning: card &CELL ignored
Warning: card / ignored

     Current dimensions of program PWSCF are:
     Max number of different atomic species (ntypx) = 10
     Max number of k-points (npk) =  40000
     Max angular momentum in pseudopotentials (lmaxx) =  4
 
     K-points division:     npool     =       2
     R & G space division:  proc/nbgrp/npool/nimage =      12
     Subspace diagonalization in iterative solution of the eigenvalue problem:
     a serial algorithm will be used

 
     Parallelization info
     --------------------
     sticks:   dense  smooth     PW     G-vecs:    dense   smooth      PW
     Min         124     124     36                 3650     3650     576
     Max         125     125     37                 3654     3654     580
     Sum        1489    1489    437                43819    43819    6931
 
     Using Slab Decomposition
 


     bravais-lattice index     =            1
     lattice parameter (alat)  =       7.8305  a.u.
     unit-cell volume          =     480.1323 (a.u.)^3
     number of atoms/cell      =            2
     number of atomic types    =            2
     number of electrons       =        16.00
     number of Kohn-Sham states=           16
     kinetic-energy cutoff     =      77.0000  Ry
     charge density cutoff     =     308.0000  Ry
     scf convergence threshold =      1.0E-10
     mixing beta               =       0.7000
     number of iterations used =            8  plain     mixing
     Exchange-correlation= PBE
                           (   1   4   3   4   0   0   0)

     celldm(1)=   7.830454  celldm(2)=   0.000000  celldm(3)=   0.000000
     celldm(4)=   0.000000  celldm(5)=   0.000000  celldm(6)=   0.000000

     crystal axes: (cart. coord. in units of alat)
               a(1) = (   1.000000   0.000000   0.000000 )  
               a(2) = (   0.000000   1.000000   0.000000 )  
               a(3) = (   0.000000   0.000000   1.000000 )  

     reciprocal axes: (cart. coord. in units 2 pi/alat)
               b(1) = (  1.000000  0.000000  0.000000 )  
               b(2) = (  0.000000  1.000000  0.000000 )  
               b(3) = (  0.000000  0.000000  1.000000 )  


     PseudoPot. # 1 for Cl read from file:
     /usr/scratch4/magr4985/MG/HTDF/pseudo/SG15/Cl.upf
     MD5 check sum: 0f993535b366f580ecbcdacce103c843
     Pseudo is Norm-conserving, Zval =  7.0
     Generated using ONCVPSP code by D. R. Hamann
     Using radial grid of  602 points,  4 beta functions with: 
                l(1) =   0
                l(2) =   0
                l(3) =   1
                l(4) =   1

     PseudoPot. # 2 for Cs read from file:
     /usr/scratch4/magr4985/MG/HTDF/pseudo/SG15/Cs.upf
     MD5 check sum: 74aa1fd125ef9ec93322f365f25225f6
     Pseudo is Norm-conserving, Zval =  9.0
     Generated using ONCVPSP code by D. R. Hamann
     Using radial grid of  602 points,  6 beta functions with: 
                l(1) =   0
                l(2) =   0
                l(3) =   1
                l(4) =   1
                l(5) =   2
                l(6) =   2

     atomic species   valence    mass     pseudopotential
        Cl             7.00    35.45300     Cl( 1.00)
        Cs             9.00   132.90550     Cs( 1.00)

     48 Sym. Ops., with inversion, found



   Cartesian axes

     site n.     atom                  positions (alat units)
         1           Cs  tau(   1) = (   0.0000000   0.0000000   0.0000000  )
         2           Cl  tau(   2) = (   0.5000000   0.5000000   0.5000000  )

     number of k points=    84  Gaussian smearing, width (Ry)=  0.0005
                       cart. coord. in units 2pi/alat
        k(    1) = (   0.0000000   0.0000000   0.0000000), wk =   0.0011574
        k(    2) = (   0.0000000   0.0000000   0.0833333), wk =   0.0069444
        k(    3) = (   0.0000000   0.0000000   0.1666667), wk =   0.0069444
        k(    4) = (   0.0000000   0.0000000   0.2500000), wk =   0.0069444
        k(    5) = (   0.0000000   0.0000000   0.3333333), wk =   0.0069444
        k(    6) = (   0.0000000   0.0000000   0.4166667), wk =   0.0069444
        k(    7) = (   0.0000000   0.0000000  -0.5000000), wk =   0.0034722
        k(    8) = (   0.0000000   0.0833333   0.0833333), wk =   0.0138889
        k(    9) = (   0.0000000   0.0833333   0.1666667), wk =   0.0277778
        k(   10) = (   0.0000000   0.0833333   0.2500000), wk =   0.0277778
        k(   11) = (   0.0000000   0.0833333   0.3333333), wk =   0.0277778
        k(   12) = (   0.0000000   0.0833333   0.4166667), wk =   0.0277778
        k(   13) = (   0.0000000   0.0833333  -0.5000000), wk =   0.0138889
        k(   14) = (   0.0000000   0.1666667   0.1666667), wk =   0.0138889
        k(   15) = (   0.0000000   0.1666667   0.2500000), wk =   0.0277778
        k(   16) = (   0.0000000   0.1666667   0.3333333), wk =   0.0277778
        k(   17) = (   0.0000000   0.1666667   0.4166667), wk =   0.0277778
        k(   18) = (   0.0000000   0.1666667  -0.5000000), wk =   0.0138889
        k(   19) = (   0.0000000   0.2500000   0.2500000), wk =   0.0138889
        k(   20) = (   0.0000000   0.2500000   0.3333333), wk =   0.0277778
        k(   21) = (   0.0000000   0.2500000   0.4166667), wk =   0.0277778
        k(   22) = (   0.0000000   0.2500000  -0.5000000), wk =   0.0138889
        k(   23) = (   0.0000000   0.3333333   0.3333333), wk =   0.0138889
        k(   24) = (   0.0000000   0.3333333   0.4166667), wk =   0.0277778
        k(   25) = (   0.0000000   0.3333333  -0.5000000), wk =   0.0138889
        k(   26) = (   0.0000000   0.4166667   0.4166667), wk =   0.0138889
        k(   27) = (   0.0000000   0.4166667  -0.5000000), wk =   0.0138889
        k(   28) = (   0.0000000  -0.5000000  -0.5000000), wk =   0.0034722
        k(   29) = (   0.0833333   0.0833333   0.0833333), wk =   0.0092593
        k(   30) = (   0.0833333   0.0833333   0.1666667), wk =   0.0277778
        k(   31) = (   0.0833333   0.0833333   0.2500000), wk =   0.0277778
        k(   32) = (   0.0833333   0.0833333   0.3333333), wk =   0.0277778
        k(   33) = (   0.0833333   0.0833333   0.4166667), wk =   0.0277778
        k(   34) = (   0.0833333   0.0833333  -0.5000000), wk =   0.0138889
        k(   35) = (   0.0833333   0.1666667   0.1666667), wk =   0.0277778
        k(   36) = (   0.0833333   0.1666667   0.2500000), wk =   0.0555556
        k(   37) = (   0.0833333   0.1666667   0.3333333), wk =   0.0555556
        k(   38) = (   0.0833333   0.1666667   0.4166667), wk =   0.0555556
        k(   39) = (   0.0833333   0.1666667  -0.5000000), wk =   0.0277778
        k(   40) = (   0.0833333   0.2500000   0.2500000), wk =   0.0277778
        k(   41) = (   0.0833333   0.2500000   0.3333333), wk =   0.0555556
        k(   42) = (   0.0833333   0.2500000   0.4166667), wk =   0.0555556
        k(   43) = (   0.0833333   0.2500000  -0.5000000), wk =   0.0277778
        k(   44) = (   0.0833333   0.3333333   0.3333333), wk =   0.0277778
        k(   45) = (   0.0833333   0.3333333   0.4166667), wk =   0.0555556
        k(   46) = (   0.0833333   0.3333333  -0.5000000), wk =   0.0277778
        k(   47) = (   0.0833333   0.4166667   0.4166667), wk =   0.0277778
        k(   48) = (   0.0833333   0.4166667  -0.5000000), wk =   0.0277778
        k(   49) = (   0.0833333  -0.5000000  -0.5000000), wk =   0.0069444
        k(   50) = (   0.1666667   0.1666667   0.1666667), wk =   0.0092593
        k(   51) = (   0.1666667   0.1666667   0.2500000), wk =   0.0277778
        k(   52) = (   0.1666667   0.1666667   0.3333333), wk =   0.0277778
        k(   53) = (   0.1666667   0.1666667   0.4166667), wk =   0.0277778
        k(   54) = (   0.1666667   0.1666667  -0.5000000), wk =   0.0138889
        k(   55) = (   0.1666667   0.2500000   0.2500000), wk =   0.0277778
        k(   56) = (   0.1666667   0.2500000   0.3333333), wk =   0.0555556
        k(   57) = (   0.1666667   0.2500000   0.4166667), wk =   0.0555556
        k(   58) = (   0.1666667   0.2500000  -0.5000000), wk =   0.0277778
        k(   59) = (   0.1666667   0.3333333   0.3333333), wk =   0.0277778
        k(   60) = (   0.1666667   0.3333333   0.4166667), wk =   0.0555556
        k(   61) = (   0.1666667   0.3333333  -0.5000000), wk =   0.0277778
        k(   62) = (   0.1666667   0.4166667   0.4166667), wk =   0.0277778
        k(   63) = (   0.1666667   0.4166667  -0.5000000), wk =   0.0277778
        k(   64) = (   0.1666667  -0.5000000  -0.5000000), wk =   0.0069444
        k(   65) = (   0.2500000   0.2500000   0.2500000), wk =   0.0092593
        k(   66) = (   0.2500000   0.2500000   0.3333333), wk =   0.0277778
        k(   67) = (   0.2500000   0.2500000   0.4166667), wk =   0.0277778
        k(   68) = (   0.2500000   0.2500000  -0.5000000), wk =   0.0138889
        k(   69) = (   0.2500000   0.3333333   0.3333333), wk =   0.0277778
        k(   70) = (   0.2500000   0.3333333   0.4166667), wk =   0.0555556
        k(   71) = (   0.2500000   0.3333333  -0.5000000), wk =   0.0277778
        k(   72) = (   0.2500000   0.4166667   0.4166667), wk =   0.0277778
        k(   73) = (   0.2500000   0.4166667  -0.5000000), wk =   0.0277778
        k(   74) = (   0.2500000  -0.5000000  -0.5000000), wk =   0.0069444
        k(   75) = (   0.3333333   0.3333333   0.3333333), wk =   0.0092593
        k(   76) = (   0.3333333   0.3333333   0.4166667), wk =   0.0277778
        k(   77) = (   0.3333333   0.3333333  -0.5000000), wk =   0.0138889
        k(   78) = (   0.3333333   0.4166667   0.4166667), wk =   0.0277778
        k(   79) = (   0.3333333   0.4166667  -0.5000000), wk =   0.0277778
        k(   80) = (   0.3333333  -0.5000000  -0.5000000), wk =   0.0069444
        k(   81) = (   0.4166667   0.4166667   0.4166667), wk =   0.0092593
        k(   82) = (   0.4166667   0.4166667  -0.5000000), wk =   0.0138889
        k(   83) = (   0.4166667  -0.5000000  -0.5000000), wk =   0.0069444
        k(   84) = (  -0.5000000  -0.5000000  -0.5000000), wk =   0.0011574

     Dense  grid:    43819 G-vectors     FFT dimensions: (  45,  45,  45)

     Estimated max dynamical RAM per process >       5.79 MB

     Estimated total dynamical RAM >     128.36 MB

     Initial potential from superposition of free atoms

     starting charge      15.6051, renormalised to      16.0000
     Starting wfcs are random

     total cpu time spent up to now is        0.7 secs

     Self-consistent Calculation

     iteration #  1     ecut=    77.00 Ry     beta= 0.70
     Davidson diagonalization with overlap
     ethr =  1.00E-02,  avg # of iterations =  9.2

     Threshold (ethr) on eigenvalues was too large:
     Diagonalizing with lowered threshold

     Davidson diagonalization with overlap
     ethr =  4.09E-04,  avg # of iterations =  2.8

     total cpu time spent up to now is        3.1 secs

     total energy              =     -70.84284602 Ry
     estimated scf accuracy    <       0.06670027 Ry

     iteration #  2     ecut=    77.00 Ry     beta= 0.70
     Davidson diagonalization with overlap
     ethr =  4.17E-04,  avg # of iterations =  3.2

     total cpu time spent up to now is        3.9 secs

     total energy              =     -70.86158541 Ry
     estimated scf accuracy    <       0.01970393 Ry

     iteration #  3     ecut=    77.00 Ry     beta= 0.70
     Davidson diagonalization with overlap
     ethr =  1.23E-04,  avg # of iterations =  2.5

     total cpu time spent up to now is        4.5 secs

     total energy              =     -70.86595514 Ry
     estimated scf accuracy    <       0.00048951 Ry

     iteration #  4     ecut=    77.00 Ry     beta= 0.70
     Davidson diagonalization with overlap
     c_bands:  1 eigenvalues not converged
     c_bands:  1 eigenvalues not converged
     c_bands:  1 eigenvalues not converged
     ethr =  3.06E-06,  avg # of iterations = 10.0

     total cpu time spent up to now is        5.6 secs

     total energy              =     -70.86605464 Ry
     estimated scf accuracy    <       0.00001643 Ry

     iteration #  5     ecut=    77.00 Ry     beta= 0.70
     Davidson diagonalization with overlap
     ethr =  1.03E-07,  avg # of iterations =  2.2

     total cpu time spent up to now is        6.3 secs

     total energy              =     -70.86605860 Ry
     estimated scf accuracy    <       0.00000053 Ry

     iteration #  6     ecut=    77.00 Ry     beta= 0.70
     Davidson diagonalization with overlap
     ethr =  3.29E-09,  avg # of iterations =  3.6

     total cpu time spent up to now is        7.0 secs

     total energy              =     -70.86605894 Ry
     estimated scf accuracy    <       0.00000007 Ry

     iteration #  7     ecut=    77.00 Ry     beta= 0.70
     Davidson diagonalization with overlap
     ethr =  4.19E-10,  avg # of iterations =  2.2

     total cpu time spent up to now is        7.7 secs

     total energy              =     -70.86605896 Ry
     estimated scf accuracy    <          4.7E-09 Ry

     iteration #  8     ecut=    77.00 Ry     beta= 0.70
     Davidson diagonalization with overlap
     ethr =  2.92E-11,  avg # of iterations =  3.2

     total cpu time spent up to now is        8.4 secs

     total energy              =     -70.86605896 Ry
     estimated scf accuracy    <          1.6E-10 Ry

     iteration #  9     ecut=    77.00 Ry     beta= 0.70
     Davidson diagonalization with overlap
     ethr =  9.78E-13,  avg # of iterations =  3.6

     total cpu time spent up to now is        9.2 secs

     End of self-consistent calculation

          k = 0.0000 0.0000 0.0000 (  5449 PWs)   bands (ev):

   -16.5051  -9.2410  -3.0012  -3.0012  -3.0012   2.8920   2.8920   2.8920
     8.0930   8.3247   8.3247  12.9096  12.9096  12.9096  16.1371  16.1371

          k = 0.0000 0.0000 0.0833 (  5470 PWs)   bands (ev):

   -16.5001  -9.2433  -3.0405  -2.9925  -2.9925   2.7966   2.8779   2.8779
     8.2602   8.3704   8.4883  12.8413  12.8413  12.9483  15.5774  16.2227

          k = 0.0000 0.0000 0.1667 (  5486 PWs)   bands (ev):

   -16.4862  -9.2497  -3.1438  -2.9687  -2.9687   2.5559   2.8391   2.8391
     8.5040   8.6922   8.9720  12.6840  12.6840  13.0604  14.6265  16.4182

          k = 0.0000 0.0000 0.2500 (  5490 PWs)   bands (ev):

   -16.4671  -9.2593  -3.2764  -2.9355  -2.9355   2.2630   2.7847   2.7847
     8.7134   9.2474   9.7298  12.5236  12.5236  13.2325  13.7089  16.1125

          k = 0.0000 0.0000 0.3333 (  5486 PWs)   bands (ev):

   -16.4478  -9.2697  -3.3999  -2.9017  -2.9017   2.0001   2.7289   2.7289
     8.9691   9.8103  10.6195  12.4134  12.4134  12.9290  13.4349  15.5167

          k = 0.0000 0.0000 0.4167 (  5478 PWs)   bands (ev):

   -16.4336  -9.2780  -3.4850  -2.8764  -2.8764   1.8221   2.6871   2.6871
     9.2058  10.2561  11.3890  12.3615  12.3615  12.3730  13.6121  15.1281

          k = 0.0000 0.0000-0.5000 (  5478 PWs)   bands (ev):

   -16.4283  -9.2812  -3.5152  -2.8671  -2.8671   1.7595   2.6716   2.6716
     9.3097  10.4331  11.7006  12.1620  12.3485  12.3485  13.6859  14.9918

          k = 0.0000 0.0833 0.0833 (  5477 PWs)   bands (ev):

   -16.4951  -9.2448  -3.0563  -3.0105  -2.9841   2.7275   2.8514   2.8656
     8.4079   8.4794   8.5896  12.6932  12.7519  13.0596  15.5377  15.9541

          k = 0.0000 0.0833 0.1667 (  5474 PWs)   bands (ev):

   -16.4813  -9.2494  -3.1525  -3.0028  -2.9607   2.5225   2.8100   2.8314
     8.6174   8.8118   9.0472  12.4925  12.5500  13.1796  14.8253  16.1551

          k = 0.0000 0.0833 0.2500 (  5487 PWs)   bands (ev):

   -16.4624  -9.2564  -3.2864  -2.9809  -2.9284   2.2634   2.7597   2.7833
     8.8234   9.3136   9.7848  12.3282  12.3393  13.2610  14.0082  15.6093

          k = 0.0000 0.0833 0.3333 (  5473 PWs)   bands (ev):

   -16.4433  -9.2643  -3.4120  -2.9582  -2.8953   2.0292   2.7076   2.7337
     9.0671   9.8337  10.6002  12.1843  12.2365  13.2691  13.3515  15.1530

          k = 0.0000 0.0833 0.4167 (  5464 PWs)   bands (ev):

   -16.4292  -9.2706  -3.4987  -2.9416  -2.8707   1.8706   2.6680   2.6964
     9.2889  10.2657  11.1180  12.1534  12.2132  13.0274  13.2074  14.9580

          k = 0.0000 0.0833-0.5000 (  5466 PWs)   bands (ev):

   -16.4240  -9.2731  -3.5294  -2.9355  -2.8616   1.8150   2.6532   2.6825
     9.3848  10.4552  11.1951  12.1638  12.2160  13.0304  13.1653  14.9349

          k = 0.0000 0.1667 0.1667 (  5465 PWs)   bands (ev):

   -16.4679  -9.2489  -3.2023  -3.0659  -2.9389   2.4142   2.7540   2.8099
     8.8259   9.1720   9.3358  12.2045  12.2968  13.2469  14.9859  15.7098

          k = 0.0000 0.1667 0.2500 (  5473 PWs)   bands (ev):

   -16.4495  -9.2487  -3.3199  -3.0943  -2.9087   2.2542   2.7020   2.7791
     9.0306   9.5438   9.9717  11.9797  12.1068  13.1186  14.4087  15.2697

          k = 0.0000 0.1667 0.3333 (  5483 PWs)   bands (ev):

   -16.4309  -9.2493  -3.4468  -3.1050  -2.8779   2.1004   2.6555   2.7467
     9.2286   9.9096  10.6077  11.8651  12.1346  12.8416  13.8638  14.9933

          k = 0.0000 0.1667 0.4167 (  5471 PWs)   bands (ev):

   -16.4171  -9.2503  -3.5368  -3.1110  -2.8550   1.9953   2.6201   2.7220
     9.3867  10.2484  10.7927  11.8612  12.4576  12.5508  13.6853  14.9097

          k = 0.0000 0.1667-0.5000 (  5460 PWs)   bands (ev):

   -16.4121  -9.2507  -3.5689  -3.1133  -2.8466   1.9586   2.6066   2.7127
     9.4493  10.4626  10.6981  11.8932  12.4112  12.5828  13.8524  14.8811

          k = 0.0000 0.2500 0.2500 (  5441 PWs)   bands (ev):

   -16.4317  -9.2386  -3.3915  -3.2139  -2.8815   2.2228   2.6436   2.7723
     9.1596   9.7685  10.4557  11.6811  12.0610  12.7547  14.2717  15.6482

          k = 0.0000 0.2500 0.3333 (  5467 PWs)   bands (ev):

   -16.4138  -9.2289  -3.5002  -3.2875  -2.8539   2.1809   2.5973   2.7642
     9.2336   9.8409  11.0522  11.5044  12.3255  12.3387  14.0937  15.4066

          k = 0.0000 0.2500 0.4167 (  5466 PWs)   bands (ev):

   -16.4006  -9.2221  -3.5907  -3.3254  -2.8334   2.1502   2.5645   2.7574
     9.2878   9.8389  11.3271  11.4698  11.9541  12.9620  14.1456  15.2724

          k = 0.0000 0.2500-0.5000 (  5460 PWs)   bands (ev):

   -16.3957  -9.2197  -3.6243  -3.3379  -2.8259   2.1398   2.5518   2.7548
     9.3126   9.8248  11.3864  11.5160  11.7665  13.2189  14.6354  14.9331

          k = 0.0000 0.3333 0.3333 (  5492 PWs)   bands (ev):

   -16.3966  -9.2084  -3.5702  -3.4417  -2.8296   2.2470   2.5506   2.7813
     9.1486   9.6301  11.2547  11.8347  11.8481  12.6985  14.3273  15.7688

          k = 0.0000 0.3333 0.4167 (  5464 PWs)   bands (ev):

   -16.3839  -9.1935  -3.6472  -3.5229  -2.8116   2.2916   2.5189   2.7936
     9.0956   9.4293  11.1564  11.4774  12.3148  13.4431  14.5987  15.7797

          k = 0.0000 0.3333-0.5000 (  5452 PWs)   bands (ev):

   -16.3792  -9.1880  -3.6812  -3.5456  -2.8049   2.3088   2.5063   2.7980
     9.0927   9.3363  11.1868  11.2858  12.4268  13.9219  15.1005  15.4121

          k = 0.0000 0.4167 0.4167 (  5474 PWs)   bands (ev):

   -16.3715  -9.1722  -3.6952  -3.6536  -2.7954   2.3898   2.4903   2.8205
     8.9549   9.1437  10.9832  11.1468  13.3568  13.8835  15.1055  15.7950

          k = 0.0000 0.4167-0.5000 (  5468 PWs)   bands (ev):

   -16.3670  -9.1644  -3.7239  -3.6889  -2.7895   2.4271   2.4785   2.8304
     8.9173   9.0292  10.9672  10.9902  13.6633  14.4757  15.3368  15.7183

          k = 0.0000-0.5000-0.5000 (  5472 PWs)   bands (ev):

   -16.3626  -9.1556  -3.7397  -3.7397  -2.7838   2.4695   2.4695   2.8425
     8.8518   8.9244  10.8905  10.8905  14.6840  14.6840  15.0714  15.5905

          k = 0.0833 0.0833 0.0833 (  5476 PWs)   bands (ev):

   -16.4901  -9.2458  -3.0472  -3.0472  -2.9849   2.6770   2.8359   2.8359
     8.5574   8.6322   8.6322  12.6067  12.6067  13.1341  15.6764  15.6764

          k = 0.0833 0.0833 0.1667 (  5471 PWs)   bands (ev):

   -16.4765  -9.2487  -3.1541  -3.0222  -2.9768   2.5050   2.7930   2.8006
     8.7565   8.9155   9.1126  12.3798  12.4012  13.1803  15.0048  15.8860

          k = 0.0833 0.0833 0.2500 (  5472 PWs)   bands (ev):

   -16.4577  -9.2533  -3.2924  -2.9872  -2.9647   2.2726   2.7330   2.7720
     8.9497   9.3784   9.8410  12.1659  12.2214  13.1107  14.2657  15.5673

          k = 0.0833 0.0833 0.3333 (  5467 PWs)   bands (ev):

   -16.4388  -9.2588  -3.4214  -2.9534  -2.9515   2.0596   2.6714   2.7438
     9.1828   9.8541  10.6026  11.9449  12.2275  12.9769  13.6526  15.4890

          k = 0.0833 0.0833 0.4167 (  5479 PWs)   bands (ev):

   -16.4248  -9.2634  -3.5102  -2.9458  -2.9249   1.9151   2.6253   2.7216
     9.3949  10.2550  10.9925  11.7586  12.5423  12.9008  13.2667  15.2612

          k = 0.0833 0.0833-0.5000 (  5468 PWs)   bands (ev):

   -16.4197  -9.2652  -3.5417  -2.9431  -2.9150   1.8644   2.6082   2.7131
     9.4864  10.4434  11.0124  11.6758  12.8396  12.8620  13.1400  15.1290

          k = 0.0833 0.1667 0.1667 (  5465 PWs)   bands (ev):

   -16.4632  -9.2469  -3.1921  -3.0824  -2.9752   2.4263   2.7339   2.7652
     8.9949   9.2740   9.3698  12.1161  12.1676  13.0340  15.2040  15.7327

          k = 0.0833 0.1667 0.2500 (  5458 PWs)   bands (ev):

   -16.4449  -9.2450  -3.3159  -3.0976  -2.9590   2.2813   2.6741   2.7445
     9.1946   9.6204  10.0172  11.8879  11.9974  12.7347  14.7429  15.5719

          k = 0.0833 0.1667 0.3333 (  5470 PWs)   bands (ev):

   -16.4264  -9.2438  -3.4489  -3.1011  -2.9362   2.1320   2.6111   2.7412
     9.3882   9.9485  10.6224  11.7213  12.1054  12.4764  14.2070  15.3426

          k = 0.0833 0.1667 0.4167 (  5480 PWs)   bands (ev):

   -16.4128  -9.2434  -3.5425  -3.1052  -2.9164   2.0279   2.5624   2.7413
     9.5453  10.2394  10.7355  11.6250  12.3221  12.6792  13.8950  15.1582

          k = 0.0833 0.1667-0.5000 (  5474 PWs)   bands (ev):

   -16.4078  -9.2433  -3.5758  -3.1073  -2.9086   1.9913   2.5441   2.7413
     9.6084  10.4388  10.6063  11.5908  12.3129  12.9667  13.9013  15.0890

          k = 0.0833 0.2500 0.2500 (  5464 PWs)   bands (ev):

   -16.4273  -9.2339  -3.3799  -3.2200  -2.9374   2.2557   2.6165   2.7234
     9.3370   9.8846  10.4757  11.6233  11.9410  12.3278  14.7913  15.7913

          k = 0.0833 0.2500 0.3333 (  5468 PWs)   bands (ev):

   -16.4095  -9.2233  -3.4931  -3.2861  -2.9127   2.2044   2.5580   2.7311
     9.4117   9.9403  11.0311  11.4585  12.0261  12.2599  14.5164  15.5430

          k = 0.0833 0.2500 0.4167 (  5483 PWs)   bands (ev):

   -16.3963  -9.2157  -3.5887  -3.3178  -2.8931   2.1634   2.5071   2.7498
     9.4613   9.9043  11.1800  11.4172  11.9119  12.9703  14.4202  15.3710

          k = 0.0833 0.2500-0.5000 (  5474 PWs)   bands (ev):

   -16.3915  -9.2131  -3.6240  -3.3283  -2.8856   2.1491   2.4865   2.7581
     9.4846   9.8724  11.1818  11.4200  11.8733  13.3465  14.7179  15.0822

          k = 0.0833 0.3333 0.3333 (  5471 PWs)   bands (ev):

   -16.3923  -9.2027  -3.5573  -3.4404  -2.8879   2.2500   2.5159   2.7341
     9.3331   9.7344  11.2286  11.6567  11.8422  12.6328  14.6362  15.9019

          k = 0.0833 0.3333 0.4167 (  5464 PWs)   bands (ev):

   -16.3797  -9.1877  -3.6378  -3.5142  -2.8690   2.2786   2.4722   2.7531
     9.2777   9.5320  11.1396  11.3831  12.3300  13.3893  14.8201  15.8628

          k = 0.0833 0.3333-0.5000 (  5472 PWs)   bands (ev):

   -16.3750  -9.1822  -3.6739  -3.5335  -2.8620   2.2931   2.4483   2.7638
     9.2720   9.4394  11.1694  11.2271  12.4414  13.9217  15.2021  15.5347

          k = 0.0833 0.4167 0.4167 (  5472 PWs)   bands (ev):

   -16.3674  -9.1668  -3.6814  -3.6435  -2.8511   2.3552   2.4498   2.7583
     9.1445   9.2742  10.9862  11.1303  13.3379  13.8198  15.2460  15.8385

          k = 0.0833 0.4167-0.5000 (  5458 PWs)   bands (ev):

   -16.3629  -9.1591  -3.7116  -3.6753  -2.8444   2.3919   2.4310   2.7621
     9.1089   9.1718  10.9747  10.9912  13.6323  14.4164  15.3799  15.7405

          k = 0.0833-0.5000-0.5000 (  5468 PWs)   bands (ev):

   -16.3585  -9.1506  -3.7256  -3.7256  -2.8380   2.4269   2.4269   2.7601
     9.0496   9.0816  10.9033  10.9033  14.6094  14.6094  15.0853  15.6191

          k = 0.1667 0.1667 0.1667 (  5497 PWs)   bands (ev):

   -16.4502  -9.2416  -3.1638  -3.1638  -3.0333   2.4291   2.6785   2.6785
     9.4676   9.4676   9.5414  11.9130  11.9130  12.5727  15.6641  15.6641

          k = 0.1667 0.1667 0.2500 (  5469 PWs)   bands (ev):

   -16.4323  -9.2349  -3.3113  -3.1243  -3.0670   2.3391   2.6012   2.6647
     9.6158   9.8233  10.1641  11.6968  11.7588  12.1300  15.2731  16.1545

          k = 0.1667 0.1667 0.3333 (  5477 PWs)   bands (ev):

   -16.4143  -9.2287  -3.4573  -3.0931  -3.0838   2.2057   2.5222   2.7050
     9.7870  10.0391  10.6494  11.5234  11.9195  12.0268  14.8000  15.9690

          k = 0.1667 0.1667 0.4167 (  5481 PWs)   bands (ev):

   -16.4009  -9.2245  -3.5591  -3.1121  -3.0534   2.1075   2.4632   2.7410
     9.9337  10.1740  10.5896  11.4107  12.0227  12.7853  14.4501  15.6286

          k = 0.1667 0.1667-0.5000 (  5464 PWs)   bands (ev):

   -16.3961  -9.2230  -3.5953  -3.1193  -3.0422   2.0725   2.4414   2.7544
     9.9938  10.2620  10.4602  11.3701  12.0933  13.2830  14.3231  15.5092

          k = 0.1667 0.2500 0.2500 (  5468 PWs)   bands (ev):

   -16.4150  -9.2212  -3.3476  -3.2390  -3.0821   2.3403   2.5419   2.5978
     9.8479  10.1832  10.5312  11.4952  11.6405  11.6893  15.6379  16.0934

          k = 0.1667 0.2500 0.3333 (  5481 PWs)   bands (ev):

   -16.3975  -9.2079  -3.4764  -3.2800  -3.0669   2.2596   2.4555   2.6453
     9.9219  10.1800  10.9349  11.3652  11.6299  12.0289  15.3348  15.9249

          k = 0.1667 0.2500 0.4167 (  5476 PWs)   bands (ev):

   -16.3846  -9.1983  -3.5845  -3.2971  -3.0487   2.1911   2.3823   2.7026
     9.9403  10.0567  10.9020  11.3083  11.8430  12.9344  15.0774  15.6824

          k = 0.1667 0.2500-0.5000 (  5494 PWs)   bands (ev):

   -16.3799  -9.1948  -3.6237  -3.3035  -3.0409   2.1668   2.3544   2.7247
     9.9597   9.9766  10.8770  11.2942  11.9324  13.4895  15.0908  15.4327

          k = 0.1667 0.3333 0.3333 (  5485 PWs)   bands (ev):

   -16.3807  -9.1870  -3.5214  -3.4373  -3.0414   2.2475   2.4209   2.6182
     9.8602   9.9923  11.1784  11.3603  11.8548  12.3883  15.3812  16.2095

          k = 0.1667 0.3333 0.4167 (  5484 PWs)   bands (ev):

   -16.3682  -9.1717  -3.6131  -3.4893  -3.0205   2.2353   2.3532   2.6442
     9.7632   9.8265  11.1118  11.2448  12.3091  13.2347  15.3748  16.0784

          k = 0.1667 0.3333-0.5000 (  5480 PWs)   bands (ev):

   -16.3636  -9.1661  -3.6540  -3.5001  -3.0124   2.2454   2.3073   2.6603
     9.7043   9.7838  11.1315  11.1588  12.4227  13.8566  15.4258  15.9403

          k = 0.1667 0.4167 0.4167 (  5494 PWs)   bands (ev):

   -16.3561  -9.1520  -3.6430  -3.6158  -2.9983   2.2581   2.3395   2.5995
     9.6093   9.7001  11.0063  11.1228  13.2748  13.6225  15.5958  15.8965

          k = 0.1667 0.4167-0.5000 (  5478 PWs)   bands (ev):

   -16.3516  -9.1447  -3.6776  -3.6375  -2.9899   2.2945   2.3025   2.5865
     9.5539   9.6597  11.0103  11.0126  13.5254  14.2359  15.4422  15.8286

          k = 0.1667-0.5000-0.5000 (  5468 PWs)   bands (ev):

   -16.3472  -9.1368  -3.6864  -3.6864  -2.9815   2.3110   2.3110   2.5497
     9.5063   9.6194  10.9480  10.9480  14.3962  14.3962  15.1237  15.6956

          k = 0.2500 0.2500 0.2500 (  5479 PWs)   bands (ev):

   -16.3981  -9.2040  -3.3023  -3.3023  -3.2308   2.4386   2.4386   2.4497
    10.4311  10.6090  10.6090  11.2723  11.3732  11.3732  16.2528  16.2529

          k = 0.2500 0.2500 0.3333 (  5492 PWs)   bands (ev):

   -16.3811  -9.1867  -3.4616  -3.2725  -3.2557   2.3022   2.3338   2.5429
    10.2999  10.6892  10.8173  11.2975  11.4657  11.8579  16.1083  16.3506

          k = 0.2500 0.2500 0.4167 (  5489 PWs)   bands (ev):

   -16.3686  -9.1741  -3.5816  -3.2938  -3.2206   2.2086   2.2561   2.6092
    10.0852  10.6352  10.7498  11.2660  11.7876  12.9227  15.8701  16.0248

          k = 0.2500 0.2500-0.5000 (  5512 PWs)   bands (ev):

   -16.3640  -9.1696  -3.6246  -3.3015  -3.2075   2.1760   2.2274   2.6326
    10.0042  10.5620  10.7725  11.2589  11.9218  13.5556  15.6058  15.7771

          k = 0.2500 0.3333 0.3333 (  5484 PWs)   bands (ev):

   -16.3646  -9.1654  -3.4709  -3.4342  -3.2387   2.2175   2.2906   2.4905
    10.1902  10.6854  11.1529  11.2877  11.8536  12.0636  16.1895  16.4326

          k = 0.2500 0.3333 0.4167 (  5490 PWs)   bands (ev):

   -16.3524  -9.1497  -3.5821  -3.4525  -3.2151   2.1574   2.2151   2.4947
    10.0656  10.5630  11.1329  11.2666  12.1941  13.0572  15.9150  16.2093

          k = 0.2500 0.3333-0.5000 (  5508 PWs)   bands (ev):

   -16.3479  -9.1439  -3.6270  -3.4546  -3.2054   2.1481   2.1707   2.5003
    10.0254  10.4945  11.1809  11.2071  12.3082  13.7244  15.5510  16.1362

          k = 0.2500 0.4167 0.4167 (  5510 PWs)   bands (ev):

   -16.3405  -9.1316  -3.5890  -3.5775  -3.1890   2.1244   2.1892   2.3999
    10.0539  10.5136  11.0626  11.2207  13.1573  13.3334  15.8833  15.9370

          k = 0.2500 0.4167-0.5000 (  5500 PWs)   bands (ev):

   -16.3361  -9.1249  -3.6299  -3.5843  -3.1787   2.1335   2.1590   2.3642
    10.0624  10.4809  11.0961  11.1120  13.3300  13.9682  15.4570  15.9585

          k = 0.2500-0.5000-0.5000 (  5512 PWs)   bands (ev):

   -16.3318  -9.1179  -3.6312  -3.6312  -3.1681   2.1533   2.1533   2.2901
    10.0869  10.4989  11.0342  11.0342  14.0859  14.0859  15.1777  15.7860

          k = 0.3333 0.3333 0.3333 (  5478 PWs)   bands (ev):

   -16.3484  -9.1435  -3.4376  -3.4187  -3.4187   2.1594   2.1594   2.3948
    10.2501  11.1755  11.1755  11.8238  11.8238  11.9699  16.3846  16.3846

          k = 0.3333 0.3333 0.4167 (  5497 PWs)   bands (ev):

   -16.3365  -9.1274  -3.5544  -3.4304  -3.3792   2.0628   2.1067   2.3368
    10.2844  11.0039  11.2307  11.7714  12.1130  12.9795  15.9898  16.2599

          k = 0.3333 0.3333-0.5000 (  5522 PWs)   bands (ev):

   -16.3321  -9.1215  -3.6002  -3.4306  -3.3645   2.0273   2.0870   2.3164
    10.3180  10.8844  11.2635  11.7407  12.2276  13.6523  15.5402  16.2100

          k = 0.3333 0.4167 0.4167 (  5494 PWs)   bands (ev):

   -16.3248  -9.1109  -3.5387  -3.5329  -3.3692   2.0000   2.0389   2.2059
    10.4607  11.1455  11.1571  11.7904  12.9942  13.0618  15.8294  16.0532

          k = 0.3333 0.4167-0.5000 (  5506 PWs)   bands (ev):

   -16.3205  -9.1048  -3.5808  -3.5294  -3.3573   1.9794   2.0211   2.1491
    10.5614  11.0512  11.2230  11.7270  13.0758  13.7007  15.4525  15.9947

          k = 0.3333-0.5000-0.5000 (  5488 PWs)   bands (ev):

   -16.3162  -9.0987  -3.5737  -3.5737  -3.3452   1.9961   1.9961   2.0551
    10.6859  11.1556  11.1556  11.5926  13.7501  13.7501  15.2336  15.8038

          k = 0.4167 0.4167 0.4167 (  5493 PWs)   bands (ev):

   -16.3132  -9.0956  -3.5149  -3.4904  -3.4904   1.9288   1.9288   2.0519
    10.7779  11.2592  11.2592  12.8355  12.8355  12.9574  15.7878  15.7878

          k = 0.4167 0.4167-0.5000 (  5506 PWs)   bands (ev):

   -16.3090  -9.0900  -3.5439  -3.4959  -3.4746   1.8885   1.9189   1.9809
    10.9490  11.2124  11.3065  12.7660  12.8967  13.5291  15.4232  15.7741

          k = 0.4167-0.5000-0.5000 (  5504 PWs)   bands (ev):

   -16.3048  -9.0845  -3.5302  -3.5302  -3.4695   1.8812   1.8812   1.8954
    11.1501  11.2753  11.2753  12.7303  13.4799  13.4799  15.2759  15.5875

          k =-0.5000-0.5000-0.5000 (  5520 PWs)   bands (ev):

   -16.3005  -9.0793  -3.5139  -3.5139  -3.5139   1.8391   1.8391   1.8391
    11.3284  11.3284  11.3284  13.3732  13.3732  13.3732  15.2917  15.2917

     the Fermi energy is     4.0966 ev

!    total energy              =     -70.86605896 Ry
     estimated scf accuracy    <          6.6E-13 Ry
     smearing contrib. (-TS)   =      -0.00000000 Ry
     internal energy E=F+TS    =     -70.86605896 Ry

     The total energy is F=E-TS. E is the sum of the following terms:
     one-electron contribution =      -8.92186313 Ry
     hartree contribution      =      10.38854844 Ry
     xc contribution           =     -12.32440018 Ry
     ewald contribution        =     -60.00834409 Ry

     convergence has been achieved in   9 iterations

     Writing all to output data dir out/mp-22865.save/
 
     init_run     :      0.42s CPU      0.55s WALL (       1 calls)
     electrons    :      7.67s CPU      8.59s WALL (       1 calls)

     Called by init_run:
     wfcinit      :      0.38s CPU      0.48s WALL (       1 calls)
     potinit      :      0.01s CPU      0.01s WALL (       1 calls)
     hinit0       :      0.01s CPU      0.01s WALL (       1 calls)

     Called by electrons:
     c_bands      :      6.69s CPU      7.28s WALL (      10 calls)
     sum_band     :      0.91s CPU      1.10s WALL (      10 calls)
     v_of_rho     :      0.04s CPU      0.04s WALL (      10 calls)
     mix_rho      :      0.01s CPU      0.02s WALL (      10 calls)

     Called by c_bands:
     init_us_2    :      0.11s CPU      0.12s WALL (     882 calls)
     init_us_2:cp :      0.11s CPU      0.12s WALL (     882 calls)
     cegterg      :      5.81s CPU      6.00s WALL (     420 calls)

     Called by *egterg:
     cdiaghg      :      0.63s CPU      0.65s WALL (    2156 calls)
     h_psi        :      4.90s CPU      5.09s WALL (    2240 calls)
     g_psi        :      0.04s CPU      0.04s WALL (    1778 calls)

     Called by h_psi:
     h_psi:calbec :      0.15s CPU      0.15s WALL (    2240 calls)
     vloc_psi     :      4.63s CPU      4.80s WALL (    2240 calls)
     add_vuspsi   :      0.10s CPU      0.11s WALL (    2240 calls)

     General routines
     calbec       :      0.14s CPU      0.15s WALL (    2240 calls)
     fft          :      0.02s CPU      0.02s WALL (     100 calls)
     ffts         :      0.01s CPU      0.01s WALL (      10 calls)
     fftw         :      4.97s CPU      5.18s WALL (   49656 calls)
     davcio       :      0.10s CPU      0.53s WALL (    1430 calls)
 
     Parallel routines
 
     PWSCF        :      8.30s CPU     11.57s WALL

 
   This run was terminated on:   3:15:25   7Dec2023            

=------------------------------------------------------------------------------=
   JOB DONE.
=------------------------------------------------------------------------------=
