
     Program PWSCF v.7.1 starts on 14Dec2023 at  1:58: 8 

     This program is part of the open-source Quantum ESPRESSO suite
     for quantum simulation of materials; please cite
         "P. Giannozzi et al., J. Phys.:Condens. Matter 21 395502 (2009);
         "P. Giannozzi et al., J. Phys.:Condens. Matter 29 465901 (2017);
         "P. Giannozzi et al., J. Chem. Phys. 152 154105 (2020);
          URL http://www.quantum-espresso.org", 
     in publications or presentations arising from this work. More details at
     http://www.quantum-espresso.org/quote

     Parallel version (MPI), running on    24 processors

     MPI processes distributed on     1 nodes
     123246 MiB available memory on the printing compute node when the environment starts
 
     Reading input from pw_mp-2114_scf_k3000_E62.in
Warning: card &CELL ignored
Warning: card / ignored

     Current dimensions of program PWSCF are:
     Max number of different atomic species (ntypx) = 10
     Max number of k-points (npk) =  40000
     Max angular momentum in pseudopotentials (lmaxx) =  4
 
     K-points division:     npool     =       2
     R & G space division:  proc/nbgrp/npool/nimage =      12
     Subspace diagonalization in iterative solution of the eigenvalue problem:
     a serial algorithm will be used

 
     Parallelization info
     --------------------
     sticks:   dense  smooth     PW     G-vecs:    dense   smooth      PW
     Min          62      62     18                 1092     1092     185
     Max          63      63     19                 1093     1093     187
     Sum         745     745    223                13107    13107    2229
 
     Using Slab Decomposition
 


     bravais-lattice index     =            2
     lattice parameter (alat)  =       9.2535  a.u.
     unit-cell volume          =     198.0857 (a.u.)^3
     number of atoms/cell      =            2
     number of atomic types    =            2
     number of electrons       =        16.00
     number of Kohn-Sham states=           16
     kinetic-energy cutoff     =      62.0000  Ry
     charge density cutoff     =     248.0000  Ry
     scf convergence threshold =      1.0E-10
     mixing beta               =       0.7000
     number of iterations used =            8  plain     mixing
     Exchange-correlation= PBE
                           (   1   4   3   4   0   0   0)

     celldm(1)=   9.253465  celldm(2)=   0.000000  celldm(3)=   0.000000
     celldm(4)=   0.000000  celldm(5)=   0.000000  celldm(6)=   0.000000

     crystal axes: (cart. coord. in units of alat)
               a(1) = (  -0.500000   0.000000   0.500000 )  
               a(2) = (   0.000000   0.500000   0.500000 )  
               a(3) = (  -0.500000   0.500000   0.000000 )  

     reciprocal axes: (cart. coord. in units 2 pi/alat)
               b(1) = ( -1.000000 -1.000000  1.000000 )  
               b(2) = (  1.000000  1.000000  1.000000 )  
               b(3) = ( -1.000000  1.000000 -1.000000 )  


     PseudoPot. # 1 for N  read from file:
     /usr/scratch4/magr4985/MG/HTDF/pseudo/SG15/N.upf
     MD5 check sum: c233fa8df51455e992258b7c3dee8a9f
     Pseudo is Norm-conserving, Zval =  5.0
     Generated using ONCVPSP code by D. R. Hamann
     Using radial grid of  602 points,  4 beta functions with: 
                l(1) =   0
                l(2) =   0
                l(3) =   1
                l(4) =   1

     PseudoPot. # 2 for Y  read from file:
     /usr/scratch4/magr4985/MG/HTDF/pseudo/SG15/Y.upf
     MD5 check sum: 1a657b90673a6e990374512484d9703d
     Pseudo is Norm-conserving, Zval = 11.0
     Generated using ONCVPSP code by D. R. Hamann
     Using radial grid of  602 points,  6 beta functions with: 
                l(1) =   0
                l(2) =   0
                l(3) =   1
                l(4) =   1
                l(5) =   2
                l(6) =   2

     atomic species   valence    mass     pseudopotential
        N              5.00    14.00670     N ( 1.00)
        Y             11.00    88.90590     Y ( 1.00)

     48 Sym. Ops., with inversion, found



   Cartesian axes

     site n.     atom                  positions (alat units)
         1           Y   tau(   1) = (   0.0000000   0.0000000   0.0000000  )
         2           N   tau(   2) = (  -0.5000000   0.5000000   0.5000000  )

     number of k points=    72  Gaussian smearing, width (Ry)=  0.0005
                       cart. coord. in units 2pi/alat
        k(    1) = (   0.0000000   0.0000000   0.0000000), wk =   0.0011574
        k(    2) = (  -0.0833333   0.0833333  -0.0833333), wk =   0.0092593
        k(    3) = (  -0.1666667   0.1666667  -0.1666667), wk =   0.0092593
        k(    4) = (  -0.2500000   0.2500000  -0.2500000), wk =   0.0092593
        k(    5) = (  -0.3333333   0.3333333  -0.3333333), wk =   0.0092593
        k(    6) = (  -0.4166667   0.4166667  -0.4166667), wk =   0.0092593
        k(    7) = (   0.5000000  -0.5000000   0.5000000), wk =   0.0046296
        k(    8) = (   0.0000000   0.1666667   0.0000000), wk =   0.0069444
        k(    9) = (  -0.0833333   0.2500000  -0.0833333), wk =   0.0277778
        k(   10) = (  -0.1666667   0.3333333  -0.1666667), wk =   0.0277778
        k(   11) = (  -0.2500000   0.4166667  -0.2500000), wk =   0.0277778
        k(   12) = (  -0.3333333   0.5000000  -0.3333333), wk =   0.0277778
        k(   13) = (   0.5833333  -0.4166667   0.5833333), wk =   0.0277778
        k(   14) = (   0.5000000  -0.3333333   0.5000000), wk =   0.0277778
        k(   15) = (   0.4166667  -0.2500000   0.4166667), wk =   0.0277778
        k(   16) = (   0.3333333  -0.1666667   0.3333333), wk =   0.0277778
        k(   17) = (   0.2500000  -0.0833333   0.2500000), wk =   0.0277778
        k(   18) = (   0.1666667  -0.0000000   0.1666667), wk =   0.0138889
        k(   19) = (   0.0000000   0.3333333   0.0000000), wk =   0.0069444
        k(   20) = (  -0.0833333   0.4166667  -0.0833333), wk =   0.0277778
        k(   21) = (  -0.1666667   0.5000000  -0.1666667), wk =   0.0277778
        k(   22) = (  -0.2500000   0.5833333  -0.2500000), wk =   0.0277778
        k(   23) = (   0.6666667  -0.3333333   0.6666667), wk =   0.0277778
        k(   24) = (   0.5833333  -0.2500000   0.5833333), wk =   0.0277778
        k(   25) = (   0.5000000  -0.1666667   0.5000000), wk =   0.0277778
        k(   26) = (   0.4166667  -0.0833333   0.4166667), wk =   0.0277778
        k(   27) = (   0.3333333   0.0000000   0.3333333), wk =   0.0138889
        k(   28) = (   0.0000000   0.5000000   0.0000000), wk =   0.0069444
        k(   29) = (  -0.0833333   0.5833333  -0.0833333), wk =   0.0277778
        k(   30) = (  -0.1666667   0.6666667  -0.1666667), wk =   0.0277778
        k(   31) = (   0.7500000  -0.2500000   0.7500000), wk =   0.0277778
        k(   32) = (   0.6666667  -0.1666667   0.6666667), wk =   0.0277778
        k(   33) = (   0.5833333  -0.0833333   0.5833333), wk =   0.0277778
        k(   34) = (   0.5000000   0.0000000   0.5000000), wk =   0.0138889
        k(   35) = (   0.0000000   0.6666667   0.0000000), wk =   0.0069444
        k(   36) = (  -0.0833333   0.7500000  -0.0833333), wk =   0.0277778
        k(   37) = (   0.8333333  -0.1666667   0.8333333), wk =   0.0277778
        k(   38) = (   0.7500000  -0.0833333   0.7500000), wk =   0.0277778
        k(   39) = (   0.6666667  -0.0000000   0.6666667), wk =   0.0138889
        k(   40) = (   0.0000000   0.8333333   0.0000000), wk =   0.0069444
        k(   41) = (   0.9166667  -0.0833333   0.9166667), wk =   0.0277778
        k(   42) = (   0.8333333   0.0000000   0.8333333), wk =   0.0138889
        k(   43) = (   0.0000000  -1.0000000   0.0000000), wk =   0.0034722
        k(   44) = (  -0.1666667   0.3333333   0.0000000), wk =   0.0277778
        k(   45) = (  -0.2500000   0.4166667  -0.0833333), wk =   0.0555556
        k(   46) = (  -0.3333333   0.5000000  -0.1666667), wk =   0.0555556
        k(   47) = (   0.5833333  -0.4166667   0.7500000), wk =   0.0555556
        k(   48) = (   0.5000000  -0.3333333   0.6666667), wk =   0.0277778
        k(   49) = (  -0.1666667   0.5000000   0.0000000), wk =   0.0277778
        k(   50) = (  -0.2500000   0.5833333  -0.0833333), wk =   0.0555556
        k(   51) = (   0.6666667  -0.3333333   0.8333333), wk =   0.0555556
        k(   52) = (   0.5833333  -0.2500000   0.7500000), wk =   0.0555556
        k(   53) = (   0.5000000  -0.1666667   0.6666667), wk =   0.0555556
        k(   54) = (   0.4166667  -0.0833333   0.5833333), wk =   0.0555556
        k(   55) = (   0.3333333   0.0000000   0.5000000), wk =   0.0277778
        k(   56) = (  -0.1666667   0.6666667  -0.0000000), wk =   0.0277778
        k(   57) = (   0.7500000  -0.2500000   0.9166667), wk =   0.0555556
        k(   58) = (   0.6666667  -0.1666667   0.8333333), wk =   0.0555556
        k(   59) = (   0.5833333  -0.0833333   0.7500000), wk =   0.0555556
        k(   60) = (   0.5000000   0.0000000   0.6666667), wk =   0.0277778
        k(   61) = (   0.8333333  -0.1666667   1.0000000), wk =   0.0277778
        k(   62) = (   0.7500000  -0.0833333   0.9166667), wk =   0.0555556
        k(   63) = (   0.6666667   0.0000000   0.8333333), wk =   0.0277778
        k(   64) = (  -0.1666667  -1.0000000  -0.0000000), wk =   0.0138889
        k(   65) = (   0.6666667  -0.3333333   1.0000000), wk =   0.0277778
        k(   66) = (   0.5833333  -0.2500000   0.9166667), wk =   0.0555556
        k(   67) = (   0.5000000  -0.1666667   0.8333333), wk =   0.0277778
        k(   68) = (   0.6666667  -0.1666667   1.0000000), wk =   0.0277778
        k(   69) = (   0.5833333  -0.0833333   0.9166667), wk =   0.0555556
        k(   70) = (   0.5000000   0.0000000   0.8333333), wk =   0.0277778
        k(   71) = (  -0.3333333  -1.0000000   0.0000000), wk =   0.0138889
        k(   72) = (  -0.5000000  -1.0000000   0.0000000), wk =   0.0069444

     Dense  grid:    13107 G-vectors     FFT dimensions: (  36,  36,  36)

     Estimated max dynamical RAM per process >       4.75 MB

     Estimated total dynamical RAM >     110.83 MB

     Initial potential from superposition of free atoms

     starting charge      15.7879, renormalised to      16.0000
     Starting wfcs are random

     total cpu time spent up to now is        0.3 secs

     Self-consistent Calculation

     iteration #  1     ecut=    62.00 Ry     beta= 0.70
     Davidson diagonalization with overlap
     ethr =  1.00E-02,  avg # of iterations =  8.1

     total cpu time spent up to now is        0.9 secs

     total energy              =     -97.01394006 Ry
     estimated scf accuracy    <       0.63227657 Ry

     iteration #  2     ecut=    62.00 Ry     beta= 0.70
     Davidson diagonalization with overlap
     ethr =  3.95E-03,  avg # of iterations =  2.0

     total cpu time spent up to now is        1.1 secs

     total energy              =     -96.99964379 Ry
     estimated scf accuracy    <       1.96696526 Ry

     iteration #  3     ecut=    62.00 Ry     beta= 0.70
     Davidson diagonalization with overlap
     ethr =  3.95E-03,  avg # of iterations =  2.0

     total cpu time spent up to now is        1.3 secs

     total energy              =     -97.33918955 Ry
     estimated scf accuracy    <       0.01107056 Ry

     iteration #  4     ecut=    62.00 Ry     beta= 0.70
     Davidson diagonalization with overlap
     ethr =  6.92E-05,  avg # of iterations =  2.3

     total cpu time spent up to now is        1.6 secs

     total energy              =     -97.34150686 Ry
     estimated scf accuracy    <       0.00164925 Ry

     iteration #  5     ecut=    62.00 Ry     beta= 0.70
     Davidson diagonalization with overlap
     ethr =  1.03E-05,  avg # of iterations =  2.3

     total cpu time spent up to now is        1.8 secs

     total energy              =     -97.34172128 Ry
     estimated scf accuracy    <       0.00001713 Ry

     iteration #  6     ecut=    62.00 Ry     beta= 0.70
     Davidson diagonalization with overlap
     ethr =  1.07E-07,  avg # of iterations =  2.6

     total cpu time spent up to now is        2.1 secs

     total energy              =     -97.34172485 Ry
     estimated scf accuracy    <       0.00000095 Ry

     iteration #  7     ecut=    62.00 Ry     beta= 0.70
     Davidson diagonalization with overlap
     ethr =  5.92E-09,  avg # of iterations =  2.0

     total cpu time spent up to now is        2.3 secs

     total energy              =     -97.34172494 Ry
     estimated scf accuracy    <       0.00000090 Ry

     iteration #  8     ecut=    62.00 Ry     beta= 0.70
     Davidson diagonalization with overlap
     ethr =  5.61E-09,  avg # of iterations =  2.0

     total cpu time spent up to now is        2.5 secs

     total energy              =     -97.34172509 Ry
     estimated scf accuracy    <          4.8E-09 Ry

     iteration #  9     ecut=    62.00 Ry     beta= 0.70
     Davidson diagonalization with overlap
     ethr =  2.98E-11,  avg # of iterations =  2.0

     total cpu time spent up to now is        2.7 secs

     End of self-consistent calculation

          k = 0.0000 0.0000 0.0000 (  1639 PWs)   bands (ev):

   -28.8009  -8.4648  -8.4648  -8.4648  -0.8379  12.0333  12.0333  12.0333
    15.1666  15.1666  15.1666  16.1595  17.1412  17.1412  22.9545  35.3101

          k =-0.0833 0.0833-0.0833 (  1642 PWs)   bands (ev):

   -28.7932  -8.5501  -8.4704  -8.4704  -0.7188  11.5804  11.7891  11.7891
    15.2252  15.3390  15.3390  16.5721  17.4971  17.4971  23.4069  33.7020

          k =-0.1667 0.1667-0.1667 (  1627 PWs)   bands (ev):

   -28.7720  -8.7726  -8.4857  -8.4857  -0.3999  10.6253  11.2455  11.2455
    15.3669  15.8064  15.8064  17.5204  18.3967  18.3967  24.5682  31.6056

          k =-0.2500 0.2500-0.2500 (  1636 PWs)   bands (ev):

   -28.7428  -9.0559  -8.5064  -8.5064   0.0265   9.6130  10.6661  10.6661
    15.6976  16.4990  16.4990  18.5347  19.5486  19.5486  25.7872  30.3104

          k =-0.3333 0.3333-0.3333 (  1634 PWs)   bands (ev):

   -28.7134  -9.3198  -8.5269  -8.5269   0.4510   8.7558  10.1938  10.1938
    16.2906  17.3179  17.3179  19.1998  20.7201  20.7201  26.0111  28.2038

          k =-0.4167 0.4167-0.4167 (  1640 PWs)   bands (ev):

   -28.6918  -9.5028  -8.5417  -8.5417   0.7669   8.1787   9.8920   9.8920
    17.0978  18.0557  18.0557  19.1471  21.7021  21.7021  25.8607  26.5259

          k = 0.5000-0.5000 0.5000 (  1622 PWs)   bands (ev):

   -28.6838  -9.5679  -8.5471  -8.5471   0.8848   7.9740   9.7895   9.7895
    17.6955  18.3726  18.3726  18.7535  22.1507  22.1507  25.8029  25.8044

          k = 0.0000 0.1667 0.0000 (  1639 PWs)   bands (ev):

   -28.7906  -8.5485  -8.4866  -8.4866  -0.6859  11.2260  11.8887  11.8887
    14.8512  15.5993  15.5993  16.4859  17.2354  18.0559  23.5506  33.5854

          k =-0.0833 0.2500-0.0833 (  1630 PWs)   bands (ev):

   -28.7739  -8.7120  -8.5110  -8.4958  -0.4532  10.5097  11.4861  11.5837
    14.7565  16.0192  16.1054  17.0331  17.6767  19.0524  24.4696  31.7546

          k =-0.1667 0.3333-0.1667 (  1623 PWs)   bands (ev):

   -28.7474  -8.9667  -8.5369  -8.5112  -0.0926   9.7367  10.8320  11.0683
    14.9895  16.5735  16.7828  17.9758  18.6253  20.1414  25.7135  29.8551

          k =-0.2500 0.4167-0.2500 (  1635 PWs)   bands (ev):

   -28.7181  -9.2279  -8.5574  -8.5365   0.2977   9.0093  10.2820  10.5471
    15.4981  17.2908  17.5622  18.8719  19.7851  21.1059  26.1446  28.3200

          k =-0.3333 0.5000-0.3333 (  1637 PWs)   bands (ev):

   -28.6939  -9.4304  -8.5671  -8.5649   0.6203   8.4423   9.9509  10.1368
    16.2624  17.9476  18.2311  19.3260  20.9550  21.8266  25.7125  26.7571

          k = 0.5833-0.4167 0.5833 (  1632 PWs)   bands (ev):

   -28.6814  -9.5309  -8.5885  -8.5635   0.7923   8.1482   9.8476   9.8937
    17.1820  17.9169  18.4489  19.5188  21.8928  22.1486  25.3945  26.0084

          k = 0.5000-0.3333 0.5000 (  1634 PWs)   bands (ev):

   -28.6840  -9.5101  -8.6008  -8.5477   0.7644   8.1937   9.8420   9.9594
    17.1658  17.9712  18.0537  19.5789  21.6894  22.1160  25.4625  26.2885

          k = 0.4167-0.2500 0.4167 (  1634 PWs)   bands (ev):

   -28.7011  -9.3724  -8.5980  -8.5237   0.5433   8.5782   9.9884  10.2656
    16.3420  17.2874  18.0983  19.2085  20.7838  21.5605  25.8622  27.0241

          k = 0.3333-0.1667 0.3333 (  1633 PWs)   bands (ev):

   -28.7279  -9.1463  -8.5799  -8.4978   0.1897   9.2387  10.3207  10.7293
    15.7228  16.4759  17.4922  18.4049  19.8777  20.5743  26.1550  28.1878

          k = 0.2500-0.0833 0.2500 (  1626 PWs)   bands (ev):

   -28.7571  -8.8845  -8.5494  -8.4770  -0.2055  10.0719  10.8021  11.2732
    15.3690  15.8175  16.6700  17.4695  18.8842  19.4199  25.3021  29.8327

          k = 0.1667-0.0000 0.1667 (  1635 PWs)   bands (ev):

   -28.7810  -8.6617  -8.5094  -8.4669  -0.5401  10.9358  11.3479  11.7149
    15.2115  15.4169  15.9197  16.8448  17.9136  18.3159  24.0914  32.0005

          k = 0.0000 0.3333 0.0000 (  1639 PWs)   bands (ev):

   -28.7625  -8.7512  -8.5458  -8.5458  -0.3547  10.0245  11.6529  11.6529
    14.1399  16.6438  16.6438  16.9362  17.5044  20.0198  25.0831  31.3993

          k =-0.0833 0.4167-0.0833 (  1635 PWs)   bands (ev):

   -28.7406  -8.9228  -8.5808  -8.5715  -0.1424   9.5682  11.2784  11.4068
    14.0343  17.1983  17.2799  17.5383  18.0110  20.9628  26.1676  29.6268

          k =-0.1667 0.5000-0.1667 (  1633 PWs)   bands (ev):

   -28.7140  -9.1373  -8.6066  -8.6029   0.1201   9.2011  10.6588  10.9795
    14.3737  17.8543  17.9759  18.3869  18.9588  21.6810  26.5508  28.4484

          k =-0.2500 0.5833-0.2500 (  1630 PWs)   bands (ev):

   -28.6898  -9.3215  -8.6479  -8.6165   0.3675   8.8941  10.1851  10.5384
    15.0223  18.2758  18.5501  19.2882  20.1003  22.0999  25.5575  27.1831

          k = 0.6667-0.3333 0.6667 (  1641 PWs)   bands (ev):

   -28.6746  -9.4312  -8.6954  -8.6080   0.5450   8.6351  10.0103  10.1889
    15.9198  18.0424  18.6711  20.0131  21.2469  22.3324  24.9142  26.5447

          k = 0.5833-0.2500 0.5833 (  1628 PWs)   bands (ev):

   -28.6726  -9.4452  -8.7299  -8.5833   0.6105   8.5105   9.9864  10.0957
    16.9102  17.3641  18.2366  20.0617  22.0186  22.2673  24.9320  26.3725

          k = 0.5000-0.1667 0.5000 (  1628 PWs)   bands (ev):

   -28.6844  -9.3649  -8.7376  -8.5488   0.5409   8.6041   9.9534  10.3506
    16.5447  17.4893  17.8306  19.3675  21.6086  22.0751  25.3663  26.4558

          k = 0.4167-0.0833 0.4167 (  1630 PWs)   bands (ev):

   -28.7066  -9.2148  -8.7088  -8.5136   0.3451   8.9314  10.0937  10.7008
    15.9858  16.7285  17.9975  18.4854  20.6578  21.4914  26.1622  26.8408

          k = 0.3333 0.0000 0.3333 (  1624 PWs)   bands (ev):

   -28.7332  -9.0390  -8.6405  -8.4873   0.0706   9.4488  10.3910  11.0587
    15.6108  16.1393  17.5629  17.6416  19.7730  20.5241  26.2723  27.7902

          k = 0.0000 0.5000 0.0000 (  1636 PWs)   bands (ev):

   -28.7240  -8.9778  -8.6261  -8.6261  -0.1225   9.4158  11.5260  11.5260
    13.3789  17.5473  17.9042  17.9106  17.9106  21.6831  27.1256  29.4673

          k =-0.0833 0.5833-0.0833 (  1633 PWs)   bands (ev):

   -28.7020  -9.1070  -8.6690  -8.6609  -0.0448   9.3719  11.1926  11.3614
    13.3859  18.1258  18.3690  18.4857  18.5557  22.1419  27.1635  28.2187

          k =-0.1667 0.6667-0.1667 (  1633 PWs)   bands (ev):

   -28.6806  -9.2326  -8.7333  -8.6760   0.0752   9.3963  10.6172  11.0111
    13.8830  18.6176  18.9626  19.1757  19.3298  22.3857  25.5034  27.7264

          k = 0.7500-0.2500 0.7500 (  1633 PWs)   bands (ev):

   -28.6654  -9.3086  -8.8166  -8.6678   0.2166   9.3273  10.2557  10.6215
    14.6745  18.3623  19.0133  19.9553  20.4372  22.7331  24.5346  27.2736

          k = 0.6667-0.1667 0.6667 (  1633 PWs)   bands (ev):

   -28.6607  -9.3225  -8.8900  -8.6383   0.3493   9.0755  10.2536  10.2935
    15.6981  17.7086  18.5895  19.9785  21.4576  23.3420  24.4263  26.4033

          k = 0.5833-0.0833 0.5833 (  1629 PWs)   bands (ev):

   -28.6678  -9.2943  -8.9092  -8.5950   0.4345   8.8559  10.0815  10.4012
    16.7923  17.0451  17.9086  19.3844  22.0659  23.1966  24.8273  25.9065

          k = 0.5000 0.0000 0.5000 (  1624 PWs)   bands (ev):

   -28.6846  -9.2585  -8.8399  -8.5493   0.4365   8.7976  10.0122  10.5689
    16.4447  17.2328  17.6993  18.8292  21.8873  22.0618  25.4062  26.4021

          k = 0.0000 0.6667 0.0000 (  1640 PWs)   bands (ev):

   -28.6854  -9.1574  -8.7057  -8.7057  -0.1565   9.5893  11.5313  11.5313
    12.7591  18.2893  18.3511  19.0348  19.0348  22.3231  26.6115  28.5990

          k =-0.0833 0.7500-0.0833 (  1638 PWs)   bands (ev):

   -28.6686  -9.2243  -8.7599  -8.7297  -0.1807   9.8378  11.1855  11.4160
    12.9419  18.7793  18.8148  19.3771  19.3931  22.3866  25.2333  28.2059

          k = 0.8333-0.1667 0.8333 (  1633 PWs)   bands (ev):

   -28.6562  -9.2469  -8.8636  -8.7267  -0.1048  10.0159  10.6132  11.0967
    13.5946  18.8487  19.4124  19.6579  19.6702  22.7894  24.2710  27.7785

          k = 0.7500-0.0833 0.7500 (  1640 PWs)   bands (ev):

   -28.6514  -9.2035  -9.0032  -8.6975   0.0544   9.7790  10.3945  10.7061
    14.5076  18.2741  19.0531  19.7884  20.6413  23.6519  24.1379  26.6491

          k = 0.6667-0.0000 0.6667 (  1624 PWs)   bands (ev):

   -28.6557  -9.1819  -9.0600  -8.6494   0.2536   9.2803  10.3467  10.4139
    15.6325  17.6026  18.4782  19.5655  21.5260  24.2666  25.0099  25.0141

          k = 0.0000 0.8333 0.0000 (  1628 PWs)   bands (ev):

   -28.6572  -9.2634  -8.7635  -8.7635  -0.3320  10.1828  11.5984  11.5984
    12.3645  18.7171  18.9592  19.7071  19.7071  22.2307  24.4476  28.3818

          k = 0.9167-0.0833 0.9167 (  1635 PWs)   bands (ev):

   -28.6494  -9.2749  -8.8161  -8.7692  -0.3376  10.4022  11.1837  11.4827
    12.7328  19.0775  19.2444  19.6166  19.7604  22.5105  23.7427  28.2078

          k = 0.8333 0.0000 0.8333 (  1640 PWs)   bands (ev):

   -28.6472  -9.2322  -8.9273  -8.7451  -0.1962  10.4634  10.5079  11.1409
    13.5028  18.9600  19.5024  19.5776  19.7822  23.3581  23.5278  27.5136

          k = 0.0000-1.0000 0.0000 (  1660 PWs)   bands (ev):

   -28.6469  -9.2973  -8.7846  -8.7846  -0.4226  10.5107  11.6334  11.6334
    12.2297  18.8613  19.2104  19.9007  19.9007  22.2784  23.4396  28.4734

          k =-0.1667 0.3333 0.0000 (  1631 PWs)   bands (ev):

   -28.7546  -8.8596  -8.5713  -8.5028  -0.2213   9.9026  11.0765  11.4224
    14.6549  16.4280  16.8580  17.2451  18.3072  20.0819  25.4548  29.7786

          k =-0.2500 0.4167-0.0833 (  1628 PWs)   bands (ev):

   -28.7281  -9.0707  -8.6252  -8.5190   0.0841   9.3368  10.5479  11.0160
    14.9221  16.9226  17.7023  17.8728  19.3001  21.0407  26.4041  27.9407

          k =-0.3333 0.5000-0.1667 (  1630 PWs)   bands (ev):

   -28.7014  -9.2786  -8.6590  -8.5465   0.3791   8.8577  10.1400  10.5686
    15.4526  17.5700  18.1925  18.8582  20.3148  21.7706  25.9409  27.1201

          k = 0.5833-0.4167 0.7500 (  1629 PWs)   bands (ev):

   -28.6817  -9.4264  -8.6741  -8.5740   0.5900   8.5233   9.9513  10.2029
    16.2272  17.9570  18.2541  19.7181  21.2949  22.1886  25.2602  26.4540

          k = 0.5000-0.3333 0.6667 (  1632 PWs)   bands (ev):

   -28.6745  -9.4795  -8.6772  -8.5862   0.6663   8.4018   9.9772   9.9884
    17.0328  17.2945  18.5464  20.0652  21.8982  22.1949  25.0162  26.4540

          k =-0.1667 0.5000 0.0000 (  1633 PWs)   bands (ev):

   -28.7186  -9.0525  -8.6552  -8.5855   0.0007   9.3244  10.9965  11.2264
    13.9821  17.7510  17.7568  18.0604  18.6614  21.6908  27.0416  27.7893

          k =-0.2500 0.5833-0.0833 (  1638 PWs)   bands (ev):

   -28.6946  -9.1987  -8.7177  -8.6113   0.1671   9.1823  10.5230  10.8969
    14.3714  18.2323  18.2710  18.7207  19.6808  22.1737  26.0679  27.2955

          k = 0.6667-0.3333 0.8333 (  1631 PWs)   bands (ev):

   -28.6750  -9.3145  -8.7654  -8.6379   0.3184   9.0624  10.1888  10.5529
    15.0407  18.1335  18.7570  19.4555  20.7597  22.5164  25.0017  26.8221

          k = 0.5833-0.2500 0.7500 (  1635 PWs)   bands (ev):

   -28.6651  -9.3693  -8.8059  -8.6407   0.4234   8.9145  10.1438  10.2617
    15.9442  17.4050  18.8808  20.0563  21.4322  22.8625  24.6327  26.6658

          k = 0.5000-0.1667 0.6667 (  1631 PWs)   bands (ev):

   -28.6677  -9.3543  -8.8273  -8.6158   0.4568   8.8271  10.0857  10.3016
    16.4798  17.0338  18.5302  19.7487  21.7908  22.8848  24.8070  26.2410

          k = 0.4167-0.0833 0.5833 (  1626 PWs)   bands (ev):

   -28.6820  -9.2821  -8.8072  -8.5768   0.4033   8.8685  10.0750  10.5487
    15.7774  17.8259  17.9404  19.0089  21.3742  22.3739  25.3195  26.5111

          k = 0.3333 0.0000 0.5000 (  1630 PWs)   bands (ev):

   -28.7041  -9.1798  -8.7339  -8.5400   0.2680   9.0411  10.2460  10.8148
    15.2408  17.3737  17.9212  18.4809  20.2822  21.7996  26.2868  26.8155

          k =-0.1667 0.6667-0.0000 (  1644 PWs)   bands (ev):

   -28.6827  -9.1863  -8.7382  -8.6856  -0.0388   9.5106  11.0398  11.1438
    13.4615  18.3390  18.9252  18.9458  19.1839  22.3864  25.9579  27.7173

          k = 0.7500-0.2500 0.9167 (  1640 PWs)   bands (ev):

   -28.6657  -9.2414  -8.8154  -8.7132   0.0235   9.6603  10.5777  10.8966
    13.9910  18.4516  19.1674  19.2880  20.1488  22.6987  24.8220  27.2709

          k = 0.6667-0.1667 0.8333 (  1634 PWs)   bands (ev):

   -28.6558  -9.2487  -8.9149  -8.7103   0.1306   9.5971  10.3322  10.6166
    14.7862  17.8394  19.3082  19.7047  20.7989  23.3778  24.3482  26.8251

          k = 0.5833-0.0833 0.7500 (  1632 PWs)   bands (ev):

   -28.6557  -9.2260  -8.9896  -8.6761   0.2544   9.3004  10.3417  10.3860
    15.8079  17.0450  18.9674  19.6441  21.3854  24.2344  24.4342  25.7797

          k = 0.5000 0.0000 0.6667 (  1629 PWs)   bands (ev):

   -28.6653  -9.2461  -8.9442  -8.6255   0.3568   9.0297  10.1461  10.4778
    16.3364  16.9252  18.4422  19.2260  21.8243  23.4977  24.8075  25.8649

          k = 0.8333-0.1667 1.0000 (  1645 PWs)   bands (ev):

   -28.6563  -9.2494  -8.7985  -8.7708  -0.2166  10.1259  11.1172  11.1208
    13.1629  18.8259  19.1656  19.6398  19.6840  22.5635  24.3718  27.8043

          k = 0.7500-0.0833 0.9167 (  1637 PWs)   bands (ev):

   -28.6491  -9.2237  -8.9021  -8.7731  -0.1360  10.2779  10.5661  10.9337
    13.8098  18.4629  19.3160  19.7251  20.1796  23.2431  23.9508  27.3050

          k = 0.6667 0.0000 0.8333 (  1641 PWs)   bands (ev):

   -28.6488  -9.1433  -9.0500  -8.7348   0.0371   9.8624  10.4296  10.6543
    14.7047  17.7240  19.4294  19.5658  20.7378  23.9483  24.3375  26.3023

          k =-0.1667-1.0000-0.0000 (  1640 PWs)   bands (ev):

   -28.6467  -9.2644  -8.8205  -8.8056  -0.3075  10.4866  11.1160  11.1340
    13.0716  19.0964  19.1576  19.6430  19.9037  22.8961  23.4806  27.9368

          k = 0.6667-0.3333 1.0000 (  1632 PWs)   bands (ev):

   -28.6752  -9.2362  -8.8262  -8.6471   0.2120   9.2534  10.3356  10.7074
    14.7953  18.0240  18.7142  18.9300  20.7737  22.6725  25.1915  26.7546

          k = 0.5833-0.2500 0.9167 (  1631 PWs)   bands (ev):

   -28.6609  -9.2507  -8.9010  -8.6913   0.2437   9.3130  10.2545  10.5189
    15.4537  17.2853  19.1288  19.3730  21.3018  23.4185  24.6951  26.2869

          k = 0.5000-0.1667 0.8333 (  1640 PWs)   bands (ev):

   -28.6557  -9.2535  -8.9268  -8.7118   0.2551   9.3217  10.3330  10.3609
    16.2177  16.4148  19.3126  19.7260  21.2367  23.9493  24.4961  26.2247

          k = 0.6667-0.1667 1.0000 (  1645 PWs)   bands (ev):

   -28.6541  -9.2106  -8.8930  -8.7755   0.0263   9.8634  10.4656  10.6791
    14.5239  17.7937  19.2038  19.6176  20.7310  23.3628  24.5157  26.6935

          k = 0.5833-0.0833 0.9167 (  1630 PWs)   bands (ev):

   -28.6488  -9.1453  -8.9931  -8.7986   0.0775   9.8074  10.4190  10.5400
    15.2873  16.9200  19.4011  19.7292  20.8713  24.1888  24.6632  26.0717

          k = 0.5000 0.0000 0.8333 (  1631 PWs)   bands (ev):

   -28.6513  -9.1469  -9.0195  -8.7578   0.1573   9.5752  10.3896  10.4705
    16.1088  16.2421  19.4148  19.5211  21.1134  24.4015  24.9542  25.4945

          k =-0.3333-1.0000 0.0000 (  1640 PWs)   bands (ev):

   -28.6464  -9.1735  -8.9173  -8.8469  -0.0666  10.2751  10.4463  10.6767
    14.4365  17.6834  19.2330  19.9099  20.5476  23.9057  24.0670  26.7586

          k =-0.5000-1.0000 0.0000 (  1628 PWs)   bands (ev):

   -28.6462  -9.0469  -9.0469  -8.8672   0.0601   9.8902  10.4775  10.4775
    16.0279  16.0279  19.2941  19.9129  20.8332  24.4178  25.4007  25.4007

     the Fermi energy is    12.1623 ev

!    total energy              =     -97.34172509 Ry
     estimated scf accuracy    <          6.9E-11 Ry
     smearing contrib. (-TS)   =      -0.00000000 Ry
     internal energy E=F+TS    =     -97.34172509 Ry

     The total energy is F=E-TS. E is the sum of the following terms:
     one-electron contribution =      -9.75502948 Ry
     hartree contribution      =      13.04160371 Ry
     xc contribution           =     -15.33478825 Ry
     ewald contribution        =     -85.29351108 Ry

     convergence has been achieved in   9 iterations

     Writing all to output data dir out/mp-2114.save/
 
     init_run     :      0.08s CPU      0.13s WALL (       1 calls)
     electrons    :      2.12s CPU      2.38s WALL (       1 calls)

     Called by init_run:
     wfcinit      :      0.06s CPU      0.08s WALL (       1 calls)
     potinit      :      0.01s CPU      0.01s WALL (       1 calls)
     hinit0       :      0.01s CPU      0.02s WALL (       1 calls)

     Called by electrons:
     c_bands      :      1.82s CPU      2.04s WALL (       9 calls)
     sum_band     :      0.28s CPU      0.30s WALL (       9 calls)
     v_of_rho     :      0.02s CPU      0.02s WALL (      10 calls)
     mix_rho      :      0.00s CPU      0.00s WALL (       9 calls)

     Called by c_bands:
     init_us_2    :      0.03s CPU      0.03s WALL (     684 calls)
     init_us_2:cp :      0.03s CPU      0.03s WALL (     684 calls)
     cegterg      :      1.67s CPU      1.86s WALL (     324 calls)

     Called by *egterg:
     cdiaghg      :      0.32s CPU      0.34s WALL (    1246 calls)
     h_psi        :      1.26s CPU      1.43s WALL (    1282 calls)
     g_psi        :      0.01s CPU      0.01s WALL (     922 calls)

     Called by h_psi:
     h_psi:calbec :      0.04s CPU      0.05s WALL (    1282 calls)
     vloc_psi     :      1.18s CPU      1.34s WALL (    1282 calls)
     add_vuspsi   :      0.02s CPU      0.03s WALL (    1282 calls)

     General routines
     calbec       :      0.04s CPU      0.05s WALL (    1282 calls)
     fft          :      0.01s CPU      0.02s WALL (      99 calls)
     ffts         :      0.00s CPU      0.00s WALL (       9 calls)
     fftw         :      1.27s CPU      1.43s WALL (   34692 calls)
 
     Parallel routines
 
     PWSCF        :      2.27s CPU      2.79s WALL

 
   This run was terminated on:   1:58:11  14Dec2023            

=------------------------------------------------------------------------------=
   JOB DONE.
=------------------------------------------------------------------------------=
