
     Program PWSCF v.7.1 starts on 14Dec2023 at 12:34:26 

     This program is part of the open-source Quantum ESPRESSO suite
     for quantum simulation of materials; please cite
         "P. Giannozzi et al., J. Phys.:Condens. Matter 21 395502 (2009);
         "P. Giannozzi et al., J. Phys.:Condens. Matter 29 465901 (2017);
         "P. Giannozzi et al., J. Chem. Phys. 152 154105 (2020);
          URL http://www.quantum-espresso.org", 
     in publications or presentations arising from this work. More details at
     http://www.quantum-espresso.org/quote

     Parallel version (MPI), running on    24 processors

     MPI processes distributed on     1 nodes
     123002 MiB available memory on the printing compute node when the environment starts
 
     Reading input from pw_mp-22916_scf_k3000_E55.in
Warning: card &CELL ignored
Warning: card / ignored

     Current dimensions of program PWSCF are:
     Max number of different atomic species (ntypx) = 10
     Max number of k-points (npk) =  40000
     Max angular momentum in pseudopotentials (lmaxx) =  4
 
     K-points division:     npool     =       2
     R & G space division:  proc/nbgrp/npool/nimage =      12
     Subspace diagonalization in iterative solution of the eigenvalue problem:
     a serial algorithm will be used

 
     Parallelization info
     --------------------
     sticks:   dense  smooth     PW     G-vecs:    dense   smooth      PW
     Min          79      79     23                 1610     1610     260
     Max          80      80     24                 1613     1613     263
     Sum         955     955    283                19339    19339    3143
 
     Using Slab Decomposition
 


     bravais-lattice index     =            2
     lattice parameter (alat)  =      11.1930  a.u.
     unit-cell volume          =     350.5745 (a.u.)^3
     number of atoms/cell      =            2
     number of atomic types    =            2
     number of electrons       =        16.00
     number of Kohn-Sham states=           16
     kinetic-energy cutoff     =      55.0000  Ry
     charge density cutoff     =     220.0000  Ry
     scf convergence threshold =      1.0E-10
     mixing beta               =       0.7000
     number of iterations used =            8  plain     mixing
     Exchange-correlation= PBE
                           (   1   4   3   4   0   0   0)

     celldm(1)=  11.193007  celldm(2)=   0.000000  celldm(3)=   0.000000
     celldm(4)=   0.000000  celldm(5)=   0.000000  celldm(6)=   0.000000

     crystal axes: (cart. coord. in units of alat)
               a(1) = (  -0.500000   0.000000   0.500000 )  
               a(2) = (   0.000000   0.500000   0.500000 )  
               a(3) = (  -0.500000   0.500000   0.000000 )  

     reciprocal axes: (cart. coord. in units 2 pi/alat)
               b(1) = ( -1.000000 -1.000000  1.000000 )  
               b(2) = (  1.000000  1.000000  1.000000 )  
               b(3) = ( -1.000000  1.000000 -1.000000 )  


     PseudoPot. # 1 for Br read from file:
     /usr/scratch4/magr4985/MG/HTDF/pseudo/SG15/Br.upf
     MD5 check sum: 5b50323dbf1c0ae0ed9e7f1e72c3f86c
     Pseudo is Norm-conserving, Zval =  7.0
     Generated using ONCVPSP code by D. R. Hamann
     Using radial grid of  602 points,  6 beta functions with: 
                l(1) =   0
                l(2) =   0
                l(3) =   1
                l(4) =   1
                l(5) =   2
                l(6) =   2

     PseudoPot. # 2 for Na read from file:
     /usr/scratch4/magr4985/MG/HTDF/pseudo/SG15/Na.upf
     MD5 check sum: 425b17ce8ead78efa4860b7b3310c7e3
     Pseudo is Norm-conserving, Zval =  9.0
     Generated using ONCVPSP code by D. R. Hamann
     Using radial grid of  602 points,  4 beta functions with: 
                l(1) =   0
                l(2) =   0
                l(3) =   1
                l(4) =   1

     atomic species   valence    mass     pseudopotential
        Br             7.00    79.90400     Br( 1.00)
        Na             9.00    22.98980     Na( 1.00)

     48 Sym. Ops., with inversion, found



   Cartesian axes

     site n.     atom                  positions (alat units)
         1           Na  tau(   1) = (   0.0000000   0.0000000   0.0000000  )
         2           Br  tau(   2) = (  -0.5000000   0.5000000   0.5000000  )

     number of k points=    72  Gaussian smearing, width (Ry)=  0.0005
                       cart. coord. in units 2pi/alat
        k(    1) = (   0.0000000   0.0000000   0.0000000), wk =   0.0011574
        k(    2) = (  -0.0833333   0.0833333  -0.0833333), wk =   0.0092593
        k(    3) = (  -0.1666667   0.1666667  -0.1666667), wk =   0.0092593
        k(    4) = (  -0.2500000   0.2500000  -0.2500000), wk =   0.0092593
        k(    5) = (  -0.3333333   0.3333333  -0.3333333), wk =   0.0092593
        k(    6) = (  -0.4166667   0.4166667  -0.4166667), wk =   0.0092593
        k(    7) = (   0.5000000  -0.5000000   0.5000000), wk =   0.0046296
        k(    8) = (   0.0000000   0.1666667   0.0000000), wk =   0.0069444
        k(    9) = (  -0.0833333   0.2500000  -0.0833333), wk =   0.0277778
        k(   10) = (  -0.1666667   0.3333333  -0.1666667), wk =   0.0277778
        k(   11) = (  -0.2500000   0.4166667  -0.2500000), wk =   0.0277778
        k(   12) = (  -0.3333333   0.5000000  -0.3333333), wk =   0.0277778
        k(   13) = (   0.5833333  -0.4166667   0.5833333), wk =   0.0277778
        k(   14) = (   0.5000000  -0.3333333   0.5000000), wk =   0.0277778
        k(   15) = (   0.4166667  -0.2500000   0.4166667), wk =   0.0277778
        k(   16) = (   0.3333333  -0.1666667   0.3333333), wk =   0.0277778
        k(   17) = (   0.2500000  -0.0833333   0.2500000), wk =   0.0277778
        k(   18) = (   0.1666667  -0.0000000   0.1666667), wk =   0.0138889
        k(   19) = (   0.0000000   0.3333333   0.0000000), wk =   0.0069444
        k(   20) = (  -0.0833333   0.4166667  -0.0833333), wk =   0.0277778
        k(   21) = (  -0.1666667   0.5000000  -0.1666667), wk =   0.0277778
        k(   22) = (  -0.2500000   0.5833333  -0.2500000), wk =   0.0277778
        k(   23) = (   0.6666667  -0.3333333   0.6666667), wk =   0.0277778
        k(   24) = (   0.5833333  -0.2500000   0.5833333), wk =   0.0277778
        k(   25) = (   0.5000000  -0.1666667   0.5000000), wk =   0.0277778
        k(   26) = (   0.4166667  -0.0833333   0.4166667), wk =   0.0277778
        k(   27) = (   0.3333333   0.0000000   0.3333333), wk =   0.0138889
        k(   28) = (   0.0000000   0.5000000   0.0000000), wk =   0.0069444
        k(   29) = (  -0.0833333   0.5833333  -0.0833333), wk =   0.0277778
        k(   30) = (  -0.1666667   0.6666667  -0.1666667), wk =   0.0277778
        k(   31) = (   0.7500000  -0.2500000   0.7500000), wk =   0.0277778
        k(   32) = (   0.6666667  -0.1666667   0.6666667), wk =   0.0277778
        k(   33) = (   0.5833333  -0.0833333   0.5833333), wk =   0.0277778
        k(   34) = (   0.5000000   0.0000000   0.5000000), wk =   0.0138889
        k(   35) = (   0.0000000   0.6666667   0.0000000), wk =   0.0069444
        k(   36) = (  -0.0833333   0.7500000  -0.0833333), wk =   0.0277778
        k(   37) = (   0.8333333  -0.1666667   0.8333333), wk =   0.0277778
        k(   38) = (   0.7500000  -0.0833333   0.7500000), wk =   0.0277778
        k(   39) = (   0.6666667  -0.0000000   0.6666667), wk =   0.0138889
        k(   40) = (   0.0000000   0.8333333   0.0000000), wk =   0.0069444
        k(   41) = (   0.9166667  -0.0833333   0.9166667), wk =   0.0277778
        k(   42) = (   0.8333333   0.0000000   0.8333333), wk =   0.0138889
        k(   43) = (   0.0000000  -1.0000000   0.0000000), wk =   0.0034722
        k(   44) = (  -0.1666667   0.3333333   0.0000000), wk =   0.0277778
        k(   45) = (  -0.2500000   0.4166667  -0.0833333), wk =   0.0555556
        k(   46) = (  -0.3333333   0.5000000  -0.1666667), wk =   0.0555556
        k(   47) = (   0.5833333  -0.4166667   0.7500000), wk =   0.0555556
        k(   48) = (   0.5000000  -0.3333333   0.6666667), wk =   0.0277778
        k(   49) = (  -0.1666667   0.5000000   0.0000000), wk =   0.0277778
        k(   50) = (  -0.2500000   0.5833333  -0.0833333), wk =   0.0555556
        k(   51) = (   0.6666667  -0.3333333   0.8333333), wk =   0.0555556
        k(   52) = (   0.5833333  -0.2500000   0.7500000), wk =   0.0555556
        k(   53) = (   0.5000000  -0.1666667   0.6666667), wk =   0.0555556
        k(   54) = (   0.4166667  -0.0833333   0.5833333), wk =   0.0555556
        k(   55) = (   0.3333333   0.0000000   0.5000000), wk =   0.0277778
        k(   56) = (  -0.1666667   0.6666667  -0.0000000), wk =   0.0277778
        k(   57) = (   0.7500000  -0.2500000   0.9166667), wk =   0.0555556
        k(   58) = (   0.6666667  -0.1666667   0.8333333), wk =   0.0555556
        k(   59) = (   0.5833333  -0.0833333   0.7500000), wk =   0.0555556
        k(   60) = (   0.5000000   0.0000000   0.6666667), wk =   0.0277778
        k(   61) = (   0.8333333  -0.1666667   1.0000000), wk =   0.0277778
        k(   62) = (   0.7500000  -0.0833333   0.9166667), wk =   0.0555556
        k(   63) = (   0.6666667   0.0000000   0.8333333), wk =   0.0277778
        k(   64) = (  -0.1666667  -1.0000000  -0.0000000), wk =   0.0138889
        k(   65) = (   0.6666667  -0.3333333   1.0000000), wk =   0.0277778
        k(   66) = (   0.5833333  -0.2500000   0.9166667), wk =   0.0555556
        k(   67) = (   0.5000000  -0.1666667   0.8333333), wk =   0.0277778
        k(   68) = (   0.6666667  -0.1666667   1.0000000), wk =   0.0277778
        k(   69) = (   0.5833333  -0.0833333   0.9166667), wk =   0.0555556
        k(   70) = (   0.5000000   0.0000000   0.8333333), wk =   0.0277778
        k(   71) = (  -0.3333333  -1.0000000   0.0000000), wk =   0.0138889
        k(   72) = (  -0.5000000  -1.0000000   0.0000000), wk =   0.0069444

     Dense  grid:    19339 G-vectors     FFT dimensions: (  40,  40,  40)

     Estimated max dynamical RAM per process >       3.92 MB

     Estimated total dynamical RAM >      89.36 MB

     Initial potential from superposition of free atoms

     starting charge      15.8534, renormalised to      16.0000
     Starting wfcs are random

     total cpu time spent up to now is        0.2 secs

     Self-consistent Calculation

     iteration #  1     ecut=    55.00 Ry     beta= 0.70
     Davidson diagonalization with overlap
     ethr =  1.00E-02,  avg # of iterations =  9.1

     Threshold (ethr) on eigenvalues was too large:
     Diagonalizing with lowered threshold

     Davidson diagonalization with overlap
     ethr =  2.58E-04,  avg # of iterations =  5.7

     total cpu time spent up to now is        1.7 secs

     total energy              =    -112.38983292 Ry
     estimated scf accuracy    <       0.03721628 Ry

     iteration #  2     ecut=    55.00 Ry     beta= 0.70
     Davidson diagonalization with overlap
     ethr =  2.33E-04,  avg # of iterations =  2.2

     total cpu time spent up to now is        2.0 secs

     total energy              =    -112.39962615 Ry
     estimated scf accuracy    <       0.00466128 Ry

     iteration #  3     ecut=    55.00 Ry     beta= 0.70
     Davidson diagonalization with overlap
     c_bands:  1 eigenvalues not converged
     ethr =  2.91E-05,  avg # of iterations =  6.5

     total cpu time spent up to now is        2.5 secs

     total energy              =    -112.40055587 Ry
     estimated scf accuracy    <       0.00019981 Ry

     iteration #  4     ecut=    55.00 Ry     beta= 0.70
     Davidson diagonalization with overlap
     ethr =  1.25E-06,  avg # of iterations =  6.2

     total cpu time spent up to now is        3.0 secs

     total energy              =    -112.40062977 Ry
     estimated scf accuracy    <       0.00000495 Ry

     iteration #  5     ecut=    55.00 Ry     beta= 0.70
     Davidson diagonalization with overlap
     ethr =  3.10E-08,  avg # of iterations =  3.4

     total cpu time spent up to now is        3.4 secs

     total energy              =    -112.40063287 Ry
     estimated scf accuracy    <       0.00000028 Ry

     iteration #  6     ecut=    55.00 Ry     beta= 0.70
     Davidson diagonalization with overlap
     ethr =  1.73E-09,  avg # of iterations =  4.4

     total cpu time spent up to now is        3.8 secs

     total energy              =    -112.40063313 Ry
     estimated scf accuracy    <       0.00000003 Ry

     iteration #  7     ecut=    55.00 Ry     beta= 0.70
     Davidson diagonalization with overlap
     ethr =  1.96E-10,  avg # of iterations =  2.6

     total cpu time spent up to now is        4.1 secs

     total energy              =    -112.40063313 Ry
     estimated scf accuracy    <          4.4E-09 Ry

     iteration #  8     ecut=    55.00 Ry     beta= 0.70
     Davidson diagonalization with overlap
     ethr =  2.74E-11,  avg # of iterations =  3.6

     total cpu time spent up to now is        4.5 secs

     total energy              =    -112.40063313 Ry
     estimated scf accuracy    <          1.5E-10 Ry

     iteration #  9     ecut=    55.00 Ry     beta= 0.70
     Davidson diagonalization with overlap
     ethr =  9.30E-13,  avg # of iterations =  4.0

     total cpu time spent up to now is        4.9 secs

     total energy              =    -112.40063313 Ry
     estimated scf accuracy    <          1.2E-10 Ry

     iteration # 10     ecut=    55.00 Ry     beta= 0.70
     Davidson diagonalization with overlap
     ethr =  7.71E-13,  avg # of iterations =  1.5

     total cpu time spent up to now is        5.2 secs

     total energy              =    -112.40063313 Ry
     estimated scf accuracy    <          2.1E-10 Ry

     iteration # 11     ecut=    55.00 Ry     beta= 0.70
     Davidson diagonalization with overlap
     ethr =  7.71E-13,  avg # of iterations =  3.0

     total cpu time spent up to now is        5.5 secs

     End of self-consistent calculation

          k = 0.0000 0.0000 0.0000 (  2421 PWs)   bands (ev):

   -47.8858 -19.8276 -19.8276 -19.8276 -11.1116   1.7470   1.7470   1.7470
     5.9548  11.6218  11.6218  11.6218  13.8207  13.8207  14.7635  16.5847

          k =-0.0833 0.0833-0.0833 (  2427 PWs)   bands (ev):

   -47.8858 -19.8288 -19.8277 -19.8277 -11.0926   1.5334   1.7264   1.7264
     6.2203  11.3505  11.7141  11.7141  13.6069  13.6069  15.2443  16.4765

          k =-0.1667 0.1667-0.1667 (  2415 PWs)   bands (ev):

   -47.8856 -19.8319 -19.8279 -19.8279 -11.0400   1.0398   1.6713   1.6713
     6.8366  10.9188  11.8778  11.8778  13.3573  13.3573  15.6119  16.9938

          k =-0.2500 0.2500-0.2500 (  2427 PWs)   bands (ev):

   -47.8857 -19.8362 -19.8282 -19.8282 -10.9664   0.4902   1.5985   1.5985
     7.4641  10.7624  11.8088  11.8088  13.6420  13.6420  15.2280  18.6351

          k =-0.3333 0.3333-0.3333 (  2424 PWs)   bands (ev):

   -47.8856 -19.8404 -19.8285 -19.8285 -10.8906   0.0231   1.5283   1.5283
     7.8259  11.0653  11.5675  11.5675  14.4720  14.4720  14.8676  19.7865

          k =-0.4167 0.4167-0.4167 (  2428 PWs)   bands (ev):

   -47.8856 -19.8435 -19.8287 -19.8287 -10.8337  -0.2850   1.4785   1.4785
     7.9292  11.3750  11.3750  11.6050  14.7036  15.6281  15.6281  18.4325

          k = 0.5000-0.5000 0.5000 (  2392 PWs)   bands (ev):

   -47.8850 -19.8446 -19.8288 -19.8288 -10.8125  -0.3922   1.4606   1.4606
     7.9410  11.3057  11.3057  11.8741  14.6997  16.8030  16.8030  17.3246

          k = 0.0000 0.1667 0.0000 (  2405 PWs)   bands (ev):

   -47.8855 -19.8287 -19.8280 -19.8280 -11.0865   1.5181   1.6935   1.6935
     6.3082  11.1931  11.7931  11.7931  13.1791  13.9168  15.4243  16.7687

          k =-0.0833 0.2500-0.0833 (  2415 PWs)   bands (ev):

   -47.8856 -19.8310 -19.8283 -19.8281 -11.0455   1.1500   1.6285   1.6499
     6.8089  10.8015  11.9345  11.9904  12.7517  13.8904  16.0579  16.9033

          k =-0.1667 0.3333-0.1667 (  2424 PWs)   bands (ev):

   -47.8857 -19.8348 -19.8287 -19.8283 -10.9796   0.6457   1.5509   1.5817
     7.4528  10.5581  11.6980  12.0409  13.0017  14.0749  15.8319  18.2034

          k =-0.2500 0.4167-0.2500 (  2419 PWs)   bands (ev):

   -47.8855 -19.8389 -19.8290 -19.8286 -10.9050   0.1749   1.4820   1.4942
     7.9286  10.7175  11.3303  11.8465  13.7603  14.7877  15.4645  19.7993

          k =-0.3333 0.5000-0.3333 (  2424 PWs)   bands (ev):

   -47.8855 -19.8423 -19.8291 -19.8290 -10.8421  -0.1700   1.4114   1.4386
     8.1102  11.0054  11.3417  11.6114  14.6599  15.3376  15.8769  18.3087

          k = 0.5833-0.4167 0.5833 (  2419 PWs)   bands (ev):

   -47.8854 -19.8440 -19.8294 -19.8291 -10.8090  -0.3364   1.3545   1.4305
     8.1458  10.9277  11.4635  11.8021  15.0591  15.9347  16.7846  17.4079

          k = 0.5000-0.3333 0.5000 (  2417 PWs)   bands (ev):

   -47.8854 -19.8436 -19.8296 -19.8288 -10.8158  -0.3017   1.3370   1.4595
     8.1476  10.9886  11.4471  11.7009  15.1477  15.4707  16.5986  17.0252

          k = 0.4167-0.2500 0.4167 (  2416 PWs)   bands (ev):

   -47.8854 -19.8413 -19.8295 -19.8285 -10.8605  -0.0711   1.3636   1.5191
     8.0890  11.0834  11.2550  11.5737  14.2550  15.2757  15.6278  18.2294

          k = 0.3333-0.1667 0.3333 (  2424 PWs)   bands (ev):

   -47.8856 -19.8376 -19.8293 -19.8281 -10.9296   0.3212   1.4306   1.5952
     7.8132  10.6734  11.5321  11.8241  13.3032  14.6022  15.5985  18.9057

          k = 0.2500-0.0833 0.2500 (  2426 PWs)   bands (ev):

   -47.8857 -19.8336 -19.8289 -19.8278 -11.0034   0.8078   1.5264   1.6680
     7.2397  10.6802  11.8193  12.0289  12.8032  13.9135  15.9932  17.4264

          k = 0.1667-0.0000 0.1667 (  2427 PWs)   bands (ev):

   -47.8858 -19.8303 -19.8283 -19.8277 -11.0626   1.2693   1.6357   1.7169
     6.6024  11.0177  11.8466  11.8583  13.0830  13.7001  15.8381  16.7051

          k = 0.0000 0.3333 0.0000 (  2429 PWs)   bands (ev):

   -47.8858 -19.8315 -19.8288 -19.8288 -11.0187   1.0268   1.5532   1.5532
     7.1369  10.4173  12.0619  12.2760  12.2760  14.1988  16.8957  17.3243

          k =-0.0833 0.4167-0.0833 (  2428 PWs)   bands (ev):

   -47.8857 -19.8340 -19.8293 -19.8292 -10.9658   0.6852   1.4680   1.4684
     7.6769  10.1086  11.4756  12.4916  12.7845  14.4304  17.0304  18.0343

          k =-0.1667 0.5000-0.1667 (  2417 PWs)   bands (ev):

   -47.8855 -19.8374 -19.8297 -19.8296 -10.9000   0.3027   1.3538   1.3955
     8.2074  10.0961  10.9958  12.3963  13.5150  15.0690  16.7108  19.1940

          k =-0.2500 0.5833-0.2500 (  2413 PWs)   bands (ev):

   -47.8853 -19.8404 -19.8302 -19.8299 -10.8387  -0.0081   1.2201   1.3533
     8.4987  10.4044  10.8086  12.1428  14.3060  16.1108  16.5376  18.2618

          k = 0.6667-0.3333 0.6667 (  2422 PWs)   bands (ev):

   -47.8854 -19.8422 -19.8308 -19.8297 -10.7992  -0.1871   1.1033   1.3507
     8.6088  10.3615  11.3435  11.9205  14.8082  16.5120  16.8029  17.5314

          k = 0.5833-0.2500 0.5833 (  2415 PWs)   bands (ev):

   -47.8853 -19.8425 -19.8313 -19.8293 -10.7932  -0.2065   1.0360   1.3882
     8.6725  10.3757  11.5459  11.8066  15.2141  15.4647  16.3183  17.8890

          k = 0.5000-0.1667 0.5000 (  2419 PWs)   bands (ev):

   -47.8854 -19.8411 -19.8315 -19.8288 -10.8225  -0.0688   1.0411   1.4574
     8.6746  10.5768  11.0475  11.8305  14.2265  16.1517  16.3855  17.3131

          k = 0.4167-0.0833 0.4167 (  2420 PWs)   bands (ev):

   -47.8855 -19.8387 -19.8311 -19.8283 -10.8783   0.1911   1.1324   1.5421
     8.4450  10.5238  10.9542  12.0026  13.2256  15.7725  16.6748  18.0492

          k = 0.3333 0.0000 0.3333 (  2411 PWs)   bands (ev):

   -47.8854 -19.8359 -19.8301 -19.8279 -10.9445   0.5079   1.3088   1.6199
     7.8735  10.4486  11.4311  12.2998  12.5174  14.7285  16.9107  17.2836

          k = 0.0000 0.5000 0.0000 (  2429 PWs)   bands (ev):

   -47.8857 -19.8347 -19.8300 -19.8300 -10.9284   0.5360   1.3745   1.3745
     7.9951   9.7079  11.2254  12.9952  12.9952  14.6438  18.2439  18.2441

          k =-0.0833 0.5833-0.0833 (  2418 PWs)   bands (ev):

   -47.8854 -19.8367 -19.8306 -19.8305 -10.8768   0.2967   1.2584   1.2953
     8.3364   9.5206  11.0013  13.1516  13.5577  15.1540  18.2053  19.0048

          k =-0.1667 0.6667-0.1667 (  2413 PWs)   bands (ev):

   -47.8853 -19.8387 -19.8314 -19.8308 -10.8244   0.0915   1.0767   1.2493
     8.6053   9.6737  10.8568  12.9278  14.2499  16.1622  17.9627  18.4263

          k = 0.7500-0.2500 0.7500 (  2408 PWs)   bands (ev):

   -47.8852 -19.8401 -19.8326 -19.8306 -10.7856  -0.0189   0.8671   1.2465
     8.7813   9.9954  10.9671  12.6320  14.5025  16.9083  17.5262  17.7896

          k = 0.6667-0.1667 0.6667 (  2403 PWs)   bands (ev):

   -47.8851 -19.8404 -19.8336 -19.8302 -10.7717  -0.0220   0.7021   1.2875
     8.9899  10.1075  11.2610  12.3942  14.2668  15.6563  17.5449  18.7009

          k = 0.5833-0.0833 0.5833 (  2411 PWs)   bands (ev):

   -47.8852 -19.8400 -19.8339 -19.8295 -10.7865   0.0420   0.6693   1.3634
     9.2106  10.1763  10.9749  12.2441  14.4794  14.7918  17.7261  18.5925

          k = 0.5000 0.0000 0.5000 (  2421 PWs)   bands (ev):

   -47.8854 -19.8394 -19.8329 -19.8288 -10.8258   0.1091   0.8334   1.4564
     9.0849  10.4309  10.5393  12.1487  13.6187  16.0242  17.3987  17.8932

          k = 0.0000 0.6667 0.0000 (  2397 PWs)   bands (ev):

   -47.8851 -19.8373 -19.8312 -19.8312 -10.8412   0.1677   1.2083   1.2083
     8.2893   9.1735  11.2893  13.8621  13.8621  15.1948  19.2196  19.2196

          k =-0.0833 0.7500-0.0833 (  2411 PWs)   bands (ev):

   -47.8852 -19.8384 -19.8320 -19.8316 -10.8027   0.0450   1.0800   1.1552
     8.3170   9.1071  11.5044  13.8939  14.3933  15.9309  18.2113  18.7394

          k = 0.8333-0.1667 0.8333 (  2404 PWs)   bands (ev):

   -47.8851 -19.8388 -19.8334 -19.8315 -10.7717   0.0147   0.8393   1.1475
     8.4621   9.3790  11.5709  13.5299  14.5255  16.9884  17.6241  17.6557

          k = 0.7500-0.0833 0.7500 (  2405 PWs)   bands (ev):

   -47.8851 -19.8383 -19.8354 -19.8311 -10.7569   0.1101   0.5423   1.1867
     8.7009   9.8662  11.5296  13.1153  13.9349  16.0929  18.2042  18.6968

          k = 0.6667-0.0000 0.6667 (  2390 PWs)   bands (ev):

   -47.8849 -19.8382 -19.8360 -19.8303 -10.7624   0.2426   0.3526   1.2647
     9.0353  10.2118  11.2069  12.6911  13.8717  15.1041  18.8745  18.9480

          k = 0.0000 0.8333 0.0000 (  2418 PWs)   bands (ev):

   -47.8853 -19.8389 -19.8321 -19.8321 -10.7795  -0.0473   1.0936   1.0936
     8.0706   8.8459  12.1062  14.7519  14.7519  15.7166  18.0972  18.4411

          k = 0.9167-0.0833 0.9167 (  2417 PWs)   bands (ev):

   -47.8853 -19.8391 -19.8329 -19.8322 -10.7613  -0.0712   0.9774   1.0778
     8.0961   8.8954  12.3214  14.5162  14.8703  16.5520  17.5951  17.7058

          k = 0.8333 0.0000 0.8333 (  2408 PWs)   bands (ev):

   -47.8851 -19.8384 -19.8344 -19.8318 -10.7530   0.0076   0.7396   1.1112
     8.3435   9.2808  12.1208  13.8568  14.2580  16.7979  17.7331  18.3616

          k = 0.0000-1.0000 0.0000 (  2450 PWs)   bands (ev):

   -47.8857 -19.8394 -19.8324 -19.8324 -10.7574  -0.1164   1.0529   1.0529
     7.9372   8.7358  12.6155  15.2459  15.2459  15.9510  17.3649  17.8215

          k =-0.1667 0.3333 0.0000 (  2424 PWs)   bands (ev):

   -47.8857 -19.8331 -19.8292 -19.8282 -10.9984   0.8377   1.4851   1.6156
     7.3356  10.4652  11.7589  12.2853  12.5350  14.1465  16.7115  17.1083

          k =-0.2500 0.4167-0.0833 (  2420 PWs)   bands (ev):

   -47.8856 -19.8364 -19.8299 -19.8284 -10.9327   0.4409   1.3414   1.5526
     7.9552  10.3267  11.2785  12.2522  12.9647  14.7866  16.5192  18.1509

          k =-0.3333 0.5000-0.1667 (  2425 PWs)   bands (ev):

   -47.8855 -19.8397 -19.8304 -19.8288 -10.8652   0.0769   1.2336   1.4732
     8.3694  10.5995  10.8861  11.9882  13.7986  15.7644  16.2053  18.1720

          k = 0.5833-0.4167 0.7500 (  2415 PWs)   bands (ev):

   -47.8853 -19.8422 -19.8306 -19.8292 -10.8147  -0.1724   1.1692   1.4080
     8.5002  10.5650  11.2853  11.7904  14.7255  16.0291  16.5530  17.1533

          k = 0.5000-0.3333 0.6667 (  2412 PWs)   bands (ev):

   -47.8853 -19.8431 -19.8306 -19.8294 -10.7960  -0.2605   1.1482   1.3828
     8.5189  10.4759  11.6572  11.7111  15.3084  15.6421  16.6716  17.1718

          k =-0.1667 0.5000 0.0000 (  2418 PWs)   bands (ev):

   -47.8855 -19.8360 -19.8304 -19.8294 -10.9135   0.4320   1.2939   1.4262
     8.1686   9.8651  11.0496  12.8422  13.0210  14.9579  17.7766  17.9370

          k =-0.2500 0.5833-0.0833 (  2413 PWs)   bands (ev):

   -47.8854 -19.8383 -19.8313 -19.8297 -10.8548   0.1775   1.1269   1.3518
     8.6387   9.9192  10.6711  12.6803  13.7085  15.8976  17.5643  18.2352

          k = 0.6667-0.3333 0.8333 (  2412 PWs)   bands (ev):

   -47.8853 -19.8402 -19.8319 -19.8301 -10.8057  -0.0110   0.9786   1.2905
     8.8860  10.1447  10.6740  12.4211  14.4201  16.6821  17.0276  17.5865

          k = 0.5833-0.2500 0.7500 (  2413 PWs)   bands (ev):

   -47.8853 -19.8412 -19.8324 -19.8302 -10.7801  -0.0947   0.8689   1.2789
     9.0214  10.0392  11.2232  12.2045  14.5519  16.1018  17.2325  17.6635

          k = 0.5000-0.1667 0.6667 (  2416 PWs)   bands (ev):

   -47.8853 -19.8409 -19.8327 -19.8298 -10.7856  -0.0641   0.8327   1.3208
     9.1174  10.0555  11.1449  12.1535  14.6301  15.4190  17.1656  18.1979

          k = 0.4167-0.0833 0.5833 (  2414 PWs)   bands (ev):

   -47.8853 -19.8397 -19.8325 -19.8292 -10.8204   0.0600   0.9028   1.3997
     9.0484  10.3051  10.5341  12.2537  13.9209  16.1744  17.2122  17.5664

          k = 0.3333 0.0000 0.5000 (  2419 PWs)   bands (ev):

   -47.8855 -19.8381 -19.8315 -19.8287 -10.8745   0.2385   1.0878   1.4878
     8.6006  10.2290  10.7545  12.3764  13.1677  15.8431  17.5883  17.8573

          k =-0.1667 0.6667-0.0000 (  2415 PWs)   bands (ev):

   -47.8853 -19.8379 -19.8317 -19.8309 -10.8320   0.1442   1.1169   1.2229
     8.5279   9.3881  10.9935  13.4226  13.9146  15.8550  18.2992  18.9471

          k = 0.7500-0.2500 0.9167 (  2408 PWs)   bands (ev):

   -47.8852 -19.8388 -19.8327 -19.8313 -10.7911   0.0550   0.9190   1.1597
     8.7345   9.5740  10.9627  13.1864  14.4855  16.7178  17.2062  18.6276

          k = 0.6667-0.1667 0.8333 (  2409 PWs)   bands (ev):

   -47.8852 -19.8391 -19.8340 -19.8312 -10.7655   0.0633   0.6801   1.1553
     8.9349   9.9354  11.0455  12.7632  14.4332  16.4557  17.2988  18.8006

          k = 0.5833-0.0833 0.7500 (  2409 PWs)   bands (ev):

   -47.8852 -19.8388 -19.8350 -19.8307 -10.7624   0.1387   0.5066   1.2082
     9.2163  10.0827  11.0798  12.4280  14.2682  15.4115  18.0346  19.2318

          k = 0.5000 0.0000 0.6667 (  2404 PWs)   bands (ev):

   -47.8851 -19.8392 -19.8344 -19.8299 -10.7827   0.1176   0.6038   1.2994
     9.5040  10.0075  10.6445  12.4234  14.4477  14.9244  18.3124  18.5889

          k = 0.8333-0.1667 1.0000 (  2411 PWs)   bands (ev):

   -47.8852 -19.8387 -19.8326 -19.8322 -10.7748  -0.0091   0.9950   1.0669
     8.3277   9.0893  11.7699  13.8904  14.8292  16.4929  17.3761  18.4625

          k = 0.7500-0.0833 0.9167 (  2408 PWs)   bands (ev):

   -47.8851 -19.8384 -19.8340 -19.8322 -10.7560   0.0361   0.7692   1.0507
     8.5339   9.3920  11.7752  13.2451  14.9129  16.8681  17.1154  18.2319

          k = 0.6667 0.0000 0.8333 (  2413 PWs)   bands (ev):

   -47.8852 -19.8372 -19.8362 -19.8316 -10.7515   0.1841   0.4799   1.1083
     8.8441   9.9030  11.5063  12.6016  14.4685  16.0419  18.0370  18.5752

          k =-0.1667-1.0000-0.0000 (  2420 PWs)   bands (ev):

   -47.8853 -19.8389 -19.8329 -19.8327 -10.7544  -0.0539   0.9519   1.0076
     8.1953   8.9880  12.3350  13.9125  15.3399  16.5460  17.4845  17.8456

          k = 0.6667-0.3333 1.0000 (  2409 PWs)   bands (ev):

   -47.8852 -19.8389 -19.8328 -19.8302 -10.8090   0.1039   0.8854   1.2637
     9.1554   9.9503  10.3229  12.8031  14.0875  16.3903  17.2820  18.6027

          k = 0.5833-0.2500 0.9167 (  2420 PWs)   bands (ev):

   -47.8853 -19.8392 -19.8338 -19.8309 -10.7750   0.0842   0.6974   1.1742
     9.4600   9.9291  10.5169  12.5646  14.6187  15.6461  17.7213  18.8645

          k = 0.5000-0.1667 0.8333 (  2412 PWs)   bands (ev):

   -47.8852 -19.8393 -19.8341 -19.8312 -10.7624   0.0871   0.6226   1.1374
     9.6321   9.7006  10.9643  12.2812  14.4917  16.0081  17.2946  18.9676

          k = 0.6667-0.1667 1.0000 (  2421 PWs)   bands (ev):

   -47.8853 -19.8383 -19.8338 -19.8321 -10.7641   0.0977   0.7472   1.0308
     8.9970   9.7460  10.9224  12.8638  15.0630  16.0266  17.5897  18.5046

          k = 0.5833-0.0833 0.9167 (  2413 PWs)   bands (ev):

   -47.8852 -19.8374 -19.8352 -19.8325 -10.7508   0.2216   0.5255   0.9848
     9.2371  10.1111  10.9256  12.1368  15.1756  16.2068  17.2197  18.4394

          k = 0.5000 0.0000 0.8333 (  2409 PWs)   bands (ev):

   -47.8852 -19.8375 -19.8355 -19.8319 -10.7548   0.2610   0.4484   1.0500
     9.4801  10.1953  10.6328  12.1436  15.1126  15.4614  17.9241  18.5450

          k =-0.3333-1.0000 0.0000 (  2410 PWs)   bands (ev):

   -47.8852 -19.8376 -19.8342 -19.8333 -10.7484   0.1252   0.6984   0.9203
     8.8541   9.6729  11.5909  12.4037  15.6254  16.7186  16.7780  17.8961

          k =-0.5000-1.0000 0.0000 (  2400 PWs)   bands (ev):

   -47.8850 -19.8359 -19.8359 -19.8336 -10.7454   0.3939   0.3939   0.8782
     9.3583  10.6165  10.6165  11.6181  16.1100  16.1100  16.7654  17.9225

     the Fermi energy is     2.9092 ev

!    total energy              =    -112.40063313 Ry
     estimated scf accuracy    <          6.3E-12 Ry
     smearing contrib. (-TS)   =      -0.00000000 Ry
     internal energy E=F+TS    =    -112.40063313 Ry

     The total energy is F=E-TS. E is the sum of the following terms:
     one-electron contribution =     -64.21239357 Ry
     hartree contribution      =      35.20519539 Ry
     xc contribution           =     -17.87588176 Ry
     ewald contribution        =     -65.51755319 Ry

     convergence has been achieved in  11 iterations

     Writing all to output data dir out/mp-22916.save/
 
     init_run     :      0.10s CPU      0.16s WALL (       1 calls)
     electrons    :      4.69s CPU      5.30s WALL (       1 calls)

     Called by init_run:
     wfcinit      :      0.09s CPU      0.12s WALL (       1 calls)
     potinit      :      0.00s CPU      0.01s WALL (       1 calls)
     hinit0       :      0.00s CPU      0.01s WALL (       1 calls)

     Called by electrons:
     c_bands      :      4.13s CPU      4.59s WALL (      12 calls)
     sum_band     :      0.51s CPU      0.63s WALL (      12 calls)
     v_of_rho     :      0.03s CPU      0.04s WALL (      12 calls)
     mix_rho      :      0.01s CPU      0.01s WALL (      12 calls)

     Called by c_bands:
     init_us_2    :      0.05s CPU      0.06s WALL (     900 calls)
     init_us_2:cp :      0.05s CPU      0.06s WALL (     900 calls)
     cegterg      :      3.64s CPU      3.88s WALL (     432 calls)

     Called by *egterg:
     cdiaghg      :      0.63s CPU      0.66s WALL (    2296 calls)
     h_psi        :      2.75s CPU      2.97s WALL (    2368 calls)
     g_psi        :      0.02s CPU      0.02s WALL (    1900 calls)

     Called by h_psi:
     h_psi:calbec :      0.08s CPU      0.09s WALL (    2368 calls)
     vloc_psi     :      2.59s CPU      2.80s WALL (    2368 calls)
     add_vuspsi   :      0.05s CPU      0.06s WALL (    2368 calls)

     General routines
     calbec       :      0.08s CPU      0.08s WALL (    2368 calls)
     fft          :      0.02s CPU      0.02s WALL (     120 calls)
     ffts         :      0.00s CPU      0.00s WALL (      12 calls)
     fftw         :      2.70s CPU      2.92s WALL (   49866 calls)
     davcio       :      0.04s CPU      0.27s WALL (    1494 calls)
 
     Parallel routines
 
     PWSCF        :      4.86s CPU      5.69s WALL

 
   This run was terminated on:  12:34:32  14Dec2023            

=------------------------------------------------------------------------------=
   JOB DONE.
=------------------------------------------------------------------------------=
