
     Program PWSCF v.7.1 starts on  5Dec2023 at 20:41:11 

     This program is part of the open-source Quantum ESPRESSO suite
     for quantum simulation of materials; please cite
         "P. Giannozzi et al., J. Phys.:Condens. Matter 21 395502 (2009);
         "P. Giannozzi et al., J. Phys.:Condens. Matter 29 465901 (2017);
         "P. Giannozzi et al., J. Chem. Phys. 152 154105 (2020);
          URL http://www.quantum-espresso.org", 
     in publications or presentations arising from this work. More details at
     http://www.quantum-espresso.org/quote

     Parallel version (MPI), running on    24 processors

     MPI processes distributed on     1 nodes
     122513 MiB available memory on the printing compute node when the environment starts
 
     Reading input from pw_mp-406_scf_k3000_E56.in
Warning: card &CELL ignored
Warning: card / ignored

     Current dimensions of program PWSCF are:
     Max number of different atomic species (ntypx) = 10
     Max number of k-points (npk) =  40000
     Max angular momentum in pseudopotentials (lmaxx) =  4
 
     K-points division:     npool     =       2
     R & G space division:  proc/nbgrp/npool/nimage =      12
     Subspace diagonalization in iterative solution of the eigenvalue problem:
     a serial algorithm will be used

 
     Parallelization info
     --------------------
     sticks:   dense  smooth     PW     G-vecs:    dense   smooth      PW
     Min          98      98     29                 2244     2244     356
     Max         100     100     30                 2245     2245     359
     Sum        1189    1189    349                26933    26933    4285
 
     Using Slab Decomposition
 


     bravais-lattice index     =            2
     lattice parameter (alat)  =      12.4046  a.u.
     unit-cell volume          =     477.1856 (a.u.)^3
     number of atoms/cell      =            2
     number of atomic types    =            2
     number of electrons       =        36.00
     number of Kohn-Sham states=           36
     kinetic-energy cutoff     =      56.0000  Ry
     charge density cutoff     =     224.0000  Ry
     scf convergence threshold =      1.0E-10
     mixing beta               =       0.7000
     number of iterations used =            8  plain     mixing
     Exchange-correlation= PBE
                           (   1   4   3   4   0   0   0)

     celldm(1)=  12.404591  celldm(2)=   0.000000  celldm(3)=   0.000000
     celldm(4)=   0.000000  celldm(5)=   0.000000  celldm(6)=   0.000000

     crystal axes: (cart. coord. in units of alat)
               a(1) = (  -0.500000   0.000000   0.500000 )  
               a(2) = (   0.000000   0.500000   0.500000 )  
               a(3) = (  -0.500000   0.500000   0.000000 )  

     reciprocal axes: (cart. coord. in units 2 pi/alat)
               b(1) = ( -1.000000 -1.000000  1.000000 )  
               b(2) = (  1.000000  1.000000  1.000000 )  
               b(3) = ( -1.000000  1.000000 -1.000000 )  


     PseudoPot. # 1 for Cd read from file:
     /usr/scratch4/magr4985/MG/HTDF/pseudo/SG15/Cd.upf
     MD5 check sum: 810a600e5a5ac944c8c8f48f0d721646
     Pseudo is Norm-conserving, Zval = 20.0
     Generated using ONCVPSP code by D. R. Hamann
     Using radial grid of  602 points,  6 beta functions with: 
                l(1) =   0
                l(2) =   0
                l(3) =   1
                l(4) =   1
                l(5) =   2
                l(6) =   2

     PseudoPot. # 2 for Te read from file:
     /usr/scratch4/magr4985/MG/HTDF/pseudo/SG15/Te.upf
     MD5 check sum: dd4de4dac1e38587f63aaf3700bb29d3
     Pseudo is Norm-conserving, Zval = 16.0
     Generated using ONCVPSP code by D. R. Hamann
     Using radial grid of  602 points,  6 beta functions with: 
                l(1) =   0
                l(2) =   0
                l(3) =   1
                l(4) =   1
                l(5) =   2
                l(6) =   2

     atomic species   valence    mass     pseudopotential
        Cd            20.00   112.41100     Cd( 1.00)
        Te            16.00   127.60000     Te( 1.00)

     24 Sym. Ops. (no inversion) found



   Cartesian axes

     site n.     atom                  positions (alat units)
         1           Cd  tau(   1) = (   0.0000000   0.0000000   0.0000000  )
         2           Te  tau(   2) = (  -0.2500000   0.2500000   0.2500001  )

     number of k points=    72  Gaussian smearing, width (Ry)=  0.0005
                       cart. coord. in units 2pi/alat
        k(    1) = (   0.0000000   0.0000000   0.0000000), wk =   0.0011574
        k(    2) = (  -0.0833333   0.0833333  -0.0833333), wk =   0.0092593
        k(    3) = (  -0.1666667   0.1666667  -0.1666667), wk =   0.0092593
        k(    4) = (  -0.2500000   0.2500000  -0.2500000), wk =   0.0092593
        k(    5) = (  -0.3333333   0.3333333  -0.3333333), wk =   0.0092593
        k(    6) = (  -0.4166667   0.4166667  -0.4166667), wk =   0.0092593
        k(    7) = (   0.5000000  -0.5000000   0.5000000), wk =   0.0046296
        k(    8) = (   0.0000000   0.1666667   0.0000000), wk =   0.0069444
        k(    9) = (  -0.0833333   0.2500000  -0.0833333), wk =   0.0277778
        k(   10) = (  -0.1666667   0.3333333  -0.1666667), wk =   0.0277778
        k(   11) = (  -0.2500000   0.4166667  -0.2500000), wk =   0.0277778
        k(   12) = (  -0.3333333   0.5000000  -0.3333333), wk =   0.0277778
        k(   13) = (   0.5833333  -0.4166667   0.5833333), wk =   0.0277778
        k(   14) = (   0.5000000  -0.3333333   0.5000000), wk =   0.0277778
        k(   15) = (   0.4166667  -0.2500000   0.4166667), wk =   0.0277778
        k(   16) = (   0.3333333  -0.1666667   0.3333333), wk =   0.0277778
        k(   17) = (   0.2500000  -0.0833333   0.2500000), wk =   0.0277778
        k(   18) = (   0.1666667  -0.0000000   0.1666667), wk =   0.0138889
        k(   19) = (   0.0000000   0.3333333   0.0000000), wk =   0.0069444
        k(   20) = (  -0.0833333   0.4166667  -0.0833333), wk =   0.0277778
        k(   21) = (  -0.1666667   0.5000000  -0.1666667), wk =   0.0277778
        k(   22) = (  -0.2500000   0.5833333  -0.2500000), wk =   0.0277778
        k(   23) = (   0.6666667  -0.3333333   0.6666667), wk =   0.0277778
        k(   24) = (   0.5833333  -0.2500000   0.5833333), wk =   0.0277778
        k(   25) = (   0.5000000  -0.1666667   0.5000000), wk =   0.0277778
        k(   26) = (   0.4166667  -0.0833333   0.4166667), wk =   0.0277778
        k(   27) = (   0.3333333   0.0000000   0.3333333), wk =   0.0138889
        k(   28) = (   0.0000000   0.5000000   0.0000000), wk =   0.0069444
        k(   29) = (  -0.0833333   0.5833333  -0.0833333), wk =   0.0277778
        k(   30) = (  -0.1666667   0.6666667  -0.1666667), wk =   0.0277778
        k(   31) = (   0.7500000  -0.2500000   0.7500000), wk =   0.0277778
        k(   32) = (   0.6666667  -0.1666667   0.6666667), wk =   0.0277778
        k(   33) = (   0.5833333  -0.0833333   0.5833333), wk =   0.0277778
        k(   34) = (   0.5000000   0.0000000   0.5000000), wk =   0.0138889
        k(   35) = (   0.0000000   0.6666667   0.0000000), wk =   0.0069444
        k(   36) = (  -0.0833333   0.7500000  -0.0833333), wk =   0.0277778
        k(   37) = (   0.8333333  -0.1666667   0.8333333), wk =   0.0277778
        k(   38) = (   0.7500000  -0.0833333   0.7500000), wk =   0.0277778
        k(   39) = (   0.6666667  -0.0000000   0.6666667), wk =   0.0138889
        k(   40) = (   0.0000000   0.8333333   0.0000000), wk =   0.0069444
        k(   41) = (   0.9166667  -0.0833333   0.9166667), wk =   0.0277778
        k(   42) = (   0.8333333   0.0000000   0.8333333), wk =   0.0138889
        k(   43) = (   0.0000000  -1.0000000   0.0000000), wk =   0.0034722
        k(   44) = (  -0.1666667   0.3333333   0.0000000), wk =   0.0277778
        k(   45) = (  -0.2500000   0.4166667  -0.0833333), wk =   0.0555556
        k(   46) = (  -0.3333333   0.5000000  -0.1666667), wk =   0.0555556
        k(   47) = (   0.5833333  -0.4166667   0.7500000), wk =   0.0555556
        k(   48) = (   0.5000000  -0.3333333   0.6666667), wk =   0.0277778
        k(   49) = (  -0.1666667   0.5000000   0.0000000), wk =   0.0277778
        k(   50) = (  -0.2500000   0.5833333  -0.0833333), wk =   0.0555556
        k(   51) = (   0.6666667  -0.3333333   0.8333333), wk =   0.0555556
        k(   52) = (   0.5833333  -0.2500000   0.7500000), wk =   0.0555556
        k(   53) = (   0.5000000  -0.1666667   0.6666667), wk =   0.0555556
        k(   54) = (   0.4166667  -0.0833333   0.5833333), wk =   0.0555556
        k(   55) = (   0.3333333   0.0000000   0.5000000), wk =   0.0277778
        k(   56) = (  -0.1666667   0.6666667  -0.0000000), wk =   0.0277778
        k(   57) = (   0.7500000  -0.2500000   0.9166667), wk =   0.0555556
        k(   58) = (   0.6666667  -0.1666667   0.8333333), wk =   0.0555556
        k(   59) = (   0.5833333  -0.0833333   0.7500000), wk =   0.0555556
        k(   60) = (   0.5000000   0.0000000   0.6666667), wk =   0.0277778
        k(   61) = (   0.8333333  -0.1666667   1.0000000), wk =   0.0277778
        k(   62) = (   0.7500000  -0.0833333   0.9166667), wk =   0.0555556
        k(   63) = (   0.6666667   0.0000000   0.8333333), wk =   0.0277778
        k(   64) = (  -0.1666667  -1.0000000  -0.0000000), wk =   0.0138889
        k(   65) = (   0.6666667  -0.3333333   1.0000000), wk =   0.0277778
        k(   66) = (   0.5833333  -0.2500000   0.9166667), wk =   0.0555556
        k(   67) = (   0.5000000  -0.1666667   0.8333333), wk =   0.0277778
        k(   68) = (   0.6666667  -0.1666667   1.0000000), wk =   0.0277778
        k(   69) = (   0.5833333  -0.0833333   0.9166667), wk =   0.0555556
        k(   70) = (   0.5000000   0.0000000   0.8333333), wk =   0.0277778
        k(   71) = (  -0.3333333  -1.0000000   0.0000000), wk =   0.0138889
        k(   72) = (  -0.5000000  -1.0000000   0.0000000), wk =   0.0069444

     Dense  grid:    26933 G-vectors     FFT dimensions: (  45,  45,  45)

     Estimated max dynamical RAM per process >       5.14 MB

     Estimated total dynamical RAM >     116.89 MB

     Initial potential from superposition of free atoms

     starting charge      35.9267, renormalised to      36.0000
     Starting wfcs are random

     total cpu time spent up to now is        0.5 secs

     Self-consistent Calculation

     iteration #  1     ecut=    56.00 Ry     beta= 0.70
     Davidson diagonalization with overlap
     ethr =  1.00E-02,  avg # of iterations =  8.7

     Threshold (ethr) on eigenvalues was too large:
     Diagonalizing with lowered threshold

     Davidson diagonalization with overlap
     ethr =  2.02E-04,  avg # of iterations =  2.9

     total cpu time spent up to now is        4.9 secs

     total energy              =    -485.69386192 Ry
     estimated scf accuracy    <       0.06500328 Ry

     iteration #  2     ecut=    56.00 Ry     beta= 0.70
     Davidson diagonalization with overlap
     ethr =  1.81E-04,  avg # of iterations =  2.0

     total cpu time spent up to now is        6.1 secs

     total energy              =    -485.71317094 Ry
     estimated scf accuracy    <       0.02701372 Ry

     iteration #  3     ecut=    56.00 Ry     beta= 0.70
     Davidson diagonalization with overlap
     ethr =  7.50E-05,  avg # of iterations =  1.8

     total cpu time spent up to now is        7.1 secs

     total energy              =    -485.71937621 Ry
     estimated scf accuracy    <       0.00033918 Ry

     iteration #  4     ecut=    56.00 Ry     beta= 0.70
     Davidson diagonalization with overlap
     ethr =  9.42E-07,  avg # of iterations =  5.2

     total cpu time spent up to now is        8.7 secs

     total energy              =    -485.71945292 Ry
     estimated scf accuracy    <       0.00002806 Ry

     iteration #  5     ecut=    56.00 Ry     beta= 0.70
     Davidson diagonalization with overlap
     ethr =  7.79E-08,  avg # of iterations =  2.0

     total cpu time spent up to now is        9.8 secs

     total energy              =    -485.71945775 Ry
     estimated scf accuracy    <       0.00000121 Ry

     iteration #  6     ecut=    56.00 Ry     beta= 0.70
     Davidson diagonalization with overlap
     ethr =  3.35E-09,  avg # of iterations =  2.0

     total cpu time spent up to now is       10.9 secs

     total energy              =    -485.71945793 Ry
     estimated scf accuracy    <       0.00000012 Ry

     iteration #  7     ecut=    56.00 Ry     beta= 0.70
     Davidson diagonalization with overlap
     ethr =  3.47E-10,  avg # of iterations =  2.0

     total cpu time spent up to now is       12.1 secs

     total energy              =    -485.71945796 Ry
     estimated scf accuracy    <          1.1E-09 Ry

     iteration #  8     ecut=    56.00 Ry     beta= 0.70
     Davidson diagonalization with overlap
     ethr =  3.16E-12,  avg # of iterations =  2.6

     total cpu time spent up to now is       13.2 secs

     total energy              =    -485.71945796 Ry
     estimated scf accuracy    <          1.1E-10 Ry

     iteration #  9     ecut=    56.00 Ry     beta= 0.70
     Davidson diagonalization with overlap
     ethr =  3.08E-13,  avg # of iterations =  2.0

     total cpu time spent up to now is       14.4 secs

     End of self-consistent calculation

          k = 0.0000 0.0000 0.0000 (  3383 PWs)   bands (ev):

   -94.1236 -55.1676 -55.1676 -55.1676 -28.0178 -28.0178 -28.0178 -28.0102
   -28.0102  -2.9986  -0.1805  -0.1805  -0.1805   0.0556   0.0556   7.9655
     7.9655   7.9655   8.6229  12.6194  12.6194  12.6194  15.4345  17.3645
    17.3645  18.1268  18.1268  18.1268  20.4198  27.8724  27.8724  27.8724
    28.9354  28.9354  28.9354  30.1776

          k =-0.0833 0.0833-0.0833 (  3404 PWs)   bands (ev):

   -94.1236 -55.1676 -55.1676 -55.1676 -28.0178 -28.0178 -28.0178 -28.0102
   -28.0102  -2.9743  -0.1759  -0.1759  -0.1614   0.0552   0.0552   7.2567
     7.9066   7.9066   9.2042  12.5657  12.7155  12.7155  15.8144  16.9132
    16.9132  17.8612  18.7966  18.7966  20.9412  26.9391  26.9391  27.5311
    27.9179  28.7618  28.7618  30.4588

          k =-0.1667 0.1667-0.1667 (  3383 PWs)   bands (ev):

   -94.1236 -55.1676 -55.1676 -55.1676 -28.0178 -28.0178 -28.0178 -28.0102
   -28.0102  -2.9075  -0.1637  -0.1637  -0.1010   0.0547   0.0547   6.2813
     7.7563   7.7563   9.7337  12.6910  12.9419  12.9419  16.4261  16.4936
    16.4936  17.7647  19.9043  19.9043  22.0966  25.2467  25.2467  25.5977
    28.0489  28.9219  28.9220  30.5970

          k =-0.2500 0.2500-0.2500 (  3389 PWs)   bands (ev):

   -94.1236 -55.1676 -55.1676 -55.1676 -28.0178 -28.0177 -28.0177 -28.0101
   -28.0101  -2.8162  -0.1483  -0.1483   0.0065   0.0555   0.0555   5.3458
     7.5709   7.5709   9.8956  13.1478  13.1478  13.2696  16.3152  16.4573
    16.4573  18.8026  21.1708  21.1708  23.4261  23.5650  23.5650  23.8760
    28.2465  29.2467  29.2467  30.7368

          k =-0.3333 0.3333-0.3333 (  3386 PWs)   bands (ev):

   -94.1236 -55.1677 -55.1676 -55.1676 -28.0179 -28.0176 -28.0176 -28.0101
   -28.0101  -2.7255  -0.1347  -0.1347   0.0584   0.0584   0.1555   4.5432
     7.4031   7.4031   9.8536  13.2238  13.2238  14.1285  16.0899  16.8809
    16.8809  20.0656  21.7724  21.7724  22.3026  22.8002  22.8002  25.2736
    28.4726  29.5717  29.5717  29.8795

          k =-0.4167 0.4167-0.4167 (  3386 PWs)   bands (ev):

   -94.1236 -55.1677 -55.1676 -55.1676 -28.0179 -28.0176 -28.0176 -28.0101
   -28.0101  -2.6601  -0.1261  -0.1261   0.0621   0.0621   0.3055   3.9758
     7.2890   7.2890   9.7828  13.2106  13.2106  14.8339  16.2020  17.6538
    17.6538  19.7759  20.4585  20.4585  22.8774  24.2365  24.2365  26.8823
    27.9763  27.9763  28.0505  28.6632

          k = 0.5000-0.5000 0.5000 (  3354 PWs)   bands (ev):

   -94.1236 -55.1677 -55.1676 -55.1676 -28.0179 -28.0176 -28.0176 -28.0101
   -28.0101  -2.6364  -0.1233  -0.1233   0.0638   0.0638   0.3733   3.7647
     7.2489   7.2489   9.7538  13.1950  13.1950  15.0243  16.5102  18.2840
    18.2840  19.1762  19.6341  19.6341  23.9261  25.4299  25.4299  26.3052
    26.6623  26.6623  28.7400  29.2635

          k = 0.0000 0.1667 0.0000 (  3403 PWs)   bands (ev):

   -94.1236 -55.1676 -55.1676 -55.1676 -28.0178 -28.0178 -28.0178 -28.0102
   -28.0102  -2.9662  -0.1716  -0.1716  -0.1607   0.0528   0.0575   7.2087
     7.8013   7.8013   9.4005  12.3091  12.8691  12.8691  15.9074  16.3664
    17.4258  18.3136  18.3136  18.8474  21.1962  26.9178  26.9178  27.0116
    27.8665  28.5114  28.5114  30.1367

          k =-0.0833 0.2500-0.0833 (  3386 PWs)   bands (ev):

   -94.1236 -55.1676 -55.1676 -55.1676 -28.0179 -28.0177 -28.0177 -28.0102
   -28.0101  -2.9136  -0.1629  -0.1594  -0.1160   0.0507   0.0590   6.4783
     7.6194   7.6749   9.9107  12.1781  13.1311  13.1537  15.7966  16.6319
    17.1507  18.1073  19.0735  19.7636  22.2016  25.2255  25.3983  27.0916
    27.1529  27.8534  28.6322  30.7021

          k =-0.1667 0.3333-0.1667 (  3388 PWs)   bands (ev):

   -94.1236 -55.1676 -55.1676 -55.1676 -28.0179 -28.0177 -28.0177 -28.0102
   -28.0101  -2.8305  -0.1501  -0.1436  -0.0269   0.0530   0.0607   5.6001
     7.4232   7.4945  10.1891  12.4129  13.4112  13.4156  15.7221  16.9149
    17.0019  18.5517  20.2407  21.0575  23.4129  23.5030  23.7203  25.5176
    27.2929  27.9802  28.8976  31.0299

          k =-0.2500 0.4167-0.2500 (  3382 PWs)   bands (ev):

   -94.1236 -55.1677 -55.1676 -55.1676 -28.0179 -28.0177 -28.0176 -28.0101
   -28.0101  -2.7399  -0.1364  -0.1293   0.0419   0.0630   0.1242   4.7849
     7.2636   7.2799  10.2047  12.8033  13.5169  13.7917  16.0799  16.7778
    17.2944  19.7311  21.3605  22.0053  22.1161  22.5483  23.8129  25.1704
    27.5431  28.2797  29.2358  29.5295

          k =-0.3333 0.5000-0.3333 (  3371 PWs)   bands (ev):

   -94.1236 -55.1677 -55.1676 -55.1676 -28.0179 -28.0176 -28.0176 -28.0101
   -28.0101  -2.6664  -0.1258  -0.1201   0.0514   0.0650   0.2762   4.1502
     7.0885   7.1725  10.1399  12.9427  13.4721  14.4856  16.3311  17.1992
    17.9546  19.7073  20.3468  21.8451  22.5738  23.1946  24.1921  26.7071
    27.6880  27.7697  28.5221  29.0856

          k = 0.5833-0.4167 0.5833 (  3369 PWs)   bands (ev):

   -94.1236 -55.1677 -55.1676 -55.1676 -28.0179 -28.0176 -28.0176 -28.0101
   -28.0101  -2.6292  -0.1201  -0.1170   0.0579   0.0644   0.3793   3.8195
     6.9595   7.1651  10.0958  12.9820  13.3848  15.0426  16.5322  17.8424
    18.3050  19.0464  19.7100  20.7943  23.6786  24.7471  25.2858  26.2332
    26.9733  27.3909  28.0578  28.8221

          k = 0.5000-0.3333 0.5000 (  3377 PWs)   bands (ev):

   -94.1236 -55.1677 -55.1676 -55.1676 -28.0179 -28.0176 -28.0176 -28.0101
   -28.0101  -2.6370  -0.1199  -0.1195   0.0603   0.0610   0.3565   3.8894
     6.9149   7.2417  10.1027  13.0539  13.3176  14.9563  16.5218  17.4573
    18.2352  19.0685  20.5409  20.6614  23.1323  24.3244  25.3212  26.7316
    26.8745  27.9824  27.9999  28.3313

          k = 0.4167-0.2500 0.4167 (  3381 PWs)   bands (ev):

   -94.1236 -55.1677 -55.1676 -55.1676 -28.0179 -28.0176 -28.0176 -28.0101
   -28.0101  -2.6881  -0.1286  -0.1242   0.0547   0.0594   0.2268   4.3362
     6.9646   7.3888  10.1537  13.1491  13.2640  14.2650  16.4438  16.5946
    17.8966  19.6354  21.1442  22.0257  22.2313  22.8185  23.9037  26.1511
    27.6678  28.5686  28.6655  28.9316

          k = 0.3333-0.1667 0.3333 (  3389 PWs)   bands (ev):

   -94.1236 -55.1677 -55.1676 -55.1676 -28.0179 -28.0177 -28.0176 -28.0101
   -28.0101  -2.7700  -0.1424  -0.1343   0.0441   0.0507   0.0846   5.0413
     7.1078   7.5782  10.1957  13.0449  13.1586  13.5969  16.0662  16.5052
    17.3172  19.2782  20.9416  21.9055  22.2970  23.6837  23.7221  24.5410
    27.4529  28.2476  29.0647  30.6236

          k = 0.2500-0.0833 0.2500 (  3387 PWs)   bands (ev):

   -94.1236 -55.1676 -55.1676 -55.1676 -28.0178 -28.0177 -28.0177 -28.0102
   -28.0101  -2.8608  -0.1582  -0.1488  -0.0571   0.0503   0.0603   5.8780
     7.3342   7.7652  10.0835  12.5814  12.9587  13.3775  15.9885  16.4790
    17.0710  18.3369  19.6371  20.9896  22.9010  23.4922  25.3445  25.5148
    27.2295  27.9328  28.7764  31.0839

          k = 0.1667-0.0000 0.1667 (  3399 PWs)   bands (ev):

   -94.1236 -55.1676 -55.1676 -55.1676 -28.0178 -28.0178 -28.0178 -28.0102
   -28.0102  -2.9358  -0.1708  -0.1641  -0.1312   0.0524   0.0573   6.7002
     7.6287   7.8918   9.6675  12.4390  12.7624  13.0721  16.3006  16.3160
    16.7744  18.3393  18.5401  19.7944  21.6848  25.2765  26.8526  27.1025
    27.2133  27.9068  28.6247  30.9178

          k = 0.0000 0.3333 0.0000 (  3375 PWs)   bands (ev):

   -94.1236 -55.1676 -55.1676 -55.1676 -28.0179 -28.0177 -28.0177 -28.0102
   -28.0101  -2.8774  -0.1467  -0.1467  -0.1002   0.0487   0.0626   6.2583
     7.4100   7.4100  10.3346  11.7521  13.5184  13.5184  15.2122  17.1419
    17.6078  18.8705  18.8705  19.4731  23.0929  25.0790  25.0790  25.5765
    26.1016  28.7043  28.7043  30.2017

          k =-0.0833 0.4167-0.0833 (  3392 PWs)   bands (ev):

   -94.1236 -55.1676 -55.1676 -55.1676 -28.0180 -28.0176 -28.0176 -28.0102
   -28.0101  -2.8089  -0.1342  -0.1297  -0.0390   0.0580   0.0655   5.6546
     7.1897   7.1959  10.6613  11.6843  13.7695  13.8826  15.1576  17.5746
    17.7587  18.8987  19.6632  20.5314  23.5151  23.5528  24.3352  25.5755
    25.8051  27.7579  28.9224  30.7564

          k =-0.1667 0.5000-0.1667 (  3382 PWs)   bands (ev):

   -94.1236 -55.1677 -55.1676 -55.1676 -28.0180 -28.0176 -28.0176 -28.0102
   -28.0100  -2.7268  -0.1237  -0.1140   0.0138   0.0679   0.1305   4.9568
     6.9219   7.0299  10.7571  12.0385  13.7142  14.0726  15.8174  17.7555
    17.7658  19.6345  20.7930  21.8973  21.9528  22.1358  25.1988  25.8254
    25.8796  26.8389  29.1083  29.2137

          k =-0.2500 0.5833-0.2500 (  3375 PWs)   bands (ev):

   -94.1236 -55.1677 -55.1676 -55.1676 -28.0179 -28.0176 -28.0175 -28.0102
   -28.0100  -2.6539  -0.1151  -0.1035   0.0304   0.0689   0.2731   4.3448
     6.6463   6.9438  10.7238  12.4971  13.8753  14.0468  16.5868  17.7344
    18.2975  19.6697  20.3451  21.8511  22.3579  23.6251  24.0806  26.1084
    26.6649  27.0173  27.7600  29.4813

          k = 0.6667-0.3333 0.6667 (  3361 PWs)   bands (ev):

   -94.1236 -55.1677 -55.1676 -55.1676 -28.0179 -28.0176 -28.0175 -28.0101
   -28.0100  -2.6093  -0.1100  -0.0999   0.0421   0.0666   0.3968   3.9551
     6.4256   6.9520  10.6904  12.7012  13.9135  14.5055  16.7602  17.9549
    18.3751  19.1574  19.9027  22.4069  23.2738  23.8478  24.9202  25.9262
    26.3188  27.0266  27.9910  28.8081

          k = 0.5833-0.2500 0.5833 (  3364 PWs)   bands (ev):

   -94.1236 -55.1677 -55.1676 -55.1676 -28.0178 -28.0176 -28.0175 -28.0101
   -28.0100  -2.6037  -0.1086  -0.1031   0.0509   0.0605   0.4193   3.9010
     6.3013   7.0524  10.6954  12.8104  13.7657  14.8872  16.7036  17.3953
    17.8248  19.7568  20.9148  21.4521  22.8763  24.7972  25.3647  26.2794
    26.3767  27.2011  27.3117  27.9079

          k = 0.5000-0.1667 0.5000 (  3382 PWs)   bands (ev):

   -94.1236 -55.1677 -55.1676 -55.1676 -28.0178 -28.0176 -28.0176 -28.0101
   -28.0101  -2.6383  -0.1127  -0.1110   0.0530   0.0543   0.3245   4.1972
     6.3026   7.2275  10.7296  12.9583  13.6195  14.2420  16.4803  17.1531
    18.3029  19.3252  21.1468  22.2650  22.2740  23.4737  25.1407  26.1361
    26.9062  27.3967  27.6226  28.2218

          k = 0.4167-0.0833 0.4167 (  3387 PWs)   bands (ev):

   -94.1236 -55.1677 -55.1676 -55.1676 -28.0178 -28.0176 -28.0176 -28.0101
   -28.0101  -2.7049  -0.1277  -0.1183   0.0480   0.0503   0.1808   4.7328
     6.4602   7.4423  10.7274  13.0405  13.4270  13.5013  15.8987  17.3722
    18.2905  19.2475  20.2378  21.7763  23.4614  23.6900  24.0181  25.7747
    25.9244  26.8698  29.1318  29.4149

          k = 0.3333 0.0000 0.3333 (  3393 PWs)   bands (ev):

   -94.1236 -55.1677 -55.1676 -55.1676 -28.0178 -28.0177 -28.0177 -28.0102
   -28.0101  -2.7865  -0.1447  -0.1313   0.0172   0.0474   0.0786   5.3420
     6.8110   7.6435  10.5325  12.6724  13.1679  13.4807  15.7522  16.9524
    17.7235  18.8437  20.0533  21.7860  22.2405  24.1249  25.1493  25.2631
    25.8886  26.9002  28.9396  31.0162

          k = 0.0000 0.5000 0.0000 (  3399 PWs)   bands (ev):

   -94.1236 -55.1677 -55.1676 -55.1676 -28.0180 -28.0176 -28.0176 -28.0102
   -28.0100  -2.7571  -0.1111  -0.1111  -0.0286   0.0696   0.0848   5.3757
     6.9629   6.9629  10.8495  11.3408  14.4012  14.4012  14.7826  17.9018
    18.5554  19.7829  19.7829  20.2106  23.2805  23.2805  24.1995  24.3381
    25.4956  29.0949  29.0949  29.8844

          k =-0.0833 0.5833-0.0833 (  3392 PWs)   bands (ev):

   -94.1236 -55.1677 -55.1676 -55.1676 -28.0181 -28.0175 -28.0175 -28.0102
   -28.0100  -2.6898  -0.0981  -0.0934  -0.0094   0.0726   0.1653   4.8990
     6.7016   6.7807  10.9110  11.3897  14.2655  14.7659  15.5775  18.1016
    18.9824  20.0113  20.5931  21.4738  21.9455  22.0148  24.1403  24.1521
    26.7867  28.0351  28.7863  29.2877

          k =-0.1667 0.6667-0.1667 (  3382 PWs)   bands (ev):

   -94.1236 -55.1677 -55.1676 -55.1676 -28.0180 -28.0175 -28.0175 -28.0102
   -28.0099  -2.6257  -0.0932  -0.0813   0.0057   0.0735   0.2959   4.4195
     6.3576   6.6844  10.9254  11.8301  14.0671  14.8350  16.5902  18.5580
    18.9023  19.8613  20.4513  21.7003  21.8633  23.1943  24.1878  24.4319
    26.5108  26.9394  28.3270  29.0083

          k = 0.7500-0.2500 0.7500 (  3385 PWs)   bands (ev):

   -94.1236 -55.1677 -55.1676 -55.1676 -28.0180 -28.0175 -28.0175 -28.0102
   -28.0100  -2.5819  -0.0925  -0.0769   0.0205   0.0704   0.4242   4.0720
     6.0290   6.6901  10.9286  12.4396  14.1425  14.6897  16.8617  18.5033
    18.9954  19.3155  20.0931  22.8214  23.1824  23.5716  24.6020  24.7421
    25.5402  26.0804  28.2566  28.4153

          k = 0.6667-0.1667 0.6667 (  3372 PWs)   bands (ev):

   -94.1236 -55.1677 -55.1677 -55.1676 -28.0179 -28.0176 -28.0175 -28.0101
   -28.0100  -2.5689  -0.0945  -0.0805   0.0348   0.0632   0.4804   3.9598
     5.8073   6.7966  10.9779  12.8401  14.4601  14.5876  16.1601  17.4900
    18.8958  20.1811  21.1121  22.4865  22.6371  24.4099  24.8046  25.1251
    25.9116  26.9249  27.2933  27.9578

          k = 0.5833-0.0833 0.5833 (  3383 PWs)   bands (ev):

   -94.1236 -55.1677 -55.1677 -55.1676 -28.0178 -28.0177 -28.0175 -28.0101
   -28.0100  -2.5895  -0.0987  -0.0917   0.0452   0.0548   0.4295   4.1066
     5.7630   6.9859  11.0518  13.0336  14.1806  14.3413  16.3883  16.5904
    19.0144  20.3497  21.0942  22.3396  22.4262  24.6147  24.6221  25.7975
    26.1081  27.0606  27.1072  28.3721

          k = 0.5000 0.0000 0.5000 (  3378 PWs)   bands (ev):

   -94.1236 -55.1677 -55.1676 -55.1676 -28.0178 -28.0177 -28.0176 -28.0101
   -28.0101  -2.6389  -0.1088  -0.1061   0.0491   0.0502   0.3091   4.4095
     5.9698   7.2205  11.0357  13.1767  13.5799  13.8215  16.0449  17.4520
    19.0549  19.3534  19.9910  23.0108  23.2711  23.6132  24.6068  25.2459
    25.9100  27.3727  27.9782  28.7225

          k = 0.0000 0.6667 0.0000 (  3399 PWs)   bands (ev):

   -94.1236 -55.1677 -55.1676 -55.1676 -28.0181 -28.0174 -28.0174 -28.0103
   -28.0099  -2.6393  -0.0737  -0.0737  -0.0208   0.0766   0.2368   4.6138
     6.5784   6.5784  10.7387  11.1397  15.2250  15.4020  15.4020  18.2809
    19.8523  21.0015  21.0015  21.2858  21.6558  21.6558  22.9903  23.0180
    27.7291  28.0573  28.7493  28.7494

          k =-0.0833 0.7500-0.0833 (  3379 PWs)   bands (ev):

   -94.1236 -55.1677 -55.1676 -55.1676 -28.0181 -28.0174 -28.0174 -28.0103
   -28.0099  -2.5896  -0.0660  -0.0599  -0.0161   0.0783   0.3447   4.2821
     6.3279   6.4627  10.7758  11.1652  15.0522  15.7050  16.4659  18.6232
    19.7773  20.5364  20.6373  21.6022  21.9092  22.6627  22.9855  23.1527
    26.3043  27.7810  27.8537  28.4702

          k = 0.8333-0.1667 0.8333 (  3377 PWs)   bands (ev):

   -94.1236 -55.1677 -55.1676 -55.1676 -28.0181 -28.0174 -28.0174 -28.0102
   -28.0099  -2.5541  -0.0705  -0.0548  -0.0013   0.0758   0.4572   4.0420
     5.9617   6.4532  10.8276  11.6795  14.8902  15.6055  16.9047  18.6779
    19.3694  20.0684  20.4247  22.2577  22.8574  23.2864  23.4623  24.2769
    25.1718  26.9828  27.0328  27.4554

          k = 0.7500-0.0833 0.7500 (  3363 PWs)   bands (ev):

   -94.1236 -55.1677 -55.1677 -55.1676 -28.0180 -28.0175 -28.0174 -28.0102
   -28.0099  -2.5415  -0.0785  -0.0589   0.0158   0.0689   0.5228   3.9607
     5.6421   6.5515  10.9016  12.4433  14.9089  15.2714  16.0432  17.7738
    19.9525  20.6168  20.9980  22.1954  22.6991  23.3672  24.4768  24.7527
    25.9591  26.2749  26.7381  27.4441

          k = 0.6667-0.0000 0.6667 (  3370 PWs)   bands (ev):

   -94.1236 -55.1677 -55.1677 -55.1676 -28.0179 -28.0176 -28.0175 -28.0101
   -28.0100  -2.5544  -0.0880  -0.0719   0.0321   0.0606   0.5089   4.0166
     5.5335   6.7410  11.0196  13.0109  14.7802  14.8976  15.4450  17.0067
    20.1189  20.6766  21.4357  22.0445  22.3151  23.7136  25.2977  25.5010
    25.7406  26.4655  27.1251  27.4719

          k = 0.0000 0.8333 0.0000 (  3378 PWs)   bands (ev):

   -94.1236 -55.1677 -55.1676 -55.1676 -28.0182 -28.0174 -28.0174 -28.0103
   -28.0099  -2.5558  -0.0450  -0.0450  -0.0295   0.0817   0.4151   4.0610
     6.3240   6.3240  10.6156  10.8649  16.0957  16.3983  16.3983  18.6635
    20.1427  20.2401  20.2401  22.1455  22.5080  22.5303  22.5303  23.1401
    25.7194  26.6629  26.6629  27.9314

          k = 0.9167-0.0833 0.9167 (  3362 PWs)   bands (ev):

   -94.1236 -55.1677 -55.1676 -55.1676 -28.0182 -28.0174 -28.0173 -28.0103
   -28.0098  -2.5335  -0.0497  -0.0395  -0.0194   0.0812   0.4863   3.9143
     6.1281   6.2921  10.6949  10.9627  15.9851  16.4976  16.9383  18.8293
    19.4106  19.7632  20.5925  22.1679  22.3964  23.4274  23.5994  24.0328
    24.6951  25.8375  26.1267  27.3533

          k = 0.8333 0.0000 0.8333 (  3362 PWs)   bands (ev):

   -94.1236 -55.1677 -55.1676 -55.1676 -28.0181 -28.0174 -28.0174 -28.0102
   -28.0099  -2.5285  -0.0629  -0.0442  -0.0028   0.0760   0.5276   3.9008
     5.8203   6.3723  10.7708  11.6138  15.6514  16.0262  16.3932  18.2880
    19.7485  20.3640  21.1813  22.1207  22.6122  22.7122  24.1718  24.6662
    25.1750  25.7276  26.8834  27.2278

          k = 0.0000-1.0000 0.0000 (  3378 PWs)   bands (ev):

   -94.1236 -55.1677 -55.1676 -55.1676 -28.0182 -28.0173 -28.0173 -28.0103
   -28.0098  -2.5259  -0.0342  -0.0342  -0.0335   0.0836   0.4983   3.8503
     6.2353   6.2353  10.6499  10.6699  16.5981  16.9502  16.9502  18.8480
    19.5616  19.5616  19.8009  21.7966  23.6699  23.7471  23.7471  24.1113
    24.1850  25.2245  25.2245  26.6962

          k =-0.1667 0.3333 0.0000 (  3397 PWs)   bands (ev):

   -94.1236 -55.1676 -55.1676 -55.1676 -28.0179 -28.0177 -28.0177 -28.0102
   -28.0101  -2.8529  -0.1520  -0.1429  -0.0620   0.0500   0.0625   5.9264
     7.2257   7.5968  10.3447  12.0547  13.3546  13.5082  15.5084  17.0621
    17.2898  18.6442  19.2128  20.6913  23.2614  23.5227  25.1387  25.8010
    27.1206  27.6111  28.0273  31.6171

          k =-0.2500 0.4167-0.0833 (  3390 PWs)   bands (ev):

   -94.1236 -55.1677 -55.1676 -55.1676 -28.0179 -28.0177 -28.0176 -28.0102
   -28.0101  -2.7704  -0.1380  -0.1269   0.0156   0.0585   0.0853   5.2234
     6.8868   7.4418  10.6023  12.3006  13.5127  13.6889  15.6814  17.1662
    17.7330  19.0548  20.3516  21.8256  22.0184  23.6404  24.6587  25.3630
    26.2538  27.6986  28.1420  30.3012

          k =-0.3333 0.5000-0.1667 (  3387 PWs)   bands (ev):

   -94.1236 -55.1677 -55.1676 -55.1676 -28.0179 -28.0176 -28.0176 -28.0101
   -28.0100  -2.6888  -0.1243  -0.1152   0.0382   0.0633   0.2097   4.5443
     6.6647   7.2509  10.6288  12.6946  13.5632  13.9588  16.1920  17.2372
    18.1784  19.4890  20.8053  21.8281  22.3414  23.4473  23.9617  26.1912
    26.3960  27.9497  28.3351  28.5390

          k = 0.5833-0.4167 0.7500 (  3374 PWs)   bands (ev):

   -94.1236 -55.1677 -55.1676 -55.1676 -28.0179 -28.0176 -28.0175 -28.0101
   -28.0100  -2.6301  -0.1151  -0.1085   0.0473   0.0638   0.3506   4.0424
     6.5452   7.0991  10.5880  12.7851  13.6528  14.5482  16.6346  17.4385
    18.3132  19.1495  20.5508  22.0639  22.5966  23.7410  25.1024  26.2991
    26.5783  27.8126  28.2404  28.5679

          k = 0.5000-0.3333 0.6667 (  3384 PWs)   bands (ev):

   -94.1236 -55.1677 -55.1676 -55.1676 -28.0178 -28.0176 -28.0175 -28.0101
   -28.0100  -2.6090  -0.1121  -0.1064   0.0522   0.0626   0.4138   3.8532
     6.5088   7.0412  10.5675  12.7741  13.6617  15.0135  16.6331  17.5640
    18.2459  19.0638  20.5545  21.3116  23.5129  24.5187  25.2713  26.3561
    26.6191  27.2362  27.4562  28.5593

          k =-0.1667 0.5000 0.0000 (  3393 PWs)   bands (ev):

   -94.1236 -55.1677 -55.1676 -55.1676 -28.0180 -28.0176 -28.0176 -28.0102
   -28.0100  -2.7409  -0.1197  -0.1119  -0.0030   0.0676   0.1068   5.1797
     6.7782   7.1007  10.9323  11.6334  13.7748  14.3211  15.4267  17.7749
    18.4149  19.2393  20.2446  21.4917  21.9009  23.3310  24.2866  25.5776
    25.8797  27.6717  28.3335  29.7246

          k =-0.2500 0.5833-0.0833 (  3384 PWs)   bands (ev):

   -94.1236 -55.1677 -55.1676 -55.1676 -28.0180 -28.0176 -28.0175 -28.0102
   -28.0100  -2.6681  -0.1083  -0.0982   0.0149   0.0692   0.2235   4.6466
     6.4436   6.9354  11.0601  11.9764  13.5737  14.6239  16.0645  18.2146
    18.6073  19.5509  20.4738  21.7044  22.1862  22.9597  24.1100  25.7575
    26.7104  27.0685  27.9144  28.5360

          k = 0.6667-0.3333 0.8333 (  3375 PWs)   bands (ev):

   -94.1236 -55.1677 -55.1676 -55.1676 -28.0179 -28.0176 -28.0175 -28.0102
   -28.0100  -2.6101  -0.1015  -0.0899   0.0272   0.0680   0.3634   4.1919
     6.1966   6.8046  11.0649  12.4596  13.6197  14.7027  16.6140  18.3071
    18.6516  19.2077  20.6148  21.7168  23.3033  23.6349  24.6275  25.2709
    26.0023  26.7566  28.2579  28.7067

          k = 0.5833-0.2500 0.7500 (  3367 PWs)   bands (ev):

   -94.1236 -55.1677 -55.1676 -55.1676 -28.0179 -28.0176 -28.0175 -28.0101
   -28.0100  -2.5816  -0.0994  -0.0877   0.0385   0.0633   0.4540   3.9513
     6.0326   6.7854  11.0723  12.6517  13.9374  14.8908  16.2441  18.1413
    18.5931  19.1867  20.9953  22.4667  23.0521  23.9633  24.9621  25.3334
    26.5674  26.8630  27.4670  28.2088

          k = 0.5000-0.1667 0.6667 (  3371 PWs)   bands (ev):

   -94.1236 -55.1677 -55.1676 -55.1676 -28.0178 -28.0177 -28.0175 -28.0101
   -28.0100  -2.5893  -0.1007  -0.0921   0.0430   0.0595   0.4355   4.0115
     5.9756   6.8864  11.1038  12.7311  13.8343  14.8803  16.1870  17.4885
    18.4824  19.9156  21.3732  21.9132  22.5186  24.5337  25.0827  25.5235
    26.5326  26.9021  27.4077  28.3301

          k = 0.4167-0.0833 0.5833 (  3382 PWs)   bands (ev):

   -94.1236 -55.1677 -55.1676 -55.1676 -28.0178 -28.0176 -28.0175 -28.0101
   -28.0100  -2.6311  -0.1075  -0.1011   0.0377   0.0605   0.3230   4.3363
     6.0715   7.0729  11.1186  12.7887  13.3498  14.4664  16.1736  17.6623
    18.7632  19.4050  20.4859  22.1782  23.1986  23.5488  24.7663  25.2894
    26.6696  27.1154  27.8871  28.3664

          k = 0.3333 0.0000 0.5000 (  3376 PWs)   bands (ev):

   -94.1236 -55.1677 -55.1676 -55.1676 -28.0179 -28.0176 -28.0176 -28.0102
   -28.0100  -2.6972  -0.1222  -0.1116   0.0308   0.0604   0.1856   4.7855
     6.3738   7.2856  10.9895  12.4782  13.3179  14.0784  15.8131  17.8567
    18.4452  19.2389  20.0253  21.7144  23.2511  23.4787  24.2650  25.7516
    26.2104  26.8166  28.1723  28.8901

          k =-0.1667 0.6667-0.0000 (  3381 PWs)   bands (ev):

   -94.1236 -55.1677 -55.1676 -55.1676 -28.0181 -28.0175 -28.0175 -28.0102
   -28.0099  -2.6315  -0.0841  -0.0788  -0.0053   0.0746   0.2682   4.5300
     6.4071   6.6293  11.0165  11.3738  14.2281  15.3854  16.0518  18.5142
    19.4349  20.0697  20.5584  21.6957  21.8940  22.5116  23.0564  24.3583
    27.1540  27.7985  28.1967  28.8116

          k = 0.7500-0.2500 0.9167 (  3375 PWs)   bands (ev):

   -94.1236 -55.1677 -55.1676 -55.1676 -28.0180 -28.0175 -28.0174 -28.0102
   -28.0099  -2.5821  -0.0799  -0.0702   0.0060   0.0732   0.3943   4.2003
     6.0872   6.5028  11.1212  11.7810  14.0470  15.5691  16.6053  18.7934
    19.1692  19.7602  20.7034  21.4141  22.7451  23.3057  24.0246  24.6844
    25.6338  26.9447  27.2884  28.7301

          k = 0.6667-0.1667 0.8333 (  3368 PWs)   bands (ev):

   -94.1236 -55.1677 -55.1677 -55.1676 -28.0180 -28.0176 -28.0174 -28.0102
   -28.0099  -2.5543  -0.0825  -0.0675   0.0203   0.0675   0.4922   4.0057
     5.7900   6.5008  11.1686  12.4505  14.0147  15.3751  16.2972  18.4354
    19.2583  19.7776  21.0102  22.3909  22.9333  23.7687  24.2514  24.9440
    25.9653  26.2065  26.8914  28.2809

          k = 0.5833-0.0833 0.7500 (  3367 PWs)   bands (ev):

   -94.1236 -55.1677 -55.1677 -55.1676 -28.0179 -28.0176 -28.0174 -28.0101
   -28.0100  -2.5544  -0.0875  -0.0730   0.0333   0.0599   0.5092   4.0004
     5.6258   6.6238  11.2534  12.8973  14.0018  15.2826  15.6481  17.5146
    19.6851  20.3309  21.5649  22.0409  22.4293  24.2130  24.5979  25.5009
    25.8075  26.7337  27.2275  27.9971

          k = 0.5000 0.0000 0.6667 (  3381 PWs)   bands (ev):

   -94.1236 -55.1677 -55.1677 -55.1676 -28.0178 -28.0177 -28.0175 -28.0101
   -28.0100  -2.5822  -0.0945  -0.0861   0.0388   0.0572   0.4384   4.1439
     5.7004   6.8344  11.3077  13.0445  13.4264  15.0848  15.9474  17.0392
    19.7069  20.0799  20.7887  22.1051  22.7783  24.5637  24.6383  25.7530
    25.9275  26.4693  27.4431  28.1737

          k = 0.8333-0.1667 1.0000 (  3372 PWs)   bands (ev):

   -94.1236 -55.1677 -55.1676 -55.1676 -28.0182 -28.0174 -28.0174 -28.0103
   -28.0099  -2.5540  -0.0575  -0.0542  -0.0111   0.0784   0.4393   4.0574
     6.1792   6.2925  10.9260  11.1334  15.0833  16.3139  16.6898  19.0204
    19.1434  20.1647  20.8987  21.7337  22.2444  22.8525  23.7619  23.8927
    25.1494  26.3693  27.5005  28.1994

          k = 0.7500-0.0833 0.9167 (  3369 PWs)   bands (ev):

   -94.1236 -55.1677 -55.1676 -55.1676 -28.0181 -28.0175 -28.0173 -28.0102
   -28.0099  -2.5340  -0.0639  -0.0526   0.0027   0.0739   0.5173   3.9453
     5.8800   6.2698  11.0483  11.6593  14.9171  15.7847  16.8496  18.7115
    19.2728  20.0794  21.3517  21.9871  22.8646  23.1976  23.5899  24.4798
    25.3988  26.3255  26.9612  27.5314

          k = 0.6667 0.0000 0.8333 (  3364 PWs)   bands (ev):

   -94.1236 -55.1677 -55.1677 -55.1676 -28.0180 -28.0176 -28.0174 -28.0102
   -28.0099  -2.5343  -0.0751  -0.0584   0.0184   0.0662   0.5433   3.9551
     5.6199   6.3996  11.1521  12.4552  14.6684  15.0225  16.3786  17.9308
    19.9957  20.5569  21.4761  21.8135  22.6902  23.5479  24.2277  24.6875
    25.8828  26.4423  27.0332  28.0106

          k =-0.1667-1.0000-0.0000 (  3350 PWs)   bands (ev):

   -94.1236 -55.1677 -55.1676 -55.1676 -28.0182 -28.0174 -28.0173 -28.0103
   -28.0098  -2.5262  -0.0504  -0.0440  -0.0114   0.0795   0.5165   3.8773
     6.1208   6.1535  10.9348  10.9811  15.9434  16.0775  17.2021  18.9489
    19.3203  19.4502  20.9563  22.3326  22.7082  23.5606  23.6137  23.7320
    25.0282  26.0241  26.0848  26.9770

          k = 0.6667-0.3333 1.0000 (  3384 PWs)   bands (ev):

   -94.1236 -55.1677 -55.1676 -55.1676 -28.0179 -28.0176 -28.0175 -28.0102
   -28.0100  -2.6105  -0.0945  -0.0869   0.0204   0.0674   0.3469   4.3372
     6.0400   6.7474  11.4279  12.1521  13.3189  15.2998  16.1229  18.2161
    19.3467  19.5565  20.2531  21.8765  22.8196  23.3393  24.2882  25.9140
    26.4022  26.6258  27.4631  27.8502

          k = 0.5833-0.2500 0.9167 (  3366 PWs)   bands (ev):

   -94.1236 -55.1677 -55.1677 -55.1676 -28.0179 -28.0176 -28.0174 -28.0102
   -28.0100  -2.5693  -0.0880  -0.0780   0.0290   0.0628   0.4612   4.0856
     5.8101   6.5614  11.5609  12.5523  13.3514  15.5288  15.9923  17.8987
    19.4947  19.8881  21.2093  21.5092  22.7548  24.4640  24.8478  25.2703
    26.0102  26.4844  26.9808  27.7069

          k = 0.5000-0.1667 0.8333 (  3360 PWs)   bands (ev):

   -94.1236 -55.1677 -55.1677 -55.1676 -28.0178 -28.0177 -28.0174 -28.0101
   -28.0100  -2.5544  -0.0869  -0.0741   0.0345   0.0592   0.5094   3.9849
     5.7405   6.4854  11.5814  12.6409  13.6770  15.2686  15.8455  18.4027
    19.1596  19.5932  21.8143  22.2679  22.6730  23.6394  24.5513  25.6273
    26.3111  26.9093  27.3957  27.7534

          k = 0.6667-0.1667 1.0000 (  3379 PWs)   bands (ev):

   -94.1236 -55.1677 -55.1676 -55.1676 -28.0180 -28.0176 -28.0174 -28.0102
   -28.0099  -2.5490  -0.0715  -0.0669   0.0145   0.0685   0.4915   4.0416
     5.8804   6.2625  11.5900  11.9056  13.8439  15.7151  16.6017  18.4048
    19.6625  20.0353  21.1444  21.5466  22.3618  24.3084  24.3569  24.7276
    25.6503  26.2442  26.8265  27.8660

          k = 0.5833-0.0833 0.9167 (  3366 PWs)   bands (ev):

   -94.1236 -55.1677 -55.1677 -55.1676 -28.0179 -28.0177 -28.0173 -28.0102
   -28.0099  -2.5345  -0.0739  -0.0638   0.0255   0.0612   0.5471   3.9780
     5.7133   6.1781  11.7440  12.5080  13.7356  14.8316  16.8546  18.6748
    19.2136  20.1669  21.3036  22.3674  22.9924  23.3923  24.3723  24.6154
    25.7737  26.9774  27.4286  27.8076

          k = 0.5000 0.0000 0.8333 (  3356 PWs)   bands (ev):

   -94.1236 -55.1677 -55.1677 -55.1676 -28.0178 -28.0177 -28.0174 -28.0102
   -28.0100  -2.5418  -0.0793  -0.0679   0.0315   0.0579   0.5339   4.0076
     5.6471   6.3121  11.7825  12.8162  13.3928  14.9033  16.5141  18.0102
    19.9628  20.2357  21.1628  21.7204  22.9485  24.1615  24.6851  24.9253
    25.5652  26.8099  27.6242  27.7996

          k =-0.3333-1.0000 0.0000 (  3358 PWs)   bands (ev):

   -94.1236 -55.1677 -55.1677 -55.1676 -28.0180 -28.0175 -28.0173 -28.0102
   -28.0099  -2.5270  -0.0620  -0.0601   0.0136   0.0679   0.5515   3.9369
     5.9037   6.0033  11.6141  11.8049  14.6039  14.9153  17.3734  19.0481
    19.2735  19.3681  21.8982  22.6361  23.1219  23.1903  23.3949  23.6426
    26.5845  26.6030  27.3930  27.7083

          k =-0.5000-1.0000 0.0000 (  3380 PWs)   bands (ev):

   -94.1236 -55.1677 -55.1677 -55.1676 -28.0178 -28.0177 -28.0173 -28.0102
   -28.0099  -2.5274  -0.0704  -0.0632   0.0294   0.0571   0.5684   3.9701
     5.7988   5.9337  12.0915  12.6689  13.5102  14.3108  17.4332  19.0840
    19.1931  19.4320  21.6720  22.7698  23.1545  23.2492  23.6883  24.9582
    25.2558  27.0711  28.2130  28.4213

     the Fermi energy is     8.0798 ev

!    total energy              =    -485.71945796 Ry
     estimated scf accuracy    <          2.6E-12 Ry
     smearing contrib. (-TS)   =      -0.00000000 Ry
     internal energy E=F+TS    =    -485.71945796 Ry

     The total energy is F=E-TS. E is the sum of the following terms:
     one-electron contribution =    -315.02428883 Ry
     hartree contribution      =     159.38854955 Ry
     xc contribution           =     -46.24456074 Ry
     ewald contribution        =    -283.83915794 Ry

     convergence has been achieved in   9 iterations

     Writing all to output data dir out/mp-406.save/
 
     init_run     :      0.35s CPU      0.39s WALL (       1 calls)
     electrons    :     12.82s CPU     13.92s WALL (       1 calls)

     Called by init_run:
     wfcinit      :      0.32s CPU      0.35s WALL (       1 calls)
     potinit      :      0.01s CPU      0.01s WALL (       1 calls)
     hinit0       :      0.01s CPU      0.01s WALL (       1 calls)

     Called by electrons:
     c_bands      :     11.26s CPU     12.09s WALL (      10 calls)
     sum_band     :      1.51s CPU      1.74s WALL (      10 calls)
     v_of_rho     :      0.04s CPU      0.04s WALL (      10 calls)
     mix_rho      :      0.01s CPU      0.01s WALL (      10 calls)

     Called by c_bands:
     init_us_2    :      0.07s CPU      0.08s WALL (     756 calls)
     init_us_2:cp :      0.07s CPU      0.08s WALL (     756 calls)
     cegterg      :     10.50s CPU     10.80s WALL (     360 calls)

     Called by *egterg:
     cdiaghg      :      2.17s CPU      2.20s WALL (    1477 calls)
     h_psi        :      7.59s CPU      7.85s WALL (    1549 calls)
     g_psi        :      0.04s CPU      0.04s WALL (    1153 calls)

     Called by h_psi:
     h_psi:calbec :      0.17s CPU      0.18s WALL (    1549 calls)
     vloc_psi     :      7.26s CPU      7.51s WALL (    1549 calls)
     add_vuspsi   :      0.12s CPU      0.13s WALL (    1549 calls)

     General routines
     calbec       :      0.17s CPU      0.18s WALL (    1549 calls)
     fft          :      0.02s CPU      0.02s WALL (     100 calls)
     ffts         :      0.00s CPU      0.00s WALL (      10 calls)
     fftw         :      7.90s CPU      8.18s WALL (   87216 calls)
     davcio       :      0.12s CPU      0.70s WALL (    1238 calls)
 
     Parallel routines
 
     PWSCF        :     13.29s CPU     14.65s WALL

 
   This run was terminated on:  20:41:25   5Dec2023            

=------------------------------------------------------------------------------=
   JOB DONE.
=------------------------------------------------------------------------------=
