
     Program PWSCF v.7.1 starts on 15Nov2023 at  5:20:30 

     This program is part of the open-source Quantum ESPRESSO suite
     for quantum simulation of materials; please cite
         "P. Giannozzi et al., J. Phys.:Condens. Matter 21 395502 (2009);
         "P. Giannozzi et al., J. Phys.:Condens. Matter 29 465901 (2017);
         "P. Giannozzi et al., J. Chem. Phys. 152 154105 (2020);
          URL http://www.quantum-espresso.org", 
     in publications or presentations arising from this work. More details at
     http://www.quantum-espresso.org/quote

     Parallel version (MPI), running on    24 processors

     MPI processes distributed on     1 nodes
     122963 MiB available memory on the printing compute node when the environment starts
 
     Reading input from pw_mp-23155_nscf_k350_E67.in
Warning: card &IONS ignored
Warning: card / ignored
Warning: card &CELL ignored
Warning: card / ignored

     Current dimensions of program PWSCF are:
     Max number of different atomic species (ntypx) = 10
     Max number of k-points (npk) =  40000
     Max angular momentum in pseudopotentials (lmaxx) =  4

     Atomic positions and unit cell read from directory:
     out/mp-23155.save/
 
 
     K-points division:     npool     =       2
     R & G space division:  proc/nbgrp/npool/nimage =      12
     Subspace diagonalization in iterative solution of the eigenvalue problem:
     one sub-group per band group will be used
     scalapack distributed-memory algorithm (size of sub-group:  3*  3 procs)

 
     Parallelization info
     --------------------
     sticks:   dense  smooth     PW     G-vecs:    dense   smooth      PW
     Min          79      79     23                 1610     1610     260
     Max          80      80     24                 1613     1613     263
     Sum         955     955    283                19339    19339    3143
 
     Using Slab Decomposition
 


     bravais-lattice index     =            2
     lattice parameter (alat)  =      10.1349  a.u.
     unit-cell volume          =     260.2548 (a.u.)^3
     number of atoms/cell      =            1
     number of atomic types    =            1
     number of electrons       =         8.00
     number of Kohn-Sham states=         1200
     kinetic-energy cutoff     =      67.0000  Ry
     charge density cutoff     =     268.0000  Ry
     Exchange-correlation= PBE
                           (   1   4   3   4   0   0   0)

     celldm(1)=  10.134903  celldm(2)=   0.000000  celldm(3)=   0.000000
     celldm(4)=   0.000000  celldm(5)=   0.000000  celldm(6)=   0.000000

     crystal axes: (cart. coord. in units of alat)
               a(1) = (  -0.500000   0.000000   0.500000 )  
               a(2) = (   0.000000   0.500000   0.500000 )  
               a(3) = (  -0.500000   0.500000   0.000000 )  

     reciprocal axes: (cart. coord. in units 2 pi/alat)
               b(1) = ( -1.000000 -1.000000  1.000000 )  
               b(2) = (  1.000000  1.000000  1.000000 )  
               b(3) = ( -1.000000  1.000000 -1.000000 )  


     PseudoPot. # 1 for Ar read from file:
     /usr/scratch4/magr4985/MG/HTDF/pseudo/SG15/Ar.upf
     MD5 check sum: 620464c3264a40e7652fb6a19ca6aabb
     Pseudo is Norm-conserving, Zval =  8.0
     Generated using ONCVPSP code by D. R. Hamann
     Using radial grid of  602 points,  4 beta functions with: 
                l(1) =   0
                l(2) =   0
                l(3) =   1
                l(4) =   1

     atomic species   valence    mass     pseudopotential
        Ar             8.00    39.94800     Ar( 1.00)

     48 Sym. Ops., with inversion, found



   Cartesian axes

     site n.     atom                  positions (alat units)
         1           Ar  tau(   1) = (   0.0000000   0.0000000   0.0000000  )

     number of k points=    29  Gaussian smearing, width (Ry)=  0.0005
                       cart. coord. in units 2pi/alat
        k(    1) = (   0.0000000   0.0000000   0.0000000), wk =   0.0039062
        k(    2) = (  -0.1250000   0.1250000  -0.1250000), wk =   0.0312500
        k(    3) = (  -0.2500000   0.2500000  -0.2500000), wk =   0.0312500
        k(    4) = (  -0.3750000   0.3750000  -0.3750000), wk =   0.0312500
        k(    5) = (   0.5000000  -0.5000000   0.5000000), wk =   0.0156250
        k(    6) = (   0.0000000   0.2500000   0.0000000), wk =   0.0234375
        k(    7) = (  -0.1250000   0.3750000  -0.1250000), wk =   0.0937500
        k(    8) = (  -0.2500000   0.5000000  -0.2500000), wk =   0.0937500
        k(    9) = (   0.6250000  -0.3750000   0.6250000), wk =   0.0937500
        k(   10) = (   0.5000000  -0.2500000   0.5000000), wk =   0.0937500
        k(   11) = (   0.3750000  -0.1250000   0.3750000), wk =   0.0937500
        k(   12) = (   0.2500000   0.0000000   0.2500000), wk =   0.0468750
        k(   13) = (   0.0000000   0.5000000   0.0000000), wk =   0.0234375
        k(   14) = (  -0.1250000   0.6250000  -0.1250000), wk =   0.0937500
        k(   15) = (   0.7500000  -0.2500000   0.7500000), wk =   0.0937500
        k(   16) = (   0.6250000  -0.1250000   0.6250000), wk =   0.0937500
        k(   17) = (   0.5000000   0.0000000   0.5000000), wk =   0.0468750
        k(   18) = (   0.0000000   0.7500000   0.0000000), wk =   0.0234375
        k(   19) = (   0.8750000  -0.1250000   0.8750000), wk =   0.0937500
        k(   20) = (   0.7500000   0.0000000   0.7500000), wk =   0.0468750
        k(   21) = (   0.0000000  -1.0000000   0.0000000), wk =   0.0117188
        k(   22) = (  -0.2500000   0.5000000   0.0000000), wk =   0.0937500
        k(   23) = (   0.6250000  -0.3750000   0.8750000), wk =   0.1875000
        k(   24) = (   0.5000000  -0.2500000   0.7500000), wk =   0.0937500
        k(   25) = (   0.7500000  -0.2500000   1.0000000), wk =   0.0937500
        k(   26) = (   0.6250000  -0.1250000   0.8750000), wk =   0.1875000
        k(   27) = (   0.5000000   0.0000000   0.7500000), wk =   0.0937500
        k(   28) = (  -0.2500000  -1.0000000   0.0000000), wk =   0.0468750
        k(   29) = (  -0.5000000  -1.0000000   0.0000000), wk =   0.0234375

     Dense  grid:    19339 G-vectors     FFT dimensions: (  40,  40,  40)

     Estimated max dynamical RAM per process >      99.93 MB

     Estimated total dynamical RAM >       2.34 GB

     The potential is recalculated from file :
     out/mp-23155.save/charge-density

     Starting wfcs are random

     Band Structure Calculation
     ParO style diagonalization

     ethr =  5.00E-06,  avg # of iterations =  5.6

     total cpu time spent up to now is      765.0 secs

     End of band structure calculation

          k = 0.0000 0.0000 0.0000 (  2421 PWs)   bands (ev):

   -19.0565  -4.3932  -4.3932  -4.3932   4.2430  12.4252  12.4252  12.4252
    15.2909  15.2909  16.2291  18.8534  18.8534  18.8534  20.9100  28.3079
    28.3079  28.3079  31.2806  31.2806  31.2806  34.6654  34.6654  37.2450
    37.8990  37.8990  37.8990  45.8594  45.8594  47.7598  47.7598  47.7598
    49.1538  49.1538  49.1538  51.9044  51.9291  51.9291  51.9291  53.8012
    54.6667  54.6667  54.6667  54.7512  54.7512  54.7512  56.9410  56.9410
    56.9410  57.5218  57.5218  61.0359  61.0359  61.0359  61.3130  61.3343
    61.3343  61.3343  61.7834  74.8281  74.8281  77.3998  77.3998  77.3998
    80.0226  80.0226  80.0226  81.1887  84.8042  84.8042  84.8042  86.7018
    86.7018  86.7018  87.0613  87.0613  92.8810  96.0184  96.0184  96.0184
    96.3105  96.3105  96.3105  96.6904  97.7139  97.7139  97.7139  97.9760
    97.9760  98.0169  98.0169  99.1012  99.1012  99.1012 100.4925 100.4925
   100.4925 101.4811 101.4811 101.4811 102.5177 102.8780 102.8780 102.8780
   102.9760 102.9760 102.9760 103.4441 103.4441 103.4441 103.5945 103.5945
   103.8710 115.7879 115.7879 115.7879 116.6674 118.3494 118.3494 118.3494
   118.7112 118.7112 120.8374 120.8374 120.8374 121.1208 121.1208 121.1208
   121.5789 121.5789 121.5789 121.8573 121.8573 121.8573 122.1689 122.1689
   123.0702 129.4836 129.4836 130.9045 130.9045 130.9045 132.9264 136.7456
   136.7456 136.7456 137.4516 137.5835 137.5835 137.5835 137.6916 137.6916
   137.6916 137.8716 137.8716 137.8716 138.0211 138.0211 138.0211 138.0340
   138.0340 138.0340 138.6829 141.0161 141.0161 141.0706 141.0706 141.0706
   141.1741 153.6209 153.6209 153.6209 155.1660 155.1660 155.1660 155.1748
   155.1748 157.4837 159.2042 159.2042 159.2042 170.0390 170.0390 170.6434
   170.8104 170.8104 170.8104 171.6115 171.7620 171.7620 171.7620 173.7589
   173.7589 173.7589 174.4842 174.4842 174.4842 175.0307 175.0307 175.0307
   175.9275 175.9275 175.9275 176.4732 176.4732 177.4929 177.4929 177.4929
   178.1233 178.2482 178.2482 178.5442 178.5442 178.5442 179.2571 179.2571
   179.2571 181.4424 181.5037 181.5037 181.5037 181.6819 181.6819 181.7981
   181.7981 181.7981 182.0656 182.0656 182.0656 182.1318 182.5600 182.5600
   182.5600 182.7373 182.7373 184.9436 185.1719 185.1719 185.1719 185.2916
   185.2916 185.2916 185.6520 186.5284 186.5284 186.5284 186.5994 186.5994
   186.7931 186.7931 186.7931 186.8144 186.8144 186.8144 186.8365 186.8365
   186.8676 186.8676 186.8676 200.3751 200.3751 200.6604 202.1723 202.1723
   202.1723 203.9214 203.9214 203.9214 203.9463 203.9463 203.9463 203.9959
   203.9959 203.9959 204.8055 204.8055 204.8055 206.6220 206.7226 206.7226
   206.7226 206.7717 206.7717 213.5996 213.6842 213.6842 213.6842 213.8319
   216.7526 216.7526 216.7526 218.9868 218.9868 219.0088 219.0088 219.0088
   219.2771 219.2771 219.2771 219.2957 219.2957 219.2957 219.4484 219.4484
   219.9112 219.9112 219.9112 226.3393 226.6063 226.6063 227.0136 227.0136
   227.0136 227.0400 227.0400 227.0400 227.0503 227.0503 227.0503 227.0694
   227.0694 227.0694 227.3523 227.3523 227.3523 227.5526 227.5711 227.5711
   227.5711 227.5871 227.5871 243.5961 244.9776 244.9776 244.9776 246.0062
   246.6575 246.6575 246.6575 247.5132 247.5132 248.0810 248.0810 248.0810
   248.7287 248.9540 248.9540 248.9540 252.3346 252.3346 252.9009 252.9009
   252.9009 254.4032 255.6107 255.6107 255.6107 261.6813 261.6813 261.6813
   262.3474 262.3474 262.3474 262.4761 262.4761 262.4761 262.9140 262.9140
   262.9140 262.9598 263.4813 263.4813 263.4813 263.7834 263.7834 263.8763
   263.8763 263.8763 263.8865 263.8865 263.8865 266.3972 266.3972 266.4238
   266.4238 266.4238 266.4764 267.1336 267.1336 267.2679 267.3359 267.3359
   267.3359 267.3651 267.3651 267.3651 267.3723 267.3723 267.3723 270.0362
   270.0362 270.0362 270.0488 270.0488 270.1225 270.1225 270.1225 270.1603
   270.4589 270.4589 270.4589 280.6643 280.7011 280.7011 280.7011 280.7767
   283.5585 283.5585 283.5585 284.2879 284.2879 284.5237 284.5237 284.5237
   284.9420 284.9420 284.9420 284.9719 284.9719 284.9719 285.4378 285.4378
   286.4829 286.4829 286.4829 288.3645 288.3645 288.5720 288.5720 288.5720
   288.6991 288.6991 288.6991 288.7650 288.7650 288.7650 289.1625 289.1625
   289.1625 289.3093 289.3093 289.6217 290.0161 290.0161 290.0161 290.1888
   290.1888 290.1888 290.2351 298.8817 298.8817 298.8883 299.9001 299.9001
   299.9001 300.8998 300.8998 300.8998 301.0437 301.0437 301.0437 301.1963
   301.1963 301.1963 301.2385 301.2385 301.2385 302.2413 302.2479 302.2479
   302.2479 302.2512 303.0558 303.1703 303.1703 303.1703 303.2261 303.2261
   303.5262 303.5262 303.5262 305.6744 305.6744 305.7122 305.7122 305.7122
   305.7314 305.7314 305.7314 305.7667 305.7667 305.7789 305.7789 305.7789
   305.8506 305.8506 305.8506 306.2539 306.2707 306.2707 306.2727 306.2727
   306.2727 307.0985 307.0985 307.0985 307.1358 307.1358 307.1358 307.1795
   307.1795 307.1795 307.2099 307.2099 307.2099 307.4748 307.6188 307.6188
   307.6188 307.6851 307.6851 326.8396 326.8396 326.9519 327.6670 327.6670
   327.6670 339.0070 339.4086 339.4086 339.4086 339.9373 341.3469 341.3469
   341.3469 341.4768 341.4768 342.1730 342.1730 342.1730 342.3760 342.3760
   342.3760 342.8710 342.8710 342.8710 343.2499 343.2499 343.3320 343.3320
   343.3320 347.0468 347.9214 347.9214 347.9214 348.0049 348.0049 349.9515
   349.9515 349.9515 349.9890 349.9890 349.9890 350.5793 350.5793 350.5793
   350.6239 350.6239 350.6239 350.7885 350.9701 351.2830 351.2830 351.2830
   351.5965 351.5965 351.5965 352.8091 352.8091 352.8111 352.8111 352.8111
   352.8247 353.3734 353.3734 353.3734 353.4056 353.4056 353.4056 353.4204
   353.4204 353.4204 353.4559 353.4559 353.4585 353.4585 353.4683 353.4683
   353.4683 362.2372 362.2372 362.2827 362.2827 362.2827 362.4651 362.4651
   362.4651 363.0346 365.1516 365.1516 365.1516 371.3384 371.3384 371.5618
   371.5618 371.5618 371.6875 371.6875 371.6875 371.8565 371.8810 371.8810
   371.8810 372.1395 372.1395 372.1395 372.3045 372.3045 372.3045 372.5016
   372.5061 372.5061 372.5076 372.5076 372.5076 382.1604 382.2403 382.2403
   382.2403 382.4426 382.4426 382.4502 382.4502 382.4502 383.2048 383.2048
   383.2048 383.3751 384.1236 384.1236 384.1236 384.5549 384.5549 384.5549
   384.6293 384.6293 384.6293 384.6624 384.6624 384.6912 384.6912 384.6912
   384.7163 385.0237 385.0237 385.0237 385.6196 385.6196 385.6640 385.6640
   385.6640 387.3982 387.9273 387.9273 387.9273 388.2411 388.2411 388.2411
   388.4798 390.5827 390.6388 390.6388 390.6388 390.6695 390.6695 390.6695
   390.6728 390.6728 390.6728 390.7139 390.7139 394.9351 394.9351 394.9351
   394.9442 394.9442 394.9771 394.9771 394.9771 394.9947 395.0490 395.0490
   395.0490 395.4181 395.4181 395.4181 395.4259 395.4259 395.5033 395.5033
   395.5033 395.5841 395.5841 395.5841 395.6359 410.3281 410.3281 410.5995
   411.2065 411.2065 411.2065 412.1455 412.1455 412.1455 412.2074 412.2074
   412.2074 412.2861 412.2861 412.2861 412.5934 412.5934 412.5934 412.9859
   413.1086 413.1086 413.1086 413.1617 413.1617 420.0948 420.0948 420.1071
   420.2995 420.2995 420.2995 420.4891 420.8704 420.8704 420.8704 421.8610
   422.0296 422.0296 422.0296 424.1391 424.1391 424.2441 424.2441 424.2441
   424.3092 424.3092 424.3092 424.4134 424.4134 424.4134 424.8484 424.8484
   424.8484 425.0298 425.0298 428.8681 428.8681 428.8681 428.8836 428.8836
   428.8836 428.9335 428.9335 428.9335 429.0325 429.0325 429.0325 429.0572
   429.0572 429.1270 429.1270 430.0446 430.0446 430.0446 430.1359 430.1359
   430.1359 430.1846 430.1846 430.1846 430.2497 430.2497 430.2497 430.3610
   430.4890 430.4890 430.4890 430.5082 430.5411 430.5411 430.5411 433.5482
   433.6080 433.6080 433.6080 433.6374 433.6374 435.2711 435.4467 435.4467
   435.4467 435.5238 435.5238 435.5238 435.6121 435.6121 435.6671 435.6705
   435.6705 435.6705 435.6730 435.6730 435.6730 435.6811 435.6811 435.6811
   435.8527 435.8527 435.8527 435.9216 435.9216 436.6602 436.7564 436.7564
   436.7564 436.8237 436.8237 437.0125 437.0125 437.0125 437.0364 437.0571
   437.0571 437.0571 437.0819 437.0819 437.0819 437.0885 437.0885 437.0885
   437.1754 437.1754 437.1754 437.2083 437.2083 452.5723 452.5971 452.6036
   452.6036 452.6036 452.7259 452.7259 452.7259 456.9755 456.9755 456.9826
   456.9826 456.9826 456.9853 456.9853 456.9853 456.9868 456.9868 456.9926
   456.9926 456.9926 456.9927 456.9927 456.9927 464.7905 464.7905 464.8653
   465.0595 465.0595 465.0595 466.9846 466.9846 466.9846 467.0308 467.0308
   467.0308 467.0790 467.0790 467.0790 467.0861 467.0861 467.0861 469.7391
   469.7988 469.7988 469.7988 469.8280 469.8280 472.9864 472.9941 472.9941
   472.9941 472.9981 472.9981 474.2376 474.2376 474.2376 474.2431 474.2431
   474.2431 474.2453 474.2453 474.2453 474.2491 474.2491 474.2491 474.7495
   474.8160 474.8160 474.8160 474.8472 474.8472 492.2436 492.8008 492.8008
   492.8008 492.9035 492.9035 492.9035 493.5178 494.3512 494.3512 494.3770
   494.3770 494.3770 494.6921 494.6921 494.6921 494.8532 494.8532 494.8532
   494.9523 494.9523 494.9523 494.9758 494.9758 498.8439 498.8439 498.9105
   498.9105 498.9105 499.2745 499.2745 499.2745 499.7967 499.7967 499.7967
   500.0527 509.8729 510.0127 510.0127 510.0127 510.1206 510.1206 510.1206
   510.1674 511.4822 511.4822 511.6304 511.6304 511.6304 511.9232 512.6556
   512.6556 512.6556 512.8614 512.8614 512.8614 512.8793 512.8793 512.8793
   513.0574 513.0574 513.0574 513.1742 513.1742 513.2135 513.2135 513.2135
   513.2193 514.0899 514.0899 514.0899 514.1487 514.1487 514.3198 514.3198
   514.3198 514.5370 514.5370 514.5370 514.6510 514.6510 514.6764 514.6764
   514.6764 515.0660 515.0660 515.0660 515.0947 515.0947 515.0947 515.1096
   515.1096 515.1365 515.1408 515.1408 515.1408 515.9196 515.9196 515.9388
   515.9388 515.9388 515.9586 517.5605 517.7197 517.7197 517.7197 517.8988
   517.8988 517.8988 517.9978 517.9978 517.9978 518.0218 518.0218 520.9745
   520.9745 520.9745 520.9774 520.9774 521.0260 521.0260 521.0260 521.0917
   521.0917 521.0917 521.1109 534.2270 534.3796 534.3796 534.3796 534.4605
   534.4605 535.1491 535.1491 535.1491 535.2848 535.2848 535.2848 535.5394
   535.5394 535.5540 535.5540 535.5540 535.8987 535.9085 535.9660 535.9660
   535.9660 535.9819 535.9819 535.9819 536.0100 536.0100 536.0287 536.0287
   536.0287 537.4202 537.4202 537.4202 537.7565 537.7565 537.7565 537.9052
   537.9052 537.9052 538.4473 538.4473 538.4473 538.5758 538.9476 538.9476
   539.2270 539.2270 539.2270 539.3591 539.3591 539.3591 539.5420 539.5420
   539.5420 539.7827 539.7827 539.7827 539.8298 539.8298 539.8914 539.8914
   539.8914 539.9230 539.9230 539.9230 539.9626 541.1619 541.1619 541.1741
   541.1741 541.1741 541.1970 551.9528 551.9528 551.9528 551.9674 551.9674
   552.0489 552.0489 552.0489 552.0985 552.0985 552.0985 552.1199 552.2541
   552.2570 552.2570 552.2570 552.3023 552.3023 552.3023 552.4961 552.4961
   552.4961 552.5278 552.5278 554.6439 554.6541 554.6682 554.6682 554.6682
   554.6728 554.6728 554.6728 555.5640 555.5640 555.5706 555.5706 555.5706
   555.5878 555.5878 555.5878 555.5964 555.5964 555.5964 555.6079 555.6079
   555.6079 555.6100 555.6100 557.5505 557.5505 557.5505 557.5557 557.5557
   557.5723 557.6780 557.6780 557.6780 557.6857 557.6857 557.6857 557.7543

          k =-0.1250 0.1250-0.1250 (  2406 PWs)   bands (ev):

   -19.0318  -4.5893  -4.4128  -4.4128   4.6450  11.6192  12.5816  12.5816
    14.7972  14.7972  17.0589  18.0900  19.9994  19.9994  22.6730  26.1289
    27.1251  27.1251  31.2098  31.2098  32.9173  34.0890  34.0890  38.0920
    38.1091  39.7583  39.7583  43.8896  43.8896  44.1612  47.5794  47.5794
    48.1091  50.0300  50.0300  50.4051  50.4051  51.1746  51.5870  52.8747
    52.8747  53.9203  54.2791  56.3123  56.3123  56.4271  56.9860  56.9860
    58.1485  58.7765  59.6873  59.6873  59.9152  62.3981  62.3981  64.1970
    64.1970  64.3841  68.9023  71.2168  71.2168  74.2973  76.0542  76.9917
    76.9917  80.5404  80.5404  83.9590  84.0459  84.0459  85.5696  85.5696
    86.5298  87.5028  88.8650  90.1543  90.1543  90.6832  90.6832  93.1115
    93.1115  94.0956  94.7017  95.1316  95.6164  95.6164  96.7473  96.7473
    97.8479  97.8479  98.1412  98.3231  98.9455  99.2424  99.2424 100.0065
   100.0065 100.3610 103.3347 103.3618 103.3618 104.5864 104.9022 105.0897
   105.0897 105.6035 105.6035 107.7350 107.8673 107.8673 109.7519 110.9044
   111.0388 111.0388 111.3419 111.3419 112.9214 112.9214 115.3152 115.7923
   115.7923 116.4046 119.1052 119.1052 119.8039 120.8087 120.8087 121.2268
   122.8767 122.8767 124.2721 125.3411 125.3411 125.8788 126.4866 126.4866
   126.8007 127.1200 129.0578 131.0715 131.0715 131.2519 131.2519 131.2808
   131.4629 131.7434 131.7434 133.9465 133.9465 134.2724 135.7012 135.7012
   135.7392 136.5010 136.5010 137.6526 141.5727 141.5727 141.9209 143.9270
   143.9270 144.2105 144.2682 144.3925 144.3925 145.6139 145.6139 147.1779
   148.6624 148.6624 148.8949 149.5868 154.3689 154.3689 155.2229 155.6777
   158.1349 158.1349 160.7829 161.8342 161.8342 164.4644 164.4644 165.2846
   165.5992 165.5992 166.4452 167.5757 167.5757 168.2185 170.2156 170.2156
   170.5707 171.1563 171.9199 171.9199 172.2170 173.1889 173.1987 173.1987
   173.5402 174.2041 174.2041 174.4940 174.4940 175.2314 175.2335 175.2335
   176.1008 176.5784 176.5784 177.3464 177.3464 177.5197 178.1607 178.1607
   178.4476 178.7821 178.8496 178.8496 181.0328 181.2932 181.2932 181.8796
   181.8796 182.4716 183.8906 183.9828 184.2000 184.2000 184.5219 184.5219
   184.8578 184.8578 185.0988 185.7561 185.7561 186.1158 187.3454 188.0525
   188.0878 188.0878 189.4740 189.5172 189.5172 189.5867 189.5867 190.4609
   190.9206 190.9206 192.2969 192.2969 192.6175 192.6175 193.2700 193.2761
   194.7160 194.7160 194.8025 194.9231 195.0512 195.0512 197.7375 197.8821
   198.3585 198.3585 199.7875 199.7875 200.6321 200.7633 200.7633 201.3187
   205.5844 205.5844 206.8973 207.8586 207.8586 209.3006 209.3006 209.6266
   210.4111 210.7719 210.7719 212.5494 212.7088 212.7088 213.5108 213.5108
   213.7843 214.0663 214.0663 214.7122 216.2635 216.3138 216.3138 216.6224
   217.5220 217.5220 217.8360 218.4920 218.4920 219.8625 219.8983 219.8983
   219.9921 220.1600 220.1600 223.4269 223.4269 223.4408 226.1904 226.2454
   226.2454 226.2766 226.5494 226.5494 228.4439 229.3280 229.4710 229.4710
   231.2111 233.2759 233.2759 234.8252 234.8567 234.8783 234.8783 234.9339
   234.9339 236.1740 236.1740 238.6105 240.7464 240.7464 240.7874 241.0430
   241.2137 241.2137 243.4876 243.4876 243.6018 247.8492 247.9512 247.9512
   248.0860 250.6102 250.8487 250.8487 251.9700 251.9700 252.1012 252.1012
   252.2028 252.8945 253.5373 253.5373 253.6760 253.9559 253.9559 254.9276
   254.9276 255.3488 257.3688 257.4210 257.4210 258.3051 258.3051 258.3387
   261.3276 261.4932 261.4932 261.5829 262.1271 262.1271 263.5485 263.6906
   263.6906 263.9865 264.0302 264.0302 264.2821 266.1851 266.2496 266.2496
   266.4591 266.5890 266.5890 268.1233 269.7759 269.7759 270.7184 270.8259
   270.8259 271.0507 271.0507 271.2221 272.1568 272.1568 272.3582 272.6246
   272.9182 272.9182 273.3697 273.3697 274.1456 274.1801 274.1801 274.5681
   276.2218 276.3580 276.3580 277.0642 277.1227 277.1227 277.2100 277.2901
   277.2901 280.3740 280.3740 280.4063 281.0112 281.4212 281.4212 282.2728
   282.4294 282.4294 282.9201 283.4650 283.4650 283.6543 284.3747 284.3747
   285.5346 285.7947 285.7947 285.8844 287.0910 287.0910 287.6365 288.2621
   288.4116 288.4116 289.0783 289.1215 289.1215 289.3184 289.3184 289.4166
   289.4377 289.4377 291.0308 291.0308 291.1455 292.1156 292.2606 292.2606
   293.8675 294.0024 294.0024 294.1935 294.3544 294.3544 295.1516 295.2373
   295.2373 296.1469 296.4273 296.4273 296.9010 296.9333 296.9333 297.1344
   297.2455 297.2455 298.3339 299.4581 299.4677 299.4677 300.5466 300.5769
   300.5769 300.7784 300.7784 301.7737 301.7737 301.7926 302.1631 302.2110
   302.2110 302.9931 303.0301 303.0301 304.6182 304.6182 304.7741 305.2195
   305.2195 305.8295 307.1748 307.1748 307.1767 307.3714 307.7082 307.7082
   309.9013 309.9418 309.9418 311.9423 311.9423 312.0975 312.4079 312.5166
   312.5166 314.1271 314.1271 314.2735 314.4987 314.4987 314.5969 315.1737
   315.3399 315.3399 317.1882 317.1882 317.2863 319.4364 319.9094 319.9094
   320.0382 321.1710 321.2897 321.2897 322.9581 322.9581 323.7276 325.8400
   325.8400 332.1436 332.3117 332.3117 333.1639 333.4081 333.5002 333.5002
   335.4991 335.4991 336.2763 336.5413 336.5413 337.7851 337.7851 337.8708
   338.7389 338.7389 338.9749 339.3488 339.9820 339.9820 341.3588 341.9585
   341.9585 343.3836 343.4825 343.4825 344.1757 344.1757 344.3034 344.5787
   344.6411 344.6411 345.6050 345.6576 345.6576 347.4503 347.4503 348.2606
   349.9394 349.9394 350.0604 351.2637 351.2637 351.3528 351.3597 351.8555
   351.8555 354.7059 354.7059 354.7100 356.4784 356.4784 356.6626 356.8352
   356.9673 356.9673 358.0602 359.0101 359.0101 359.1932 359.1932 359.4272
   360.3915 360.5567 360.5567 360.9843 361.1194 361.1194 361.5626 361.6636
   361.7334 361.7334 361.9779 361.9779 362.7146 363.1355 363.1355 363.1642
   363.4076 363.4288 363.4288 364.5150 364.5150 365.1802 365.2688 365.2688
   365.7862 366.7874 366.7874 367.1971 367.1992 367.1992 368.5098 368.8763
   369.0472 369.0472 369.1191 370.5656 370.5656 370.8120 371.7399 371.7399
   375.4426 375.5275 375.5275 377.2550 377.3293 377.3293 377.5744 377.5744
   377.6566 378.2801 378.2801 379.3775 379.8714 379.9111 379.9111 381.1877
   381.3061 381.3061 381.6791 381.7627 381.7627 382.2118 382.3817 382.3817
   382.4816 382.4846 382.4846 382.7714 382.7925 382.7925 384.9338 384.9338
   385.0072 385.2884 385.4094 385.4094 386.0068 386.0068 386.0115 386.0273
   386.2078 386.2078 387.7838 387.7838 388.1158 391.2170 391.2369 391.2369
   391.3115 391.3129 391.3129 393.3421 393.4071 393.4071 393.8393 393.8766
   393.8766 394.2679 394.2679 394.2843 396.0623 396.0623 396.5186 397.2192
   397.3990 397.3990 397.9445 397.9644 397.9644 397.9969 397.9969 398.1067
   398.3014 398.3014 398.4802 400.2448 400.2804 400.2804 401.1218 401.9158
   401.9158 402.5692 405.4059 405.5244 405.5244 405.6534 405.6534 406.8505
   406.8505 406.8572 407.2242 407.5972 407.6144 407.6144 408.9517 408.9517
   409.0357 409.4547 409.4547 409.5558 410.1437 410.1437 411.3219 411.8677
   411.9162 411.9162 413.3965 413.3965 413.5919 414.7074 414.9756 414.9756
   416.6493 416.8026 416.8920 416.8920 416.9439 416.9439 418.0561 418.1163
   418.1163 418.4203 418.4203 418.5224 418.5623 418.5768 418.5768 418.9841
   419.0079 419.0079 420.2860 420.3650 420.3650 421.1874 421.1874 421.2258
   422.4208 422.5640 422.5640 423.4136 423.4493 423.4493 423.8110 423.8875
   423.8875 424.0254 424.1812 424.1812 424.7346 424.7690 424.7690 426.7639
   426.7639 427.1936 428.1690 428.3072 428.3072 428.5391 428.5738 428.5738
   429.0950 429.0950 429.1735 429.2213 429.3160 429.3160 429.4226 429.4226
   429.4544 431.6837 431.8387 431.8387 431.9437 431.9437 431.9801 432.1144
   433.2233 433.3185 433.3185 434.7775 434.7991 434.7991 435.7203 435.7281
   435.7281 436.3560 436.3560 437.5988 437.6199 437.6199 438.6972 438.7266
   438.7266 439.4289 439.4289 439.4291 440.6449 440.7674 441.0016 441.0016
   441.6355 441.6355 441.9131 441.9131 441.9773 442.2217 443.7777 443.7777
   444.0139 444.2248 444.2248 444.3482 444.3482 444.3528 444.4295 444.4696
   444.4696 446.5958 446.6794 446.6794 448.6051 448.6051 449.3922 449.4771
   449.4771 449.5177 449.5357 449.5357 449.9703 449.9703 450.0258 450.0304
   450.1219 450.1219 450.2289 452.0199 452.0203 452.0203 452.8874 452.9590
   452.9590 454.1600 454.5761 454.5761 455.7099 455.7940 455.7940 457.4650
   457.5102 457.5102 458.4289 458.4687 458.4687 458.9001 458.9630 458.9630
   459.7825 459.8001 459.8001 461.0317 461.0610 461.0610 462.4590 462.4590
   462.4605 465.9538 465.9625 465.9625 466.8382 466.8382 466.8430 467.4669
   467.4693 467.4693 472.4342 473.3999 473.4621 473.4621 473.6958 474.1783
   474.1783 476.3647 476.3780 476.3780 478.1114 478.1114 479.8775 479.8775
   480.4686 480.9085 480.9085 480.9867 481.9306 481.9572 481.9572 483.2422
   483.2422 483.2913 484.4118 484.4118 484.4173 484.4968 484.5611 484.5611
   484.6584 484.6584 484.6584 488.3968 489.4509 489.4509 489.4650 490.9494
   491.0016 491.0016 492.6524 492.6524 493.4208 493.4208 493.6295 493.6753
   493.9730 493.9730 494.2718 494.2718 494.5482 496.4905 496.4905 496.6286
   498.0855 498.3848 498.3848 499.1204 499.1204 499.2468 499.3419 499.4677
   499.4677 500.6076 500.8179 500.8179 501.6781 501.6781 501.8233 502.3140
   502.3385 502.3385 503.0742 503.0742 503.0817 503.1920 503.1920 503.2458
   504.6576 504.6576 504.6726 505.6307 505.7049 505.7049 505.8401 505.8401
   505.9013 509.6591 509.6802 509.6802 510.2546 510.2633 510.2633 513.6148
   514.5781 514.5781 514.6199 514.6855 514.7506 514.7506 514.9661 515.1249
   515.1249 515.3305 515.3305 516.4654 516.5022 516.5022 516.5550 516.5550
   516.5750 517.0480 517.0947 517.0947 517.5428 517.5428 517.5522 517.6186
   517.6186 518.2783 518.4756 518.4756 518.7491 519.9012 520.0986 520.0986
   520.8656 520.8656 521.0809 522.1194 522.1194 522.1262 522.1862 522.2141
   522.2141 522.3609 522.3609 522.3714 523.1399 523.6015 523.6015 524.0419
   524.0478 524.0478 524.2601 524.2601 524.5063 524.6614 524.6614 524.7714
   525.0075 525.1385 525.1385 526.7360 526.7492 526.7492 528.4794 528.4803
   528.4803 529.6238 529.6274 529.6274 531.9557 532.0857 532.0991 532.0991
   532.1529 532.1529 532.1609 532.6051 532.7251 532.7251 532.9484 533.2126
   533.2126 533.6772 533.6772 533.8133 533.8133 533.9570 533.9654 534.0662
   534.1920 534.1920 536.1772 536.4366 536.4366 536.9572 536.9827 536.9827
   537.1207 537.1207 537.1278 537.1278 537.1333 537.1983 538.1752 538.2059
   538.2059 538.3930 538.3993 538.3993 539.6138 539.6138 539.6890 539.9686
   539.9946 539.9946 540.0713 540.0912 540.0912 541.1981 541.1989 541.1989
   542.4565 542.4565 542.4642 543.3083 543.3283 543.3283 543.3526 543.3526
   543.3617 546.3761 546.3796 546.3796 546.4059 546.4088 546.4088 546.7741
   546.7939 546.7939 548.3282 548.3543 548.3543 548.4271 548.4331 548.4331
   549.8993 549.8993 549.9105 550.5404 550.5605 550.5605 551.4886 551.6015
   551.6015 552.0231 552.0231 552.0639 552.0914 552.1634 552.1634 552.7272
   552.7272 552.9962 553.3063 553.3105 553.3105 553.4670 553.4874 553.4874
   553.9192 553.9260 553.9260 554.8873 555.2908 555.2908 555.9621 555.9621
   556.2164 556.8272 556.9497 556.9497 557.2813 557.3078 557.3078 557.4835
   557.4835 557.4948 559.2457 559.2693 559.2693 559.7005 559.7033 559.7033

          k =-0.2500 0.2500-0.2500 (  2427 PWs)   bands (ev):

   -18.9713  -5.0224  -4.4594  -4.4594   5.6434  10.4230  12.5418  12.5418
    14.8275  14.8275  16.1353  20.4927  22.2027  22.2574  22.2574  24.5839
    24.5839  26.7179  31.1276  31.1276  33.8505  33.9898  33.9898  38.0713
    38.6353  39.0210  39.0210  41.9179  44.6336  44.6336  46.3820  46.3820
    46.4759  47.1625  47.1625  48.2345  48.5801  51.2102  51.4733  51.4733
    53.0403  53.0403  54.7064  56.6701  56.6701  57.7401  59.8145  59.8145
    61.6164  62.2584  62.2584  63.3497  63.4532  66.6837  66.6837  67.5665
    67.5665  68.0978  69.2399  69.2399  69.8579  70.9091  71.5221  71.5221
    77.0774  80.2721  80.2721  81.9212  82.8376  82.8376  84.7662  84.7662
    85.2048  85.6855  85.6855  86.7949  88.3246  88.7731  88.7872  88.7872
    89.2964  89.2964  91.6791  95.0521  95.8912  95.8912  96.8196  96.8196
    98.0130  98.0130  98.2168  98.6268  98.8221  99.9627  99.9627 100.1597
   101.7566 101.7566 102.4121 102.4121 103.3325 106.1450 106.1450 106.9880
   108.0185 108.3980 108.3980 108.9411 108.9411 111.1651 111.1651 111.2985
   111.9345 111.9851 113.7744 113.7744 115.3160 116.2174 116.2174 116.5550
   116.5550 118.0807 118.1436 119.6159 119.8918 119.8918 120.2623 120.2623
   120.4993 121.4503 121.4503 122.7670 125.0822 125.0822 125.2770 125.7258
   125.7258 125.7573 129.8522 129.8522 130.7744 131.0062 131.0062 131.7319
   132.0151 132.0151 132.0723 132.5307 132.5307 132.7629 136.1291 136.1291
   137.8563 139.4997 140.8040 140.8040 142.9081 143.7357 143.7357 146.3521
   146.3521 146.6639 149.2994 150.5887 150.5887 151.1146 151.2891 151.2891
   151.2893 151.6022 151.6022 153.8212 153.8212 154.9832 155.9255 155.9255
   155.9325 157.0152 157.4634 157.4634 157.5673 158.3302 158.3302 158.5410
   159.1795 159.1795 161.4550 161.8891 162.3144 162.3144 162.4199 162.4199
   162.5564 166.3482 166.4543 166.4543 169.6396 169.6396 169.6696 171.0241
   171.3443 171.3443 171.7800 171.7800 171.8821 173.1873 173.6312 173.6312
   176.1195 176.1195 176.2042 176.8465 176.8465 177.6997 177.9965 178.2595
   178.2595 179.2515 179.5237 179.5237 182.0495 182.0495 182.1951 182.7392
   182.7392 183.2894 183.4983 183.4983 183.9624 185.4764 185.4936 185.5517
   185.5517 186.2316 186.2316 186.7018 186.7018 186.8695 187.8591 191.6034
   191.6467 191.6467 192.3181 192.3181 192.8803 192.8803 192.9857 193.4105
   193.4105 193.4530 194.6150 194.6150 194.8485 194.9199 194.9199 195.9691
   196.1962 196.1962 196.6828 197.2615 198.7575 199.6401 199.6401 200.9954
   200.9954 201.6120 201.6120 201.9412 203.3773 203.6496 203.6496 203.9367
   204.0306 204.0306 204.6942 204.6942 205.4010 206.3790 206.6007 206.6007
   211.0999 212.4752 212.4752 212.7005 213.1928 213.2567 213.2673 213.2673
   213.3689 213.3689 213.9322 213.9322 216.0688 216.5366 216.7357 216.7357
   217.1531 217.8045 217.8045 218.0159 218.4270 218.4270 223.4841 223.4841
   223.5990 224.7099 224.7099 225.5125 225.5125 225.5431 227.0792 227.1705
   227.1705 227.4524 231.3178 231.4135 231.4135 232.4356 232.4947 232.4947
   233.6829 233.6829 233.7157 234.2311 234.2311 234.8326 236.1786 236.9875
   236.9875 238.9551 238.9634 238.9634 241.3192 242.0074 242.0074 243.0788
   243.1178 243.1178 243.1835 243.4196 243.4196 243.6477 243.9966 244.0965
   244.0965 244.9807 244.9807 245.2853 245.6502 245.7461 245.7461 247.7261
   247.7261 248.4454 248.7973 248.7973 248.8935 251.6525 251.6525 251.8431
   252.1614 252.7654 252.7654 254.6803 255.0064 255.0064 255.3393 255.3393
   257.7325 257.7325 257.7697 258.6552 258.6552 259.7466 263.3365 263.5170
   263.5170 263.8021 263.8021 264.0168 264.0168 264.0180 264.3509 265.9293
   265.9911 265.9911 266.3493 266.7401 266.7401 267.9398 267.9921 267.9921
   269.6131 270.2553 270.4569 270.4569 272.9298 272.9298 273.6336 273.6940
   273.6940 274.0595 274.1270 274.1270 274.4378 274.4378 275.0901 275.4750
   275.4750 276.3063 276.4966 276.4966 276.6635 277.3950 277.3950 277.6804
   278.0500 278.1488 278.1488 279.0844 280.5497 280.5497 281.3680 281.8702
   282.4181 282.4181 282.6493 282.7678 282.7845 282.7845 282.8372 282.8372
   283.4886 284.1108 284.1108 285.1904 286.4191 286.4191 287.4081 287.4081
   287.4982 288.0512 288.0512 288.1984 288.8049 288.9625 288.9625 289.7918
   289.8578 289.8578 290.6150 290.7490 290.7490 291.3036 291.3036 291.4962
   291.9820 292.0667 292.0667 293.9410 293.9682 293.9682 296.8468 296.8468
   296.8597 297.5126 297.5193 297.5193 297.7893 297.7893 297.8461 297.9457
   298.0715 298.0715 298.2708 298.7268 298.7268 299.1689 299.2175 299.2175
   299.6275 299.6626 299.6626 306.3624 306.8240 306.8240 307.3844 307.4799
   307.4799 307.7257 309.7574 309.7837 309.7837 310.1395 310.1395 310.4165
   310.7101 310.7101 312.1575 312.1944 312.1944 312.8363 312.9511 312.9511
   314.2343 314.5910 314.6323 314.6323 316.3158 316.6795 316.6795 318.2863
   318.2863 319.0818 319.0818 319.1136 319.1728 319.2382 319.2382 320.8594
   320.8594 322.1136 323.1624 323.1624 323.3345 323.6262 323.6262 324.3241
   324.3532 324.3532 324.3578 325.3977 326.4631 326.4631 327.1775 327.1775
   327.3730 327.3736 327.3736 327.6620 327.7587 327.9761 327.9761 332.2717
   332.2717 332.7941 333.9403 333.9403 334.1595 334.2569 334.2569 334.7158
   335.5442 335.7190 335.7190 335.9303 336.0565 336.0565 337.0373 337.0931
   337.1417 337.1417 338.3571 338.4087 338.4087 340.6122 340.6122 341.6410
   341.6410 341.8682 342.0800 342.1052 342.1052 342.8567 343.4717 343.4717
   347.9002 348.7358 348.7358 348.9463 350.6756 350.6756 351.4228 351.5953
   351.5953 351.6464 351.6533 351.6533 351.7546 352.2466 352.2466 352.2653
   353.7712 353.7712 353.8759 355.8857 356.2042 356.2042 356.6039 356.7061
   356.7061 359.8504 360.0167 360.0167 360.5153 360.6786 360.6786 360.8158
   360.9312 360.9312 361.2135 361.3165 361.3165 361.9662 362.4671 362.4671
   363.5429 363.6486 363.6486 363.8076 364.7521 364.7521 365.6843 365.6843
   365.7032 368.0981 368.0981 368.3671 369.2354 369.2354 369.2562 369.3354
   369.5563 369.5563 370.6376 370.6633 370.6633 374.3820 374.4925 374.4925
   374.9686 375.0856 375.0856 377.5755 378.7228 378.7277 378.7277 379.3260
   379.3260 379.5150 379.5482 379.5482 379.7620 379.8636 379.8636 380.9250
   380.9250 381.3114 382.3319 382.4547 382.4547 382.8663 383.0042 383.0042
   384.6653 384.6653 384.6738 384.7105 384.9299 385.0647 385.0647 386.4826
   386.5641 386.5641 386.9362 387.1442 387.1442 387.3563 387.5076 387.5076
   390.5668 390.5668 391.3543 391.3543 391.5777 391.5777 391.5851 391.7200
   391.7200 391.7824 392.6433 393.4349 393.4349 393.8126 394.0428 394.1111
   394.1111 394.9435 395.0805 395.0805 395.2160 395.2160 395.5735 395.8168
   395.8168 395.8223 395.8490 395.8490 396.0725 399.4445 399.5677 399.5677
   400.3738 400.3738 400.4248 400.6640 400.6640 400.9899 401.0188 401.2153
   401.2153 401.4941 401.5494 401.5494 402.0786 402.4048 402.4048 402.4207
   402.6332 402.6332 403.1480 403.4390 403.4390 404.1275 404.1275 404.4879
   404.5972 404.5972 404.7803 406.9504 406.9562 406.9562 407.8113 407.8113
   407.9340 411.5148 411.5863 411.5863 411.9431 411.9526 411.9526 412.0722
   413.3378 413.3378 413.5022 413.6842 413.7159 413.7159 414.1999 414.3607
   414.3607 414.7330 414.7425 414.7425 415.8751 415.9578 415.9578 416.2173
   416.2173 418.5917 419.0375 419.0375 420.8920 421.0308 421.0308 422.1544
   422.2223 422.2223 422.5474 422.6153 422.6153 423.3725 423.4280 423.4280
   423.7223 423.8758 423.9124 423.9124 423.9278 423.9278 423.9840 424.0018
   424.0018 425.4984 425.4984 425.5259 427.2507 428.5056 428.5128 428.5128
   429.5505 429.5575 429.5575 432.1303 432.1303 432.4471 434.0978 434.0978
   434.1216 434.3715 434.3715 434.5535 435.1695 435.1737 435.1737 435.6298
   435.6298 435.6400 437.6323 437.6964 437.6964 439.3438 439.4189 439.4189
   440.0108 440.0108 440.1180 440.4707 440.4707 440.5047 442.4193 442.4193
   442.5008 442.6700 442.6700 442.6755 444.1832 444.1900 444.1900 444.2749
   444.3246 444.3246 444.8588 444.9850 444.9850 445.2396 445.2908 445.2908
   445.6772 445.6772 445.7136 447.5664 447.5664 447.5700 450.5433 450.5730
   450.5730 451.4023 451.4950 451.4950 451.5307 451.7892 451.7892 452.2749
   452.2749 452.4196 452.4758 452.6122 452.6396 452.6396 453.5819 453.5819
   453.6230 454.1394 454.1394 454.1895 454.2047 454.2047 455.0410 455.0656
   455.0656 459.2385 459.2568 459.2568 459.9691 460.5089 460.5089 461.2712
   461.2712 461.2744 461.4649 462.3894 462.3894 462.9829 463.0147 463.0396
   463.0396 463.1191 463.1191 463.1378 463.8559 463.8559 465.1374 465.1867
   465.1867 467.1944 468.4256 468.4256 468.4265 468.5176 468.5176 469.9216
   471.2967 471.2967 473.4302 474.0517 474.0517 474.1228 474.1725 474.1725
   474.5207 474.5207 474.8772 474.9083 474.9484 474.9484 475.1077 475.1279
   475.1279 477.8277 477.8277 477.8315 479.1664 479.1664 479.2425 481.1178
   481.1770 481.1770 481.9813 482.1446 482.1446 484.5748 484.5798 484.5798
   485.6128 485.6128 485.6802 488.6526 488.6526 488.6688 490.5344 490.6053
   490.6053 491.1040 491.1040 491.1106 491.2803 491.2949 491.2949 491.5450
   491.5450 491.5612 492.4188 492.5161 492.5161 494.4513 494.4705 494.4705
   494.9155 495.1045 495.1045 495.2500 496.0101 496.0101 496.0803 496.9253
   497.0199 497.0199 498.2943 498.2943 498.3885 498.6279 498.6516 498.6516
   498.7946 498.8232 498.8232 499.4635 499.4635 499.5048 499.5543 499.5543
   499.5833 499.7796 499.7796 504.9110 505.0900 505.0900 505.9244 505.9244
   506.2204 506.2204 506.2404 506.3681 506.8352 506.8352 506.8394 507.2846
   507.2948 507.2948 507.9555 508.2640 508.3194 508.3194 508.5773 508.5773
   509.3865 509.3865 509.6395 510.9511 512.3795 512.3795 514.4133 514.4133
   514.4502 514.5101 514.5904 514.5904 514.7738 515.2031 515.2031 515.2036
   515.5997 515.5997 515.7378 515.8360 515.9862 515.9862 516.0566 516.0566
   516.0746 516.8512 516.8735 516.8735 517.8107 517.8331 517.8331 517.9810
   517.9810 517.9959 519.8568 519.8568 519.8581 521.3588 521.4100 521.4100
   521.5470 521.5470 521.5528 523.2143 523.2771 523.2771 523.3783 523.3783
   523.3830 524.9484 524.9484 524.9616 524.9628 524.9859 524.9859 525.2798
   525.2810 525.2810 527.4364 527.4386 527.4386 528.0201 528.0201 528.0336
   528.0979 528.1129 528.1129 531.4055 531.4264 531.4264 533.9227 533.9290
   533.9290 534.1114 534.9081 534.9177 534.9177 535.0395 535.0452 535.0452
   535.1259 535.1259 537.0411 537.0689 537.0689 537.2121 537.2121 537.2337
   537.2955 537.4900 537.4900 537.5551 537.5551 537.5793 538.2043 538.2043
   538.3398 538.4628 538.4684 538.4684 538.7539 538.7576 538.7576 542.1126
   542.1146 542.1146 542.6131 542.6226 542.6226 542.7420 542.7560 542.7560
   544.5695 544.5974 544.6144 544.6144 545.4276 545.4534 545.4534 546.6712
   546.6712 548.9515 548.9515 548.9582 549.0017 549.0090 549.0090 549.2340
   549.2392 549.2392 549.5363 549.5508 549.5508 549.9204 549.9243 549.9243
   550.0855 550.0968 550.0968 551.9506 551.9562 551.9562 552.0209 552.0209
   552.8834 553.1051 553.1051 553.5751 555.1265 555.5403 555.5403 555.5797
   556.2708 557.5434 557.5434 557.7452 557.7661 557.7661 558.8341 558.8341
   558.9233 558.9233 558.9474 559.2447 559.9916 559.9916 560.4724 560.4724
   560.4742 562.8685 562.9029 562.9029 563.3668 563.3668 563.3830 563.4326
   563.5415 563.5415 563.9204 563.9204 563.9516 563.9783 563.9783 564.0772

          k =-0.3750 0.3750-0.3750 (  2427 PWs)   bands (ev):

   -18.9095  -5.4128  -4.5050  -4.5050   6.7563   9.5318  12.1145  12.1145
    15.6569  16.1413  16.1413  19.6256  21.3025  21.3025  23.9349  25.5695
    25.5695  30.3353  30.5082  30.5082  32.1875  34.2904  34.2904  36.3369
    36.4218  36.4218  39.3633  40.7064  43.2800  43.2800  43.3713  45.2705
    45.2705  46.0651  49.6079  50.2026  50.2026  51.0103  51.3665  51.3665
    53.4746  53.4746  54.1532  58.3562  58.3562  58.8320  61.9381  61.9381
    63.2229  64.1662  64.1662  65.7828  66.2442  66.2442  66.8573  66.8573
    67.9249  68.4088  69.9274  72.0213  72.0213  73.4037  75.0015  75.0015
    76.4434  76.4434  76.6625  77.5453  77.5453  79.8686  81.4714  82.5671
    82.5671  83.8401  83.8401  84.8752  84.8752  85.4098  86.9608  87.0135
    92.2879  92.5513  92.5513  93.7547  93.9664  93.9664  96.0269  96.0269
    97.3082  97.3082  97.5508  97.8899  98.8904  98.8904 100.1641 102.0168
   102.0814 102.0814 104.7968 105.3116 105.3116 106.3979 106.3979 106.9461
   108.1050 109.2848 109.2848 109.3328 109.6563 109.6563 110.5827 110.5827
   110.5975 111.6758 112.4145 112.4145 114.0693 118.1065 118.1065 118.4263
   119.9055 120.4160 120.4160 120.5633 121.7649 121.7649 122.0379 122.0379
   122.2532 122.9921 122.9921 123.2132 125.4079 125.4079 126.6033 126.6033
   127.0595 128.6648 129.0146 129.2365 129.2365 129.3127 129.4876 129.4876
   129.7381 129.7381 130.4933 136.3553 136.3553 137.6546 138.9091 138.9091
   139.2047 139.3252 141.7103 141.7103 144.7187 144.7187 146.1659 147.0506
   147.0506 148.1387 148.6103 149.1049 149.1049 149.7549 151.1270 151.1270
   151.8521 151.9164 151.9164 152.0335 152.9782 153.1549 153.1549 153.8954
   153.8954 156.1556 156.1556 156.2244 156.6349 158.2504 158.2504 158.5429
   159.1622 159.1622 159.4102 159.4102 159.8983 160.4250 160.7508 160.7508
   163.7659 163.7659 163.8934 167.8327 167.8327 168.0961 169.5596 169.5951
   169.5951 169.7383 169.7383 169.7611 172.5226 173.1275 173.1974 173.1974
   173.3981 173.3981 174.8658 175.9011 176.1150 176.1150 176.2089 176.3917
   176.7801 176.7801 177.9351 178.2659 178.2659 178.9481 179.1543 179.1543
   179.7846 179.7846 183.8017 183.8017 183.8755 184.5895 184.5895 185.3510
   186.9286 186.9286 187.6217 189.5738 189.7714 189.7714 189.9254 190.0943
   190.0943 190.6635 190.6635 190.7116 190.8113 190.8113 191.0003 191.8960
   192.1296 192.1296 196.0151 196.0787 196.0787 197.1276 197.1420 197.1420
   197.9821 198.3829 198.3829 200.6509 200.8119 200.8119 201.6504 204.2386
   204.2386 204.6010 204.8153 204.8153 206.5584 206.6058 206.6058 206.9312
   207.2629 207.3212 207.3212 207.6723 209.1658 209.1716 209.1716 211.5894
   211.5894 212.2264 212.2264 213.4042 214.5861 214.5861 214.9029 215.9948
   216.2396 216.2396 216.7701 217.2845 217.2845 218.1758 218.4677 218.4677
   221.4644 221.4644 221.5400 223.0419 223.0802 223.0802 223.9729 223.9729
   224.8665 225.6172 226.6291 226.6291 226.7312 227.3060 227.4920 227.4920
   227.6548 227.6548 229.7981 230.5373 230.5373 232.7912 233.1292 233.1292
   233.7681 233.9070 233.9070 235.3955 235.3955 235.4299 236.0155 236.0678
   236.0678 236.2924 236.4222 236.4222 237.4041 237.4168 237.4168 237.9449
   237.9449 238.1528 238.6426 239.3302 240.2090 240.2090 240.9306 240.9306
   241.8903 241.9020 241.9020 244.3459 244.3459 245.3900 245.4655 245.8067
   245.8067 248.2060 248.3702 248.3702 248.5039 252.2712 252.2712 252.3118
   252.3899 252.3899 252.5620 252.6083 252.6083 254.1763 255.4173 255.4854
   255.4854 257.2987 257.2987 258.0537 258.0537 258.3444 259.2060 261.4128
   261.4128 261.8216 262.5565 262.6019 262.6019 262.9402 262.9402 263.4488
   263.4488 263.4859 263.8964 263.9442 263.9442 264.3551 264.3551 264.4546
   267.8780 267.8780 267.9176 268.2818 268.2818 268.2861 269.1535 269.9106
   269.9106 271.5010 271.5458 271.5458 271.7070 272.0009 272.0009 273.2695
   273.8488 273.8488 274.2471 274.3600 274.3600 275.7846 276.1821 276.1821
   277.6061 277.6707 277.6707 279.0906 279.0906 279.1216 280.8497 280.8497
   281.0420 282.5126 283.8480 283.8480 285.7997 285.7997 285.9756 286.0897
   286.3517 286.3517 287.7783 287.7783 287.8601 288.1044 288.9654 288.9654
   290.4806 290.4806 290.5125 290.6563 290.6750 290.6750 290.7625 290.7625
   291.3409 292.1760 292.6597 292.9660 292.9660 293.4359 293.4359 295.3030
   295.4406 295.4406 295.6145 295.6777 295.6777 295.7333 296.9611 296.9832
   296.9832 297.1784 297.1993 297.1993 298.3890 298.6027 298.6027 300.3513
   300.4681 300.4681 300.7031 301.6568 301.6568 303.3406 303.5974 303.5974
   303.9206 304.2501 304.2501 305.4037 305.4037 305.5586 308.4099 308.4099
   308.4763 311.7549 311.7549 311.9423 312.1336 312.1336 312.4018 313.0764
   313.0764 313.8310 314.9754 315.2758 315.2758 316.2099 316.3508 316.3508
   317.1700 317.5921 317.5921 318.1606 318.2573 318.2573 318.6163 318.7157
   318.7157 319.1111 319.1111 319.3108 319.6834 319.7356 319.7356 319.7810
   319.7810 320.2752 322.3001 322.3859 322.3859 326.6234 326.6411 326.6411
   326.6653 326.7046 326.7046 326.9549 327.2794 327.2794 327.4078 327.4078
   327.6973 328.8341 329.0696 329.0696 329.9524 330.3049 330.4024 330.4024
   331.2123 331.6274 331.6787 331.6787 333.1225 333.1225 334.7438 334.7438
   334.7660 335.1499 335.1499 335.8793 337.3099 337.3099 337.8013 337.8013
   337.8434 338.5613 340.5943 340.6771 340.6771 341.1740 341.1810 341.1810
   341.5939 341.5939 341.6465 341.9032 341.9513 341.9513 342.3201 342.8468
   342.8468 342.9171 343.3109 343.3109 343.6942 343.7153 343.7153 345.1875
   345.1875 345.2990 347.8064 347.9092 347.9092 349.4250 349.4250 349.6253
   351.3588 351.4912 351.4912 352.7825 352.8708 352.8708 354.9579 357.2116
   357.2116 357.2387 358.3202 358.6111 358.6111 358.7667 358.7667 359.9810
   360.0631 360.0631 360.4232 360.6482 360.6482 361.9318 362.3988 362.3988
   363.4656 364.5462 364.5462 364.8645 366.0706 366.0706 367.8237 367.8496
   367.8496 368.6778 369.5539 369.5539 369.7791 370.0787 370.0787 370.2730
   370.3385 370.3385 371.4687 371.6883 371.6883 373.3132 373.3132 374.4555
   374.5406 374.7767 374.7767 377.0829 377.0829 377.3655 378.4539 378.4539
   378.4732 378.4988 378.6112 378.6112 378.9784 379.1427 379.1427 380.0609
   380.0909 380.0909 381.3945 381.3945 381.4537 383.8313 383.9303 383.9957
   383.9957 384.0780 384.0780 384.6183 384.6183 384.7311 384.7485 384.7714
   384.7714 386.2398 386.3858 386.3858 386.4319 386.6850 386.6850 389.1155
   389.1155 389.2898 389.8117 389.8117 390.1218 390.5465 390.5692 390.5692
   392.2436 392.5088 392.5088 392.5757 392.7878 392.8674 392.8674 393.7658
   393.7951 393.7951 393.9691 394.0850 394.0850 394.5482 394.8425 394.8425
   395.1329 396.5518 396.5518 396.5944 396.5944 396.8734 396.9857 396.9857
   398.9918 399.0949 399.0949 399.2315 399.2372 399.2372 399.9082 400.0366
   400.0366 400.1344 400.1344 400.1624 400.1758 400.2835 400.2835 400.7357
   400.7624 400.7624 405.1143 405.1143 405.1998 405.3535 405.4280 405.4280
   405.4357 405.4615 405.4615 405.9386 405.9386 406.0460 406.0821 406.1791
   406.1791 406.4144 408.6022 408.7019 408.7019 408.9320 408.9320 408.9672
   409.1415 409.1709 409.1709 409.8666 409.8666 411.6326 411.6326 412.2557
   415.8795 415.8795 415.9183 416.0480 416.1254 416.1254 418.9286 418.9286
   419.2130 420.9801 420.9801 421.3335 422.3436 422.3982 422.4261 422.4261
   422.5720 422.5720 423.4329 423.7309 423.7309 426.2226 426.2226 426.2519
   427.6620 427.6755 427.6755 428.9009 428.9022 428.9022 428.9706 428.9706
   429.0425 430.4717 430.4861 430.4861 430.7740 430.8058 430.8058 430.8389
   430.8672 430.8672 430.9285 431.0268 431.0268 431.8337 431.9107 431.9107
   432.8254 434.5717 434.5717 435.6009 435.6372 435.6372 436.1421 436.2668
   436.2668 437.5159 437.5159 437.5233 438.9417 439.1093 439.1093 441.3115
   441.3600 441.3600 441.7508 441.7508 441.8288 443.5848 443.5848 443.6139
   443.8981 443.9220 443.9220 444.0099 444.1093 444.1093 444.8694 444.8872
   444.8872 444.9760 444.9760 445.2905 446.4703 446.4703 446.4721 446.8535
   447.6320 448.0665 448.1225 448.1225 448.5261 448.5261 448.5621 450.4304
   450.4304 451.4059 451.4059 451.9345 453.4314 453.4506 453.4506 453.7477
   453.7477 453.8161 455.7586 455.7586 455.7599 456.2109 456.2109 456.5319
   459.8572 459.8572 459.9089 460.3425 460.4215 460.4215 461.3292 461.3292
   461.3801 461.7212 461.7212 461.7562 462.0096 462.0096 462.1328 463.8789
   464.1200 464.1200 464.2100 464.3352 464.3352 465.6004 465.6453 465.6453
   466.2586 466.2586 466.2660 466.2907 466.2907 466.3070 467.2089 467.2089
   467.2239 467.9070 467.9098 467.9098 468.8828 468.8828 468.9570 471.7531
   471.7962 471.7962 474.8903 474.8903 474.8918 475.3786 475.6097 475.6097
   475.7493 475.7563 475.7563 476.8385 476.8385 476.8919 477.1490 477.2284
   477.2284 477.3332 477.3332 477.3472 479.2029 479.2029 479.2513 480.1026
   480.1437 480.1437 480.7936 480.7936 480.8122 481.0735 483.8451 483.8451
   485.0797 485.1328 485.1328 488.8186 488.8186 488.8392 488.8905 488.8905
   489.1829 489.1829 489.1850 489.4499 489.4499 489.4527 489.5391 490.1731
   490.5591 490.6743 490.6743 491.4370 491.4370 491.5612 491.5612 492.1643
   492.6997 492.6997 492.7174 493.0563 493.0574 493.2840 493.9246 493.9246
   494.1049 494.1049 494.5481 494.7347 494.7347 494.9171 494.9171 495.0955
   495.0955 495.1608 495.2198 495.9074 495.9074 496.0655 497.9630 497.9630
   497.9730 498.1793 498.2210 498.2210 498.3234 498.6220 498.6220 499.3986
   499.3986 499.5481 501.3549 501.3763 501.3763 501.4737 501.4737 501.4782
   504.5377 504.5414 504.5414 505.3090 505.3223 505.3223 507.1956 507.2584
   507.2584 507.3524 507.3610 507.3610 507.9472 507.9551 507.9551 508.0415
   508.0415 508.0525 510.3870 510.3914 510.3914 514.2079 514.2450 514.2450
   514.2999 514.2999 514.3045 514.3093 514.3093 514.3549 514.3758 514.3758
   514.4027 515.1719 515.2528 515.2528 517.2830 518.3970 518.4203 518.4203
   518.4905 518.4905 518.5098 521.8381 521.8381 522.8975 522.9123 522.9123
   522.9785 523.0350 523.0404 523.0404 523.8660 523.8660 523.8817 524.6610
   524.6775 524.6775 524.7083 524.7083 524.7170 525.3328 525.3328 525.4102
   525.4116 525.4116 526.2441 526.2565 526.2676 526.2676 526.3092 526.3092
   528.0543 528.0543 528.0601 528.3351 528.3798 528.3798 529.0296 529.0296
   529.0565 529.2445 529.2731 529.2731 530.5478 530.5478 531.6372 534.7113
   535.3632 535.3805 535.3805 535.8439 535.8439 535.9759 535.9759 535.9873
   537.0146 537.0146 537.2019 537.2347 537.2347 537.2556 538.9931 539.0155
   539.0155 539.2882 539.3063 539.3063 539.9505 539.9606 539.9623 539.9623
   539.9892 539.9892 540.0522 540.0657 540.0657 541.9536 541.9703 541.9703
   544.4658 544.4691 544.4691 547.1089 547.1089 547.1538 547.1591 547.2290
   547.2290 547.3388 547.3388 547.3702 547.5235 547.5235 547.5263 547.5872
   547.5992 547.5992 547.7600 547.8085 547.8085 549.8383 549.8799 549.8799
   550.0831 550.0831 550.1089 552.4582 552.5374 552.5374 553.4816 553.4816
   553.5406 554.2449 554.7108 554.7108 555.4681 555.4681 555.4812 555.5424
   555.6175 555.6175 555.9786 555.9786 555.9849 559.3411 559.7990 559.7990
   561.2048 561.2048 561.2151 562.9724 563.9076 563.9648 563.9648 564.3058
   564.3234 564.3234 566.5143 566.5360 566.5360 566.6270 566.6327 566.6327
   567.3757 567.3757 567.3897 567.5599 567.5599 569.1634 569.1928 569.1928

          k = 0.5000-0.5000 0.5000 (  2392 PWs)   bands (ev):

   -18.8835  -5.5647  -4.5236  -4.5236   7.3110   9.1457  11.9211  11.9211
    15.7207  17.5314  17.5314  18.4247  19.4529  19.4529  27.4467  28.1500
    28.3803  28.3803  28.5372  28.5372  34.6428  34.6428  34.6859  35.2186
    35.2186  35.3165  37.5303  39.7721  42.5782  42.5782  42.8332  44.6709
    44.6709  45.1753  50.9224  50.9241  50.9241  52.6392  52.6392  52.7852
    52.9702  54.6337  54.6337  58.4188  58.4599  58.4599  61.8036  61.8036
    61.9525  61.9525  62.6570  64.4735  68.8783  68.8783  69.8038  69.8080
    69.8080  71.6666  71.6666  72.2005  72.2005  72.8048  73.5993  74.2979
    75.1856  76.0958  76.9885  76.9885  77.0316  77.0316  79.5224  80.7936
    83.5157  83.5157  84.0781  84.0781  84.2730  84.2730  85.0990  85.0990
    86.8540  90.8533  93.7343  95.2275  95.2275  95.2746  95.4858  96.9680
    96.9680  97.2834  97.8702  97.8702 100.0658 101.3195 101.3195 102.5599
   102.5599 103.1692 103.1692 104.1156 104.2854 104.3652 105.1347 105.6808
   105.6808 105.6837 105.6837 106.7813 113.2039 113.2039 113.4395 114.1288
   114.2783 114.2783 114.8434 114.8434 115.6472 115.8153 115.8153 116.0797
   117.8146 117.8146 118.9951 118.9951 119.6070 119.6650 122.1477 122.1477
   122.2363 122.7229 122.7229 125.7476 128.1331 128.3721 128.3721 128.3811
   128.4087 128.4087 129.7774 130.1030 131.8206 131.8206 132.2117 132.2117
   134.9473 134.9473 134.9524 134.9524 136.3572 136.4976 138.5004 138.8114
   139.2650 139.2650 139.6363 139.6363 142.5441 142.5441 143.7721 143.9862
   143.9862 144.8649 145.3014 145.3014 145.8055 146.4557 146.4920 146.4920
   151.9151 151.9151 153.6178 153.6889 154.4155 154.4155 155.4556 155.8863
   155.8863 155.9505 157.1707 157.1707 157.3252 158.0264 158.0264 158.8951
   159.2794 159.2794 161.4626 163.2797 163.8723 163.8723 164.6639 164.6639
   166.4876 166.6921 167.0772 167.1934 167.1934 167.5997 167.5997 167.8070
   167.8930 167.8930 168.2105 168.2105 169.4302 169.5188 169.5188 169.6719
   169.6719 169.6965 172.4307 173.3047 173.3047 176.0457 176.1703 176.1703
   178.0635 178.3735 178.3735 178.4130 178.4130 178.4975 178.5544 178.5544
   178.6004 178.7725 178.7725 178.9925 185.7335 185.7335 186.1579 186.3593
   186.7348 186.7348 187.4311 188.0575 188.0575 188.3250 188.3265 188.3602
   188.7395 188.7395 191.8050 191.8050 192.2181 193.4284 194.2505 194.2505
   195.3065 195.3065 195.3235 195.4693 196.0649 196.0649 198.9216 199.7248
   199.7248 200.4119 200.4119 201.0351 201.1615 201.1781 201.1781 201.3345
   201.3345 201.8571 201.9156 201.9325 201.9325 201.9560 201.9560 204.5727
   212.8834 212.8834 213.7303 214.5272 214.5272 215.1782 215.1782 215.3608
   215.6067 215.6700 215.6700 215.9784 216.8444 216.8444 216.9918 218.1819
   218.2065 218.2065 218.4956 218.5564 219.6260 219.6260 219.6819 219.6819
   221.4161 222.5885 222.7914 222.7914 222.8369 222.8369 224.4022 225.3467
   227.2568 227.2568 227.2637 227.2637 227.8154 227.9227 227.9227 228.5429
   228.5429 228.8907 229.5274 229.5274 229.7786 229.7903 230.0384 230.1352
   230.2193 230.2193 230.2375 230.2375 230.6337 230.6337 230.6442 230.6442
   230.7301 230.7301 231.5579 231.5648 239.3233 239.4989 240.4254 240.6238
   240.6238 240.7614 240.9716 240.9716 242.1400 242.1400 242.1450 242.1450
   244.3764 244.9053 244.9053 246.1549 246.4030 246.4030 246.9391 246.9391
   247.4795 247.7755 247.7755 248.2974 248.6435 248.8854 248.8854 249.9703
   250.3101 250.3101 250.3212 250.4122 250.9810 250.9810 251.8300 251.8300
   252.0679 252.0858 252.0858 252.3508 253.2266 253.2266 261.4627 261.5240
   261.5240 261.5452 261.5452 261.7535 261.8402 261.8402 261.8616 261.9046
   262.1656 262.1656 262.8091 262.9695 262.9695 263.3638 263.3743 263.3743
   268.5399 268.5630 268.5630 269.5058 269.5058 269.7847 269.9045 271.1126
   271.1126 271.3948 271.4995 271.4995 272.3158 272.4115 272.4115 272.5864
   272.5909 272.5909 273.0651 275.9472 277.6099 277.6099 277.9824 277.9824
   279.2320 279.2320 279.5740 279.9646 281.2234 281.2234 281.5925 281.6330
   281.6706 281.6706 282.1706 282.1706 284.1391 284.2914 285.3737 285.3737
   285.3850 285.3850 286.3696 286.3696 286.4070 286.4248 287.3408 287.3408
   288.9454 288.9591 288.9591 289.4463 289.4463 289.9600 290.9934 291.0008
   291.0625 291.0625 291.1072 291.1072 295.0947 295.1055 295.1085 295.1085
   295.1931 295.1931 296.0673 296.0998 296.0998 296.1225 296.1252 296.1252
   299.3384 299.7736 299.7736 301.0554 301.0554 301.3493 301.3493 301.7386
   302.1269 302.1269 302.8302 302.8598 303.6044 304.4325 304.4325 304.7827
   304.7827 307.2534 310.0257 310.0515 310.3314 310.3314 310.8115 310.8115
   310.9424 310.9783 310.9783 311.0102 311.7912 311.7912 312.5997 313.0146
   313.6518 313.6518 313.7651 313.7651 314.0109 314.2958 319.9040 319.9040
   319.9187 319.9187 320.0019 320.3883 320.6216 320.6216 320.7153 320.8575
   321.4944 321.4944 322.4805 322.5097 322.5097 322.7992 322.7992 322.8527
   322.8527 322.8766 322.9004 322.9513 323.2084 323.2084 324.0026 324.0388
   324.0388 324.1537 324.2867 324.2867 325.4238 325.4391 325.4690 325.4690
   325.4888 325.4888 327.2028 327.2028 327.2135 327.2808 327.2808 327.3177
   331.3524 331.3524 331.3850 331.6275 331.6275 331.8902 333.5759 333.6311
   333.6988 333.6988 333.7831 333.7831 334.8253 334.8253 334.8534 334.9309
   334.9389 334.9389 335.5778 335.5835 335.6548 335.6548 335.6777 335.6777
   341.7818 341.8486 341.8486 341.8859 342.6676 342.6676 345.6846 345.6912
   345.6912 345.7047 345.7321 345.7321 346.4437 348.9928 349.4829 349.4829
   349.8846 349.8846 353.1548 353.1548 353.1575 353.1575 353.6248 353.6447
   354.1206 354.5683 354.7694 354.7694 354.9692 354.9692 355.1962 355.3500
   355.3500 355.4131 355.6123 355.6123 356.1180 356.1180 356.1293 356.1293
   356.8999 356.9044 361.9887 362.0064 362.0064 362.1257 364.1503 364.1503
   364.7211 365.0602 365.0602 365.2403 365.2403 365.2866 365.4652 365.4652
   365.6633 365.9080 365.9080 366.0522 367.3696 367.3711 367.5090 367.5090
   367.5162 367.5162 371.7703 371.7703 371.9695 372.1670 372.4225 372.4225
   373.3752 373.8357 377.4096 377.4096 377.4222 377.4222 377.4261 377.4261
   377.5121 377.5121 377.5291 377.6664 379.6873 379.8923 379.8923 380.4108
   380.4108 380.5474 381.7856 381.9723 381.9723 381.9730 382.2286 382.2286
   383.2199 383.3912 383.3912 384.1230 384.1230 384.1622 384.5435 385.0030
   385.0030 385.4136 385.4272 385.4272 386.2500 386.2500 386.2702 386.3827
   386.5631 386.5631 386.8721 386.8721 386.9718 386.9718 387.0361 387.2062
   389.2614 389.2885 389.3762 389.3762 389.3815 389.3815 390.1060 390.1144
   390.1374 390.1374 390.1458 390.1458 395.5678 395.6113 395.6113 395.8268
   395.9117 395.9117 396.3097 396.5270 396.5270 396.5669 396.5669 396.6157
   398.2453 398.2498 398.2498 398.2527 398.2527 398.2590 403.3340 403.3340
   403.3648 403.5292 403.5292 403.5730 403.6585 403.6585 403.6980 403.8307
   403.8686 403.9462 403.9462 403.9638 403.9638 404.1565 404.1565 404.5153
   407.4162 407.4347 407.4397 407.4397 407.4679 407.4679 410.3850 410.3850
   410.3931 410.4045 410.4045 410.4297 410.5357 410.6000 410.6233 410.6233
   410.6490 410.6490 413.3117 413.9641 415.4701 415.4701 415.4930 415.4930
   417.0688 417.0688 417.0902 417.1841 417.2982 417.2982 417.9428 417.9509
   417.9864 417.9864 417.9920 417.9920 418.0644 418.0644 418.1038 418.1625
   418.1625 418.2068 423.0777 423.1346 423.1346 423.2294 423.5319 423.5319
   425.8592 426.0692 427.6842 427.6842 427.9174 427.9174 428.2383 428.2488
   428.2488 428.2672 428.2844 428.2844 428.6577 429.2826 430.1247 430.1247
   430.1348 430.1348 436.7392 436.7392 436.7859 436.8844 436.9621 436.9621
   437.5233 437.5233 437.5248 437.5742 437.6147 437.6147 438.1290 438.2548
   438.2548 438.2733 438.3021 438.3021 438.3799 438.3799 438.3805 438.3805
   438.6603 438.7343 440.2667 440.2667 440.2713 440.2724 440.2724 440.2848
   444.9979 444.9979 445.0561 445.0719 445.0719 445.1331 447.9919 447.9986
   448.0986 448.0986 448.1202 448.1202 448.3568 448.3594 448.3679 448.3679
   448.4382 448.4382 450.8279 450.8317 450.8317 450.8398 450.8398 450.8472
   452.5615 452.5615 452.5682 452.5682 452.5879 452.6321 456.4032 456.4119
   456.4734 456.4734 456.5322 456.6081 456.6081 456.7275 456.7803 456.7803
   456.8095 456.8095 456.9732 456.9751 456.9751 457.0052 457.0257 457.0257
   460.1665 460.1665 460.1788 460.1788 460.2789 460.2817 465.1739 465.2046
   465.2046 465.3216 465.3216 465.3430 468.4714 468.5208 470.0475 470.0530
   470.0930 470.0930 470.1118 470.1118 470.6545 470.6545 470.6720 470.6758
   470.6767 470.6767 471.2126 471.2126 471.2150 471.2150 472.1181 472.1199
   475.1963 475.2691 475.2691 475.3180 475.3769 475.3769 476.7042 476.7042
   476.7191 476.7191 477.4319 477.4697 477.7441 477.7514 478.4825 478.4825
   478.4879 478.4879 479.4695 479.4923 479.7222 479.7222 479.7419 479.7419
   480.5224 480.5224 480.5410 480.5410 481.0213 481.0476 481.1250 481.1410
   481.3256 481.3256 481.3376 481.3376 481.7463 481.7554 481.8014 481.8014
   481.8033 481.8033 482.0967 482.0967 482.1071 482.1180 482.1180 482.1442
   491.5513 491.5597 491.5597 491.5696 491.5696 491.5931 491.8791 491.8814
   491.9607 491.9607 491.9718 491.9718 492.0805 492.0805 492.0905 492.0905
   492.1037 492.1226 493.5360 493.9710 493.9710 494.3528 494.3528 494.7831
   497.6827 498.2452 498.2452 498.8795 498.9161 498.9161 498.9304 498.9304
   498.9336 499.4035 499.4035 499.8755 501.4469 501.6001 501.6100 501.6141
   501.6141 501.6267 501.6267 501.6531 501.6531 501.7646 501.8655 501.8655
   501.8754 501.9456 504.3677 504.3677 504.4009 504.4009 504.6913 504.7172
   504.7172 504.7178 504.7260 504.7260 509.4995 509.4995 509.5030 509.5030
   510.7380 510.7389 511.8307 511.8598 511.8598 511.9306 511.9306 511.9675
   511.9706 512.0122 512.0122 512.0672 512.0767 512.0767 513.7163 513.7232
   514.0023 514.0508 514.0508 514.1712 514.1712 514.1891 514.7037 514.7037
   514.7083 514.7083 515.7245 515.7245 515.7270 515.7270 515.8818 515.8822
   520.2264 520.2490 520.2490 520.2664 520.2664 520.2840 522.1024 522.1178
   522.1178 522.1348 522.1348 522.1445 530.5199 530.6041 530.6041 530.6157
   530.6157 530.6415 530.6467 530.6564 530.6564 530.9448 530.9448 531.1273
   531.2638 531.2675 531.2975 531.2975 531.3008 531.3008 531.8637 531.8831
   531.9105 531.9105 531.9206 531.9206 532.0401 532.1724 532.1724 532.3134
   532.3134 532.3494 533.4198 533.4241 533.4398 533.4398 533.4441 533.4441
   539.2794 539.3422 539.3422 539.5001 539.5001 539.5486 539.8126 539.8439
   539.8439 539.8510 539.8537 539.8794 539.9174 539.9174 540.0102 540.1122
   540.1122 540.2416 540.2416 540.2676 540.9145 540.9145 540.9199 540.9866
   540.9866 541.0660 542.2625 542.2625 542.2748 542.2748 542.3034 542.3269
   544.4246 544.4246 544.4264 544.4264 544.8099 544.8103 544.9071 544.9071
   544.9072 544.9072 546.5332 546.5332 546.5355 546.5430 546.5488 546.5488
   546.5642 546.5901 546.5901 546.6240 546.6240 546.6241 552.8530 552.8656
   552.8739 552.8739 552.8755 552.8755 555.3554 555.3599 555.3616 555.3616
   555.3637 555.3637 561.3368 561.3507 561.3507 561.3542 561.3542 561.4013
   561.4254 561.4691 561.4691 561.4724 561.4724 561.4793 564.2604 564.2660
   564.2967 564.2967 564.3005 564.3005 564.4046 564.4046 564.4094 564.4094
   564.4147 564.4255 569.8427 569.8481 569.8481 569.8537 569.8540 569.8540

          k = 0.0000 0.2500 0.0000 (  2409 PWs)   bands (ev):

   -19.0236  -4.5879  -4.4515  -4.4515   4.7748  11.4622  12.6511  12.6511
    13.6596  15.5334  17.7997  18.9387  19.4185  19.4185  23.5251  26.3719
    26.3719  26.4733  31.3996  31.9538  32.3503  32.3503  35.2705  38.5670
    39.3660  39.3660  40.2166  41.8972  44.8079  44.8079  46.4676  46.5421
    47.6163  47.6163  49.1098  51.0098  51.7667  51.7667  53.3138  53.3319
    53.3319  53.5016  54.6075  55.7543  56.2022  57.0113  57.0113  57.4492
    57.5434  58.0798  58.0798  59.4225  61.2281  61.2281  63.6331  66.3640
    66.7930  66.7930  67.5260  67.6748  74.3234  74.6646  74.6646  77.9540
    78.3568  78.3568  79.4522  81.3534  81.4411  85.3643  85.3941  85.3941
    88.4969  89.3819  89.3819  89.4333  90.3766  90.3766  90.4419  92.1272
    92.1272  92.1442  92.4369  93.3504  96.0673  96.2140  96.2528  96.3831
    96.3831  97.6950  97.6950  97.8383  99.9470 100.4952 100.4952 100.5790
   100.9927 103.3309 103.4898 103.4898 103.6000 103.9115 105.1411 105.1411
   106.1385 106.3345 107.4908 107.4908 107.9074 108.9616 108.9616 109.0060
   110.5497 111.1747 112.3693 112.3693 113.7180 114.5402 114.7711 114.7711
   114.9911 115.4720 116.6359 116.6359 117.1033 119.3530 122.4750 123.4786
   123.4786 124.1881 125.1878 125.1878 126.0006 126.3182 126.3182 127.2995
   128.3747 129.0285 129.7460 129.7877 129.7877 129.9990 130.2719 130.2719
   130.7340 131.7159 131.7159 131.7569 133.2527 136.5322 136.5675 136.6554
   136.6554 138.7895 138.8713 138.8713 139.1477 142.8145 142.8293 142.8547
   142.8547 143.1383 144.7282 144.7282 145.3679 145.6389 146.3393 146.3393
   146.3710 148.5118 150.8991 150.8991 153.5025 154.4269 155.7631 157.1378
   157.1378 159.9173 160.9793 160.9793 162.3986 163.8959 164.8476 164.8935
   164.8935 165.2715 166.1722 166.2800 166.2800 167.7356 167.9319 168.0239
   168.0239 168.9585 170.0938 170.7220 170.7220 171.4513 173.0833 173.7652
   174.0790 174.1502 174.1502 174.6941 174.9469 174.9469 175.3440 175.4605
   175.4605 176.1618 176.5746 176.8469 177.0160 177.0160 177.1239 177.1482
   178.2173 178.2173 180.3483 181.0499 181.0499 182.0353 182.1761 182.2986
   182.3183 182.3183 182.5370 183.5640 183.5640 183.7176 184.1392 184.2375
   184.2375 184.6445 185.0633 185.2241 185.9106 185.9106 187.4768 187.9100
   188.3085 188.3085 188.9420 188.9420 190.0940 190.8283 191.0581 191.0799
   191.0799 191.4157 191.8954 193.2496 193.2496 194.0700 195.6704 196.6818
   196.6818 197.4336 197.4341 197.8968 197.8968 197.9324 197.9572 198.1808
   198.8396 199.2043 199.2043 202.6156 203.3052 203.3052 203.9347 203.9654
   204.2115 204.3236 204.3236 204.5150 204.9945 205.4575 205.4575 209.2631
   209.5404 209.5404 209.7866 210.0270 210.4174 210.7667 210.7667 212.2632
   212.5280 212.5329 212.5803 212.5803 212.7618 212.7618 213.0161 217.3912
   219.8728 219.8728 221.3968 221.4586 221.6292 221.6292 221.8742 222.0004
   222.0797 222.0797 222.3088 222.6855 223.2562 224.1120 224.1120 226.1076
   226.6046 226.6046 226.6118 231.4048 231.4884 231.4884 231.6281 233.1624
   233.2835 233.3403 233.3403 233.6753 233.6862 233.6862 233.7178 235.2437
   235.6612 235.7369 235.7369 235.8468 236.2327 237.4530 237.4530 239.3924
   242.5714 242.5714 242.7039 243.1537 244.8687 244.8687 246.8967 247.6897
   248.3582 250.5977 250.6165 250.6165 250.7168 250.8639 250.8639 251.0727
   252.1935 252.6571 252.6571 253.7695 253.8616 254.2893 254.2893 256.8505
   257.1705 257.1842 257.1842 258.3808 258.5112 258.5112 258.7208 260.6956
   261.0036 261.5018 261.5018 261.9577 262.5196 262.5196 262.9422 263.7055
   263.7965 263.7965 263.9260 264.4617 264.6834 264.6834 264.9921 266.7978
   267.1016 267.1016 267.4675 268.0756 268.1902 268.3638 268.3638 268.5933
   268.9012 268.9012 269.4004 270.6336 270.7299 270.8546 270.8546 272.1501
   272.4312 272.9053 272.9053 273.2651 275.0867 275.6413 276.1069 276.1069
   276.3165 276.6209 276.8253 276.8253 277.0215 277.0215 277.0947 277.1580
   278.8666 278.8666 279.4368 279.5490 281.2160 281.3496 281.3496 281.3655
   281.6340 281.6340 282.2370 283.5209 283.5209 284.0413 284.0467 284.0910
   284.0910 284.6321 284.9209 284.9209 284.9253 285.0014 285.3931 288.3399
   288.4631 289.1959 289.2259 289.2259 289.6809 289.7073 289.7073 290.4742
   290.6221 290.7390 290.7390 292.0915 292.5646 292.7230 292.7230 293.0431
   293.0964 293.1265 293.1265 293.3181 293.3206 293.9358 293.9358 296.8645
   297.0439 297.0439 297.3627 297.4974 297.6563 297.6976 297.7834 297.7834
   298.0554 298.0554 298.3769 298.6618 298.7949 298.7949 298.8417 300.5687
   300.6916 300.7979 300.7979 301.1412 301.1412 301.1821 301.2237 301.4657
   301.7824 301.8013 301.8013 304.6472 305.0767 305.0767 305.3523 306.9804
   307.5125 307.6447 307.7876 307.7876 308.2383 308.3227 308.3227 308.3350
   310.4607 310.5258 310.5481 310.5481 312.0213 312.0330 312.2211 312.2211
   315.1628 315.2312 315.2312 315.2989 317.2754 317.4723 317.4927 317.4927
   318.0425 319.1449 319.1693 319.1811 319.1811 319.4485 319.4485 321.6453
   323.8961 323.8961 324.3167 324.5974 324.7159 325.7252 325.7252 326.2121
   326.9710 327.0368 327.9700 327.9977 327.9977 330.2245 330.2245 331.9864
   332.2773 332.5399 333.0581 333.0581 334.3639 334.8345 334.8345 334.9931
   336.9650 337.0270 337.0270 337.0606 342.2219 342.4020 342.4020 342.5755
   343.5086 343.6790 343.6790 343.7894 344.7286 344.8311 345.2170 345.2170
   347.0345 347.0345 347.1685 347.6568 347.9776 348.2341 348.6492 349.1179
   349.1179 349.3117 349.4302 350.1516 350.1516 351.4417 351.6304 351.6445
   351.6445 351.6888 351.6888 351.9858 352.0030 352.4307 352.5084 352.5084
   352.5736 356.4055 356.5594 356.5594 356.7044 358.9390 358.9390 359.1278
   359.5683 361.7381 361.9140 362.0648 362.0648 362.9176 363.0799 363.8054
   363.8054 363.8252 363.8683 363.9619 363.9619 366.0121 366.1422 366.1422
   366.3888 366.4273 366.7122 366.7122 366.7465 367.1971 367.4074 367.4074
   367.4626 368.1554 368.6683 369.1558 369.1558 369.2086 369.2086 369.4278
   369.6485 370.0609 370.7256 370.7917 370.7999 370.7999 371.7641 371.7641
   373.9186 374.1351 374.2586 374.2586 374.3985 375.5256 375.8850 375.8850
   376.1752 376.3988 377.0027 377.0894 377.0894 377.5776 377.7507 377.7507
   377.7755 378.8186 379.1970 379.1970 379.7485 379.7891 379.8106 379.8106
   379.9985 380.5868 380.6512 380.6512 380.7135 381.4323 381.4481 381.7190
   381.7190 384.0528 384.0610 384.0773 384.0773 386.9811 387.0231 387.1320
   387.1320 390.2049 391.3985 391.4020 391.4240 391.4240 391.8524 391.8524
   391.9483 391.9483 391.9547 391.9624 392.6500 392.7296 392.9504 392.9504
   393.6330 397.2820 397.2833 397.3515 397.3515 397.7515 398.3424 398.9254
   398.9254 399.4803 400.3302 400.3873 400.3873 400.7140 400.9956 401.5644
   401.5644 401.6854 401.8818 402.0342 402.2003 402.2003 402.2728 402.2728
   402.3005 402.3977 404.0199 404.2711 404.2711 405.5498 406.9506 406.9874
   406.9874 407.0150 407.2654 407.2654 410.1209 410.1426 410.1478 410.1478
   410.4534 411.0813 411.1039 411.1039 411.1225 411.1609 411.2429 411.4874
   411.7521 411.7521 411.8575 411.9373 411.9373 412.0739 412.0739 412.0742
   412.0984 413.5721 413.6565 413.6565 413.7510 414.4809 414.5071 414.5071
   414.5384 415.9871 415.9871 415.9960 416.1799 416.8491 417.0812 417.0812
   417.1282 418.9141 419.0130 419.1707 419.1707 419.4650 419.4674 419.5995
   419.5995 421.9140 421.9160 421.9160 421.9370 423.3876 423.4081 423.4081
   423.4159 425.5777 425.6281 425.6281 425.6525 425.6803 425.6889 425.6889
   425.7046 428.8935 428.9087 428.9206 428.9206 430.6178 430.6183 430.8023
   430.8023 430.9994 431.1741 431.1741 431.1819 431.2027 431.3098 431.3502
   431.3502 431.3676 431.4788 431.4788 431.8943 432.1276 433.3049 433.3049
   433.4320 433.9959 433.9959 434.1893 434.5251 435.4624 435.6790 435.6790
   435.8146 438.1860 438.2556 438.2556 438.2609 439.3177 439.5739 439.5739
   439.7578 440.4570 440.4998 440.4998 440.5192 441.6471 441.6581 441.6581
   441.6635 441.8722 442.0268 442.0635 442.0635 442.0747 442.6348 442.6348
   442.6364 442.6413 443.2663 443.5612 443.7600 443.7600 443.9370 443.9370
   444.5599 446.0436 446.0448 446.0677 446.0677 446.6477 447.3342 447.4344
   447.4344 447.6275 447.7905 447.9457 447.9457 448.0538 448.5574 448.6185
   448.6185 448.6576 449.8351 451.0576 451.0576 451.6184 453.3750 453.3750
   456.0709 456.2724 456.6495 456.6495 457.6760 457.8321 458.0020 458.0020
   458.1054 459.2229 459.2674 459.3665 459.3665 465.1575 465.2006 465.2006
   465.2061 465.3258 465.3268 465.3641 465.3641 467.0245 467.1043 467.1420
   467.1420 467.8626 467.8944 467.8944 467.9086 471.0090 471.0107 471.0107
   471.0199 472.9547 472.9746 472.9746 472.9817 473.3519 473.5356 473.5356
   473.7910 473.7999 473.8323 473.8323 473.8926 475.0528 475.0620 475.0620
   475.0674 477.1009 477.1158 477.1158 477.1231 479.6834 480.2476 480.2476
   480.6740 482.2268 482.2443 482.2443 482.2613 483.5941 483.9088 483.9088
   484.2732 484.8672 485.2122 485.2122 485.4201 487.5630 488.6633 489.9668
   489.9668 490.2908 490.7991 490.7991 491.3341 493.6039 493.9675 494.1466
   494.1466 494.3527 496.4982 496.7585 496.7585 496.8061 496.9826 497.8602
   497.8747 498.0218 498.0218 498.0851 498.0851 498.6654 498.7181 498.8097
   498.8097 498.8929 500.2015 500.2068 500.2152 500.2152 502.0057 502.0057
   502.0115 502.0144 503.6658 503.7175 503.7175 503.7563 504.9306 505.0036
   505.0036 505.0588 505.3471 505.4196 505.4196 505.4518 505.5912 505.5912
   505.5949 505.6521 505.6738 505.7311 505.7311 505.7334 508.9642 512.2284
   512.2284 514.2637 514.7027 514.7027 514.8488 514.8884 514.8998 514.8998
   514.9101 514.9204 515.0200 515.0200 515.0394 515.5718 516.0003 516.1312
   516.1312 516.3431 516.6780 516.8056 516.8056 516.8464 516.9087 517.8537
   517.8537 517.8654 517.9139 517.9139 517.9516 518.5299 521.2360 521.2942
   521.2942 521.3523 521.5570 521.5945 521.5945 521.6275 521.8859 521.8943
   521.8979 521.8979 522.2035 522.2208 522.2208 522.2343 523.1139 523.1207
   523.1207 523.1233 524.3387 524.4079 524.4079 524.4415 527.8740 527.9368
   527.9368 528.0111 528.9164 529.1272 529.1272 529.5076 530.8631 530.8869
   530.9087 530.9087 532.1747 532.2398 532.2781 532.2781 532.2979 532.2979
   532.3121 532.4982 533.1642 533.4102 533.4102 533.5964 533.8883 534.1430
   534.1430 534.5495 534.5991 534.5991 534.6380 534.6801 534.7329 534.9040
   535.2142 535.2142 535.2463 535.2463 535.3393 535.6204 536.3563 536.8449
   536.8449 537.1072 537.1920 537.1920 537.1925 537.1948 537.6607 537.6755
   537.6755 537.6879 538.1764 538.1942 538.1942 538.2128 538.3940 538.4354
   538.4354 538.4725 539.6729 539.6798 539.6798 539.6852 540.6090 540.7964
   540.7964 540.9409 541.1646 541.2179 541.2208 541.2208 541.9312 544.2875
   544.3038 544.3111 544.3111 544.3530 544.3697 544.3697 544.3862 544.5931
   544.5931 544.6162 544.6182 544.9911 545.0092 545.0092 545.0264 548.5008
   548.5059 548.5170 548.5170 551.3700 551.3700 551.3722 551.4053 551.5172
   551.5485 551.5509 551.5509 552.5431 552.5510 552.5510 552.5643 553.3025
   553.3322 553.3322 553.3635 555.5058 555.5103 555.5103 555.5172 555.8445
   555.8463 555.8463 555.8470 558.5189 558.6763 558.6763 558.7863 559.1383
   559.1383 559.1447 559.1762 559.2452 559.2667 559.2762 559.2762 559.5716
   559.7016 559.7016 559.8103 561.5037 563.3994 563.4028 563.4197 563.4197

          k =-0.1250 0.3750-0.1250 (  2423 PWs)   bands (ev):

   -18.9751  -4.9070  -4.5113  -4.4959   5.5684  10.5878  12.1472  12.8086
    13.5926  15.6859  17.7341  19.9083  20.7675  21.6444  22.9084  24.4299
    25.8828  26.8079  29.8774  30.9259  32.7844  33.5205  35.9367  37.4499
    39.7215  40.6613  40.7497  41.4639  42.6665  43.3108  45.2094  45.6168
    45.9768  48.0439  48.0642  49.5188  49.6028  50.6241  52.3906  52.9414
    53.1118  54.0527  54.5111  56.1314  56.2075  57.2946  57.9835  59.7909
    59.8014  60.7527  62.1022  62.6797  63.6697  64.1035  65.6921  66.8873
    68.4363  69.1480  70.2055  70.3774  70.9608  73.0726  73.4957  74.7601
    76.1094  77.2527  78.8629  81.8983  82.2029  82.5367  83.2465  84.6522
    85.0194  85.3895  86.4624  88.5045  88.9170  89.3393  89.5725  89.9700
    90.3246  91.0134  91.6132  92.4870  93.8745  94.3662  95.3215  96.8590
    97.5309  97.6554  98.1886  99.1253  99.2942 100.2080 100.4495 102.3467
   103.1168 104.2149 104.3337 104.6592 105.2401 105.3327 105.5914 106.0676
   106.6194 106.7821 107.0250 107.3591 108.7104 108.9917 110.9186 111.7098
   111.9012 112.8489 113.0971 113.6784 113.9554 115.5892 115.6062 115.9277
   116.4840 116.5953 118.6003 118.9911 119.2327 119.7464 120.2301 120.4026
   120.5979 121.4685 122.3460 123.4301 123.6125 123.7372 125.1195 125.6465
   126.9801 127.2447 129.6752 129.8063 131.0114 131.0808 131.7809 133.5110
   133.6051 133.9206 134.1108 135.1523 135.5385 136.1742 137.0080 137.5632
   138.0305 138.1203 138.6080 138.7215 141.7642 142.5758 142.6674 142.9633
   144.9353 145.6372 146.3431 147.1072 147.8002 149.0627 150.1662 150.2091
   151.0233 151.4522 151.6721 153.3373 153.7527 154.7461 155.5353 156.4654
   156.8692 157.3193 157.6216 158.0548 158.3654 158.8100 161.0845 161.6158
   162.0050 162.0680 162.3005 162.7287 162.9984 163.7238 164.2464 164.9364
   165.2939 165.5738 166.3685 167.3534 167.8225 168.5081 168.7887 168.8069
   169.1609 170.9876 170.9927 171.4481 172.4193 172.6946 173.2272 174.3347
   174.5715 175.3685 175.9222 176.2399 176.4552 176.5161 177.0996 178.4030
   178.7997 179.0029 179.4704 180.1566 180.3087 180.8349 180.8427 181.6025
   182.3354 182.7439 183.5663 183.5921 184.3530 185.0034 185.3400 185.6833
   185.8146 186.1529 187.5744 188.0003 188.9307 189.5109 189.8281 190.5394
   190.8643 190.8951 191.6281 192.6806 192.9884 193.7939 194.2059 194.3971
   194.6085 194.6405 195.1450 195.2677 196.4512 196.6635 196.7062 197.3346
   197.7302 198.3870 198.6880 198.9196 199.0288 199.3928 199.6844 199.9046
   199.9894 200.7920 200.8034 203.0585 203.5449 204.1392 204.2463 204.5258
   204.5900 204.7868 204.8785 205.5677 205.7724 206.0684 206.2623 206.3912
   206.6303 207.1436 209.1317 209.4287 209.4811 209.9728 210.1108 211.0320
   211.6215 211.6812 211.7198 214.6494 214.6529 214.8708 215.0152 217.1239
   217.9411 219.6720 219.9335 220.6066 221.1068 221.4831 222.9213 223.2063
   224.1175 224.5386 224.6833 225.7733 226.1441 226.1652 226.6542 226.9341
   227.0056 229.8154 229.9803 230.2293 231.1817 231.3216 231.4868 231.9784
   232.2011 232.6019 233.8019 234.0015 234.9523 234.9775 235.9413 237.4858
   237.6304 238.3919 238.6163 239.0204 239.1139 239.6727 240.3605 240.4268
   240.8365 240.8821 241.4175 241.5305 242.2406 243.1366 243.4945 245.4948
   245.9131 246.3796 246.5013 247.7169 247.8745 247.9665 250.2406 250.7292
   250.9624 251.0359 251.1334 251.3120 252.3052 252.3877 252.3993 252.4912
   253.0603 253.8145 254.4307 255.5362 255.7356 256.4554 257.8896 258.2960
   259.1393 259.5880 259.7660 259.7962 260.7288 260.9213 261.0220 261.7016
   262.0965 262.2756 262.4531 262.7743 262.9843 263.1899 264.1610 264.8278
   264.9334 265.9503 266.2156 266.6234 267.3139 267.4654 267.8038 267.9304
   269.1186 269.2998 269.7134 270.0248 270.5962 271.9342 272.4101 272.5909
   272.9124 273.0048 273.5919 273.7456 274.3371 275.6762 275.9485 276.3873
   276.5347 276.7886 276.8635 276.9372 277.3066 277.4454 277.6586 277.8107
   277.9981 278.2282 278.5185 278.8920 279.0166 279.5751 279.8225 280.1598
   280.5974 280.5989 280.9291 281.1642 281.4585 282.4106 282.6119 282.9316
   283.1014 283.1400 283.7335 283.7360 284.3643 284.8392 285.4648 286.7811
   286.7867 286.8656 287.2963 287.8654 287.9206 288.9664 289.0243 289.8631
   290.4234 290.4890 290.5855 291.0792 291.3801 291.5291 292.8279 292.8354
   293.2094 293.2551 294.4352 294.4823 294.9726 295.3217 295.3858 295.4297
   295.5722 296.8442 296.8869 297.0751 297.4879 297.5418 297.6380 298.2040
   298.2757 298.4752 298.5160 298.9645 299.1042 301.1923 304.0122 304.2416
   304.2445 304.8285 304.8729 305.2430 305.3894 305.7253 305.7764 305.9381
   305.9920 307.0181 307.2108 307.4294 308.2161 308.4108 308.9747 308.9938
   311.0154 311.0571 312.8479 313.5008 313.6137 314.0214 314.0882 314.3970
   314.5232 314.7314 314.9839 315.1281 315.3333 315.9691 316.3447 316.6389
   316.7116 317.3315 317.3598 317.5450 317.7393 318.8210 319.1883 319.8204
   320.4638 321.1580 322.3134 322.4500 322.6494 322.6802 323.7189 323.8043
   323.8783 324.1027 325.1355 325.4112 325.5171 325.6472 326.2235 326.4141
   328.1524 328.1674 328.8746 328.9555 329.1671 329.2388 329.4625 330.7591
   331.3259 331.6830 332.4074 332.9982 333.1910 333.4998 334.0571 334.0868
   334.4604 334.9995 335.9933 336.0469 336.6607 336.6728 337.2649 337.5813
   338.2855 338.3749 338.7580 338.8469 340.1563 341.4286 341.6435 342.0856
   342.3214 342.6632 342.8644 342.8667 343.2641 343.4157 343.7186 346.5525
[...]
   303.9246 303.9386 303.9440 304.1928 304.2174 304.2288 304.8721 304.9223
   305.0603 305.1846 305.3605 305.8980 305.9353 306.6892 307.9503 307.9883
   309.3682 312.6569 312.9277 313.3221 313.3239 314.8075 315.9545 316.2411
   316.6459 317.6124 317.8638 317.8986 317.9728 317.9853 318.5360 318.5872
   318.6801 318.7921 320.6752 321.0213 321.1506 321.5616 322.4085 322.5274
   322.5466 322.6197 323.3961 323.5396 324.0547 324.6719 326.3695 326.3934
   326.9615 327.0506 327.1245 327.2368 327.3264 327.4420 327.5625 327.9834
   328.9111 329.4069 329.4204 329.4359 329.6240 329.7448 329.7818 330.3290
   330.3355 331.1012 331.2277 331.3766 332.4956 332.4961 333.6858 333.7206
   334.3272 334.4282 334.6693 334.7524 335.7893 335.8175 336.1368 336.3183
   336.8931 337.1553 338.1679 338.4345 338.5447 338.5819 338.6217 339.0543
   339.3247 339.5016 340.1533 340.1555 340.1797 340.2494 340.2704 340.2718
   341.0414 341.2016 342.1082 342.2095 342.5172 343.1787 346.0723 346.0883
   346.1100 346.1192 346.4857 346.4941 346.5368 346.6835 346.7288 347.2958
   348.4148 348.4796 349.2211 349.2352 349.3301 349.3693 349.4383 349.5596
   349.6892 349.8511 350.6668 350.6872 350.7821 350.8372 350.8780 353.7683
   353.8814 353.9260 353.9925 354.0095 354.0908 355.0627 355.4285 356.1555
   356.1582 356.1787 356.1839 356.9841 358.0628 358.1727 358.2645 358.5564
   358.9540 359.0185 359.2751 359.7977 361.2382 361.8886 362.0273 362.4255
   362.4446 362.7905 363.7511 363.8224 364.3451 364.3558 365.5702 365.5798
   365.6248 365.6320 365.9965 366.0012 370.3782 370.4091 370.5041 370.5136
   370.5352 370.7144 370.8348 371.1707 371.6514 372.0435 372.2251 372.5549
   373.8191 373.8217 376.0157 376.0302 376.0366 376.0483 376.6262 376.6389
   376.7208 376.7796 376.7901 376.8996 377.2486 377.6046 377.8111 378.0835
   378.4942 378.8665 379.1242 379.1320 379.1918 379.4436 379.9010 380.2077
   381.4540 381.5822 381.6272 381.7272 383.7986 383.8610 384.5198 384.5394
   385.2556 385.3892 386.3454 386.3523 387.8456 387.9445 387.9685 388.0195
   388.2270 388.2985 388.3417 388.4536 388.4845 388.6578 389.2900 389.3837
   390.0544 390.0547 393.4171 393.4491 393.4492 393.5209 393.6249 393.7466
   393.7557 394.2789 394.4080 395.7517 395.9000 395.9954 396.4785 397.0468
   397.6719 398.4872 398.7021 399.9644 400.0095 401.3788 401.3918 402.2253
   402.2277 403.5482 403.6151 403.7743 403.9632 403.9693 404.2869 404.3221
   404.3398 404.3432 405.3096 405.7053 405.7288 405.7650 405.8046 406.0271
   408.0060 408.1081 408.1161 408.1684 411.4686 411.6849 411.7295 411.7362
   414.0718 414.0896 414.2055 414.2450 414.7488 414.8102 415.0284 415.3780
   415.5022 415.5054 417.5099 417.5154 417.5276 417.7537 417.9689 418.0070
   418.2615 418.5131 418.6582 418.7661 418.9310 419.3528 421.0419 421.3122
   421.6546 421.7562 424.2100 424.5599 424.8150 424.8198 425.1205 425.3443
   426.1102 426.1615 427.8089 427.8140 427.9945 428.1237 428.1539 428.2423
   428.3567 428.5761 428.9283 428.9499 431.6557 431.7290 431.8017 431.8051
   432.7326 432.7332 433.1708 433.3096 434.2009 434.2016 434.3472 434.3494
   435.6376 435.6501 435.6620 435.6798 436.4018 436.5251 436.7947 437.0963
   437.1775 437.2919 439.2572 439.3042 439.3973 439.3987 440.1555 440.4092
   440.4693 440.4994 440.5480 440.5753 442.2828 442.4147 442.5711 442.6691
   442.7315 443.0706 443.0827 443.8146 443.8761 443.9028 443.9348 444.1389
   444.1606 444.3277 444.3402 445.8817 445.8953 446.0541 446.0958 446.2557
   446.2742 447.6215 447.6360 447.6421 447.6740 448.9279 448.9528 449.2097
   449.2187 449.3058 449.3486 449.4088 449.4349 450.4579 451.7665 451.8006
   453.9068 453.9204 454.0194 454.1150 455.3951 455.3974 455.5933 455.6079
   456.0735 456.0788 456.4005 456.4074 456.9980 456.9986 457.3861 457.4236
   457.6346 457.6353 457.9037 457.9315 458.7226 458.7988 459.2989 459.3082
   460.8580 460.8584 460.8675 460.9044 461.4892 461.5575 461.8197 461.8400
   461.9392 461.9626 463.4652 463.7588 464.1817 464.3059 464.6136 464.6136
   465.3048 465.6519 465.6541 465.6643 465.6703 465.6847 466.0117 466.0429
   466.7039 466.7129 467.7073 467.7741 468.4511 468.4679 469.9069 469.9165
   469.9364 469.9412 471.1660 471.5665 471.6865 471.6991 471.7006 471.7179
   472.5783 472.5878 473.6495 473.6609 473.6759 473.6954 473.7133 473.7296
   475.2921 475.2962 477.1186 477.2463 477.3240 477.5219 478.5675 478.6016
   479.7193 479.7206 480.3251 480.3574 480.3727 480.3769 480.4772 480.5420
   480.5625 480.5940 480.9807 481.2309 481.4941 481.4949 481.5303 481.5370
   481.8790 481.9286 483.3215 483.3237 485.1805 485.1942 485.1976 485.2217
   486.5996 486.6068 486.6805 486.6885 486.7748 486.7961 486.9303 486.9379
   487.4395 487.4472 489.1781 489.2270 489.3187 489.3574 491.5657 491.7396
   491.7635 493.6677 493.6705 494.7108 494.7282 495.3672 495.3678 495.9973
   496.0049 496.0084 496.0128 498.4647 498.4900 498.5283 498.5388 499.1635
   499.2097 499.5046 499.5387 499.7564 499.7735 500.0507 501.8964 501.9128
   502.0557 502.0558 502.4679 502.4750 503.2827 503.2998 503.6378 503.6418
   503.6949 503.6987 507.3124 507.3154 507.5530 507.5630 508.2174 508.2223
   508.2227 508.2274 508.8313 508.8316 510.2272 510.5089 510.7061 510.7301
   510.9903 511.1386 511.8583 511.8607 511.9301 511.9303 512.6614 512.6712
   512.7068 512.7114 512.9762 512.9763 513.6128 513.6210 513.6566 513.6585
   513.9008 513.9026 513.9851 513.9904 513.9931 514.0031 514.3411 514.6094
   516.1611 516.1784 517.4524 517.4646 518.0850 518.1371 518.2186 518.2779
   518.6062 518.6226 518.9518 519.2168 519.2590 519.2975 519.8127 519.9456
   520.1065 520.1097 520.1105 520.1256 520.4223 520.4350 521.4994 521.6819
   525.9080 525.9403 526.1389 526.1392 527.9658 528.1027 528.1029 528.1143
   528.4664 528.5274 528.6758 528.7465 528.8756 528.8776 529.6714 529.6718
   530.5462 530.5506 530.9243 530.9247 530.9451 530.9520 534.1243 534.1305
   534.1345 534.1425 534.4283 534.4351 534.4358 534.4408 534.6693 534.6695
   535.1316 535.1317 535.5834 535.5837 535.7053 535.7059 537.9605 537.9611
   538.5375 538.5553 539.0060 539.0078 539.8396 539.8626 539.9604 539.9643
   540.0378 540.0468 540.9989 541.0068 541.1417 541.1455 541.5630 541.5644
   543.1602 543.1604 543.5326 543.5327 543.6589 545.4139 545.4141 545.7882
   545.7894 547.9106 547.9261 547.9382 547.9384 549.4563 549.4604 549.7629
   549.7720 550.0041 550.0069 550.0404 550.0440 550.8409 550.8411 551.2934
   551.2936 551.5928 551.5995 551.8795 551.9030 552.2910 552.9228 552.9234
   554.6743 554.6777 557.9799 557.9827 557.9945 558.0178 558.6270 558.6304
   558.7799 558.7800 559.1857 559.1858 559.8258 559.8268 559.8545 559.8549
   560.0198 560.3153 560.5149 560.6914 562.1173 562.1542 562.3174 562.3589
   562.4513 562.4517 564.1099 564.1117 564.6445 564.6554 564.6576 564.6715
   566.1197 566.1215 566.6989 566.9049 567.0770 567.0775 570.9956 570.9966

          k =-0.5000-1.0000 0.0000 (  2400 PWs)   bands (ev):

   -18.8274  -5.1324  -5.1324  -4.8158   8.2713   9.8073   9.8073  11.9958
    16.7575  16.7575  18.1189  18.3603  21.3713  23.5486  24.9487  24.9487
    27.7346  27.9370  27.9370  28.8609  34.1214  34.8385  34.8385  34.9346
    35.5040  35.7146  37.7208  37.7208  41.1968  42.2579  42.2579  44.4284
    45.9145  45.9145  46.8413  50.8566  50.8719  54.2578  54.2578  54.3031
    55.8854  56.2270  57.2398  57.2398  58.4714  59.0206  59.0206  60.6370
    62.9545  64.7723  65.5761  65.6712  65.6712  67.6843  67.9070  67.9070
    69.6105  69.6105  71.4693  72.7298  73.4147  73.9741  73.9741  74.4392
    75.2989  76.1490  76.1490  78.1835  81.4712  81.8520  82.7440  82.7440
    83.9066  84.0117  84.0117  86.2002  86.2002  86.5314  86.6979  87.5789
    88.3118  88.4927  88.4927  88.7539  92.0061  92.1450  92.1450  92.9999
    94.2957  94.8965  94.9930  94.9930  98.5611  98.8682  98.8682  99.0502
    99.5054  99.5054 100.6224 100.7803 101.1444 101.4120 101.4120 102.7315
   103.8934 104.9997 109.0436 109.0436 112.4960 113.7996 114.5494 114.5494
   115.8940 116.7837 116.7837 117.2967 119.0778 119.9728 119.9728 120.0305
   121.8703 121.8703 123.3098 124.0076 124.9656 125.0697 125.0697 125.6388
   125.9115 125.9115 126.1345 128.2201 129.3106 129.8954 129.8954 130.1219
   130.2213 130.7055 130.7055 130.8199 132.0028 132.0028 132.0091 132.0652
   134.9270 134.9270 135.5437 136.2888 136.8241 137.4540 137.4540 137.7436
   137.8990 138.7472 138.7472 138.9784 139.3343 139.3343 139.8454 140.4219
   147.7738 147.7807 148.0754 148.0754 148.1970 148.4367 148.9247 148.9247
   149.8639 150.0910 150.0910 150.1795 150.2910 150.4721 151.1290 151.1290
   154.4577 154.8580 155.0959 155.0959 155.2974 155.3350 155.9328 156.3168
   156.3936 156.3936 159.5891 159.6888 159.8145 159.8145 160.8312 160.8312
   162.0804 162.0887 162.0887 162.1158 162.2603 162.2610 162.3199 162.3199
   166.9163 166.9163 167.4169 168.0396 168.0396 168.0606 168.0693 169.1429
   176.2218 176.2277 176.8049 176.8049 177.1774 177.9451 178.0398 178.0398
   178.0593 178.3815 178.4131 178.4254 178.4254 180.0619 180.0619 180.5452
   182.9575 182.9596 182.9988 182.9988 184.5013 184.7666 185.4809 185.4809
   189.4172 189.7985 190.3125 190.3125 190.7212 191.2669 191.2669 191.3342
   191.9587 192.2848 192.2848 192.3556 192.5684 192.6622 192.6622 192.7544
   192.7854 192.8243 192.8243 192.8567 197.9350 198.6330 198.6504 198.9374
   198.9374 199.9083 200.7934 201.0047 201.0047 201.5503 201.9646 201.9646
   203.4976 203.9490 203.9490 204.0156 208.4018 208.4018 208.4771 208.6859
   208.8637 209.9144 210.1617 210.1617 213.2417 213.4940 213.4982 213.5320
   213.5320 216.8782 218.1335 218.1335 218.8479 218.8479 218.9974 219.3106
   219.6622 220.0024 220.0106 220.0106 220.1879 220.3483 220.9305 220.9305
   221.0062 221.5027 221.7814 221.9982 222.1750 222.1750 223.3833 224.0289
   224.0289 224.7923 224.7923 224.7976 224.8187 225.4429 225.4429 225.5114
   231.1400 231.1657 231.1657 231.1818 231.3929 231.5286 232.3334 232.3334
   232.4448 232.5145 232.6395 232.6395 232.6818 232.9472 233.2411 233.2411
   238.1344 238.2162 238.4135 238.4215 238.4215 238.5057 238.5740 239.3738
   239.3738 239.7642 239.7642 240.2593 240.2593 240.6771 241.1069 241.1276
   243.4260 243.4625 243.7851 243.7851 245.2095 245.2985 245.4444 245.4444
   245.5377 245.5377 245.5850 245.5880 245.9289 245.9605 245.9605 245.9872
   247.4283 247.6616 248.1380 248.1380 250.4735 250.8107 251.0820 251.0820
   251.6870 251.7187 251.8027 251.8027 255.7328 255.8242 255.8242 255.8257
   257.4801 257.4923 257.4965 257.4965 259.2485 259.9237 260.3279 260.3279
   260.7931 260.8434 261.9017 261.9017 262.4975 262.9549 262.9549 263.5448
   263.9942 264.0151 264.0151 264.1390 272.1292 272.1292 272.2850 272.4148
   272.5981 272.9557 272.9839 273.0752 273.0752 273.6645 273.6645 273.7551
   273.9607 274.4470 274.8680 274.8680 275.3917 275.9749 275.9749 277.2174
   279.7229 279.7502 279.7834 279.8737 279.8737 280.3780 280.3780 281.5041
   283.3741 283.5403 283.6681 283.6681 284.6404 284.6512 284.9625 284.9625
   285.0503 285.1230 285.3395 285.3395 286.1550 286.4611 287.4547 287.4547
   287.5712 287.5712 287.6152 287.6153 289.8944 290.4598 292.3189 292.3589
   292.3589 292.3651 292.5415 292.6133 292.6368 292.6526 292.6526 293.5768
   293.9430 293.9430 295.4884 295.5099 295.5504 295.5504 296.5392 296.5392
   299.8999 300.1815 300.1815 300.8052 302.6108 302.6173 303.6393 303.6393
   303.6701 303.6768 304.8801 304.8801 305.5324 305.8723 306.0153 306.0153
   306.1325 306.4596 306.4596 306.5368 307.8358 307.8821 307.9386 307.9386
   309.7087 309.7087 309.7504 309.7622 312.1495 312.6706 312.6706 312.9704
   314.6553 314.7801 314.8388 314.8388 315.1169 315.2830 315.2830 315.4945
   315.5579 315.8516 316.0402 316.0402 317.9336 317.9909 317.9909 317.9922
   318.3033 318.3033 318.5399 318.5412 324.3872 324.4350 324.4350 324.4583
   325.8639 326.0240 326.4748 326.4748 328.0354 328.5886 329.4934 329.4934
   330.7310 331.2332 331.3089 331.3089 331.7468 331.8413 331.8413 332.0654
   332.5401 333.7279 333.7279 333.9670 335.2806 335.3751 335.3751 335.7817
   335.8154 335.9143 335.9143 336.4860 336.7745 336.8666 337.0268 337.0268
   339.2009 339.2415 339.2415 339.2534 339.7061 339.7061 339.7260 339.7324
   339.9648 339.9678 340.0156 340.0156 343.7457 343.7632 343.7632 343.8102
   343.9540 344.0245 344.1074 344.1074 344.3715 344.4266 344.4494 344.4628
   344.4760 344.4760 344.8863 344.8863 345.3098 345.4951 345.4951 346.0547
   348.6012 348.6012 348.6023 348.6076 349.4167 349.4433 349.4512 349.4512
   349.8396 349.8566 349.8566 349.8764 350.4455 350.4744 350.4744 350.4945
   350.5205 350.5384 350.5384 350.5479 357.2842 357.7532 357.9517 357.9517
   358.0178 358.1200 358.1200 358.2176 358.2456 358.2456 358.4400 358.4411
   363.8987 363.9147 363.9147 363.9700 364.0131 364.0233 364.1733 364.1733
   364.2046 364.9916 365.4364 365.4364 365.9473 366.0875 366.0875 366.1717
   366.7039 366.7137 366.7240 366.7240 368.2219 368.2604 368.2983 368.2983
   368.5897 368.6005 368.6332 368.6332 370.4714 370.4905 370.4905 370.4908
   371.6164 372.2123 375.8380 375.8380 376.4637 376.5655 376.9642 376.9642
   377.0918 377.1250 377.1878 377.1878 377.3002 377.3055 377.4000 377.4000
   377.4104 377.4585 377.5437 377.6110 377.6797 377.6797 379.2427 379.3300
   379.3300 379.3480 379.3823 379.4594 379.4594 379.4680 381.1656 381.1656
   381.5561 381.5561 381.5704 381.5706 389.0502 389.0642 389.1501 389.1501
   389.4827 389.4919 389.4965 389.4965 389.7624 389.7657 389.7657 389.7719
   389.7807 389.8417 389.8417 389.8447 393.0385 393.6377 393.6377 394.5601
   395.7427 395.8154 396.1646 396.1646 396.4262 396.4470 396.4470 396.5082
   396.5567 396.5631 396.9130 396.9130 397.9863 397.9869 398.1331 398.1331
   401.7391 401.7391 402.0633 402.0661 402.2385 402.2418 402.2418 402.2497
   409.6172 409.6178 409.7745 409.7745 410.2852 410.3139 410.3285 410.3285
   411.0334 411.0488 411.0488 411.0566 412.1153 412.1354 412.1354 412.1794
   415.9609 415.9707 415.9707 416.7108 416.7889 416.8123 416.8680 416.8680
   417.0173 417.0263 417.2462 417.2462 419.2959 419.4053 419.4432 419.4432
   419.9573 419.9573 419.9618 420.1000 420.5397 420.5449 420.9235 420.9235
   421.0387 421.0387 421.1664 421.2144 427.4102 427.4285 427.5501 427.5501
   427.8059 427.8540 428.3826 428.3826 429.2775 429.2819 429.3252 429.3252
   430.1915 430.1987 430.1987 430.2271 431.0716 431.0740 431.0740 431.0860
   431.1035 431.1475 431.1739 431.1739 435.2647 435.4062 435.4062 435.5015
   435.9276 436.2291 436.2291 436.2960 438.5275 438.5955 438.5955 438.7129
   439.4657 439.4657 439.5330 439.5344 439.5489 439.6334 439.6334 439.6517
   439.9131 439.9502 439.9502 439.9850 440.0784 440.1825 440.1825 440.2488
   441.3600 441.3930 441.6667 441.6667 442.0208 442.0208 442.1142 442.1144
   443.6419 443.6761 443.6761 443.7072 444.2715 444.2754 444.2754 444.2828
   444.4388 444.4599 444.4599 444.4708 444.5886 444.5888 444.5888 444.5896
   449.5323 449.5323 449.5470 449.5601 450.9013 450.9392 450.9392 450.9890
   451.2342 451.2762 451.3872 451.3872 452.1006 452.1757 452.1757 452.2933
   452.3957 452.4027 452.4128 452.4128 452.4176 452.4206 452.4248 452.4279
   452.4279 452.4978 452.4978 452.5408 458.3389 458.4713 458.8142 458.8142
   461.4708 461.4720 461.4887 461.4887 461.8362 461.8525 461.8713 461.8713
   462.1222 462.2486 462.2486 462.3678 464.9245 464.9245 464.9277 464.9278
   466.6378 466.6993 468.2569 468.2717 468.2717 468.3395 468.5587 468.6339
   468.6840 468.6840 471.9423 471.9474 471.9474 471.9616 472.0051 472.0236
   472.0236 472.0422 472.5934 472.6184 472.6184 472.6335 472.9036 472.9122
   472.9122 472.9224 474.9212 474.9212 476.0162 476.0347 476.0347 476.0577
   476.0848 476.0924 476.0924 476.0933 478.5607 478.5984 478.6399 478.6399
   479.9798 479.9873 479.9911 479.9911 480.1180 480.1180 480.1567 480.1935
   483.1401 483.1511 483.1511 483.1629 483.4389 483.4422 483.4465 483.4465
   487.6758 487.6809 487.6819 487.6819 489.4386 489.5127 489.8049 489.8049
   491.2337 491.2392 491.2392 491.2426 491.2953 491.2970 491.3405 491.3405
   491.8300 491.8364 491.8364 491.8381 493.7937 493.7937 493.8163 493.8182
   493.8289 493.8446 493.8446 493.8516 495.5087 495.5087 495.9382 495.9389
   496.0924 496.1109 496.1109 496.1154 497.9309 497.9309 497.9338 497.9395
   498.8379 498.9004 499.0150 499.0150 499.0923 499.0923 499.2019 499.2115
   501.9212 501.9584 501.9782 501.9782 502.2887 502.3146 502.3146 502.3323
   503.5248 503.5276 503.5559 503.5559 503.9827 503.9852 503.9852 503.9964
   504.4279 504.4424 504.4424 504.4512 504.5981 504.5984 504.5984 504.6078
   504.6403 504.6510 504.6510 504.6876 507.0348 507.0348 507.0582 507.0631
   507.2393 507.2397 507.2699 507.2699 513.4649 513.4748 513.5035 513.5035
   514.7645 514.7743 514.7773 514.7773 515.0399 515.0470 515.0470 515.0512
   517.8852 517.8944 517.9064 517.9064 520.0007 520.0007 520.0135 520.0243
   520.0454 520.0540 520.0631 520.0631 521.5150 521.5256 521.5256 521.5295
   521.8680 521.9064 521.9064 521.9169 523.8516 523.8612 523.8612 523.8695
   527.0510 527.0654 527.0654 527.0791 527.8089 527.8089 527.8189 527.8238
   528.0877 528.0877 528.0886 528.0887 532.6267 532.6296 532.6296 532.6312
   533.2386 533.2386 533.2691 533.2716 533.5268 533.5636 533.7751 533.7751
   533.8002 533.8002 534.0256 534.0487 534.6563 534.6611 534.8265 534.8265
   534.8852 534.8947 534.9835 534.9835 535.4319 535.4319 535.5811 535.5814
   535.9473 535.9473 536.0335 536.0461 536.2701 536.2804 536.4628 536.4628
   536.4989 536.4989 536.5364 536.5449 538.3726 538.3917 538.3917 538.4100
   545.6984 545.6984 545.7099 545.7123 545.7133 545.7133 545.7154 545.7315
   546.4907 546.4930 546.4930 546.4950 546.8780 546.8792 546.8792 546.8802
   551.2172 551.2208 551.2208 551.2270 552.4306 552.4326 552.5459 552.5459
   554.0109 554.0133 554.0133 554.0166 556.2094 556.2120 556.2120 556.2121
   556.4231 556.4231 556.4330 556.4378 556.4407 556.4470 556.4583 556.4583
   558.2852 558.2860 558.2865 558.2865 558.9220 558.9220 558.9351 558.9354
   560.7800 560.8024 560.8110 560.8110 561.1858 561.2411 561.2411 561.3308
   561.4144 561.5116 561.5116 561.5590 564.9881 565.0011 565.0011 565.0203
   565.3389 565.3668 565.3668 565.4520 565.4525 565.5270 565.5270 565.5455

     the Fermi energy is    -0.6759 ev
     (compare with:    -1.8885 eV, computed in scf)

     Writing all to output data dir out/mp-23155.save/
 
     init_run     :      0.02s CPU      0.03s WALL (       1 calls)
     electrons    :    720.79s CPU    764.81s WALL (       1 calls)

     Called by init_run:
     wfcinit      :      0.00s CPU      0.00s WALL (       1 calls)
     potinit      :      0.01s CPU      0.01s WALL (       1 calls)
     hinit0       :      0.00s CPU      0.01s WALL (       1 calls)

     Called by electrons:
     c_bands      :    720.77s CPU    764.75s WALL (       1 calls)
     v_of_rho     :      0.00s CPU      0.00s WALL (       1 calls)

     Called by c_bands:
     init_us_2    :      0.00s CPU      0.00s WALL (      15 calls)
     init_us_2:cp :      0.00s CPU      0.00s WALL (      15 calls)
     paro_k       :    698.39s CPU    740.87s WALL (      15 calls)

     Called by paro_*:
     h_psi        :     15.03s CPU     15.82s WALL (    1471 calls)
     g_psi        :      0.31s CPU      0.36s WALL (  143545 calls)

     Called by h_psi:
     h_psi:calbec :      0.21s CPU      0.23s WALL (    1471 calls)
     vloc_psi     :     14.58s CPU     15.33s WALL (    1471 calls)
     add_vuspsi   :      0.10s CPU      0.10s WALL (    1471 calls)

     General routines
     calbec       :      0.21s CPU      0.22s WALL (    1471 calls)
     fft          :      0.00s CPU      0.00s WALL (      10 calls)
     fftw         :     13.04s CPU     13.72s WALL (  235992 calls)
 
     Parallel routines
 
     PWSCF        :  12m 1.86s CPU  12m46.36s WALL

 
   This run was terminated on:   5:33:16  15Nov2023            

=------------------------------------------------------------------------------=
   JOB DONE.
=------------------------------------------------------------------------------=
