
     Program PWSCF v.7.1 starts on 14Dec2023 at 11: 6:51 

     This program is part of the open-source Quantum ESPRESSO suite
     for quantum simulation of materials; please cite
         "P. Giannozzi et al., J. Phys.:Condens. Matter 21 395502 (2009);
         "P. Giannozzi et al., J. Phys.:Condens. Matter 29 465901 (2017);
         "P. Giannozzi et al., J. Chem. Phys. 152 154105 (2020);
          URL http://www.quantum-espresso.org", 
     in publications or presentations arising from this work. More details at
     http://www.quantum-espresso.org/quote

     Parallel version (MPI), running on    24 processors

     MPI processes distributed on     1 nodes
     123363 MiB available memory on the printing compute node when the environment starts
 
     Reading input from pw_mp-22916_scf_k3000_E49.in
Warning: card &CELL ignored
Warning: card / ignored

     Current dimensions of program PWSCF are:
     Max number of different atomic species (ntypx) = 10
     Max number of k-points (npk) =  40000
     Max angular momentum in pseudopotentials (lmaxx) =  4
 
     K-points division:     npool     =       2
     R & G space division:  proc/nbgrp/npool/nimage =      12
     Subspace diagonalization in iterative solution of the eigenvalue problem:
     a serial algorithm will be used

 
     Parallelization info
     --------------------
     sticks:   dense  smooth     PW     G-vecs:    dense   smooth      PW
     Min          70      70     21                 1361     1361     227
     Max          71      71     22                 1365     1365     231
     Sum         847     847    253                16361    16361    2733
 
     Using Slab Decomposition
 


     bravais-lattice index     =            2
     lattice parameter (alat)  =      11.1930  a.u.
     unit-cell volume          =     350.5745 (a.u.)^3
     number of atoms/cell      =            2
     number of atomic types    =            2
     number of electrons       =        16.00
     number of Kohn-Sham states=           16
     kinetic-energy cutoff     =      49.0000  Ry
     charge density cutoff     =     196.0000  Ry
     scf convergence threshold =      1.0E-10
     mixing beta               =       0.7000
     number of iterations used =            8  plain     mixing
     Exchange-correlation= PBE
                           (   1   4   3   4   0   0   0)

     celldm(1)=  11.193007  celldm(2)=   0.000000  celldm(3)=   0.000000
     celldm(4)=   0.000000  celldm(5)=   0.000000  celldm(6)=   0.000000

     crystal axes: (cart. coord. in units of alat)
               a(1) = (  -0.500000   0.000000   0.500000 )  
               a(2) = (   0.000000   0.500000   0.500000 )  
               a(3) = (  -0.500000   0.500000   0.000000 )  

     reciprocal axes: (cart. coord. in units 2 pi/alat)
               b(1) = ( -1.000000 -1.000000  1.000000 )  
               b(2) = (  1.000000  1.000000  1.000000 )  
               b(3) = ( -1.000000  1.000000 -1.000000 )  


     PseudoPot. # 1 for Br read from file:
     /usr/scratch4/magr4985/MG/HTDF/pseudo/SG15/Br.upf
     MD5 check sum: 5b50323dbf1c0ae0ed9e7f1e72c3f86c
     Pseudo is Norm-conserving, Zval =  7.0
     Generated using ONCVPSP code by D. R. Hamann
     Using radial grid of  602 points,  6 beta functions with: 
                l(1) =   0
                l(2) =   0
                l(3) =   1
                l(4) =   1
                l(5) =   2
                l(6) =   2

     PseudoPot. # 2 for Na read from file:
     /usr/scratch4/magr4985/MG/HTDF/pseudo/SG15/Na.upf
     MD5 check sum: 425b17ce8ead78efa4860b7b3310c7e3
     Pseudo is Norm-conserving, Zval =  9.0
     Generated using ONCVPSP code by D. R. Hamann
     Using radial grid of  602 points,  4 beta functions with: 
                l(1) =   0
                l(2) =   0
                l(3) =   1
                l(4) =   1

     atomic species   valence    mass     pseudopotential
        Br             7.00    79.90400     Br( 1.00)
        Na             9.00    22.98980     Na( 1.00)

     48 Sym. Ops., with inversion, found



   Cartesian axes

     site n.     atom                  positions (alat units)
         1           Na  tau(   1) = (   0.0000000   0.0000000   0.0000000  )
         2           Br  tau(   2) = (  -0.5000000   0.5000000   0.5000000  )

     number of k points=    72  Gaussian smearing, width (Ry)=  0.0005
                       cart. coord. in units 2pi/alat
        k(    1) = (   0.0000000   0.0000000   0.0000000), wk =   0.0011574
        k(    2) = (  -0.0833333   0.0833333  -0.0833333), wk =   0.0092593
        k(    3) = (  -0.1666667   0.1666667  -0.1666667), wk =   0.0092593
        k(    4) = (  -0.2500000   0.2500000  -0.2500000), wk =   0.0092593
        k(    5) = (  -0.3333333   0.3333333  -0.3333333), wk =   0.0092593
        k(    6) = (  -0.4166667   0.4166667  -0.4166667), wk =   0.0092593
        k(    7) = (   0.5000000  -0.5000000   0.5000000), wk =   0.0046296
        k(    8) = (   0.0000000   0.1666667   0.0000000), wk =   0.0069444
        k(    9) = (  -0.0833333   0.2500000  -0.0833333), wk =   0.0277778
        k(   10) = (  -0.1666667   0.3333333  -0.1666667), wk =   0.0277778
        k(   11) = (  -0.2500000   0.4166667  -0.2500000), wk =   0.0277778
        k(   12) = (  -0.3333333   0.5000000  -0.3333333), wk =   0.0277778
        k(   13) = (   0.5833333  -0.4166667   0.5833333), wk =   0.0277778
        k(   14) = (   0.5000000  -0.3333333   0.5000000), wk =   0.0277778
        k(   15) = (   0.4166667  -0.2500000   0.4166667), wk =   0.0277778
        k(   16) = (   0.3333333  -0.1666667   0.3333333), wk =   0.0277778
        k(   17) = (   0.2500000  -0.0833333   0.2500000), wk =   0.0277778
        k(   18) = (   0.1666667  -0.0000000   0.1666667), wk =   0.0138889
        k(   19) = (   0.0000000   0.3333333   0.0000000), wk =   0.0069444
        k(   20) = (  -0.0833333   0.4166667  -0.0833333), wk =   0.0277778
        k(   21) = (  -0.1666667   0.5000000  -0.1666667), wk =   0.0277778
        k(   22) = (  -0.2500000   0.5833333  -0.2500000), wk =   0.0277778
        k(   23) = (   0.6666667  -0.3333333   0.6666667), wk =   0.0277778
        k(   24) = (   0.5833333  -0.2500000   0.5833333), wk =   0.0277778
        k(   25) = (   0.5000000  -0.1666667   0.5000000), wk =   0.0277778
        k(   26) = (   0.4166667  -0.0833333   0.4166667), wk =   0.0277778
        k(   27) = (   0.3333333   0.0000000   0.3333333), wk =   0.0138889
        k(   28) = (   0.0000000   0.5000000   0.0000000), wk =   0.0069444
        k(   29) = (  -0.0833333   0.5833333  -0.0833333), wk =   0.0277778
        k(   30) = (  -0.1666667   0.6666667  -0.1666667), wk =   0.0277778
        k(   31) = (   0.7500000  -0.2500000   0.7500000), wk =   0.0277778
        k(   32) = (   0.6666667  -0.1666667   0.6666667), wk =   0.0277778
        k(   33) = (   0.5833333  -0.0833333   0.5833333), wk =   0.0277778
        k(   34) = (   0.5000000   0.0000000   0.5000000), wk =   0.0138889
        k(   35) = (   0.0000000   0.6666667   0.0000000), wk =   0.0069444
        k(   36) = (  -0.0833333   0.7500000  -0.0833333), wk =   0.0277778
        k(   37) = (   0.8333333  -0.1666667   0.8333333), wk =   0.0277778
        k(   38) = (   0.7500000  -0.0833333   0.7500000), wk =   0.0277778
        k(   39) = (   0.6666667  -0.0000000   0.6666667), wk =   0.0138889
        k(   40) = (   0.0000000   0.8333333   0.0000000), wk =   0.0069444
        k(   41) = (   0.9166667  -0.0833333   0.9166667), wk =   0.0277778
        k(   42) = (   0.8333333   0.0000000   0.8333333), wk =   0.0138889
        k(   43) = (   0.0000000  -1.0000000   0.0000000), wk =   0.0034722
        k(   44) = (  -0.1666667   0.3333333   0.0000000), wk =   0.0277778
        k(   45) = (  -0.2500000   0.4166667  -0.0833333), wk =   0.0555556
        k(   46) = (  -0.3333333   0.5000000  -0.1666667), wk =   0.0555556
        k(   47) = (   0.5833333  -0.4166667   0.7500000), wk =   0.0555556
        k(   48) = (   0.5000000  -0.3333333   0.6666667), wk =   0.0277778
        k(   49) = (  -0.1666667   0.5000000   0.0000000), wk =   0.0277778
        k(   50) = (  -0.2500000   0.5833333  -0.0833333), wk =   0.0555556
        k(   51) = (   0.6666667  -0.3333333   0.8333333), wk =   0.0555556
        k(   52) = (   0.5833333  -0.2500000   0.7500000), wk =   0.0555556
        k(   53) = (   0.5000000  -0.1666667   0.6666667), wk =   0.0555556
        k(   54) = (   0.4166667  -0.0833333   0.5833333), wk =   0.0555556
        k(   55) = (   0.3333333   0.0000000   0.5000000), wk =   0.0277778
        k(   56) = (  -0.1666667   0.6666667  -0.0000000), wk =   0.0277778
        k(   57) = (   0.7500000  -0.2500000   0.9166667), wk =   0.0555556
        k(   58) = (   0.6666667  -0.1666667   0.8333333), wk =   0.0555556
        k(   59) = (   0.5833333  -0.0833333   0.7500000), wk =   0.0555556
        k(   60) = (   0.5000000   0.0000000   0.6666667), wk =   0.0277778
        k(   61) = (   0.8333333  -0.1666667   1.0000000), wk =   0.0277778
        k(   62) = (   0.7500000  -0.0833333   0.9166667), wk =   0.0555556
        k(   63) = (   0.6666667   0.0000000   0.8333333), wk =   0.0277778
        k(   64) = (  -0.1666667  -1.0000000  -0.0000000), wk =   0.0138889
        k(   65) = (   0.6666667  -0.3333333   1.0000000), wk =   0.0277778
        k(   66) = (   0.5833333  -0.2500000   0.9166667), wk =   0.0555556
        k(   67) = (   0.5000000  -0.1666667   0.8333333), wk =   0.0277778
        k(   68) = (   0.6666667  -0.1666667   1.0000000), wk =   0.0277778
        k(   69) = (   0.5833333  -0.0833333   0.9166667), wk =   0.0555556
        k(   70) = (   0.5000000   0.0000000   0.8333333), wk =   0.0277778
        k(   71) = (  -0.3333333  -1.0000000   0.0000000), wk =   0.0138889
        k(   72) = (  -0.5000000  -1.0000000   0.0000000), wk =   0.0069444

     Dense  grid:    16361 G-vectors     FFT dimensions: (  36,  36,  36)

     Estimated max dynamical RAM per process >       4.94 MB

     Estimated total dynamical RAM >     114.48 MB

     Initial potential from superposition of free atoms

     starting charge      15.8534, renormalised to      16.0000
     Starting wfcs are random

     total cpu time spent up to now is        0.4 secs

     Self-consistent Calculation

     iteration #  1     ecut=    49.00 Ry     beta= 0.70
     Davidson diagonalization with overlap
     ethr =  1.00E-02,  avg # of iterations =  9.1

     Threshold (ethr) on eigenvalues was too large:
     Diagonalizing with lowered threshold

     Davidson diagonalization with overlap
     ethr =  2.62E-04,  avg # of iterations =  5.5

     total cpu time spent up to now is        1.5 secs

     total energy              =    -112.38888818 Ry
     estimated scf accuracy    <       0.03722498 Ry

     iteration #  2     ecut=    49.00 Ry     beta= 0.70
     Davidson diagonalization with overlap
     ethr =  2.33E-04,  avg # of iterations =  2.1

     total cpu time spent up to now is        1.7 secs

     total energy              =    -112.39867657 Ry
     estimated scf accuracy    <       0.00467086 Ry

     iteration #  3     ecut=    49.00 Ry     beta= 0.70
     Davidson diagonalization with overlap
     ethr =  2.92E-05,  avg # of iterations =  5.6

     total cpu time spent up to now is        2.0 secs

     total energy              =    -112.39959603 Ry
     estimated scf accuracy    <       0.00019969 Ry

     iteration #  4     ecut=    49.00 Ry     beta= 0.70
     Davidson diagonalization with overlap
     c_bands:  1 eigenvalues not converged
     ethr =  1.25E-06,  avg # of iterations =  7.1

     total cpu time spent up to now is        2.5 secs

     total energy              =    -112.39966918 Ry
     estimated scf accuracy    <       0.00000498 Ry

     iteration #  5     ecut=    49.00 Ry     beta= 0.70
     Davidson diagonalization with overlap
     ethr =  3.12E-08,  avg # of iterations =  3.2

     total cpu time spent up to now is        2.7 secs

     total energy              =    -112.39967198 Ry
     estimated scf accuracy    <       0.00000028 Ry

     iteration #  6     ecut=    49.00 Ry     beta= 0.70
     Davidson diagonalization with overlap
     ethr =  1.76E-09,  avg # of iterations =  4.5

     total cpu time spent up to now is        3.0 secs

     total energy              =    -112.39967224 Ry
     estimated scf accuracy    <       0.00000003 Ry

     iteration #  7     ecut=    49.00 Ry     beta= 0.70
     Davidson diagonalization with overlap
     ethr =  1.75E-10,  avg # of iterations =  2.5

     total cpu time spent up to now is        3.2 secs

     total energy              =    -112.39967224 Ry
     estimated scf accuracy    <          5.1E-09 Ry

     iteration #  8     ecut=    49.00 Ry     beta= 0.70
     Davidson diagonalization with overlap
     ethr =  3.21E-11,  avg # of iterations =  3.5

     total cpu time spent up to now is        3.5 secs

     total energy              =    -112.39967224 Ry
     estimated scf accuracy    <          1.5E-10 Ry

     iteration #  9     ecut=    49.00 Ry     beta= 0.70
     Davidson diagonalization with overlap
     ethr =  9.56E-13,  avg # of iterations =  4.2

     total cpu time spent up to now is        3.8 secs

     End of self-consistent calculation

          k = 0.0000 0.0000 0.0000 (  2085 PWs)   bands (ev):

   -47.8815 -19.8296 -19.8296 -19.8296 -11.1112   1.7476   1.7476   1.7476
     5.9559  11.6217  11.6217  11.6217  13.8208  13.8208  14.7637  16.5856

          k =-0.0833 0.0833-0.0833 (  2037 PWs)   bands (ev):

   -47.8809 -19.8308 -19.8297 -19.8297 -11.0922   1.5341   1.7271   1.7271
     6.2215  11.3505  11.7140  11.7140  13.6071  13.6071  15.2445  16.4774

          k =-0.1667 0.1667-0.1667 (  2022 PWs)   bands (ev):

   -47.8807 -19.8339 -19.8299 -19.8299 -11.0396   1.0405   1.6720   1.6720
     6.8378  10.9189  11.8778  11.8778  13.3576  13.3576  15.6130  16.9944

          k =-0.2500 0.2500-0.2500 (  2027 PWs)   bands (ev):

   -47.8807 -19.8382 -19.8302 -19.8302 -10.9659   0.4909   1.5991   1.5991
     7.4651  10.7629  11.8090  11.8090  13.6422  13.6422  15.2295  18.6356

          k =-0.3333 0.3333-0.3333 (  2030 PWs)   bands (ev):

   -47.8806 -19.8424 -19.8305 -19.8305 -10.8902   0.0237   1.5290   1.5290
     7.8266  11.0664  11.5678  11.5678  14.4722  14.4722  14.8691  19.7873

          k =-0.4167 0.4167-0.4167 (  2033 PWs)   bands (ev):

   -47.8806 -19.8455 -19.8307 -19.8307 -10.8332  -0.2844   1.4792   1.4792
     7.9296  11.3753  11.3753  11.6066  14.7050  15.6282  15.6282  18.4331

          k = 0.5000-0.5000 0.5000 (  2036 PWs)   bands (ev):

   -47.8806 -19.8466 -19.8308 -19.8308 -10.8120  -0.3916   1.4612   1.4612
     7.9414  11.3061  11.3061  11.8759  14.7008  16.8031  16.8033  17.3247

          k = 0.0000 0.1667 0.0000 (  2033 PWs)   bands (ev):

   -47.8809 -19.8307 -19.8299 -19.8299 -11.0860   1.5188   1.6941   1.6941
     6.3094  11.1931  11.7931  11.7931  13.1795  13.9169  15.4244  16.7697

          k =-0.0833 0.2500-0.0833 (  2029 PWs)   bands (ev):

   -47.8808 -19.8330 -19.8303 -19.8301 -11.0451   1.1507   1.6291   1.6506
     6.8101  10.8015  11.9345  11.9904  12.7521  13.8906  16.0584  16.9041

          k =-0.1667 0.3333-0.1667 (  2025 PWs)   bands (ev):

   -47.8806 -19.8368 -19.8307 -19.8303 -10.9791   0.6463   1.5516   1.5823
     7.4539  10.5583  11.6985  12.0410  13.0019  14.0751  15.8331  18.2039

          k =-0.2500 0.4167-0.2500 (  2024 PWs)   bands (ev):

   -47.8805 -19.8409 -19.8310 -19.8306 -10.9046   0.1755   1.4826   1.4948
     7.9295  10.7182  11.3308  11.8468  13.7605  14.7878  15.4659  19.8001

          k =-0.3333 0.5000-0.3333 (  2031 PWs)   bands (ev):

   -47.8806 -19.8442 -19.8311 -19.8310 -10.8416  -0.1694   1.4121   1.4392
     8.1108  11.0065  11.3424  11.6118  14.6605  15.3386  15.8770  18.3091

          k = 0.5833-0.4167 0.5833 (  2023 PWs)   bands (ev):

   -47.8804 -19.8460 -19.8313 -19.8310 -10.8085  -0.3358   1.3552   1.4312
     8.1462  10.9287  11.4639  11.8033  15.0604  15.9349  16.7847  17.4210

          k = 0.5000-0.3333 0.5000 (  2028 PWs)   bands (ev):

   -47.8805 -19.8456 -19.8315 -19.8308 -10.8154  -0.3011   1.3376   1.4602
     8.1480  10.9895  11.4475  11.7021  15.1490  15.4707  16.5989  17.0254

          k = 0.4167-0.2500 0.4167 (  2025 PWs)   bands (ev):

   -47.8805 -19.8433 -19.8315 -19.8304 -10.8601  -0.0705   1.3643   1.5198
     8.0896  11.0847  11.2553  11.5741  14.2551  15.2771  15.6279  18.2298

          k = 0.3333-0.1667 0.3333 (  2021 PWs)   bands (ev):

   -47.8805 -19.8396 -19.8313 -19.8301 -10.9291   0.3219   1.4313   1.5958
     7.8142  10.6739  11.5326  11.8244  13.3034  14.6023  15.5998  18.9064

          k = 0.2500-0.0833 0.2500 (  2029 PWs)   bands (ev):

   -47.8807 -19.8355 -19.8308 -19.8298 -11.0029   0.8084   1.5270   1.6687
     7.2409  10.6803  11.8196  12.0289  12.8035  13.9137  15.9942  17.4271

          k = 0.1667-0.0000 0.1667 (  2027 PWs)   bands (ev):

   -47.8808 -19.8323 -19.8303 -19.8296 -11.0621   1.2700   1.6364   1.7176
     6.6036  11.0177  11.8465  11.8583  13.0834  13.7003  15.8383  16.7064

          k = 0.0000 0.3333 0.0000 (  2017 PWs)   bands (ev):

   -47.8806 -19.8335 -19.8308 -19.8308 -11.0182   1.0275   1.5539   1.5539
     7.1383  10.4173  12.0626  12.2760  12.2760  14.1989  16.8958  17.3253

          k =-0.0833 0.4167-0.0833 (  2025 PWs)   bands (ev):

   -47.8806 -19.8360 -19.8313 -19.8312 -10.9653   0.6859   1.4686   1.4690
     7.6782  10.1087  11.4763  12.4918  12.7846  14.4305  17.0313  18.0351

          k =-0.1667 0.5000-0.1667 (  2020 PWs)   bands (ev):

   -47.8805 -19.8393 -19.8317 -19.8315 -10.8996   0.3034   1.3544   1.3962
     8.2086  10.0964  10.9965  12.3966  13.5153  15.0691  16.7119  19.1949

          k =-0.2500 0.5833-0.2500 (  2029 PWs)   bands (ev):

   -47.8805 -19.8424 -19.8321 -19.8318 -10.8383  -0.0075   1.2207   1.3539
     8.4995  10.4055  10.8089  12.1432  14.3066  16.1109  16.5386  18.2622

          k = 0.6667-0.3333 0.6667 (  2028 PWs)   bands (ev):

   -47.8805 -19.8442 -19.8328 -19.8317 -10.7988  -0.1865   1.1039   1.3513
     8.6092  10.3628  11.3441  11.9209  14.8089  16.5129  16.8029  17.5294

          k = 0.5833-0.2500 0.5833 (  2024 PWs)   bands (ev):

   -47.8804 -19.8445 -19.8333 -19.8313 -10.7927  -0.2059   1.0366   1.3888
     8.6729  10.3770  11.5467  11.8071  15.2146  15.4648  16.3195  17.8892

          k = 0.5000-0.1667 0.5000 (  2028 PWs)   bands (ev):

   -47.8805 -19.8431 -19.8335 -19.8308 -10.8220  -0.0682   1.0417   1.4581
     8.6752  10.5780  11.0482  11.8310  14.2265  16.1520  16.3867  17.3132

          k = 0.4167-0.0833 0.4167 (  2024 PWs)   bands (ev):

   -47.8805 -19.8407 -19.8331 -19.8303 -10.8778   0.1918   1.1330   1.5428
     8.4459  10.5241  10.9552  12.0031  13.2256  15.7727  16.6759  18.0495

          k = 0.3333 0.0000 0.3333 (  2027 PWs)   bands (ev):

   -47.8806 -19.8379 -19.8321 -19.8299 -10.9441   0.5086   1.3094   1.6205
     7.8746  10.4487  11.4319  12.3003  12.5173  14.7286  16.9115  17.2848

          k = 0.0000 0.5000 0.0000 (  2020 PWs)   bands (ev):

   -47.8805 -19.8367 -19.8320 -19.8320 -10.9279   0.5367   1.3751   1.3751
     7.9965   9.7078  11.2261  12.9953  12.9953  14.6440  18.2449  18.2450

          k =-0.0833 0.5833-0.0833 (  2026 PWs)   bands (ev):

   -47.8805 -19.8387 -19.8326 -19.8325 -10.8763   0.2973   1.2591   1.2959
     8.3379   9.5206  11.0020  13.1519  13.5580  15.1542  18.2063  19.0058

          k =-0.1667 0.6667-0.1667 (  2037 PWs)   bands (ev):

   -47.8806 -19.8407 -19.8334 -19.8328 -10.8239   0.0921   1.0773   1.2499
     8.6066   9.6740  10.8574  12.9282  14.2505  16.1623  17.9635  18.4267

          k = 0.7500-0.2500 0.7500 (  2034 PWs)   bands (ev):

   -47.8805 -19.8421 -19.8345 -19.8326 -10.7852  -0.0184   0.8676   1.2471
     8.7822   9.9964  10.9675  12.6325  14.5033  16.9083  17.5266  17.7899

          k = 0.6667-0.1667 0.6667 (  2025 PWs)   bands (ev):

   -47.8804 -19.8424 -19.8356 -19.8321 -10.7712  -0.0214   0.7026   1.2881
     8.9905  10.1088  11.2614  12.3948  14.2673  15.6563  17.5460  18.7015

          k = 0.5833-0.0833 0.5833 (  2030 PWs)   bands (ev):

   -47.8805 -19.8420 -19.8359 -19.8315 -10.7861   0.0426   0.6698   1.3641
     9.2110  10.1780  10.9754  12.2446  14.4793  14.7922  17.7272  18.5927

          k = 0.5000 0.0000 0.5000 (  2017 PWs)   bands (ev):

   -47.8804 -19.8414 -19.8349 -19.8308 -10.8254   0.1097   0.8339   1.4571
     9.0856  10.4324  10.5395  12.1493  13.6186  16.0245  17.3989  17.8942

          k = 0.0000 0.6667 0.0000 (  2044 PWs)   bands (ev):

   -47.8807 -19.8393 -19.8332 -19.8332 -10.8407   0.1682   1.2089   1.2089
     8.2908   9.1735  11.2900  13.8624  13.8624  15.1950  19.2203  19.2205

          k =-0.0833 0.7500-0.0833 (  2033 PWs)   bands (ev):

   -47.8805 -19.8404 -19.8340 -19.8336 -10.8022   0.0455   1.0806   1.1558
     8.3186   9.1071  11.5051  13.8944  14.3938  15.9311  18.2118  18.7396

          k = 0.8333-0.1667 0.8333 (  2040 PWs)   bands (ev):

   -47.8806 -19.8408 -19.8354 -19.8335 -10.7712   0.0152   0.8399   1.1480
     8.4636   9.3793  11.5715  13.5304  14.5263  16.9885  17.6244  17.6560

          k = 0.7500-0.0833 0.7500 (  2042 PWs)   bands (ev):

   -47.8806 -19.8403 -19.8374 -19.8331 -10.7564   0.1106   0.5428   1.1873
     8.7020   9.8669  11.5300  13.1159  13.9356  16.0929  18.2048  18.6973

          k = 0.6667-0.0000 0.6667 (  2015 PWs)   bands (ev):

   -47.8803 -19.8402 -19.8380 -19.8323 -10.7619   0.2432   0.3531   1.2653
     9.0361  10.2132  11.2073  12.6917  13.8723  15.1040  18.8755  18.9488

          k = 0.0000 0.8333 0.0000 (  2032 PWs)   bands (ev):

   -47.8805 -19.8409 -19.8341 -19.8341 -10.7790  -0.0468   1.0942   1.0942
     8.0724   8.8459  12.1069  14.7525  14.7525  15.7168  18.0979  18.4412

          k = 0.9167-0.0833 0.9167 (  2039 PWs)   bands (ev):

   -47.8805 -19.8411 -19.8348 -19.8342 -10.7608  -0.0707   0.9780   1.0784
     8.0978   8.8954  12.3220  14.5168  14.8711  16.5524  17.5955  17.7058

          k = 0.8333 0.0000 0.8333 (  2042 PWs)   bands (ev):

   -47.8806 -19.8404 -19.8364 -19.8338 -10.7526   0.0081   0.7401   1.1118
     8.3450   9.2811  12.1213  13.8574  14.2589  16.7977  17.7335  18.3655

          k = 0.0000-1.0000 0.0000 (  2044 PWs)   bands (ev):

   -47.8806 -19.8414 -19.8344 -19.8344 -10.7569  -0.1159   1.0535   1.0535
     7.9390   8.7358  12.6161  15.2468  15.2468  15.9513  17.3657  17.8214

          k =-0.1667 0.3333 0.0000 (  2029 PWs)   bands (ev):

   -47.8807 -19.8351 -19.8312 -19.8302 -10.9980   0.8384   1.4857   1.6162
     7.3369  10.4652  11.7594  12.2853  12.5354  14.1467  16.7121  17.1095

          k =-0.2500 0.4167-0.0833 (  2023 PWs)   bands (ev):

   -47.8806 -19.8383 -19.8319 -19.8304 -10.9322   0.4415   1.3420   1.5533
     7.9564  10.3268  11.2792  12.2525  12.9649  14.7868  16.5203  18.1518

          k =-0.3333 0.5000-0.1667 (  2026 PWs)   bands (ev):

   -47.8805 -19.8417 -19.8324 -19.8308 -10.8648   0.0775   1.2342   1.4739
     8.3703  10.6003  10.8867  11.9886  13.7988  15.7646  16.2065  18.1724

          k = 0.5833-0.4167 0.7500 (  2029 PWs)   bands (ev):

   -47.8805 -19.8442 -19.8325 -19.8312 -10.8143  -0.1718   1.1698   1.4087
     8.5006  10.5662  11.2860  11.7909  14.7259  16.0301  16.5533  17.1534

          k = 0.5000-0.3333 0.6667 (  2024 PWs)   bands (ev):

   -47.8804 -19.8451 -19.8326 -19.8314 -10.7955  -0.2599   1.1488   1.3834
     8.5193  10.4771  11.6581  11.7116  15.3086  15.6432  16.6718  17.1721

          k =-0.1667 0.5000 0.0000 (  2023 PWs)   bands (ev):

   -47.8805 -19.8379 -19.8324 -19.8314 -10.9130   0.4326   1.2945   1.4268
     8.1699   9.8651  11.0503  12.8426  13.0211  14.9581  17.7774  17.9382

          k =-0.2500 0.5833-0.0833 (  2030 PWs)   bands (ev):

   -47.8805 -19.8403 -19.8333 -19.8317 -10.8544   0.1780   1.1275   1.3524
     8.6399   9.9195  10.6718  12.6808  13.7088  15.8977  17.5653  18.2355

          k = 0.6667-0.3333 0.8333 (  2038 PWs)   bands (ev):

   -47.8806 -19.8422 -19.8339 -19.8321 -10.8053  -0.0104   0.9791   1.2911
     8.8868  10.1458  10.6743  12.4216  14.4206  16.6824  17.0281  17.5871

          k = 0.5833-0.2500 0.7500 (  2029 PWs)   bands (ev):

   -47.8805 -19.8432 -19.8344 -19.8322 -10.7797  -0.0941   0.8695   1.2795
     9.0218  10.0406  11.2238  12.2051  14.5523  16.1023  17.2328  17.6641

          k = 0.5000-0.1667 0.6667 (  2029 PWs)   bands (ev):

   -47.8805 -19.8429 -19.8347 -19.8318 -10.7851  -0.0635   0.8333   1.3215
     9.1178  10.0570  11.1455  12.1540  14.6303  15.4194  17.1666  18.1980

          k = 0.4167-0.0833 0.5833 (  2030 PWs)   bands (ev):

   -47.8805 -19.8417 -19.8345 -19.8312 -10.8200   0.0607   0.9034   1.4004
     9.0491  10.3064  10.5344  12.2543  13.9210  16.1747  17.2129  17.5670

          k = 0.3333 0.0000 0.5000 (  2026 PWs)   bands (ev):

   -47.8805 -19.8401 -19.8335 -19.8307 -10.8740   0.2391   1.0883   1.4885
     8.6017  10.2291  10.7555  12.3770  13.1677  15.8433  17.5892  17.8582

          k =-0.1667 0.6667-0.0000 (  2036 PWs)   bands (ev):

   -47.8806 -19.8399 -19.8336 -19.8328 -10.8315   0.1447   1.1175   1.2235
     8.5295   9.3882  10.9941  13.4231  13.9149  15.8552  18.2996  18.9481

          k = 0.7500-0.2500 0.9167 (  2034 PWs)   bands (ev):

   -47.8805 -19.8408 -19.8347 -19.8333 -10.7907   0.0555   0.9196   1.1603
     8.7360   9.5743  10.9632  13.1870  14.4860  16.7181  17.2063  18.6283

          k = 0.6667-0.1667 0.8333 (  2031 PWs)   bands (ev):

   -47.8805 -19.8411 -19.8360 -19.8332 -10.7650   0.0638   0.6806   1.1559
     8.9360   9.9362  11.0459  12.7639  14.4338  16.4560  17.2990  18.8011

          k = 0.5833-0.0833 0.7500 (  2036 PWs)   bands (ev):

   -47.8805 -19.8408 -19.8370 -19.8327 -10.7619   0.1393   0.5071   1.2088
     9.2171  10.0839  11.0802  12.4286  14.2686  15.4116  18.0353  19.2321

          k = 0.5000 0.0000 0.6667 (  2032 PWs)   bands (ev):

   -47.8805 -19.8412 -19.8364 -19.8319 -10.7822   0.1182   0.6043   1.3000
     9.5044  10.0093  10.6447  12.4241  14.4477  14.9247  18.3130  18.5899

          k = 0.8333-0.1667 1.0000 (  2036 PWs)   bands (ev):

   -47.8805 -19.8407 -19.8346 -19.8342 -10.7743  -0.0087   0.9956   1.0675
     8.3294   9.0893  11.7705  13.8911  14.8298  16.4933  17.3763  18.4625

          k = 0.7500-0.0833 0.9167 (  2035 PWs)   bands (ev):

   -47.8805 -19.8404 -19.8360 -19.8342 -10.7556   0.0366   0.7698   1.0513
     8.5355   9.3922  11.7757  13.2458  14.9136  16.8684  17.1156  18.2321

          k = 0.6667 0.0000 0.8333 (  2043 PWs)   bands (ev):

   -47.8806 -19.8392 -19.8382 -19.8336 -10.7511   0.1846   0.4804   1.1089
     8.8454   9.9036  11.5067  12.6023  14.4692  16.0419  18.0375  18.5756

          k =-0.1667-1.0000-0.0000 (  2040 PWs)   bands (ev):

   -47.8805 -19.8409 -19.8349 -19.8347 -10.7539  -0.0535   0.9525   1.0082
     8.1971   8.9880  12.3355  13.9132  15.3407  16.5464  17.4846  17.8459

          k = 0.6667-0.3333 1.0000 (  2036 PWs)   bands (ev):

   -47.8806 -19.8409 -19.8348 -19.8322 -10.8085   0.1045   0.8860   1.2643
     9.1568   9.9504  10.3236  12.8038  14.0877  16.3906  17.2822  18.6035

          k = 0.5833-0.2500 0.9167 (  2031 PWs)   bands (ev):

   -47.8805 -19.8412 -19.8358 -19.8329 -10.7745   0.0848   0.6980   1.1749
     9.4613   9.9299  10.5172  12.5653  14.6189  15.6464  17.7218  18.8651

          k = 0.5000-0.1667 0.8333 (  2030 PWs)   bands (ev):

   -47.8804 -19.8412 -19.8361 -19.8332 -10.7619   0.0876   0.6231   1.1380
     9.6337   9.7010  10.9648  12.2818  14.4920  16.0088  17.2948  18.9684

          k = 0.6667-0.1667 1.0000 (  2034 PWs)   bands (ev):

   -47.8805 -19.8403 -19.8358 -19.8341 -10.7636   0.0982   0.7477   1.0314
     8.9988   9.7461  10.9229  12.8645  15.0635  16.0270  17.5901  18.5047

          k = 0.5833-0.0833 0.9167 (  2033 PWs)   bands (ev):

   -47.8805 -19.8394 -19.8372 -19.8345 -10.7503   0.2221   0.5260   0.9854
     9.2388  10.1114  10.9259  12.1375  15.1761  16.2073  17.2200  18.4396

          k = 0.5000 0.0000 0.8333 (  2033 PWs)   bands (ev):

   -47.8805 -19.8395 -19.8375 -19.8338 -10.7543   0.2616   0.4489   1.0506
     9.4818  10.1958  10.6331  12.1442  15.1131  15.4617  17.9246  18.5454

          k =-0.3333-1.0000 0.0000 (  2030 PWs)   bands (ev):

   -47.8804 -19.8396 -19.8361 -19.8353 -10.7479   0.1257   0.6990   0.9209
     8.8558   9.6730  11.5912  12.4044  15.6262  16.7190  16.7783  17.8959

          k =-0.5000-1.0000 0.0000 (  2048 PWs)   bands (ev):

   -47.8806 -19.8379 -19.8379 -19.8356 -10.7449   0.3944   0.3944   0.8789
     9.3601  10.6167  10.6167  11.6188  16.1106  16.1106  16.7659  17.9224

     the Fermi energy is     2.9109 ev

!    total energy              =    -112.39967224 Ry
     estimated scf accuracy    <          9.5E-11 Ry
     smearing contrib. (-TS)   =      -0.00000000 Ry
     internal energy E=F+TS    =    -112.39967224 Ry

     The total energy is F=E-TS. E is the sum of the following terms:
     one-electron contribution =     -64.21128878 Ry
     hartree contribution      =      35.20425241 Ry
     xc contribution           =     -17.87508269 Ry
     ewald contribution        =     -65.51755318 Ry

     convergence has been achieved in   9 iterations

     Writing all to output data dir out/mp-22916.save/
 
     init_run     :      0.10s CPU      0.14s WALL (       1 calls)
     electrons    :      3.19s CPU      3.45s WALL (       1 calls)

     Called by init_run:
     wfcinit      :      0.07s CPU      0.09s WALL (       1 calls)
     potinit      :      0.01s CPU      0.01s WALL (       1 calls)
     hinit0       :      0.01s CPU      0.03s WALL (       1 calls)

     Called by electrons:
     c_bands      :      2.88s CPU      3.10s WALL (      10 calls)
     sum_band     :      0.29s CPU      0.32s WALL (      10 calls)
     v_of_rho     :      0.02s CPU      0.02s WALL (      10 calls)
     mix_rho      :      0.00s CPU      0.00s WALL (      10 calls)

     Called by c_bands:
     init_us_2    :      0.04s CPU      0.04s WALL (     756 calls)
     init_us_2:cp :      0.04s CPU      0.04s WALL (     756 calls)
     cegterg      :      2.54s CPU      2.72s WALL (     360 calls)

     Called by *egterg:
     cdiaghg      :      0.57s CPU      0.61s WALL (    2030 calls)
     h_psi        :      1.78s CPU      1.91s WALL (    2102 calls)
     g_psi        :      0.01s CPU      0.02s WALL (    1706 calls)

     Called by h_psi:
     h_psi:calbec :      0.07s CPU      0.07s WALL (    2102 calls)
     vloc_psi     :      1.65s CPU      1.77s WALL (    2102 calls)
     add_vuspsi   :      0.04s CPU      0.04s WALL (    2102 calls)

     General routines
     calbec       :      0.06s CPU      0.07s WALL (    2102 calls)
     fft          :      0.01s CPU      0.03s WALL (     100 calls)
     ffts         :      0.00s CPU      0.00s WALL (      10 calls)
     fftw         :      1.70s CPU      1.83s WALL (   43254 calls)
 
     Parallel routines
 
     PWSCF        :      3.36s CPU      3.89s WALL

 
   This run was terminated on:  11: 6:55  14Dec2023            

=------------------------------------------------------------------------------=
   JOB DONE.
=------------------------------------------------------------------------------=
