
     Program PWSCF v.7.1 starts on  6Dec2023 at  8:16:15 

     This program is part of the open-source Quantum ESPRESSO suite
     for quantum simulation of materials; please cite
         "P. Giannozzi et al., J. Phys.:Condens. Matter 21 395502 (2009);
         "P. Giannozzi et al., J. Phys.:Condens. Matter 29 465901 (2017);
         "P. Giannozzi et al., J. Chem. Phys. 152 154105 (2020);
          URL http://www.quantum-espresso.org", 
     in publications or presentations arising from this work. More details at
     http://www.quantum-espresso.org/quote

     Parallel version (MPI), running on     8 processors

     MPI processes distributed on     1 nodes
     122828 MiB available memory on the printing compute node when the environment starts
 
     Reading input from pw_mp-5967_nscf_k0_E78.in
Warning: card &IONS ignored
Warning: card / ignored
Warning: card &CELL ignored
Warning: card / ignored

     Current dimensions of program PWSCF are:
     Max number of different atomic species (ntypx) = 10
     Max number of k-points (npk) =  40000
     Max angular momentum in pseudopotentials (lmaxx) =  4

     Atomic positions and unit cell read from directory:
     out/mp-5967.save/
     Atomic positions from file used, from input discarded
 
 
     R & G space division:  proc/nbgrp/npool/nimage =       8
     Subspace diagonalization in iterative solution of the eigenvalue problem:
     one sub-group per band group will be used
     scalapack distributed-memory algorithm (size of sub-group:  2*  2 procs)

 
     Parallelization info
     --------------------
     sticks:   dense  smooth     PW     G-vecs:    dense   smooth      PW
     Min         163     163     39                 3926     3926     479
     Max         164     164     40                 3928     3928     484
     Sum        1309    1309    313                31415    31415    3839
 
     Using Slab Decomposition
 


     bravais-lattice index     =            2
     lattice parameter (alat)  =      11.0675  a.u.
     unit-cell volume          =     338.9178 (a.u.)^3
     number of atoms/cell      =            3
     number of atomic types    =            3
     number of electrons       =        44.00
     number of Kohn-Sham states=         1200
     kinetic-energy cutoff     =      78.0000  Ry
     charge density cutoff     =     312.0000  Ry
     Exchange-correlation= PBE
                           (   1   4   3   4   0   0   0)

     celldm(1)=  11.067549  celldm(2)=   0.000000  celldm(3)=   0.000000
     celldm(4)=   0.000000  celldm(5)=   0.000000  celldm(6)=   0.000000

     crystal axes: (cart. coord. in units of alat)
               a(1) = (  -0.500000   0.000000   0.500000 )  
               a(2) = (   0.000000   0.500000   0.500000 )  
               a(3) = (  -0.500000   0.500000   0.000000 )  

     reciprocal axes: (cart. coord. in units 2 pi/alat)
               b(1) = ( -1.000000 -1.000000  1.000000 )  
               b(2) = (  1.000000  1.000000  1.000000 )  
               b(3) = ( -1.000000  1.000000 -1.000000 )  


     PseudoPot. # 1 for Co read from file:
     /usr/scratch4/magr4985/MG/HTDF/pseudo/SG15/Co.upf
     MD5 check sum: 04640e31e65e5bce9f0417487be359f7
     Pseudo is Norm-conserving, Zval = 17.0
     Generated using ONCVPSP code by D. R. Hamann
     Using radial grid of  602 points,  6 beta functions with: 
                l(1) =   0
                l(2) =   0
                l(3) =   1
                l(4) =   1
                l(5) =   2
                l(6) =   2

     PseudoPot. # 2 for Sb read from file:
     /usr/scratch4/magr4985/MG/HTDF/pseudo/SG15/Sb.upf
     MD5 check sum: 0417cd6c0fe8ce4611e2b23135f1abd9
     Pseudo is Norm-conserving, Zval = 15.0
     Generated using ONCVPSP code by D. R. Hamann
     Using radial grid of  602 points,  6 beta functions with: 
                l(1) =   0
                l(2) =   0
                l(3) =   1
                l(4) =   1
                l(5) =   2
                l(6) =   2

     PseudoPot. # 3 for Ti read from file:
     /usr/scratch4/magr4985/MG/HTDF/pseudo/SG15/Ti.upf
     MD5 check sum: 1aea57736bd12dcfee93c97d0b9b5968
     Pseudo is Norm-conserving, Zval = 12.0
     Generated using ONCVPSP code by D. R. Hamann
     Using radial grid of  602 points,  6 beta functions with: 
                l(1) =   0
                l(2) =   0
                l(3) =   1
                l(4) =   1
                l(5) =   2
                l(6) =   2

     atomic species   valence    mass     pseudopotential
        Co            17.00    58.93320     Co( 1.00)
        Sb            15.00   121.76000     Sb( 1.00)
        Ti            12.00    47.86700     Ti( 1.00)

     24 Sym. Ops. (no inversion) found



   Cartesian axes

     site n.     atom                  positions (alat units)
         1           Ti  tau(   1) = (   0.0000000   0.0000000   0.0000000  )
         2           Co  tau(   2) = (  -0.2500000   0.2500000   0.2500001  )
         3           Sb  tau(   3) = (  -0.5000000   0.5000000   0.5000000  )

     number of k points=     1  Gaussian smearing, width (Ry)=  0.0005
                       cart. coord. in units 2pi/alat
        k(    1) = (   0.0000000   0.0000000   0.0000000), wk =   2.0000000

     Dense  grid:    31415 G-vectors     FFT dimensions: (  45,  45,  45)

     Estimated max dynamical RAM per process >     118.21 MB

     Estimated total dynamical RAM >     945.64 MB

     The potential is recalculated from file :
     out/mp-5967.save/charge-density

     Starting wfcs are random

     Band Structure Calculation
     Davidson diagonalization with overlap

     ethr =  5.00E-06,  avg # of iterations =  9.0

     total cpu time spent up to now is      120.1 secs

     End of band structure calculation

          k = 0.0000 0.0000 0.0000 (  3839 PWs)   bands (ev):

   -77.8728 -41.1548 -41.1548 -41.1548 -40.2780 -16.5389 -16.5389 -16.5389
   -12.0675 -12.0675 -12.0580 -12.0580 -12.0580   5.1225  13.9094  13.9094
    13.9094  14.7385  14.7385  16.3592  16.3592  16.3592  18.2292  18.2292
    19.4251  19.4251  19.4251  20.7889  24.3209  24.6589  24.6589  24.6589
    26.6063  26.6063  26.6063  29.5426  29.5426  34.7460  38.2746  38.2746
    38.2746  42.9317  42.9317  44.1446  44.1446  44.1446  44.7435  44.7435
    44.7435  49.2911  49.2911  49.2911  50.5909  50.5909  50.5909  51.0198
    52.6737  52.6737  52.6737  53.3348  54.8003  54.8003  54.8003  57.7736
    57.7736  57.7736  57.8987  57.8987  58.2465  58.2465  58.8941  58.8941
    58.8941  61.1746  62.5263  62.5263  62.5263  63.2476  63.2476  63.2476
    67.0796  71.8269  74.9868  74.9868  74.9868  77.4415  77.4415  77.4415
    78.6454  78.6454  81.8894  81.8894  81.8894  82.0383  85.3280  85.3280
    85.7535  85.7535  85.7535  87.7086  87.7086  87.7086  87.7731  87.7731
    87.7731  88.5886  88.5886  88.7688  88.7688  88.7688  88.8381  88.8381
    88.8381  91.2525  91.2525  91.2526  92.0430  92.1706  92.1706  92.7308
    92.7308  92.7308  93.8031  94.7979  94.7979  94.7979  94.9424  96.9655
    96.9655  96.9655 101.0983 101.0983 102.7818 102.7818 102.7818 105.0214
   105.5095 105.5095 105.5095 105.6023 105.6023 105.6023 106.7697 106.7697
   106.7697 106.8660 106.8660 106.8660 107.9210 107.9210 111.8032 111.8032
   111.8032 113.5144 115.0625 115.0625 115.1544 115.1544 115.1544 115.4748
   117.4264 117.4264 117.4264 117.7666 117.7666 117.7666 118.6340 118.6340
   118.6340 118.9418 119.2702 119.2702 119.2702 119.9117 122.2048 122.2048
   122.2048 126.3276 126.3276 127.5248 127.5248 127.5248 127.9431 127.9431
   129.2639 129.2639 129.2639 131.5664 131.5664 131.5664 133.7051 133.7051
   133.7051 135.8905 137.8143 137.8143 137.8143 139.3677 139.3677 140.0417
   141.0071 141.0071 141.0071 142.3222 145.1360 145.1360 145.1360 146.3599
   146.8757 146.8757 146.8757 146.9886 146.9886 146.9886 148.9238 148.9238
   148.9238 149.6792 150.0972 150.0972 150.0972 150.6750 150.6750 152.5463
   153.1786 153.1786 153.1786 153.3907 153.3907 153.3907 154.6811 154.6811
   154.6811 155.1867 155.1867 155.3328 156.6380 156.6380 156.6380 158.1797
   158.1797 158.2247 158.2247 158.2247 159.0578 159.0578 159.0578 159.1883
   159.1883 159.1883 159.4890 159.4890 159.4890 159.5264 159.5264 159.5264
   159.8412 159.8412 160.0937 160.4788 160.4788 160.4788 160.8644 160.8644
   160.8644 160.9102 160.9102 167.6406 167.7742 167.7742 167.7742 168.1803
   168.1803 169.6089 169.6089 169.6089 171.1407 171.1407 171.1407 171.2755
   171.2755 171.6172 171.6172 171.6172 172.0602 172.0602 172.0602 174.9770
   177.4150 178.8461 178.8461 179.0814 179.0814 179.0814 179.2861 179.8743
   179.8743 179.8743 181.3353 181.3353 181.3353 184.7758 184.7758 184.7758
   187.0873 187.0873 187.0873 187.1404 187.1405 187.1405 188.9329 188.9329
   188.9329 189.2761 189.2761 189.2762 189.4031 189.4031 190.1999 191.6292
   191.6292 191.6292 191.7443 191.8114 191.8114 192.4409 192.4409 192.4409
   192.5762 192.5762 192.5762 192.9267 192.9267 192.9267 193.5911 193.5911
   194.9328 194.9328 194.9328 196.7644 196.7644 200.9315 200.9315 200.9315
   202.6476 202.9131 202.9131 202.9131 204.8387 205.2820 205.2820 205.2820
   206.0159 209.4683 209.4683 212.1057 212.1057 212.1057 212.3742 212.3742
   212.3742 213.5748 213.5748 214.2362 214.2362 214.2362 214.6131 214.6131
   214.6131 216.5771 217.5276 217.5276 217.5276 219.2887 219.7488 219.7488
   219.7488 222.4784 222.4784 222.4784 222.7647 222.7647 223.1999 223.1999
   223.1999 223.2082 223.2082 223.2082 223.3935 223.3935 223.3935 223.7338
   223.7338 223.7338 224.0739 224.4625 224.4625 224.4625 224.9940 226.8439
   226.8439 227.7883 227.7883 227.7883 227.9449 227.9449 227.9449 228.0469
   228.0469 228.0469 228.3195 228.3195 228.3195 228.5698 230.4619 230.4619
   230.4619 232.5514 232.5514 234.5299 236.1544 236.1544 236.1544 236.2270
   238.4408 238.4408 238.4408 238.7319 238.7319 238.7319 238.8492 238.8492
   238.8493 239.1427 239.1427 239.3159 239.3159 239.3850 239.3850 239.3850
   240.9450 240.9450 240.9450 244.9031 245.3157 245.3157 246.1496 246.1496
   246.1496 246.1601 246.2291 246.2291 246.2291 246.3945 246.3945 246.5718
   246.5718 246.5718 246.5751 246.5751 246.5751 247.8543 247.8543 247.8543
   248.1814 248.1814 249.0670 249.0670 249.0670 249.2481 249.6889 249.6889
   249.6889 249.7421 249.7421 249.7421 249.8325 249.8325 249.8325 250.1735
   250.1735 250.1735 250.2777 250.2777 250.2777 250.3928 251.4699 253.7449
   253.7449 253.7449 255.2612 255.2612 255.8383 255.8383 255.8383 256.3365
   256.3365 256.3391 257.2197 258.0696 258.0696 258.0696 258.9414 258.9414
   259.5703 259.5703 259.5703 259.6699 259.6699 259.6699 259.8712 259.8712
   259.8712 260.4966 260.4966 260.4966 260.6729 260.6729 261.7146 261.7146
   261.7146 261.9776 261.9776 261.9776 262.1474 262.1474 262.1474 263.6704
   263.6704 263.8476 263.8595 263.8595 263.8595 266.1875 266.1875 266.1875
   267.1311 267.1332 267.1332 267.1332 270.5018 270.5018 277.2337 277.2337
   277.2337 280.5170 280.5170 280.5170 283.1721 283.7506 286.3165 286.3165
   286.8621 286.8621 286.8621 288.3372 288.3372 288.3372 289.1132 289.2488
   289.2488 289.2488 289.3502 289.3502 289.3502 289.8018 289.8018 289.8018
   290.0024 290.0024 291.0177 291.0177 291.0177 291.2320 291.9770 292.0791
   292.0791 292.0791 293.0571 293.0571 293.0571 293.2293 293.2293 293.2293
   293.4215 293.4215 293.4215 296.3662 296.3662 296.5091 296.5091 296.5091
   298.4505 298.4505 298.8288 298.8288 298.8288 299.0360 299.0360 299.0360
   299.2806 299.2806 299.2806 299.3789 299.3789 299.3789 299.5239 299.5239
   301.4153 301.4153 301.4773 301.4773 301.4773 301.5788 303.4053 303.4053
   303.4053 307.8536 307.8536 307.8536 308.1314 308.3068 308.3068 308.3068
   308.6728 308.6728 310.0455 310.0455 310.0455 310.8818 310.8818 311.2920
   311.2920 311.2920 312.8479 313.4760 313.4760 313.4760 313.5336 313.5336
   313.5336 313.6535 313.6535 313.6535 314.8417 314.8417 314.8417 314.8871
   315.0150 315.0150 315.0150 315.0673 315.0673 315.2487 315.2487 315.2487
   315.4851 315.4851 315.4851 315.9700 317.3165 317.3165 319.0063 319.0063
   319.0063 321.3483 321.3483 321.3483 321.5158 322.0816 322.0816 322.0816
   322.8269 322.8269 322.8269 323.0964 323.9355 324.2239 324.2239 326.2295
   326.2295 326.2295 326.3872 326.4184 326.4184 326.4184 326.4382 326.4382
   326.4382 329.8666 329.8666 330.1974 330.1974 330.1974 330.7736 330.7736
   330.7736 330.9164 330.9164 330.9164 331.2444 331.4068 331.4068 332.4588
   332.4588 332.4588 332.5004 332.5192 332.5192 332.5192 332.5283 332.5283
   332.5283 332.9071 332.9071 332.9186 332.9186 332.9186 333.5022 333.5022
   333.5022 333.6598 333.6598 333.6598 333.9161 334.8636 334.8636 339.9657
   339.9657 340.0442 340.0442 340.0442 341.0771 341.0771 341.0771 341.3967
   345.3014 345.3014 345.3014 345.3245 345.3245 346.4104 346.4104 346.4104
   346.5222 346.5222 346.5222 346.6301 346.6301 346.6301 346.7462 347.3205
   347.3205 347.3205 347.4194 347.4509 347.4509 347.4509 347.6694 347.6694
   349.0768 349.0768 349.0768 352.2850 353.2698 353.6705 353.6705 353.6705
   355.1661 355.1661 355.1661 355.4452 355.4452 355.4452 355.5464 355.5464
   355.5464 355.7520 355.7520 358.9200 358.9200 359.3158 359.3158 359.3158
   360.4259 360.4259 360.4259 361.3825 361.3825 361.3825 361.5281 361.7229
   361.7229 361.7229 361.9359 361.9359 361.9359 362.0501 362.2156 362.2156
   362.2233 362.2233 362.2233 363.0130 363.0130 363.0130 363.2962 363.2962
   363.2962 363.4469 363.4469 363.4469 363.4897 363.4897 363.4897 364.5429
   364.5429 364.5780 364.5780 364.5780 365.3600 365.3600 365.3600 365.5382
   365.5382 365.5382 365.6465 365.6465 365.8861 365.8861 365.8861 365.9528
   365.9528 366.4004 366.4004 366.4004 366.4440 366.5221 366.5221 366.5221
   366.8101 367.2042 367.2042 367.2042 367.4912 367.4912 367.4912 367.6845
   369.8610 369.8610 369.9586 369.9586 369.9586 370.0882 370.0882 370.0882
   370.5866 370.5866 370.5866 370.6505 370.7647 370.7647 370.7647 371.0769
   371.0769 371.0769 371.0929 371.0929 371.0929 371.1395 371.1395 371.4775
   371.4775 371.4775 371.6935 372.8378 373.0026 382.6760 382.6760 385.5500
   385.5500 385.9498 385.9498 385.9498 386.3664 386.3664 386.3664 386.4503
   386.4503 386.4503 386.5595 386.5595 386.5595 386.9109 386.9109 388.0519
   388.0519 388.0520 388.4963 388.4963 388.4964 388.8897 389.1205 389.1205
   389.1205 389.7699 389.7699 389.7699 389.8153 389.8153 389.8153 389.8276
   389.8276 394.7295 394.7295 394.7295 395.9857 395.9857 396.0426 396.0426
   396.0426 396.0465 396.3177 398.4906 398.4906 398.4906 401.7276 401.7276
   401.7276 401.8582 401.8582 401.8582 401.8718 401.8718 401.8718 403.8093
   403.8093 403.8259 403.8544 403.8544 403.8544 406.8310 406.8310 406.8310
   410.4468 410.4468 411.6508 411.6508 411.6508 414.9177 414.9177 414.9177
   415.8561 416.0221 416.3665 416.3665 416.4776 416.4776 416.4776 416.4809
   416.4809 416.4809 416.5696 416.5696 416.6327 416.6327 416.6327 416.6370
   416.6370 416.6370 418.1868 418.1868 418.1868 419.2987 419.7469 420.5599
   420.5599 420.5599 421.1712 421.1712 422.1110 422.1110 422.1110 422.1206
   422.1206 422.1207 423.3214 423.3214 423.3214 423.5795 423.8567 424.1982
   424.1982 424.1982 424.3848 424.3848 425.6894 425.6894 425.6894 427.0893
   427.0893 427.0893 427.4704 427.4704 427.5216 429.0327 429.0327 429.0327
   429.7720 429.7720 429.7720 430.0131 430.0131 430.0131 430.4364 430.4364
   430.5360 430.5360 430.5360 431.0640 431.0640 431.0640 431.1719 431.1719
   431.1719 431.2266 432.2626 433.0380 433.0380 433.0380 433.0784 433.0784
   433.7217 433.7217 433.7217 434.1113 434.1113 434.1113 434.1247 434.1247
   434.7846 435.1546 435.1546 435.1546 435.2330 435.2330 435.2330 435.3387
   435.3387 435.3387 435.3799 435.3799 435.3832 435.3832 435.3832 437.9971
   438.0350 438.0350 438.0350 438.0754 438.0754 438.0754 438.2207 438.2207
   438.2681 438.2681 438.2681 443.1645 443.1645 445.9758 445.9758 445.9758
   446.6286 446.6286 446.6286 447.4395 448.9762 448.9762 449.0792 449.0792
   449.0792 449.2301 449.2301 449.2301 449.9721 450.0242 450.0242 450.0242
   450.1113 450.1113 450.1141 450.1141 450.1141 450.1802 450.1802 450.1802
   450.7974 450.8741 450.8741 450.8741 451.1279 451.1279 451.1279 451.1557
   451.1557 451.1557 451.2341 451.2341 451.2341 455.7279 455.7987 455.7987
   456.1641 456.1641 456.1641 456.4885 456.4885 456.4885 456.5819 456.5819
   456.5819 457.5476 457.5476 457.5872 457.5872 457.5872 457.6480 457.6480
   457.6480 457.6625 457.6625 457.6625 457.6833 458.0761 458.0761 458.0761
   459.5491 459.5491 459.6683 459.6683 459.6683 459.8373 459.8627 459.8627
   460.2870 460.2870 460.2870 461.1513 461.1513 461.1513 461.4214 461.4214
   461.4793 461.4793 461.4793 461.7215 461.7239 461.8957 461.8957 461.8957
   461.9190 461.9190 462.0140 462.0140 462.0140 462.1274 462.1274 462.1274
   463.4799 463.4799 463.4799 464.9147 465.4408 465.8058 465.8058 465.8058
   465.9289 465.9289 466.1724 466.1724 466.1724 466.4106 466.4106 466.4106
   467.6021 467.6562 467.6562 467.6636 467.6636 467.6636 467.7067 467.7067
   467.7067 468.4726 468.4726 468.4727 468.6609 468.6609 468.6609 468.9409

     the Fermi energy is    17.1380 ev
     (compare with:    16.5343 eV, computed in scf)

     Writing all to output data dir out/mp-5967.save/
 
     init_run     :      0.05s CPU      0.07s WALL (       1 calls)
     electrons    :    111.16s CPU    119.80s WALL (       1 calls)

     Called by init_run:
     wfcinit      :      0.00s CPU      0.00s WALL (       1 calls)
     potinit      :      0.02s CPU      0.02s WALL (       1 calls)
     hinit0       :      0.01s CPU      0.03s WALL (       1 calls)

     Called by electrons:
     c_bands      :    111.16s CPU    119.79s WALL (       1 calls)
     v_of_rho     :      0.01s CPU      0.01s WALL (       1 calls)

     Called by c_bands:
     init_us_2    :      0.00s CPU      0.00s WALL (       1 calls)
     init_us_2:cp :      0.00s CPU      0.00s WALL (       1 calls)
     cegterg      :    108.54s CPU    116.98s WALL (       1 calls)

     Called by *egterg:
     cdiaghg      :    101.10s CPU    109.43s WALL (      10 calls)
     h_psi        :      2.19s CPU      2.27s WALL (      11 calls)
     g_psi        :      0.01s CPU      0.01s WALL (       9 calls)

     Called by h_psi:
     h_psi:calbec :      0.06s CPU      0.06s WALL (      11 calls)
     vloc_psi     :      2.07s CPU      2.14s WALL (      11 calls)
     add_vuspsi   :      0.05s CPU      0.05s WALL (      11 calls)

     General routines
     calbec       :      0.06s CPU      0.06s WALL (      11 calls)
     fft          :      0.01s CPU      0.02s WALL (      10 calls)
     fftw         :      1.88s CPU      1.94s WALL (   14900 calls)
 
     Parallel routines
 
     PWSCF        :   1m51.47s CPU   2m 0.22s WALL

 
   This run was terminated on:   8:18:15   6Dec2023            

=------------------------------------------------------------------------------=
   JOB DONE.
=------------------------------------------------------------------------------=
