
     Program PWSCF v.7.1 starts on  5Dec2023 at  3:39:14 

     This program is part of the open-source Quantum ESPRESSO suite
     for quantum simulation of materials; please cite
         "P. Giannozzi et al., J. Phys.:Condens. Matter 21 395502 (2009);
         "P. Giannozzi et al., J. Phys.:Condens. Matter 29 465901 (2017);
         "P. Giannozzi et al., J. Chem. Phys. 152 154105 (2020);
          URL http://www.quantum-espresso.org", 
     in publications or presentations arising from this work. More details at
     http://www.quantum-espresso.org/quote

     Parallel version (MPI), running on    24 processors

     MPI processes distributed on     1 nodes
     121676 MiB available memory on the printing compute node when the environment starts
 
     Reading input from pw_mp-1342_scf_k3000_E72.in
Warning: card &CELL ignored
Warning: card / ignored

     Current dimensions of program PWSCF are:
     Max number of different atomic species (ntypx) = 10
     Max number of k-points (npk) =  40000
     Max angular momentum in pseudopotentials (lmaxx) =  4
 
     K-points division:     npool     =       2
     R & G space division:  proc/nbgrp/npool/nimage =      12
     Subspace diagonalization in iterative solution of the eigenvalue problem:
     a serial algorithm will be used

 
     Parallelization info
     --------------------
     sticks:   dense  smooth     PW     G-vecs:    dense   smooth      PW
     Min          92      92     26                 2017     2017     319
     Max          94      94     27                 2018     2018     324
     Sum        1111    1111    313                24213    24213    3839
 
     Using Slab Decomposition
 


     bravais-lattice index     =            2
     lattice parameter (alat)  =      10.5462  a.u.
     unit-cell volume          =     293.2392 (a.u.)^3
     number of atoms/cell      =            2
     number of atomic types    =            2
     number of electrons       =        16.00
     number of Kohn-Sham states=           16
     kinetic-energy cutoff     =      72.0000  Ry
     charge density cutoff     =     288.0000  Ry
     scf convergence threshold =      1.0E-10
     mixing beta               =       0.7000
     number of iterations used =            8  plain     mixing
     Exchange-correlation= PBE
                           (   1   4   3   4   0   0   0)

     celldm(1)=  10.546151  celldm(2)=   0.000000  celldm(3)=   0.000000
     celldm(4)=   0.000000  celldm(5)=   0.000000  celldm(6)=   0.000000

     crystal axes: (cart. coord. in units of alat)
               a(1) = (  -0.500000   0.000000   0.500000 )  
               a(2) = (   0.000000   0.500000   0.500000 )  
               a(3) = (  -0.500000   0.500000   0.000000 )  

     reciprocal axes: (cart. coord. in units 2 pi/alat)
               b(1) = ( -1.000000 -1.000000  1.000000 )  
               b(2) = (  1.000000  1.000000  1.000000 )  
               b(3) = ( -1.000000  1.000000 -1.000000 )  


     PseudoPot. # 1 for Ba read from file:
     /usr/scratch4/magr4985/MG/HTDF/pseudo/SG15/Ba.upf
     MD5 check sum: ac4691792522964bb0504809e83fae44
     Pseudo is Norm-conserving, Zval = 10.0
     Generated using ONCVPSP code by D. R. Hamann
     Using radial grid of  602 points,  8 beta functions with: 
                l(1) =   0
                l(2) =   0
                l(3) =   1
                l(4) =   1
                l(5) =   2
                l(6) =   2
                l(7) =   3
                l(8) =   3

     PseudoPot. # 2 for O  read from file:
     /usr/scratch4/magr4985/MG/HTDF/pseudo/SG15/O.upf
     MD5 check sum: e36c48deb68f4e355fffe4602be2c42c
     Pseudo is Norm-conserving, Zval =  6.0
     Generated using ONCVPSP code by D. R. Hamann
     Using radial grid of  602 points,  4 beta functions with: 
                l(1) =   0
                l(2) =   0
                l(3) =   1
                l(4) =   1

     atomic species   valence    mass     pseudopotential
        Ba            10.00   137.32700     Ba( 1.00)
        O              6.00    15.99940     O ( 1.00)

     48 Sym. Ops., with inversion, found



   Cartesian axes

     site n.     atom                  positions (alat units)
         1           Ba  tau(   1) = (   0.0000000   0.0000000   0.0000000  )
         2           O   tau(   2) = (  -0.5000000   0.5000000   0.5000000  )

     number of k points=    72  Gaussian smearing, width (Ry)=  0.0005
                       cart. coord. in units 2pi/alat
        k(    1) = (   0.0000000   0.0000000   0.0000000), wk =   0.0011574
        k(    2) = (  -0.0833333   0.0833333  -0.0833333), wk =   0.0092593
        k(    3) = (  -0.1666667   0.1666667  -0.1666667), wk =   0.0092593
        k(    4) = (  -0.2500000   0.2500000  -0.2500000), wk =   0.0092593
        k(    5) = (  -0.3333333   0.3333333  -0.3333333), wk =   0.0092593
        k(    6) = (  -0.4166667   0.4166667  -0.4166667), wk =   0.0092593
        k(    7) = (   0.5000000  -0.5000000   0.5000000), wk =   0.0046296
        k(    8) = (   0.0000000   0.1666667   0.0000000), wk =   0.0069444
        k(    9) = (  -0.0833333   0.2500000  -0.0833333), wk =   0.0277778
        k(   10) = (  -0.1666667   0.3333333  -0.1666667), wk =   0.0277778
        k(   11) = (  -0.2500000   0.4166667  -0.2500000), wk =   0.0277778
        k(   12) = (  -0.3333333   0.5000000  -0.3333333), wk =   0.0277778
        k(   13) = (   0.5833333  -0.4166667   0.5833333), wk =   0.0277778
        k(   14) = (   0.5000000  -0.3333333   0.5000000), wk =   0.0277778
        k(   15) = (   0.4166667  -0.2500000   0.4166667), wk =   0.0277778
        k(   16) = (   0.3333333  -0.1666667   0.3333333), wk =   0.0277778
        k(   17) = (   0.2500000  -0.0833333   0.2500000), wk =   0.0277778
        k(   18) = (   0.1666667  -0.0000000   0.1666667), wk =   0.0138889
        k(   19) = (   0.0000000   0.3333333   0.0000000), wk =   0.0069444
        k(   20) = (  -0.0833333   0.4166667  -0.0833333), wk =   0.0277778
        k(   21) = (  -0.1666667   0.5000000  -0.1666667), wk =   0.0277778
        k(   22) = (  -0.2500000   0.5833333  -0.2500000), wk =   0.0277778
        k(   23) = (   0.6666667  -0.3333333   0.6666667), wk =   0.0277778
        k(   24) = (   0.5833333  -0.2500000   0.5833333), wk =   0.0277778
        k(   25) = (   0.5000000  -0.1666667   0.5000000), wk =   0.0277778
        k(   26) = (   0.4166667  -0.0833333   0.4166667), wk =   0.0277778
        k(   27) = (   0.3333333   0.0000000   0.3333333), wk =   0.0138889
        k(   28) = (   0.0000000   0.5000000   0.0000000), wk =   0.0069444
        k(   29) = (  -0.0833333   0.5833333  -0.0833333), wk =   0.0277778
        k(   30) = (  -0.1666667   0.6666667  -0.1666667), wk =   0.0277778
        k(   31) = (   0.7500000  -0.2500000   0.7500000), wk =   0.0277778
        k(   32) = (   0.6666667  -0.1666667   0.6666667), wk =   0.0277778
        k(   33) = (   0.5833333  -0.0833333   0.5833333), wk =   0.0277778
        k(   34) = (   0.5000000   0.0000000   0.5000000), wk =   0.0138889
        k(   35) = (   0.0000000   0.6666667   0.0000000), wk =   0.0069444
        k(   36) = (  -0.0833333   0.7500000  -0.0833333), wk =   0.0277778
        k(   37) = (   0.8333333  -0.1666667   0.8333333), wk =   0.0277778
        k(   38) = (   0.7500000  -0.0833333   0.7500000), wk =   0.0277778
        k(   39) = (   0.6666667  -0.0000000   0.6666667), wk =   0.0138889
        k(   40) = (   0.0000000   0.8333333   0.0000000), wk =   0.0069444
        k(   41) = (   0.9166667  -0.0833333   0.9166667), wk =   0.0277778
        k(   42) = (   0.8333333   0.0000000   0.8333333), wk =   0.0138889
        k(   43) = (   0.0000000  -1.0000000   0.0000000), wk =   0.0034722
        k(   44) = (  -0.1666667   0.3333333   0.0000000), wk =   0.0277778
        k(   45) = (  -0.2500000   0.4166667  -0.0833333), wk =   0.0555556
        k(   46) = (  -0.3333333   0.5000000  -0.1666667), wk =   0.0555556
        k(   47) = (   0.5833333  -0.4166667   0.7500000), wk =   0.0555556
        k(   48) = (   0.5000000  -0.3333333   0.6666667), wk =   0.0277778
        k(   49) = (  -0.1666667   0.5000000   0.0000000), wk =   0.0277778
        k(   50) = (  -0.2500000   0.5833333  -0.0833333), wk =   0.0555556
        k(   51) = (   0.6666667  -0.3333333   0.8333333), wk =   0.0555556
        k(   52) = (   0.5833333  -0.2500000   0.7500000), wk =   0.0555556
        k(   53) = (   0.5000000  -0.1666667   0.6666667), wk =   0.0555556
        k(   54) = (   0.4166667  -0.0833333   0.5833333), wk =   0.0555556
        k(   55) = (   0.3333333   0.0000000   0.5000000), wk =   0.0277778
        k(   56) = (  -0.1666667   0.6666667  -0.0000000), wk =   0.0277778
        k(   57) = (   0.7500000  -0.2500000   0.9166667), wk =   0.0555556
        k(   58) = (   0.6666667  -0.1666667   0.8333333), wk =   0.0555556
        k(   59) = (   0.5833333  -0.0833333   0.7500000), wk =   0.0555556
        k(   60) = (   0.5000000   0.0000000   0.6666667), wk =   0.0277778
        k(   61) = (   0.8333333  -0.1666667   1.0000000), wk =   0.0277778
        k(   62) = (   0.7500000  -0.0833333   0.9166667), wk =   0.0555556
        k(   63) = (   0.6666667   0.0000000   0.8333333), wk =   0.0277778
        k(   64) = (  -0.1666667  -1.0000000  -0.0000000), wk =   0.0138889
        k(   65) = (   0.6666667  -0.3333333   1.0000000), wk =   0.0277778
        k(   66) = (   0.5833333  -0.2500000   0.9166667), wk =   0.0555556
        k(   67) = (   0.5000000  -0.1666667   0.8333333), wk =   0.0277778
        k(   68) = (   0.6666667  -0.1666667   1.0000000), wk =   0.0277778
        k(   69) = (   0.5833333  -0.0833333   0.9166667), wk =   0.0555556
        k(   70) = (   0.5000000   0.0000000   0.8333333), wk =   0.0277778
        k(   71) = (  -0.3333333  -1.0000000   0.0000000), wk =   0.0138889
        k(   72) = (  -0.5000000  -1.0000000   0.0000000), wk =   0.0069444

     Dense  grid:    24213 G-vectors     FFT dimensions: (  45,  45,  45)

     Estimated max dynamical RAM per process >       8.52 MB

     Estimated total dynamical RAM >     198.46 MB

     Initial potential from superposition of free atoms

     starting charge      15.6072, renormalised to      16.0000
     Starting wfcs are random

     total cpu time spent up to now is        0.3 secs

     Self-consistent Calculation

     iteration #  1     ecut=    72.00 Ry     beta= 0.70
     Davidson diagonalization with overlap
     ethr =  1.00E-02,  avg # of iterations = 10.4

     total cpu time spent up to now is        1.7 secs

     total energy              =     -83.37286409 Ry
     estimated scf accuracy    <       0.50841325 Ry

     iteration #  2     ecut=    72.00 Ry     beta= 0.70
     Davidson diagonalization with overlap
     ethr =  3.18E-03,  avg # of iterations =  2.1

     total cpu time spent up to now is        2.4 secs

     total energy              =     -83.18404251 Ry
     estimated scf accuracy    <       2.38312544 Ry

     iteration #  3     ecut=    72.00 Ry     beta= 0.70
     Davidson diagonalization with overlap
     ethr =  3.18E-03,  avg # of iterations =  2.0

     total cpu time spent up to now is        3.1 secs

     total energy              =     -83.63166715 Ry
     estimated scf accuracy    <       0.03772693 Ry

     iteration #  4     ecut=    72.00 Ry     beta= 0.70
     Davidson diagonalization with overlap
     ethr =  2.36E-04,  avg # of iterations =  3.5

     total cpu time spent up to now is        3.7 secs

     total energy              =     -83.63744795 Ry
     estimated scf accuracy    <       0.00018725 Ry

     iteration #  5     ecut=    72.00 Ry     beta= 0.70
     Davidson diagonalization with overlap
     c_bands:  1 eigenvalues not converged
     c_bands:  1 eigenvalues not converged
     c_bands:  1 eigenvalues not converged
     c_bands:  1 eigenvalues not converged
     c_bands:  1 eigenvalues not converged
     c_bands:  2 eigenvalues not converged
     c_bands:  2 eigenvalues not converged
     c_bands:  3 eigenvalues not converged
     c_bands:  2 eigenvalues not converged
     c_bands:  1 eigenvalues not converged
     c_bands:  1 eigenvalues not converged
     c_bands:  3 eigenvalues not converged
     c_bands:  1 eigenvalues not converged
     c_bands:  1 eigenvalues not converged
     c_bands:  1 eigenvalues not converged
     c_bands:  1 eigenvalues not converged
     c_bands:  2 eigenvalues not converged
     c_bands:  1 eigenvalues not converged
     c_bands:  1 eigenvalues not converged
     c_bands:  1 eigenvalues not converged
     c_bands:  1 eigenvalues not converged
     c_bands:  2 eigenvalues not converged
     c_bands:  1 eigenvalues not converged
     c_bands:  2 eigenvalues not converged
     c_bands:  1 eigenvalues not converged
     c_bands:  1 eigenvalues not converged
     c_bands:  1 eigenvalues not converged
     c_bands:  2 eigenvalues not converged
     c_bands:  2 eigenvalues not converged
     c_bands:  1 eigenvalues not converged
     c_bands:  2 eigenvalues not converged
     ethr =  1.17E-06,  avg # of iterations = 19.4

     total cpu time spent up to now is        5.9 secs

     total energy              =     -83.63831494 Ry
     estimated scf accuracy    <       0.00007895 Ry

     iteration #  6     ecut=    72.00 Ry     beta= 0.70
     Davidson diagonalization with overlap
     c_bands:  1 eigenvalues not converged
     ethr =  4.93E-07,  avg # of iterations =  8.4

     total cpu time spent up to now is        6.7 secs

     total energy              =     -83.63833572 Ry
     estimated scf accuracy    <       0.00002363 Ry

     iteration #  7     ecut=    72.00 Ry     beta= 0.70
     Davidson diagonalization with overlap
     ethr =  1.48E-07,  avg # of iterations =  1.6

     total cpu time spent up to now is        7.2 secs

     total energy              =     -83.63833912 Ry
     estimated scf accuracy    <       0.00000014 Ry

     iteration #  8     ecut=    72.00 Ry     beta= 0.70
     Davidson diagonalization with overlap
     c_bands:  1 eigenvalues not converged
     c_bands:  1 eigenvalues not converged
     ethr =  8.66E-10,  avg # of iterations =  6.4

     total cpu time spent up to now is        7.9 secs

     total energy              =     -83.63833931 Ry
     estimated scf accuracy    <       0.00000018 Ry

     iteration #  9     ecut=    72.00 Ry     beta= 0.70
     Davidson diagonalization with overlap
     ethr =  8.66E-10,  avg # of iterations =  2.0

     total cpu time spent up to now is        8.5 secs

     total energy              =     -83.63833934 Ry
     estimated scf accuracy    <          8.0E-10 Ry

     iteration # 10     ecut=    72.00 Ry     beta= 0.70
     Davidson diagonalization with overlap
     ethr =  5.01E-12,  avg # of iterations =  5.6

     total cpu time spent up to now is        9.3 secs

     total energy              =     -83.63833934 Ry
     estimated scf accuracy    <          2.1E-09 Ry

     iteration # 11     ecut=    72.00 Ry     beta= 0.70
     Davidson diagonalization with overlap
     ethr =  5.01E-12,  avg # of iterations =  1.9

     total cpu time spent up to now is        9.8 secs

     total energy              =     -83.63833934 Ry
     estimated scf accuracy    <          3.5E-10 Ry

     iteration # 12     ecut=    72.00 Ry     beta= 0.70
     Davidson diagonalization with overlap
     ethr =  2.18E-12,  avg # of iterations =  2.0

     total cpu time spent up to now is       10.3 secs

     End of self-consistent calculation

          k = 0.0000 0.0000 0.0000 (  2975 PWs)   bands (ev):

   -17.5999  -6.7120  -2.1665  -2.1665  -2.1665   7.8289   7.8289   7.8289
    11.7229  12.9738  12.9738  12.9738  15.1829  15.1829  15.7431  18.6328

          k =-0.0833 0.0833-0.0833 (  3026 PWs)   bands (ev):

   -17.5848  -6.7570  -2.1835  -2.1745  -2.1745   7.6814   7.7487   7.7487
    12.0181  12.8535  13.0886  13.0886  15.3438  15.3438  16.0671  18.6210

          k =-0.1667 0.1667-0.1667 (  3017 PWs)   bands (ev):

   -17.5434  -6.8793  -2.2284  -2.1960  -2.1960   7.3405   7.5448   7.5448
    12.5761  12.8996  13.4206  13.4206  15.7801  15.7801  16.7719  18.4839

          k =-0.2500 0.2500-0.2500 (  3001 PWs)   bands (ev):

   -17.4856  -7.0467  -2.2865  -2.2250  -2.2250   6.9565   7.2908   7.2908
    12.6162  13.8760  13.9299  13.9299  16.3744  16.3744  17.4703  18.3487

          k =-0.3333 0.3333-0.3333 (  3004 PWs)   bands (ev):

   -17.4265  -7.2147  -2.3410  -2.2534  -2.2534   6.6258   7.0591   7.0591
    12.7894  14.5388  14.5388  14.8648  16.9526  16.9526  17.9753  18.3476

          k =-0.4167 0.4167-0.4167 (  3004 PWs)   bands (ev):

   -17.3824  -7.3379  -2.3788  -2.2739  -2.2739   6.4062   6.9010   6.9010
    13.0326  15.1011  15.1011  15.4313  17.2513  17.2513  18.3801  18.3864

          k = 0.5000-0.5000 0.5000 (  3040 PWs)   bands (ev):

   -17.3660  -7.3833  -2.3923  -2.2813  -2.2813   6.3291   6.8449   6.8449
    13.1530  15.3548  15.3548  15.5483  17.2636  17.2637  18.5929  18.5944

          k = 0.0000 0.1667 0.0000 (  3019 PWs)   bands (ev):

   -17.5799  -6.7683  -2.2051  -2.2051  -2.1428   7.4938   7.8194   7.8194
    12.0723  12.6149  13.2336  13.2336  15.2597  15.5320  16.1512  18.5647

          k =-0.0833 0.2500-0.0833 (  3011 PWs)   bands (ev):

   -17.5474  -6.8553  -2.2530  -2.2460  -2.1496   7.2064   7.7032   7.7381
    12.3659  12.5886  13.5308  13.5862  15.4930  15.9715  16.6849  18.4616

          k =-0.1667 0.3333-0.1667 (  3012 PWs)   bands (ev):

   -17.4953  -6.9958  -2.3117  -2.2860  -2.1923   6.9366   7.4382   7.5400
    12.3178  13.3577  14.0183  14.1000  15.9909  16.5103  17.3492  18.3491

          k =-0.2500 0.4167-0.2500 (  3010 PWs)   bands (ev):

   -17.4368  -7.1526  -2.3664  -2.3145  -2.2562   6.7203   7.1544   7.2964
    12.4950  14.0142  14.6905  14.8353  16.6282  16.9149  17.9153  18.3035

          k =-0.3333 0.5000-0.3333 (  3023 PWs)   bands (ev):

   -17.3876  -7.2833  -2.4089  -2.3241  -2.3184   6.5595   6.9645   7.0752
    12.8246  14.4447  15.2143  15.6517  17.0928  17.1651  18.1712  18.2228

          k = 0.5833-0.4167 0.5833 (  3021 PWs)   bands (ev):

   -17.3619  -7.3518  -2.4423  -2.3506  -2.3126   6.4594   6.9246   6.9278
    13.1088  14.6331  15.4300  16.0674  17.2411  17.3033  18.1448  18.3857

          k = 0.5000-0.3333 0.5000 (  3019 PWs)   bands (ev):

   -17.3673  -7.3393  -2.4616  -2.3424  -2.2830   6.4535   6.8722   7.0309
    13.0898  14.6893  15.1503  16.0181  17.2334  17.3440  17.9985  18.5561

          k = 0.4167-0.2500 0.4167 (  3021 PWs)   bands (ev):

   -17.4022  -7.2495  -2.4503  -2.3072  -2.2428   6.5640   6.9274   7.2336
    12.8213  14.5267  14.5724  15.4953  16.9559  17.2498  18.0680  18.4208

          k = 0.3333-0.1667 0.3333 (  3006 PWs)   bands (ev):

   -17.4562  -7.1074  -2.4030  -2.2601  -2.2026   6.7844   7.0824   7.4833
    12.5700  13.9521  13.9647  14.7440  16.5017  16.8333  17.7306  18.2665

          k = 0.2500-0.0833 0.2500 (  3008 PWs)   bands (ev):

   -17.5143  -6.9518  -2.3283  -2.2150  -2.1731   7.0859   7.3085   7.7052
    12.4960  13.1382  13.4731  14.0582  15.9185  16.2555  17.1379  18.3635

          k = 0.1667-0.0000 0.1667 (  3020 PWs)   bands (ev):

   -17.5611  -6.8240  -2.2456  -2.1849  -2.1628   7.4186   7.5546   7.8079
    12.4148  12.6382  13.1702  13.4913  15.4824  15.7107  16.4883  18.5102

          k = 0.0000 0.3333 0.0000 (  3010 PWs)   bands (ev):

   -17.5254  -6.8875  -2.3089  -2.3089  -2.1741   7.0061   7.8167   7.8167
    11.9252  12.7256  13.9499  13.9499  15.4844  16.3601  16.9420  18.4018

          k =-0.0833 0.4167-0.0833 (  3006 PWs)   bands (ev):

   -17.4827  -6.9694  -2.3744  -2.3676  -2.2658   6.8854   7.7151   7.7525
    11.7095  13.2215  14.4274  14.4599  15.7864  16.7457  17.4132  18.3906

          k =-0.1667 0.5000-0.1667 (  3008 PWs)   bands (ev):

   -17.4302  -7.0801  -2.4382  -2.4070  -2.3902   6.8542   7.4618   7.5761
    11.7943  13.8609  15.0018  15.0154  16.3626  16.9034  17.9003  18.3065

          k =-0.2500 0.5833-0.2500 (  3022 PWs)   bands (ev):

   -17.3816  -7.1888  -2.5481  -2.4496  -2.4174   6.8783   7.1989   7.3516
    12.1560  14.2660  15.4776  15.6619  16.9051  17.0641  18.0262  18.2431

          k = 0.6667-0.3333 0.6667 (  3033 PWs)   bands (ev):

   -17.3507  -7.2642  -2.6565  -2.4502  -2.3962   6.7962   7.1411   7.1622
    12.6929  14.2149  15.6548  16.1562  17.0449  17.4114  18.1133  18.1699

          k = 0.5833-0.2500 0.5833 (  3028 PWs)   bands (ev):

   -17.3464  -7.2851  -2.7116  -2.4180  -2.3485   6.6586   6.9906   7.3278
    13.1196  13.9920  15.3715  16.1612  17.2677  17.4343  17.9211  18.5060

          k = 0.5000-0.1667 0.5000 (  3025 PWs)   bands (ev):

   -17.3699  -7.2470  -2.6965  -2.3635  -2.2863   6.6110   6.9274   7.5351
    12.9441  14.1222  14.7990  15.7009  17.2086  17.4512  18.0196  18.4420

          k = 0.4167-0.0833 0.4167 (  3024 PWs)   bands (ev):

   -17.4144  -7.1622  -2.6116  -2.3011  -2.2260   6.6728   6.9647   7.7109
    12.6107  14.0101  14.2081  15.2221  16.9473  17.2459  17.9864  18.4125

          k = 0.3333 0.0000 0.3333 (  3000 PWs)   bands (ev):

   -17.4673  -7.0545  -2.4766  -2.2470  -2.1842   6.8377   7.0994   7.7831
    12.4467  13.5522  13.7439  14.7437  16.4040  16.7945  17.5984  18.2420

          k = 0.0000 0.5000 0.0000 (  3042 PWs)   bands (ev):

   -17.4511  -6.9770  -2.4471  -2.4471  -2.4284   6.9349   7.8526   7.8526
    11.2656  13.3769  14.9717  14.9717  15.8390  16.8592  17.6592  18.5605

          k =-0.0833 0.5833-0.0833 (  3019 PWs)   bands (ev):

   -17.4084  -7.0166  -2.6331  -2.5094  -2.5044   7.0730   7.7735   7.8107
    11.1370  13.8188  15.4629  15.5015  16.2307  16.8416  17.9722  18.3397

          k =-0.1667 0.6667-0.1667 (  3031 PWs)   bands (ev):

   -17.3659  -7.0769  -2.8278  -2.5450  -2.5256   7.2592   7.5406   7.6526
    11.3478  14.3463  15.5856  15.8765  16.9520  17.0041  17.9909  18.2467

          k = 0.7500-0.2500 0.7500 (  3022 PWs)   bands (ev):

   -17.3352  -7.1393  -2.9674  -2.5443  -2.5059   7.2182   7.4367   7.5039
    11.8530  14.4578  15.6025  16.0231  17.2429  17.5554  17.8167  18.3424

          k = 0.6667-0.1667 0.6667 (  3028 PWs)   bands (ev):

   -17.3251  -7.1865  -3.0186  -2.5072  -2.4496   6.9621   7.2199   7.6920
    12.5551  13.9736  15.7626  15.7825  17.2657  17.4727  18.2332  18.3625

          k = 0.5833-0.0833 0.5833 (  3032 PWs)   bands (ev):

   -17.3383  -7.2073  -2.9663  -2.4426  -2.3702   6.7701   7.0485   7.8219
    13.2014  13.4861  15.2088  15.6236  17.2905  17.5207  18.2125  18.4382

          k = 0.5000 0.0000 0.5000 (  3042 PWs)   bands (ev):

   -17.3712  -7.1983  -2.8189  -2.3673  -2.2880   6.6696   6.9557   7.8368
    12.8669  13.8877  14.6425  15.3581  17.2583  17.4882  18.1897  18.3775

          k = 0.0000 0.6667 0.0000 (  3042 PWs)   bands (ev):

   -17.3771  -6.9787  -2.8947  -2.5814  -2.5814   7.3469   7.9251   7.9251
    10.7562  13.9339  16.1069  16.1069  16.2889  16.6370  18.1436  18.3074

          k =-0.0833 0.7500-0.0833 (  3023 PWs)   bands (ev):

   -17.3445  -6.9751  -3.1228  -2.6251  -2.6198   7.6256   7.8551   7.8910
    10.7319  14.2494  15.9964  16.3750  16.9076  17.0642  18.0183  18.3056

          k = 0.8333-0.1667 0.8333 (  3044 PWs)   bands (ev):

   -17.3195  -7.0075  -3.2652  -2.6305  -2.6110   7.6157   7.7318   7.8596
    11.0620  14.6678  15.3849  16.5033  17.5250  17.5413  17.7160  18.4169

          k = 0.7500-0.0833 0.7500 (  3034 PWs)   bands (ev):

   -17.3090  -7.0680  -3.2877  -2.5953  -2.5567   7.3127   7.5009   7.9948
    11.6855  14.5446  15.2142  16.2960  17.3944  17.4480  18.2677  18.4108

          k = 0.6667-0.0000 0.6667 (  3024 PWs)   bands (ev):

   -17.3160  -7.1413  -3.1808  -2.5272  -2.4693   7.0154   7.2554   7.9887
    12.5010  13.8696  15.4948  15.7545  17.2889  17.4671  18.3901  18.4955

          k = 0.0000 0.8333 0.0000 (  3026 PWs)   bands (ev):

   -17.3233  -6.9110  -3.3566  -2.6773  -2.6773   7.9297   7.9978   7.9978
    10.4395  14.1737  16.4979  16.7698  17.1417  17.1418  17.9690  18.3600

          k = 0.9167-0.0833 0.9167 (  3015 PWs)   bands (ev):

   -17.3079  -6.9053  -3.4762  -2.6905  -2.6852   7.9136   7.9488   8.1189
    10.5242  14.3129  16.0841  16.9563  17.4658  17.7274  17.8165  18.2683

          k = 0.8333 0.0000 0.8333 (  3028 PWs)   bands (ev):

   -17.3027  -6.9634  -3.4524  -2.6613  -2.6419   7.6545   7.7655   8.1469
    10.9644  14.6776  15.3274  16.8846  17.2296  17.6932  18.1752  18.3631

          k = 0.0000-1.0000 0.0000 (  3026 PWs)   bands (ev):

   -17.3036  -6.8667  -3.5524  -2.7119  -2.7119   8.0280   8.0280   8.2117
    10.3324  14.1535  16.5703  17.0667  17.7257  17.8712  17.8712  17.9404

          k =-0.1667 0.3333 0.0000 (  3018 PWs)   bands (ev):

   -17.5097  -6.9418  -2.3545  -2.2622  -2.1809   6.9745   7.5020   7.7999
    12.1386  13.0360  13.7841  14.1866  15.7621  16.4460  17.1595  18.3575

          k =-0.2500 0.4167-0.0833 (  3013 PWs)   bands (ev):

   -17.4574  -7.0617  -2.4609  -2.2938  -2.2418   6.8131   7.2424   7.7107
    12.1517  13.6469  14.2098  14.8157  16.3174  16.8716  17.6845  18.3237

          k =-0.3333 0.5000-0.1667 (  3018 PWs)   bands (ev):

   -17.4040  -7.1837  -2.5391  -2.3766  -2.2743   6.7173   7.0359   7.5100
    12.4167  14.1253  14.8139  15.3934  16.9222  17.0945  18.0608  18.3085

          k = 0.5833-0.4167 0.7500 (  3027 PWs)   bands (ev):

   -17.3642  -7.2743  -2.5706  -2.4697  -2.2883   6.6454   6.9771   7.2812
    12.8389  14.2237  15.3042  15.9819  17.1454  17.3349  18.0076  18.4111

          k = 0.5000-0.3333 0.6667 (  3034 PWs)   bands (ev):

   -17.3495  -7.3078  -2.5625  -2.5233  -2.2929   6.6099   7.0405   7.1239
    13.1122  14.1048  15.5141  16.2621  17.2802  17.3161  17.9726  18.4029

          k =-0.1667 0.5000 0.0000 (  3005 PWs)   bands (ev):

   -17.4400  -7.0284  -2.4991  -2.4190  -2.3674   6.8970   7.5377   7.8314
    11.5386  13.6368  14.8232  15.0618  16.1563  16.9182  17.7688  18.4228

          k =-0.2500 0.5833-0.0833 (  3019 PWs)   bands (ev):

   -17.3926  -7.1032  -2.6100  -2.5853  -2.3596   6.9856   7.2967   7.7638
    11.6804  14.1203  15.3108  15.3803  16.7788  17.0343  18.0816  18.2262

          k = 0.6667-0.3333 0.8333 (  3029 PWs)   bands (ev):

   -17.3533  -7.1723  -2.7374  -2.6711  -2.3386   6.9812   7.2267   7.5845
    12.1061  14.2465  15.5720  15.7913  17.0948  17.3928  18.0128  18.3568

          k = 0.5833-0.2500 0.7500 (  3034 PWs)   bands (ev):

   -17.3331  -7.2162  -2.8327  -2.6716  -2.3113   6.8313   7.3442   7.4247
    12.7162  13.8294  15.8248  15.9538  17.2650  17.4346  18.1971  18.2419

          k = 0.5000-0.1667 0.6667 (  3031 PWs)   bands (ev):

   -17.3380  -7.2229  -2.8490  -2.6111  -2.2836   6.7536   7.1539   7.6118
    13.0135  13.6028  15.5691  15.8289  17.3218  17.4109  18.1312  18.4736

          k = 0.4167-0.0833 0.5833 (  3030 PWs)   bands (ev):

   -17.3664  -7.1920  -2.7792  -2.5062  -2.2623   6.7549   7.0281   7.7638
    12.5542  14.0029  15.0679  15.4355  17.2630  17.3556  18.1613  18.4538

          k = 0.3333 0.0000 0.5000 (  3019 PWs)   bands (ev):

   -17.4103  -7.1330  -2.6376  -2.3847  -2.2526   6.7728   7.0610   7.8091
    12.2254  13.9659  14.5516  15.2066  16.9487  17.1242  17.9914  18.3969

          k =-0.1667 0.6667-0.0000 (  3028 PWs)   bands (ev):

   -17.3709  -7.0277  -2.8607  -2.6392  -2.4846   7.3053   7.6186   7.8998
    11.0597  14.1654  15.6319  16.0001  16.5725  17.0627  18.1500  18.1768

          k = 0.7500-0.2500 0.9167 (  3029 PWs)   bands (ev):

   -17.3373  -7.0576  -3.0433  -2.7340  -2.4392   7.3605   7.5655   7.8410
    11.3210  14.5059  15.3005  16.3614  17.0341  17.5308  17.9499  18.3540

          k = 0.6667-0.1667 0.8333 (  3034 PWs)   bands (ev):

   -17.3171  -7.0987  -3.1383  -2.7673  -2.3813   7.1185   7.6614   7.7759
    11.8743  14.2210  15.3147  16.4126  17.3545  17.5713  18.0476  18.3935

          k = 0.5833-0.0833 0.7500 (  3032 PWs)   bands (ev):

   -17.3160  -7.1417  -3.1212  -2.7314  -2.3237   6.9232   7.4259   7.9065
    12.6269  13.5456  15.4954  16.0867  17.3232  17.4904  18.3331  18.4729

          k = 0.5000 0.0000 0.6667 (  3039 PWs)   bands (ev):

   -17.3341  -7.1761  -2.9920  -2.6362  -2.2800   6.8049   7.1909   7.9095
    12.9419  13.4288  15.4622  15.5576  17.3182  17.4661  18.3255  18.4287

          k = 0.8333-0.1667 1.0000 (  3022 PWs)   bands (ev):

   -17.3207  -6.9591  -3.3105  -2.7391  -2.5658   7.7002   7.8948   7.9696
    10.7590  14.4295  15.6566  16.8844  17.0873  17.6760  17.8231  18.3399

          k = 0.7500-0.0833 0.9167 (  3030 PWs)   bands (ev):

   -17.3059  -6.9870  -3.3804  -2.8046  -2.4844   7.4418   7.8970   8.0566
    11.1322  14.7019  14.9786  17.0184  17.3665  17.7145  17.9612  18.3329

          k = 0.6667 0.0000 0.8333 (  3037 PWs)   bands (ev):

   -17.3042  -7.0542  -3.3132  -2.8019  -2.3969   7.1638   7.6965   8.0667
    11.7915  14.1805  15.1084  16.6760  17.3693  17.5342  18.3731  18.3849

          k =-0.1667-1.0000-0.0000 (  3020 PWs)   bands (ev):

   -17.3025  -6.9150  -3.5020  -2.7751  -2.5952   7.7368   7.9988   8.1795
    10.6569  14.4098  15.6872  17.1633  17.5627  17.8762  17.9074  17.9694

          k = 0.6667-0.3333 1.0000 (  3021 PWs)   bands (ev):

   -17.3545  -7.1237  -2.7926  -2.7667  -2.3085   7.0325   7.2599   7.8764
    11.8651  14.2050  15.2787  15.7565  17.0770  17.4003  18.2496  18.3079

          k = 0.5833-0.2500 0.9167 (  3038 PWs)   bands (ev):

   -17.3263  -7.1374  -2.9190  -2.9014  -2.2730   6.9150   7.4753   7.8431
    12.3282  13.7484  15.3733  16.2142  17.3452  17.4082  18.2816  18.4451

          k = 0.5000-0.1667 0.8333 (  3032 PWs)   bands (ev):

   -17.3160  -7.1420  -2.9588  -2.9561  -2.2604   6.8681   7.6793   7.7048
    12.9055  13.1141  15.4961  16.3833  17.3974  17.5185  18.2251  18.3661

          k = 0.6667-0.1667 1.0000 (  3044 PWs)   bands (ev):

   -17.3146  -7.0511  -3.1811  -2.9025  -2.3464   7.1598   7.8102   7.9456
    11.6122  14.2386  15.0184  16.9456  17.2379  17.5062  18.2749  18.3308

          k = 0.5833-0.0833 0.9167 (  3038 PWs)   bands (ev):

   -17.3039  -7.0637  -3.2079  -2.9976  -2.2788   6.9985   7.9007   7.9669
    12.1852  13.5114  15.0960  17.0926  17.4029  17.6657  18.1137  18.4270

          k = 0.5000 0.0000 0.8333 (  3035 PWs)   bands (ev):

   -17.3082  -7.0959  -3.1139  -2.9964  -2.2519   6.9122   7.7271   7.9837
    12.8173  12.9541  15.2301  16.7763  17.3878  17.5195  18.3517  18.5035

          k =-0.3333-1.0000 0.0000 (  3040 PWs)   bands (ev):

   -17.3002  -7.0064  -3.3605  -2.9421  -2.3604   7.2040   7.9748   8.0990
    11.5238  14.2116  14.8356  17.3519  17.6081  17.8202  17.8862  18.1062

          k =-0.5000-1.0000 0.0000 (  3028 PWs)   bands (ev):

   -17.2990  -7.0497  -3.1576  -3.1576  -2.2415   6.9553   8.0146   8.0146
    12.7597  12.7597  15.0118  17.4277  17.7083  17.7084  17.8914  18.2817

     the Fermi energy is     9.6059 ev

!    total energy              =     -83.63833934 Ry
     estimated scf accuracy    <          3.5E-12 Ry
     smearing contrib. (-TS)   =      -0.00000000 Ry
     internal energy E=F+TS    =     -83.63833934 Ry

     The total energy is F=E-TS. E is the sum of the following terms:
     one-electron contribution =     -12.53962591 Ry
     hartree contribution      =      14.97410939 Ry
     xc contribution           =     -14.54823009 Ry
     ewald contribution        =     -71.52459273 Ry

     convergence has been achieved in  12 iterations

     Writing all to output data dir out/mp-1342.save/
 
     init_run     :      0.16s CPU      0.20s WALL (       1 calls)
     electrons    :      8.63s CPU     10.06s WALL (       1 calls)

     Called by init_run:
     wfcinit      :      0.14s CPU      0.15s WALL (       1 calls)
     potinit      :      0.01s CPU      0.01s WALL (       1 calls)
     hinit0       :      0.01s CPU      0.01s WALL (       1 calls)

     Called by electrons:
     c_bands      :      7.58s CPU      8.71s WALL (      12 calls)
     sum_band     :      0.98s CPU      1.22s WALL (      12 calls)
     v_of_rho     :      0.05s CPU      0.05s WALL (      13 calls)
     mix_rho      :      0.01s CPU      0.04s WALL (      12 calls)

     Called by c_bands:
     init_us_2    :      0.10s CPU      0.11s WALL (     900 calls)
     init_us_2:cp :      0.10s CPU      0.10s WALL (     900 calls)
     cegterg      :      6.34s CPU      6.58s WALL (     432 calls)

     Called by *egterg:
     cdiaghg      :      0.78s CPU      0.80s WALL (    2723 calls)
     h_psi        :      5.19s CPU      5.40s WALL (    2759 calls)
     g_psi        :      0.03s CPU      0.03s WALL (    2291 calls)

     Called by h_psi:
     h_psi:calbec :      0.15s CPU      0.15s WALL (    2759 calls)
     vloc_psi     :      4.91s CPU      5.10s WALL (    2759 calls)
     add_vuspsi   :      0.11s CPU      0.11s WALL (    2759 calls)

     General routines
     calbec       :      0.14s CPU      0.15s WALL (    2759 calls)
     fft          :      0.03s CPU      0.03s WALL (     129 calls)
     ffts         :      0.00s CPU      0.00s WALL (      12 calls)
     fftw         :      5.29s CPU      5.53s WALL (   57440 calls)
     davcio       :      0.07s CPU      0.89s WALL (    1514 calls)
 
     Parallel routines
 
     PWSCF        :      8.88s CPU     10.50s WALL

 
   This run was terminated on:   3:39:24   5Dec2023            

=------------------------------------------------------------------------------=
   JOB DONE.
=------------------------------------------------------------------------------=
