
     Program PWSCF v.7.1 starts on  8Dec2023 at  5:35: 5 

     This program is part of the open-source Quantum ESPRESSO suite
     for quantum simulation of materials; please cite
         "P. Giannozzi et al., J. Phys.:Condens. Matter 21 395502 (2009);
         "P. Giannozzi et al., J. Phys.:Condens. Matter 29 465901 (2017);
         "P. Giannozzi et al., J. Chem. Phys. 152 154105 (2020);
          URL http://www.quantum-espresso.org", 
     in publications or presentations arising from this work. More details at
     http://www.quantum-espresso.org/quote

     Parallel version (MPI), running on    24 processors

     MPI processes distributed on     1 nodes
     122446 MiB available memory on the printing compute node when the environment starts
 
     Reading input from pw_mp-1029_scf_k3000_E67.in
Warning: card &CELL ignored
Warning: card / ignored

     Current dimensions of program PWSCF are:
     Max number of different atomic species (ntypx) = 10
     Max number of k-points (npk) =  40000
     Max angular momentum in pseudopotentials (lmaxx) =  4
 
     K-points division:     npool     =       2
     R & G space division:  proc/nbgrp/npool/nimage =      12
     Subspace diagonalization in iterative solution of the eigenvalue problem:
     a serial algorithm will be used

 
     Parallelization info
     --------------------
     sticks:   dense  smooth     PW     G-vecs:    dense   smooth      PW
     Min         107     107     31                 2528     2528     408
     Max         108     108     32                 2531     2531     410
     Sum        1285    1285    379                30347    30347    4909
 
     Using Slab Decomposition
 


     bravais-lattice index     =            2
     lattice parameter (alat)  =      11.7649  a.u.
     unit-cell volume          =     407.1060 (a.u.)^3
     number of atoms/cell      =            3
     number of atomic types    =            2
     number of electrons       =        24.00
     number of Kohn-Sham states=           24
     kinetic-energy cutoff     =      67.0000  Ry
     charge density cutoff     =     268.0000  Ry
     scf convergence threshold =      1.0E-10
     mixing beta               =       0.7000
     number of iterations used =            8  plain     mixing
     Exchange-correlation= PBE
                           (   1   4   3   4   0   0   0)

     celldm(1)=  11.764925  celldm(2)=   0.000000  celldm(3)=   0.000000
     celldm(4)=   0.000000  celldm(5)=   0.000000  celldm(6)=   0.000000

     crystal axes: (cart. coord. in units of alat)
               a(1) = (  -0.500000   0.000000   0.500000 )  
               a(2) = (   0.000000   0.500000   0.500000 )  
               a(3) = (  -0.500000   0.500000   0.000000 )  

     reciprocal axes: (cart. coord. in units 2 pi/alat)
               b(1) = ( -1.000000 -1.000000  1.000000 )  
               b(2) = (  1.000000  1.000000  1.000000 )  
               b(3) = ( -1.000000  1.000000 -1.000000 )  


     PseudoPot. # 1 for Ba read from file:
     /usr/scratch4/magr4985/MG/HTDF/pseudo/SG15/Ba.upf
     MD5 check sum: ac4691792522964bb0504809e83fae44
     Pseudo is Norm-conserving, Zval = 10.0
     Generated using ONCVPSP code by D. R. Hamann
     Using radial grid of  602 points,  8 beta functions with: 
                l(1) =   0
                l(2) =   0
                l(3) =   1
                l(4) =   1
                l(5) =   2
                l(6) =   2
                l(7) =   3
                l(8) =   3

     PseudoPot. # 2 for F  read from file:
     /usr/scratch4/magr4985/MG/HTDF/pseudo/SG15/F.upf
     MD5 check sum: 1d8275f47d602dd53cad6bcdc0eda7dc
     Pseudo is Norm-conserving, Zval =  7.0
     Generated using ONCVPSP code by D. R. Hamann
     Using radial grid of  602 points,  4 beta functions with: 
                l(1) =   0
                l(2) =   0
                l(3) =   1
                l(4) =   1

     atomic species   valence    mass     pseudopotential
        Ba            10.00   137.32700     Ba( 1.00)
        F              7.00    18.99840     F ( 1.00)

     48 Sym. Ops., with inversion, found



   Cartesian axes

     site n.     atom                  positions (alat units)
         1           Ba  tau(   1) = (   0.0000000   0.0000000   0.0000000  )
         2           F   tau(   2) = (  -0.7500000   0.7500001   0.7500001  )
         3           F   tau(   3) = (  -0.2500000   0.2500000   0.2500001  )

     number of k points=    47  Gaussian smearing, width (Ry)=  0.0005
                       cart. coord. in units 2pi/alat
        k(    1) = (   0.0000000   0.0000000   0.0000000), wk =   0.0020000
        k(    2) = (  -0.1000000   0.1000000  -0.1000000), wk =   0.0160000
        k(    3) = (  -0.2000000   0.2000000  -0.2000000), wk =   0.0160000
        k(    4) = (  -0.3000000   0.3000000  -0.3000000), wk =   0.0160000
        k(    5) = (  -0.4000000   0.4000000  -0.4000000), wk =   0.0160000
        k(    6) = (   0.5000000  -0.5000000   0.5000000), wk =   0.0080000
        k(    7) = (   0.0000000   0.2000000   0.0000000), wk =   0.0120000
        k(    8) = (  -0.1000000   0.3000000  -0.1000000), wk =   0.0480000
        k(    9) = (  -0.2000000   0.4000000  -0.2000000), wk =   0.0480000
        k(   10) = (  -0.3000000   0.5000000  -0.3000000), wk =   0.0480000
        k(   11) = (   0.6000000  -0.4000000   0.6000000), wk =   0.0480000
        k(   12) = (   0.5000000  -0.3000000   0.5000000), wk =   0.0480000
        k(   13) = (   0.4000000  -0.2000000   0.4000000), wk =   0.0480000
        k(   14) = (   0.3000000  -0.1000000   0.3000000), wk =   0.0480000
        k(   15) = (   0.2000000   0.0000000   0.2000000), wk =   0.0240000
        k(   16) = (   0.0000000   0.4000000   0.0000000), wk =   0.0120000
        k(   17) = (  -0.1000000   0.5000000  -0.1000000), wk =   0.0480000
        k(   18) = (  -0.2000000   0.6000000  -0.2000000), wk =   0.0480000
        k(   19) = (   0.7000000  -0.3000000   0.7000000), wk =   0.0480000
        k(   20) = (   0.6000000  -0.2000000   0.6000000), wk =   0.0480000
        k(   21) = (   0.5000000  -0.1000000   0.5000000), wk =   0.0480000
        k(   22) = (   0.4000000   0.0000000   0.4000000), wk =   0.0240000
        k(   23) = (   0.0000000   0.6000000   0.0000000), wk =   0.0120000
        k(   24) = (  -0.1000000   0.7000000  -0.1000000), wk =   0.0480000
        k(   25) = (   0.8000000  -0.2000000   0.8000000), wk =   0.0480000
        k(   26) = (   0.7000000  -0.1000000   0.7000000), wk =   0.0480000
        k(   27) = (   0.6000000  -0.0000000   0.6000000), wk =   0.0240000
        k(   28) = (   0.0000000   0.8000000   0.0000000), wk =   0.0120000
        k(   29) = (   0.9000000  -0.1000000   0.9000000), wk =   0.0480000
        k(   30) = (   0.8000000   0.0000000   0.8000000), wk =   0.0240000
        k(   31) = (   0.0000000  -1.0000000   0.0000000), wk =   0.0060000
        k(   32) = (  -0.2000000   0.4000000   0.0000000), wk =   0.0480000
        k(   33) = (  -0.3000000   0.5000000  -0.1000000), wk =   0.0960000
        k(   34) = (   0.6000000  -0.4000000   0.8000000), wk =   0.0960000
        k(   35) = (   0.5000000  -0.3000000   0.7000000), wk =   0.0480000
        k(   36) = (  -0.2000000   0.6000000   0.0000000), wk =   0.0480000
        k(   37) = (   0.7000000  -0.3000000   0.9000000), wk =   0.0960000
        k(   38) = (   0.6000000  -0.2000000   0.8000000), wk =   0.0960000
        k(   39) = (   0.5000000  -0.1000000   0.7000000), wk =   0.0960000
        k(   40) = (   0.4000000   0.0000000   0.6000000), wk =   0.0480000
        k(   41) = (   0.8000000  -0.2000000   1.0000000), wk =   0.0480000
        k(   42) = (   0.7000000  -0.1000000   0.9000000), wk =   0.0960000
        k(   43) = (   0.6000000   0.0000000   0.8000000), wk =   0.0480000
        k(   44) = (  -0.2000000  -1.0000000   0.0000000), wk =   0.0240000
        k(   45) = (   0.6000000  -0.2000000   1.0000000), wk =   0.0480000
        k(   46) = (   0.5000000  -0.1000000   0.9000000), wk =   0.0480000
        k(   47) = (  -0.4000000  -1.0000000   0.0000000), wk =   0.0240000

     Dense  grid:    30347 G-vectors     FFT dimensions: (  45,  45,  45)

     Estimated max dynamical RAM per process >       8.92 MB

     Estimated total dynamical RAM >     206.74 MB

     Initial potential from superposition of free atoms

     starting charge      23.6075, renormalised to      24.0000
     Starting wfcs are random

     total cpu time spent up to now is        0.3 secs

     Self-consistent Calculation

     iteration #  1     ecut=    67.00 Ry     beta= 0.70
     Davidson diagonalization with overlap
     ethr =  1.00E-02,  avg # of iterations = 12.3

     Threshold (ethr) on eigenvalues was too large:
     Diagonalizing with lowered threshold

     Davidson diagonalization with overlap
     ethr =  8.63E-04,  avg # of iterations =  1.7

     total cpu time spent up to now is        2.3 secs

     total energy              =    -147.44535521 Ry
     estimated scf accuracy    <       0.21732547 Ry

     iteration #  2     ecut=    67.00 Ry     beta= 0.70
     Davidson diagonalization with overlap
     ethr =  9.06E-04,  avg # of iterations =  3.2

     total cpu time spent up to now is        2.9 secs

     total energy              =    -147.49003735 Ry
     estimated scf accuracy    <       0.20239910 Ry

     iteration #  3     ecut=    67.00 Ry     beta= 0.70
     Davidson diagonalization with overlap
     ethr =  8.43E-04,  avg # of iterations =  2.0

     total cpu time spent up to now is        3.4 secs

     total energy              =    -147.53470605 Ry
     estimated scf accuracy    <       0.00260601 Ry

     iteration #  4     ecut=    67.00 Ry     beta= 0.70
     Davidson diagonalization with overlap
     c_bands:  2 eigenvalues not converged
     c_bands:  3 eigenvalues not converged
     c_bands:  3 eigenvalues not converged
     ethr =  1.09E-05,  avg # of iterations = 13.9

     total cpu time spent up to now is        4.6 secs

     total energy              =    -147.53539974 Ry
     estimated scf accuracy    <       0.00001468 Ry

     iteration #  5     ecut=    67.00 Ry     beta= 0.70
     Davidson diagonalization with overlap
     c_bands:  1 eigenvalues not converged
     ethr =  6.11E-08,  avg # of iterations =  5.4

     total cpu time spent up to now is        5.6 secs

     total energy              =    -147.53540718 Ry
     estimated scf accuracy    <       0.00000071 Ry

     iteration #  6     ecut=    67.00 Ry     beta= 0.70
     Davidson diagonalization with overlap
     ethr =  2.96E-09,  avg # of iterations =  2.1

     total cpu time spent up to now is        6.2 secs

     total energy              =    -147.53540731 Ry
     estimated scf accuracy    <       0.00000002 Ry

     iteration #  7     ecut=    67.00 Ry     beta= 0.70
     Davidson diagonalization with overlap
     ethr =  6.81E-11,  avg # of iterations =  3.4

     total cpu time spent up to now is        7.0 secs

     total energy              =    -147.53540732 Ry
     estimated scf accuracy    <          2.7E-10 Ry

     iteration #  8     ecut=    67.00 Ry     beta= 0.70
     Davidson diagonalization with overlap
     ethr =  1.12E-12,  avg # of iterations =  3.6

     total cpu time spent up to now is        7.9 secs

     End of self-consistent calculation

          k = 0.0000 0.0000 0.0000 (  3719 PWs)   bands (ev):

   -20.0167 -15.8687 -15.8236  -4.8803  -4.8803  -4.8803   1.5395   1.5395
     1.5395   2.8811   2.8811   2.8811   9.7718  12.2170  12.2170  14.3370
    14.3370  14.3370  15.4898  15.4898  15.4898  16.1560  16.1850  16.1850

          k =-0.1000 0.1000-0.1000 (  3773 PWs)   bands (ev):

   -19.9988 -15.8776 -15.8466  -4.8984  -4.8955  -4.8955   1.5805   1.5805
     1.6400   2.8127   2.8676   2.8676   9.9986  12.2039  12.2039  14.2030
    14.3433  14.3433  15.3822  15.5657  15.5657  16.1502  16.1503  16.1877

          k =-0.2000 0.2000-0.2000 (  3771 PWs)   bands (ev):

   -19.9506 -15.9201 -15.8887  -4.9428  -4.9347  -4.9347   1.6859   1.6859
     1.9042   2.6546   2.8375   2.8375  10.5744  12.1818  12.1818  13.8869
    14.3693  14.3693  15.1283  15.7284  15.7284  16.0520  16.0520  16.1950

          k =-0.3000 0.3000-0.3000 (  3765 PWs)   bands (ev):

   -19.8888 -16.0012 -15.9148  -4.9917  -4.9817  -4.9817   1.8094   1.8094
     2.2318   2.4923   2.8091   2.8091  11.2365  12.1760  12.1760  13.4567
    14.4250  14.4250  15.0590  15.7761  15.7761  15.9927  15.9927  16.2047

          k =-0.4000 0.4000-0.4000 (  3780 PWs)   bands (ev):

   -19.8366 -16.0711 -15.9338  -5.0273  -5.0188  -5.0188   1.9004   1.9004
     2.3705   2.5108   2.7964   2.7964  11.7637  12.1865  12.1865  12.9052
    14.5049  14.5049  15.5412  15.6123  15.6123  16.0599  16.0599  16.2112

          k = 0.5000-0.5000 0.5000 (  3798 PWs)   bands (ev):

   -19.8162 -16.0986 -15.9410  -5.0400  -5.0327  -5.0327   1.9324   1.9324
     2.3351   2.6113   2.7945   2.7945  12.0944  12.1939  12.1939  12.5029
    14.5513  14.5513  15.5192  15.5192  16.0754  16.0884  16.0884  16.2139

          k = 0.0000 0.2000 0.0000 (  3767 PWs)   bands (ev):

   -19.9928 -15.8799 -15.8549  -4.9189  -4.9189  -4.8678   1.6095   1.6095
     1.6463   2.7230   2.8960   2.8960  10.0732  12.0910  12.3107  14.1033
    14.3720  14.3720  15.4996  15.5000  15.5398  16.1410  16.1660  16.1831

          k =-0.1000 0.3000-0.1000 (  3757 PWs)   bands (ev):

   -19.9546 -15.9071 -15.8947  -4.9655  -4.9643  -4.8733   1.6957   1.7070
     1.8506   2.5567   2.8803   2.8959  10.5198  12.0041  12.3782  13.8201
    14.3995  14.4170  15.3084  15.5699  15.7397  16.0415  16.1139  16.1686

          k =-0.2000 0.4000-0.2000 (  3760 PWs)   bands (ev):

   -19.8970 -15.9808 -15.9208  -5.0160  -5.0134  -4.9092   1.8210   1.8305
     2.1572   2.3960   2.8371   2.8742  11.0661  12.0439  12.3927  13.4906
    14.4300  14.4863  15.1315  15.6491  15.9144  15.9428  15.9993  16.1761

          k =-0.3000 0.5000-0.3000 (  3774 PWs)   bands (ev):

   -19.8412 -16.0531 -15.9441  -5.0512  -5.0476  -4.9597   1.9331   1.9335
     2.2817   2.4530   2.8121   2.8393  11.3999  12.1955  12.3605  13.1961
    14.4433  14.5620  15.4165  15.5511  15.7832  15.9959  16.0471  16.1878

          k = 0.6000-0.4000 0.6000 (  3766 PWs)   bands (ev):

   -19.8097 -16.0934 -15.9570  -5.0607  -5.0552  -5.0057   1.9858   1.9870
     2.2415   2.6131   2.7948   2.8260  11.5814  12.2083  12.2867  13.0536
    14.5130  14.5671  15.5082  15.5754  16.0661  16.0677  16.0919  16.1896

          k = 0.5000-0.3000 0.5000 (  3766 PWs)   bands (ev):

   -19.8166 -16.0838 -15.9551  -5.0432  -5.0335  -5.0315   1.9728   1.9766
     2.2639   2.5760   2.7507   2.8655  11.5966  12.1874  12.2268  13.1208
    14.4777  14.5863  15.4830  15.6454  15.9043  16.0293  16.0870  16.1876

          k = 0.4000-0.2000 0.4000 (  3768 PWs)   bands (ev):

   -19.8586 -16.0286 -15.9390  -5.0299  -5.0023  -4.9901   1.8884   1.9080
     2.3361   2.3780   2.7348   2.9007  11.3813  12.0999  12.2886  13.3432
    14.3866  14.5822  15.2559  15.6192  15.8469  15.9321  16.0498  16.1796

          k = 0.3000-0.1000 0.3000 (  3748 PWs)   bands (ev):

   -19.9177 -15.9515 -15.9145  -4.9981  -4.9526  -4.9406   1.7568   1.7959
     2.0522   2.5073   2.7630   2.9200  10.9110  12.0662  12.2819  13.6576
    14.3386  14.5140  15.1525  15.6263  15.9010  15.9370  16.0549  16.1697

          k = 0.2000 0.0000 0.2000 (  3755 PWs)   bands (ev):

   -19.9707 -15.8918 -15.8818  -4.9472  -4.9113  -4.9040   1.6364   1.6704
     1.7787   2.6839   2.8166   2.9116  10.3387  12.1062  12.2683  13.9847
    14.3290  14.4159  15.3266  15.5155  15.7351  16.0687  16.1496  16.1702

          k = 0.0000 0.4000 0.0000 (  3775 PWs)   bands (ev):

   -19.9282 -15.9383 -15.9091  -5.0170  -5.0170  -4.8334   1.8031   1.8031
     1.9395   2.3449   2.9228   2.9228  10.7426  11.9283  12.5807  13.5201
    14.4772  14.4772  15.5049  15.5049  15.6940  15.9829  16.1246  16.1249

          k =-0.1000 0.5000-0.1000 (  3762 PWs)   bands (ev):

   -19.8805 -15.9960 -15.9335  -5.0721  -5.0716  -4.8332   1.9309   1.9333
     2.1553   2.1816   2.9053   2.9136  10.9221  12.2159  12.6998  13.1861
    14.5595  14.5664  15.3598  15.5221  15.8677  15.8772  16.0671  16.1212

          k =-0.2000 0.6000-0.2000 (  3764 PWs)   bands (ev):

   -19.8284 -16.0532 -15.9651  -5.1097  -5.1077  -4.8708   2.0015   2.0525
     2.1067   2.4466   2.8655   2.8682  10.9515  12.5539  12.6873  13.0668
    14.6428  14.6968  15.4069  15.4623  15.8817  15.9205  16.0166  16.1283

          k = 0.7000-0.3000 0.7000 (  3772 PWs)   bands (ev):

   -19.7926 -16.0881 -15.9910  -5.1183  -5.1128  -4.9298   1.9901   2.1279
     2.1740   2.6298   2.7915   2.8543  10.9951  12.4666  12.5570  13.2535
    14.6165  14.7608  15.4692  15.6968  15.9822  16.0229  16.1061  16.1322

          k = 0.6000-0.2000 0.6000 (  3780 PWs)   bands (ev):

   -19.7882 -16.0855 -16.0012  -5.0963  -5.0853  -4.9887   2.0392   2.1351
     2.1671   2.6462   2.7069   2.9011  11.0920  12.3624  12.4357  13.2996
    14.4882  14.9003  15.4821  15.6483  15.9751  16.0524  16.1294  16.2982

          k = 0.5000-0.1000 0.5000 (  3768 PWs)   bands (ev):

   -19.8173 -16.0473 -15.9907  -5.0507  -5.0348  -5.0273   2.0499   2.0611
     2.1784   2.4990   2.6675   2.9556  11.2054  12.1767  12.4918  13.2546
    14.3836  15.0059  15.3757  15.7629  15.8572  15.8627  16.0686  16.1208

          k = 0.4000 0.0000 0.4000 (  3767 PWs)   bands (ev):

   -19.8671 -15.9948 -15.9584  -5.0317  -4.9959  -4.9794   1.8982   1.9474
     2.2692   2.3233   2.6955   2.9660  11.2096  12.0656  12.3794  13.3801
    14.3375  14.7911  15.2620  15.6204  15.7750  16.0168  16.0224  16.1211

          k = 0.0000 0.6000 0.0000 (  3771 PWs)   bands (ev):

   -19.8448 -16.0450 -15.9447  -5.1328  -5.1328  -4.7875   1.9283   2.0762
     2.0762   2.3322   2.9143   2.9143  10.7479  12.8101  12.8157  12.9878
    14.6416  14.6416  15.4608  15.4608  15.7181  15.8840  16.0902  16.0902

          k =-0.1000 0.7000-0.1000 (  3762 PWs)   bands (ev):

   -19.8028 -16.0915 -15.9688  -5.1751  -5.1744  -4.7894   1.7880   2.2144
     2.2300   2.5348   2.8685   2.8730  10.6179  12.5360  13.1009  13.4520
    14.7353  14.8851  15.3781  15.4067  15.6678  15.9670  16.0501  16.0859

          k = 0.8000-0.2000 0.8000 (  3763 PWs)   bands (ev):

   -19.7708 -16.1128 -16.0016  -5.1857  -5.1817  -4.8361   1.7625   2.3147
     2.3503   2.6834   2.7746   2.8301  10.5917  12.4186  12.9710  13.5911
    14.7026  15.1374  15.3929  15.7860  15.8260  16.0006  16.0873  16.1034

          k = 0.7000-0.1000 0.7000 (  3780 PWs)   bands (ev):

   -19.7621 -16.0981 -16.0318  -5.1620  -5.1526  -4.9087   1.8405   2.3425
     2.3446   2.6634   2.7232   2.8577  10.6877  12.4798  12.6884  13.4211
    14.5473  15.1851  15.6018  15.6977  15.9065  15.9480  16.0924  16.3496

          k = 0.6000-0.0000 0.6000 (  3767 PWs)   bands (ev):

   -19.7801 -16.0520 -16.0484  -5.1115  -5.0970  -4.9811   1.9839   2.2362
     2.2368   2.6275   2.6360   2.9340  10.9044  12.3901  12.6094  13.2225
    14.4327  15.2643  15.4988  15.7932  15.8128  15.9912  16.1051  16.3495

          k = 0.0000 0.8000 0.0000 (  3768 PWs)   bands (ev):

   -19.7738 -16.1346 -15.9733  -5.2227  -5.2227  -4.7476   1.6222   2.3732
     2.3732   2.6798   2.8252   2.8252  10.4161  12.2381  13.4341  14.4829
    14.8244  14.8244  15.3697  15.3697  15.3832  16.0160  16.0682  16.0682

          k = 0.9000-0.1000 0.9000 (  3788 PWs)   bands (ev):

   -19.7528 -16.1526 -15.9903  -5.2372  -5.2359  -4.7604   1.5795   2.4961
     2.5106   2.7283   2.7336   2.7882  10.3559  12.1347  13.4296  14.3789
    14.8221  15.2876  15.2896  15.4868  15.8834  16.0300  16.0646  16.0923

          k = 0.8000 0.0000 0.8000 (  3781 PWs)   bands (ev):

   -19.7483 -16.1360 -16.0155  -5.2147  -5.2095  -4.8220   1.6644   2.5058
     2.5236   2.6281   2.7538   2.7891  10.4450  12.2572  13.0981  13.8825
    14.6653  15.2539  15.4747  15.6864  15.9148  15.9818  16.0713  16.3594

          k = 0.0000-1.0000 0.0000 (  3812 PWs)   bands (ev):

   -19.7458 -16.1698 -15.9842  -5.2562  -5.2561  -4.7316   1.5107   2.6369
     2.6369   2.6388   2.6388   2.8209  10.2769  12.0126  13.6682  14.9220
    14.9220  15.1902  15.3089  15.3089  15.8194  16.0579  16.0579  16.0898

          k =-0.2000 0.4000 0.0000 (  3764 PWs)   bands (ev):

   -19.9115 -15.9537 -15.9228  -5.0204  -5.0098  -4.8762   1.8022   1.8391
     2.0513   2.3701   2.8309   2.9391  10.9063  11.9969  12.4652  13.5079
    14.4081  14.5550  15.2961  15.5396  15.8651  15.9403  16.0954  16.1288

          k =-0.3000 0.5000-0.1000 (  3770 PWs)   bands (ev):

   -19.8565 -16.0166 -15.9545  -5.0630  -5.0531  -4.9132   1.9430   1.9692
     2.2186   2.3232   2.7705   2.9398  11.1281  12.2287  12.4887  13.2435
    14.4401  14.7416  15.2768  15.5776  15.8250  15.9744  16.0272  16.1306

          k = 0.6000-0.4000 0.8000 (  3772 PWs)   bands (ev):

   -19.8103 -16.0704 -15.9790  -5.1042  -5.0526  -4.9682   2.0466   2.0585
     2.1441   2.5544   2.7434   2.9054  11.1762  12.3627  12.4376  13.2164
    14.4977  14.7850  15.4260  15.7454  15.8495  15.9533  16.0742  16.1388

          k = 0.5000-0.3000 0.7000 (  3766 PWs)   bands (ev):

   -19.7923 -16.0917 -15.9881  -5.1195  -5.0220  -5.0192   2.0635   2.0915
     2.1406   2.6461   2.7527   2.8726  11.1899  12.3474  12.3998  13.2595
    14.5559  14.7227  15.5378  15.5588  16.0190  16.0642  16.1426  16.2773

          k =-0.2000 0.6000 0.0000 (  3779 PWs)   bands (ev):

   -19.8354 -16.0455 -15.9607  -5.1311  -5.1091  -4.8339   1.9751   2.0723
     2.0925   2.3864   2.8417   2.9309  10.8404  12.7193  12.8283  12.8788
    14.5910  14.8350  15.3438  15.5124  15.7365  15.9781  16.0546  16.0772

          k = 0.7000-0.3000 0.9000 (  3769 PWs)   bands (ev):

   -19.7931 -16.0817 -15.9961  -5.1760  -5.1094  -4.8758   1.8989   2.1972
     2.2234   2.5830   2.7662   2.9006  10.7734  12.6548  12.7443  13.1478
    14.6530  15.1394  15.3495  15.6441  15.8618  15.9422  16.0436  16.0763

          k = 0.6000-0.2000 0.8000 (  3770 PWs)   bands (ev):

   -19.7706 -16.0910 -16.0249  -5.1911  -5.0742  -4.9414   1.9058   2.2478
     2.2925   2.6801   2.7278   2.8606  10.7833  12.5561  12.6379  13.2175
    14.6380  15.1250  15.4951  15.6710  15.9307  16.0228  16.0793  16.3373

          k = 0.5000-0.1000 0.7000 (  3776 PWs)   bands (ev):

   -19.7775 -16.0729 -16.0318  -5.1711  -5.0161  -5.0069   1.9713   2.2138
     2.2520   2.6476   2.6772   2.9080  10.8698  12.4706  12.6571  13.1222
    14.5507  15.2164  15.4600  15.7009  15.9046  16.0221  16.0854  16.3367

          k = 0.4000 0.0000 0.6000 (  3761 PWs)   bands (ev):

   -19.8107 -16.0469 -16.0019  -5.1228  -5.0494  -4.9548   2.0743   2.1113
     2.1146   2.5054   2.6953   2.9548  11.0106  12.3758  12.6887  13.0477
    14.4727  15.1963  15.3444  15.6478  15.8312  15.9538  16.0474  16.0837

          k = 0.8000-0.2000 1.0000 (  3770 PWs)   bands (ev):

   -19.7710 -16.1225 -15.9909  -5.2259  -5.1792  -4.7964   1.6949   2.3540
     2.3755   2.6746   2.7719   2.8445  10.4977  12.3550  13.1605  13.7988
    14.8073  15.2798  15.3960  15.4173  15.7548  16.0109  16.0358  16.0586

          k = 0.7000-0.1000 0.9000 (  3775 PWs)   bands (ev):

   -19.7527 -16.1228 -16.0218  -5.2447  -5.1446  -4.8503   1.7159   2.4211
     2.4871   2.6752   2.7426   2.7934  10.5009  12.3803  12.9808  13.5900
    14.7963  15.3176  15.3953  15.6936  15.9100  15.9999  16.0452  16.3580

          k = 0.6000 0.0000 0.8000 (  3783 PWs)   bands (ev):

   -19.7552 -16.0920 -16.0494  -5.2243  -5.0832  -4.9301   1.8242   2.3568
     2.4339   2.6299   2.7385   2.8339  10.6281  12.5673  12.7127  13.2563
    14.6645  15.2876  15.5756  15.7456  15.8797  15.9298  16.0610  16.3565

          k =-0.2000-1.0000 0.0000 (  3778 PWs)   bands (ev):

   -19.7457 -16.1526 -16.0024  -5.2614  -5.2056  -4.7812   1.5900   2.5653
     2.6338   2.6361   2.6504   2.8074  10.3570  12.1501  13.3325  14.1319
    14.9287  15.2660  15.3439  15.4914  16.0132  16.0258  16.0278  16.3649

          k = 0.6000-0.2000 1.0000 (  3757 PWs)   bands (ev):

   -19.7639 -16.0902 -16.0366  -5.2295  -5.0666  -4.9244   1.8428   2.3011
     2.3888   2.6756   2.6918   2.8611  10.6523  12.7026  12.7181  13.0966
    14.7500  15.3242  15.5246  15.6002  15.9615  15.9677  16.0362  16.3555

          k = 0.5000-0.1000 0.9000 (  3770 PWs)   bands (ev):

   -19.7526 -16.0805 -16.0653  -5.2497  -4.9969  -4.9966   1.8306   2.3340
     2.4759   2.6471   2.7523   2.7947  10.6115  12.6936  12.8192  12.9451
    14.8091  15.3562  15.4689  15.7506  15.8808  15.9946  15.9947  16.3574

          k =-0.4000-1.0000 0.0000 (  3776 PWs)   bands (ev):

   -19.7457 -16.1071 -16.0497  -5.2699  -5.0738  -4.9117   1.7544   2.4102
     2.6292   2.6302   2.6787   2.7779  10.5123  12.5602  12.8541  13.2326
    14.9395  15.3675  15.3989  15.7507  15.9278  15.9697  15.9709  16.3615

     the Fermi energy is     7.3007 ev

!    total energy              =    -147.53540732 Ry
     estimated scf accuracy    <          5.1E-12 Ry
     smearing contrib. (-TS)   =      -0.00000000 Ry
     internal energy E=F+TS    =    -147.53540732 Ry

     The total energy is F=E-TS. E is the sum of the following terms:
     one-electron contribution =     -58.37087342 Ry
     hartree contribution      =      42.26420090 Ry
     xc contribution           =     -26.10391965 Ry
     ewald contribution        =    -105.32481516 Ry

     convergence has been achieved in   8 iterations

     Writing all to output data dir out/mp-1029.save/
 
     init_run     :      0.17s CPU      0.23s WALL (       1 calls)
     electrons    :      6.44s CPU      7.68s WALL (       1 calls)

     Called by init_run:
     wfcinit      :      0.14s CPU      0.17s WALL (       1 calls)
     potinit      :      0.01s CPU      0.01s WALL (       1 calls)
     hinit0       :      0.01s CPU      0.03s WALL (       1 calls)

     Called by electrons:
     c_bands      :      5.72s CPU      6.61s WALL (       9 calls)
     sum_band     :      0.68s CPU      0.94s WALL (       9 calls)
     v_of_rho     :      0.03s CPU      0.04s WALL (       9 calls)
     mix_rho      :      0.01s CPU      0.02s WALL (       9 calls)

     Called by c_bands:
     init_us_2    :      0.06s CPU      0.07s WALL (     456 calls)
     init_us_2:cp :      0.06s CPU      0.07s WALL (     456 calls)
     cegterg      :      4.93s CPU      5.11s WALL (     216 calls)

     Called by *egterg:
     cdiaghg      :      0.87s CPU      0.90s WALL (    1335 calls)
     h_psi        :      3.72s CPU      3.88s WALL (    1383 calls)
     g_psi        :      0.02s CPU      0.02s WALL (    1143 calls)

     Called by h_psi:
     h_psi:calbec :      0.12s CPU      0.13s WALL (    1383 calls)
     vloc_psi     :      3.48s CPU      3.63s WALL (    1383 calls)
     add_vuspsi   :      0.10s CPU      0.10s WALL (    1383 calls)

     General routines
     calbec       :      0.12s CPU      0.13s WALL (    1383 calls)
     fft          :      0.02s CPU      0.04s WALL (      90 calls)
     ffts         :      0.00s CPU      0.00s WALL (       9 calls)
     fftw         :      3.74s CPU      3.92s WALL (   39978 calls)
     davcio       :      0.06s CPU      0.85s WALL (     764 calls)
 
     Parallel routines
 
     PWSCF        :      6.69s CPU      8.25s WALL

 
   This run was terminated on:   5:35:13   8Dec2023            

=------------------------------------------------------------------------------=
   JOB DONE.
=------------------------------------------------------------------------------=
