
     Program PWSCF v.7.1 starts on  5Dec2023 at  3:49:41 

     This program is part of the open-source Quantum ESPRESSO suite
     for quantum simulation of materials; please cite
         "P. Giannozzi et al., J. Phys.:Condens. Matter 21 395502 (2009);
         "P. Giannozzi et al., J. Phys.:Condens. Matter 29 465901 (2017);
         "P. Giannozzi et al., J. Chem. Phys. 152 154105 (2020);
          URL http://www.quantum-espresso.org", 
     in publications or presentations arising from this work. More details at
     http://www.quantum-espresso.org/quote

     Parallel version (MPI), running on     8 processors

     MPI processes distributed on     1 nodes
     121711 MiB available memory on the printing compute node when the environment starts
 
     Reading input from pw_mp-10182_nscf_k90_E67.in
Warning: card &IONS ignored
Warning: card / ignored
Warning: card &CELL ignored
Warning: card / ignored

     Current dimensions of program PWSCF are:
     Max number of different atomic species (ntypx) = 10
     Max number of k-points (npk) =  40000
     Max angular momentum in pseudopotentials (lmaxx) =  4

     Atomic positions and unit cell read from directory:
     out/mp-10182.save/
     Atomic positions from file used, from input discarded
 
 
     R & G space division:  proc/nbgrp/npool/nimage =       8
     Subspace diagonalization in iterative solution of the eigenvalue problem:
     one sub-group per band group will be used
     scalapack distributed-memory algorithm (size of sub-group:  2*  2 procs)

 
     Parallelization info
     --------------------
     sticks:   dense  smooth     PW     G-vecs:    dense   smooth      PW
     Min         133     133     39                 2894     2894     461
     Max         134     134     40                 2897     2897     463
     Sum        1069    1069    313                23169    23169    3695
 
     Using Slab Decomposition
 


     bravais-lattice index     =            2
     lattice parameter (alat)  =      10.7715  a.u.
     unit-cell volume          =     312.4400 (a.u.)^3
     number of atoms/cell      =            3
     number of atomic types    =            3
     number of electrons       =        28.00
     number of Kohn-Sham states=         1200
     kinetic-energy cutoff     =      67.0000  Ry
     charge density cutoff     =     268.0000  Ry
     Exchange-correlation= PBE
                           (   1   4   3   4   0   0   0)

     celldm(1)=  10.771484  celldm(2)=   0.000000  celldm(3)=   0.000000
     celldm(4)=   0.000000  celldm(5)=   0.000000  celldm(6)=   0.000000

     crystal axes: (cart. coord. in units of alat)
               a(1) = (  -0.500000   0.000000   0.500000 )  
               a(2) = (   0.000000   0.500000   0.500000 )  
               a(3) = (  -0.500000   0.500000   0.000000 )  

     reciprocal axes: (cart. coord. in units 2 pi/alat)
               b(1) = ( -1.000000 -1.000000  1.000000 )  
               b(2) = (  1.000000  1.000000  1.000000 )  
               b(3) = ( -1.000000  1.000000 -1.000000 )  


     PseudoPot. # 1 for Li read from file:
     /usr/scratch4/magr4985/MG/HTDF/pseudo/SG15/Li.upf
     MD5 check sum: c91dd4cee9943b136ac3b62641658f95
     Pseudo is Norm-conserving, Zval =  3.0
     Generated using ONCVPSP code by D. R. Hamann
     Using radial grid of  602 points,  4 beta functions with: 
                l(1) =   0
                l(2) =   0
                l(3) =   1
                l(4) =   1

     PseudoPot. # 2 for P  read from file:
     /usr/scratch4/magr4985/MG/HTDF/pseudo/SG15/P.upf
     MD5 check sum: 0688a67b2b263c6b42d3d97c42745426
     Pseudo is Norm-conserving, Zval =  5.0
     Generated using ONCVPSP code by D. R. Hamann
     Using radial grid of  602 points,  4 beta functions with: 
                l(1) =   0
                l(2) =   0
                l(3) =   1
                l(4) =   1

     PseudoPot. # 3 for Zn read from file:
     /usr/scratch4/magr4985/MG/HTDF/pseudo/SG15/Zn.upf
     MD5 check sum: 732f41c0cd6489a4b50a33b4ec99a2d3
     Pseudo is Norm-conserving, Zval = 20.0
     Generated using ONCVPSP code by D. R. Hamann
     Using radial grid of  602 points,  6 beta functions with: 
                l(1) =   0
                l(2) =   0
                l(3) =   1
                l(4) =   1
                l(5) =   2
                l(6) =   2

     atomic species   valence    mass     pseudopotential
        Li             3.00     6.94100     Li( 1.00)
        P              5.00    30.97380     P ( 1.00)
        Zn            20.00    65.40900     Zn( 1.00)

     24 Sym. Ops. (no inversion) found



   Cartesian axes

     site n.     atom                  positions (alat units)
         1           Li  tau(   1) = (  -0.7500000   0.7500000   0.7500000  )
         2           Zn  tau(   2) = (  -0.2500000   0.2500000   0.2500001  )
         3           P   tau(   3) = (   0.0000000   0.0000000   0.0000000  )

     number of k points=     8  Gaussian smearing, width (Ry)=  0.0005
                       cart. coord. in units 2pi/alat
        k(    1) = (   0.0000000   0.0000000   0.0000000), wk =   0.0312500
        k(    2) = (  -0.2500000   0.2500000  -0.2500000), wk =   0.2500000
        k(    3) = (   0.5000000  -0.5000000   0.5000000), wk =   0.1250000
        k(    4) = (   0.0000000   0.5000000   0.0000000), wk =   0.1875000
        k(    5) = (   0.7500000  -0.2500000   0.7500000), wk =   0.7500000
        k(    6) = (   0.5000000   0.0000000   0.5000000), wk =   0.3750000
        k(    7) = (   0.0000000  -1.0000000   0.0000000), wk =   0.0937500
        k(    8) = (  -0.5000000  -1.0000000   0.0000000), wk =   0.1875000

     Dense  grid:    23169 G-vectors     FFT dimensions: (  40,  40,  40)

     Estimated max dynamical RAM per process >     157.72 MB

     Estimated total dynamical RAM >       1.23 GB

     The potential is recalculated from file :
     out/mp-10182.save/charge-density

     Starting wfcs are random

     Band Structure Calculation
     Davidson diagonalization with overlap

     ethr =  5.00E-06,  avg # of iterations =  8.0

     total cpu time spent up to now is     1054.6 secs

     End of band structure calculation

          k = 0.0000 0.0000 0.0000 (  2891 PWs)   bands (ev):

  -117.5714 -71.7284 -71.7284 -71.7284 -37.3602  -3.1623   1.2546   1.2546
     1.2546   1.5019   1.5019   8.4379   8.4379   8.4379  10.0764  11.6553
    11.6553  11.6553  17.4551  17.4551  18.1134  18.2497  18.2497  18.2497
    24.7418  30.2295  30.2295  30.2295  30.7762  30.7762  30.7762  33.2324
    33.2324  35.5970  35.5970  35.5970  43.3742  43.3742  43.3742  44.0741
    44.0741  45.3883  45.3883  45.3883  46.7987  48.5902  48.5902  48.5902
    49.1190  49.1190  49.1190  49.7514  49.7514  49.7514  50.0140  50.0140
    50.0797  50.5355  50.5355  50.5355  54.0987  54.0987  54.0987  54.2424
    55.8109  55.8109  55.8109  62.6105  65.5369  68.2455  68.2455  68.5716
    68.5717  68.5717  72.6767  72.6767  72.6767  77.3526  77.7056  77.7056
    79.3859  79.3859  79.3859  81.7513  81.7513  81.7513  83.0378  83.0378
    83.0378  83.8981  83.8981  83.8981  85.6131  85.6131  86.2130  86.2130
    86.2130  88.4524  88.4524  88.4524  88.6907  88.6907  88.7656  90.4491
    90.4491  90.4491  91.1059  91.1059  91.1059  92.0036  92.0036  92.0036
    92.9245  92.9245  92.9575  92.9575  92.9575  93.0388  93.0388  93.0388
    93.2446  96.8272  99.9897 101.2280 101.2280 101.2280 103.9168 103.9168
   103.9168 104.0409 104.0409 105.0884 106.8798 106.8798 106.8798 107.9552
   107.9552 107.9552 108.5748 108.5748 108.5748 108.7189 108.7189 108.7189
   109.4606 109.4606 111.6266 117.1104 117.1104 117.9595 118.6375 118.6375
   118.6375 119.9432 119.9432 119.9432 120.7924 121.6128 121.6128 121.6128
   122.1933 122.1933 122.7415 122.7415 122.7415 122.8155 122.8155 122.8155
   123.4038 123.4038 123.4038 124.0380 124.0380 124.0380 126.9342 126.9342
   126.9342 132.0133 133.8229 134.8015 134.8015 134.8015 137.7830 137.7830
   138.3048 138.3049 138.3049 141.3169 145.5605 145.5605 145.5605 148.8668
   148.8668 149.2664 149.2664 149.2664 150.0365 150.0365 150.0365 151.0597
   151.6358 151.6358 151.6358 153.7545 153.7545 153.7545 154.1825 154.1825
   154.1825 155.7549 155.7549 156.7514 156.7514 156.7514 157.3178 158.2430
   158.2430 158.4000 158.4000 158.4000 158.7194 158.7194 158.7194 158.9692
   158.9692 158.9692 159.4917 159.4917 159.4917 159.9294 159.9294 160.4279
   160.5728 160.5728 160.5728 161.0505 161.0505 161.0505 161.1112 161.2591
   161.2591 161.2591 161.5596 162.6608 162.6608 162.6608 163.5256 163.5256
   165.1593 165.1593 165.1593 165.1668 165.1668 165.1668 165.3357 165.3357
   165.7347 165.7347 165.7347 166.7607 166.7607 166.7607 166.8813 167.0239
   167.0239 171.7588 171.7588 171.7588 176.5167 176.5167 176.5617 176.5617
   176.5617 179.9081 180.6917 180.6917 180.6917 181.0232 181.0232 181.0232
   181.0426 181.0426 181.0426 181.7483 182.1659 182.1659 182.1659 184.4818
   184.4818 184.5663 184.5663 184.5663 184.6928 188.6310 188.6310 188.6310
   191.3300 191.3300 191.3300 191.4019 192.0537 192.0537 192.5326 192.5326
   192.5326 193.2405 193.2405 193.2405 193.7681 193.7681 193.7681 195.0378
   195.0378 195.0378 196.7489 196.7489 199.1845 199.1845 199.1845 199.9705
   199.9705 200.2690 200.2690 200.2690 200.3249 200.4712 200.4712 200.4712
   201.3296 201.3296 201.3296 201.9681 201.9681 201.9681 202.7792 202.7792
   206.1777 207.3687 207.3687 207.3687 212.9101 214.1902 214.1902 214.1902
   215.2610 215.2610 215.2610 216.4344 218.0485 218.0485 219.5153 220.9147
   220.9148 220.9148 220.9376 220.9376 220.9376 221.5314 221.5314 221.5314
   225.8008 225.8008 226.1545 226.1545 226.1546 227.1394 227.1394 227.1394
   227.5499 227.9237 227.9237 227.9237 228.3426 228.3426 229.4229 231.6779
   232.3826 232.3826 232.3826 232.9619 232.9619 232.9619 233.0007 233.0007
   233.0007 233.1431 233.1431 233.1431 233.6200 233.6200 233.6200 234.3207
   234.3207 234.5173 234.5173 234.5173 237.5220 237.5220 237.5220 237.6020
   237.6020 237.6020 237.6557 237.6557 237.6557 237.6845 237.6845 237.7507
   237.7507 237.7507 237.8733 239.2623 239.2623 239.2623 240.7381 240.9504
   240.9504 240.9504 241.0626 241.0626 243.1511 246.2752 246.2752 246.2752
   247.3604 247.3604 247.3604 248.2311 248.2311 248.2311 249.8533 249.8533
   249.8533 249.8686 249.8686 249.8686 251.1877 251.1877 251.6937 251.6937
   253.2487 253.2487 253.2487 253.3760 254.6826 254.6826 255.4881 255.4881
   255.4881 255.5937 255.5937 255.5937 255.9900 255.9900 255.9900 256.8204
   256.8204 256.8204 257.3648 257.3648 257.4990 258.2584 258.2584 258.2584
   258.6637 258.6637 258.6637 258.9482 259.6499 261.8637 262.5199 262.5199
   262.5199 263.6495 263.6495 263.6495 264.1329 264.1329 264.3417 264.3417
   264.3417 265.0779 265.0779 265.0779 265.1582 265.1808 265.1808 265.1808
   265.3579 265.3579 265.3579 269.6322 269.6322 269.7237 269.7237 269.7237
   269.7661 269.7661 269.7661 270.4071 270.4071 270.4071 270.6066 270.6066
   270.6066 270.6125 270.6125 270.6885 270.6999 270.6999 270.6999 270.9431
   270.9431 270.9431 271.0629 271.0629 271.0629 271.3530 271.3530 271.5354
   271.5354 271.5354 271.5484 271.5484 271.5484 271.6987 271.8077 271.8077
   271.8673 271.8673 271.8673 275.8131 275.8131 278.2694 278.2694 278.2694
   284.7410 284.7410 284.7410 284.8313 288.7449 288.7449 288.7449 289.6693
   290.0821 290.0821 295.3122 296.5555 296.5555 296.5555 297.9111 297.9111
   297.9111 298.8211 298.8211 300.0325 300.0325 300.0325 300.4057 300.4057
   300.4057 300.7012 301.5111 301.5111 301.5111 302.4166 302.8025 302.8025
   302.8025 303.9539 303.9539 303.9539 304.2305 304.2305 305.4102 309.2156
   309.2156 309.2156 309.6488 309.6488 310.2749 310.2749 310.2749 310.2970
   310.2970 310.2970 310.4373 310.4373 310.4373 311.7447 311.7447 311.7447
   312.4308 312.4308 312.4308 312.5976 312.5976 312.6771 312.6771 312.6771
   312.8524 312.8524 312.8524 313.4748 313.4748 313.4748 313.8860 313.8860
   313.9230 313.9230 313.9230 313.9951 314.8700 314.8700 315.1255 315.2760
   315.2760 315.2760 319.9053 319.9053 319.9054 322.9443 322.9443 322.9443
   323.2362 323.2362 324.2159 324.2159 324.2159 325.4147 326.6150 326.6150
   327.0891 327.0891 327.0891 327.1515 327.1515 327.1515 327.8337 327.8337
   327.8337 327.8971 327.8971 327.8971 328.2742 328.2742 328.2742 329.2831
   329.8745 329.8745 329.8745 330.0046 330.0046 331.0738 331.9172 331.9172
   331.9172 332.0192 335.2919 335.2919 335.2919 335.9402 335.9402 335.9402
   337.1449 338.0770 338.0770 338.0770 338.2173 338.2173 338.6814 338.6814
   338.6814 338.7357 338.7357 338.7357 339.0819 341.2064 341.2064 343.2132
   343.2132 343.2132 343.2646 343.2646 343.4040 343.4040 343.4040 343.4941
   343.4941 343.4941 343.5517 343.6331 343.6331 343.6332 343.9662 343.9662
   343.9662 344.1716 344.1716 344.1716 344.3586 346.1312 346.1312 346.1312
   346.1748 346.6804 346.6804 347.2718 347.2718 347.2718 347.3997 347.3997
   347.3997 348.1720 348.1720 348.1720 348.1967 348.1967 348.2063 348.2063
   348.2063 348.3487 349.0651 349.0651 349.0651 352.8046 352.8046 356.8464
   356.8464 356.8464 359.2325 360.4093 360.4093 360.4093 361.5168 361.5168
   362.9790 362.9790 362.9790 363.5144 364.1546 364.1546 364.1546 364.5240
   364.5240 364.5240 364.9401 364.9401 364.9401 365.2835 365.2835 365.2835
   365.3569 365.3569 365.5923 365.5923 365.5923 365.7721 366.6629 368.0170
   368.0170 368.0170 369.9948 369.9948 369.9948 370.3413 370.3413 370.5210
   371.0747 371.0747 371.0747 371.8138 371.8138 371.8138 372.2922 372.2922
   372.2922 372.8245 374.0364 374.0364 375.0580 375.0580 375.0580 375.2136
   375.2136 375.2136 375.5894 375.5894 377.9329 377.9330 377.9330 378.6825
   378.6825 378.6825 379.1780 379.1780 379.1780 379.2448 379.2945 379.2945
   379.4515 379.4515 379.4515 379.8873 379.8873 379.8873 379.9071 379.9071
   381.4899 381.4899 381.4899 381.6790 381.6790 381.6790 381.7258 381.7258
   381.7722 381.7722 381.7722 381.8638 381.9273 381.9273 381.9273 381.9890
   382.1672 382.1672 382.1672 382.4130 382.4130 382.4130 382.6864 382.9502
   382.9502 382.9502 383.1345 383.1345 383.1345 383.5396 383.5396 383.5396
   383.5893 383.5893 383.5893 383.7605 383.7605 386.2509 386.2509 386.5027
   386.5027 386.5027 387.0425 387.0577 387.0577 387.0577 387.3180 387.3180
   387.3180 387.4814 387.4814 387.4814 387.7102 387.7102 387.7102 387.9293
   387.9293 388.1264 388.1265 388.1265 388.2765 388.6872 388.6872 388.6872
   390.0966 391.8908 391.8908 391.8908 392.8835 400.7268 400.7268 404.1415
   404.1415 404.1415 404.3249 404.3249 404.3249 404.4771 404.4771 404.4771
   404.5263 404.5263 404.6605 404.6605 404.6605 405.4295 405.4295 408.4100
   408.4100 408.4100 408.7451 409.1019 409.1019 409.1019 410.0398 410.0398
   410.4346 410.7976 410.7976 410.7976 411.8538 411.8538 411.8538 411.9921
   411.9921 411.9921 412.1490 412.1490 412.1490 417.5477 417.5477 417.5477
   418.0366 418.0366 418.0366 418.1926 418.1926 418.1926 418.2263 418.2263
   418.3006 418.3006 418.3006 418.3223 418.3992 418.3992 418.3992 419.0506
   419.0506 419.1688 419.1688 419.1688 419.3018 424.4865 424.4865 424.4865
   429.5439 429.5439 430.3940 431.2729 431.2729 431.2729 432.4010 433.1642
   433.1642 433.1642 434.7821 434.7821 434.7821 435.5311 435.5312 435.5312
   436.0239 436.0239 436.0239 436.0271 436.0271 436.1685 436.1685 436.1685
   438.0510 438.0510 438.1472 439.3776 439.3776 439.3776 441.3050 441.5687
   441.5688 441.5688 443.2833 443.2833 443.2833 444.4051 444.4051 444.4051
   444.4834 444.4834 445.1210 446.9085 446.9085 446.9085 447.4097 447.7468
   447.7468 447.7468 448.7793 448.7793 448.7793 449.4996 449.4996 450.5192
   450.5192 450.5192 451.4286 451.4286 451.8527 451.8527 451.8527 451.9304
   452.0924 452.0924 452.0924 452.2234 452.2518 452.2518 452.2518 452.7909
   452.7909 452.7909 452.8955 452.8955 452.8955 454.2075 454.2075 454.4528
   454.4528 454.4528 454.6723 455.7101 455.7101 455.7326 455.7326 455.7326
   455.8259 455.8259 455.8259 455.8288 455.8288 455.8288 455.8371 455.8371
   455.9168 455.9168 455.9168 458.0916 458.0916 458.0916 458.1669 458.4010
   458.4010 458.4010 458.7284 458.7284 459.1926 459.1927 459.1927 459.4483
   459.4616 459.4616 459.4616 459.4786 459.4786 459.4786 459.5478 459.5478
   459.5590 459.5590 459.5590 462.5699 462.5699 464.1395 464.9726 464.9726
   464.9726 466.6961 466.6961 466.6961 468.7706 468.7706 468.7706 469.3434
   469.3434 469.4973 469.4973 469.4973 470.0170 472.2996 472.3644 472.3644
   472.3644 472.7800 472.7800 472.7800 472.9912 472.9912 473.0340 473.0340
   473.0340 474.8030 474.8030 474.8030 475.3909 475.3909 475.3909 475.4713
   475.4713 475.4713 476.2787 476.2787 476.3178 476.7190 476.7190 476.7190
   477.5581 477.5581 477.5581 477.5875 477.5875 477.5875 477.9291 477.9291
   477.9291 478.7346 478.7346 478.7786 478.7786 478.7786 478.8838 478.8838
   478.8838 478.9566 478.9566 478.9566 479.0314 479.6492 479.6492 479.6492
   480.5350 480.5350 480.6630 480.6630 480.6630 480.7024 480.7024 480.7382
   482.2956 485.1627 485.1627 485.1627 485.2582 486.7491 486.8462 486.8462
   486.8462 487.0350 487.0350 487.0350 487.5504 487.5504 487.5504 487.8146
   487.8146 487.8146 487.8895 487.8895 488.6465 488.9215 488.9215 488.9215
   489.3409 489.3409 489.3409 489.3584 489.3584 489.4176 489.4176 489.4176
   489.8067 489.8067 489.8067 489.8445 489.8445 489.8917 489.8917 489.8917
   489.9096 490.1468 490.1468 490.1468 490.2668 490.2668 490.2668 490.5610
   490.5610 490.5610 490.7800 490.7800 490.7800 491.1326 491.1326 491.3550

          k =-0.2500 0.2500-0.2500 (  2884 PWs)   bands (ev):

  -117.5714 -71.7284 -71.7284 -71.7284 -37.3598  -2.6891   1.2917   1.2917
     1.3006   1.4998   1.4998   5.1397   7.7882   7.7882  10.6148  12.4856
    12.4856  14.1140  16.0006  16.0006  17.3871  21.5061  22.3866  22.3867
    24.2759  25.3839  25.3839  27.1148  31.6709  31.6709  33.0236  33.0236
    34.4356  36.3089  37.2354  37.2354  38.4687  39.8771  39.8771  42.2850
    42.6376  42.6377  43.9781  43.9781  44.3069  45.4925  46.2408  46.2408
    47.4337  48.5879  48.5879  50.3424  51.2170  51.8389  51.8389  53.3765
    53.3765  53.7157  56.0407  56.0407  57.8364  58.4600  59.9748  59.9749
    60.5674  61.1796  61.1796  62.7548  62.7548  62.7894  65.4230  65.4230
    67.0187  68.4812  70.1736  70.1736  70.8129  73.5659  73.5659  77.0461
    77.0461  77.2265  77.4520  78.4061  78.5389  78.5389  80.6147  80.6573
    80.6573  81.8575  81.8575  82.9555  84.5947  84.6213  84.6213  84.9905
    85.2793  85.2793  86.9918  86.9918  87.2326  89.1243  89.1243  89.9401
    89.9404  90.9596  90.9597  92.7050  92.7050  93.1841  93.8204  93.8204
    94.2639  96.4853  96.4853  96.5056  97.5221  97.5221  98.2998  99.2935
    99.5066  99.5066  99.9686 100.3778 100.3778 101.2635 103.5595 103.5702
   103.5702 104.2992 104.2992 105.0646 105.7983 105.7983 106.7537 106.8537
   106.8891 106.8891 108.7283 108.7283 108.9024 110.5716 110.5716 112.0961
   112.2635 112.3538 112.3538 112.9242 114.6181 114.6181 115.2041 115.8430
   115.8430 117.1696 117.1696 117.3498 117.3776 118.7337 118.7337 119.7994
   122.7109 122.7109 123.5107 125.6595 125.6595 127.4525 127.6002 127.6002
   128.2117 129.5603 130.1618 130.1619 132.4124 132.4124 133.7173 133.7173
   134.5461 134.8192 134.9142 134.9142 136.0789 136.0789 136.2306 137.2039
   137.2039 138.3257 138.8998 138.8998 139.4722 139.5774 140.3405 140.3405
   141.2658 142.1463 142.8315 143.1934 143.1934 143.8062 143.8062 145.1477
   145.6000 145.6000 147.1663 148.1104 148.1104 148.5916 148.5916 149.3200
   149.5198 151.1778 151.1778 152.1024 152.8710 152.8710 153.4748 153.4748
   153.5643 154.7911 154.7911 155.2430 155.7541 157.0293 157.5123 157.5123
   159.1627 159.1627 159.7824 159.9826 159.9826 160.0933 160.5579 160.5579
   161.3758 161.5994 161.5994 162.9708 163.1492 163.3246 163.3246 164.1077
   164.1077 164.1593 165.0491 165.1472 165.1472 166.2995 166.2995 168.2679
   168.4579 168.4579 169.0838 169.6899 169.6899 170.1594 170.7894 170.7894
   170.8791 171.3489 171.3489 172.2932 172.7236 172.7236 174.3373 174.6377
   174.6377 174.7766 174.9916 174.9916 175.6924 176.1368 176.1368 176.4356
   177.0493 177.0493 178.1147 178.1147 178.1488 179.3864 180.0017 180.0017
   180.5729 180.5729 181.4111 181.4589 181.4589 182.6419 182.8233 183.5786
   183.5786 183.8886 187.6630 187.6630 188.1014 188.4579 188.8960 188.8960
   189.3612 189.3612 189.6332 189.6766 189.6766 191.7515 191.7515 191.9935
   192.2952 192.6885 193.6955 193.6955 194.7450 194.7450 195.1873 197.1088
   197.1088 198.0688 198.6515 198.6515 199.8887 200.5338 200.5338 201.6918
   202.0247 202.0247 202.3315 202.4719 203.6909 203.6909 204.5576 205.1845
   205.1845 205.7505 206.1981 206.1981 206.9535 208.0621 208.0621 208.7431
   208.7431 209.9426 210.1148 210.1148 210.6220 211.5772 213.5171 213.7158
   213.7158 214.1625 214.4753 214.4753 215.0616 215.4382 215.4382 216.1395
   216.1395 216.3513 217.1831 217.1831 217.5447 217.7929 218.0399 218.0399
   219.0327 219.0327 220.2537 220.2537 220.7970 221.1238 221.4225 221.4225
   221.7879 222.3175 222.3175 224.1558 224.1558 224.3082 225.7649 225.7649
   226.2460 226.9689 226.9689 227.9223 228.0656 228.6670 228.6670 230.7643
   230.7643 231.2106 231.3888 233.2407 233.5068 233.5068 234.3242 234.3242
   235.2449 235.5805 235.5805 236.1543 236.1543 236.4707 236.5787 237.7246
   238.3281 238.3281 238.3871 238.7852 238.7852 240.0477 240.8115 240.8115
   241.3487 241.4320 241.4320 241.9066 241.9066 242.0463 242.7677 242.7677
   243.2431 243.2431 244.0037 244.1290 244.1290 244.9449 244.9468 245.2847
   245.2847 245.9378 245.9378 246.2223 246.4562 246.7555 246.7555 247.7981
   248.1070 248.1070 248.2075 249.1089 249.1854 249.1854 250.0087 250.0374
   250.0374 250.9506 251.0507 251.0507 251.9581 251.9795 251.9795 252.7281
   252.7281 253.1771 255.1873 255.1975 255.1975 256.0729 256.0729 256.3970
   256.7801 257.1546 257.1546 257.7337 257.7337 258.2861 258.6517 258.9098
   258.9098 259.4075 259.5731 259.5731 260.4271 261.0776 261.0776 261.5097
   261.6096 261.6111 261.6111 261.9244 261.9244 262.4280 263.0534 263.0534
   264.2390 264.2390 264.6045 264.9003 265.0099 265.0100 265.4302 265.4302
   265.5351 266.2858 268.5150 268.5150 269.2301 269.7938 269.8268 269.8268
   270.4935 270.4935 272.0449 272.9367 273.5463 273.5463 274.5995 274.5995
   275.1937 275.6603 275.8075 275.8075 277.1804 277.1804 277.4987 277.4987
   277.5365 277.5380 278.6467 278.6467 278.9129 278.9129 278.9145 279.0261
   280.2132 280.2132 280.3233 281.3468 281.3468 282.7447 282.7447 283.5931
   284.2765 284.2766 285.4777 285.4989 285.4989 285.7634 285.7634 285.8031
   286.6503 286.7657 288.1552 288.1552 289.3197 289.7083 289.7083 289.9166
   290.0711 290.0711 290.1330 290.7688 290.7688 290.7956 291.0608 291.0608
   291.9896 292.0872 293.0668 293.0668 294.9361 294.9578 294.9578 296.5740
   296.5740 297.4080 297.7764 297.7764 299.0680 299.1019 299.2932 299.2932
   299.5846 299.5846 299.8217 299.8217 299.8535 300.2626 300.2626 300.6602
   301.3314 301.6500 301.6500 302.4014 302.4014 303.1739 303.7674 303.7674
   304.7566 307.1613 307.3708 307.3708 307.8174 308.2839 308.2839 308.8561
   309.1658 309.4504 309.4504 310.8214 310.8214 310.8279 311.4822 311.4822
   312.0377 313.4817 313.4817 314.4189 314.4189 314.8423 315.5937 316.5266
   316.8620 316.8620 317.0032 317.2729 317.2729 317.8176 317.8176 318.0461
   318.8272 318.8272 319.2704 319.4298 319.4298 319.5382 321.0169 321.0169
   321.0336 321.6862 322.0350 322.0350 323.3770 323.6811 323.6811 324.1515
   324.3813 324.3813 325.6999 326.5080 326.5447 326.5447 326.7178 326.7178
   327.8406 327.8921 327.8921 328.2583 328.2583 328.6949 330.0854 330.0936
   330.0936 330.9767 331.5464 331.5464 332.2146 333.1821 333.7905 334.4878
   334.4878 335.2709 335.2709 335.9691 336.0012 336.0012 336.4492 336.4492
   336.4818 336.8902 336.8902 337.4593 337.4593 337.5254 337.9970 338.1915
   338.1915 338.6314 340.1372 340.1372 340.9307 341.3040 341.3040 341.4690
   342.2282 342.2282 342.3614 342.6474 342.6552 342.6552 344.0925 344.0925
   345.1876 345.3010 345.3010 345.7885 345.7885 345.8274 346.0863 346.0863
   346.6062 346.6062 347.0444 347.0444 347.0724 347.1017 347.8875 348.3662
   348.3662 348.4797 348.5347 348.8779 348.9185 348.9185 349.1964 349.1964
   349.4799 349.7934 349.7934 350.2373 350.2373 350.5621 351.8039 352.2182
   352.2182 353.1202 353.1202 353.7012 353.8111 353.8111 353.8526 354.0534
   354.6516 354.6516 355.2917 355.6124 355.6124 356.0893 356.1641 356.1641
   356.2929 356.2929 356.3027 356.6636 356.9869 356.9869 357.2151 357.2151
   357.3113 357.3366 359.4242 359.4242 360.4871 361.4888 361.4888 361.8353
   361.8422 361.8422 362.5932 363.4071 363.4071 363.7132 363.7424 363.9282
   363.9282 364.3866 365.9997 365.9997 366.3418 366.5978 366.5978 368.2034
   368.2034 368.3836 368.3836 368.4339 369.4299 369.4299 369.8889 369.8889
   369.9803 370.1067 371.0894 371.6176 371.6176 372.2937 372.2937 372.4141
   372.5690 372.8251 372.8251 373.1976 373.1976 373.5457 374.0932 374.0932
   374.4182 374.6182 374.6362 374.6362 375.0639 376.1491 376.1491 377.0335
   377.3929 377.3929 378.6634 378.6926 378.6926 379.4422 379.8392 379.9114
   379.9114 380.2855 380.2855 380.3992 380.5938 381.0957 381.0957 382.3139
   382.3139 383.1698 384.6167 384.6606 384.6606 385.1230 385.1230 386.4439
   386.6592 386.6592 387.8226 388.0992 388.0992 388.4822 388.5213 388.5213
   389.1632 389.1761 389.1761 389.5802 389.6767 389.6767 390.1265 390.4632
   390.9856 390.9856 391.6187 391.8948 391.8948 392.0212 392.2936 392.2936
   392.8783 392.8783 393.4407 394.0045 394.2021 394.5087 394.5087 395.4865
   395.4865 396.1671 396.2021 396.3069 396.3069 397.1840 397.1840 397.7538
   397.8127 398.0495 398.0495 398.5181 399.0039 399.0039 399.6403 399.6403
   400.2004 400.5966 400.6490 400.6490 400.9561 400.9561 401.2046 401.8521
   401.8521 401.9247 402.1743 402.6750 402.6750 403.3430 403.3430 403.5572
   403.6471 403.6471 404.7300 405.4720 407.0653 407.0653 407.6112 407.6112
   407.7872 407.8474 408.0618 408.0618 408.6577 408.6577 408.8962 409.2502
   409.4481 409.4481 410.8763 410.8763 411.8946 413.7446 413.7446 414.1623
   414.3951 414.3951 414.7058 415.8051 415.8051 416.7633 416.7633 416.9385
   417.1308 417.3541 417.3541 417.7156 417.7156 418.2978 418.8671 418.8671
   419.3331 420.5330 420.5330 420.5847 420.8895 420.8895 421.7029 421.7029
   421.7227 421.9930 424.8429 424.9460 424.9460 425.3939 425.3939 426.1847
   427.6827 427.7593 427.7593 428.2283 428.2283 428.2643 429.4514 429.4514
   429.6121 430.5790 430.5790 430.7355 430.8483 431.0329 431.0662 431.0662
   431.9089 431.9089 432.1974 432.3914 432.3914 432.7558 433.1769 434.1718
   434.1718 434.6167 434.6167 434.6350 435.9903 435.9903 436.2132 438.0488
   438.0488 438.2882 439.2152 439.2152 439.6535 440.1748 440.1748 440.6489
   440.6668 440.6668 441.5283 441.5520 441.5520 441.6282 441.6805 442.0357
   442.0357 442.4710 442.4710 442.5887 442.6604 442.6604 442.8150 443.0437
   443.0437 443.6992 443.6992 444.0111 445.0365 445.0365 445.2156 446.5022
   446.7657 446.7657 447.8386 448.1176 448.1176 448.9133 448.9481 448.9481
   449.1505 449.4043 449.4043 449.6064 450.0184 450.0871 450.0871 450.5790
   450.5790 450.7969 451.5140 451.5140 451.7012 451.7012 451.9772 452.0230
   453.6606 453.6606 454.4220 454.7849 454.7850 455.3248 455.3248 455.3350
   455.7945 455.7945 455.8111 456.0635 456.4585 456.4585 456.7111 457.1620
   457.1620 457.6275 457.7582 457.7582 457.8711 458.9010 458.9010 458.9976
   459.1624 459.1624 459.3289 460.5380 460.5380 460.9383 460.9383 461.0338
   461.4812 462.1719 462.3747 462.3747 462.3751 462.7762 462.7762 462.9282
   462.9282 463.3719 464.6020 464.6020 464.8249 465.5176 465.5176 465.5556
   465.5618 465.7101 465.7101 467.0059 467.0059 467.7290 468.1308 469.0555
   469.0555 470.0120 470.3517 470.3517 470.9673 471.0790 471.0790 471.2519
   471.6169 471.6169 471.9684 472.2251 472.2252 472.8108 472.9673 472.9673
   473.7166 473.7792 473.7792 473.8068 474.4419 474.4419 474.6896 474.6896
   474.8975 474.9998 475.3529 475.3529 475.7788 476.0019 476.0019 476.2451
   476.2451 476.2548 476.8791 477.5285 477.5285 478.2453 478.8278 478.8338
   478.8338 479.3597 479.3597 479.7773 479.9124 479.9124 479.9826 480.2679
   480.2679 480.4244 481.1968 481.1968 482.8006 483.2851 483.2851 483.5930
   483.5930 483.6844 483.6944 484.8714 484.8714 484.9186 484.9368 484.9368
   484.9639 485.1154 485.5988 485.5988 486.1112 486.1686 486.1686 486.2250
   486.8438 486.8438 487.5745 487.8632 487.8632 488.5364 488.5364 488.9154
   490.1243 490.8777 490.8777 491.6768 491.6935 491.6935 492.6156 492.6217
   492.6217 494.1040 494.1040 494.8716 494.9679 494.9679 495.1852 495.1852
   495.7213 495.7213 495.8803 496.1313 496.1313 496.6272 496.7852 496.8011
   496.8011 497.0375 497.0375 497.1526 497.3688 497.6428 497.9761 497.9761

          k = 0.5000-0.5000 0.5000 (  2914 PWs)   bands (ev):

  -117.5714 -71.7285 -71.7284 -71.7284 -37.3593  -2.0717   1.3032   1.3032
     1.5265   1.5265   1.7691   2.6845   7.3586   7.3586  10.5179  12.3196
    12.3196  15.6536  18.8815  19.1497  19.1497  19.4656  19.4656  20.7258
    25.1937  28.2018  28.2018  28.8190  30.0777  30.0777  33.0385  33.0385
    33.5865  34.1291  34.1291  34.9990  37.3298  37.3298  37.5057  38.7734
    40.9282  40.9282  41.4032  44.6029  46.3230  46.3230  47.2997  47.2997
    48.7866  49.9768  49.9768  50.4592  52.4736  55.6838  55.8978  55.8978
    56.3958  56.3958  57.0361  57.0361  59.5974  60.8534  60.8534  60.8953
    61.5800  61.5800  64.2971  64.5490  64.5490  65.2580  65.2580  66.7416
    66.8838  67.5377  68.5070  68.5070  69.1592  69.1592  70.0752  71.4318
    73.3733  73.3733  74.6236  75.1488  75.1488  75.7315  75.7315  78.4811
    79.1621  80.7609  80.7609  83.2227  84.3138  84.7785  84.7786  85.4826
    86.0554  86.0554  87.1985  87.1985  87.6234  89.8205  89.8205  89.9599
    90.4524  90.4524  90.6252  91.8097  92.4907  92.4907  93.8956  94.6280
    94.6280  94.6959  95.9272  96.1032  96.1032  99.5314  99.8602  99.8602
   100.7686 100.7686 101.5208 102.3689 102.3689 102.9407 103.4558 103.6219
   104.0708 104.0708 105.2589 105.3272 105.3272 106.5684 106.5684 107.3101
   108.0833 108.0833 110.5451 110.5553 110.5553 111.9483 112.5432 113.2389
   113.2389 113.7854 113.7854 115.1092 116.3803 116.3803 118.2158 118.2158
   118.8640 119.8074 120.5291 120.5291 120.8108 120.8108 123.0942 123.1192
   123.1392 123.1392 123.1914 124.0954 124.0954 124.4611 124.4612 126.0048
   127.1422 127.1422 127.5363 127.6055 127.6055 128.3546 129.3002 130.6561
   130.6561 133.5710 135.0055 135.0055 135.5265 135.9134 136.4070 136.4070
   137.7634 138.6567 138.6567 138.7972 139.8887 140.4742 140.4742 141.4344
   141.4344 142.0065 142.5442 142.5442 144.2580 144.3549 144.3549 146.4096
   146.4096 146.9270 147.1535 147.1535 147.1548 148.3887 148.4769 148.4769
   148.7918 148.7918 149.0998 149.4492 149.9371 149.9371 150.5467 150.5467
   152.0642 152.0642 152.7764 153.1539 153.9184 153.9184 155.5691 155.5691
   155.9022 156.8189 157.0311 157.0311 157.5640 157.5640 157.6972 158.6596
   158.6596 159.1831 159.5930 159.5930 160.7273 163.0880 163.8327 163.9732
   163.9732 165.1714 165.1857 165.1857 165.9683 167.4048 167.4048 167.8805
   168.2778 168.3937 168.3937 168.6648 168.6648 169.3199 170.0949 170.0950
   171.0755 171.8382 172.3936 172.3936 172.7218 173.4371 173.4371 175.2120
   175.8798 177.4978 177.4978 178.0478 178.0478 178.4314 178.4737 178.4737
   178.8852 179.3649 179.3649 180.1310 180.1310 181.4540 181.4540 182.6694
   183.2557 187.0356 187.0356 187.0447 188.4146 188.7122 188.7122 188.8137
   188.8137 189.2871 190.7649 191.1866 191.1866 191.6581 192.2177 192.2177
   193.1694 193.5998 193.5998 194.4745 194.4745 194.5750 194.8997 194.9151
   195.1931 195.4018 195.4018 196.1384 196.1384 196.2448 196.4360 196.4360
   197.4658 198.1584 198.1584 199.3357 199.3357 199.5811 199.5811 199.9313
   200.6187 202.6490 202.6490 203.1849 203.5155 203.5155 203.7201 203.7201
   203.9141 204.2380 204.3212 204.3212 204.7398 204.7398 206.1250 206.1250
   206.3083 206.3152 207.7519 207.7519 207.7943 209.2247 211.2588 211.7435
   211.7435 212.8312 212.8312 213.5683 213.5683 213.9144 214.1380 214.3958
   214.3958 215.5030 215.5973 215.5973 216.9711 216.9711 217.3643 217.8063
   217.8063 217.9079 219.0393 219.0393 219.8595 219.8595 219.9321 220.1878
   221.6003 221.6003 222.5007 223.2659 223.2659 223.6048 223.6048 223.6803
   223.8346 223.8446 223.8446 224.4729 225.0970 225.0970 226.6524 228.4804
   228.7702 228.7702 229.2924 229.6260 229.6260 229.8325 229.8325 230.2850
   230.6888 230.8128 232.1924 232.1924 232.4709 232.4709 232.9903 233.3516
   233.3516 234.3210 235.7713 235.7713 236.6702 237.3906 238.0867 238.0867
   238.6847 239.2649 239.2649 239.6847 239.6847 239.8815 241.3315 242.8418
   242.8418 243.4751 243.4751 243.6861 244.9455 244.9455 245.6262 246.2413
   246.2413 246.9942 247.0379 247.0379 248.0628 248.0628 248.2969 249.0547
   249.0547 249.0548 249.2465 249.6090 249.7421 249.7421 249.8543 252.0523
   252.0523 252.4016 252.4016 252.8467 252.8467 253.1675 253.1693 253.1693
   254.8401 255.0945 255.0945 256.4534 256.7694 256.8439 256.8439 257.2667
   257.2668 257.5084 257.9862 257.9862 258.2017 259.6294 260.4943 260.4943
   260.7816 260.7816 260.9079 261.4481 261.8510 261.8510 261.9561 262.4995
   262.4995 262.6803 264.2246 264.2246 265.0272 265.0273 266.0518 267.1977
   267.1977 267.9471 268.4929 268.6905 269.0941 269.0941 270.2864 270.2864
   270.4864 270.9073 270.9073 271.6570 272.9827 272.9827 273.6709 273.9876
   273.9876 273.9953 274.1575 274.3300 274.3300 274.5226 275.2316 275.5121
   275.5121 275.8190 275.8190 276.3820 276.8929 276.8929 276.9177 278.3958
   278.3958 279.4538 280.5758 280.5758 281.5129 282.1180 282.1180 282.6401
   284.5242 284.6332 284.6332 284.7003 285.5980 285.5980 286.6447 286.6447
   286.9634 287.0394 287.0394 287.0887 287.3227 287.3227 287.4414 287.8287
   287.9607 287.9607 288.0862 288.0862 288.2750 288.2750 288.4173 288.6512
   289.1900 289.3524 289.3524 290.1965 290.1965 290.2355 290.4760 290.4760
   291.0554 291.3109 291.3109 292.1179 292.5065 292.5065 293.3419 293.4556
   293.4556 293.6486 294.1625 295.4846 295.4846 296.3805 296.3805 296.8267
   296.8854 297.9222 297.9222 298.4542 299.7098 299.7098 299.7350 300.1470
   300.1470 300.8667 302.4446 302.4446 303.0822 303.6820 303.6820 303.7250
   305.4248 305.9195 305.9195 306.2408 306.2408 308.8656 308.8656 309.2318
   309.3104 309.3104 310.5558 312.1264 312.1636 312.1636 312.7779 312.7779
   313.0285 313.0285 313.0734 313.4570 313.4570 313.5691 313.5876 314.5507
   314.5507 314.6577 314.9683 314.9683 315.2181 315.2181 315.5528 316.0877
   316.0877 317.1258 317.1369 317.1746 318.2807 318.2807 319.0758 319.0758
   319.7557 320.2763 320.7627 320.7627 321.4931 321.4931 321.7411 322.9644
   324.0262 324.0262 324.6167 324.8900 324.8900 325.2893 325.2893 325.4745
   325.5200 326.2915 326.2915 327.4821 328.4469 328.9589 329.1826 329.1826
   329.7485 329.7485 330.2520 331.4152 331.8623 331.8623 332.4785 332.4785
   333.6873 333.6873 333.9483 333.9483 334.2275 334.2275 335.1924 335.2494
   335.7915 335.9662 336.6624 336.6624 337.0351 337.4297 337.4297 337.4605
   337.4605 338.2516 338.2516 338.7401 338.7401 338.9684 339.2774 340.4597
   340.4597 340.8047 341.1519 341.1519 341.2181 341.2181 341.2708 341.3056
   342.5145 342.5145 343.3789 343.3789 343.4295 343.5225 343.5225 343.5261
   343.5634 344.7302 344.7302 344.8157 344.9037 345.7390 345.7390 346.5005
   346.5005 346.8921 348.3090 348.9382 348.9382 349.9869 349.9869 350.0095
   350.5120 350.5120 350.5745 350.6976 350.7264 350.7264 351.3777 351.3777
   351.8897 352.2932 353.8089 353.8089 354.5290 354.5290 354.6982 355.0279
   355.0279 355.5297 355.6185 355.9377 355.9377 356.3319 356.3319 356.5293
   356.5293 356.6339 357.2985 358.6556 358.6556 359.2104 359.8866 359.8866
   360.4388 361.0704 361.4441 361.5415 361.6694 361.6694 361.7816 361.7816
   361.8774 361.8774 361.9636 362.0297 362.3903 362.5359 362.5359 363.0922
   363.0922 363.1584 364.0544 364.0544 364.4813 365.3951 365.3951 366.5268
   366.8717 366.8717 367.3138 367.3138 367.4751 367.4751 367.7610 367.7698
   367.8086 367.8801 367.8801 369.3660 370.4195 370.4195 371.3590 371.4650
   371.4650 371.8659 374.6369 374.6369 375.8714 377.5854 378.0698 378.0698
   378.1011 378.1011 379.3609 379.4668 379.4668 379.7033 379.7033 379.7978
   380.1268 380.1268 380.5574 380.5574 380.9249 381.5131 381.5131 381.9703
   381.9703 383.2382 384.3739 385.0387 385.4079 385.4079 385.9984 385.9984
   386.3294 386.3294 386.5940 386.7092 386.7092 386.7993 386.8851 386.8851
   386.8993 387.0656 387.1115 387.1115 387.2848 387.2848 387.2856 387.3546
   388.9857 388.9857 389.5564 389.5564 389.5962 389.6839 390.0658 390.2633
   390.2633 391.2276 391.3441 391.3441 393.9702 394.4376 394.4376 394.9662
   396.5399 396.5399 397.2425 397.2425 397.8561 397.8561 397.8607 397.9364
   398.5131 398.5131 398.6221 398.6727 398.6727 398.9813 399.7524 399.7524
   399.8865 400.7843 400.8212 400.8212 401.2836 401.2836 401.6209 401.8144
   401.9293 401.9293 402.0186 402.0186 402.2794 402.2794 402.4346 402.6695
   404.3210 405.6192 405.6192 406.7222 406.7222 407.0661 407.0661 407.4052
   407.4076 407.4581 407.4581 407.4651 409.7826 410.2863 410.2863 410.7680
   411.4089 412.2941 412.2941 412.6892 413.0262 413.0262 413.6542 413.6542
   414.0921 414.2308 414.2683 414.6563 414.6563 414.9637 415.1257 415.1257
   415.5051 415.5567 415.5567 415.9391 415.9391 416.2707 416.7138 416.7138
   417.3894 417.6795 417.6795 418.2254 419.3415 419.3415 419.9945 420.1631
   420.1631 420.7064 422.1534 422.6181 422.6181 422.8590 423.4980 423.5044
   423.5044 423.5247 423.7717 423.7717 424.0687 424.0687 425.5353 425.5353
   425.6442 425.6442 425.7300 425.7527 426.3203 426.3203 426.4970 426.5650
   426.5650 426.6420 426.7085 426.7085 426.8356 426.8356 427.0619 427.1548
   428.5198 429.5182 429.5182 430.5118 430.7484 430.7484 431.1533 431.1533
   431.7881 433.0104 433.0104 433.2923 433.2923 433.7373 433.9751 434.2619
   434.2619 434.3374 434.3555 434.5323 434.7387 434.7387 434.8235 434.8235
   435.3358 436.6191 436.6191 438.5316 439.4734 439.5832 439.5832 439.9094
   439.9094 439.9394 439.9672 440.8613 441.1702 441.1702 441.7432 441.7432
   442.0630 442.1662 442.1662 442.5470 442.6941 442.6942 443.1378 443.1379
   443.4553 443.4553 443.9278 444.5057 444.5057 444.9385 445.0035 445.0035
   445.0625 445.1776 445.1776 445.2332 446.1175 447.3769 447.3769 448.1274
   448.1274 448.2930 448.5089 449.3501 449.3501 449.5115 450.0121 450.0121
   450.0125 450.0785 450.0785 450.5599 450.5599 450.6698 450.6724 450.8391
   450.8391 451.0346 451.0346 451.3181 453.0102 453.0117 453.1134 453.1134
   453.4795 453.4795 456.7089 456.7089 456.8405 456.8501 456.8501 456.9263
   456.9263 457.3653 457.3653 457.6987 458.0776 458.0786 460.1704 460.1704
   460.6539 461.0979 461.0979 461.1960 461.5105 461.5105 462.6530 463.1807
   464.5072 464.5072 465.5662 465.6622 465.6622 467.8099 468.1460 468.1460
   468.3865 468.5612 468.5612 469.0570 469.1439 469.3900 469.3900 469.4461
   469.8008 469.8008 470.0640 470.0640 470.1124 470.1221 470.1221 470.1907
   470.2403 470.2403 470.4026 470.5343 470.5943 470.5943 470.5963 470.7328
   470.7328 470.9192 472.2306 472.2306 473.3706 473.3706 473.8062 474.2863
   474.2863 474.4217 474.5588 475.0363 475.0814 475.0814 475.5846 475.5846
   475.7465 475.7465 475.8967 476.0314 476.2062 476.2062 476.4783 476.5016
   476.5016 476.7298 476.8619 477.1873 477.1873 477.5032 477.5032 477.5583
   480.8366 481.0466 481.0466 481.3592 481.3592 481.6633 481.6633 481.8617
   481.8617 481.9013 482.1412 482.1412 482.2606 482.2917 482.3438 482.3438
   482.6025 482.6164 482.6164 482.7585 482.7585 482.8352 484.0683 484.0683
   485.1713 485.4912 485.4912 485.5103 490.5697 490.5697 491.2847 491.2847
   491.2886 491.3475 493.2604 493.2604 494.4771 494.4771 494.6913 495.1814
   495.4812 495.4887 495.4887 495.6162 495.6162 495.7424 496.5994 496.5994
   496.9077 496.9156 496.9156 497.3724 497.4986 497.4986 498.0112 498.0112
   498.1620 498.2938 500.0189 500.0189 500.3148 503.0673 503.0673 503.0682

          k = 0.0000 0.5000 0.0000 (  2890 PWs)   bands (ev):

  -117.5714 -71.7284 -71.7284 -71.7284 -37.3596  -2.5253   1.2360   1.3463
     1.3463   1.4680   1.5302   5.5677   6.7175   6.7175  10.9656  11.3757
    14.2483  14.2483  15.3977  18.3003  20.3465  20.4663  20.4664  22.8381
    24.2092  24.2092  25.7828  27.4598  29.4295  30.9835  33.3920  33.3920
    34.4682  35.6915  35.6915  38.0076  38.6434  39.9798  40.7346  40.7346
    42.5736  43.1026  43.1026  45.4317  45.4317  46.1216  46.2400  46.6709
    47.1081  47.7664  47.7664  49.3136  50.9124  52.0440  52.0440  53.7899
    54.4156  55.0385  55.0385  55.3303  56.0705  59.1779  60.6197  60.6197
    60.7732  62.4529  63.1335  63.9526  63.9526  65.5431  66.3524  66.3524
    68.4633  70.9784  71.0495  71.0495  72.1667  72.4814  72.7597  73.5891
    73.5891  73.8036  74.5687  74.5687  76.5185  76.6077  78.9019  79.2553
    79.2553  81.1786  81.8444  82.3642  82.3642  84.3991  84.3991  84.8821
    86.9742  87.3609  88.6318  88.6318  89.1442  90.2994  90.2994  90.4457
    91.2193  91.4476  91.9284  92.2785  92.2785  93.6082  93.7263  93.7263
    94.6007  95.3122  96.8468  98.1008  98.1008  98.1739  98.2088  99.7832
    99.7832  99.8998 100.1008 100.2865 100.4169 100.4169 100.7000 101.0650
   101.7845 101.7845 103.1849 103.1849 103.5800 103.8441 105.5822 106.8954
   108.8108 108.8108 109.2297 109.4198 109.4198 111.3798 111.8782 112.3235
   112.7961 112.7961 114.6968 115.1991 117.2539 117.2539 117.5979 118.4940
   118.4940 118.7797 119.4331 119.4628 119.4628 119.5176 122.7869 123.1038
   123.4397 123.4397 123.6970 124.8898 124.8898 126.8224 126.8912 127.4893
   127.4955 127.4955 127.8744 129.0463 129.9565 129.9565 130.4697 131.8696
   132.6041 132.6720 132.6720 134.6164 134.9544 136.0945 136.5104 136.5104
   137.3381 137.3381 137.4010 138.1224 139.4968 140.0794 140.7690 140.7690
   141.2161 142.4602 142.4602 142.5752 143.5897 143.5897 143.7972 144.1589
   146.1370 147.0481 147.0481 147.7269 147.7269 148.0520 148.3699 148.8115
   148.9387 148.9387 148.9840 151.3032 151.3819 152.1715 152.1715 152.9157
   153.0355 154.7777 154.7777 155.5120 155.5120 155.9158 156.0583 156.3518
   157.5190 157.5190 157.7066 157.8951 157.9321 157.9321 158.0658 160.3915
   160.3915 160.7032 161.7656 161.8719 162.9670 162.9670 163.6038 163.6981
   163.6981 164.1249 165.9452 166.5993 167.0811 167.9132 167.9132 168.8286
   169.2140 169.6479 169.6479 170.3141 171.5453 171.5453 172.5308 172.5652
   172.5652 173.0024 173.5154 173.5545 173.9423 175.2015 175.8389 175.8389
   177.0621 177.0621 177.1055 177.7279 177.7678 177.7678 179.0876 179.3550
   179.7451 179.7451 179.7664 180.9473 181.2215 181.2215 181.2813 181.6553
   181.8342 182.0255 182.0255 182.2034 182.6500 182.6500 183.0853 183.3437
   183.3437 184.0298 184.7322 185.4192 185.5287 185.8505 185.8505 186.4086
   186.9498 188.3725 188.3725 190.1603 190.4244 191.3309 191.3309 191.6102
   192.0032 192.1038 192.1038 193.0141 193.5525 194.4785 194.4911 194.4911
   194.6300 196.1707 196.1707 197.0126 197.8584 199.3177 199.5732 200.8693
   200.8890 200.8890 203.0333 203.0725 203.0725 203.4834 203.8813 203.8813
   204.1725 206.6908 206.9270 206.9270 207.4095 209.1275 209.1605 209.7472
   209.7472 211.1953 211.1953 211.5761 212.5049 212.5807 212.5807 212.8772
   212.9434 212.9434 213.4330 214.0238 214.1563 214.9997 214.9997 216.0967
   216.7051 217.2093 217.2093 217.4257 217.7812 218.8634 219.2152 219.2152
   219.3332 220.1137 220.1137 221.4592 221.7731 221.7731 222.8074 222.8870
   223.5829 224.5216 224.5216 226.4840 227.1319 227.1319 227.1868 227.4861
   228.0778 228.0779 228.8510 228.8510 229.0617 229.6396 230.3914 230.8141
   230.8141 231.0508 231.2484 232.5888 233.0095 233.0095 233.7780 234.1969
   234.2532 234.6689 234.6689 234.8239 235.0045 235.2456 235.5906 235.5906
   236.2331 236.2331 236.2976 236.3057 236.7174 236.7174 237.3438 238.4324
   238.9581 239.0187 239.0187 239.2504 239.3815 239.3984 239.3984 239.5020
   239.9416 239.9416 240.6079 241.4677 241.4677 241.5037 241.6576 242.8503
   243.5205 243.5205 243.6066 243.9604 244.7605 245.0467 245.0467 246.2855
   247.7763 247.8031 247.8031 248.1156 248.3678 248.3678 248.7706 248.8383
   249.3141 251.2917 251.4979 251.4979 252.5492 253.0107 254.0609 254.0609
   254.2372 254.2581 255.0547 255.0547 255.4856 255.8218 256.2257 256.2257
   256.2554 257.1101 257.3832 257.4523 258.2180 258.2180 259.2758 259.9287
   259.9287 259.9859 260.7523 262.0855 262.5773 262.5774 263.0872 263.7490
   263.7490 263.9101 264.7803 265.0670 265.0670 265.4354 265.4354 265.4517
   266.0167 266.3595 266.7006 266.7006 266.8238 267.9290 267.9290 268.1057
   268.8608 269.2946 269.6500 269.6500 270.7681 271.2472 271.4556 271.5741
   271.5741 272.1069 272.8150 272.8150 273.2809 273.5091 273.5091 274.2416
   274.2978 275.0972 275.0972 275.7002 276.4507 276.4507 276.9083 277.4536
   278.0062 278.1242 278.2017 278.2017 279.7919 280.9348 282.0112 282.0112
   282.7817 282.8695 282.8695 283.3675 283.6852 283.9687 284.0716 284.2025
   284.2025 284.4247 284.8847 285.2268 285.5155 285.5155 285.7802 285.7802
   286.0364 286.3259 287.8457 287.8457 288.4121 288.4121 288.8389 289.1919
   289.2640 290.4063 290.4063 290.7636 291.8905 291.8905 292.0867 293.3496
   293.3553 294.1329 294.3936 294.3936 294.7217 294.9224 295.1224 295.1224
   295.1921 295.7944 296.2083 296.2345 296.2345 296.2918 296.5287 296.5287
   296.6064 296.7125 297.0927 297.0927 297.5168 299.1696 299.2554 299.2554
   303.3775 304.0018 304.0018 304.0100 304.9039 305.9927 305.9927 306.3039
   306.6668 306.9951 307.3240 309.0295 309.0295 309.8109 309.8422 309.8422
   310.0309 310.3703 310.4809 310.4809 311.4575 311.8037 311.8037 312.8019
   313.6775 313.8371 314.4289 314.4289 314.5230 315.9754 315.9754 316.1375
   316.3513 316.7283 316.8472 316.8472 317.8553 317.9747 317.9747 318.0067
   318.8619 318.8861 318.8861 318.8972 320.1056 320.1056 320.2195 320.3692
   320.8224 321.2274 321.2330 321.2330 321.2786 321.6673 321.8887 321.9563
   321.9563 322.8756 322.8756 322.9167 323.4481 323.8590 323.8590 323.9312
   324.0542 325.3195 325.5926 326.5504 327.6294 327.6294 328.5631 328.9168
   329.0391 329.0391 330.0568 330.2373 330.2373 330.7312 331.7050 331.8000
   332.1646 332.1646 332.9801 333.1710 333.7888 333.7888 333.9791 335.2595
   335.2595 336.3248 336.9419 338.0495 338.0690 338.0690 338.7184 338.8619
   338.8619 338.9829 339.0658 339.0658 339.2632 339.4461 339.4764 339.7879
   340.3481 340.5006 340.5006 340.9097 341.3654 341.3654 342.0531 342.1361
   342.1361 342.7138 343.8851 344.1507 344.1507 344.2205 345.0862 345.8707
   346.2882 346.2882 347.0038 347.0038 347.0961 347.8657 347.9649 348.0034
   348.0176 348.0176 348.1064 348.1064 348.9484 349.2257 349.2257 349.3230
   350.3065 350.4497 351.0545 351.0545 351.6523 351.8375 351.8375 352.1756
   352.1998 352.4506 352.7105 352.7105 353.3915 354.5501 354.5501 354.7115
   355.0066 355.2583 356.3449 356.9193 356.9193 357.0147 359.1092 359.5526
   359.5526 360.5263 361.3653 361.3653 361.4060 361.8266 362.1832 362.2404
   362.4287 362.4287 363.2977 363.3785 364.0885 364.0885 364.4300 364.7149
   365.0863 365.0864 365.4915 365.5034 365.5034 365.6471 365.6471 365.9752
   366.0643 366.2571 366.2879 366.2879 366.4291 366.8624 367.2152 367.2152
   367.8565 368.1132 368.4241 368.6496 368.6697 368.6697 369.0836 370.1033
   370.1765 370.1765 370.8863 371.6116 371.6116 371.9153 372.1477 372.1477
   372.5396 372.8050 372.9358 372.9358 372.9783 373.1868 373.9040 373.9040
   374.0132 374.0946 375.6591 375.6591 375.6860 376.1563 376.1563 376.2921
   376.5595 376.9853 377.0347 377.0368 377.0368 377.5609 377.5609 377.7890
   377.8415 378.2284 378.2284 378.2734 378.4851 378.4851 378.6064 378.8240
   378.9951 380.4983 381.5261 381.5261 381.8902 382.0212 382.3278 382.7046
   382.7046 384.3974 384.7066 384.8655 384.8655 385.2048 385.5981 385.5981
   385.8212 385.9882 385.9882 386.0100 386.3453 388.8829 389.3469 389.3469
   389.6376 389.6988 390.8317 390.8317 391.8270 394.2578 394.8375 394.8375
   395.3174 396.9410 397.5239 397.5625 397.5625 397.5638 397.9695 397.9695
   398.1797 398.9212 399.0271 399.0271 399.1235 399.6263 400.0959 400.1405
   400.1707 400.1707 400.7243 400.8869 400.8869 401.2476 401.7429 401.9669
   401.9669 403.3871 403.5304 404.0949 404.0949 404.7186 404.7186 404.8780
   405.3545 405.4595 405.6394 406.2982 406.2982 406.3484 408.1486 408.1486
   408.4480 408.8947 409.0951 410.0927 410.1674 410.1674 410.3488 410.5606
   411.7010 411.8165 411.8165 412.1692 412.6748 412.6991 412.7181 412.7181
   412.9372 412.9372 413.7072 413.7667 414.0314 414.0521 414.0521 414.5266
   414.7487 414.7487 414.9684 415.1028 415.7707 415.9616 415.9616 417.3173
   417.8775 417.8775 417.9386 418.0565 418.2438 418.7983 418.8901 418.8901
   419.4364 419.4364 419.7314 420.0436 420.1746 420.2509 420.2509 420.2608
   420.3439 420.4495 420.4495 420.8816 420.9154 423.8235 424.4368 424.4368
   424.5987 424.8869 424.8869 425.0684 425.1230 425.1230 425.8187 427.7013
   428.1397 428.1397 428.7609 428.8561 428.8561 428.9093 429.0147 429.2739
   430.1720 430.1720 430.4911 430.6916 430.6916 430.8421 431.1126 431.1461
   431.4883 431.4883 431.6316 431.6316 431.6540 433.2663 433.3840 433.4705
   433.4705 433.5378 433.5378 433.5756 433.5917 434.2668 434.9044 435.2829
   435.7772 435.7772 436.4786 436.6614 437.5837 437.5837 438.0117 438.8838
   438.9098 438.9622 438.9622 439.2701 439.4987 439.4987 439.7223 440.7140
   441.8542 442.1541 442.1541 442.8687 443.3961 444.5226 444.5226 445.4204
   446.8242 446.8242 447.3045 447.6987 448.0109 448.1348 448.1348 448.8494
   448.8494 450.0486 450.0964 450.2706 450.4494 450.4494 450.6702 451.1310
   451.3712 451.6598 451.6598 451.9672 452.2348 452.2348 452.9634 453.2216
   453.6524 453.6524 453.7633 453.8966 454.9020 454.9020 455.0670 455.5767
   455.5767 455.8341 455.8403 455.8403 456.4987 457.5003 458.3390 458.7785
   458.7785 458.9088 459.0785 459.6671 459.6671 459.8013 460.3513 460.3949
   460.3949 460.4098 460.6670 460.6670 460.8597 461.2008 461.8451 462.1650
   462.1650 462.1857 462.7312 462.7312 463.0771 463.6567 464.0176 464.0176
   464.1285 464.5375 465.1738 465.2420 465.2420 465.6823 465.7153 467.1234
   467.1234 467.2405 467.2490 467.3318 467.3318 467.4336 468.1161 468.6075
   468.6075 468.7076 468.8812 469.0048 469.0048 469.1123 469.4047 469.5941
   469.5941 469.6518 471.7834 472.0428 472.0428 473.8506 473.8851 474.5153
   474.5153 474.7416 475.0750 475.1468 475.7476 475.7476 476.4397 476.8646
   477.0539 477.0539 477.5430 477.7138 477.8466 477.8466 478.1153 478.1153
   478.2771 478.4734 478.9730 479.6960 479.6960 479.9716 480.2907 480.7262
   480.8660 480.8660 481.2341 481.3831 481.6719 481.6719 482.4246 482.5418
   482.5418 482.6299 483.6189 484.9468 485.0451 485.0451 485.0585 485.7242
   485.7721 485.7721 486.4248 486.7221 486.7315 486.7920 486.7920 486.9967
   487.0465 487.0465 487.0966 487.2015 487.2209 487.2209 487.2692 487.5920
   487.5920 487.6636 488.1925 488.2540 488.4023 488.4023 488.5248 488.6723
   488.6723 489.1004 489.1959 489.2992 489.2992 489.5642 489.6815 489.9307
   489.9307 490.2152 492.3918 493.7356 494.1962 494.2763 494.2763 494.9512
   495.0320 495.2860 495.2860 495.9837 495.9837 495.9954 496.0316 496.1723
   496.1723 496.2158 496.5690 496.6592 496.6592 496.9420 496.9477 498.1160

          k = 0.7500-0.2500 0.7500 (  2896 PWs)   bands (ev):

  -117.5714 -71.7285 -71.7284 -71.7284 -37.3592  -1.8920   1.2978   1.3859
     1.4357   1.5351   1.7391   3.3633   5.5992   6.3718  10.7744  12.7429
    14.5827  14.7338  18.0942  18.8047  19.9509  20.5778  20.6719  23.9975
    24.8141  25.2392  27.3948  27.5655  28.2461  29.8295  31.3077  31.9494
    33.1121  34.8251  35.0874  35.4736  36.0844  37.8167  38.7236  39.4863
    41.8153  42.3866  43.0241  44.4011  44.7138  45.3093  47.5455  48.0897
    48.8749  50.3873  50.7729  51.9386  52.3530  53.4577  54.2100  54.8911
    54.9982  56.2940  56.9298  58.0455  59.7832  59.8760  60.8404  62.0477
    62.3776  63.2786  63.8712  64.3192  64.9438  65.9881  66.4645  66.8942
    67.6323  68.0578  68.8929  69.3042  69.5826  70.6221  71.4811  72.8841
    72.8849  73.9359  74.2432  74.9823  75.4671  76.5130  77.4574  78.2520
    78.7413  79.7048  80.2673  80.8634  80.9982  82.6848  82.8516  83.3821
    83.7160  84.4348  86.0194  86.4094  86.5460  87.6934  87.7447  89.6755
    90.4894  90.5559  91.3346  91.4001  91.6780  92.6641  93.2645  93.8457
    95.0867  95.4065  96.6437  97.2051  98.2997  98.6045  99.3522  99.4249
   100.1626 100.5667 101.0982 101.3652 102.1259 103.2951 103.6095 103.9599
   104.5057 105.5487 106.6330 106.6600 107.2656 108.1524 108.5558 109.0126
   109.1047 109.8422 110.8470 111.3384 111.6630 112.9726 113.4342 114.6275
   114.7046 116.0671 116.4390 116.8108 116.9397 117.5599 117.6145 118.7240
   119.2760 119.7699 119.8602 120.5501 120.8221 121.6391 122.2723 122.5085
   123.6180 123.7833 124.8469 124.9503 125.2034 125.6116 126.5777 126.7916
   127.0046 127.5866 127.9420 128.5856 129.0465 129.5820 129.7913 130.2568
   130.9677 131.2336 132.0977 132.3853 132.9803 134.1522 135.0504 135.3578
   136.2130 136.2555 136.7771 136.9009 137.4040 137.5725 137.7703 138.9801
   139.7248 140.5113 140.9929 141.3885 141.7438 142.8507 143.0884 143.9975
   144.1802 144.4715 145.0374 145.4215 145.6987 146.6717 147.8165 148.0437
   148.6723 148.8451 149.1565 149.4367 150.2300 150.6451 151.7524 151.9041
   152.5011 152.5136 153.3009 153.5404 153.8937 155.0348 155.1845 156.0666
   156.3291 156.6468 156.8924 157.3909 158.1910 159.0988 159.2195 159.7037
   159.9405 160.3402 160.8668 160.9714 161.1194 162.5261 162.8215 162.8860
   164.0959 165.0087 165.9990 166.2148 166.7724 167.3217 167.7865 168.3456
   168.4787 169.6840 170.0500 170.5239 171.2004 171.2411 171.6337 172.4121
   172.5408 173.1446 173.5903 173.6439 174.8451 175.5330 175.5913 176.0979
   176.6261 177.8030 177.8085 178.0635 178.8388 179.0821 179.7259 179.9967
   180.0279 181.3099 181.4569 181.8465 182.1495 182.3607 182.9460 183.4277
   183.6011 184.3722 184.8091 185.4434 185.9981 187.2367 187.3265 187.5753
   187.9539 188.4369 188.5205 189.0034 189.4145 190.0386 190.3171 190.9695
   191.4934 191.6658 191.9012 192.3792 193.0034 193.3199 193.4798 193.8438
   194.3444 194.9039 195.3628 195.8936 196.4678 196.7644 197.3674 197.4419
   197.9321 198.2655 198.5178 198.9464 199.4393 199.8906 200.6650 200.7972
   201.2408 201.6595 202.3018 202.4804 202.9326 203.0820 203.3180 203.4093
   204.7249 205.0057 205.6043 205.7397 205.7573 206.4467 207.2993 207.3192
   208.0659 208.1750 208.4917 209.5719 210.0414 210.3350 210.7951 211.0676
   211.3625 211.4566 211.9822 212.0673 212.6480 213.2544 213.5730 214.2020
   214.4887 215.2991 215.9109 216.5262 216.6285 216.8882 217.4980 217.7325
   218.1558 219.0969 219.2095 219.3551 219.7140 220.5711 220.7177 220.9148
   221.2290 221.8715 221.8979 222.0036 222.7145 223.1873 223.5362 224.1089
   224.2052 224.9555 225.6347 225.7066 226.0806 226.9367 227.0048 227.4283
   227.8240 228.6807 228.6865 228.9755 229.4030 229.4627 230.1600 230.4895
   230.8840 231.2870 231.3847 231.8720 232.2856 233.0578 233.1124 233.8661
   234.0793 234.8329 235.4820 235.6832 235.7725 236.0477 237.2958 237.3691
   238.0960 239.1639 239.4061 239.6458 239.8485 240.1577 240.3777 240.6102
   240.8399 241.0796 241.4080 241.7841 242.3860 242.6074 242.7745 243.2401
   243.4674 244.5523 244.7848 245.0795 245.2139 245.7091 246.3243 246.6203
   247.0272 247.2734 247.4430 247.7137 248.6789 249.8010 250.2946 251.3008
   251.6550 252.3562 252.8770 253.3676 253.6230 253.9971 254.7733 254.8004
   255.0153 255.2492 255.6764 255.6833 256.6358 256.8869 257.0666 257.4906
   257.7630 258.0325 258.8036 259.1895 259.2968 259.6371 260.3515 261.0637
   261.0911 261.7194 262.2580 263.1745 263.4255 263.7070 263.7990 264.7048
   264.9521 265.1080 265.4348 265.4775 266.2662 266.4098 266.7456 266.7735
   267.6236 267.6897 268.0412 268.3689 269.0751 269.1633 269.4825 270.0798
   270.4480 270.6116 271.5477 271.9717 272.1300 272.5041 272.6178 273.3116
   273.4842 273.6748 274.0560 274.2515 274.5055 274.5175 275.1645 275.2490
   275.6092 276.0089 276.3763 276.7050 277.6392 277.8063 278.9601 279.4460
   279.5314 280.0366 280.2163 280.8201 281.2365 281.3786 282.1445 282.3649
   282.7702 283.4875 283.6498 284.3836 284.7250 284.9257 284.9340 285.4531
   285.9212 285.9691 286.1522 286.3233 287.3262 287.5858 287.6039 287.8317
   288.2052 288.2450 288.8928 288.9023 289.1750 289.2929 290.3355 290.6431
   290.8855 291.3049 291.4401 291.7281 292.1498 292.2807 293.4146 293.7450
   293.8174 293.8912 294.6000 294.7821 294.9916 295.0402 295.6368 296.1625
   296.3705 297.1761 297.2156 297.8123 297.9599 298.8797 299.4938 300.0088
   300.2584 300.6668 301.2525 301.3686 301.5260 301.9468 302.0358 302.4913
   302.6273 302.8688 303.5149 303.6172 303.6653 304.1131 304.8155 305.4996
   305.5027 305.9873 306.1283 306.7124 307.1734 307.3547 308.0610 308.1483
   308.4338 308.9693 309.2109 309.4065 310.0131 310.1394 310.4746 311.0225
   311.0520 311.3347 311.5961 311.8802 312.3355 312.4630 312.7913 313.3574
   313.5011 313.5051 313.8440 313.9696 314.5273 315.1489 315.3724 315.5315
   315.7008 316.0198 317.2057 317.8188 317.8281 318.4415 319.5585 319.6699
   319.8998 320.0533 320.3567 320.6934 320.6935 321.3530 321.6258 321.7900
   322.0279 322.1416 322.4681 322.7764 323.1956 323.5080 323.8608 324.1218
   324.3082 324.5555 324.7990 324.9015 325.7546 325.9018 326.2316 326.2742
   326.5045 326.6977 327.0287 327.7697 328.0784 329.0071 329.0119 329.5799
   330.1608 330.4911 330.8696 331.2824 331.3442 331.5822 331.7175 331.8502
   332.3248 332.6934 333.5336 333.6612 333.9001 333.9723 334.1650 334.9890
   335.0204 336.0056 336.1264 336.4150 337.0365 337.1781 337.7398 337.8467
   338.3883 338.6013 338.9905 339.8292 340.1611 340.2928 341.1085 341.8946
   342.0563 342.4286 342.6704 342.8344 343.2238 343.5386 344.0874 344.6467
   344.8503 345.1548 345.3667 345.5806 345.6561 345.8308 346.0880 346.4787
   346.7216 346.9184 347.1672 347.6951 347.7307 347.8911 348.7856 349.1710
   349.6041 350.0743 350.1456 350.4594 350.7042 350.8641 351.4148 352.4814
   352.7059 353.4301 353.6530 354.1769 354.1876 354.6625 355.2382 355.3788
   355.4620 355.8220 356.0061 356.4346 356.4753 356.9625 357.9052 357.9496
   358.6431 358.8041 358.9674 359.1400 359.9295 361.1702 361.5520 361.7805
   362.1094 362.5867 362.7669 363.1007 363.3191 363.3776 364.3436 364.5645
   364.6287 364.8368 364.9902 365.4732 365.8246 365.9297 366.0205 366.1517
   366.8756 366.9477 367.1570 367.2312 367.7741 368.1806 368.2851 368.3196
   368.5067 368.6744 369.1639 369.4526 369.8574 370.5259 371.0585 371.0837
   371.4580 371.7955 372.0879 372.3707 373.1641 373.8235 374.2621 374.5213
   374.9997 375.3099 375.4948 376.0338 376.2933 376.6699 376.9484 377.2629
   377.2688 377.7352 378.0418 378.2248 378.4660 378.6811 379.0291 379.1590
   379.6134 379.6879 380.0838 380.3209 380.3951 380.7387 380.9063 381.3682
   381.3931 382.0881 382.2822 382.5753 382.7100 383.5421 384.0667 384.1378
   384.5104 384.7567 385.0973 385.2570 385.4887 386.3323 386.5235 386.9724
   387.0135 387.1970 387.3323 388.1690 388.4054 388.7436 389.0753 389.2163
   389.2720 390.7626 390.9142 391.5270 391.9718 392.4045 392.8103 393.1441
   393.5442 393.9214 393.9455 394.3627 394.5204 394.8567 395.1352 395.1604
   395.5795 395.6912 396.1886 396.3092 396.5691 396.9559 397.1376 397.2372
   397.8812 398.3132 398.8561 399.3884 399.5833 399.6895 399.7346 399.7982
   400.0225 400.2067 400.3932 401.0234 401.2557 401.8155 402.1548 402.4777
   402.8394 403.1980 403.3154 403.6116 404.0860 404.2560 404.7966 405.2480
   405.4520 405.5883 406.0557 406.3668 406.4735 407.2685 407.2871 407.3630
   407.5907 407.9068 408.4333 408.5390 409.2554 409.3897 409.6049 409.7389
   410.3971 410.5797 410.6504 411.2547 411.4963 411.6375 411.8557 412.0339
   412.0714 412.7350 413.0311 413.0569 413.2602 413.6981 414.4166 414.7217
   414.9037 415.1165 415.3645 415.5820 416.0278 416.2769 416.3586 416.5143
   417.1154 417.2822 417.6255 417.8874 419.2184 419.2512 419.5724 419.5963
   419.6512 419.9529 420.1595 420.3199 420.5642 420.5851 420.8417 421.2956
   421.5133 421.8270 422.4318 422.6772 422.9094 423.3048 423.8035 423.9208
   424.2307 424.2610 424.7044 424.7835 424.9373 425.4358 425.6758 425.9762
   426.4126 426.4870 426.6252 426.7725 427.1533 427.4848 427.6982 427.8274
   428.7424 429.0814 429.8636 429.9190 430.7082 430.8682 431.0162 431.0824
   431.5357 432.2660 432.4767 433.2243 433.4817 433.6374 434.0674 434.1844
   434.7021 434.7960 434.8998 434.9726 435.2869 435.4401 435.9992 436.1318
   436.1534 436.4100 436.7507 436.8223 436.9638 437.1425 437.2629 437.6201
   437.8965 438.1938 438.6290 438.9813 439.2121 439.5629 439.8803 439.9568
   440.2014 440.2078 440.3655 440.6350 440.7746 440.8636 441.1239 441.2463
   441.3770 441.6189 441.8025 441.8032 443.1856 443.6960 445.6466 445.7952
   445.9097 446.5139 446.6968 446.9636 447.2199 447.3563 447.5367 447.8091
   448.2622 448.7521 449.0382 449.1569 449.5762 449.7142 449.7638 450.2383
   450.5144 450.6377 451.0004 451.1376 451.3762 451.6826 451.7414 451.9691
   452.1130 452.4761 453.0480 453.6016 454.2976 454.3431 454.6116 455.0295
   455.2051 455.3624 455.4435 455.8780 455.9099 456.7702 457.2634 457.6342
   457.6608 457.8245 457.8684 458.7767 458.8408 459.0253 459.2956 459.5406
   459.8130 460.0691 460.3066 461.1024 461.1668 461.6487 461.8194 462.0163
   462.0966 462.7120 462.9386 463.0750 463.1338 463.8990 464.0395 464.3313
   464.9919 465.5059 465.8011 466.1875 466.2426 466.8263 467.5887 467.7354
   467.9040 468.0149 468.0737 468.4163 468.9882 469.3422 469.7127 470.2714
   470.3279 470.6834 470.9368 471.1111 471.4581 471.8197 471.9896 472.2296
   472.5617 472.8483 473.1433 473.5033 473.8390 473.9259 474.3304 474.5096
   474.7671 474.8647 475.1140 475.3214 475.8047 476.1073 476.1199 476.5748
   476.5754 476.8897 476.9794 477.7808 477.9193 478.0201 478.7277 478.8195
   479.5314 479.7231 480.1564 480.3019 480.3759 480.6477 480.9951 481.2758
   481.6913 481.7688 482.3639 482.3975 482.5649 482.7814 483.3547 483.6462
   483.7795 483.8494 483.9575 484.4834 484.6266 485.0814 485.1336 485.2881
   485.3304 485.4302 485.5852 486.2763 486.5202 487.9509 488.5847 488.9321
   489.0978 489.2081 489.3696 489.4774 490.1659 490.6065 491.0720 492.0318
   492.4735 492.6792 492.7822 492.9631 493.2488 493.4080 493.4230 493.5348
   493.6575 493.7428 493.9021 494.6213 494.7161 494.9215 494.9268 495.1580
   495.3195 495.6922 495.7508 496.1312 496.2001 497.4047 497.4250 497.8161
   497.9391 498.0884 498.2834 498.2858 498.7419 499.2539 500.2564 500.5149

          k = 0.5000 0.0000 0.5000 (  2894 PWs)   bands (ev):

  -117.5714 -71.7284 -71.7284 -71.7284 -37.3593  -2.1100   1.3124   1.3486
     1.4419   1.4817   1.6032   3.8991   5.4800   7.2458  11.1677  13.5607
    13.9146  14.5042  14.8523  18.5751  19.6959  20.7850  21.5748  23.4454
    25.0118  25.4404  26.5438  28.6046  29.4239  29.9550  31.7610  32.6270
    33.4006  33.9659  34.9092  35.2533  37.8541  38.8199  39.0688  41.2418
    41.6006  41.8270  42.9592  44.0208  44.1878  44.7116  45.7212  46.2576
    49.8907  50.0991  50.9635  51.9637  53.3946  53.4440  54.8263  54.8460
    55.1435  56.2099  57.1493  57.8582  58.7775  59.0078  59.5749  61.1593
    61.3857  61.7144  63.2760  63.3681  64.2193  65.7067  66.6400  66.7189
    67.6153  68.3654  68.5538  69.4188  69.6768  71.6642  72.4011  73.1328
    73.9298  74.0591  75.2988  76.0919  76.2443  76.6869  77.3235  78.1307
    78.6911  80.0999  80.5538  80.8384  81.9142  83.0568  83.7840  84.2958
    84.8981  85.0881  86.1211  87.2327  87.3555  87.9588  88.1769  89.1077
    89.4173  90.3792  91.5929  92.3807  93.1041  93.1781  94.8249  94.9425
    95.6693  95.8109  96.3790  97.6406  97.8897  98.2572  99.5749  99.6382
   100.0470 100.2460 100.9670 101.2485 102.4363 102.5921 103.0075 103.7685
   104.4296 104.7419 105.8162 106.2563 106.5302 107.1653 107.4404 108.1318
   108.3348 109.2760 110.1772 110.2328 110.5705 110.7729 111.2544 112.0235
   112.9040 113.6421 114.7658 115.6282 115.9217 116.8218 117.8948 117.9129
   119.1603 119.2176 119.8718 120.1703 120.2869 122.1354 122.2582 122.8935
   123.6038 123.8152 124.4943 124.5176 125.0238 125.5507 125.5770 126.3665
   126.7149 127.1042 128.8705 129.4182 130.0412 130.4289 131.6958 131.9243
   132.2455 132.4424 133.6238 133.6289 134.0553 134.8829 136.2153 136.3871
   136.7331 136.7481 137.7269 137.9769 138.4317 138.7766 139.2003 140.3557
   140.6620 140.7329 141.5127 141.6292 142.4717 142.4817 143.2663 144.1116
   144.1962 144.6658 144.9746 145.8607 146.6003 147.3260 147.7276 148.4301
   148.8336 149.3418 150.0361 150.4124 150.5507 150.9980 151.0286 151.2682
   151.8946 153.0877 153.6874 154.0117 154.0337 155.3226 155.5103 155.7858
   156.1387 156.4750 157.2444 157.6608 158.4828 159.3602 159.5271 159.8071
   159.9894 161.3254 161.4849 162.3313 162.5659 164.0362 164.3004 164.3919
   164.5679 165.7467 165.8261 165.9721 166.2346 166.7248 167.3946 167.5771
   167.8529 167.9112 168.1374 169.2245 169.3049 170.1797 170.4032 171.4779
   172.0732 172.0884 173.4606 173.7119 173.8523 174.5353 175.2102 175.3428
   175.7475 176.0503 176.4134 176.9839 178.4332 178.4336 179.0403 179.5317
   179.5515 180.1307 180.1397 180.3486 180.6894 181.6735 181.7272 182.6630
   182.6856 183.1783 183.9890 184.4367 184.8162 186.1578 186.3006 187.4834
   187.5378 188.4411 188.9356 189.3123 189.7986 190.2043 191.2083 191.2089
   191.5132 192.3849 192.6962 192.8377 193.5960 193.8934 194.1110 194.4983
   194.6224 195.1249 195.2314 195.3601 195.9272 196.3196 196.4638 197.0024
   197.0961 198.0701 198.3413 198.6336 199.7881 200.1474 200.6642 200.9057
   201.5120 201.7618 202.2845 202.4212 202.9179 203.2914 203.8064 204.0001
   204.5979 204.7427 205.0899 205.1432 205.7297 206.0900 206.4958 206.8549
   208.1212 208.3559 209.0198 209.4203 210.1682 210.4613 211.1693 211.2721
   211.5850 212.1535 212.4733 213.0007 213.3912 214.7262 214.9284 215.0528
   215.7020 216.2213 216.6304 217.2984 217.4936 217.6073 218.0379 218.6423
   218.9414 219.3362 219.5664 219.6271 220.2814 220.3120 220.4277 220.9279
   220.9859 221.3105 221.5573 221.8238 221.9550 223.0700 223.2970 223.5421
   224.1537 224.3009 224.3333 224.5246 225.2008 225.5428 227.3803 227.5447
   228.2192 229.4254 230.2595 230.3411 230.4422 231.2461 231.4816 231.6542
   232.1186 232.7474 232.8550 232.9773 233.1883 233.3953 233.8913 234.1343
   234.8378 234.9786 235.0178 235.1426 235.8648 236.2239 236.7113 236.8327
   237.0706 237.9404 238.6086 239.2788 239.7134 240.4814 240.6726 241.0293
   241.0599 241.4261 242.0997 242.9407 243.3969 244.0203 244.1714 244.3787
   244.4454 245.2606 245.5731 246.1959 246.4238 246.5388 247.0257 247.7952
   247.9433 248.6980 249.0927 249.1396 250.1948 250.9602 251.5689 252.2908
   252.2985 252.8638 252.8893 253.2152 253.6331 254.3750 254.6084 254.7803
   254.8570 255.1003 255.1484 255.5176 255.7425 256.9900 257.1470 257.5645
   257.7703 258.5324 258.8409 259.2561 259.8534 260.2300 260.5201 260.8272
   261.0789 261.5399 261.6129 261.7145 262.0430 262.4982 262.6299 263.2648
   263.6587 264.4694 264.5092 264.7678 265.4762 266.1446 266.2326 266.4677
   266.6926 267.1739 267.6046 267.9242 268.2310 268.3153 269.0209 269.2302
   269.7921 270.0227 270.0531 270.4107 271.4717 271.6027 272.1376 272.2783
   272.7091 272.8504 273.3421 273.7010 274.1298 274.2085 274.4608 274.5137
   275.3761 275.6121 275.8507 276.1536 276.3732 277.2701 278.5536 278.7313
   279.4271 280.1196 280.5314 280.5862 280.6834 280.7238 281.3741 281.6075
   281.7508 282.5183 283.0747 283.4003 283.5661 283.6838 284.1879 284.5407
   284.6391 284.7650 284.8997 285.3492 285.8492 285.9223 286.4458 286.6611
   286.7758 287.4836 287.5860 288.1979 288.9065 288.9980 289.4429 289.7368
   290.1566 290.5774 290.9369 291.1163 291.6025 292.0778 292.2903 292.5231
   292.5752 293.6305 293.8770 294.3752 294.4270 294.6344 295.2633 295.3227
   296.3790 297.2351 297.6613 297.8186 298.5657 298.8584 299.0416 299.0538
   299.4490 299.9562 300.5310 301.1618 301.3786 301.8829 302.0644 302.7543
   302.9200 303.5848 303.7141 303.9324 304.1373 304.3099 304.6293 305.2333
   305.5809 305.8385 306.0127 306.1841 306.6914 307.5451 308.6831 308.7211
   309.3822 309.5414 309.8837 310.1258 310.2595 311.0629 311.2305 311.2856
   311.4244 311.7086 311.8908 312.9138 313.1724 313.2389 314.1102 314.3069
   314.7994 315.0709 315.3355 315.4340 316.0155 316.5689 316.9230 316.9343
   317.0912 317.3815 317.4873 317.5880 317.8358 317.9239 317.9784 318.1607
   318.6421 318.7842 319.5787 319.9605 320.8976 321.7250 322.4526 322.8369
   323.7785 323.9032 323.9270 324.1732 324.3564 324.3983 324.8275 324.9129
   325.1439 325.2346 326.2465 326.4907 326.7522 327.1648 327.4090 328.2164
   328.7998 328.8258 329.2627 329.7712 329.8332 330.1959 330.3225 330.6660
   330.7416 330.9738 331.0330 331.2841 331.4195 331.7580 331.7835 332.1991
   332.9144 333.0151 333.4367 333.8527 334.0125 334.5402 334.7585 335.2173
   335.8913 336.1334 336.2503 337.8529 338.0133 338.2127 338.6421 339.4647
   339.5911 339.8081 340.7068 341.2739 341.3799 342.0731 342.5545 342.6541
   343.2119 343.5018 343.7242 344.2811 344.6950 344.7133 344.9759 345.1580
   345.4659 345.6356 346.3376 346.4370 346.8227 347.1260 347.7246 347.9122
   348.0831 348.1105 348.8154 349.2220 349.4051 349.4142 349.8005 349.8589
   350.5322 350.6686 350.8793 351.0665 351.2483 351.6154 351.9955 352.0775
   352.3646 352.7526 352.7843 353.4440 353.7538 354.0728 354.4960 354.8110
   354.9009 355.9772 356.2231 356.3294 356.8085 357.2125 357.4861 357.4907
   358.4444 358.6673 358.7739 358.9611 359.1010 359.2622 359.7764 359.7790
   360.1277 360.3017 360.3611 360.7342 360.8388 361.1559 361.3268 361.3816
   361.4216 361.6689 361.9901 363.9850 364.6196 364.8191 365.1621 365.7251
   366.0380 366.5329 367.2585 367.5656 367.7581 368.0664 368.3587 368.6502
   368.7358 369.0302 369.2388 369.4508 370.2532 370.7433 371.1003 371.2606
   371.4522 371.5427 372.0550 372.3136 372.3329 372.5617 372.7370 372.9696
   373.2512 373.8512 373.9906 374.2551 374.7801 375.0295 375.3077 376.1377
   376.2740 376.5217 376.8929 376.9166 377.0990 377.1965 377.9284 378.3234
   378.6553 379.3623 379.5034 379.7420 379.8351 380.2887 381.3049 381.3057
   381.5034 381.8961 382.4058 382.7778 382.9788 383.4593 383.5260 383.9062
   384.1811 384.6387 385.2485 385.6659 385.7372 386.1542 386.4700 386.5538
   386.7140 387.0403 387.4144 387.5562 387.6486 388.3329 388.6351 388.7159
   389.1358 389.4189 389.4703 389.6497 389.7732 390.0013 390.1405 390.3237
   390.5575 390.9405 391.3388 391.4879 393.3647 393.5712 394.7128 395.3083
   395.6265 395.7259 395.8511 396.0079 396.0091 396.5740 397.6289 397.9171
   398.3123 398.6643 398.8340 399.1700 399.2257 399.4599 399.8229 399.8979
   400.2331 400.8548 401.0444 401.4889 401.7771 401.9813 402.3729 402.5747
   402.6415 402.8416 402.9361 403.6386 403.7884 404.0546 404.1375 404.3975
   404.4434 404.7518 404.8002 405.1599 405.4197 405.6313 405.7554 405.9002
   405.9917 406.4438 406.7388 407.9628 409.1408 409.2867 409.5769 410.0404
   410.3700 410.5654 410.7848 410.9270 411.0807 411.3487 412.2977 412.6169
   412.7330 412.8199 413.0674 413.3864 413.8779 413.9449 414.2191 414.2985
   414.3402 414.6165 414.7869 414.9730 415.0687 415.9245 416.4608 416.5428
   416.7013 416.9304 417.7934 418.3306 419.2229 419.6407 419.8066 419.8654
   419.9863 420.2653 420.6981 422.2618 422.3319 422.8521 423.2010 423.3596
   423.9345 424.3649 425.3751 425.4371 425.6414 425.9429 426.0441 426.4168
   426.4297 426.6239 426.8314 426.9014 427.1753 427.2737 427.3751 427.5653
   427.5926 427.6657 427.7109 427.7524 428.1845 428.4668 428.8074 428.9267
   429.4188 429.6143 429.6269 430.0711 430.4108 430.6103 431.0505 431.1685
   431.5345 431.9065 432.2813 432.5845 432.7219 432.8182 432.8383 432.8829
   433.0582 433.3579 433.5055 434.2814 434.9630 435.3537 435.7148 435.8924
   436.6878 436.8726 437.2734 437.4492 437.4678 437.8523 438.2757 438.3829
   438.8959 439.1281 439.6410 439.7177 439.7936 440.0803 440.1584 440.4783
   441.1047 441.1538 441.3985 441.6765 441.8829 442.0163 442.3145 442.6228
   442.6879 443.0134 443.1062 443.8973 444.0065 444.0682 444.5142 444.7524
   445.1360 445.4589 445.6863 446.9035 447.0522 447.1338 447.1519 447.6567
   448.0257 448.1422 448.2020 448.3595 449.5659 450.3304 451.5506 452.2333
   452.5360 452.7744 452.9974 453.2986 453.4252 453.5678 453.7563 454.0018
   454.2183 454.7435 454.7620 454.9697 455.0549 455.1345 455.5619 455.5816
   455.8816 455.8925 456.4654 456.5838 456.6428 457.2097 457.3282 457.5284
   457.7650 457.8012 457.8094 458.9701 459.2789 459.3604 459.5508 459.5747
   459.8264 459.9251 460.0623 460.5853 460.6101 460.9965 461.2692 461.4755
   461.6592 462.1082 462.2569 463.1457 463.3266 464.2463 464.4791 464.5736
   464.8775 465.0302 465.1835 465.4027 465.4687 465.6644 465.9301 467.7703
   467.8880 468.8043 468.9600 469.7961 469.8946 470.0856 470.2523 470.7697
   470.9889 471.2491 471.2526 471.3073 471.7066 471.7410 471.8808 472.0877
   472.2639 472.5716 472.9392 472.9468 473.0231 473.1882 473.2871 473.4260
   473.5490 473.6795 473.8557 473.9243 474.2105 474.3363 474.6591 474.6677
   475.0283 475.7186 475.8017 476.0499 476.2392 477.7985 477.9954 478.2312
   478.9566 479.2879 479.9490 480.0017 480.3842 480.8615 481.5247 481.5588
   482.1339 482.1715 482.6131 482.9635 483.0991 483.4176 483.4314 484.3659
   484.4982 484.7271 485.0437 485.5855 486.3002 486.3086 486.3751 486.7485
   486.8304 487.1919 487.5965 488.0962 488.6922 488.8144 489.1437 489.4610
   489.5205 489.7073 489.9200 489.9646 490.0625 490.3731 490.6148 490.9494
   490.9732 491.3627 491.4161 492.5720 492.9379 493.4298 493.5835 493.8813
   494.0053 494.1041 494.4410 494.4869 494.5806 494.8880 495.1197 495.1933
   495.5952 495.6465 495.7312 495.8899 495.9190 495.9432 496.0070 496.1148
   496.3960 496.7469 496.9947 497.4370 498.0936 498.2111 498.2834 498.3186

          k = 0.0000-1.0000 0.0000 (  2874 PWs)   bands (ev):

  -117.5714 -71.7285 -71.7284 -71.7284 -37.3591  -1.6729   1.2384   1.4677
     1.4677   1.5585   1.8009   3.2374   5.6630   5.6630   9.7341  10.8976
    18.3501  18.3501  18.7042  18.7042  19.0092  19.8286  21.9953  23.8450
    24.1716  25.2541  26.2173  26.2173  27.3341  27.3341  28.6801  31.3229
    33.9537  36.2954  36.6907  36.6907  37.3413  37.3413  40.0432  40.4661
    40.7749  41.8497  44.2870  44.2870  45.3632  45.3632  45.8379  45.9313
    47.4358  49.1511  49.1511  49.9015  54.1715  54.3051  55.5750  55.5750
    56.9144  56.9614  60.2471  60.2471  60.7351  61.0564  62.0645  62.0645
    62.7868  62.7868  63.1787  63.5111  63.5569  63.5569  64.2990  64.6136
    66.6882  67.1231  68.9470  72.4701  72.4701  73.4856  73.5765  74.3127
    74.3127  74.5888  75.4792  75.4792  76.2720  76.4405  76.9453  77.1071
    77.1071  77.1698  79.1107  79.1107  79.5217  79.6256  82.3504  82.3504
    82.8084  82.8084  83.4219  84.9030  85.1708  86.6325  88.7129  89.0225
    89.0225  91.7941  92.3304  92.3304  93.9279  93.9279  94.3420  94.5341
    94.5341  94.8231  94.9264  95.1157  95.4521  97.1191  97.1191  97.1614
    98.9506 100.5863 101.4243 101.4243 102.0322 103.9986 103.9986 105.2041
   105.3781 106.5326 107.3778 109.2364 109.7810 109.7810 111.3458 111.6497
   112.1955 112.1955 112.4438 113.8736 114.4544 114.4544 114.9144 115.8933
   116.2827 116.5185 116.9157 116.9157 117.3448 117.6755 117.6755 117.9171
   118.5674 118.7394 118.7394 119.1458 119.6353 119.6354 119.9571 121.8038
   122.4028 125.5106 126.2355 126.9500 126.9500 127.9709 127.9709 129.1228
   129.3888 129.4887 129.4887 129.9686 130.6965 130.6965 130.8957 131.2821
   131.2821 131.5489 131.6562 131.9450 131.9450 133.8007 133.8431 134.0337
   134.7919 135.5318 135.6535 135.6535 136.0360 136.5203 136.5203 136.7455
   136.7825 136.7825 136.8036 138.1502 138.3110 139.1808 139.1808 140.2209
   142.7926 143.8246 143.8246 143.8300 144.1613 144.6602 144.6602 147.4181
   147.4181 148.3225 148.4607 148.9911 148.9911 149.0471 149.6405 152.3313
   153.1759 153.1844 153.1844 153.5387 153.9912 153.9912 154.9216 155.0000
   155.5064 155.5064 156.6978 156.8907 156.8907 157.7988 160.0087 160.0187
   161.2488 162.5227 164.0819 164.8902 164.8902 165.7227 165.7227 166.6421
   166.6421 167.1423 167.3297 167.3390 169.6053 170.1766 170.5205 171.0643
   171.1931 171.1931 171.3313 171.6173 171.8524 171.8524 172.5294 172.8535
   172.8535 173.2765 173.2765 173.7871 174.1748 174.1748 175.5572 176.3927
   176.3927 177.1411 177.6741 179.5520 180.4069 180.8880 180.8880 182.9203
   183.1192 183.4199 183.4199 183.7001 184.2591 184.2997 184.2997 184.3039
   184.4416 184.6373 184.6373 185.1845 185.1845 185.3830 185.5521 185.8733
   186.0138 186.2835 186.2835 186.6681 186.7498 186.7498 186.8210 188.7493
   190.4090 190.4090 190.4226 190.8784 190.8784 190.9103 191.0610 191.2144
   192.9215 192.9215 193.4590 194.1662 196.3558 196.3558 197.0354 198.5788
   198.7321 199.3667 199.7907 199.7907 201.0973 201.0973 202.6471 202.9683
   203.4502 203.5077 203.5077 203.5771 203.8146 204.0244 204.0244 204.6499
   205.1988 205.2269 205.2269 205.2389 205.4103 205.4103 205.7768 206.0623
   206.1594 208.6479 208.6479 209.3698 209.3698 210.1626 210.5378 210.6682
   211.1024 211.3078 211.3078 211.8132 211.8132 211.9730 212.2301 213.8009
   214.7892 214.8913 214.8913 215.5290 216.1827 216.1827 217.4225 218.1477
   218.6582 218.6582 219.5085 219.5671 220.6548 220.6548 220.7918 220.9312
   221.1489 222.3663 222.6229 222.6229 223.3202 223.7291 223.7291 224.3832
   224.9358 225.3935 225.3935 225.5605 225.7765 227.3898 228.1000 228.1000
   228.7738 229.1643 229.4872 229.5257 229.5700 229.5700 229.6842 229.7471
   230.7907 230.7907 231.1271 231.1271 233.1574 235.4842 236.0988 236.4151
   236.4151 237.4559 238.4293 238.4293 238.9048 239.0134 239.4129 239.4129
   239.6259 240.0533 240.0533 240.3429 240.3429 240.6246 241.8934 241.9792
   242.2610 242.2610 242.2945 242.3164 242.7738 243.0077 243.0077 243.1272
   243.1273 243.4145 244.0205 244.1615 244.1660 244.1660 244.5439 244.5888
   244.8011 244.8011 244.9668 245.0106 245.5475 245.5475 245.6043 245.7556
   246.0844 246.8279 246.8279 246.9757 247.8498 247.8498 248.7838 249.1692
   250.1598 251.4893 251.8162 252.4450 252.4450 254.8949 255.1043 256.7057
   256.7057 257.5408 257.5408 257.7527 259.5781 260.7947 260.7989 260.7989
   260.8861 262.1489 262.1489 263.1179 263.1238 263.4003 263.4003 264.2933
   264.4745 265.6640 265.6640 266.2889 266.5920 266.7278 266.7278 266.9307
   267.5229 267.5229 267.5274 268.5648 269.0303 271.7094 271.8042 271.8042
   272.6333 273.0179 274.0055 274.0055 274.9805 275.1041 275.6086 275.6087
   275.6345 276.1564 277.3802 277.3802 278.9473 278.9750 279.0051 279.0051
   279.2238 280.4948 280.6624 281.7871 281.8709 281.8709 281.9503 281.9503
   281.9560 282.3555 282.3555 282.6899 282.8146 283.1059 283.1059 283.3732
   284.1252 284.1430 284.1464 284.1710 284.1710 285.7082 286.0496 286.0496
   286.0856 287.6765 288.0741 288.1797 288.1797 289.9357 290.0226 290.0226
   290.4448 290.8222 291.3873 291.7841 292.2260 292.2260 292.6714 292.9618
   292.9998 292.9998 293.8831 294.2427 294.5920 294.5920 294.7333 294.7854
   295.0559 295.2956 295.3360 295.3360 296.1044 296.1044 296.6700 296.6700
   296.9187 296.9200 296.9200 297.2124 297.3602 297.4162 297.5660 298.1185
   298.2095 300.0649 300.0649 300.3189 300.4579 300.4579 300.5576 300.7227
   301.4746 301.4746 301.6382 301.6382 301.8408 302.2306 302.2401 302.5695
   302.5695 302.6305 302.7925 302.7925 303.9635 304.1705 306.3431 306.4440
   306.4440 307.2508 307.7042 307.7042 308.5812 309.2990 309.6938 309.6938
   309.7557 309.7557 309.7750 310.5436 310.9843 312.3329 312.3329 312.5042
   313.8570 313.8570 314.0664 314.0924 314.1322 314.1322 314.3422 314.6701
   315.0285 315.3256 315.4242 315.4242 315.6637 315.8628 316.1582 316.1582
   316.6040 316.6040 316.6243 316.6954 317.7434 320.4756 320.6112 320.6112
   320.7512 321.2950 321.3265 321.3265 321.6679 321.7084 321.7318 321.7318
   321.9610 322.0820 325.0642 325.0642 325.3115 325.5066 325.5066 328.3971
   329.8066 330.0695 330.0720 330.0720 330.7031 331.0719 331.3308 331.7552
   331.7552 331.8338 332.0816 332.1974 332.6173 333.1689 333.1689 333.2903
   333.2903 333.4536 333.4536 334.2646 334.4827 334.9390 335.0824 335.0824
   335.4393 335.4393 335.5893 335.9140 336.9294 337.6813 337.6813 337.8703
   338.1371 338.8930 338.9253 338.9253 339.1712 339.1712 339.6922 339.7279
   339.7589 339.7589 339.8510 339.8510 340.5772 340.6544 340.6566 341.7681
   341.9144 341.9144 342.0764 342.8274 343.3753 345.9046 346.9667 346.9667
   347.0341 347.1536 347.8388 347.8388 348.2957 348.7907 349.3541 349.3541
   351.0904 351.2102 351.4636 351.5394 351.5394 351.7075 351.7966 351.7966
   353.0576 353.2217 353.2217 353.4215 353.5276 353.7723 353.8038 353.8038
   354.0003 354.0437 354.0437 354.1884 355.4042 355.6478 356.5068 356.5068
   356.5706 358.7677 358.7677 358.7963 358.8137 359.5337 359.5337 360.0827
   361.5113 362.7006 363.2218 363.9891 364.5701 364.5701 364.7299 365.9712
   365.9712 366.3576 366.3576 366.6473 366.7473 368.2624 368.2624 368.2655
   368.3294 368.3753 368.5159 368.5159 369.2288 369.5239 369.6683 369.6793
   369.6793 369.8781 370.0077 370.0452 370.0452 370.5535 370.5535 370.8198
   370.9700 371.4186 371.4616 371.4616 372.5049 372.9162 373.5492 373.6900
   373.7548 373.7548 373.8845 373.9400 373.9510 373.9510 376.2873 376.2873
   376.5118 377.2628 377.3693 378.0480 378.0480 378.3972 378.6909 379.0519
   379.8052 380.3233 380.3233 381.6990 383.8642 383.8642 384.3009 385.2385
   386.6501 386.6795 387.4026 387.4363 387.4363 388.1508 388.1508 388.7542
   388.7542 388.8108 388.9991 388.9991 389.3717 389.6777 389.7432 389.7709
   389.8306 389.8306 390.4703 390.4703 391.7354 392.3203 392.3782 392.4952
   392.4952 392.5499 392.6129 392.6129 392.7643 392.8114 393.0435 393.9132
   393.9132 394.0385 394.0667 394.3158 394.3158 394.4214 396.5695 397.1504
   399.4182 399.4182 399.5433 399.6031 400.1657 400.3771 400.3771 400.5137
   400.8254 401.3356 401.3356 401.7332 402.0861 402.2432 402.3202 402.3202
   402.3854 403.1229 403.1229 403.1812 403.5790 403.5790 404.0645 404.1548
   404.1548 404.2868 404.6169 405.1803 405.1803 405.3089 405.3755 405.5653
   405.6479 405.6479 405.8499 405.8499 405.9686 406.1099 407.4544 407.4544
   407.5608 407.5804 407.5859 407.5859 408.0149 408.3828 408.3856 408.7171
   408.7171 408.7272 409.0751 409.0751 409.2843 409.4199 410.1111 410.3156
   410.5108 410.7250 410.7250 411.2203 411.2203 411.3682 411.4345 411.5026
   411.5864 411.6429 411.6429 411.7172 411.7581 411.7581 413.5511 413.5511
   413.5635 413.6295 413.6353 413.6353 413.6609 413.6833 414.0711 414.4576
   414.4585 414.4585 414.4938 414.4938 414.5059 414.5581 419.4207 420.3083
   420.5726 420.5726 421.3339 421.3825 421.3825 421.4470 421.7387 422.1969
   423.8267 423.8267 424.0493 424.0590 424.3063 424.3063 424.5785 424.5944
   424.6501 424.6501 424.6885 425.9004 425.9004 426.4437 426.8646 426.8646
   427.0961 427.7863 428.5785 428.5785 428.7716 429.5442 429.6963 429.6963
   429.7533 429.9997 430.0282 430.1136 430.3409 430.3409 430.8093 430.8713
   431.0907 431.0907 431.3807 431.3807 431.4108 431.5973 434.2526 434.3338
   436.4827 436.4827 437.7937 437.8037 438.2164 438.2164 438.6131 439.2370
   440.2011 440.2011 440.5431 440.7906 440.7906 441.0463 441.7209 442.3951
   442.6923 442.6923 442.7925 443.6833 443.6918 443.6918 443.8023 443.9510
   444.0638 444.3073 444.3073 445.4688 447.0751 447.0751 447.1043 447.2916
   447.2916 447.5363 447.5944 447.8620 447.9104 448.0060 448.2417 448.2417
   448.3650 448.4841 448.4841 448.6780 450.2343 450.2710 450.2972 450.2972
   450.3487 450.3487 450.6171 450.6717 450.7946 450.7946 452.4749 452.8454
   452.9743 453.0656 454.2500 454.2500 455.8991 455.8991 456.8991 457.2347
   457.2347 457.9895 458.0557 458.5880 458.7749 458.7749 458.7914 459.2043
   459.2445 459.4832 459.5097 459.6560 459.6560 459.7549 459.7550 460.4466
   460.5006 460.5006 461.3093 461.3467 463.1886 463.4667 463.5109 463.5109
   463.6485 463.7281 463.8101 463.9779 463.9779 464.1050 464.1583 464.2101
   464.2101 464.2398 464.2770 464.2770 464.3217 464.3531 464.8779 464.8962
   465.6413 465.6413 465.6587 465.6587 465.8658 466.2640 466.2640 466.3349
   466.3417 466.4817 467.9604 468.5055 468.5880 468.5880 469.4113 469.4113
   469.5023 469.5023 471.3465 473.3981 473.3981 473.4589 473.8220 473.8977
   474.1830 474.2319 474.2319 475.0694 475.3912 475.3912 475.6898 476.3408
   476.3408 476.8956 478.7395 478.9216 479.0065 479.0065 479.0771 479.2442
   479.2442 479.6334 479.8501 480.8653 480.8653 481.0054 481.5102 481.5537
   481.5537 481.6418 481.9782 482.2361 482.8345 482.8345 483.3095 483.3095
   483.4686 485.0183 485.0530 485.3183 485.3183 485.4550 485.6742 485.6742
   485.8082 485.9488 486.0698 486.2269 486.2269 486.3279 486.4195 486.4710
   486.5021 486.5021 490.5263 490.5263 491.3219 491.7311 492.2755 493.3620
   493.7852 493.7852 493.9084 493.9664 494.7596 494.7596 495.7105 495.7557
   495.7557 496.6784 497.6186 497.7502 497.7844 498.7215 498.7216 498.7217
   498.7310 498.7655 498.9404 498.9404 498.9832 499.1725 499.1725 499.1962
   499.2409 499.4582 499.5620 499.5620 499.6840 499.6840 500.2136 500.2306

          k =-0.5000-1.0000 0.0000 (  2872 PWs)   bands (ev):

  -117.5714 -71.7284 -71.7284 -71.7284 -37.3590  -1.6633   1.3317   1.4090
     1.4705   1.5035   1.9887   3.1893   4.9503   5.4250  12.4832  12.5676
    13.6646  15.0977  18.8378  19.0926  19.3293  21.0653  22.6450  23.2748
    25.1957  25.6805  27.4802  27.5094  27.8056  29.3490  31.0049  31.0971
    32.8133  33.2302  33.6871  33.9479  36.1360  37.4832  39.1153  40.4358
    42.0575  42.8690  42.9898  44.1097  44.3679  46.4933  46.9380  49.3806
    49.5635  50.9398  50.9752  51.8242  52.0384  53.5140  55.4527  55.8694
    56.0943  56.8042  58.0542  59.0124  59.1945  59.4585  59.4760  61.3722
    62.3372  63.2869  63.6141  63.9567  64.5043  64.6215  65.9207  66.0234
    67.5231  68.2809  68.6655  69.4873  71.0037  71.4444  73.1356  73.8851
    74.0149  75.5908  75.9988  76.1380  76.7523  77.2963  77.4588  77.6618
    77.9387  78.1370  78.4949  80.4618  81.1980  81.2209  81.5105  82.9205
    83.1867  83.2007  84.2380  85.5153  86.3420  86.9287  86.9506  87.0145
    87.9095  88.9843  89.7101  90.1100  90.7696  90.7733  93.3644  93.5022
    93.8248  94.9046  95.6792  95.6860  95.9963  98.2526  98.5384 100.6125
   101.5314 102.2217 102.9490 104.4267 105.0954 105.6486 106.0685 106.3565
   107.2944 107.7266 109.0070 109.3748 109.4678 110.0360 110.1789 110.3783
   111.1816 112.0024 112.3248 112.4817 112.9291 113.4463 113.5719 114.1318
   114.5896 114.6136 115.3801 115.5603 115.6384 115.9990 116.2106 118.4541
   118.4699 118.9021 119.4713 120.1717 120.5355 121.0825 121.7951 121.9050
   122.7009 122.7166 124.4274 124.8201 125.0767 125.2923 126.2632 127.1188
   127.3894 127.5180 129.4133 129.7121 130.7284 130.8162 130.8830 131.5451
   131.6627 132.0655 132.8555 133.0860 133.4092 133.6965 133.8415 134.5968
   135.1534 135.4569 135.8329 136.5684 136.6179 136.9621 137.6301 138.3182
   139.1213 139.1713 140.0873 140.3049 140.9544 141.3495 141.5455 141.7626
   142.0147 142.4960 142.5656 143.2893 143.6536 144.9977 145.2254 146.5074
   146.7227 148.0101 148.2784 148.5100 148.7645 149.2721 150.0040 151.0214
   152.3751 153.4230 154.9292 155.1285 155.4814 156.2190 156.8320 156.8918
   158.2992 158.5117 158.6281 158.7632 158.8479 159.4504 159.6418 160.0151
   160.9015 161.2293 161.4522 162.3849 163.2087 163.4597 164.1827 164.4084
   164.4358 165.4763 165.9696 166.2506 166.3049 166.4259 166.9483 168.1949
   168.6932 168.8465 169.2540 170.4492 170.5436 170.7794 171.1462 171.9062
   172.1889 172.7610 172.9856 174.9885 175.1300 175.2682 176.1590 176.2466
   177.0739 177.4155 177.7220 177.8134 178.2185 178.2535 178.6957 179.0725
   179.0731 179.2837 179.8556 181.3410 181.5396 183.2098 183.2440 183.5289
   183.9704 184.6145 185.4542 185.8880 186.1966 186.2798 189.0882 189.4088
   189.8812 190.1094 191.3317 191.4917 192.0897 192.3344 192.4733 192.6669
   192.8021 193.0723 194.1184 194.2231 194.3800 194.5095 195.0851 195.3183
   195.6635 195.6935 196.1432 196.3105 196.3135 196.4411 196.5300 196.7101
   197.5701 198.4591 198.6984 199.0256 199.1865 199.4243 199.6333 200.6598
   200.6690 201.3414 202.2809 203.0515 204.5656 204.6260 204.8581 205.3586
   205.4479 205.5894 205.7512 206.3026 206.8162 207.2244 207.2975 207.6561
   208.3576 209.1669 209.2381 209.6223 209.9146 210.1313 210.3196 210.9805
   211.1620 211.6306 211.9170 212.4994 213.0162 213.1453 213.3392 213.4224
   213.8013 213.9982 214.3448 214.4447 214.5155 214.6409 214.8980 215.7868
   215.9323 217.1333 217.4321 217.5957 218.3743 218.5997 218.7090 220.3224
   220.7599 221.4382 221.5138 222.0585 222.0945 222.2848 222.3758 222.4568
   222.7278 222.9361 222.9520 223.7978 224.4502 224.9174 225.5529 225.6061
   225.8481 227.1139 227.1628 227.1892 227.2944 228.5993 228.8224 228.9388
   230.2509 230.8868 231.0275 231.1142 231.2368 231.5355 231.8332 232.7203
   233.2357 233.4128 235.2272 235.9147 236.4077 237.3563 237.5840 238.0978
   238.9139 239.2716 239.3850 239.7811 240.1686 241.3852 241.7985 241.8541
   242.0668 242.0989 242.1141 242.5445 243.4856 243.8691 244.6253 245.4480
   245.9392 246.3243 246.8427 246.8666 248.0039 248.1019 248.4704 249.2254
   249.9875 250.2415 250.2458 250.3822 250.5124 250.8063 251.0865 251.1157
   251.7032 251.7311 251.9959 252.1998 252.3452 252.5967 253.1131 253.4338
   253.5040 254.4233 254.4710 255.4890 255.6305 256.3584 256.8918 257.3379
   257.5577 257.9258 258.2081 258.2289 258.4937 258.6189 258.8229 259.2596
   259.3423 260.3052 261.5647 261.6313 262.3456 263.3632 264.6287 265.0232
   265.7653 266.0042 266.1458 266.2317 266.3401 266.3731 266.7216 267.4877
   267.6021 267.6688 267.8639 268.2860 268.6269 269.5057 270.0799 270.2293
   270.2921 270.4185 270.7850 271.2597 271.2987 271.6962 271.7741 271.9109
   272.1176 272.9711 273.1767 273.7399 274.6366 274.8457 274.8996 274.9382
   275.3486 276.3536 276.5142 276.6672 277.3969 277.8984 277.9447 278.2749
   278.3476 278.4529 278.6778 279.2780 279.3984 281.4708 281.7566 282.0408
   282.5109 283.2672 284.0687 286.1008 286.6175 286.7038 286.9006 287.0349
   287.8152 288.1089 288.2773 288.9129 289.1732 289.3989 289.6278 290.1995
   290.9876 291.3549 292.1031 292.1715 292.7469 292.8089 293.2917 293.3489
   294.0319 294.4457 294.7662 294.8236 294.9022 295.2937 296.1075 296.1970
   296.2991 296.4109 296.7578 297.0108 297.0118 297.2670 297.6079 297.8870
   297.9971 298.2813 298.3124 298.8113 298.8377 298.9796 299.1677 299.3713
   301.6654 301.9804 302.0472 302.1130 302.6379 302.6940 303.0220 303.1429
   303.3668 303.3686 303.8170 303.9155 303.9699 303.9846 304.1531 304.3316
   304.5230 305.1209 305.1299 305.5646 305.5733 305.8071 305.8851 306.0247
   306.8747 307.1470 307.2258 307.7557 308.0579 308.1588 308.2175 308.8270
   308.8848 309.1674 309.1989 309.2661 310.1424 310.4048 310.8624 310.9648
   311.6015 312.6977 313.2084 313.4638 315.0682 315.3455 315.3869 315.6149
   315.8869 315.9634 316.1443 316.6749 316.7043 316.9641 317.0216 317.1085
   317.8367 318.1240 318.4968 318.7695 319.7112 320.5191 321.2160 321.2439
   321.4319 321.9007 322.0421 322.1051 322.4001 322.8574 322.8982 323.0172
   323.4064 323.5484 323.7811 323.8529 324.8896 324.9207 324.9601 324.9781
   325.4582 328.0023 329.0453 329.5958 329.8279 329.8383 330.6211 330.7250
   331.5371 331.8679 332.0022 332.0426 332.1029 332.2542 332.3654 332.9474
   333.2216 333.5683 333.6167 333.6445 333.7490 334.0431 334.2488 334.2748
   334.4369 334.7003 334.7217 334.7338 334.7375 335.0225 335.0385 335.0728
   335.2155 335.3436 336.0836 336.2067 336.4869 338.4903 338.6170 338.7036
   339.6972 340.0798 340.4332 340.8619 340.8954 341.0839 342.5522 343.2048
   343.2581 343.2993 343.4164 343.5108 343.9706 344.2054 344.8367 344.9873
   345.4587 345.4669 345.7042 345.7196 346.3331 347.5149 348.5876 348.8462
   349.1631 349.2252 349.3613 350.4310 351.3177 351.6620 352.0187 352.0718
   352.1760 352.4685 352.4902 352.9524 352.9857 353.0184 353.0412 353.3251
   353.5908 354.2491 355.1698 355.5540 355.8310 357.0792 358.5228 358.6238
   359.3122 359.8275 359.9562 360.0971 360.2846 361.7557 361.9945 362.1342
   362.7932 363.0465 363.1140 363.4481 363.5053 363.9728 364.1598 364.2157
   365.0080 365.0188 366.8238 366.8681 367.0844 367.4178 367.6497 367.8112
   368.1829 368.4285 368.6236 368.7250 369.8437 370.2098 370.5031 370.7650
   371.2520 371.3567 371.5428 371.6355 372.0337 372.9950 373.0253 373.2326
   373.4817 375.3548 375.5286 376.2658 376.5221 376.9632 377.1403 377.2866
   377.9322 378.2330 378.5017 378.5966 378.7092 379.1942 379.1976 379.3139
   379.3972 379.5238 379.6295 379.6459 379.9816 381.1919 381.2001 381.3529
   382.0449 382.6001 382.8280 383.2802 384.4510 384.5957 384.6833 384.9477
   385.2740 385.5257 385.6999 386.0117 386.4125 386.4684 387.3458 387.4316
   387.4934 387.5070 387.5144 388.0615 388.2340 388.6577 388.6736 388.7719
   389.1699 389.2351 389.3059 389.7313 389.8906 390.0613 390.1191 390.1302
   390.2589 390.2966 390.3520 390.5329 390.5927 390.6159 390.6250 390.6265
   391.0212 391.0419 391.1541 391.3386 391.6500 391.6940 391.8618 391.9294
   393.6696 394.5953 394.8723 395.0772 395.1469 395.5055 395.5915 395.7755
   396.3160 396.9280 397.3289 397.6560 397.8404 398.1129 398.1607 398.4645
   398.5658 398.6193 398.8567 399.0089 399.0425 399.0906 399.2034 399.2156
   399.3136 399.4041 399.4249 399.4785 402.9521 403.1537 403.2800 403.2842
   404.5969 406.1518 406.5206 406.5323 406.6439 407.2068 407.4585 407.4808
   407.4927 407.6730 407.7219 407.9526 407.9718 407.9989 408.0683 408.2512
   408.7665 408.9934 409.3175 410.1901 410.6718 411.8149 411.8265 411.9603
   412.0348 412.2195 412.5704 412.5704 412.7222 413.1296 413.5571 413.7550
   413.8134 414.2199 414.4396 414.4474 414.9991 415.1588 415.4731 415.6809
   415.9416 416.6070 416.6684 417.1348 417.2614 417.4150 417.6588 418.4155
   418.7674 418.8631 419.0432 419.3903 420.3683 420.3931 420.4602 420.5293
   420.8922 421.2676 421.4935 421.8078 421.9904 422.0770 422.2043 422.6545
   424.3058 424.8003 425.0003 425.1815 426.1757 426.6064 426.6461 426.6699
   428.3089 429.4308 429.8294 429.9248 430.4051 431.0268 431.6232 432.0473
   432.1499 432.2351 432.3742 432.7221 432.7367 432.9480 433.2378 433.3614
   433.5709 433.6389 433.6645 434.0228 434.1406 434.3418 434.4704 434.5329
   434.6018 434.7077 434.7212 434.8883 435.0100 435.2968 435.3585 435.6670
   436.2950 436.4808 436.4952 436.8800 437.3401 438.0007 438.1872 438.3265
   438.7561 439.5813 439.6463 439.6898 439.7946 440.3494 440.3600 440.4563
   440.8088 441.0533 441.1067 441.1735 441.4252 442.8951 442.9644 443.1527
   443.3462 443.5987 443.7982 443.8695 444.1158 444.2189 444.3216 444.5069
   444.5280 444.5887 444.8062 444.8423 445.0880 445.2982 445.5198 445.5400
   445.5592 445.8338 445.8459 445.9318 446.3976 446.6645 446.8443 446.9948
   447.0920 447.1927 447.3292 447.3592 449.6527 452.4993 452.8351 453.2013
   453.3608 453.8845 453.9012 453.9962 454.0713 454.0863 454.2678 454.3528
   454.4254 455.0553 455.7834 456.2208 456.3227 456.4695 456.5271 456.5891
   457.4612 457.5095 457.9065 458.2931 458.8869 459.1369 459.2460 459.2692
   459.9077 460.5172 460.9041 461.0558 461.1325 461.1470 461.1958 461.4095
   461.5875 461.6776 461.6837 463.1016 463.1249 463.5260 463.7473 464.4136
   464.5895 464.6007 465.0588 465.5254 465.8101 465.9679 466.2592 466.5428
   467.0707 467.2063 467.2481 467.7744 468.3079 469.0858 469.1755 469.2744
   469.7672 469.8953 469.9378 470.1886 471.0578 471.1006 471.1528 471.2203
   472.1269 472.5659 472.6343 472.7684 472.8969 472.9775 473.0054 473.0137
   473.0819 473.1559 473.1725 473.1894 473.2472 473.2863 473.3046 473.3494
   473.6392 473.7522 473.8177 473.8656 474.3769 474.4238 474.5547 474.7859
   478.5034 479.5423 479.8530 480.0034 480.8015 481.0286 481.0455 481.0910
   481.1230 481.3381 481.3763 481.8278 481.8354 482.0087 482.1386 483.4935
   483.9588 484.0305 484.0512 484.0624 486.3199 486.3230 487.4759 487.5420
   488.0964 488.1168 488.4549 488.4701 488.9666 489.6482 489.6679 489.7921
   490.0360 490.0658 490.1003 490.2847 490.4047 490.4397 490.4843 490.8519
   491.4801 491.4989 491.5473 491.5725 491.5788 491.7266 491.9214 491.9584
   493.2404 494.1936 494.3634 494.5755 494.8236 494.9747 495.0092 495.1672
   496.5151 496.7509 496.7852 496.9442 497.3793 498.2711 498.5767 498.7255
   498.9637 499.4269 500.0900 500.3238 500.5090 500.7688 500.7866 500.7894

     the Fermi energy is     9.6714 ev
     (compare with:     9.4901 eV, computed in scf)

     Writing all to output data dir out/mp-10182.save/
 
     init_run     :      0.03s CPU      0.04s WALL (       1 calls)
     electrons    :    975.46s CPU   1054.39s WALL (       1 calls)

     Called by init_run:
     wfcinit      :      0.00s CPU      0.00s WALL (       1 calls)
     potinit      :      0.01s CPU      0.01s WALL (       1 calls)
     hinit0       :      0.01s CPU      0.01s WALL (       1 calls)

     Called by electrons:
     c_bands      :    975.46s CPU   1054.39s WALL (       1 calls)
     v_of_rho     :      0.01s CPU      0.01s WALL (       1 calls)

     Called by c_bands:
     init_us_2    :      0.00s CPU      0.00s WALL (       8 calls)
     init_us_2:cp :      0.00s CPU      0.00s WALL (       8 calls)
     cegterg      :    956.77s CPU   1034.53s WALL (       8 calls)

     Called by *egterg:
     cdiaghg      :    923.04s CPU   1000.04s WALL (      72 calls)
     h_psi        :      8.73s CPU      9.16s WALL (      80 calls)
     g_psi        :      0.08s CPU      0.08s WALL (      64 calls)

     Called by h_psi:
     h_psi:calbec :      0.22s CPU      0.24s WALL (      80 calls)
     vloc_psi     :      8.27s CPU      8.66s WALL (      80 calls)
     add_vuspsi   :      0.17s CPU      0.17s WALL (      80 calls)

     General routines
     calbec       :      0.22s CPU      0.24s WALL (      80 calls)
     fft          :      0.00s CPU      0.01s WALL (      10 calls)
     fftw         :      7.37s CPU      7.71s WALL (  108858 calls)
 
     Parallel routines
 
     PWSCF        :  16m16.18s CPU  17m36.45s WALL

 
   This run was terminated on:   4: 7:18   5Dec2023            

=------------------------------------------------------------------------------=
   JOB DONE.
=------------------------------------------------------------------------------=
