
     Program PWSCF v.7.1 starts on 14Nov2023 at 16: 2: 7 

     This program is part of the open-source Quantum ESPRESSO suite
     for quantum simulation of materials; please cite
         "P. Giannozzi et al., J. Phys.:Condens. Matter 21 395502 (2009);
         "P. Giannozzi et al., J. Phys.:Condens. Matter 29 465901 (2017);
         "P. Giannozzi et al., J. Chem. Phys. 152 154105 (2020);
          URL http://www.quantum-espresso.org", 
     in publications or presentations arising from this work. More details at
     http://www.quantum-espresso.org/quote

     Parallel version (MPI), running on     8 processors

     MPI processes distributed on     1 nodes
     123273 MiB available memory on the printing compute node when the environment starts
 
     Reading input from pw_mp-1138_nscf_k10_E173.in
Warning: card &IONS ignored
Warning: card / ignored
Warning: card &CELL ignored
Warning: card / ignored

     Current dimensions of program PWSCF are:
     Max number of different atomic species (ntypx) = 10
     Max number of k-points (npk) =  40000
     Max angular momentum in pseudopotentials (lmaxx) =  4

     Atomic positions and unit cell read from directory:
     out/mp-1138.save/
     Atomic positions from file used, from input discarded
 
 
     R & G space division:  proc/nbgrp/npool/nimage =       8
     Subspace diagonalization in iterative solution of the eigenvalue problem:
     one sub-group per band group will be used
     scalapack distributed-memory algorithm (size of sub-group:  2*  2 procs)

 
     Parallelization info
     --------------------
     sticks:   dense  smooth     PW     G-vecs:    dense   smooth      PW
     Min         177     177     49                 4417     4417     650
     Max         178     178     50                 4420     4420     652
     Sum        1417    1417    397                35341    35341    5209
 
     Using Slab Decomposition
 


     bravais-lattice index     =            2
     lattice parameter (alat)  =       7.7166  a.u.
     unit-cell volume          =     114.8711 (a.u.)^3
     number of atoms/cell      =            2
     number of atomic types    =            2
     number of electrons       =        10.00
     number of Kohn-Sham states=         2200
     kinetic-energy cutoff     =     173.0000  Ry
     charge density cutoff     =     692.0000  Ry
     Exchange-correlation= PBE
                           (   1   4   3   4   0   0   0)

     celldm(1)=   7.716558  celldm(2)=   0.000000  celldm(3)=   0.000000
     celldm(4)=   0.000000  celldm(5)=   0.000000  celldm(6)=   0.000000

     crystal axes: (cart. coord. in units of alat)
               a(1) = (  -0.500000   0.000000   0.500000 )  
               a(2) = (   0.000000   0.500000   0.500000 )  
               a(3) = (  -0.500000   0.500000   0.000000 )  

     reciprocal axes: (cart. coord. in units 2 pi/alat)
               b(1) = ( -1.000000 -1.000000  1.000000 )  
               b(2) = (  1.000000  1.000000  1.000000 )  
               b(3) = ( -1.000000  1.000000 -1.000000 )  


     PseudoPot. # 1 for F  read from file:
     /usr/scratch4/magr4985/MG/HTDF/pseudo/SG15/F.upf
     MD5 check sum: 1d8275f47d602dd53cad6bcdc0eda7dc
     Pseudo is Norm-conserving, Zval =  7.0
     Generated using ONCVPSP code by D. R. Hamann
     Using radial grid of  602 points,  4 beta functions with: 
                l(1) =   0
                l(2) =   0
                l(3) =   1
                l(4) =   1

     PseudoPot. # 2 for Li read from file:
     /usr/scratch4/magr4985/MG/HTDF/pseudo/SG15/Li.upf
     MD5 check sum: c91dd4cee9943b136ac3b62641658f95
     Pseudo is Norm-conserving, Zval =  3.0
     Generated using ONCVPSP code by D. R. Hamann
     Using radial grid of  602 points,  4 beta functions with: 
                l(1) =   0
                l(2) =   0
                l(3) =   1
                l(4) =   1

     atomic species   valence    mass     pseudopotential
        F              7.00    18.99840     F ( 1.00)
        Li             3.00     6.94100     Li( 1.00)

     48 Sym. Ops., with inversion, found



   Cartesian axes

     site n.     atom                  positions (alat units)
         1           Li  tau(   1) = (   0.0000000   0.0000000   0.0000000  )
         2           F   tau(   2) = (  -0.5000000   0.5000000   0.5000000  )

     number of k points=     3  Gaussian smearing, width (Ry)=  0.0005
                       cart. coord. in units 2pi/alat
        k(    1) = (   0.0000000   0.0000000   0.0000000), wk =   0.2500000
        k(    2) = (   0.5000000  -0.5000000   0.5000000), wk =   1.0000000
        k(    3) = (   0.0000000  -1.0000000   0.0000000), wk =   0.7500000

     Dense  grid:    35341 G-vectors     FFT dimensions: (  45,  45,  45)

     Estimated max dynamical RAM per process >     224.68 MB

     Estimated total dynamical RAM >       1.76 GB

     The potential is recalculated from file :
     out/mp-1138.save/charge-density

     Starting wfcs are random

     Band Structure Calculation
     ParO style diagonalization

     ethr =  5.00E-06,  avg # of iterations =  5.2

     total cpu time spent up to now is     1670.5 secs

     End of band structure calculation

          k = 0.0000 0.0000 0.0000 (  4477 PWs)   bands (ev):

   -40.3275 -19.1536   0.6160   0.6160   0.6160   9.3851  24.0783  24.0783
    24.0783  24.6576  24.6576  24.6576  27.5085  31.6754  31.6754  44.3774
    44.3774  44.3774  47.8757  64.4514  64.4514  64.4514  65.9093  67.8027
    67.8027  68.4153  68.4153  68.4153  68.4917  68.4917  68.4917  84.1517
    84.1517  89.9398  89.9398  89.9398  93.5905  93.5905  93.5905  95.1454
    95.1454  95.1454  96.0720  96.0720  96.0720  96.5440  97.6680  97.6680
    97.6680  98.5334  98.5334  98.5334  99.0794  99.0794  99.1954 101.9229
   101.9229 101.9229 102.9542 121.0075 121.0075 121.0075 125.8863 133.5357
   133.5357 141.2980 141.2980 141.2980 147.0621 155.0378 155.0378 155.0378
   160.8739 160.8739 161.2301 161.2301 161.2301 161.8641 161.8641 161.8641
   165.0358 167.4510 167.9725 167.9725 167.9725 168.9582 168.9582 168.9582
   169.1041 169.1041 169.7521 169.7521 169.7521 169.7943 169.7943 169.9124
   169.9124 169.9124 172.6852 172.6852 172.6852 174.0696 174.0696 174.0696
   175.6069 175.6069 175.6069 176.6371 176.6371 177.4011 177.4011 177.4011
   177.9166 195.9495 195.9495 195.9495 199.0676 204.5905 204.5905 204.5905
   205.6420 210.1156 210.1156 210.1156 210.2855 210.2855 211.4057 211.4057
   211.4057 211.9421 211.9421 211.9421 211.9753 211.9753 211.9753 212.4222
   212.4222 213.4486 213.4486 213.4486 221.8806 221.8806 224.1439 233.5530
   233.5530 233.5530 233.9123 233.9123 233.9123 235.7157 236.6373 237.9156
   237.9156 237.9156 238.2746 238.2746 238.2746 239.0158 239.0158 239.0158
   239.3109 239.3109 239.3109 242.7918 242.8333 242.8333 242.8333 242.8433
   242.8433 261.2110 261.2110 261.2110 270.0415 278.0039 278.0039 278.0039
   279.2619 279.2619 279.5949 279.5949 279.5949 286.1338 286.1338 286.1338
   290.6518 297.1020 297.1020 297.1020 298.6918 298.6918 300.6321 300.6321
   300.6321 304.0884 304.0884 304.0884 305.3550 305.3550 305.3550 306.6416
   306.6416 306.6416 307.1721 307.2580 307.2580 309.0240 309.0240 309.0240
   309.5280 309.5280 309.5280 310.1427 311.7142 311.7142 312.1121 312.1121
   312.1121 312.9059 312.9059 312.9059 313.0647 313.0647 313.0647 313.1152
   313.1152 313.7469 313.7469 313.7469 313.9483 314.0290 314.0290 314.0290
   314.0556 314.0556 314.4391 314.4391 314.4391 314.6816 314.8074 314.8074
   314.8074 315.6923 319.1521 319.3995 319.3995 319.3995 319.6408 319.6408
   319.7478 319.7478 319.7478 320.2691 320.2691 320.2691 320.5063 320.5063
   320.5746 320.5746 320.5746 341.8993 341.8993 341.8993 346.0328 346.7264
   346.7264 352.5552 352.5552 352.5552 352.7607 352.7607 352.7607 353.0264
   353.0264 353.0264 353.2263 353.2263 353.2263 356.9838 356.9838 357.1020
   357.1020 357.1020 357.2900 366.9059 366.9059 366.9059 374.1741 374.1741
   374.1741 374.5487 374.5751 381.8516 381.8516 381.8516 382.0335 382.0335
   382.4471 382.4471 382.4471 382.5787 382.5787 382.5787 382.5953 382.5953
   382.5953 382.7517 382.7517 385.5773 385.5773 385.5773 389.2741 389.2741
   389.4699 389.4699 389.4699 389.6446 389.8706 389.8706 389.8706 390.2128
   390.2128 390.2128 390.2806 390.2806 390.2806 390.5168 390.9496 390.9496
   390.9496 391.0998 391.0998 417.8192 417.8192 417.8192 420.6016 424.7233
   424.7233 424.7233 424.9000 426.5084 426.5084 426.5084 435.3929 435.9126
   435.9126 443.4036 443.4036 443.4036 443.7161 443.7161 443.7161 444.6747
   444.6747 444.6747 445.8332 445.8332 447.1834 452.8731 452.8731 452.8731
   454.2535 454.2535 454.2535 454.4162 454.4162 454.4162 454.5425 454.5425
   454.5425 454.6588 454.6588 454.6588 456.1078 456.5671 456.5671 456.5671
   456.8663 456.8663 456.8663 457.0770 457.0770 457.1400 457.1400 457.1400
   457.6834 457.6834 457.6834 458.1404 458.1404 458.1451 458.2146 458.2146
   458.2146 459.2056 459.2600 459.2600 459.2600 459.2764 459.2764 462.9844
   462.9844 462.9844 463.0839 463.0839 463.3727 463.3727 463.3727 463.6033
   463.6033 463.6033 463.8487 485.1100 485.1100 485.1100 490.1778 491.0868
   491.0868 491.0868 491.4539 495.0330 495.0330 495.3187 495.3187 495.3187
   495.5866 495.5866 495.5866 495.9018 495.9018 495.9018 496.3156 496.3156
   496.3156 496.5652 496.5652 499.9412 499.9412 500.2340 500.2340 500.2340
   500.3477 500.3477 500.3477 500.5908 500.5908 500.5908 500.6137 500.6137
   500.6137 500.8821 500.8821 501.6500 501.7939 501.7939 501.7939 501.9799
   501.9799 501.9799 502.2057 505.2566 505.2566 505.2566 511.6863 515.0929
   515.0929 515.4847 515.4847 515.4847 517.3951 517.3951 517.3951 518.0539
   518.4695 518.4695 518.4695 519.3611 519.3611 519.3611 521.3214 521.3214
   521.3214 521.8320 522.3172 522.3172 522.3172 523.0979 523.0979 523.3678
   523.3678 523.3678 523.8913 526.3401 526.3401 526.9706 526.9706 526.9706
   527.0250 527.0250 527.0250 527.0859 527.0859 527.0859 527.7987 527.7987
   527.8320 527.8320 527.8320 528.3826 528.5272 528.5272 528.5272 528.5618
   528.5618 529.7779 529.7779 529.7779 529.7868 529.7868 529.7868 529.9975
   529.9975 529.9975 530.0012 530.0012 530.0012 530.6598 530.6598 530.7044
   530.7044 530.7044 530.7663 561.7655 561.7655 561.7655 564.5860 565.0828
   565.0828 587.1492 587.1492 587.1492 594.2859 594.4274 594.4274 594.4274
   594.8145 595.4378 595.4378 595.8382 595.8382 595.8382 596.1382 596.4203
   596.4203 596.4203 596.4331 596.4331 596.4331 596.5721 596.5721 596.5721
   596.7356 596.7356 596.7356 596.9812 596.9812 599.4933 599.4933 600.6223
   600.6223 600.6223 600.6597 600.6597 600.6597 600.8030 601.1202 605.1190
   605.1190 605.1190 605.3376 605.3376 605.3376 605.3977 605.3977 605.3977
   605.5206 605.5206 605.5206 608.3374 608.3374 608.3480 608.3480 608.3480
   608.3560 608.3560 608.4234 608.4234 608.4234 608.4816 608.4816 608.4816
   608.5668 608.5668 608.5668 609.5217 609.5217 609.5965 609.5965 609.5965
   609.7152 634.3607 634.3607 634.3607 637.7981 638.2667 638.2667 638.2667
   638.4550 638.4550 638.5384 638.5384 638.5384 641.6491 641.6491 641.6491
   641.7612 641.7612 642.3219 642.3219 642.3219 642.3863 642.7183 642.7183
   642.7183 642.7328 642.7328 642.7328 642.9247 642.9247 642.9247 643.2360
   643.3603 643.3603 643.3603 643.4364 643.4364 652.7393 652.7393 652.7393
   655.9355 658.2529 658.2529 658.2529 658.8559 658.8559 658.8559 658.8571
   658.8571 666.7830 667.5152 667.5152 667.5152 667.6058 667.6058 667.6058
   667.6332 667.6332 667.8240 667.8240 667.8240 668.0101 668.0101 668.0101
   668.1758 668.1758 668.1758 668.1979 668.9049 672.0327 672.0327 672.0999
   672.0999 672.0999 672.2325 672.2325 672.2325 672.3847 672.3847 672.3847
   672.4956 674.3463 674.3463 674.3463 674.3507 674.3507 674.4813 674.4813
   674.4813 674.6024 674.6024 674.6024 674.7286 675.6896 675.6896 675.6896
   676.2713 677.5322 677.5322 677.5322 677.9298 677.9298 677.9298 677.9356
   677.9356 678.5922 678.8798 678.8798 678.8798 679.0918 679.0918 679.0918
   679.2537 679.2537 679.2794 679.2794 679.2794 709.2960 709.2960 709.2960
   711.2917 711.5597 711.5597 712.5709 712.5709 712.5709 712.6349 712.6349
   712.6349 712.6955 712.6955 712.6955 712.9276 712.9276 712.9276 713.4896
   713.4896 713.6663 713.6663 713.6663 713.8280 722.1231 722.1231 722.1231
   724.4678 725.4093 725.4093 732.0978 732.0978 732.0978 733.4160 733.4160
   733.4160 733.4276 733.7887 738.2277 738.2277 738.2277 738.4589 738.4589
   738.4589 738.5057 738.5057 738.5057 738.6033 738.6033 738.6033 738.6423
   738.6423 738.7766 738.7766 742.7523 742.7523 742.7523 742.7753 742.7753
   742.7753 742.9045 742.9045 742.9045 742.9980 742.9980 742.9980 743.5756
   743.5756 743.7327 743.7327 743.7327 743.7510 743.7510 743.8002 743.8002
   743.8002 743.8601 743.8601 743.8601 743.9883 743.9883 743.9883 745.2330
   745.2330 745.2330 745.2626 745.2626 745.2626 745.2641 745.3518 745.4283
   745.4283 745.4283 746.5120 747.7333 747.7482 747.7482 747.7482 747.9115
   747.9115 747.9115 747.9152 747.9152 747.9434 747.9434 748.2217 748.2217
   748.2217 748.2403 748.3779 748.3779 748.3779 748.4739 748.4739 748.4739
   748.7824 748.7824 748.7824 748.9910 748.9910 752.3976 752.3976 752.5278
   752.5278 752.5278 752.7947 752.9287 752.9287 752.9287 752.9316 752.9316
   752.9316 753.1295 753.1295 753.1295 753.1303 753.1303 753.1303 753.4007
   753.4007 753.4963 753.4963 753.4963 753.6564 779.5765 779.5765 779.5765
   780.3381 780.3941 780.4806 780.4806 780.4806 788.6041 788.6041 788.6416
   788.6416 788.6416 788.6495 788.6495 788.6495 788.6769 788.6769 788.6769
   788.7024 788.7024 788.7593 788.7593 788.7593 801.7618 801.7618 801.7618
   803.3479 803.6347 803.6347 807.2086 807.2086 807.2086 807.2972 807.2972
   807.2972 807.3688 807.3688 807.3688 807.3707 807.3707 807.3707 812.0058
   812.0058 812.1079 812.1079 812.1079 812.2856 816.2681 816.2929 816.2929
   816.2929 816.3134 816.3134 818.2882 818.2882 818.2882 818.3003 818.3003
   818.3003 818.3584 818.3584 818.3584 818.3876 818.3876 818.3876 819.2450
   819.2450 819.2851 819.2851 819.2851 819.3746 855.6279 855.6279 855.6279
   856.5411 856.8896 856.8896 856.8896 857.0190 857.8475 857.8475 857.9090
   857.9090 857.9090 858.0009 858.0009 858.0009 858.0911 858.0911 858.0911
   858.1078 858.1078 858.1078 858.2132 858.2132 873.0698 873.0698 873.0698
   874.5521 875.5882 875.5882 875.5882 876.6202 876.6202 876.6569 876.6569
   876.6569 878.1063 879.4835 879.4835 879.4835 880.2138 880.2138 880.2138
   881.1690 884.1381 884.1381 884.1381 884.3232 884.3232 884.4584 884.4584
   884.4584 884.7618 884.7618 884.9302 884.9302 884.9302 885.0044 885.0044
   885.0044 885.5253 885.8115 885.8115 885.8115 886.0891 886.0891 886.0891
   886.1680 887.8177 887.8177 887.8177 888.3558 888.3558 888.3973 888.3973
   888.4423 888.4423 888.4423 888.4983 888.4983 888.4983 888.5270 888.5270
   888.5270 888.5992 888.5992 888.5992 889.2708 889.7179 889.7179 889.9556
   890.0232 890.0232 890.0232 890.0570 890.0570 890.0570 890.0736 890.0736
   890.0779 890.0779 890.0779 890.4588 890.4588 890.4588 890.5086 890.5086
   890.5086 890.7033 890.7033 890.8134 890.8134 890.8134 891.1480 896.1686
   896.1686 896.1686 896.1758 896.1758 896.1758 896.2165 896.2165 896.2312
   896.2312 896.2312 896.3039 922.3982 922.3982 922.3982 923.0808 923.2563
   923.2563 926.6895 926.6895 926.6895 926.8610 926.8610 926.8610 927.2926
   927.2926 927.2926 927.3077 927.6077 927.6077 928.1384 928.5685 928.5685
   928.5685 928.8016 928.8016 928.8016 928.9462 928.9462 928.9462 929.0697
   929.0697 929.7885 929.7885 929.7885 930.0734 930.0734 930.0734 930.1071
   930.1071 930.1071 930.4392 930.4392 930.4392 932.6072 932.6072 932.7639
   932.7639 932.7639 932.8029 932.8577 932.8577 932.8577 932.9501 932.9501
   932.9501 933.3065 933.3065 933.3065 933.3229 933.3229 933.4148 933.4148
   933.4148 933.5128 933.5128 933.5128 933.6062 934.4056 934.4056 934.4837
   934.4837 934.4837 934.6393 949.3010 949.3010 949.3010 950.3287 950.7159
   950.7159 950.7159 950.9119 950.9119 950.9361 950.9361 950.9361 952.3742
   952.3742 952.3742 952.5343 952.5343 952.5343 952.5899 952.5899 952.9007
   952.9007 952.9007 953.2475 956.1747 956.5759 956.5759 956.5759 956.9375
   956.9375 956.9375 957.3995 957.3995 957.4284 957.4284 957.4284 958.2455
   958.5547 958.5547 958.5547 958.7636 958.7636 958.7636 958.9396 958.9396
   958.9412 958.9412 958.9412 962.0252 962.0252 962.0382 962.0382 962.0382
   962.1909 962.1909 962.1909 962.2972 962.2972 962.2972 962.3295 962.4553
   962.4566 962.4566 962.4566 962.5421 962.5421 962.5421 962.6842 962.6842
   962.6842 962.7050 962.7050 965.5917 965.5917 965.5917 965.9157 965.9421
   965.9819 965.9819 965.9819 966.1294 966.1294 966.1294 966.1337 966.1374
   966.1374 967.0461 967.0461 967.0461 967.0784 967.0784 967.0784 967.1089
   967.1089 967.1089 967.1296 967.1296 967.1296 968.0747 968.0747 968.1070
   968.1070 968.1070 968.11751024.53591024.53591024.53591024.79551024.9276
  1024.92761024.92761025.09951026.05751026.05751026.10981026.10981026.1098
  1026.31061026.31061026.31061026.32761026.32761026.32761026.50411026.5041
  1026.50411026.58721026.58721031.77021031.77021031.79871031.79871031.7987
  1031.86051031.86051031.86051031.91871031.91871031.91871031.94731031.9473
  1031.94731032.06501032.06501032.06501032.12531032.12531032.29041032.3234
  1032.34421032.34421032.34421032.39581032.39581032.39581032.47211032.7636
  1032.76361032.76361032.81041035.72991035.72991035.84661035.84661035.8466
  1036.21711036.21711036.21711036.49911036.49911036.49911036.64241036.6424
  1036.64241036.80571037.09271037.09271037.43071037.43071037.43071037.6067
  1037.60671037.76831037.76831037.76831037.92281037.92281037.92281037.9735
  1037.97351037.97351038.05821038.05821038.05821038.25151038.38541038.3854
  1038.43871038.43871038.43871041.60511041.60511041.60511041.61681041.6168
  1041.69251041.69251041.69251041.70261041.70261041.70261041.70281041.7028
  1041.73241041.73241041.73241043.09541043.09541043.09541043.11021043.1231
  1043.12311043.12311043.18861071.79451071.79451071.79451071.93321071.9633
  1071.96331072.54541072.54541072.54541072.61101072.61101072.61101072.6467
  1072.64671072.64671072.64871072.64871072.64871073.23051073.23051073.2442
  1073.24421073.24421073.25881077.07191077.07191077.11821077.11821077.1182
  1077.23171077.63321077.63321077.63321077.63751077.63751077.63751077.7005
  1077.70051077.70051077.73571077.73571077.73571078.12481078.12481078.1738
  1078.17381078.17381078.21921085.95021085.95021085.95021086.09741086.2487
  1086.24871095.55631095.55631095.55631095.66011095.68331095.72131095.7213
  1095.72131103.63241103.63241103.63241103.67831103.67831103.67831103.6813
  1103.68131103.68131103.76181103.76181103.76181104.25441104.25441104.2544
  1104.27221104.27221104.27871104.27871104.27871104.28601104.28601104.2959
  1104.29591104.29591104.33231104.33231104.33231108.64831108.68761108.6876
  1108.68761108.70891108.70891143.59401143.59401143.59401143.61341143.6134
  1143.65101143.65101143.65101143.65261143.65261143.65261143.71411160.9811
  1161.18901161.18901161.18901162.23231162.23231162.39161162.39161162.3916
  1162.71741162.71741162.71741164.53541164.53541164.69261164.69261164.6926
  1165.93831167.13881167.13881167.13881167.86531167.86531167.86531168.0485
  1168.04851168.04851168.65821168.65821168.65821171.53751171.57121172.0416
  1172.04161172.04161172.18861172.18861172.22091172.22091172.22091172.6247
  1172.62471172.62471172.83121172.83121172.83121172.87941172.87941172.9565
  1172.95651172.95651173.24781173.45381173.45381173.50411173.50411173.5041
  1173.69141173.69141173.69141173.93701173.93701173.93701174.17391174.1739
  1174.17391174.22251174.32081174.32081174.32081174.54731174.54731177.0911
  1177.09111177.12531177.12531177.12531177.17841177.23181177.23181177.2318
  1177.24941177.24941177.24941177.30421177.30421177.36471177.36471177.3647
  1177.48891179.10801179.10801179.10801179.11511179.11511179.11511179.1873
  1179.18731179.18731179.19281179.19281179.19281179.61281179.61281179.6452
  1179.67701179.67701179.67701179.68801179.68801179.68801179.74861179.7486
  1179.74861180.09741180.09741180.16521180.16521180.16521180.27611180.7506
  1181.04161181.04161181.04161181.62471181.62471181.62471182.08121182.0812
  1182.11521182.14911182.14911182.14911182.60061182.60061182.60061182.6807
  1182.68071182.68071182.80751182.80751182.80751182.86811182.86811183.5404
  1183.54041183.62991183.62991183.62991183.76061183.76061183.76061183.8550
  1183.85501183.85501184.10741184.39431184.39431184.39431184.43051184.4305
  1184.51491184.51491184.51491184.64381184.64381184.64381184.74091212.8599
  1212.87881212.87881212.87881212.98091212.98771212.98771212.98771217.6451
  1217.64511217.64511217.67021217.70741217.70741217.70741217.71381217.7138
  1217.72491217.72491217.72491217.92351217.92351217.92351217.93511217.9351
  1217.98131217.98131217.98131218.01571218.01571218.01571218.05861221.5494
  1221.54941221.57601221.57601221.57601221.57871221.57871221.57871221.5811
  1221.58111221.58111221.60231221.60231221.61811221.61811221.61811242.0208
  1242.06251242.06251242.06251242.30441242.30441242.30441242.40221242.9513
  1242.95131242.98171242.98171242.98171243.09481243.09481243.09481243.1626
  1243.16261243.16261243.29871243.29871243.29871243.30431243.30431245.4728
  1245.47281245.53211245.53211245.53211245.79591245.79591245.79591245.8507
  1245.85071245.85071246.03761246.03761246.03761246.14981246.14981246.2781
  1246.47841246.47841246.47841246.66001246.66001246.66001246.78531248.6097
  1248.63801248.63801248.63801248.68931248.68931248.68931248.70171248.7017
  1248.71521248.71521248.71521248.82891248.82891248.82891248.83181248.8318
  1248.85311248.86641248.86641248.86641248.86821248.86821248.86821254.4723
  1254.69051254.69051254.69051254.95641254.95641254.95641255.03271255.0327
  1255.10211255.10211255.10211255.32391255.32391255.32391255.44901255.4490
  1255.45981255.45981255.45981255.66501255.66501255.66501255.80911255.8419
  1255.90611255.90611255.90611256.01471256.01471256.08691256.08691256.0869
  1256.16841256.16841256.16841256.38331256.38331256.38331256.44811256.4481
  1256.51011256.51011256.51011256.62371256.62371256.62371256.68101286.4152
  1286.41521286.41521286.44241286.53141286.53141290.60521290.61381290.6138
  1290.61381290.63901290.65821290.65821290.65821291.45651291.45651291.4669
  1291.46691291.46691291.49081291.49081291.49081291.49111291.49111291.4911
  1291.52851291.52851291.52851291.54201291.54201312.22011312.23191312.2319
  1312.23191312.35601312.35601312.73701312.73701312.73701312.76311312.7631
  1312.76311312.77751312.77751312.77751312.84751312.84751312.84751313.3263
  1313.32631313.35001313.37461313.37461313.37461317.51421317.52911317.5340
  1317.53401317.53401317.55331317.55331317.55331320.45491320.50651320.5065
  1320.50651320.64061320.64061322.62151322.64691322.64691322.64691322.6690
  1322.66901322.86471322.86471322.86471322.87801322.87801322.87801322.9205
  1322.92051322.92051322.94421322.94421322.94421323.11911323.11911323.1650
  1323.16501323.16501323.26011326.99761326.99761326.99761327.01721327.0172
  1327.01721327.01821327.01821327.01821327.03581327.03581327.03581331.2233
  1331.22331331.26081331.26081331.26081331.33391359.23011359.23011359.2301
  1359.27661359.39701359.39701359.39701359.41881359.92831359.92831359.9283
  1359.93251359.93251360.01311360.01311360.01311360.04321360.04321360.0432
  1360.08341360.08341360.08341360.10141360.10141363.12021363.22591363.2259
  1363.22591363.30041363.30041364.09931364.09931364.09931364.10701364.1070
  1364.10701364.16651364.16651364.16651364.19901364.19901364.19901365.0313
  1365.09271365.09271365.09271365.11921365.11921365.76211365.76211365.7788
  1365.77881365.77881365.78441365.78441365.78441365.79831365.79831365.7983
  1365.84601365.84601365.85071365.85071365.85071366.09041366.10771366.1077
  1366.10771366.15101366.15101366.15101366.22071382.11651382.22221382.2222
  1382.22221382.35271382.38381382.38381382.38381385.87171385.87171385.8964
  1385.89641385.89641385.97821385.97821385.97821385.99041385.99041385.9904
  1386.00831386.00831386.00831386.01731386.01731389.06921389.16541389.1654
  1389.16541389.26081389.26081389.26081389.35621390.01311390.01311390.0131
  1390.03191390.03191390.06431390.06431390.06431390.14441390.14441390.1444
  1390.15691390.15691390.17511390.17511390.17511392.64601392.64601392.6731
  1392.67311392.67311392.71131392.71131392.71131392.71861392.71861392.7186
  1392.78381392.78381392.78381392.82091392.82091392.86451392.91711392.9171
  1392.91711393.00381393.00381393.00381393.11631394.03351394.03351394.0335
  1394.03521394.03521394.04221394.04221394.04361394.04361394.04361394.0496
  1394.04961394.04961394.06461394.06461394.06461395.07921395.07921395.0792
  1395.08341395.08341395.08341395.09511395.10791433.17961433.17961433.1796
  1433.18581433.28121433.28121434.08121434.08121434.08121434.12171434.1217
  1434.12171434.13941434.13941434.13941434.14991434.14991434.14991434.9490
  1434.94901434.95301434.95301434.95301435.01771454.00561454.00561454.0056
  1454.08671454.08671454.08671454.10291454.10291454.10291454.10601454.1060
  1454.20291465.04071465.10511465.10511465.10511465.24541465.24541465.2454
  1465.30791467.06331467.06481467.06481467.06481467.06901467.06901467.0690
  1467.07731467.07731467.07731467.08461467.08461467.27941467.33421467.3342
  1467.33421467.40601467.40601467.40601467.43331467.43331467.43331467.4363
  1467.43631468.90121468.90121468.90121468.90741468.90741469.19671469.1967
  1469.19671469.45851469.47241469.47241469.47241469.59711469.59711469.5971
  1469.67681469.67681469.67681469.93241469.93431469.93431469.96481469.9648
  1469.96481472.92241473.15291473.15291473.15291473.38011473.38011473.4548
  1473.45481473.45481473.52251473.52251473.52251474.06531474.06531474.0653
  1474.06881474.06881474.07441474.07441474.07441474.10431474.10431474.1109

          k = 0.5000-0.5000 0.5000 (  4446 PWs)   bands (ev):

   -40.2788 -18.7520  -1.7622   0.4035   0.4035  11.2455  16.8812  19.2629
    19.2629  30.4358  30.9862  30.9862  33.4446  36.9768  36.9768  44.9211
    44.9211  46.5773  52.1833  52.4558  52.4558  54.9482  60.6329  60.6329
    64.9150  67.8012  70.0831  70.0831  71.3182  71.3182  74.3287  74.3774
    74.6350  74.6350  76.2143  85.9365  85.9365  89.0663  89.9909  89.9909
    91.3062  95.9817  97.9956  97.9956 101.9750 102.6353 102.6353 107.0547
   107.9496 107.9496 108.8332 108.8332 115.4696 118.6547 118.6547 120.6213
   122.4587 122.4587 122.9453 125.8617 125.8617 126.5941 126.5941 127.3422
   128.0400 128.0400 128.0476 128.0476 129.3247 129.3944 138.6926 141.0731
   141.0731 141.1159 146.1256 146.7787 146.7787 147.1103 147.1103 157.1300
   157.1300 157.4612 157.8189 160.5774 160.5774 161.3116 162.7732 163.7410
   163.7410 164.8314 167.9106 170.4441 170.4441 172.8126 173.4835 173.4835
   177.0845 177.0845 177.6223 178.4429 178.4429 181.2959 182.5752 182.5752
   182.5782 182.5782 182.6233 182.6339 191.6949 192.7482 192.7482 194.8766
   194.8766 196.5497 197.2125 198.8111 198.8111 198.9324 198.9324 199.8503
   199.8649 208.6708 208.6708 210.8175 212.9588 213.0338 213.0338 214.7790
   214.7790 215.0523 215.0523 216.1350 217.3710 217.3710 217.7020 218.0390
   218.0390 218.0822 220.2399 227.3437 227.9206 227.9206 228.0945 229.4195
   229.4195 230.2670 235.5397 235.5397 235.5579 235.5579 236.9405 236.9405
   237.0706 237.0706 237.4187 237.4267 243.6528 243.6528 248.3125 248.8204
   250.0637 250.0637 252.1842 253.6778 253.6778 254.2812 254.2812 254.4595
   254.6431 257.2099 257.2099 261.9066 261.9066 268.5564 268.5564 268.7836
   268.8698 268.8698 269.4704 270.8557 274.9372 277.6413 277.6413 281.0621
   281.4063 282.8269 282.8269 283.6090 284.1572 285.0330 285.0330 285.4610
   285.4610 286.4020 286.8947 286.8947 288.7202 288.7202 289.0411 289.6626
   289.6626 289.8683 289.8683 289.8937 290.1405 290.4155 290.4155 290.4234
   290.4234 291.5207 301.9286 301.9286 302.2067 303.7018 303.7018 304.7674
   305.2686 307.3797 307.3797 307.5067 307.5067 308.0914 308.6194 308.6194
   308.6536 308.6536 308.7455 308.9103 316.1136 316.7852 316.7852 318.8213
   318.8213 321.4838 322.3974 324.3828 325.1663 325.1663 325.3263 325.3263
   325.4293 325.6146 327.5502 333.6740 333.6740 337.0195 337.0195 339.6295
   341.2993 341.9527 341.9527 342.0762 342.0764 342.0764 342.3446 342.3446
   342.5161 343.1061 343.1061 343.7264 345.1653 345.1653 345.1913 345.1913
   345.2430 345.3647 345.9654 355.0050 355.0050 356.9358 356.9358 358.6320
   362.6946 365.7315 365.7315 367.3575 370.1939 370.8856 370.8856 372.3851
   372.3851 373.3536 373.3536 376.4942 377.2176 377.3269 377.3269 377.5134
   377.5134 379.0848 379.2324 379.2324 379.3731 379.3731 379.3791 379.8656
   379.8656 379.9164 379.9164 380.1282 380.1606 380.9007 388.9511 390.0741
   390.0741 390.4048 390.9594 391.9738 391.9738 395.2564 395.2564 395.2982
   395.2982 395.2989 395.5614 395.7396 395.7396 395.8238 395.8238 397.7540
   397.7540 397.7555 397.7899 397.8004 397.8004 397.9183 399.2977 399.2977
   399.3021 399.3021 400.5719 400.5724 404.7798 408.0489 414.3489 414.3489
   415.2289 415.4304 415.4304 415.9962 416.3848 416.3848 416.4552 416.4552
   423.0427 423.0427 423.9591 426.3580 427.9675 427.9675 428.2618 428.6439
   428.6439 428.9447 428.9447 431.9914 433.1308 433.1308 433.2046 433.3615
   433.4665 433.4665 434.2077 434.2077 434.3920 434.3920 434.7093 434.8613
   439.0188 439.0188 444.1297 444.1297 444.6572 445.3017 447.7398 448.1516
   448.1516 450.1110 450.3919 450.3919 450.8663 450.9299 450.9299 450.9661
   450.9661 451.3288 451.3288 451.4105 451.4105 451.4137 451.4167 451.4871
   465.0425 465.0425 465.9407 466.6954 467.1626 467.1626 468.1010 468.1010
   468.1547 468.7850 468.7850 468.9502 468.9502 468.9620 469.1197 469.1197
   469.2213 469.4250 472.8692 479.6252 481.3147 481.3147 481.6865 483.4257
   483.4257 485.4412 485.4412 485.4804 485.4804 485.5540 485.5811 485.6168
   485.6168 485.6172 485.6843 485.6843 485.8155 486.3203 489.2768 489.2768
   489.3511 489.3511 492.5233 494.9048 494.9048 496.4187 496.4187 499.7310
   500.2431 500.8798 500.8798 500.9348 500.9348 501.8184 503.2980 503.7030
   503.7030 504.4687 504.4979 504.4979 506.0115 506.0337 506.0337 506.2227
   506.2227 506.4522 508.1159 508.1697 508.1697 508.2246 508.2246 508.2596
   515.5529 518.5275 518.5275 519.2445 519.2445 519.6786 523.5452 523.5452
   523.7664 523.7664 524.0555 524.1463 529.6346 533.5030 533.5030 536.1871
   536.1871 537.2293 537.4975 538.9087 539.4506 539.4506 539.4547 539.4547
   539.5947 540.2910 540.3302 540.3302 540.3421 540.3421 540.4127 540.4816
   541.8844 541.8844 541.9086 541.9086 542.0193 542.1278 549.4767 550.8597
   550.8597 551.2401 551.3493 551.9807 551.9807 553.0978 553.0978 553.2610
   553.2610 554.6922 554.6922 555.1699 555.2093 555.2093 555.5776 555.8621
   558.4829 558.6076 559.2276 559.3299 559.6593 559.6593 559.7725 559.7725
   559.8210 559.8210 559.9169 559.9169 559.9809 559.9809 560.0193 560.0193
   560.3826 560.3988 561.0088 561.0088 561.0536 561.0536 561.2786 561.2958
   574.1972 574.4461 574.4461 575.0174 575.0174 575.3207 576.7082 577.0101
   577.0101 577.0927 577.0927 577.2658 577.2667 577.2862 577.2862 577.3746
   577.3766 577.3766 579.3953 579.3953 579.4105 579.4105 579.5174 579.5250
   592.7253 592.7253 592.9820 593.5550 593.5550 594.2814 594.3981 594.4046
   594.7130 594.7130 594.7702 594.7702 601.1911 605.1291 608.1301 608.1301
   608.8787 609.1464 609.1464 609.7011 611.2620 611.2620 611.4125 611.4125
   611.5861 611.5861 611.6083 611.6083 611.8945 611.9193 612.0487 612.0487
   612.2139 612.2544 612.2544 612.6696 615.4040 615.4040 615.4063 615.4063
   616.8327 616.8342 627.2282 627.6442 627.8397 627.8397 628.8553 629.1133
   629.1133 629.3557 629.3557 629.4444 629.4444 629.8635 633.6614 633.6614
   633.6655 633.6655 633.9248 633.9274 637.5290 637.5290 639.3761 640.6785
   640.6785 641.2372 642.0347 642.5656 642.5656 643.0005 643.2842 643.6125
   643.6125 643.9939 648.3074 648.3074 648.4815 649.0343 649.0343 649.0485
   651.2297 651.2297 651.2334 651.2334 660.2467 660.2467 660.6744 662.0326
   662.0326 662.4504 663.2198 663.2198 663.5145 663.5145 663.5388 664.2064
   665.2237 665.2237 665.2560 665.3368 665.7989 665.7989 665.9333 666.2249
   666.3114 666.3114 666.5198 666.5198 667.4799 667.5188 667.5212 667.5212
   667.6006 667.6343 667.6343 667.7026 667.7026 667.7061 667.7061 667.7422
   668.6851 668.6851 668.7207 668.7426 668.7426 668.8038 669.7087 669.7087
   669.7264 669.7264 669.7714 669.8692 682.1890 682.1890 682.2112 682.2154
   682.2154 683.1450 683.5920 683.5920 683.6582 683.6582 683.6783 683.6814
   686.1438 686.1445 686.1445 686.2061 686.2559 686.2559 696.2549 697.6586
   697.8256 697.8256 698.0923 698.0923 700.7471 700.7471 701.3295 701.3295
   701.3323 701.5722 701.7616 701.8666 701.8666 701.8843 701.8843 701.8878
   703.9712 703.9712 704.0049 704.0049 704.1261 704.1261 704.1710 704.1986
   704.2026 704.6322 704.7151 704.7151 704.8671 704.8671 704.8738 704.9580
   704.9580 705.0345 717.7737 719.0279 719.4910 719.4910 719.7251 719.7251
   719.8664 719.9443 720.6044 720.6044 720.6244 720.6244 721.1807 721.3718
   721.3718 721.4151 721.4500 721.4500 721.5813 721.5813 721.5870 721.5870
   721.6002 721.6288 731.6486 731.8184 735.2138 735.2138 735.6358 735.6358
   735.6940 735.9963 741.0487 741.0487 741.0570 741.0570 741.3908 741.3908
   741.4223 741.4223 741.4375 741.5123 751.1290 751.5419 751.5419 751.9448
   751.9448 752.6150 752.6999 753.0073 753.0073 753.0332 753.0332 753.0478
   755.3634 755.5009 755.5009 755.6396 755.6396 755.6536 755.8050 755.8050
   755.8102 755.8102 755.8195 755.8676 757.2004 757.2004 757.2066 757.2066
   757.4864 757.5144 759.3499 759.3499 759.3701 759.3701 759.3936 759.4406
   767.4843 767.7330 768.4815 768.4815 768.6164 768.6164 773.6581 773.6581
   773.7010 773.7010 773.7710 773.8120 775.5852 775.8598 775.8598 775.8791
   776.0360 776.0360 776.3433 776.3433 776.3675 776.3675 776.4880 776.4977
   778.0633 778.0633 778.0786 778.0786 778.1167 778.1428 790.2039 790.5292
   791.6668 791.6668 791.6778 791.6778 791.6972 791.6972 791.8494 791.9338
   791.9338 792.0035 792.6597 792.6597 792.7008 792.7008 792.7443 792.8112
   795.6078 795.6078 795.6108 795.6108 795.9997 796.0004 804.1140 804.2377
   804.2377 804.3566 804.3566 804.4142 808.9061 809.1759 809.9987 809.9987
   810.1297 810.2016 810.2016 810.3880 810.7553 810.7838 810.7838 810.8042
   810.8042 810.8079 811.1402 811.1455 811.1455 811.1541 811.1541 811.2801
   823.7902 823.9651 823.9651 824.4815 824.4815 824.5063 825.4012 825.4012
   825.4443 825.5205 825.5205 825.5233 826.5775 826.5775 826.7873 826.7873
   827.1452 827.3810 827.3944 827.6982 827.6982 827.7244 827.7460 827.7977
   827.9351 827.9351 828.1220 828.1220 828.1918 828.1918 830.6921 830.7054
   830.8267 830.8267 830.8526 830.8526 831.3776 831.3776 831.3990 831.3990
   831.4898 831.5063 831.8628 831.8628 831.8687 831.8687 832.0082 832.0193
   847.6012 847.6293 847.7242 847.7242 847.7638 847.7638 848.1924 848.1924
   848.2149 848.2149 848.3026 848.3141 848.3387 848.3867 848.4907 848.4907
   848.5227 848.5227 858.9175 858.9175 859.4840 859.4840 859.5018 859.7385
   863.5161 863.5429 863.5429 863.5569 863.5569 863.6030 865.2443 865.2443
   865.3231 865.3262 865.3855 865.3855 866.1598 866.1598 866.1951 866.2228
   866.2228 866.3227 866.4666 866.4666 866.6343 866.6689 866.6817 866.6817
   873.7510 874.3348 876.5385 876.5385 876.6496 876.7222 876.7222 877.0827
   878.5590 878.5590 878.6019 878.6019 880.6751 881.4155 882.5027 882.5027
   882.6708 882.6708 882.8133 882.8133 883.2094 883.2094 883.2128 883.2228
   883.9163 883.9296 883.9388 883.9388 883.9416 883.9416 884.1878 884.2350
   884.2350 884.2566 884.2566 884.2699 885.0514 885.0514 885.0637 885.0637
   885.5309 885.5317 886.8261 886.8261 886.8266 886.8266 887.8671 887.8672
   901.2322 901.2322 901.2391 901.2391 901.3484 901.4190 901.5435 901.5435
   901.5593 901.6407 901.6407 901.6918 916.4013 916.4712 916.5402 916.5402
   916.6118 916.6118 916.9539 916.9539 917.1129 917.1129 917.1681 917.2357
   917.5173 917.5173 917.5252 917.5943 917.5943 917.7577 918.1010 918.1010
   918.1451 918.1451 918.2795 918.2827 918.2947 918.4525 918.4525 918.4975
   918.5530 918.5530 919.2507 919.2507 919.3894 919.4794 919.4794 919.4817
   931.0378 931.1450 935.2625 935.2625 935.2754 935.3214 935.3214 935.4430
   935.8717 935.9009 935.9409 935.9409 935.9555 935.9555 936.0575 936.0575
   936.1139 936.1210 936.1210 936.1967 936.5590 936.6662 936.6662 936.6917
   936.6917 936.7073 937.2966 937.2966 937.2995 937.3909 937.3909 937.4593
   938.9114 938.9114 939.1086 939.1580 939.1580 939.1638 939.3684 939.4424
   939.4424 939.5534 939.5534 939.5945 939.7058 939.7058 939.7106 939.7106
   940.3941 940.3941 940.3987 940.3987 940.4911 940.4932 952.1340 952.1340
   952.1899 952.2774 952.2874 952.2874 957.5205 957.5205 957.5279 957.5279
   957.5865 957.5890 972.4310 972.4340 972.4340 972.5177 972.5177 972.5711
   972.5988 972.5988 972.6060 972.6645 972.6645 972.6779 973.7306 973.7306
   973.7871 973.9362 973.9382 973.9382 974.0278 974.0278 974.0496 974.0496
   974.0752 974.0885 984.8402 984.8869 984.8965 984.8965 984.9567 984.9567
   988.8865 988.8865 989.0324 989.0871 989.0871 989.1963 989.5689 989.5689
   989.6791 989.6791 989.6869 989.7483 991.1202 991.2496 991.2496 991.4069
   991.4626 991.4626 991.8024 991.8024 991.8323 991.9923 991.9923 992.1214
  1004.71731005.01981005.31751005.31751005.36671005.36671006.57051006.5705
  1006.59761006.62001006.65061006.65061008.06041008.26371009.03321009.0332
  1009.05031009.05031010.27011010.27011010.28101010.28881010.28881010.3157
  1010.51151010.51151010.52781010.53561010.56001010.56001011.36771011.3677
  1011.38581011.38581011.41861011.46011021.16591021.16591021.18421021.2318
  1021.25221021.25221023.90401023.90401023.92061023.92601023.92601023.9993
  1025.54751025.98791026.40131026.40131026.56121026.56121026.70221026.7457
  1026.92391026.92391026.93551026.93551028.73891028.73891028.76531028.7653
  1029.00081029.00621029.00901029.01121029.04321029.04321029.04611029.0461
  1029.10551029.13171029.13171029.13621029.13621029.14401029.95911029.9591
  1029.97601029.98431029.98431030.02761039.70231039.81961041.15811041.1643
  1041.16781041.16781041.25291041.25291042.69431042.69431042.79581042.8437
  1042.84371042.86351044.03041044.03041044.04541044.04541044.18121044.1827
  1046.55991046.59441046.84941046.84941046.85711046.85711048.03061048.0306
  1048.03141048.03141048.15091048.15091048.15971048.17631048.17631048.2088
  1048.39151048.39151048.39821048.39821048.55431048.55501060.87591060.8759
  1060.92381060.95791060.95791060.98041063.09871063.14681063.18321063.1832
  1063.22631063.22631064.23291064.23291064.25221064.25221064.25611064.2603
  1064.26031064.26221064.27931064.28291064.30511064.30511065.91481065.9148
  1065.91581065.95411065.95411065.99561077.82581077.89701078.40861078.4086
  1078.41401078.41401079.84351079.84351079.86941079.86941079.98911079.9972
  1080.01031080.20061080.44881080.44881080.51871080.51871084.01121084.0112
  1084.01261084.01261084.37411084.37551096.05441096.16731096.16731096.2396
  1096.24461096.24461096.63291096.63291096.63411096.63411096.83411096.8493
  1098.11721098.13791098.25761098.25761098.33221098.33221099.14481099.1448
  1099.14961099.14961099.20941099.21891099.24771099.26051099.35061099.3506
  1099.35131099.35131100.31371100.45481100.47581100.47581100.49921100.4992
  1100.81631100.81631100.83331100.85501100.91921100.91921100.92271100.9227
  1100.96021100.96021101.01141101.01151101.22801101.22801101.25481101.2548
  1101.26111101.31441116.25851116.25851116.26781116.27281116.28581116.2858
  1117.18111117.20041118.04841118.04841118.05061118.05061120.78361120.7836
  1120.80271120.80381120.80381120.84391131.79241131.80621131.80621131.8149
  1131.81491131.84221134.93141134.95361135.32001135.32001135.32471135.3247
  1135.34351135.35111136.48921136.50131136.54821136.54821136.61341136.6134
  1138.88111138.88111138.88151138.88151138.94591138.95271146.70981146.7098
  1146.78711146.83631146.83631146.93291149.73051149.83331149.83331150.1095
  1150.10951150.16391153.04221153.05311153.05311153.15331153.17541153.1754
  1153.67771153.69961153.69961153.72301153.72301153.75941154.52641154.5314
  1154.53141154.55891154.55891154.58231156.16201156.16221156.16221156.2040
  1156.20401156.24801169.41041169.46001169.54551169.54551169.57571169.5757
  1170.37391170.37391170.37741170.37741170.44671170.45071170.56601170.5660
  1170.58531170.60381170.60581170.60581172.19551172.19551172.21871172.2187
  1172.22971172.26911172.35731172.39601172.39601172.45621172.47521172.4752
  1183.25811183.33771183.33771183.41221183.51231183.51231185.86251185.8741
  1186.75491186.75491186.75621186.75621188.15631188.15631188.15671188.1696
  1188.16961188.19561188.36961188.38351188.38351188.39861188.39861188.4300
  1189.43651189.46121189.46121189.49921189.49921189.50141190.09031190.0951
  1190.10051190.10051190.10121190.10121190.76801190.79921190.80481190.8048
  1190.82181190.82181190.83521190.83521190.84301190.84301190.85021190.8519
  1192.18331192.18331192.18381192.18381192.52861192.52961200.86411200.8753
  1205.05471205.10261205.11081205.11081205.16201205.16201205.72601205.7260
  1205.73051205.73051206.61791206.61791206.62401206.63211206.63211206.6342
  1206.63651206.63651206.64731206.64731206.65581206.67121207.72511207.7543
  1207.75431207.79591207.79591207.80611209.47571209.47571209.49261209.4926
  1209.52091209.58121209.60281209.71951209.71951209.83191209.83551209.8355
  1209.91251209.91251209.92921209.99601209.99601210.05761210.60781210.6078
  1210.60791210.60791212.16471212.16491223.50181223.53231223.57281223.5728
  1223.57531223.57531227.40411227.40751227.45831227.45831227.46411227.4641
  1228.58321228.58321228.58321228.58321228.67931228.67941239.26661239.3217
  1239.32171239.40371239.40371239.45121243.64311243.67641243.67641243.6933
  1243.69331243.70711243.91031243.91031243.92211243.94811243.94811243.9855
  1245.40581245.40581245.41831245.42431245.42431245.44651258.83501258.8350
  1258.95771259.07771259.07771259.26271259.45591259.51891259.59991259.5999
  1259.71291259.71291259.77471259.78871259.78871260.18201260.18201260.4696
  1260.71991260.98421260.98421261.25221261.25221261.39731261.47651261.4809
  1261.53671261.53671261.55251261.55251262.37531262.40391262.40391262.4062
  1262.40621262.44071262.49641262.57711262.57711262.66781262.66781262.7195
  1263.06491263.09491263.09491263.12811263.13991263.13991263.25261263.2526
  1263.25771263.29941263.29941263.33491273.67481273.71141279.35821279.4654
  1279.46541279.46551279.47261279.47261279.70521279.70521279.71491279.7149
  1279.72311279.75001280.72061280.76521280.76521280.78171280.78171280.7902
  1281.27581281.27581281.28231281.28231281.29891281.31241282.38721282.3872
  1282.38721282.38721293.51291293.64581293.64581293.67691293.67691293.7240
  1295.09991295.20581295.28061295.28061295.31351295.31351295.67031295.6703
  1295.68561295.68561295.83561295.90441296.95001296.96531297.02581297.0258
  1297.04131297.04131297.89431297.89431297.90401297.90401297.94151297.9822
  1297.98921298.11951298.11951298.14481298.17621298.17621298.20071298.2007
  1298.21321298.24161298.24161298.24351300.59631300.59631300.61131300.6131
  1300.61311300.64301309.92141310.04151310.07281310.07281310.08101310.0810
  1314.62391314.62391314.62941314.62941314.71531314.73941316.20611316.2699
  1316.26991316.30741316.30741316.32151316.32151316.32751316.34141316.3414
  1316.34191316.36521317.29211317.31121317.33731317.33731317.34661317.3466
  1317.56651317.56791317.75391317.75391317.75761317.75761319.32531319.3253
  1319.32621319.32621319.43231319.43261332.49291332.54281332.68181332.6818
  1332.68491332.68491333.72291333.76651333.76651333.78011333.78011333.8124
  1334.38111334.38111334.39051334.39051334.39691334.41511336.89501336.8950
  1336.89561336.89561337.06381337.06391348.62971348.74681349.72841349.7284
  1349.73191349.73191351.84361351.90361351.90361351.91741351.91791351.9179
  1351.94791351.94791351.95941351.95941351.97131351.97701352.18641352.2018
  1352.20181352.20531352.20531352.21411353.67621353.68051353.80631353.8063
  1353.80831353.80831364.13351364.13351364.15081364.17931364.17931364.2806
  1366.78231366.83801366.83801366.85501366.85501366.87921368.49101368.5493
  1368.57081368.57081368.57351368.57611368.57611368.59701368.59701368.6019
  1368.60191368.61491368.64391368.64391368.65411368.65411368.67321368.6840
  1368.99831369.06801369.08201369.08201369.08851369.08851369.67291369.7053
  1369.70531369.72181369.72541369.72541371.79431371.79431371.79561371.7956
  1371.82811371.82961372.79581372.79581372.79631372.79631372.84471372.8451
  1373.88021373.88021373.88501373.89031373.89031373.90301387.28041387.3186
  1387.31861387.31911387.31911387.34521388.72071388.77621388.82151388.8215
  1388.82511388.82511389.14581389.14581389.14591389.14591389.19101389.1929
  1389.19881389.23011389.23011389.23511389.23511389.24351389.38191389.3819
  1389.38581389.38581389.42421389.43341399.79651399.89661399.94671400.0321
  1400.03211400.03901400.03901400.08061405.93991405.98981405.99721405.9972
  1405.99761405.99761406.36351406.39081406.39321406.39321406.39491406.3949
  1408.66541408.66541408.66541408.66541420.27901420.36541420.66381420.6638
  1420.67131420.67131421.00681421.00681421.03791421.05561421.05561421.0885
  1421.41611421.42531421.42531421.43511421.43511421.43671422.29961422.3726
  1422.37301422.37301422.37521422.37521423.82621423.82621423.82771423.8277
  1424.28791424.28871424.91341424.94551425.34001425.34001425.34201425.3420
  1426.03301426.03301426.04651426.05541426.05541426.06681426.62501426.6250
  1426.63701426.63701426.63861426.66411427.03181427.03181427.04051427.0405
  1427.04961427.06691427.47821427.47821427.47861427.47861427.67431427.6744
  1441.48711441.48711441.49941441.53851441.55031441.55031441.59061441.5906
  1441.60481441.61761441.61761441.63821443.80971443.81061443.81651443.8165
  1443.83081443.83081453.65171453.65171453.70171453.70171453.70361453.7685
  1455.58181455.68041455.68041455.69251455.71941455.71941458.23451458.2345
  1458.23921458.23921458.30511458.31191458.62661458.77701458.82251458.8225
  1458.82461458.82461459.78711459.80721459.80721459.86091459.86091459.9310
  1460.29911460.34371460.34371460.41841460.41841460.46381460.81061460.8624
  1460.86241460.93391460.93391460.96631461.89641461.89641461.91171461.9117
  1461.93391461.95641477.11671477.11671477.13181477.15581477.15581477.2024
  1477.36631477.36631477.37221477.37531477.37531477.37781477.69711477.7394

          k = 0.0000-1.0000 0.0000 (  4360 PWs)   bands (ev):

   -40.2660 -18.5149  -2.1933  -0.3142  -0.3142  15.0603  16.9889  17.6357
    20.3988  20.3988  33.0697  38.3012  39.6141  41.3890  41.3890  43.6385
    43.7020  43.7020  48.9696  48.9696  52.9584  53.3303  57.5757  57.5757
    59.6961  60.2664  69.8201  71.4285  73.0471  73.0471  75.0427  77.8174
    77.8174  78.1652  78.5262  79.2994  85.1351  87.3948  87.3948  87.7031
    88.4623  98.0063  98.0063  99.2757 107.4966 107.4966 108.3062 110.0646
   111.8845 111.8845 112.2472 112.9488 114.7839 114.7839 117.4979 118.5686
   120.3977 122.0457 123.3719 123.3719 123.8426 123.8426 124.6840 124.7304
   127.1883 127.1883 130.1935 132.4207 138.4155 143.5890 145.0339 145.0754
   145.0754 146.0973 146.2642 146.2642 146.3923 147.0219 150.1040 150.4658
   150.4658 150.5267 150.5267 150.6822 153.1502 154.6603 156.8545 156.8545
   156.8579 156.8579 161.5705 161.6110 166.9826 166.9826 171.5198 173.3579
   177.2823 180.0520 180.8863 180.8863 182.2179 184.4931 184.4931 185.1322
   185.3840 185.3840 187.0478 187.3712 187.3712 187.6132 187.9451 188.0072
   190.5603 191.4636 191.4636 191.8445 195.6757 203.3636 203.3636 204.5318
   214.1603 214.1603 214.2420 215.2044 216.4399 217.0254 217.0254 217.0265
   218.2488 219.4973 220.3363 222.2177 222.2177 222.7578 222.7578 223.3028
   225.8275 226.4594 229.4437 229.8359 230.6662 230.6662 231.0482 231.2685
   231.8862 231.8862 232.0798 232.0798 232.8930 232.9427 239.0485 241.2210
   241.2210 244.0802 249.4313 249.4313 250.6435 251.7032 252.3481 252.3960
   253.8883 253.8883 254.7430 255.1420 255.1420 255.3191 255.3373 255.3373
   256.6181 256.6181 257.0833 257.2603 257.2620 257.2620 257.9660 258.2061
   258.2330 259.2951 259.8733 259.8733 260.1750 261.5825 266.5622 266.8081
   266.8081 267.5534 267.6334 267.8498 267.8498 268.0710 276.6018 276.6018
   282.1602 282.4397 282.7189 287.7356 289.6790 289.6790 290.2122 290.2122
   291.3055 291.4309 292.0098 292.0098 293.9108 294.5532 294.5859 294.5859
   294.8605 295.1039 295.9775 298.8031 298.8031 299.0024 299.1091 299.5578
   299.5578 299.8249 300.8171 300.8171 300.9692 301.1602 309.8859 309.8859
   312.4742 312.8507 316.5283 324.3306 327.6988 327.6988 328.8140 330.0156
   330.0156 330.1468 332.0982 332.2169 332.3086 333.4565 333.4565 333.7066
   336.6145 336.6145 336.9395 336.9395 337.0501 337.2745 337.2745 337.4683
   337.7359 337.9250 337.9250 338.0955 341.9534 341.9620 344.7384 346.1756
   346.1756 352.1481 356.0199 356.4109 356.7762 356.7762 357.8730 357.8730
   358.8043 358.8986 358.8986 359.0962 359.6409 360.3913 361.2406 362.3071
   362.4090 362.4090 363.3101 363.4033 363.4033 363.7407 363.9094 364.8429
   364.8429 366.4936 366.5089 366.5089 366.8944 366.9355 366.9355 366.9706
   367.1113 367.3297 367.3317 367.3317 367.4555 369.6456 375.4034 375.4136
   375.5992 375.5992 375.6666 375.6666 375.9456 375.9574 385.6404 390.2877
   390.2877 391.3421 394.1318 394.1318 395.1732 396.2948 396.2964 396.3974
   396.5014 397.7640 397.8827 397.8827 398.1173 398.1173 399.4006 400.9481
   400.9481 401.1196 401.1196 401.3072 401.3121 401.4397 401.4726 401.6754
   402.0679 402.0679 402.7436 402.7436 406.6480 406.6631 410.4496 410.4547
   412.3995 412.3995 412.4722 412.4722 413.4043 413.4151 417.7835 417.7835
   425.1207 426.3324 431.7135 431.8965 431.9591 432.4694 433.0195 433.0195
   433.5120 433.5120 434.2392 434.2505 434.2964 434.2964 435.0266 435.0266
   435.0584 435.3801 435.6967 437.3363 438.2662 438.5482 438.5482 438.5770
   440.4829 440.4829 440.6557 440.7963 442.7096 442.7409 442.7409 442.8173
   445.8800 445.8863 445.9451 445.9451 445.9998 445.9998 446.1074 446.1316
   447.7430 447.7436 447.7449 447.7449 457.3940 457.3940 458.7563 460.6135
   460.6568 463.2504 469.0020 469.0020 469.3430 469.6293 469.7741 469.7741
   469.9472 469.9472 471.2772 471.2772 472.4748 473.3454 473.3454 473.3867
   474.2487 474.2951 474.3257 474.5946 474.6881 475.4031 475.4961 475.4961
   476.0599 476.1477 476.1477 476.2374 477.5854 478.4664 478.4664 478.8522
   479.1367 479.4148 479.4148 479.5318 479.6978 479.6978 479.8347 479.8601
   480.6819 480.8227 480.8227 480.9022 483.6833 483.7953 483.7953 483.8997
   484.3776 484.3908 484.3949 484.3949 499.0778 502.1887 502.1887 503.5479
   504.4361 504.4361 504.9470 505.0261 507.5648 507.5910 508.1607 508.1607
   508.2306 508.2306 508.8871 508.9078 512.4843 512.4843 514.4574 514.6954
   514.7747 514.7747 514.8197 514.9036 529.2475 530.1177 530.1177 536.8061
   537.0820 537.0820 537.7415 537.7648 539.1650 539.5782 539.9025 539.9025
   540.1640 540.5658 540.5658 540.8539 543.0399 544.4041 544.4041 544.5633
   544.6755 544.8498 544.8498 544.8900 544.9200 545.0233 545.0233 545.2004
   546.6359 546.6359 547.1079 547.1858 550.0265 550.0265 550.8469 551.2230
   551.6172 551.7533 551.7533 551.9614 552.0772 552.2543 552.2708 552.2708
   552.6530 552.7224 552.7224 552.8365 555.7471 555.7982 556.0316 556.0316
   556.0537 556.0537 556.3181 556.3458 565.3537 565.3537 566.7657 567.7816
   568.8761 572.4751 572.4939 574.3802 574.6332 574.6332 575.2487 575.2487
   576.0435 576.4079 578.8292 578.8513 578.8796 579.0995 579.0995 579.2559
   579.2559 579.4727 579.4727 579.4783 579.4783 579.5908 579.6670 579.7537
   579.8864 580.2080 581.9315 581.9315 582.5775 582.6238 582.8768 582.8768
   582.9302 582.9869 583.6268 583.6754 583.6754 583.7675 586.7224 586.7224
   586.8129 586.9251 587.2706 587.2706 587.3298 587.4134 589.5598 589.5598
   589.5952 589.5952 592.4269 592.4534 592.4723 592.4723 592.4731 592.4808
   592.4808 592.5134 594.5067 594.5077 606.7737 606.7737 608.6963 608.9339
   609.3988 610.4968 610.5520 610.5520 610.8289 611.5915 611.5915 611.6348
   611.9612 611.9612 612.5134 612.5149 616.9946 616.9955 617.5311 617.5311
   617.5437 617.5437 618.0069 618.0405 618.7499 618.8754 618.8754 618.9033
   619.1639 619.5634 619.5879 619.5879 619.6224 620.4718 620.4718 620.6067
   621.4658 621.4658 621.5983 621.6152 626.3185 626.3185 626.3244 626.3394
   626.3684 626.3684 626.4276 626.4620 639.8433 639.8433 642.4232 642.8071
   647.5729 648.9394 648.9394 649.1859 649.2432 649.6694 649.6765 649.6765
   649.7233 650.7201 652.5081 652.5081 654.2894 654.2894 654.3274 654.3700
   654.3700 655.0460 655.0835 655.1141 655.1141 655.2109 658.6749 658.7835
   658.8242 659.0221 659.0221 659.2644 659.2881 659.2881 659.3431 659.3662
   659.8484 659.9384 659.9384 659.9675 659.9675 660.0791 660.1078 660.1353
   662.2109 662.2109 662.2249 662.2303 663.0130 663.0260 665.0028 665.0028
   665.0084 665.0084 665.9454 665.9456 679.5831 679.5831 680.0947 681.5443
   682.3006 682.3221 682.3221 682.3840 685.6536 685.7500 685.7500 686.0590
   686.4411 686.4411 686.5833 687.1125 687.2292 687.5995 687.7514 687.7514
   688.1586 688.1586 688.1829 688.4549 690.0423 690.0462 690.1374 690.1374
   690.1663 690.1663 690.2251 690.2887 692.0484 692.0484 692.8837 693.1534
   694.4685 694.5918 694.6319 694.6319 698.1493 698.1493 698.1927 698.2351
   698.9407 698.9407 698.9524 698.9536 714.8949 714.8949 715.0964 716.1849
   716.6025 717.7345 717.9289 718.0060 718.0060 718.4657 720.8892 720.8892
   721.8156 721.8832 722.0497 722.0497 722.2047 722.2047 722.2998 722.5260
   722.6907 722.8204 722.9579 722.9583 722.9583 723.0285 724.4130 724.4415
   724.4415 724.5426 727.7149 727.7149 727.7159 727.7339 728.0557 728.0639
   728.0676 728.0676 730.3347 731.5494 731.8333 731.8333 732.0603 732.0603
   732.3637 732.4069 736.1192 736.1347 736.1347 736.1779 748.8642 751.4557
   752.7475 752.7475 754.0720 754.0720 754.1753 754.2349 754.3177 755.1944
   758.5975 758.5975 758.9679 758.9679 760.1028 760.1028 760.5280 760.9225
   761.4631 762.0232 762.0232 762.0786 763.0989 763.1119 764.0932 764.2178
   764.2178 764.4531 764.9006 765.1060 765.1060 765.2407 766.7728 766.7870
   767.1399 767.1399 767.3571 767.3571 767.6575 767.8496 771.9572 771.9963
   771.9963 772.0429 772.3754 772.4562 772.4562 772.5265 772.7237 772.7673
   772.7673 772.7861 773.0516 773.0848 773.0848 773.1278 788.7027 788.9609
   788.9609 790.3284 790.8393 790.8393 791.1428 791.1478 793.1371 793.4462
   793.4850 793.4850 793.4969 793.5079 794.0211 794.0211 794.1169 794.1169
   794.2846 794.2846 794.3371 794.7336 795.1143 795.1965 795.2266 795.2593
   795.3495 795.4595 795.5532 795.5532 795.8320 795.8320 796.2182 796.2182
   796.3045 796.3202 796.3202 796.3748 796.4549 796.5762 796.6192 796.6725
   796.9354 796.9354 796.9577 796.9577 797.2188 797.2412 798.3541 799.2201
   799.2201 799.4392 799.9200 799.9200 800.2392 800.2965 800.5058 800.5058
   801.1404 801.1908 801.7145 801.8425 801.8677 801.8677 803.0592 803.0592
   803.0973 803.1945 803.6931 803.7122 803.7122 803.7325 806.6369 806.6632
   806.6632 806.7036 806.8511 806.8511 806.8579 806.8775 808.6002 808.6071
   808.8181 808.8181 808.8352 808.8352 809.0517 809.0596 830.3287 830.3287
   830.3686 830.6934 830.7535 830.7535 830.8134 830.8512 831.8343 831.8431
   831.8679 831.8679 831.8832 831.8832 831.9641 831.9772 838.0453 838.0453
   838.8545 838.9858 839.2940 839.4260 839.6000 839.6000 839.6175 839.6175
   839.6936 839.8478 839.8913 840.1721 840.1721 840.3436 840.6486 840.7207
   840.7207 840.7735 841.1097 841.1933 841.1933 841.2991 841.3265 841.4344
   841.4344 841.5019 841.5932 841.6740 841.6740 841.7499 863.4516 864.5489
   865.2192 865.2192 865.6165 865.6165 866.2125 866.2432 866.2432 866.3605
   866.3753 866.3864 866.5031 866.5031 866.7793 866.7902 870.7869 870.7869
   871.0848 871.2883 871.3120 871.3862 871.3862 871.4223 872.7599 873.1224
   873.1224 873.2925 873.2948 873.4617 873.4617 873.5160 873.5726 873.5933
   873.5933 873.6052 878.8987 878.9057 878.9449 878.9449 878.9608 878.9608
   879.0362 879.0490 880.9582 880.9626 880.9871 880.9871 880.9887 880.9887
   881.0164 881.0345 890.9510 890.9510 892.1398 892.9020 893.4881 893.9699
   893.9699 894.2924 895.6294 896.2204 897.4678 898.2947 898.2947 898.5858
   898.5858 898.7467 898.7538 898.7608 902.1570 902.2314 902.2314 902.3365
   903.2404 903.2771 903.2771 903.2881 903.2909 903.2909 903.6667 903.6913
   904.9393 904.9728 905.2254 905.2254 905.2307 905.2307 905.4280 905.4396
   906.2295 906.2627 906.2670 906.2670 906.5788 906.6152 906.8947 906.8947
   906.9085 906.9085 907.2281 907.2297 907.4926 907.4997 907.4997 907.5132
   908.9742 908.9846 908.9846 908.9989 911.7031 911.7031 912.0154 912.0347
   913.4216 913.4468 913.4569 913.4569 914.3180 914.3180 914.3209 914.3209
   919.2618 919.2652 933.1920 933.1920 933.6121 933.6913 934.9579 934.9791
   934.9791 935.0425 938.0300 938.3155 938.3155 938.3984 938.5979 938.5979
   938.6887 938.7962 938.8346 938.9447 938.9447 939.0772 939.2321 939.2892
   939.2892 939.3948 943.6258 943.6618 943.6618 943.6963 944.3613 944.3681
   944.3681 944.3685 945.5752 945.5752 946.2379 946.3220 946.5139 946.5139
   946.5153 946.5390 948.0707 948.3324 948.3324 948.4430 948.6036 948.7155
   948.7155 948.7432 949.2994 949.3090 949.3090 949.4632 949.4769 949.5606
   949.5606 949.6121 972.2114 972.2114 972.4503 972.4750 972.6095 972.7040
   972.7040 972.7154 973.9787 974.3763 974.3763 974.4722 974.4741 974.4860
   974.4860 974.5224 974.5255 974.7471 977.7688 977.7726 977.7726 977.7955
   978.0143 978.0256 978.0256 978.0543 978.3731 978.3731 978.4909 978.4909
   980.3381 980.3381 980.4236 980.6255 980.6720 980.6819 980.7504 980.7504
   983.3769 983.4092 984.5727 984.5727 984.6906 984.6913 984.7968 984.8314
   984.8314 984.9114 985.6857 985.7011 985.7038 985.7038 985.7186 985.7267
   985.7267 985.7570 987.1739 987.1739 987.1748 987.1972 987.2036 987.2588
   987.2588 987.3337 987.6359 987.6476 989.7061 989.7061 989.7131 989.7131
   990.6715 990.67381006.08451006.43271006.43271006.49901006.63261006.6326
  1006.82941006.85711010.82811010.84771010.84771010.88401010.90301010.9330
  1010.94741010.94741011.27931011.27931011.29641011.53191011.66811011.6950
  1011.74591011.74591012.09631012.09931012.09931012.12111012.49911012.5328
  1012.53301012.53301015.10541015.51081015.51081015.57831015.76981015.7698
  1015.79591015.81701020.32281020.34021020.45821020.45821020.56101020.5610
  1020.59251020.62611020.97611021.04351021.13461021.13461021.17921021.1792
  1021.30691021.32201025.10981025.12611025.19041025.19041025.19311025.1931
  1025.23981025.24531042.32841042.32841042.50301042.56081042.60861042.6204
  1042.62041042.66281043.85531044.18451044.18451044.21561044.29021044.2902
  1044.30771044.33091048.08691048.10351048.13651048.13651048.16401048.1640
  1048.24421048.25271048.47331048.48821048.54241048.54241048.55531048.5553
  1048.62641048.62741052.12751052.12751052.15501052.24941052.24941052.2916
  1052.30991052.31661052.34611052.34611052.35061052.36501052.39091052.4299
  1052.42991052.45451056.22951056.36411056.69911056.69911056.72021056.7202
  1056.95121056.95951061.31031061.31421061.33781061.33781061.34601061.3460
  1061.37801061.39151078.70001078.91261081.45961081.55891081.55891081.5998
  1081.63821081.63821081.79741081.79941082.58621082.58621082.77541082.8145
  1083.60321083.61841083.88621083.88621083.89941083.89941084.31351084.3291
  1084.70951084.70951084.88791084.88791084.88901084.88901085.00491085.0097
  1091.25301091.25671091.25671091.39361091.39571091.46541091.47281091.4728
  1091.98421092.01061092.01061092.05791092.05791092.07321092.07651092.1065
  1092.98301093.06801093.14131093.14131093.15831093.15831093.16811093.2360
  1093.52081093.55301093.56231093.56231093.63121093.63121093.65311093.7451
  1096.89581096.94271096.94271097.00181112.67521112.78681115.12231115.1223
  1115.14861115.20611115.53701115.53701115.72111115.90651116.71571116.7380
  1117.30801117.30801117.38681117.38681118.09921118.13311118.71271119.0669
  1119.23361119.23361119.24021119.24021119.55141119.55141119.76561119.7656
  1120.28411120.42471120.60171120.86631120.96871120.96871121.13601121.1541
  1121.15411121.28691122.93251122.94021122.94021122.98451122.99081123.0194
  1123.01941123.05311123.26181123.39341123.44081123.44411123.48241123.4824
  1123.55341123.68201123.84291123.84291123.88431123.88431124.43081124.4456
  1124.90591124.94561124.99141124.99141129.00871129.00971129.00971129.0418
  1129.05391129.05461129.08781129.08781129.09161129.09161129.09781129.1123
  1129.12381129.12381129.12981129.17791133.03731133.06421133.06421133.1119
  1133.25761133.25911133.50621133.50621133.51531133.51531133.74491133.7486
  1133.76271133.78971133.78971133.83721147.57191147.57191147.58551147.5963
  1154.08071154.12551154.20761154.20761154.33041154.33041154.54241154.5690
  1154.60951154.62281154.87831154.87831154.91581154.91581155.04651155.0648
  1155.36911155.42041156.38841156.38841156.40751156.40751157.23661157.2593
  1157.41801157.41801157.42761157.43211157.43211157.44811157.57171157.5969
  1157.96441157.98711158.04421158.04421158.07641158.07641158.13231158.1748
  1160.38811160.39841160.39841160.40151160.40841160.40841160.46711160.5478
  1163.50421163.50421163.51451163.54981164.38261164.38841164.38841164.3956
  1167.14621167.14621167.14691167.15941188.43001188.50021188.51731188.5176
  1188.51761188.52041188.52041188.54221194.43461194.44621194.49281194.4928
  1194.49641194.49641194.56821194.57371196.87651196.87651196.90481197.0088
  1197.83591198.01931198.01931198.03391198.37691198.47451198.63331198.6333
  1198.73411198.73411198.75951198.85901200.12871200.21461200.21461200.4678
  1200.51551200.64991200.64991200.68491201.04711201.09931201.14131201.1413
  1201.15931201.15931201.18101201.27411201.31441201.47901201.47901201.7631
  1201.79541202.04641202.04641202.15261203.54961203.57431203.57431203.6081
  1203.70461203.70581203.76921203.76921203.78181203.78181203.86981203.8955
  1204.14791204.16281204.16281204.18591221.09691221.10411221.10411221.2124
  1223.14251223.14251223.15501223.16321225.77651225.83781226.73641226.7364
  1226.75931226.75931227.52611227.55011227.55851227.55851227.56501227.5832
  1229.30591229.31051229.31051229.31231231.83441231.83471231.83471231.8735
  1231.88211231.89851231.91761231.91761232.77181232.78181232.78181232.7956
  1233.15911233.16371233.16371233.16611234.33871234.34961234.35601234.3560
  1234.35931234.36041234.40741234.40741239.51021239.51021239.51901239.5200
  1239.52011239.52261239.52261239.54001241.71161241.72561241.75191241.7519
  1241.76411241.76411241.80481241.81281261.27101261.32281261.89951261.8995
  1261.91891261.91891262.52241262.55601263.21171263.21171263.21211263.2361
  1263.27171263.27171263.32201263.32341263.33861263.36141263.37941263.3794
  1263.39761263.39761263.42081263.43761266.49631266.51051267.07341267.0734
  1267.08211267.08211267.57501267.57791272.80671272.82611272.84811272.8481
  1272.90061272.90061272.91751272.94341273.45471273.46091273.46351273.4635
  1273.47171273.47171273.47731273.51641290.11131290.11131290.19811290.2671
  1293.35041293.49451295.56381295.60921295.60921295.61241295.63951295.6521
  1295.65211295.75011299.07681299.07681299.08541299.18311299.53011299.5393
  1299.54971299.54971300.01751300.03731300.03731300.07391300.48111300.4814
  1300.48141300.49571304.08671304.18621304.21961304.21961304.25591304.2559
  1304.25661304.28741304.39181304.40391304.40391304.41851305.87831305.8783
  1305.88381305.91891306.81851306.85341306.85341306.92451306.98161306.9852
  1306.99641306.99641308.18841308.23091308.23091308.25471309.05971309.1045
  1309.10451309.19771309.46391309.52811309.52811309.57991310.19381310.1993
  1310.19931310.20521310.23301310.23301310.23571310.26751311.13281311.1328
  1311.14041311.14041312.20301312.21091312.21091312.22571312.25711312.2701
  1312.27011312.28871313.69221313.70411313.72901313.72901313.73331313.7333
  1313.76661313.77021316.15661316.15701330.74691330.77271330.77271330.9397
  1331.23531331.33631331.56361331.56361331.62961331.62961332.03231332.0477
  1332.29761332.33431332.33831332.33831332.78521332.82501333.33031333.3303
  1333.34281333.34281333.73401333.77041336.55851336.56561336.78011336.7801
  1336.78031336.78031336.97851337.01571337.02341337.04131337.07311337.0731
  1337.10491337.10491337.12491337.15691338.96561339.01271339.03781339.0378
  1339.06411339.06411339.12041339.12721340.42641340.44411340.47001340.4700
  1340.49411340.49581340.74911340.74911340.77741340.77741340.98791340.9974
  1341.20081341.21061341.21061341.22111344.54431344.54801344.99731344.9973
  1345.00001345.00001345.33431345.34991345.36101345.36101345.36511345.3784
  1345.40201345.40201345.40731345.41271346.41131346.41851346.42161346.4216
  1346.47781346.48161346.48161346.49341350.09291350.10441350.13291350.1329
  1350.14521350.14521350.15261350.16451369.98731370.10571370.41041370.4104
  1370.45771370.45771370.52151370.53621370.58391370.61951370.61951370.6447
  1370.65021370.68001370.68001370.74161371.90351371.91801372.37871372.3787
  1372.40601372.40601372.41251372.41391372.47921372.51991372.66271372.6627
  1372.66761372.67651372.70001372.70001372.70571372.70771372.97661373.0053
  1373.01421373.01421373.03871373.05071373.05071373.07001373.88441373.8844
  1373.89891373.89891374.15861374.16561374.29551374.31901375.93071375.9307
  1375.97831375.97831380.37621380.37961381.28421381.32451381.36301381.3630
  1381.41271381.41271381.45661381.46801381.54321381.57141381.59091381.5909
  1381.59281381.60591381.61031381.61031384.60231384.60691386.62201386.6220
  1386.62321386.62321387.57341387.57421407.00781407.03361407.04861407.0486
  1407.06571407.06571407.07911407.09141407.72261407.72261407.74481407.8049
  1408.08221408.11181408.11181408.14851408.91291408.92681408.93431408.9343
  1409.35331409.37411409.37411409.37821412.34921412.38201412.38201412.3997
  1412.40591412.42261412.42261412.42641417.12501417.14671417.19161417.1916
  1417.20581417.20771417.21481417.21481417.76441417.76451417.82311417.8231
  1417.82491417.82491417.92151417.92721422.09021422.10101422.12841422.1284
  1422.13701422.13701422.18121422.18391438.89441438.89441438.93921438.9748
  1439.10881439.11531439.11531439.14851441.97711442.14071442.18471442.1847
  1442.21821442.21821442.24691442.38871442.91231442.97231442.98931442.9893
  1443.08741443.08741443.12231443.25871443.44951443.61431443.61431443.6248
  1443.74861443.74861443.76811443.88521444.13921444.30561444.30561444.3561
  1444.48961444.49201444.49201444.64831445.88331445.91231446.04361446.0436
  1446.06871446.06871446.31871446.34211446.50421446.51881446.74591446.7459
  1446.75281446.75281446.85501446.85561449.27301449.28161449.28161449.2857
  1449.30651449.30811449.30811449.31271450.24011450.24011450.26091450.2763
  1452.52631452.56381452.57161452.57161452.58441452.60541452.60541452.6057
  1453.33081453.36221453.52961453.53131453.53131453.55411453.60731453.6250
  1453.62501453.63861453.63861453.64891453.66411453.66411453.73381453.7450
  1453.77461453.77461453.78511453.82941453.83661453.83661453.91591453.9332

     the Fermi energy is     7.0535 ev
     (compare with:     3.9151 eV, computed in scf)

     Writing all to output data dir out/mp-1138.save/
 
     init_run     :      0.07s CPU      0.08s WALL (       1 calls)
     electrons    :   1556.14s CPU   1670.16s WALL (       1 calls)

     Called by init_run:
     wfcinit      :      0.00s CPU      0.00s WALL (       1 calls)
     potinit      :      0.01s CPU      0.02s WALL (       1 calls)
     hinit0       :      0.01s CPU      0.02s WALL (       1 calls)

     Called by electrons:
     c_bands      :   1556.14s CPU   1670.16s WALL (       1 calls)
     v_of_rho     :      0.01s CPU      0.01s WALL (       1 calls)

     Called by c_bands:
     init_us_2    :      0.00s CPU      0.00s WALL (       3 calls)
     init_us_2:cp :      0.00s CPU      0.00s WALL (       3 calls)
     paro_k       :   1503.71s CPU   1613.60s WALL (       3 calls)

     Called by paro_*:
     h_psi        :     12.05s CPU     12.41s WALL (     464 calls)
     g_psi        :      0.20s CPU      0.23s WALL (   49723 calls)

     Called by h_psi:
     h_psi:calbec :      0.16s CPU      0.17s WALL (     464 calls)
     vloc_psi     :     11.71s CPU     12.06s WALL (     464 calls)
     add_vuspsi   :      0.11s CPU      0.11s WALL (     464 calls)

     General routines
     calbec       :      0.16s CPU      0.16s WALL (     464 calls)
     fft          :      0.01s CPU      0.01s WALL (      10 calls)
     fftw         :     10.65s CPU     10.95s WALL (   81612 calls)
 
     Parallel routines
 
     PWSCF        :  25m56.91s CPU  27m51.31s WALL

 
   This run was terminated on:  16:29:58  14Nov2023            

=------------------------------------------------------------------------------=
   JOB DONE.
=------------------------------------------------------------------------------=
