
     Program PWSCF v.7.1 starts on 15Nov2023 at  1:46:47 

     This program is part of the open-source Quantum ESPRESSO suite
     for quantum simulation of materials; please cite
         "P. Giannozzi et al., J. Phys.:Condens. Matter 21 395502 (2009);
         "P. Giannozzi et al., J. Phys.:Condens. Matter 29 465901 (2017);
         "P. Giannozzi et al., J. Chem. Phys. 152 154105 (2020);
          URL http://www.quantum-espresso.org", 
     in publications or presentations arising from this work. More details at
     http://www.quantum-espresso.org/quote

     Parallel version (MPI), running on    24 processors

     MPI processes distributed on     1 nodes
     122963 MiB available memory on the printing compute node when the environment starts
 
     Reading input from pw_mp-1138_scf_k3000_E199.in
Warning: card &CELL ignored
Warning: card / ignored

     Current dimensions of program PWSCF are:
     Max number of different atomic species (ntypx) = 10
     Max number of k-points (npk) =  40000
     Max angular momentum in pseudopotentials (lmaxx) =  4
 
     R & G space division:  proc/nbgrp/npool/nimage =      24
     Subspace diagonalization in iterative solution of the eigenvalue problem:
     a serial algorithm will be used

 
     Parallelization info
     --------------------
     sticks:   dense  smooth     PW     G-vecs:    dense   smooth      PW
     Min          68      68     19                 1818     1818     283
     Max          69      69     20                 1821     1821     287
     Sum        1639    1639    475                43655    43655    6855
 
     Using Slab Decomposition
 


     bravais-lattice index     =            2
     lattice parameter (alat)  =       7.7166  a.u.
     unit-cell volume          =     114.8711 (a.u.)^3
     number of atoms/cell      =            2
     number of atomic types    =            2
     number of electrons       =        10.00
     number of Kohn-Sham states=           10
     kinetic-energy cutoff     =     199.0000  Ry
     charge density cutoff     =     796.0000  Ry
     scf convergence threshold =      1.0E-10
     mixing beta               =       0.7000
     number of iterations used =            8  plain     mixing
     Exchange-correlation= PBE
                           (   1   4   3   4   0   0   0)

     celldm(1)=   7.716558  celldm(2)=   0.000000  celldm(3)=   0.000000
     celldm(4)=   0.000000  celldm(5)=   0.000000  celldm(6)=   0.000000

     crystal axes: (cart. coord. in units of alat)
               a(1) = (  -0.500000   0.000000   0.500000 )  
               a(2) = (   0.000000   0.500000   0.500000 )  
               a(3) = (  -0.500000   0.500000   0.000000 )  

     reciprocal axes: (cart. coord. in units 2 pi/alat)
               b(1) = ( -1.000000 -1.000000  1.000000 )  
               b(2) = (  1.000000  1.000000  1.000000 )  
               b(3) = ( -1.000000  1.000000 -1.000000 )  


     PseudoPot. # 1 for F  read from file:
     /usr/scratch4/magr4985/MG/HTDF/pseudo/SG15/F.upf
     MD5 check sum: 1d8275f47d602dd53cad6bcdc0eda7dc
     Pseudo is Norm-conserving, Zval =  7.0
     Generated using ONCVPSP code by D. R. Hamann
     Using radial grid of  602 points,  4 beta functions with: 
                l(1) =   0
                l(2) =   0
                l(3) =   1
                l(4) =   1

     PseudoPot. # 2 for Li read from file:
     /usr/scratch4/magr4985/MG/HTDF/pseudo/SG15/Li.upf
     MD5 check sum: c91dd4cee9943b136ac3b62641658f95
     Pseudo is Norm-conserving, Zval =  3.0
     Generated using ONCVPSP code by D. R. Hamann
     Using radial grid of  602 points,  4 beta functions with: 
                l(1) =   0
                l(2) =   0
                l(3) =   1
                l(4) =   1

     atomic species   valence    mass     pseudopotential
        F              7.00    18.99840     F ( 1.00)
        Li             3.00     6.94100     Li( 1.00)

     48 Sym. Ops., with inversion, found



   Cartesian axes

     site n.     atom                  positions (alat units)
         1           Li  tau(   1) = (   0.0000000   0.0000000   0.0000000  )
         2           F   tau(   2) = (  -0.5000000   0.5000000   0.5000000  )

     number of k points=    72  Gaussian smearing, width (Ry)=  0.0005
                       cart. coord. in units 2pi/alat
        k(    1) = (   0.0000000   0.0000000   0.0000000), wk =   0.0011574
        k(    2) = (  -0.0833333   0.0833333  -0.0833333), wk =   0.0092593
        k(    3) = (  -0.1666667   0.1666667  -0.1666667), wk =   0.0092593
        k(    4) = (  -0.2500000   0.2500000  -0.2500000), wk =   0.0092593
        k(    5) = (  -0.3333333   0.3333333  -0.3333333), wk =   0.0092593
        k(    6) = (  -0.4166667   0.4166667  -0.4166667), wk =   0.0092593
        k(    7) = (   0.5000000  -0.5000000   0.5000000), wk =   0.0046296
        k(    8) = (   0.0000000   0.1666667   0.0000000), wk =   0.0069444
        k(    9) = (  -0.0833333   0.2500000  -0.0833333), wk =   0.0277778
        k(   10) = (  -0.1666667   0.3333333  -0.1666667), wk =   0.0277778
        k(   11) = (  -0.2500000   0.4166667  -0.2500000), wk =   0.0277778
        k(   12) = (  -0.3333333   0.5000000  -0.3333333), wk =   0.0277778
        k(   13) = (   0.5833333  -0.4166667   0.5833333), wk =   0.0277778
        k(   14) = (   0.5000000  -0.3333333   0.5000000), wk =   0.0277778
        k(   15) = (   0.4166667  -0.2500000   0.4166667), wk =   0.0277778
        k(   16) = (   0.3333333  -0.1666667   0.3333333), wk =   0.0277778
        k(   17) = (   0.2500000  -0.0833333   0.2500000), wk =   0.0277778
        k(   18) = (   0.1666667  -0.0000000   0.1666667), wk =   0.0138889
        k(   19) = (   0.0000000   0.3333333   0.0000000), wk =   0.0069444
        k(   20) = (  -0.0833333   0.4166667  -0.0833333), wk =   0.0277778
        k(   21) = (  -0.1666667   0.5000000  -0.1666667), wk =   0.0277778
        k(   22) = (  -0.2500000   0.5833333  -0.2500000), wk =   0.0277778
        k(   23) = (   0.6666667  -0.3333333   0.6666667), wk =   0.0277778
        k(   24) = (   0.5833333  -0.2500000   0.5833333), wk =   0.0277778
        k(   25) = (   0.5000000  -0.1666667   0.5000000), wk =   0.0277778
        k(   26) = (   0.4166667  -0.0833333   0.4166667), wk =   0.0277778
        k(   27) = (   0.3333333   0.0000000   0.3333333), wk =   0.0138889
        k(   28) = (   0.0000000   0.5000000   0.0000000), wk =   0.0069444
        k(   29) = (  -0.0833333   0.5833333  -0.0833333), wk =   0.0277778
        k(   30) = (  -0.1666667   0.6666667  -0.1666667), wk =   0.0277778
        k(   31) = (   0.7500000  -0.2500000   0.7500000), wk =   0.0277778
        k(   32) = (   0.6666667  -0.1666667   0.6666667), wk =   0.0277778
        k(   33) = (   0.5833333  -0.0833333   0.5833333), wk =   0.0277778
        k(   34) = (   0.5000000   0.0000000   0.5000000), wk =   0.0138889
        k(   35) = (   0.0000000   0.6666667   0.0000000), wk =   0.0069444
        k(   36) = (  -0.0833333   0.7500000  -0.0833333), wk =   0.0277778
        k(   37) = (   0.8333333  -0.1666667   0.8333333), wk =   0.0277778
        k(   38) = (   0.7500000  -0.0833333   0.7500000), wk =   0.0277778
        k(   39) = (   0.6666667  -0.0000000   0.6666667), wk =   0.0138889
        k(   40) = (   0.0000000   0.8333333   0.0000000), wk =   0.0069444
        k(   41) = (   0.9166667  -0.0833333   0.9166667), wk =   0.0277778
        k(   42) = (   0.8333333   0.0000000   0.8333333), wk =   0.0138889
        k(   43) = (   0.0000000  -1.0000000   0.0000000), wk =   0.0034722
        k(   44) = (  -0.1666667   0.3333333   0.0000000), wk =   0.0277778
        k(   45) = (  -0.2500000   0.4166667  -0.0833333), wk =   0.0555556
        k(   46) = (  -0.3333333   0.5000000  -0.1666667), wk =   0.0555556
        k(   47) = (   0.5833333  -0.4166667   0.7500000), wk =   0.0555556
        k(   48) = (   0.5000000  -0.3333333   0.6666667), wk =   0.0277778
        k(   49) = (  -0.1666667   0.5000000   0.0000000), wk =   0.0277778
        k(   50) = (  -0.2500000   0.5833333  -0.0833333), wk =   0.0555556
        k(   51) = (   0.6666667  -0.3333333   0.8333333), wk =   0.0555556
        k(   52) = (   0.5833333  -0.2500000   0.7500000), wk =   0.0555556
        k(   53) = (   0.5000000  -0.1666667   0.6666667), wk =   0.0555556
        k(   54) = (   0.4166667  -0.0833333   0.5833333), wk =   0.0555556
        k(   55) = (   0.3333333   0.0000000   0.5000000), wk =   0.0277778
        k(   56) = (  -0.1666667   0.6666667  -0.0000000), wk =   0.0277778
        k(   57) = (   0.7500000  -0.2500000   0.9166667), wk =   0.0555556
        k(   58) = (   0.6666667  -0.1666667   0.8333333), wk =   0.0555556
        k(   59) = (   0.5833333  -0.0833333   0.7500000), wk =   0.0555556
        k(   60) = (   0.5000000   0.0000000   0.6666667), wk =   0.0277778
        k(   61) = (   0.8333333  -0.1666667   1.0000000), wk =   0.0277778
        k(   62) = (   0.7500000  -0.0833333   0.9166667), wk =   0.0555556
        k(   63) = (   0.6666667   0.0000000   0.8333333), wk =   0.0277778
        k(   64) = (  -0.1666667  -1.0000000  -0.0000000), wk =   0.0138889
        k(   65) = (   0.6666667  -0.3333333   1.0000000), wk =   0.0277778
        k(   66) = (   0.5833333  -0.2500000   0.9166667), wk =   0.0555556
        k(   67) = (   0.5000000  -0.1666667   0.8333333), wk =   0.0277778
        k(   68) = (   0.6666667  -0.1666667   1.0000000), wk =   0.0277778
        k(   69) = (   0.5833333  -0.0833333   0.9166667), wk =   0.0555556
        k(   70) = (   0.5000000   0.0000000   0.8333333), wk =   0.0277778
        k(   71) = (  -0.3333333  -1.0000000   0.0000000), wk =   0.0138889
        k(   72) = (  -0.5000000  -1.0000000   0.0000000), wk =   0.0069444

     Dense  grid:    43655 G-vectors     FFT dimensions: (  50,  50,  50)

     Estimated max dynamical RAM per process >       2.87 MB

     Estimated total dynamical RAM >      68.84 MB

     Initial potential from superposition of free atoms

     starting charge       9.8869, renormalised to      10.0000
     Starting wfcs are random

     total cpu time spent up to now is        1.1 secs

     Self-consistent Calculation

     iteration #  1     ecut=   199.00 Ry     beta= 0.70
     Davidson diagonalization with overlap
     ethr =  1.00E-02,  avg # of iterations =  6.8

     Threshold (ethr) on eigenvalues was too large:
     Diagonalizing with lowered threshold

     Davidson diagonalization with overlap
     ethr =  6.02E-04,  avg # of iterations =  1.3

     total cpu time spent up to now is        2.8 secs

     total energy              =     -62.26498910 Ry
     estimated scf accuracy    <       0.06439854 Ry

     iteration #  2     ecut=   199.00 Ry     beta= 0.70
     Davidson diagonalization with overlap
     ethr =  6.44E-04,  avg # of iterations =  2.0

     total cpu time spent up to now is        3.4 secs

     total energy              =     -62.28000637 Ry
     estimated scf accuracy    <       0.03206394 Ry

     iteration #  3     ecut=   199.00 Ry     beta= 0.70
     Davidson diagonalization with overlap
     ethr =  3.21E-04,  avg # of iterations =  2.0

     total cpu time spent up to now is        3.9 secs

     total energy              =     -62.28701164 Ry
     estimated scf accuracy    <       0.00050833 Ry

     iteration #  4     ecut=   199.00 Ry     beta= 0.70
     Davidson diagonalization with overlap
     ethr =  5.08E-06,  avg # of iterations =  3.0

     total cpu time spent up to now is        4.5 secs

     total energy              =     -62.28711777 Ry
     estimated scf accuracy    <       0.00000487 Ry

     iteration #  5     ecut=   199.00 Ry     beta= 0.70
     Davidson diagonalization with overlap
     ethr =  4.87E-08,  avg # of iterations =  2.1

     total cpu time spent up to now is        5.0 secs

     total energy              =     -62.28711912 Ry
     estimated scf accuracy    <       0.00000021 Ry

     iteration #  6     ecut=   199.00 Ry     beta= 0.70
     Davidson diagonalization with overlap
     ethr =  2.13E-09,  avg # of iterations =  2.0

     total cpu time spent up to now is        5.5 secs

     total energy              =     -62.28711918 Ry
     estimated scf accuracy    <          1.3E-09 Ry

     iteration #  7     ecut=   199.00 Ry     beta= 0.70
     Davidson diagonalization with overlap
     ethr =  1.26E-11,  avg # of iterations =  2.0

     total cpu time spent up to now is        6.1 secs

     End of self-consistent calculation

          k = 0.0000 0.0000 0.0000 (  5577 PWs)   bands (ev):

   -40.3276 -19.1536   0.6159   0.6159   0.6159   9.3851  24.0783  24.0783
    24.0783  24.6576

          k =-0.0833 0.0833-0.0833 (  5474 PWs)   bands (ev):

   -40.3243 -19.1283   0.4228   0.6009   0.6009   9.5921  22.0497  23.1695
    23.1695  25.4356

          k =-0.1667 0.1667-0.1667 (  5468 PWs)   bands (ev):

   -40.3154 -19.0582  -0.0697   0.5605   0.5605  10.1042  19.8596  21.9606
    21.9606  26.1521

          k =-0.2500 0.2500-0.2500 (  5426 PWs)   bands (ev):

   -40.3032 -18.9596  -0.6801   0.5066   0.5066  10.6761  18.2474  20.8532
    20.8532  27.1226

          k =-0.3333 0.3333-0.3333 (  5450 PWs)   bands (ev):

   -40.2910 -18.8576  -1.2396   0.4543   0.4543  11.0724  17.3155  19.9900
    19.9900  28.3346

          k =-0.4167 0.4167-0.4167 (  5450 PWs)   bands (ev):

   -40.2821 -18.7807  -1.6252   0.4169   0.4169  11.2232  16.9522  19.4475
    19.4475  29.6432

          k = 0.5000-0.5000 0.5000 (  5444 PWs)   bands (ev):

   -40.2788 -18.7520  -1.7622   0.4035   0.4035  11.2455  16.8811  19.2629
    19.2629  30.4357

          k = 0.0000 0.1667 0.0000 (  5465 PWs)   bands (ev):

   -40.3232 -19.1195   0.4410   0.5515   0.5515   9.6707  22.6355  22.6355
    23.0068  23.1395

          k =-0.0833 0.2500-0.0833 (  5444 PWs)   bands (ev):

   -40.3162 -19.0632   0.0640   0.4814   0.5272  10.1081  20.4680  21.8573
    22.0975  23.6876

          k =-0.1667 0.3333-0.1667 (  5433 PWs)   bands (ev):

   -40.3052 -18.9723  -0.5034   0.4102   0.4787  10.7029  18.6350  21.0020
    21.0066  24.8091

          k =-0.2500 0.4167-0.2500 (  5449 PWs)   bands (ev):

   -40.2931 -18.8694  -1.0710   0.3574   0.4001  11.2075  17.4491  20.1145
    20.2267  26.1755

          k =-0.3333 0.5000-0.3333 (  5452 PWs)   bands (ev):

   -40.2831 -18.7823  -1.5050   0.3131   0.3364  11.4667  16.8846  19.5363
    19.6448  27.6888

          k = 0.5833-0.4167 0.5833 (  5455 PWs)   bands (ev):

   -40.2780 -18.7366  -1.7181   0.2419   0.3520  11.5305  16.7147  19.2954
    19.3474  29.1797

          k = 0.5000-0.3333 0.5000 (  5455 PWs)   bands (ev):

   -40.2790 -18.7466  -1.6698   0.2057   0.3996  11.5148  16.7234  19.3753
    19.3853  29.7613

          k = 0.4167-0.2500 0.4167 (  5440 PWs)   bands (ev):

   -40.2860 -18.8092  -1.3703   0.2148   0.4671  11.3908  16.9652  19.7397
    19.7819  28.4604

          k = 0.3333-0.1667 0.3333 (  5433 PWs)   bands (ev):

   -40.2971 -18.9051  -0.8797   0.2693   0.5374  11.0367  17.6910  20.3314
    20.5330  27.2244

          k = 0.2500-0.0833 0.2500 (  5443 PWs)   bands (ev):

   -40.3092 -19.0068  -0.3075   0.3605   0.5919  10.4745  19.0366  21.0595
    21.5919  26.0496

          k = 0.1667-0.0000 0.1667 (  5451 PWs)   bands (ev):

   -40.3192 -19.0877   0.1826   0.4813   0.6155   9.9108  20.8160  21.8918
    22.7601  25.1553

          k = 0.0000 0.3333 0.0000 (  5457 PWs)   bands (ev):

   -40.3115 -19.0207  -0.0458   0.3771   0.3771  10.4797  20.9055  21.4610
    21.4992  21.4992

          k =-0.0833 0.4167-0.0833 (  5433 PWs)   bands (ev):

   -40.3025 -18.9405  -0.4779   0.2764   0.2904  11.0794  19.0887  20.6175
    20.9966  22.3149

          k =-0.1667 0.5000-0.1667 (  5445 PWs)   bands (ev):

   -40.2917 -18.8420  -0.9808   0.1709   0.2060  11.6996  17.6293  19.8990
    20.4326  23.5964

          k =-0.2500 0.5833-0.2500 (  5452 PWs)   bands (ev):

   -40.2818 -18.7512  -1.3918   0.0132   0.1834  12.1312  16.7672  19.4272
    19.9209  25.0683

          k = 0.6667-0.3333 0.6667 (  5448 PWs)   bands (ev):

   -40.2756 -18.6943  -1.6199  -0.1404   0.2141  12.2950  16.3843  19.2446
    19.5712  26.6166

          k = 0.5833-0.2500 0.5833 (  5435 PWs)   bands (ev):

   -40.2748 -18.6886  -1.6219  -0.2437   0.2900  12.2775  16.2575  19.3133
    19.4648  28.1102

          k = 0.5000-0.1667 0.5000 (  5437 PWs)   bands (ev):

   -40.2795 -18.7359  -1.4058  -0.2601   0.3920  12.1032  16.3622  19.5573
    19.6485  28.9830

          k = 0.4167-0.0833 0.4167 (  5438 PWs)   bands (ev):

   -40.2885 -18.8217  -1.0363  -0.1641   0.4935  11.6891  16.8839  19.9183
    20.1299  27.9335

          k = 0.3333 0.0000 0.3333 (  5424 PWs)   bands (ev):

   -40.2994 -18.9209  -0.6342   0.0603   0.5671  11.0776  17.8774  20.3784
    20.8489  26.6476

          k = 0.0000 0.5000 0.0000 (  5425 PWs)   bands (ev):

   -40.2959 -18.8713  -0.7339   0.1424   0.1424  11.6833  19.2045  20.0060
    20.8357  20.8357

          k =-0.0833 0.5833-0.0833 (  5449 PWs)   bands (ev):

   -40.2872 -18.7818  -1.1269   0.0009   0.0432  12.3716  17.9650  19.4291
    20.5454  21.5002

          k =-0.1667 0.6667-0.1667 (  5450 PWs)   bands (ev):

   -40.2786 -18.6950  -1.4527  -0.2115   0.0031  12.9758  16.8463  19.0469
    20.1895  22.7774

          k = 0.7500-0.2500 0.7500 (  5442 PWs)   bands (ev):

   -40.2724 -18.6356  -1.6070  -0.4690   0.0317  13.3183  16.1550  18.9408
    19.8619  24.2284

          k = 0.6667-0.1667 0.6667 (  5434 PWs)   bands (ev):

   -40.2705 -18.6213  -1.5524  -0.7016   0.1220  13.3388  15.7956  19.0855
    19.6517  25.7943

          k = 0.5833-0.0833 0.5833 (  5438 PWs)   bands (ev):

   -40.2731 -18.6565  -1.3292  -0.8148   0.2520  13.0436  15.7542  19.3485
    19.6207  27.4713

          k = 0.5000 0.0000 0.5000 (  5428 PWs)   bands (ev):

   -40.2797 -18.7306  -1.1426  -0.6201   0.3882  12.4377  16.1410  19.6267
    19.7909  29.1318

          k = 0.0000 0.6667 0.0000 (  5449 PWs)   bands (ev):

   -40.2808 -18.7036  -1.4497  -0.0881  -0.0881  13.0878  17.9761  18.9134
    20.5232  20.5232

          k =-0.0833 0.7500-0.0833 (  5462 PWs)   bands (ev):

   -40.2742 -18.6279  -1.7267  -0.2405  -0.1557  13.7654  17.1557  18.5165
    20.3703  21.1009

          k = 0.8333-0.1667 0.8333 (  5458 PWs)   bands (ev):

   -40.2692 -18.5758  -1.8276  -0.4947  -0.1442  14.2882  16.2398  18.4002
    20.1370  22.2987

          k = 0.7500-0.0833 0.7500 (  5447 PWs)   bands (ev):

   -40.2672 -18.5628  -1.7049  -0.8003  -0.0561  14.4955  15.4896  18.6324
    19.8945  23.7539

          k = 0.6667-0.0000 0.6667 (  5450 PWs)   bands (ev):

   -40.2686 -18.5927  -1.3841  -1.0634   0.0879  13.9934  15.3559  19.0218
    19.7081  25.4881

          k = 0.0000 0.8333 0.0000 (  5458 PWs)   bands (ev):

   -40.2699 -18.5677  -1.9914  -0.2541  -0.2541  14.4066  17.2359  18.0709
    20.4178  20.4178

          k = 0.9167-0.0833 0.9167 (  5445 PWs)   bands (ev):

   -40.2669 -18.5313  -2.0889  -0.3748  -0.2693  14.8764  16.7041  17.8394
    20.3298  20.9487

          k = 0.8333 0.0000 0.8333 (  5450 PWs)   bands (ev):

   -40.2659 -18.5295  -1.9740  -0.5949  -0.1979  15.1049  15.8022  18.0955
    20.1387  22.1386

          k = 0.0000-1.0000 0.0000 (  5434 PWs)   bands (ev):

   -40.2660 -18.5149  -2.1934  -0.3143  -0.3143  15.0602  16.9888  17.6357
    20.3988  20.3988

          k =-0.1667 0.3333 0.0000 (  5453 PWs)   bands (ev):

   -40.3082 -18.9953  -0.2695   0.2913   0.5086  10.6178  19.2661  20.9587
    21.4835  23.7115

          k =-0.2500 0.4167-0.0833 (  5451 PWs)   bands (ev):

   -40.2973 -18.8999  -0.7490   0.1184   0.4629  11.2405  17.8619  20.3042
    20.6485  24.7065

          k =-0.3333 0.5000-0.1667 (  5439 PWs)   bands (ev):

   -40.2864 -18.8015  -1.2198   0.0019   0.3882  11.7455  16.9195  19.7554
    19.9854  26.0707

          k = 0.5833-0.4167 0.7500 (  5450 PWs)   bands (ev):

   -40.2783 -18.7273  -1.5532  -0.0625   0.3189  11.9986  16.5022  19.4112
    19.5491  27.5680

          k = 0.5000-0.3333 0.6667 (  5448 PWs)   bands (ev):

   -40.2754 -18.6997  -1.6729  -0.0823   0.2905  12.0582  16.4089  19.3329
    19.3604  28.6809

          k =-0.1667 0.5000 0.0000 (  5449 PWs)   bands (ev):

   -40.2937 -18.8553  -0.8359   0.0362   0.2572  11.7247  18.0774  19.9580
    20.6122  22.5751

          k =-0.2500 0.5833-0.0833 (  5447 PWs)   bands (ev):

   -40.2840 -18.7611  -1.2060  -0.1824   0.1942  12.3704  16.9976  19.4631
    20.1590  23.7019

          k = 0.6667-0.3333 0.8333 (  5442 PWs)   bands (ev):

   -40.2761 -18.6834  -1.4765  -0.3704   0.1427  12.8150  16.3241  19.1850
    19.7642  25.1245

          k = 0.5833-0.2500 0.7500 (  5446 PWs)   bands (ev):

   -40.2721 -18.6451  -1.5787  -0.5156   0.1474  12.9685  16.0304  19.1641
    19.4956  26.6277

          k = 0.5000-0.1667 0.6667 (  5440 PWs)   bands (ev):

   -40.2730 -18.6580  -1.4965  -0.5767   0.2127  12.8805  15.9729  19.3557
    19.4149  27.8876

          k = 0.4167-0.0833 0.5833 (  5439 PWs)   bands (ev):

   -40.2787 -18.7180  -1.2751  -0.4998   0.3127  12.5294  16.2279  19.5425
    19.6917  26.8482

          k = 0.3333 0.0000 0.5000 (  5437 PWs)   bands (ev):

   -40.2876 -18.8071  -1.0076  -0.2473   0.4089  11.9228  16.9117  19.8485
    20.1371  25.5293

          k =-0.1667 0.6667-0.0000 (  5457 PWs)   bands (ev):

   -40.2795 -18.6978  -1.4341  -0.2136  -0.0118  13.0762  17.2103  18.9652
    20.2873  21.9282

          k = 0.7500-0.2500 0.9167 (  5445 PWs)   bands (ev):

   -40.2728 -18.6260  -1.6231  -0.4654  -0.0507  13.6962  16.3951  18.6716
    19.9753  23.0981

          k = 0.6667-0.1667 0.8333 (  5439 PWs)   bands (ev):

   -40.2688 -18.5871  -1.6250  -0.7452  -0.0294  14.0404  15.8043  18.6740
    19.6987  24.5244

          k = 0.5833-0.0833 0.7500 (  5440 PWs)   bands (ev):

   -40.2686 -18.5927  -1.4261  -0.9956   0.0591  13.9481  15.5129  18.9550
    19.5148  26.1231

          k = 0.5000 0.0000 0.6667 (  5449 PWs)   bands (ev):

   -40.2722 -18.6411  -1.2341  -0.9769   0.1875  13.3586  15.6832  19.3356
    19.4634  27.8949

          k = 0.8333-0.1667 1.0000 (  5448 PWs)   bands (ev):

   -40.2695 -18.5702  -1.9037  -0.3931  -0.2024  14.3981  16.6735  18.1208
    20.1649  21.6353

          k = 0.7500-0.0833 0.9167 (  5445 PWs)   bands (ev):

   -40.2665 -18.5412  -1.8859  -0.6332  -0.1838  14.8702  15.9757  18.0199
    19.9139  22.8237

          k = 0.6667 0.0000 0.8333 (  5443 PWs)   bands (ev):

   -40.2662 -18.5495  -1.6686  -0.9068  -0.0881  15.0103  15.2048  18.4108
    19.6898  24.3214

          k =-0.1667-1.0000-0.0000 (  5446 PWs)   bands (ev):

   -40.2658 -18.5206  -2.0825  -0.4580  -0.2700  15.0797  16.4911  17.6531
    20.1351  21.5569

          k = 0.6667-0.3333 1.0000 (  5431 PWs)   bands (ev):

   -40.2763 -18.6780  -1.3669  -0.5459   0.1319  13.1084  16.2824  19.1343
    19.7988  24.7158

          k = 0.5833-0.2500 0.9167 (  5439 PWs)   bands (ev):

   -40.2707 -18.6158  -1.4434  -0.8249   0.0593  13.6932  15.8157  18.9132
    19.4990  26.1432

          k = 0.5000-0.1667 0.8333 (  5440 PWs)   bands (ev):

   -40.2686 -18.5927  -1.4584  -0.9353   0.0282  13.9088  15.6767  18.8339
    19.3778  27.3673

          k = 0.6667-0.1667 1.0000 (  5449 PWs)   bands (ev):

   -40.2683 -18.5729  -1.6554  -0.7588  -0.0968  14.4122  15.9251  18.2747
    19.6620  24.2843

          k = 0.5833-0.0833 0.9167 (  5445 PWs)   bands (ev):

   -40.2662 -18.5511  -1.5231  -1.0473  -0.1009  14.8704  15.5141  18.1327
    19.4537  25.8157

          k = 0.5000 0.0000 0.8333 (  5449 PWs)   bands (ev):

   -40.2671 -18.5669  -1.2949  -1.2287  -0.0401  14.5665  15.4475  18.4628
    19.3850  27.5129

          k =-0.3333-1.0000 0.0000 (  5472 PWs)   bands (ev):

   -40.2654 -18.5321  -1.7701  -0.8356  -0.1805  15.1623  15.8086  17.6965
    19.6277  24.1531

          k =-0.5000-1.0000 0.0000 (  5440 PWs)   bands (ev):

   -40.2652 -18.5378  -1.3190  -1.3190  -0.1352  15.3754  15.3754  17.7250
    19.3794  27.5843

     the Fermi energy is     3.9151 ev

!    total energy              =     -62.28711918 Ry
     estimated scf accuracy    <          8.8E-11 Ry
     smearing contrib. (-TS)   =      -0.00000000 Ry
     internal energy E=F+TS    =     -62.28711918 Ry

     The total energy is F=E-TS. E is the sum of the following terms:
     one-electron contribution =     -25.96310395 Ry
     hartree contribution      =      16.74863857 Ry
     xc contribution           =     -12.68019318 Ry
     ewald contribution        =     -40.39246062 Ry

     convergence has been achieved in   7 iterations

     Writing all to output data dir out/mp-1138.save/
 
     init_run     :      0.67s CPU      1.03s WALL (       1 calls)
     electrons    :      4.51s CPU      5.02s WALL (       1 calls)

     Called by init_run:
     wfcinit      :      0.64s CPU      0.97s WALL (       1 calls)
     potinit      :      0.01s CPU      0.01s WALL (       1 calls)
     hinit0       :      0.01s CPU      0.03s WALL (       1 calls)

     Called by electrons:
     c_bands      :      3.82s CPU      4.23s WALL (       8 calls)
     sum_band     :      0.66s CPU      0.73s WALL (       8 calls)
     v_of_rho     :      0.03s CPU      0.03s WALL (       8 calls)
     mix_rho      :      0.01s CPU      0.01s WALL (       8 calls)

     Called by c_bands:
     init_us_2    :      0.06s CPU      0.06s WALL (    1224 calls)
     init_us_2:cp :      0.05s CPU      0.06s WALL (    1224 calls)
     cegterg      :      3.58s CPU      3.79s WALL (     576 calls)

     Called by *egterg:
     cdiaghg      :      0.27s CPU      0.29s WALL (    2020 calls)
     h_psi        :      3.69s CPU      3.94s WALL (    2164 calls)
     g_psi        :      0.02s CPU      0.02s WALL (    1516 calls)

     Called by h_psi:
     h_psi:calbec :      0.07s CPU      0.07s WALL (    2164 calls)
     vloc_psi     :      3.57s CPU      3.81s WALL (    2164 calls)
     add_vuspsi   :      0.04s CPU      0.04s WALL (    2164 calls)

     General routines
     calbec       :      0.06s CPU      0.06s WALL (    2164 calls)
     fft          :      0.01s CPU      0.03s WALL (      80 calls)
     ffts         :      0.00s CPU      0.00s WALL (       8 calls)
     fftw         :      3.85s CPU      4.10s WALL (   40080 calls)
     davcio       :      0.06s CPU      0.50s WALL (    1924 calls)
 
     Parallel routines
 
     PWSCF        :      5.35s CPU      7.80s WALL

 
   This run was terminated on:   1:46:55  15Nov2023            

=------------------------------------------------------------------------------=
   JOB DONE.
=------------------------------------------------------------------------------=
