
     Program PWSCF v.7.1 starts on  4Dec2023 at 13:53:26 

     This program is part of the open-source Quantum ESPRESSO suite
     for quantum simulation of materials; please cite
         "P. Giannozzi et al., J. Phys.:Condens. Matter 21 395502 (2009);
         "P. Giannozzi et al., J. Phys.:Condens. Matter 29 465901 (2017);
         "P. Giannozzi et al., J. Chem. Phys. 152 154105 (2020);
          URL http://www.quantum-espresso.org", 
     in publications or presentations arising from this work. More details at
     http://www.quantum-espresso.org/quote

     Parallel version (MPI), running on    24 processors

     MPI processes distributed on     1 nodes
     121656 MiB available memory on the printing compute node when the environment starts
 
     Reading input from pw_mp-1541_scf_k3000_E49.in
Warning: card &CELL ignored
Warning: card / ignored

     Current dimensions of program PWSCF are:
     Max number of different atomic species (ntypx) = 10
     Max number of k-points (npk) =  40000
     Max angular momentum in pseudopotentials (lmaxx) =  4
 
     K-points division:     npool     =       2
     R & G space division:  proc/nbgrp/npool/nimage =      12
     Subspace diagonalization in iterative solution of the eigenvalue problem:
     a serial algorithm will be used

 
     Parallelization info
     --------------------
     sticks:   dense  smooth     PW     G-vecs:    dense   smooth      PW
     Min          54      54     16                  903      903     158
     Max          55      55     17                  906      906     161
     Sum         649     649    199                10849    10849    1917
 
     Using Slab Decomposition
 


     bravais-lattice index     =            2
     lattice parameter (alat)  =       9.7660  a.u.
     unit-cell volume          =     232.8564 (a.u.)^3
     number of atoms/cell      =            2
     number of atomic types    =            2
     number of electrons       =        10.00
     number of Kohn-Sham states=           10
     kinetic-energy cutoff     =      49.0000  Ry
     charge density cutoff     =     196.0000  Ry
     scf convergence threshold =      1.0E-10
     mixing beta               =       0.7000
     number of iterations used =            8  plain     mixing
     Exchange-correlation= PBE
                           (   1   4   3   4   0   0   0)

     celldm(1)=   9.765986  celldm(2)=   0.000000  celldm(3)=   0.000000
     celldm(4)=   0.000000  celldm(5)=   0.000000  celldm(6)=   0.000000

     crystal axes: (cart. coord. in units of alat)
               a(1) = (  -0.500000   0.000000   0.500000 )  
               a(2) = (   0.000000   0.500000   0.500000 )  
               a(3) = (  -0.500000   0.500000   0.000000 )  

     reciprocal axes: (cart. coord. in units 2 pi/alat)
               b(1) = ( -1.000000 -1.000000  1.000000 )  
               b(2) = (  1.000000  1.000000  1.000000 )  
               b(3) = ( -1.000000  1.000000 -1.000000 )  


     PseudoPot. # 1 for Be read from file:
     /usr/scratch4/magr4985/MG/HTDF/pseudo/SG15/Be.upf
     MD5 check sum: dc1f98d164da9dc61a6fd2fad64b4ce2
     Pseudo is Norm-conserving, Zval =  4.0
     Generated using ONCVPSP code by D. R. Hamann
     Using radial grid of  602 points,  4 beta functions with: 
                l(1) =   0
                l(2) =   0
                l(3) =   1
                l(4) =   1

     PseudoPot. # 2 for Se read from file:
     /usr/scratch4/magr4985/MG/HTDF/pseudo/SG15/Se.upf
     MD5 check sum: e78e48a4f5d8ce1f8dc76ec1271f249c
     Pseudo is Norm-conserving, Zval =  6.0
     Generated using ONCVPSP code by D. R. Hamann
     Using radial grid of  602 points,  6 beta functions with: 
                l(1) =   0
                l(2) =   0
                l(3) =   1
                l(4) =   1
                l(5) =   2
                l(6) =   2

     atomic species   valence    mass     pseudopotential
        Be             4.00     9.01220     Be( 1.00)
        Se             6.00    78.96000     Se( 1.00)

     24 Sym. Ops. (no inversion) found



   Cartesian axes

     site n.     atom                  positions (alat units)
         1           Be  tau(   1) = (   0.0000000   0.0000000   0.0000000  )
         2           Se  tau(   2) = (  -0.2500000   0.2500000   0.2500001  )

     number of k points=    72  Gaussian smearing, width (Ry)=  0.0005
                       cart. coord. in units 2pi/alat
        k(    1) = (   0.0000000   0.0000000   0.0000000), wk =   0.0011574
        k(    2) = (  -0.0833333   0.0833333  -0.0833333), wk =   0.0092593
        k(    3) = (  -0.1666667   0.1666667  -0.1666667), wk =   0.0092593
        k(    4) = (  -0.2500000   0.2500000  -0.2500000), wk =   0.0092593
        k(    5) = (  -0.3333333   0.3333333  -0.3333333), wk =   0.0092593
        k(    6) = (  -0.4166667   0.4166667  -0.4166667), wk =   0.0092593
        k(    7) = (   0.5000000  -0.5000000   0.5000000), wk =   0.0046296
        k(    8) = (   0.0000000   0.1666667   0.0000000), wk =   0.0069444
        k(    9) = (  -0.0833333   0.2500000  -0.0833333), wk =   0.0277778
        k(   10) = (  -0.1666667   0.3333333  -0.1666667), wk =   0.0277778
        k(   11) = (  -0.2500000   0.4166667  -0.2500000), wk =   0.0277778
        k(   12) = (  -0.3333333   0.5000000  -0.3333333), wk =   0.0277778
        k(   13) = (   0.5833333  -0.4166667   0.5833333), wk =   0.0277778
        k(   14) = (   0.5000000  -0.3333333   0.5000000), wk =   0.0277778
        k(   15) = (   0.4166667  -0.2500000   0.4166667), wk =   0.0277778
        k(   16) = (   0.3333333  -0.1666667   0.3333333), wk =   0.0277778
        k(   17) = (   0.2500000  -0.0833333   0.2500000), wk =   0.0277778
        k(   18) = (   0.1666667  -0.0000000   0.1666667), wk =   0.0138889
        k(   19) = (   0.0000000   0.3333333   0.0000000), wk =   0.0069444
        k(   20) = (  -0.0833333   0.4166667  -0.0833333), wk =   0.0277778
        k(   21) = (  -0.1666667   0.5000000  -0.1666667), wk =   0.0277778
        k(   22) = (  -0.2500000   0.5833333  -0.2500000), wk =   0.0277778
        k(   23) = (   0.6666667  -0.3333333   0.6666667), wk =   0.0277778
        k(   24) = (   0.5833333  -0.2500000   0.5833333), wk =   0.0277778
        k(   25) = (   0.5000000  -0.1666667   0.5000000), wk =   0.0277778
        k(   26) = (   0.4166667  -0.0833333   0.4166667), wk =   0.0277778
        k(   27) = (   0.3333333   0.0000000   0.3333333), wk =   0.0138889
        k(   28) = (   0.0000000   0.5000000   0.0000000), wk =   0.0069444
        k(   29) = (  -0.0833333   0.5833333  -0.0833333), wk =   0.0277778
        k(   30) = (  -0.1666667   0.6666667  -0.1666667), wk =   0.0277778
        k(   31) = (   0.7500000  -0.2500000   0.7500000), wk =   0.0277778
        k(   32) = (   0.6666667  -0.1666667   0.6666667), wk =   0.0277778
        k(   33) = (   0.5833333  -0.0833333   0.5833333), wk =   0.0277778
        k(   34) = (   0.5000000   0.0000000   0.5000000), wk =   0.0138889
        k(   35) = (   0.0000000   0.6666667   0.0000000), wk =   0.0069444
        k(   36) = (  -0.0833333   0.7500000  -0.0833333), wk =   0.0277778
        k(   37) = (   0.8333333  -0.1666667   0.8333333), wk =   0.0277778
        k(   38) = (   0.7500000  -0.0833333   0.7500000), wk =   0.0277778
        k(   39) = (   0.6666667  -0.0000000   0.6666667), wk =   0.0138889
        k(   40) = (   0.0000000   0.8333333   0.0000000), wk =   0.0069444
        k(   41) = (   0.9166667  -0.0833333   0.9166667), wk =   0.0277778
        k(   42) = (   0.8333333   0.0000000   0.8333333), wk =   0.0138889
        k(   43) = (   0.0000000  -1.0000000   0.0000000), wk =   0.0034722
        k(   44) = (  -0.1666667   0.3333333   0.0000000), wk =   0.0277778
        k(   45) = (  -0.2500000   0.4166667  -0.0833333), wk =   0.0555556
        k(   46) = (  -0.3333333   0.5000000  -0.1666667), wk =   0.0555556
        k(   47) = (   0.5833333  -0.4166667   0.7500000), wk =   0.0555556
        k(   48) = (   0.5000000  -0.3333333   0.6666667), wk =   0.0277778
        k(   49) = (  -0.1666667   0.5000000   0.0000000), wk =   0.0277778
        k(   50) = (  -0.2500000   0.5833333  -0.0833333), wk =   0.0555556
        k(   51) = (   0.6666667  -0.3333333   0.8333333), wk =   0.0555556
        k(   52) = (   0.5833333  -0.2500000   0.7500000), wk =   0.0555556
        k(   53) = (   0.5000000  -0.1666667   0.6666667), wk =   0.0555556
        k(   54) = (   0.4166667  -0.0833333   0.5833333), wk =   0.0555556
        k(   55) = (   0.3333333   0.0000000   0.5000000), wk =   0.0277778
        k(   56) = (  -0.1666667   0.6666667  -0.0000000), wk =   0.0277778
        k(   57) = (   0.7500000  -0.2500000   0.9166667), wk =   0.0555556
        k(   58) = (   0.6666667  -0.1666667   0.8333333), wk =   0.0555556
        k(   59) = (   0.5833333  -0.0833333   0.7500000), wk =   0.0555556
        k(   60) = (   0.5000000   0.0000000   0.6666667), wk =   0.0277778
        k(   61) = (   0.8333333  -0.1666667   1.0000000), wk =   0.0277778
        k(   62) = (   0.7500000  -0.0833333   0.9166667), wk =   0.0555556
        k(   63) = (   0.6666667   0.0000000   0.8333333), wk =   0.0277778
        k(   64) = (  -0.1666667  -1.0000000  -0.0000000), wk =   0.0138889
        k(   65) = (   0.6666667  -0.3333333   1.0000000), wk =   0.0277778
        k(   66) = (   0.5833333  -0.2500000   0.9166667), wk =   0.0555556
        k(   67) = (   0.5000000  -0.1666667   0.8333333), wk =   0.0277778
        k(   68) = (   0.6666667  -0.1666667   1.0000000), wk =   0.0277778
        k(   69) = (   0.5833333  -0.0833333   0.9166667), wk =   0.0555556
        k(   70) = (   0.5000000   0.0000000   0.8333333), wk =   0.0277778
        k(   71) = (  -0.3333333  -1.0000000   0.0000000), wk =   0.0138889
        k(   72) = (  -0.5000000  -1.0000000   0.0000000), wk =   0.0069444

     Dense  grid:    10849 G-vectors     FFT dimensions: (  32,  32,  32)

     Estimated max dynamical RAM per process >       3.63 MB

     Estimated total dynamical RAM >      84.50 MB

     Initial potential from superposition of free atoms

     starting charge       9.9572, renormalised to      10.0000
     Starting wfcs are random

     total cpu time spent up to now is        0.3 secs

     Self-consistent Calculation

     iteration #  1     ecut=    49.00 Ry     beta= 0.70
     Davidson diagonalization with overlap
     ethr =  1.00E-02,  avg # of iterations =  7.6

     Threshold (ethr) on eigenvalues was too large:
     Diagonalizing with lowered threshold

     Davidson diagonalization with overlap
     ethr =  3.01E-04,  avg # of iterations =  1.8

     total cpu time spent up to now is        0.9 secs

     total energy              =     -45.63320114 Ry
     estimated scf accuracy    <       0.03049702 Ry

     iteration #  2     ecut=    49.00 Ry     beta= 0.70
     Davidson diagonalization with overlap
     ethr =  3.05E-04,  avg # of iterations =  1.0

     total cpu time spent up to now is        1.1 secs

     total energy              =     -45.63476036 Ry
     estimated scf accuracy    <       0.00128095 Ry

     iteration #  3     ecut=    49.00 Ry     beta= 0.70
     Davidson diagonalization with overlap
     ethr =  1.28E-05,  avg # of iterations =  4.5

     total cpu time spent up to now is        1.3 secs

     total energy              =     -45.63486247 Ry
     estimated scf accuracy    <       0.00007213 Ry

     iteration #  4     ecut=    49.00 Ry     beta= 0.70
     Davidson diagonalization with overlap
     ethr =  7.21E-07,  avg # of iterations =  2.5

     total cpu time spent up to now is        1.5 secs

     total energy              =     -45.63487631 Ry
     estimated scf accuracy    <       0.00000388 Ry

     iteration #  5     ecut=    49.00 Ry     beta= 0.70
     Davidson diagonalization with overlap
     ethr =  3.88E-08,  avg # of iterations =  1.8

     total cpu time spent up to now is        1.7 secs

     total energy              =     -45.63487690 Ry
     estimated scf accuracy    <       0.00000004 Ry

     iteration #  6     ecut=    49.00 Ry     beta= 0.70
     Davidson diagonalization with overlap
     ethr =  4.10E-10,  avg # of iterations =  2.0

     total cpu time spent up to now is        1.9 secs

     total energy              =     -45.63487691 Ry
     estimated scf accuracy    <          1.1E-09 Ry

     iteration #  7     ecut=    49.00 Ry     beta= 0.70
     Davidson diagonalization with overlap
     ethr =  1.11E-11,  avg # of iterations =  2.0

     total cpu time spent up to now is        2.0 secs

     End of self-consistent calculation

          k = 0.0000 0.0000 0.0000 (  1363 PWs)   bands (ev):

   -94.4756  -8.3372   5.3833   5.3833   5.3833   9.6320  10.3906  10.3906
    10.3906  17.3806

          k =-0.0833 0.0833-0.0833 (  1369 PWs)   bands (ev):

   -94.4756  -8.2699   4.7183   5.2851   5.2851   9.8499  10.5560  10.5560
    10.8512  17.3546

          k =-0.1667 0.1667-0.1667 (  1354 PWs)   bands (ev):

   -94.4756  -8.0756   3.3920   5.0459   5.0459   9.8815  10.9378  10.9378
    12.1771  16.7221

          k =-0.2500 0.2500-0.2500 (  1351 PWs)   bands (ev):

   -94.4756  -7.7809   2.0240   4.7692   4.7692   9.8139  11.2773  11.2773
    13.6287  16.6650

          k =-0.3333 0.3333-0.3333 (  1356 PWs)   bands (ev):

   -94.4756  -7.4408   0.8573   4.5327   4.5327   9.7377  11.3996  11.3996
    14.7638  17.3398

          k =-0.4167 0.4167-0.4167 (  1362 PWs)   bands (ev):

   -94.4756  -7.1507   0.0539   4.3784   4.3784   9.6828  11.3761  11.3761
    15.2667  18.1196

          k = 0.5000-0.5000 0.5000 (  1350 PWs)   bands (ev):

   -94.4755  -7.0327  -0.2376   4.3252   4.3252   9.6631  11.3499  11.3499
    15.3565  18.8189

          k = 0.0000 0.1667 0.0000 (  1359 PWs)   bands (ev):

   -94.4756  -8.2474   4.8153   5.0874   5.0874   9.9316  10.5509  10.8412
    10.8412  16.4149

          k =-0.0833 0.2500-0.0833 (  1348 PWs)   bands (ev):

   -94.4756  -8.0953   3.7727   4.7884   4.9589   9.9956  10.7155  11.3264
    11.8366  15.6950

          k =-0.1667 0.3333-0.1667 (  1350 PWs)   bands (ev):

   -94.4756  -7.8333   2.4546   4.4961   4.7238  10.0699  10.9458  11.7530
    12.9439  15.7347

          k =-0.2500 0.4167-0.2500 (  1350 PWs)   bands (ev):

   -94.4756  -7.5052   1.2460   4.2790   4.4273  10.0542  11.1598  11.9099
    13.8152  16.6293

          k =-0.3333 0.5000-0.3333 (  1348 PWs)   bands (ev):

   -94.4755  -7.1915   0.3313   4.1570   4.1704  10.0175  11.2128  11.8297
    14.7306  17.3715

          k = 0.5833-0.4167 0.5833 (  1359 PWs)   bands (ev):

   -94.4756  -7.0083  -0.1314   3.9649   4.1809  10.0058  11.2420  11.6804
    15.3853  17.8609

          k = 0.5000-0.3333 0.5000 (  1358 PWs)   bands (ev):

   -94.4756  -7.0479  -0.0348   3.8799   4.3059  10.0312  11.3464  11.5623
    15.3945  17.9806

          k = 0.4167-0.2500 0.4167 (  1356 PWs)   bands (ev):

   -94.4756  -7.2887   0.5955   3.9171   4.5276  10.0865  11.4634  11.5084
    14.7507  16.8354

          k = 0.3333-0.1667 0.3333 (  1357 PWs)   bands (ev):

   -94.4756  -7.6188   1.6219   4.0811   4.8112  10.1531  11.2761  11.5732
    13.7540  16.0018

          k = 0.2500-0.0833 0.2500 (  1359 PWs)   bands (ev):

   -94.4756  -7.9316   2.8676   4.3693   5.0954  10.1898  10.9356  11.3041
    12.7067  15.8948

          k = 0.1667-0.0000 0.1667 (  1357 PWs)   bands (ev):

   -94.4756  -8.1601   4.0548   4.7987   5.2854  10.0770  10.6122  10.8501
    11.6206  16.4283

          k = 0.0000 0.3333 0.0000 (  1335 PWs)   bands (ev):

   -94.4756  -7.9883   3.6710   4.4429   4.4429   9.6524  11.4049  11.9410
    11.9410  14.9610

          k =-0.0833 0.4167-0.0833 (  1348 PWs)   bands (ev):

   -94.4756  -7.7683   2.7315   4.1225   4.1959   9.6296  11.4817  12.4916
    12.5271  15.2628

          k =-0.1667 0.5000-0.1667 (  1353 PWs)   bands (ev):

   -94.4756  -7.4703   1.6422   3.8770   3.8955   9.8053  11.7542  12.5321
    12.8269  16.5776

          k =-0.2500 0.5833-0.2500 (  1354 PWs)   bands (ev):

   -94.4756  -7.1600   0.7260   3.5089   3.7948   9.9131  11.9538  12.7883
    13.0814  17.7977

          k = 0.6667-0.3333 0.6667 (  1356 PWs)   bands (ev):

   -94.4755  -6.9381   0.1644   3.1911   3.8305  10.0103  11.8836  12.5783
    14.3217  17.5065

          k = 0.5833-0.2500 0.5833 (  1351 PWs)   bands (ev):

   -94.4755  -6.9049   0.0878   2.9871   3.9962  10.1810  11.8444  12.3387
    15.4060  16.8252

          k = 0.5000-0.1667 0.5000 (  1347 PWs)   bands (ev):

   -94.4755  -7.0777   0.5095   2.9390   4.2684  10.4150  11.8867  12.0885
    14.6975  16.5937

          k = 0.4167-0.0833 0.4167 (  1345 PWs)   bands (ev):

   -94.4756  -7.3728   1.2933   3.0956   4.6013  10.6182  11.7442  11.9508
    13.5567  15.6851

          k = 0.3333 0.0000 0.3333 (  1354 PWs)   bands (ev):

   -94.4756  -7.6829   2.1740   3.5585   4.9153  10.6103  11.2861  11.6821
    12.9830  15.4867

          k = 0.0000 0.5000 0.0000 (  1355 PWs)   bands (ev):

   -94.4756  -7.5948   2.4719   3.7716   3.7716   9.1529  11.1459  13.3461
    13.3461  15.4139

          k =-0.0833 0.5833-0.0833 (  1342 PWs)   bands (ev):

   -94.4755  -7.3407   1.7609   3.4268   3.5180   9.1172  10.9368  13.6554
    13.9115  16.6128

          k =-0.1667 0.6667-0.1667 (  1349 PWs)   bands (ev):

   -94.4755  -7.0595   1.0431   2.9485   3.3983   9.2981  11.3693  13.5550
    14.0409  18.1456

          k = 0.7500-0.2500 0.7500 (  1348 PWs)   bands (ev):

   -94.4755  -6.8336   0.5453   2.4626   3.4256   9.4647  12.4797  13.4143
    13.8487  17.9477

          k = 0.6667-0.1667 0.6667 (  1346 PWs)   bands (ev):

   -94.4755  -6.7531   0.4000   2.1064   3.5956   9.6967  13.2242  13.5138
    14.0720  16.4839

          k = 0.5833-0.0833 0.5833 (  1348 PWs)   bands (ev):

   -94.4755  -6.8556   0.6146   1.9930   3.8861  10.0395  13.0701  13.1505
    14.7206  15.9875

          k = 0.5000 0.0000 0.5000 (  1340 PWs)   bands (ev):

   -94.4755  -7.0924   0.9816   2.2984   4.2500  10.4349  12.4473  12.8571
    13.6263  15.8586

          k = 0.0000 0.6667 0.0000 (  1347 PWs)   bands (ev):

   -94.4755  -7.1390   1.4167   3.2315   3.2315   8.6264  10.3000  14.8588
    14.8588  17.0413

          k =-0.0833 0.7500-0.0833 (  1343 PWs)   bands (ev):

   -94.4755  -6.9095   0.9645   2.8530   3.0792   8.6278  10.2363  15.1707
    15.3319  18.2582

          k = 0.8333-0.1667 0.8333 (  1343 PWs)   bands (ev):

   -94.4755  -6.7175   0.6898   2.2314   3.0785   8.8837  10.8999  15.0744
    15.2658  18.4153

          k = 0.7500-0.0833 0.7500 (  1338 PWs)   bands (ev):

   -94.4755  -6.6318   0.7065   1.6079   3.2289   9.1797  12.2209  14.8346
    14.9008  16.7710

          k = 0.6667-0.0000 0.6667 (  1336 PWs)   bands (ev):

   -94.4755  -6.6862   0.8290   1.3704   3.5123   9.5657  13.8482  14.0857
    14.5991  15.2564

          k = 0.0000 0.8333 0.0000 (  1347 PWs)   bands (ev):

   -94.4755  -6.7477   0.6599   2.8891   2.8891   8.1953   9.7619  16.2752
    16.2752  18.6939

          k = 0.9167-0.0833 0.9167 (  1345 PWs)   bands (ev):

   -94.4755  -6.6238   0.4919   2.5537   2.8510   8.3188   9.8987  16.4717
    16.4861  19.0747

          k = 0.8333 0.0000 0.8333 (  1338 PWs)   bands (ev):

   -94.4755  -6.5811   0.5773   1.9557   2.9688   8.7271  10.7488  15.9443
    16.0970  17.6439

          k = 0.0000-1.0000 0.0000 (  1362 PWs)   bands (ev):

   -94.4756  -6.5874   0.3767   2.7724   2.7724   8.0263   9.5939  16.9910
    16.9910  19.8503

          k =-0.1667 0.3333 0.0000 (  1350 PWs)   bands (ev):

   -94.4756  -7.9090   3.0403   4.1671   4.8388  10.0758  11.0275  11.8238
    12.4267  15.3560

          k =-0.2500 0.4167-0.0833 (  1354 PWs)   bands (ev):

   -94.4756  -7.6277   1.9911   3.7114   4.6078  10.3057  11.2258  12.2618
    12.8189  15.8283

          k =-0.3333 0.5000-0.1667 (  1347 PWs)   bands (ev):

   -94.4756  -7.3056   0.9754   3.4636   4.3104  10.4180  11.2731  12.3870
    13.5406  16.7419

          k = 0.5833-0.4167 0.7500 (  1350 PWs)   bands (ev):

   -94.4755  -7.0338   0.2493   3.3533   4.0652  10.4473  11.1491  12.4045
    14.6302  17.3155

          k = 0.5000-0.3333 0.6667 (  1352 PWs)   bands (ev):

   -94.4755  -6.9242  -0.0167   3.3272   3.9680  10.4563  11.0779  12.3943
    15.4130  16.9311

          k =-0.1667 0.5000 0.0000 (  1345 PWs)   bands (ev):

   -94.4756  -7.5300   2.0850   3.5071   4.0503   9.6341  11.4875  12.5568
    13.2676  16.0060

          k =-0.2500 0.5833-0.0833 (  1346 PWs)   bands (ev):

   -94.4755  -7.2374   1.3008   3.0676   3.7916   9.9012  11.8025  12.3302
    13.7631  17.1010

          k = 0.6667-0.3333 0.8333 (  1346 PWs)   bands (ev):

   -94.4755  -6.9654   0.6307   2.7731   3.5733  10.0938  12.0351  12.7603
    13.8921  17.6832

          k = 0.5833-0.2500 0.7500 (  1348 PWs)   bands (ev):

   -94.4755  -6.8123   0.2862   2.5506   3.5437  10.2749  11.7762  13.6289
    14.3443  16.4362

          k = 0.5000-0.1667 0.6667 (  1349 PWs)   bands (ev):

   -94.4755  -6.8498   0.3742   2.4336   3.7104  10.5405  11.5651  13.5103
    14.7680  16.0851

          k = 0.4167-0.0833 0.5833 (  1350 PWs)   bands (ev):

   -94.4755  -7.0588   0.8407   2.5118   4.0107  10.8571  11.3700  13.0429
    13.7829  16.6649

          k = 0.3333 0.0000 0.5000 (  1354 PWs)   bands (ev):

   -94.4756  -7.3488   1.4576   2.9190   4.3535  10.7983  11.2889  12.5935
    13.0792  16.0406

          k =-0.1667 0.6667-0.0000 (  1343 PWs)   bands (ev):

   -94.4755  -7.0955   1.2753   2.9763   3.2986   9.1379  10.7466  13.7670
    14.8373  17.5528

          k = 0.7500-0.2500 0.9167 (  1344 PWs)   bands (ev):

   -94.4755  -6.8545   0.8516   2.4861   3.0937   9.4457  11.2004  13.5362
    15.2585  18.2161

          k = 0.6667-0.1667 0.8333 (  1346 PWs)   bands (ev):

   -94.4755  -6.6966   0.6385   1.9781   3.0997   9.7183  12.3523  13.2672
    15.1277  16.8835

          k = 0.5833-0.0833 0.7500 (  1343 PWs)   bands (ev):

   -94.4755  -6.6861   0.6852   1.6542   3.2960  10.0370  12.8434  13.9950
    14.4844  15.6869

          k = 0.5000 0.0000 0.6667 (  1346 PWs)   bands (ev):

   -94.4755  -6.8265   0.7957   1.8063   3.6270  10.4527  12.2883  13.4843
    14.7010  15.9409

          k = 0.8333-0.1667 1.0000 (  1342 PWs)   bands (ev):

   -94.4755  -6.7278   0.6967   2.6438   2.7816   8.7347  10.2314  15.1560
    16.2162  18.9017

          k = 0.7500-0.0833 0.9167 (  1346 PWs)   bands (ev):

   -94.4755  -6.6084   0.6483   2.0629   2.7574   9.1622  10.8945  14.8578
    15.9951  17.9714

          k = 0.6667 0.0000 0.8333 (  1343 PWs)   bands (ev):

   -94.4755  -6.5936   0.8317   1.4764   2.9551   9.5763  12.2418  14.2631
    14.9842  16.9115

          k =-0.1667-1.0000-0.0000 (  1346 PWs)   bands (ev):

   -94.4755  -6.5791   0.4786   2.5386   2.5927   8.5781  10.0697  16.2037
    16.4803  19.1890

          k = 0.6667-0.3333 1.0000 (  1348 PWs)   bands (ev):

   -94.4755  -6.9788   0.9877   2.4061   3.4714  10.4692  11.8325  12.1064
    14.7732  17.3533

          k = 0.5833-0.2500 0.9167 (  1348 PWs)   bands (ev):

   -94.4755  -6.7684   0.7130   2.0435   3.1556  10.9220  11.6115  12.8192
    15.1690  16.4173

          k = 0.5000-0.1667 0.8333 (  1358 PWs)   bands (ev):

   -94.4755  -6.6860   0.5931   1.9441   3.0266  11.0785  11.4429  14.0458
    14.3883  15.8490

          k = 0.6667-0.1667 1.0000 (  1348 PWs)   bands (ev):

   -94.4755  -6.6793   0.7881   2.0961   2.6584  10.1198  11.4454  13.1990
    15.7585  17.4821

          k = 0.5833-0.0833 0.9167 (  1352 PWs)   bands (ev):

   -94.4755  -6.5927   0.8757   1.6735   2.5258  10.6739  12.3611  12.9286
    14.4528  17.4335

          k = 0.5000 0.0000 0.8333 (  1352 PWs)   bands (ev):

   -94.4755  -6.6274   0.9089   1.5524   2.7451  11.0752  12.0917  13.2192
    14.1853  16.8901

          k =-0.3333-1.0000 0.0000 (  1336 PWs)   bands (ev):

   -94.4755  -6.5623   0.7624   2.0194   2.2841   9.9835  11.3110  14.2405
    14.9557  18.7177

          k =-0.5000-1.0000 0.0000 (  1348 PWs)   bands (ev):

   -94.4755  -6.5539   1.0302   1.6453   2.1480  11.5135  12.4603  12.7590
    13.3393  18.6272

     the Fermi energy is     5.6065 ev

!    total energy              =     -45.63487691 Ry
     estimated scf accuracy    <          1.5E-11 Ry
     smearing contrib. (-TS)   =      -0.00000000 Ry
     internal energy E=F+TS    =     -45.63487691 Ry

     The total energy is F=E-TS. E is the sum of the following terms:
     one-electron contribution =     -14.88538153 Ry
     hartree contribution      =       5.94757419 Ry
     xc contribution           =      -8.34296773 Ry
     ewald contribution        =     -28.35410184 Ry

     convergence has been achieved in   7 iterations

     Writing all to output data dir out/mp-1541.save/
 
     init_run     :      0.05s CPU      0.10s WALL (       1 calls)
     electrons    :      0.95s CPU      1.74s WALL (       1 calls)

     Called by init_run:
     wfcinit      :      0.04s CPU      0.06s WALL (       1 calls)
     potinit      :      0.00s CPU      0.01s WALL (       1 calls)
     hinit0       :      0.00s CPU      0.01s WALL (       1 calls)

     Called by electrons:
     c_bands      :      0.83s CPU      1.54s WALL (       8 calls)
     sum_band     :      0.11s CPU      0.12s WALL (       8 calls)
     v_of_rho     :      0.01s CPU      0.01s WALL (       8 calls)
     mix_rho      :      0.00s CPU      0.00s WALL (       8 calls)

     Called by c_bands:
     init_us_2    :      0.02s CPU      0.03s WALL (     612 calls)
     init_us_2:cp :      0.02s CPU      0.02s WALL (     612 calls)
     cegterg      :      0.75s CPU      0.84s WALL (     288 calls)

     Called by *egterg:
     cdiaghg      :      0.14s CPU      0.15s WALL (    1097 calls)
     h_psi        :      0.57s CPU      0.65s WALL (    1169 calls)
     g_psi        :      0.00s CPU      0.00s WALL (     845 calls)

     Called by h_psi:
     h_psi:calbec :      0.03s CPU      0.03s WALL (    1169 calls)
     vloc_psi     :      0.52s CPU      0.59s WALL (    1169 calls)
     add_vuspsi   :      0.02s CPU      0.02s WALL (    1169 calls)

     General routines
     calbec       :      0.03s CPU      0.03s WALL (    1169 calls)
     fft          :      0.00s CPU      0.01s WALL (      80 calls)
     ffts         :      0.00s CPU      0.00s WALL (       8 calls)
     fftw         :      0.53s CPU      0.61s WALL (   19506 calls)
 
     Parallel routines
 
     PWSCF        :      1.08s CPU      2.57s WALL

 
   This run was terminated on:  13:53:28   4Dec2023            

=------------------------------------------------------------------------------=
   JOB DONE.
=------------------------------------------------------------------------------=
