
     Program PWSCF v.7.1 starts on  5Apr2024 at 13: 3: 0 

     This program is part of the open-source Quantum ESPRESSO suite
     for quantum simulation of materials; please cite
         "P. Giannozzi et al., J. Phys.:Condens. Matter 21 395502 (2009);
         "P. Giannozzi et al., J. Phys.:Condens. Matter 29 465901 (2017);
         "P. Giannozzi et al., J. Chem. Phys. 152 154105 (2020);
          URL http://www.quantum-espresso.org", 
     in publications or presentations arising from this work. More details at
     http://www.quantum-espresso.org/quote

     Parallel version (MPI), running on     8 processors

     MPI processes distributed on     1 nodes
     238003 MiB available memory on the printing compute node when the environment starts
 
     Reading input from pw_mp-1550_nscf_k0_E65.in
Warning: card &IONS ignored
Warning: card / ignored
Warning: card &CELL ignored
Warning: card / ignored

     Current dimensions of program PWSCF are:
     Max number of different atomic species (ntypx) = 10
     Max number of k-points (npk) =  40000
     Max angular momentum in pseudopotentials (lmaxx) =  4

     Atomic positions and unit cell read from directory:
     out/mp-1550.save/
     Atomic positions from file used, from input discarded
 
 
     R & G space division:  proc/nbgrp/npool/nimage =       8
     Subspace diagonalization in iterative solution of the eigenvalue problem:
     one sub-group per band group will be used
     scalapack distributed-memory algorithm (size of sub-group:  2*  2 procs)

 
     Parallelization info
     --------------------
     sticks:   dense  smooth     PW     G-vecs:    dense   smooth      PW
     Min         119     119     30                 2448     2448     305
     Max         120     120     31                 2452     2452     308
     Sum         955     955    241                19603    19603    2445
 
     Using Slab Decomposition
 


     bravais-lattice index     =            2
     lattice parameter (alat)  =      10.3424  a.u.
     unit-cell volume          =     276.5700 (a.u.)^3
     number of atoms/cell      =            2
     number of atomic types    =            2
     number of electrons       =        16.00
     number of Kohn-Sham states=          912
     kinetic-energy cutoff     =      65.0000  Ry
     charge density cutoff     =     260.0000  Ry
     Exchange-correlation= PBE
                           (   1   4   3   4   0   0   0)

     celldm(1)=  10.342409  celldm(2)=   0.000000  celldm(3)=   0.000000
     celldm(4)=   0.000000  celldm(5)=   0.000000  celldm(6)=   0.000000

     crystal axes: (cart. coord. in units of alat)
               a(1) = (  -0.500000   0.000000   0.500000 )  
               a(2) = (   0.000000   0.500000   0.500000 )  
               a(3) = (  -0.500000   0.500000   0.000000 )  

     reciprocal axes: (cart. coord. in units 2 pi/alat)
               b(1) = ( -1.000000 -1.000000  1.000000 )  
               b(2) = (  1.000000  1.000000  1.000000 )  
               b(3) = ( -1.000000  1.000000 -1.000000 )  


     PseudoPot. # 1 for Al read from file:
     /usr/scratch4/magr4985/FGWC/FGWC/pseudo/SG15/Al.upf
     MD5 check sum: 2d9e7bc02555220d62fad08c3c4858e7
     Pseudo is Norm-conserving, Zval = 11.0
     Generated using ONCVPSP code by D. R. Hamann
     Using radial grid of  602 points,  4 beta functions with: 
                l(1) =   0
                l(2) =   0
                l(3) =   1
                l(4) =   1

     PseudoPot. # 2 for P  read from file:
     /usr/scratch4/magr4985/FGWC/FGWC/pseudo/SG15/P.upf
     MD5 check sum: 0688a67b2b263c6b42d3d97c42745426
     Pseudo is Norm-conserving, Zval =  5.0
     Generated using ONCVPSP code by D. R. Hamann
     Using radial grid of  602 points,  4 beta functions with: 
                l(1) =   0
                l(2) =   0
                l(3) =   1
                l(4) =   1

     atomic species   valence    mass     pseudopotential
        Al            11.00    26.98150     Al( 1.00)
        P              5.00    30.97380     P ( 1.00)

     24 Sym. Ops. (no inversion) found



   Cartesian axes

     site n.     atom                  positions (alat units)
         1           Al  tau(   1) = (   0.0000000   0.0000000   0.0000000  )
         2           P   tau(   2) = (  -0.7500000   0.7500000   0.7500000  )

     number of k points=     1  Gaussian smearing, width (Ry)=  0.0005
                       cart. coord. in units 2pi/alat
        k(    1) = (   0.0000000   0.0000000   0.0000000), wk =   2.0000000

     Dense  grid:    19603 G-vectors     FFT dimensions: (  40,  40,  40)

     Estimated max dynamical RAM per process >      61.35 MB

     Estimated total dynamical RAM >     490.79 MB

     The potential is recalculated from file :
     out/mp-1550.save/charge-density

     Starting wfcs are random

     Band Structure Calculation
     Davidson diagonalization with overlap

     ethr =  5.00E-06,  avg # of iterations =  8.0

     total cpu time spent up to now is       25.1 secs

     End of band structure calculation

          k = 0.0000 0.0000 0.0000 (  2445 PWs)   bands (ev):

   -96.2795 -57.7718 -57.7718 -57.7718  -5.2917   6.1831   6.1831   6.1831
     9.4032  10.7296  10.7296  10.7296  15.0398  15.0398  16.4296  18.4360
    18.4360  18.4360  22.3736  30.0108  30.0108  30.0108  31.2995  31.2995
    32.4611  32.4611  32.4611  36.2548  36.2548  36.2548  41.8882  41.8882
    41.8882  44.7792  44.8081  44.8081  48.0769  48.0769  48.6912  48.6912
    48.6912  50.7175  50.7175  50.7175  51.2671  51.7982  51.7982  51.7982
    52.5446  52.5446  52.5446  53.0762  53.0762  53.0762  56.8347  57.9131
    57.9131  57.9131  58.8942  58.8942  58.8942  61.4540  66.7651  71.6596
    71.6596  75.0492  75.0492  75.0492  77.0598  77.0598  77.0598  77.5382
    77.5382  79.0351  79.5252  79.5252  79.5252  83.7310  83.7310  83.7310
    88.9017  88.9017  89.5761  89.5761  89.5761  89.6986  89.6986  89.6986
    92.1637  92.3971  92.3971  92.9459  92.9459  92.9459  94.4083  94.4083
    94.4083  96.3046  96.3046  96.3046  97.2318  97.4307  97.4307  97.4307
    98.2348  98.2348  98.2348  98.8170  99.7933  99.7933  99.7933  99.8627
    99.8627 100.4684 100.4684 100.4684 101.0822 106.1314 106.1314 106.1314
   107.1309 107.1309 108.3899 111.9514 111.9514 111.9514 114.5269 114.5269
   114.5269 115.4068 115.4068 115.4068 116.0156 116.0156 116.0156 116.7348
   116.7348 117.9796 120.2623 120.2623 120.2623 123.4805 123.4805 125.5667
   125.5667 125.5667 125.8653 127.4323 127.4323 128.4564 128.4564 128.4564
   129.4207 130.5904 130.5904 130.5904 131.1150 131.8987 131.8987 131.8987
   132.0100 132.0100 132.0100 132.1239 132.1239 132.1239 133.1193 133.1193
   133.1193 137.1113 137.1113 137.1113 141.8814 144.4478 144.4478 144.4478
   146.7489 146.7489 146.9559 148.0435 148.0435 148.0435 149.9968 149.9968
   149.9968 155.6453 155.6453 157.3695 157.3695 157.3695 160.0537 160.0537
   160.0537 161.0291 163.8457 163.8457 164.8229 164.8229 164.8229 165.9989
   165.9989 165.9989 167.2388 167.2388 167.2388 168.2036 169.3636 169.3636
   169.5592 169.5592 169.5592 170.0091 170.0091 170.0091 170.3638 170.3638
   170.3638 171.0260 171.0260 171.0260 171.3070 171.3070 171.6379 171.6379
   171.6379 172.3820 172.6242 172.6242 172.6242 172.9986 172.9986 172.9986
   173.2013 173.3428 173.5775 173.5775 173.5775 174.8465 175.0905 175.0905
   175.7964 175.7964 175.7964 177.6398 177.6398 178.0608 178.0608 178.0608
   178.4829 178.4829 178.4829 178.7829 178.7829 178.7829 179.0733 179.0733
   179.0733 179.0897 179.0897 185.3942 185.3942 185.3942 186.1697 186.1697
   186.8361 191.8106 191.8106 191.8106 193.6853 193.6853 193.6853 195.1092
   195.1092 195.1092 195.5127 195.5127 195.5127 196.2150 197.1702 197.1702
   197.1702 198.4141 198.4141 198.4704 198.4704 198.4704 198.5640 199.8214
   200.2969 200.2969 200.2969 202.3559 202.3559 203.8705 203.8705 203.8705
   207.1938 207.1938 207.1938 207.9583 207.9583 207.9583 207.9628 207.9628
   207.9628 209.0276 209.0276 210.3528 211.0040 211.0040 211.0040 214.1269
   214.1269 214.1269 214.8219 214.8219 215.7102 215.7102 215.7102 216.0053
   216.7112 216.7112 216.7112 216.7949 216.7949 216.7949 217.5467 217.5467
   217.5467 217.8023 217.8023 225.2570 225.2570 225.2570 229.0506 230.0569
   230.0569 230.0569 232.4927 233.0979 233.0979 233.0979 234.8103 234.8103
   235.9862 236.0646 236.0646 236.0646 237.2315 237.2315 237.2315 238.2389
   238.2389 238.2389 239.7020 239.7020 241.4619 242.7222 242.7222 242.7222
   243.7623 243.7623 243.7623 244.3191 244.3191 244.3191 244.3720 244.3720
   246.4835 247.1063 247.1063 247.1063 247.3219 247.3219 248.2791 251.2880
   251.2880 251.2880 251.4216 251.4216 251.4216 251.4603 251.4603 251.4603
   251.5362 251.5362 251.5362 256.0089 256.0089 256.0089 256.0411 256.0411
   256.0411 256.0541 256.0541 256.1721 256.1721 256.1721 256.3431 256.8548
   256.8548 256.8548 256.9333 257.7180 257.7180 257.7180 258.6706 258.6706
   258.6706 258.6769 258.6769 260.5599 260.5599 260.5599 261.6471 262.3432
   262.3432 262.3432 264.2902 265.7923 265.7923 267.5023 267.5023 267.5023
   267.9982 267.9982 267.9982 269.9545 269.9545 269.9545 270.0164 270.0164
   270.0164 271.8347 271.8347 274.5520 274.5520 275.2825 275.2825 275.2825
   275.6706 275.6706 275.6706 275.7510 275.7510 275.7510 275.9537 275.9537
   275.9537 276.8554 276.8554 277.0066 277.0066 277.0066 277.2784 277.9724
   277.9724 277.9724 278.3487 278.3487 278.3487 278.6250 279.4655 279.4655
   279.4655 280.0234 280.9751 283.3978 283.3978 285.2199 285.2199 285.2199
   286.8387 286.8387 286.8387 287.0922 287.0922 287.0922 287.1884 287.1884
   287.8373 287.8373 287.8373 288.5528 289.2700 289.2700 289.2700 289.5466
   289.6538 289.6538 289.6538 291.5153 291.5153 291.5628 291.5628 291.5628
   291.6192 291.6192 291.6192 291.9468 291.9468 291.9468 292.1419 292.1419
   292.1419 292.2645 292.2645 292.4643 292.5246 292.5246 292.5246 292.8424
   292.8424 292.8424 293.2556 293.3518 293.3518 293.3518 293.3717 293.3717
   293.3717 293.3748 293.3748 293.5523 293.5523 293.5523 293.7638 293.7638
   293.7695 293.7695 293.7695 311.9110 311.9110 311.9110 312.1588 312.1588
   312.6162 313.4822 313.4822 313.4822 317.2341 317.2341 317.2341 317.7345
   319.3416 319.3416 319.3830 321.8298 321.8298 321.8298 324.3761 324.3761
   324.3761 324.8920 324.8920 324.8920 325.2244 325.2244 325.2244 325.6220
   325.6220 327.6083 328.3343 328.3343 328.3343 328.9463 328.9463 328.9463
   330.4359 330.4359 330.6744 331.1513 331.1513 331.1513 332.5624 335.6261
   335.6261 335.6261 335.7194 335.7194 335.7194 335.7267 335.7267 335.7267
   335.8723 335.8723 335.8723 337.6481 337.6481 337.8511 337.8511 337.8511
   338.0145 338.0145 338.0145 338.1802 338.1802 338.1802 338.2036 338.2036
   338.2870 338.2870 338.2870 338.7481 338.7481 338.7524 338.7524 338.7524
   338.8198 342.6077 342.6077 342.6077 343.9855 343.9855 343.9855 344.2952
   344.2952 344.6484 344.8579 344.8579 344.8579 350.5022 350.5022 350.6168
   350.6168 350.6168 352.9657 354.2241 354.2241 354.2241 354.3500 354.3500
   354.3500 354.9235 354.9235 354.9235 355.1228 355.1228 355.1228 355.3020
   355.3020 355.3020 355.6684 355.6684 355.6684 356.3800 356.4063 356.4063
   356.4063 356.4699 356.4699 356.6994 356.6994 356.6994 356.8191 356.8191
   357.7011 365.1623 365.7615 365.7615 365.7615 366.4205 366.4205 366.4205
   366.8568 367.9439 367.9439 367.9439 368.0851 368.0851 368.0851 368.3306
   368.3306 368.3306 368.3699 368.3699 368.6565 370.1038 370.1038 370.1185
   370.1185 370.1185 370.3103 370.3103 370.3103 370.5038 370.5038 370.5038
   370.6739 371.3541 371.3541 371.3584 371.3584 371.3584 371.7094 371.7094
   371.7094 371.9690 371.9690 371.9690 372.2342 376.3549 376.3549 376.3549
   376.4453 376.4453 376.4453 376.4486 376.4486 376.4486 376.4616 376.4616
   376.6635 378.3945 378.3945 378.3945 378.3952 378.4373 378.4373 378.4373
   378.5006 378.5006 378.5006 378.5010 378.5010 390.8492 390.8492 390.9115
   390.9115 390.9115 391.0742 392.2266 392.2266 392.2266 393.2374 393.2374
   393.2374 394.0603 394.0603 394.0603 394.7172 394.7172 394.7172 394.8775
   394.8775 394.8775 395.1942 395.6007 395.6007 395.6973 395.6973 395.8867
   395.8867 395.8867 396.1058 397.7364 397.7364 397.7364 398.7974 398.8250
   398.8250 398.8250 401.3107 401.3107 401.3107 402.2545 402.2545 402.2545
   402.8754 402.8754 402.8754 403.0745 403.8670 403.8670 405.6245 405.6245
   405.6245 405.8589 405.8589 406.7835 406.7835 406.7835 407.1361 407.2274
   407.2274 408.6790 408.6790 408.6791 409.4344 409.4344 409.4344 409.9047
   409.9047 409.9047 410.2050 410.2050 410.2218 410.2218 410.2218 410.5834
   410.5834 410.8204 410.8204 410.8204 411.6064 411.6064 411.6064 412.0385
   412.1480 412.1480 412.1480 412.4490 412.4490 412.4490 412.4991 412.6104
   412.6104 412.6104 412.7460 412.7925 412.7925 412.7925 413.1232 413.1232
   413.1232 413.4363 413.4363 413.4363 413.5741 415.1178 415.1178 415.1178
   415.1293 415.1293 415.5194 415.5194 415.5194 415.6921 415.6921 415.6921
   415.8257 415.8257 415.8257 416.2564 416.2564 418.1182 418.1182 418.3188
   418.3188 418.3188 418.7726 418.7858 418.7858 418.7858 418.9376 418.9376
   418.9376 419.0223 419.0223 419.0223 419.2926 419.2926 419.2926 419.3678
   419.3678 419.5915 419.5915 419.5915 419.7284 427.7226 427.7226 427.7226
   428.0207 428.3041 428.3041 428.3041 428.7129 437.4582 437.4582 437.4981
   437.4981 437.4981 437.6366 437.6366 437.6366 437.7221 437.7221 437.7221
   437.8309 437.8309 437.8309 437.8542 437.8542 443.4487 443.4487 444.0814
   444.2377 444.2377 444.2377 445.6526 445.6526 445.6526 445.9720 445.9720
   446.4948 446.4948 446.4948 446.6643 446.6643 446.6643 446.8320 446.8320

     the Fermi energy is     7.6369 ev
     (compare with:     7.6369 eV, computed in scf)

     Writing all to output data dir out/mp-1550.save/
 
     init_run     :      0.05s CPU      0.07s WALL (       1 calls)
     electrons    :     23.95s CPU     24.76s WALL (       1 calls)

     Called by init_run:
     wfcinit      :      0.00s CPU      0.00s WALL (       1 calls)
     potinit      :      0.01s CPU      0.01s WALL (       1 calls)
     hinit0       :      0.01s CPU      0.04s WALL (       1 calls)

     Called by electrons:
     c_bands      :     23.95s CPU     24.76s WALL (       1 calls)
     v_of_rho     :      0.01s CPU      0.01s WALL (       1 calls)

     Called by c_bands:
     init_us_2    :      0.00s CPU      0.00s WALL (       1 calls)
     init_us_2:cp :      0.00s CPU      0.00s WALL (       1 calls)
     cegterg      :     23.09s CPU     23.85s WALL (       1 calls)

     Called by *egterg:
     cdiaghg      :     22.14s CPU     22.85s WALL (       9 calls)
     h_psi        :      0.54s CPU      0.56s WALL (      10 calls)
     g_psi        :      0.00s CPU      0.00s WALL (       8 calls)

     Called by h_psi:
     h_psi:calbec :      0.01s CPU      0.01s WALL (      10 calls)
     vloc_psi     :      0.52s CPU      0.55s WALL (      10 calls)
     add_vuspsi   :      0.00s CPU      0.00s WALL (      10 calls)

     General routines
     calbec       :      0.01s CPU      0.01s WALL (      10 calls)
     fft          :      0.00s CPU      0.03s WALL (      10 calls)
     fftw         :      0.48s CPU      0.50s WALL (   10352 calls)
 
     Parallel routines
 
     PWSCF        :     24.28s CPU     25.18s WALL

 
   This run was terminated on:  13: 3:25   5Apr2024            

=------------------------------------------------------------------------------=
   JOB DONE.
=------------------------------------------------------------------------------=
