
     Program PWSCF v.7.1 starts on 20Dec2023 at 13:14:33 

     This program is part of the open-source Quantum ESPRESSO suite
     for quantum simulation of materials; please cite
         "P. Giannozzi et al., J. Phys.:Condens. Matter 21 395502 (2009);
         "P. Giannozzi et al., J. Phys.:Condens. Matter 29 465901 (2017);
         "P. Giannozzi et al., J. Chem. Phys. 152 154105 (2020);
          URL http://www.quantum-espresso.org", 
     in publications or presentations arising from this work. More details at
     http://www.quantum-espresso.org/quote

     Parallel version (MPI), running on    24 processors

     MPI processes distributed on     1 nodes
     123311 MiB available memory on the printing compute node when the environment starts
 
     Reading input from pw_mp-1519_scf_k3000_E50.in
Warning: card &CELL ignored
Warning: card / ignored

     Current dimensions of program PWSCF are:
     Max number of different atomic species (ntypx) = 10
     Max number of k-points (npk) =  40000
     Max angular momentum in pseudopotentials (lmaxx) =  4
 
     K-points division:     npool     =       2
     R & G space division:  proc/nbgrp/npool/nimage =      12
     Subspace diagonalization in iterative solution of the eigenvalue problem:
     a serial algorithm will be used

 
     Parallelization info
     --------------------
     sticks:   dense  smooth     PW     G-vecs:    dense   smooth      PW
     Min          84      84     25                 1749     1749     289
     Max          85      85     26                 1750     1750     292
     Sum        1015    1015    301                20995    20995    3479
 
     Using Slab Decomposition
 


     bravais-lattice index     =            2
     lattice parameter (alat)  =      12.0786  a.u.
     unit-cell volume          =     440.5421 (a.u.)^3
     number of atoms/cell      =            2
     number of atomic types    =            2
     number of electrons       =        26.00
     number of Kohn-Sham states=           26
     kinetic-energy cutoff     =      50.0000  Ry
     charge density cutoff     =     200.0000  Ry
     scf convergence threshold =      1.0E-10
     mixing beta               =       0.7000
     number of iterations used =            8  plain     mixing
     Exchange-correlation= PBE
                           (   1   4   3   4   0   0   0)

     celldm(1)=  12.078578  celldm(2)=   0.000000  celldm(3)=   0.000000
     celldm(4)=   0.000000  celldm(5)=   0.000000  celldm(6)=   0.000000

     crystal axes: (cart. coord. in units of alat)
               a(1) = (  -0.500000   0.000000   0.500000 )  
               a(2) = (   0.000000   0.500000   0.500000 )  
               a(3) = (  -0.500000   0.500000   0.000000 )  

     reciprocal axes: (cart. coord. in units 2 pi/alat)
               b(1) = ( -1.000000 -1.000000  1.000000 )  
               b(2) = (  1.000000  1.000000  1.000000 )  
               b(3) = ( -1.000000  1.000000 -1.000000 )  


     PseudoPot. # 1 for Ca read from file:
     /usr/scratch4/magr4985/MG/HTDF/pseudo/SG15/Ca.upf
     MD5 check sum: b43c970dc090f2312d256360aabdb6f1
     Pseudo is Norm-conserving, Zval = 10.0
     Generated using ONCVPSP code by D. R. Hamann
     Using radial grid of  602 points,  6 beta functions with: 
                l(1) =   0
                l(2) =   0
                l(3) =   1
                l(4) =   1
                l(5) =   2
                l(6) =   2

     PseudoPot. # 2 for Te read from file:
     /usr/scratch4/magr4985/MG/HTDF/pseudo/SG15/Te.upf
     MD5 check sum: dd4de4dac1e38587f63aaf3700bb29d3
     Pseudo is Norm-conserving, Zval = 16.0
     Generated using ONCVPSP code by D. R. Hamann
     Using radial grid of  602 points,  6 beta functions with: 
                l(1) =   0
                l(2) =   0
                l(3) =   1
                l(4) =   1
                l(5) =   2
                l(6) =   2

     atomic species   valence    mass     pseudopotential
        Ca            10.00    40.07800     Ca( 1.00)
        Te            16.00   127.60000     Te( 1.00)

     48 Sym. Ops., with inversion, found



   Cartesian axes

     site n.     atom                  positions (alat units)
         1           Ca  tau(   1) = (   0.0000000   0.0000000   0.0000000  )
         2           Te  tau(   2) = (  -0.5000000   0.5000000   0.5000000  )

     number of k points=    72  Gaussian smearing, width (Ry)=  0.0005
                       cart. coord. in units 2pi/alat
        k(    1) = (   0.0000000   0.0000000   0.0000000), wk =   0.0011574
        k(    2) = (  -0.0833333   0.0833333  -0.0833333), wk =   0.0092593
        k(    3) = (  -0.1666667   0.1666667  -0.1666667), wk =   0.0092593
        k(    4) = (  -0.2500000   0.2500000  -0.2500000), wk =   0.0092593
        k(    5) = (  -0.3333333   0.3333333  -0.3333333), wk =   0.0092593
        k(    6) = (  -0.4166667   0.4166667  -0.4166667), wk =   0.0092593
        k(    7) = (   0.5000000  -0.5000000   0.5000000), wk =   0.0046296
        k(    8) = (   0.0000000   0.1666667   0.0000000), wk =   0.0069444
        k(    9) = (  -0.0833333   0.2500000  -0.0833333), wk =   0.0277778
        k(   10) = (  -0.1666667   0.3333333  -0.1666667), wk =   0.0277778
        k(   11) = (  -0.2500000   0.4166667  -0.2500000), wk =   0.0277778
        k(   12) = (  -0.3333333   0.5000000  -0.3333333), wk =   0.0277778
        k(   13) = (   0.5833333  -0.4166667   0.5833333), wk =   0.0277778
        k(   14) = (   0.5000000  -0.3333333   0.5000000), wk =   0.0277778
        k(   15) = (   0.4166667  -0.2500000   0.4166667), wk =   0.0277778
        k(   16) = (   0.3333333  -0.1666667   0.3333333), wk =   0.0277778
        k(   17) = (   0.2500000  -0.0833333   0.2500000), wk =   0.0277778
        k(   18) = (   0.1666667  -0.0000000   0.1666667), wk =   0.0138889
        k(   19) = (   0.0000000   0.3333333   0.0000000), wk =   0.0069444
        k(   20) = (  -0.0833333   0.4166667  -0.0833333), wk =   0.0277778
        k(   21) = (  -0.1666667   0.5000000  -0.1666667), wk =   0.0277778
        k(   22) = (  -0.2500000   0.5833333  -0.2500000), wk =   0.0277778
        k(   23) = (   0.6666667  -0.3333333   0.6666667), wk =   0.0277778
        k(   24) = (   0.5833333  -0.2500000   0.5833333), wk =   0.0277778
        k(   25) = (   0.5000000  -0.1666667   0.5000000), wk =   0.0277778
        k(   26) = (   0.4166667  -0.0833333   0.4166667), wk =   0.0277778
        k(   27) = (   0.3333333   0.0000000   0.3333333), wk =   0.0138889
        k(   28) = (   0.0000000   0.5000000   0.0000000), wk =   0.0069444
        k(   29) = (  -0.0833333   0.5833333  -0.0833333), wk =   0.0277778
        k(   30) = (  -0.1666667   0.6666667  -0.1666667), wk =   0.0277778
        k(   31) = (   0.7500000  -0.2500000   0.7500000), wk =   0.0277778
        k(   32) = (   0.6666667  -0.1666667   0.6666667), wk =   0.0277778
        k(   33) = (   0.5833333  -0.0833333   0.5833333), wk =   0.0277778
        k(   34) = (   0.5000000   0.0000000   0.5000000), wk =   0.0138889
        k(   35) = (   0.0000000   0.6666667   0.0000000), wk =   0.0069444
        k(   36) = (  -0.0833333   0.7500000  -0.0833333), wk =   0.0277778
        k(   37) = (   0.8333333  -0.1666667   0.8333333), wk =   0.0277778
        k(   38) = (   0.7500000  -0.0833333   0.7500000), wk =   0.0277778
        k(   39) = (   0.6666667  -0.0000000   0.6666667), wk =   0.0138889
        k(   40) = (   0.0000000   0.8333333   0.0000000), wk =   0.0069444
        k(   41) = (   0.9166667  -0.0833333   0.9166667), wk =   0.0277778
        k(   42) = (   0.8333333   0.0000000   0.8333333), wk =   0.0138889
        k(   43) = (   0.0000000  -1.0000000   0.0000000), wk =   0.0034722
        k(   44) = (  -0.1666667   0.3333333   0.0000000), wk =   0.0277778
        k(   45) = (  -0.2500000   0.4166667  -0.0833333), wk =   0.0555556
        k(   46) = (  -0.3333333   0.5000000  -0.1666667), wk =   0.0555556
        k(   47) = (   0.5833333  -0.4166667   0.7500000), wk =   0.0555556
        k(   48) = (   0.5000000  -0.3333333   0.6666667), wk =   0.0277778
        k(   49) = (  -0.1666667   0.5000000   0.0000000), wk =   0.0277778
        k(   50) = (  -0.2500000   0.5833333  -0.0833333), wk =   0.0555556
        k(   51) = (   0.6666667  -0.3333333   0.8333333), wk =   0.0555556
        k(   52) = (   0.5833333  -0.2500000   0.7500000), wk =   0.0555556
        k(   53) = (   0.5000000  -0.1666667   0.6666667), wk =   0.0555556
        k(   54) = (   0.4166667  -0.0833333   0.5833333), wk =   0.0555556
        k(   55) = (   0.3333333   0.0000000   0.5000000), wk =   0.0277778
        k(   56) = (  -0.1666667   0.6666667  -0.0000000), wk =   0.0277778
        k(   57) = (   0.7500000  -0.2500000   0.9166667), wk =   0.0555556
        k(   58) = (   0.6666667  -0.1666667   0.8333333), wk =   0.0555556
        k(   59) = (   0.5833333  -0.0833333   0.7500000), wk =   0.0555556
        k(   60) = (   0.5000000   0.0000000   0.6666667), wk =   0.0277778
        k(   61) = (   0.8333333  -0.1666667   1.0000000), wk =   0.0277778
        k(   62) = (   0.7500000  -0.0833333   0.9166667), wk =   0.0555556
        k(   63) = (   0.6666667   0.0000000   0.8333333), wk =   0.0277778
        k(   64) = (  -0.1666667  -1.0000000  -0.0000000), wk =   0.0138889
        k(   65) = (   0.6666667  -0.3333333   1.0000000), wk =   0.0277778
        k(   66) = (   0.5833333  -0.2500000   0.9166667), wk =   0.0555556
        k(   67) = (   0.5000000  -0.1666667   0.8333333), wk =   0.0277778
        k(   68) = (   0.6666667  -0.1666667   1.0000000), wk =   0.0277778
        k(   69) = (   0.5833333  -0.0833333   0.9166667), wk =   0.0555556
        k(   70) = (   0.5000000   0.0000000   0.8333333), wk =   0.0277778
        k(   71) = (  -0.3333333  -1.0000000   0.0000000), wk =   0.0138889
        k(   72) = (  -0.5000000  -1.0000000   0.0000000), wk =   0.0069444

     Dense  grid:    20995 G-vectors     FFT dimensions: (  40,  40,  40)

     Estimated max dynamical RAM per process >       7.31 MB

     Estimated total dynamical RAM >     170.38 MB

     Initial potential from superposition of free atoms

     starting charge      25.7572, renormalised to      26.0000
     Starting wfcs are random

     total cpu time spent up to now is        0.4 secs

     Self-consistent Calculation

     iteration #  1     ecut=    50.00 Ry     beta= 0.70
     Davidson diagonalization with overlap
     ethr =  1.00E-02,  avg # of iterations =  9.5

     Threshold (ethr) on eigenvalues was too large:
     Diagonalizing with lowered threshold

     Davidson diagonalization with overlap
     ethr =  8.81E-05,  avg # of iterations =  3.7

     total cpu time spent up to now is        2.8 secs

     total energy              =    -248.76958422 Ry
     estimated scf accuracy    <       0.01918764 Ry

     iteration #  2     ecut=    50.00 Ry     beta= 0.70
     Davidson diagonalization with overlap
     ethr =  7.38E-05,  avg # of iterations =  2.0

     total cpu time spent up to now is        3.3 secs

     total energy              =    -248.77235811 Ry
     estimated scf accuracy    <       0.00101352 Ry

     iteration #  3     ecut=    50.00 Ry     beta= 0.70
     Davidson diagonalization with overlap
     ethr =  3.90E-06,  avg # of iterations =  4.4

     total cpu time spent up to now is        3.9 secs

     total energy              =    -248.77248692 Ry
     estimated scf accuracy    <       0.00009221 Ry

     iteration #  4     ecut=    50.00 Ry     beta= 0.70
     Davidson diagonalization with overlap
     ethr =  3.55E-07,  avg # of iterations =  2.0

     total cpu time spent up to now is        4.4 secs

     total energy              =    -248.77250052 Ry
     estimated scf accuracy    <       0.00001151 Ry

     iteration #  5     ecut=    50.00 Ry     beta= 0.70
     Davidson diagonalization with overlap
     ethr =  4.43E-08,  avg # of iterations =  2.0

     total cpu time spent up to now is        4.9 secs

     total energy              =    -248.77250370 Ry
     estimated scf accuracy    <       0.00000038 Ry

     iteration #  6     ecut=    50.00 Ry     beta= 0.70
     Davidson diagonalization with overlap
     ethr =  1.46E-09,  avg # of iterations =  2.0

     total cpu time spent up to now is        5.4 secs

     total energy              =    -248.77250379 Ry
     estimated scf accuracy    <          3.1E-09 Ry

     iteration #  7     ecut=    50.00 Ry     beta= 0.70
     Davidson diagonalization with overlap
     ethr =  1.18E-11,  avg # of iterations =  3.3

     total cpu time spent up to now is        6.0 secs

     total energy              =    -248.77250379 Ry
     estimated scf accuracy    <          1.8E-10 Ry

     iteration #  8     ecut=    50.00 Ry     beta= 0.70
     Davidson diagonalization with overlap
     ethr =  6.88E-13,  avg # of iterations =  2.0

     total cpu time spent up to now is        6.5 secs

     End of self-consistent calculation

          k = 0.0000 0.0000 0.0000 (  2685 PWs)   bands (ev):

   -33.1462 -27.9282 -27.9282 -27.9141 -27.9141 -27.9141 -14.1333 -14.1333
   -14.1333  -2.9072   7.5059   7.5059   7.5059  10.4762  10.4762  10.4762
    10.5461  10.8987  10.8987  15.5056  17.6748  17.6748  17.6748  18.6209
    18.6209  18.6209

          k =-0.0833 0.0833-0.0833 (  2673 PWs)   bands (ev):

   -33.1461 -27.9282 -27.9282 -27.9141 -27.9141 -27.9141 -14.1363 -14.1334
   -14.1334  -2.8670   7.1016   7.3914   7.3914  10.4781  10.5628  10.5628
    10.9850  11.0670  11.0670  15.5867  17.2580  17.4261  17.4261  18.4263
    18.4263  19.0470

          k =-0.1667 0.1667-0.1667 (  2659 PWs)   bands (ev):

   -33.1457 -27.9282 -27.9282 -27.9140 -27.9140 -27.9140 -14.1442 -14.1337
   -14.1337  -2.7534   6.2932   7.1244   7.1244  10.4768  10.7711  10.7711
    11.5333  11.5333  11.8992  15.4934  16.7187  16.7187  17.0464  18.3308
    18.3308  19.7189

          k =-0.2500 0.2500-0.2500 (  2644 PWs)   bands (ev):

   -33.1452 -27.9282 -27.9282 -27.9140 -27.9139 -27.9139 -14.1551 -14.1341
   -14.1341  -2.5879   5.4701   6.8284   6.8284  10.5383  11.0674  11.0674
    12.1617  12.1617  12.6830  15.1992  15.8656  15.8656  17.4460  18.3868
    18.3868  20.5882

          k =-0.3333 0.3333-0.3333 (  2641 PWs)   bands (ev):

   -33.1447 -27.9283 -27.9283 -27.9139 -27.9137 -27.9137 -14.1658 -14.1345
   -14.1345  -2.4082   4.7868   6.5811   6.5811  10.7053  11.4288  11.4288
    12.7165  12.8063  12.8063  15.0432  15.0432  15.6168  17.9106  18.5274
    18.5274  21.8288

          k =-0.4167 0.4167-0.4167 (  2608 PWs)   bands (ev):

   -33.1443 -27.9283 -27.9283 -27.9139 -27.9136 -27.9136 -14.1737 -14.1348
   -14.1348  -2.2651   4.3328   6.4213   6.4213  10.9776  11.7815  11.7815
    12.2529  13.3532  13.3532  14.3376  14.3376  16.5153  18.2967  18.7140
    18.7140  21.4009

          k = 0.5000-0.5000 0.5000 (  2638 PWs)   bands (ev):

   -33.1442 -27.9283 -27.9283 -27.9138 -27.9136 -27.9136 -14.1765 -14.1349
   -14.1349  -2.2102   4.1729   6.3663   6.3663  11.1875  11.9427  11.9477
    11.9477  13.7618  13.7618  13.8457  13.8457  16.9777  18.5867  18.8183
    18.8183  20.5742

          k = 0.0000 0.1667 0.0000 (  2681 PWs)   bands (ev):

   -33.1460 -27.9282 -27.9282 -27.9141 -27.9141 -27.9141 -14.1357 -14.1342
   -14.1342  -2.8544   6.9796   7.3751   7.3751  10.3413  10.7190  10.7190
    10.7707  10.9362  11.4969  15.6364  17.1764  17.1764  17.4217  17.8807
    19.2446  19.2446

          k =-0.0833 0.2500-0.0833 (  2649 PWs)   bands (ev):

   -33.1458 -27.9283 -27.9281 -27.9141 -27.9140 -27.9140 -14.1416 -14.1351
   -14.1341  -2.7671   6.3931   7.1478   7.1810  10.3108  10.7959  10.9094
    11.2123  11.2319  12.2475  15.6607  16.3748  16.7442  17.1739  17.9871
    19.2416  19.7741

          k =-0.1667 0.3333-0.1667 (  2634 PWs)   bands (ev):

   -33.1453 -27.9283 -27.9281 -27.9141 -27.9139 -27.9138 -14.1514 -14.1358
   -14.1342  -2.6219   5.6694   6.8294   6.9107  10.3869  11.0148  11.1425
    11.7405  11.8832  13.0046  15.2179  15.7512  16.1431  17.4448  18.0784
    19.1037  20.4279

          k =-0.2500 0.4167-0.2500 (  2631 PWs)   bands (ev):

   -33.1448 -27.9283 -27.9282 -27.9140 -27.9137 -27.9137 -14.1620 -14.1362
   -14.1348  -2.4498   4.9989   6.5470   6.6550  10.5465  11.3398  11.4724
    12.2880  12.5080  13.2320  14.8155  15.4955  15.5533  17.9138  18.2619
    19.1077  21.4347

          k =-0.3333 0.5000-0.3333 (  2627 PWs)   bands (ev):

   -33.1444 -27.9283 -27.9282 -27.9139 -27.9136 -27.9136 -14.1706 -14.1362
   -14.1356  -2.2961   4.4999   6.3512   6.4661  10.8145  11.7083  11.8188
    12.3688  12.7465  13.5830  14.1661  14.9325  16.1531  18.3439  18.5992
    19.1286  21.3941

          k = 0.5833-0.4167 0.5833 (  2622 PWs)   bands (ev):

   -33.1442 -27.9283 -27.9283 -27.9138 -27.9136 -27.9135 -14.1750 -14.1365
   -14.1357  -2.2115   4.2535   6.2611   6.3703  11.1499  11.8982  11.9707
    12.0234  13.1826  13.5047  14.1135  14.5040  16.6396  18.6338  18.9161
    19.1717  20.3932

          k = 0.5000-0.3333 0.5000 (  2625 PWs)   bands (ev):

   -33.1442 -27.9283 -27.9282 -27.9138 -27.9136 -27.9136 -14.1741 -14.1372
   -14.1349  -2.2287   4.3029   6.2824   6.3781  11.1359  11.7891  11.9230
    12.1413  12.9568  13.7336  14.1311  14.5284  16.5230  18.4896  18.6562
    19.3050  20.6531

          k = 0.4167-0.2500 0.4167 (  2628 PWs)   bands (ev):

   -33.1445 -27.9283 -27.9282 -27.9139 -27.9137 -27.9136 -14.1681 -14.1375
   -14.1340  -2.3408   4.6393   6.4128   6.4888  10.8553  11.4395  11.7893
    12.4472  12.5760  13.4634  14.5985  14.9566  15.8564  18.1215  18.3622
    19.2787  21.5389

          k = 0.3333-0.1667 0.3333 (  2627 PWs)   bands (ev):

   -33.1450 -27.9283 -27.9282 -27.9140 -27.9138 -27.9137 -14.1586 -14.1373
   -14.1333  -2.5061   5.2063   6.6406   6.6902  10.6733  11.0797  11.4160
    11.8965  12.7837  12.9073  15.2654  15.4459  15.4581  17.8823  18.0103
    19.0958  21.0641

          k = 0.2500-0.0833 0.2500 (  2636 PWs)   bands (ev):

   -33.1455 -27.9283 -27.9281 -27.9140 -27.9140 -27.9139 -14.1482 -14.1365
   -14.1329  -2.6739   5.9133   6.9375   6.9530  10.6150  10.7851  11.0667
    11.2871  12.0788  12.5302  15.4103  15.8993  16.4002  17.5975  17.7274
    18.9247  20.3583

          k = 0.1667-0.0000 0.1667 (  2665 PWs)   bands (ev):

   -33.1459 -27.9282 -27.9282 -27.9141 -27.9140 -27.9140 -14.1400 -14.1351
   -14.1329  -2.8030   6.6238   7.2192   7.2344  10.5940  10.5981  10.7346
    10.9373  11.4715  11.7126  15.6415  16.5375  17.3614  17.3650  17.6305
    18.7943  19.7551

          k = 0.0000 0.3333 0.0000 (  2637 PWs)   bands (ev):

   -33.1456 -27.9283 -27.9281 -27.9142 -27.9139 -27.9139 -14.1421 -14.1367
   -14.1367  -2.7129   6.1047   7.0944   7.0944  10.0179  10.9775  11.0415
    11.2907  11.2907  13.0126  15.6812  15.8903  16.6050  16.6050  18.5527
    20.2246  20.2251

          k =-0.0833 0.4167-0.0833 (  2637 PWs)   bands (ev):

   -33.1452 -27.9283 -27.9280 -27.9142 -27.9137 -27.9137 -14.1490 -14.1380
   -14.1372  -2.6012   5.6410   6.8398   6.9062   9.9735  11.1640  11.1736
    11.6760  11.6941  13.7870  14.8016  15.7847  16.3202  16.8451  18.9105
    19.9103  20.6722

          k =-0.1667 0.5000-0.1667 (  2632 PWs)   bands (ev):

   -33.1448 -27.9282 -27.9280 -27.9141 -27.9136 -27.9136 -14.1580 -14.1388
   -14.1378  -2.4557   5.1533   6.4906   6.6887  10.1276  11.4536  11.4938
    12.0655  12.1843  13.7534  14.3870  15.7640  15.9424  17.5115  19.0996
    19.7893  21.3230

          k =-0.2500 0.5833-0.2500 (  2632 PWs)   bands (ev):

   -33.1444 -27.9282 -27.9281 -27.9140 -27.9136 -27.9135 -14.1661 -14.1392
   -14.1387  -2.3126   4.7365   6.1984   6.5017  10.4022  11.8239  11.8668
    12.3448  12.4118  13.4309  14.1175  15.5807  16.0479  18.3502  19.2159
    19.7144  21.3014

          k = 0.6667-0.3333 0.6667 (  2626 PWs)   bands (ev):

   -33.1441 -27.9282 -27.9281 -27.9139 -27.9136 -27.9135 -14.1710 -14.1410
   -14.1379  -2.2148   4.4762   6.0221   6.3817  10.7914  11.9431  12.0313
    12.2795  12.6496  13.2845  14.2169  15.2873  16.2099  18.9610  19.1761
    19.5537  20.4651

          k = 0.5833-0.2500 0.5833 (  2620 PWs)   bands (ev):

   -33.1441 -27.9282 -27.9281 -27.9138 -27.9136 -27.9135 -14.1715 -14.1426
   -14.1365  -2.1967   4.4322   5.9745   6.3470  11.2640  11.5635  11.8587
    12.4564  12.7674  13.1989  14.6694  14.9744  16.1477  18.4285  19.1563
    19.4668  20.9440

          k = 0.5000-0.1667 0.5000 (  2629 PWs)   bands (ev):

   -33.1443 -27.9283 -27.9280 -27.9138 -27.9136 -27.9136 -14.1678 -14.1434
   -14.1349  -2.2653   4.6150   6.0577   6.4020  11.1957  11.5359  11.8766
    12.1663  12.4851  13.7238  14.6379  14.9464  15.8638  17.8955  19.2180
    19.6833  21.0387

          k = 0.4167-0.0833 0.4167 (  2633 PWs)   bands (ev):

   -33.1446 -27.9283 -27.9281 -27.9139 -27.9137 -27.9137 -14.1611 -14.1428
   -14.1336  -2.3953   4.9801   6.2710   6.5393  11.0557  11.2059  11.6307
    11.8729  12.7150  13.4646  14.9810  15.1380  15.4749  17.6243  19.0160
    19.7066  21.3924

          k = 0.3333 0.0000 0.3333 (  2643 PWs)   bands (ev):

   -33.1451 -27.9283 -27.9281 -27.9140 -27.9139 -27.9137 -14.1538 -14.1404
   -14.1328  -2.5449   5.4435   6.5946   6.7368  10.9408  10.9782  11.1885
    11.4464  12.7650  12.9529  15.3185  15.3350  15.7280  17.5522  18.3988
    19.2481  21.1891

          k = 0.0000 0.5000 0.0000 (  2650 PWs)   bands (ev):

   -33.1450 -27.9282 -27.9280 -27.9143 -27.9136 -27.9136 -14.1506 -14.1401
   -14.1401  -2.5303   5.4071   6.8150   6.8150   9.6495  11.1929  11.2267
    11.8935  11.8935  14.0964  14.6850  16.0906  16.4063  16.4063  19.7158
    20.3551  21.1977

          k =-0.0833 0.5833-0.0833 (  2631 PWs)   bands (ev):

   -33.1447 -27.9281 -27.9279 -27.9143 -27.9135 -27.9135 -14.1564 -14.1414
   -14.1414  -2.4246   5.1299   6.5666   6.6703   9.6413  11.3549  11.4567
    12.1357  12.1496  13.4118  15.1104  16.0083  16.3905  17.0494  20.2268
    20.3140  21.5765

          k =-0.1667 0.6667-0.1667 (  2627 PWs)   bands (ev):

   -33.1443 -27.9280 -27.9279 -27.9142 -27.9134 -27.9134 -14.1624 -14.1434
   -14.1417  -2.3101   4.9005   6.1782   6.5184   9.8751  11.6660  11.8671
    12.2689  12.3452  12.8753  14.8544  16.1548  16.2971  18.1144  20.2788
    20.3973  20.9563

          k = 0.7500-0.2500 0.7500 (  2634 PWs)   bands (ev):

   -33.1441 -27.9280 -27.9279 -27.9140 -27.9134 -27.9133 -14.1662 -14.1463
   -14.1409  -2.2183   4.7570   5.8275   6.3986  10.2369  12.0035  12.0527
    12.2775  12.4923  12.7601  14.6329  16.1375  16.1637  18.8009  19.4856
    20.3317  21.0286

          k = 0.6667-0.1667 0.6667 (  2617 PWs)   bands (ev):

   -33.1440 -27.9281 -27.9279 -27.9139 -27.9135 -27.9134 -14.1667 -14.1493
   -14.1392  -2.1775   4.7081   5.6295   6.3361  10.7014  11.7580  11.9817
    12.3935  12.6838  13.0017  14.7638  15.8651  15.9341  18.4687  18.7058
    20.5696  21.5888

          k = 0.5833-0.0833 0.5833 (  2629 PWs)   bands (ev):

   -33.1441 -27.9282 -27.9279 -27.9137 -27.9136 -27.9135 -14.1649 -14.1506
   -14.1370  -2.2020   4.7358   5.6492   6.3418  11.2515  11.5959  11.7086
    12.0323  12.9795  13.2587  15.0254  15.4717  15.5988  17.8279  18.8601
    20.6142  21.7518

          k = 0.5000 0.0000 0.5000 (  2642 PWs)   bands (ev):

   -33.1443 -27.9283 -27.9280 -27.9138 -27.9137 -27.9136 -14.1628 -14.1483
   -14.1349  -2.2833   4.8238   5.8902   6.4142  11.4286  11.5176  11.5525
    11.8744  12.6563  13.7208  14.9084  15.0469  15.6005  17.5917  19.4563
    20.2644  20.9404

          k = 0.0000 0.6667 0.0000 (  2626 PWs)   bands (ev):

   -33.1444 -27.9280 -27.9278 -27.9143 -27.9133 -27.9133 -14.1587 -14.1435
   -14.1435  -2.3641   5.0012   6.6040   6.6040   9.3373  11.3544  11.3732
    12.2674  12.2674  12.9436  16.0651  16.2116  16.7936  16.7936  20.3761
    21.2806  21.8087

          k =-0.0833 0.7500-0.0833 (  2632 PWs)   bands (ev):

   -33.1442 -27.9278 -27.9278 -27.9143 -27.9133 -27.9132 -14.1623 -14.1455
   -14.1444  -2.2896   4.8991   6.3639   6.5103   9.3902  11.4646  11.5082
    12.3347  12.3462  12.6363  15.8857  16.3207  17.0534  17.7340  20.5053
    21.1041  21.2209

          k = 0.8333-0.1667 0.8333 (  2633 PWs)   bands (ev):

   -33.1440 -27.9279 -27.9278 -27.9142 -27.9133 -27.9132 -14.1639 -14.1490
   -14.1439  -2.2205   4.8919   5.9164   6.4170   9.6957  11.7014  11.8048
    12.2908  12.3703  12.5507  15.5075  16.2720  17.1197  18.4678  19.6681
    20.8698  21.2393

          k = 0.7500-0.0833 0.7500 (  2619 PWs)   bands (ev):

   -33.1439 -27.9280 -27.9277 -27.9141 -27.9133 -27.9132 -14.1625 -14.1541
   -14.1422  -2.1758   4.9997   5.4498   6.3492  10.1179  11.8270  12.1283
    12.2309  12.2814  12.8506  15.2868  15.8936  16.9641  18.4181  18.5599
    21.5665  22.0677

          k = 0.6667-0.0000 0.6667 (  2612 PWs)   bands (ev):

   -33.1439 -27.9281 -27.9278 -27.9139 -27.9135 -27.9133 -14.1605 -14.1570
   -14.1396  -2.1689   4.9860   5.3123   6.3225  10.6376  11.8346  11.9251
    12.0665  12.7201  13.1886  15.2986  15.3460  16.3784  17.9606  18.4556
    21.7145  22.2202

          k = 0.0000 0.8333 0.0000 (  2642 PWs)   bands (ev):

   -33.1441 -27.9278 -27.9277 -27.9144 -27.9132 -27.9132 -14.1644 -14.1460
   -14.1460  -2.2571   4.8465   6.4784   6.4784   9.1340  11.1295  11.4800
    12.3830  12.3830  12.5623  16.2755  16.7817  17.7135  17.7135  20.4135
    21.0651  21.0651

          k = 0.9167-0.0833 0.9167 (  2624 PWs)   bands (ev):

   -33.1440 -27.9278 -27.9276 -27.9143 -27.9131 -27.9131 -14.1654 -14.1479
   -14.1461  -2.2212   4.8520   6.2498   6.4316   9.2568  11.1419  11.5995
    12.3654  12.3794  12.5593  16.1639  16.6643  18.0446  18.3296  19.7774
    20.6215  21.1466

          k = 0.8333 0.0000 0.8333 (  2626 PWs)   bands (ev):

   -33.1439 -27.9278 -27.9276 -27.9142 -27.9132 -27.9132 -14.1639 -14.1517
   -14.1447  -2.1917   4.9448   5.7925   6.3840   9.6287  11.4849  11.8549
    12.2749  12.3279  12.6305  15.8778  16.2474  17.8525  18.3617  18.8477
    21.1571  22.2194

          k = 0.0000-1.0000 0.0000 (  2586 PWs)   bands (ev):

   -33.1440 -27.9277 -27.9276 -27.9144 -27.9131 -27.9131 -14.1665 -14.1470
   -14.1470  -2.2210   4.8196   6.4371   6.4371   9.0640  10.9181  11.5280
    12.3959  12.3959  12.5626  16.2961  16.9451  18.4891  18.4891  20.1846
    20.1846  20.4362

          k =-0.1667 0.3333 0.0000 (  2634 PWs)   bands (ev):

   -33.1454 -27.9283 -27.9281 -27.9141 -27.9139 -27.9138 -14.1468 -14.1377
   -14.1341  -2.6664   5.9039   6.9336   6.9595  10.2990  11.0414  11.1201
    11.1955  11.7960  13.0134  15.4750  15.6155  16.4911  17.0857  18.2923
    19.3163  20.7018

          k =-0.2500 0.4167-0.0833 (  2638 PWs)   bands (ev):

   -33.1450 -27.9283 -27.9281 -27.9141 -27.9138 -27.9137 -14.1552 -14.1396
   -14.1343  -2.5213   5.3474   6.6002   6.7235  10.4364  11.2039  11.4446
    11.6198  12.3815  13.4686  14.8189  15.4277  16.0122  17.4242  18.6310
    19.4543  21.0464

          k =-0.3333 0.5000-0.1667 (  2629 PWs)   bands (ev):

   -33.1445 -27.9283 -27.9281 -27.9139 -27.9137 -27.9136 -14.1640 -14.1404
   -14.1351  -2.3654   4.8413   6.3141   6.5200  10.6421  11.4813  11.8251
    12.1080  12.5593  13.5931  14.3461  15.2959  15.9067  17.8585  18.8799
    19.6894  21.3781

          k = 0.5833-0.4167 0.7500 (  2628 PWs)   bands (ev):

   -33.1442 -27.9283 -27.9281 -27.9138 -27.9136 -27.9135 -14.1706 -14.1405
   -14.1361  -2.2433   4.4876   6.1341   6.3850  10.9423  11.8062  11.9281
    12.3140  12.5142  13.7050  14.1372  15.0417  16.1866  18.3517  19.1067
    19.5811  20.6956

          k = 0.5000-0.3333 0.6667 (  2620 PWs)   bands (ev):

   -33.1441 -27.9282 -27.9281 -27.9138 -27.9136 -27.9135 -14.1730 -14.1403
   -14.1366  -2.1966   4.3604   6.0735   6.3380  11.2416  11.5637  12.0219
    12.2964  12.9479  13.1849  14.4971  14.8476  16.3136  18.5817  19.1507
    19.6868  20.1884

          k =-0.1667 0.5000 0.0000 (  2637 PWs)   bands (ev):

   -33.1449 -27.9282 -27.9280 -27.9142 -27.9136 -27.9136 -14.1541 -14.1412
   -14.1375  -2.4918   5.3000   6.6332   6.6983   9.9589  11.2475  11.4791
    11.8350  12.1327  13.9630  14.4658  15.6265  16.4653  16.9590  19.4924
    19.9567  21.1573

          k =-0.2500 0.5833-0.0833 (  2627 PWs)   bands (ev):

   -33.1445 -27.9282 -27.9280 -27.9141 -27.9135 -27.9135 -14.1606 -14.1434
   -14.1382  -2.3635   4.9799   6.2869   6.5108  10.1644  11.4624  11.8863
    12.0812  12.3997  13.4148  14.4605  15.5378  16.5295  17.5837  19.8004
    20.1774  21.0831

          k = 0.6667-0.3333 0.8333 (  2637 PWs)   bands (ev):

   -33.1442 -27.9281 -27.9280 -27.9140 -27.9135 -27.9134 -14.1660 -14.1446
   -14.1391  -2.2506   4.7335   5.9815   6.3711  10.4750  11.8041  11.9880
    12.2675  12.4747  13.2887  14.3030  15.5544  16.3808  18.3141  19.6892
    20.1068  20.7848

          k = 0.5833-0.2500 0.7500 (  2629 PWs)   bands (ev):

   -33.1440 -27.9281 -27.9280 -27.9138 -27.9136 -27.9134 -14.1686 -14.1458
   -14.1391  -2.1877   4.6063   5.8098   6.2966  10.8768  11.5956  12.0736
    12.4344  12.5446  13.2391  14.5402  15.5614  16.0394  18.3521  19.6113
    20.1171  20.4932

          k = 0.5000-0.1667 0.6667 (  2631 PWs)   bands (ev):

   -33.1441 -27.9282 -27.9279 -27.9138 -27.9137 -27.9134 -14.1677 -14.1469
   -14.1378  -2.1968   4.6267   5.7996   6.2992  11.2343  11.3717  11.8944
    12.3186  12.6935  13.3897  14.6816  15.3018  16.0022  18.1105  19.2098
    20.1363  21.1739

          k = 0.4167-0.0833 0.5833 (  2630 PWs)   bands (ev):

   -33.1443 -27.9283 -27.9280 -27.9139 -27.9136 -27.9135 -14.1641 -14.1467
   -14.1361  -2.2744   4.7847   5.9569   6.3791  10.9486  11.5790  11.8946
    11.9907  12.5850  13.8507  14.2462  15.1630  16.1841  17.7177  19.4909
    20.1351  21.0514

          k = 0.3333 0.0000 0.5000 (  2624 PWs)   bands (ev):

   -33.1446 -27.9283 -27.9280 -27.9140 -27.9136 -27.9136 -14.1595 -14.1441
   -14.1348  -2.3945   5.0388   6.2579   6.5260  10.6804  11.3674  11.6836
    11.8871  12.5954  13.6909  14.4115  15.2159  16.1225  17.4545  19.5209
    19.7313  21.2587

          k =-0.1667 0.6667-0.0000 (  2636 PWs)   bands (ev):

   -33.1444 -27.9280 -27.9279 -27.9142 -27.9134 -27.9133 -14.1602 -14.1447
   -14.1419  -2.3358   4.9686   6.4041   6.4746   9.6706  11.3976  11.7572
    12.2435  12.3077  12.9110  15.3383  15.8256  17.1979  17.2141  20.5341
    20.8257  20.8997

          k = 0.7500-0.2500 0.9167 (  2628 PWs)   bands (ev):

   -33.1441 -27.9280 -27.9278 -27.9142 -27.9134 -27.9133 -14.1632 -14.1473
   -14.1427  -2.2482   4.8838   6.0270   6.3371   9.9484  11.5488  12.0415
    12.3120  12.4687  12.6164  15.1162  15.8463  17.0743  18.1152  19.8727
    20.9784  21.0865

          k = 0.6667-0.1667 0.8333 (  2627 PWs)   bands (ev):

   -33.1440 -27.9280 -27.9278 -27.9140 -27.9134 -27.9132 -14.1640 -14.1507
   -14.1424  -2.1863   4.8909   5.6414   6.2594  10.3284  11.7014  11.9924
    12.3013  12.4287  13.0442  14.9376  15.8729  16.5739  18.2887  19.4536
    20.7734  21.3996

          k = 0.5833-0.0833 0.7500 (  2620 PWs)   bands (ev):

   -33.1439 -27.9281 -27.9278 -27.9138 -27.9136 -27.9133 -14.1628 -14.1537
   -14.1406  -2.1689   4.9144   5.4504   6.2398  10.7781  11.5751  11.8943
    12.2651  12.5199  13.4949  14.9601  15.5735  16.1196  18.0972  18.8876
    21.3114  21.6920

          k = 0.5000 0.0000 0.6667 (  2641 PWs)   bands (ev):

   -33.1440 -27.9282 -27.9279 -27.9137 -27.9137 -27.9134 -14.1628 -14.1524
   -14.1382  -2.2018   4.8349   5.6092   6.2815  11.2922  11.3112  11.7355
    12.0921  12.8183  13.5750  14.7968  15.1913  16.1677  17.7883  18.9430
    21.3079  21.3582

          k = 0.8333-0.1667 1.0000 (  2631 PWs)   bands (ev):

   -33.1440 -27.9278 -27.9277 -27.9143 -27.9132 -27.9132 -14.1639 -14.1473
   -14.1456  -2.2372   4.8788   6.2657   6.3081   9.4836  11.3214  11.7534
    12.3197  12.3785  12.5551  16.0381  16.1211  17.7670  17.9538  19.9441
    21.0607  21.1925

          k = 0.7500-0.0833 0.9167 (  2625 PWs)   bands (ev):

   -33.1439 -27.9279 -27.9276 -27.9142 -27.9133 -27.9131 -14.1634 -14.1508
   -14.1455  -2.1925   4.9556   5.8369   6.2349   9.8287  11.4044  12.0324
    12.2019  12.3785  12.7018  15.7469  16.0755  17.2697  18.5234  19.3490
    20.7069  21.9525

          k = 0.6667 0.0000 0.8333 (  2623 PWs)   bands (ev):

   -33.1439 -27.9280 -27.9277 -27.9140 -27.9134 -27.9132 -14.1603 -14.1559
   -14.1435  -2.1675   5.1313   5.3613   6.2168  10.2653  11.6552  11.9260
    12.2582  12.3250  13.1694  15.4672  15.7098  16.6453  18.5202  18.7555
    21.4428  22.1279

          k =-0.1667-1.0000-0.0000 (  2614 PWs)   bands (ev):

   -33.1439 -27.9278 -27.9276 -27.9143 -27.9132 -27.9131 -14.1652 -14.1482
   -14.1471  -2.2049   4.8825   6.2199   6.2400   9.4193  11.1514  11.7525
    12.2944  12.3966  12.5894  16.1042  16.5349  17.8290  18.7297  19.5677
    20.1548  21.8668

          k = 0.6667-0.3333 1.0000 (  2644 PWs)   bands (ev):

   -33.1442 -27.9281 -27.9279 -27.9140 -27.9135 -27.9134 -14.1624 -14.1479
   -14.1393  -2.2682   4.8795   5.9998   6.3022  10.4415  11.4906  11.9908
    12.1783  12.5643  13.2858  14.4954  15.3896  17.0010  17.6173  19.6681
    20.8342  20.9964

          k = 0.5833-0.2500 0.9167 (  2632 PWs)   bands (ev):

   -33.1440 -27.9281 -27.9278 -27.9139 -27.9136 -27.9133 -14.1636 -14.1506
   -14.1410  -2.1960   4.8571   5.7133   6.1756  10.7877  11.4673  11.8125
    12.2905  12.5843  13.5651  14.5576  15.4612  16.5049  18.0433  19.3340
    21.1226  21.2325

          k = 0.5000-0.1667 0.8333 (  2628 PWs)   bands (ev):

   -33.1439 -27.9281 -27.9278 -27.9138 -27.9137 -27.9132 -14.1641 -14.1512
   -14.1419  -2.1690   4.8660   5.5891   6.1336  11.0813  11.1973  11.9365
    12.3593  12.3757  13.8045  14.6621  15.7550  15.8541  18.1481  19.6191
    20.6972  21.1643

          k = 0.6667-0.1667 1.0000 (  2625 PWs)   bands (ev):

   -33.1440 -27.9280 -27.9277 -27.9141 -27.9134 -27.9132 -14.1624 -14.1507
   -14.1446  -2.1942   4.9619   5.8425   6.0519  10.2860  11.4002  11.9158
    12.3653  12.4223  13.0522  15.2251  15.6639  16.9494  18.2939  19.4165
    21.1618  21.6958

          k = 0.5833-0.0833 0.9167 (  2631 PWs)   bands (ev):

   -33.1439 -27.9280 -27.9277 -27.9139 -27.9136 -27.9131 -14.1602 -14.1543
   -14.1453  -2.1633   5.1275   5.5003   5.9676  10.6882  11.4050  11.6758
    12.2887  12.3792  13.7852  15.0987  15.6874  16.0322  18.6627  19.4370
    20.7055  22.1268

          k = 0.5000 0.0000 0.8333 (  2639 PWs)   bands (ev):

   -33.1439 -27.9281 -27.9277 -27.9137 -27.9137 -27.9132 -14.1597 -14.1555
   -14.1436  -2.1639   5.0949   5.4378   6.0246  11.0590  11.1987  11.6660
    12.3453  12.3694  14.1625  14.6789  15.4886  16.0506  18.4422  19.1703
    21.3747  21.8253

          k =-0.3333-1.0000 0.0000 (  2614 PWs)   bands (ev):

   -33.1439 -27.9279 -27.9276 -27.9141 -27.9134 -27.9131 -14.1615 -14.1518
   -14.1473  -2.1716   5.0709   5.7900   5.9020  10.2327  11.3159  11.9075
    12.2169  12.3984  13.1663  15.7708  15.8779  16.3404  19.1617  19.4373
    20.0977  22.1003

          k =-0.5000-1.0000 0.0000 (  2608 PWs)   bands (ev):

   -33.1438 -27.9280 -27.9276 -27.9137 -27.9137 -27.9131 -14.1566 -14.1566
   -14.1475  -2.1547   5.3805   5.3805   5.7528  11.1597  11.1597  11.3554
    12.2594  12.3993  14.6511  14.6550  15.6173  15.6173  19.4068  19.4068
    20.0701  22.0844

     the Fermi energy is     8.4098 ev

!    total energy              =    -248.77250379 Ry
     estimated scf accuracy    <          4.4E-12 Ry
     smearing contrib. (-TS)   =      -0.00000000 Ry
     internal energy E=F+TS    =    -248.77250379 Ry

     The total energy is F=E-TS. E is the sum of the following terms:
     one-electron contribution =    -119.97074509 Ry
     hartree contribution      =      64.02170406 Ry
     xc contribution           =     -28.82026660 Ry
     ewald contribution        =    -164.00319616 Ry

     convergence has been achieved in   8 iterations

     Writing all to output data dir out/mp-1519.save/
 
     init_run     :      0.17s CPU      0.24s WALL (       1 calls)
     electrons    :      5.69s CPU      6.07s WALL (       1 calls)

     Called by init_run:
     wfcinit      :      0.15s CPU      0.18s WALL (       1 calls)
     potinit      :      0.01s CPU      0.01s WALL (       1 calls)
     hinit0       :      0.01s CPU      0.03s WALL (       1 calls)

     Called by electrons:
     c_bands      :      5.05s CPU      5.37s WALL (       9 calls)
     sum_band     :      0.61s CPU      0.65s WALL (       9 calls)
     v_of_rho     :      0.02s CPU      0.03s WALL (       9 calls)
     mix_rho      :      0.00s CPU      0.00s WALL (       9 calls)

     Called by c_bands:
     init_us_2    :      0.05s CPU      0.06s WALL (     684 calls)
     init_us_2:cp :      0.05s CPU      0.05s WALL (     684 calls)
     cegterg      :      4.61s CPU      4.87s WALL (     324 calls)

     Called by *egterg:
     cdiaghg      :      1.02s CPU      1.05s WALL (    1381 calls)
     h_psi        :      3.24s CPU      3.49s WALL (    1453 calls)
     g_psi        :      0.02s CPU      0.02s WALL (    1093 calls)

     Called by h_psi:
     h_psi:calbec :      0.10s CPU      0.10s WALL (    1453 calls)
     vloc_psi     :      3.05s CPU      3.28s WALL (    1453 calls)
     add_vuspsi   :      0.07s CPU      0.08s WALL (    1453 calls)

     General routines
     calbec       :      0.09s CPU      0.10s WALL (    1453 calls)
     fft          :      0.01s CPU      0.03s WALL (      90 calls)
     ffts         :      0.00s CPU      0.00s WALL (       9 calls)
     fftw         :      3.20s CPU      3.44s WALL (   58296 calls)
 
     Parallel routines
 
     PWSCF        :      5.95s CPU      6.63s WALL

 
   This run was terminated on:  13:14:40  20Dec2023            

=------------------------------------------------------------------------------=
   JOB DONE.
=------------------------------------------------------------------------------=
