
     Program PWSCF v.7.1 starts on 17Nov2023 at  8: 9:13 

     This program is part of the open-source Quantum ESPRESSO suite
     for quantum simulation of materials; please cite
         "P. Giannozzi et al., J. Phys.:Condens. Matter 21 395502 (2009);
         "P. Giannozzi et al., J. Phys.:Condens. Matter 29 465901 (2017);
         "P. Giannozzi et al., J. Chem. Phys. 152 154105 (2020);
          URL http://www.quantum-espresso.org", 
     in publications or presentations arising from this work. More details at
     http://www.quantum-espresso.org/quote

     Parallel version (MPI), running on    24 processors

     MPI processes distributed on     1 nodes
     123221 MiB available memory on the printing compute node when the environment starts
 
     Reading input from pw_mp-463_nscf_k260_E69.in
Warning: card &IONS ignored
Warning: card / ignored
Warning: card &CELL ignored
Warning: card / ignored

     Current dimensions of program PWSCF are:
     Max number of different atomic species (ntypx) = 10
     Max number of k-points (npk) =  40000
     Max angular momentum in pseudopotentials (lmaxx) =  4

     Atomic positions and unit cell read from directory:
     out/mp-463.save/
     Atomic positions from file used, from input discarded
 
 
     K-points division:     npool     =       2
     R & G space division:  proc/nbgrp/npool/nimage =      12
     Subspace diagonalization in iterative solution of the eigenvalue problem:
     one sub-group per band group will be used
     scalapack distributed-memory algorithm (size of sub-group:  3*  3 procs)

 
     Parallelization info
     --------------------
     sticks:   dense  smooth     PW     G-vecs:    dense   smooth      PW
     Min          79      79     23                 1629     1629     260
     Max          80      80     24                 1633     1633     263
     Sum         955     955    283                19579    19579    3143
 
     Using Slab Decomposition
 


     bravais-lattice index     =            2
     lattice parameter (alat)  =      10.0322  a.u.
     unit-cell volume          =     252.4249 (a.u.)^3
     number of atoms/cell      =            2
     number of atomic types    =            2
     number of electrons       =        16.00
     number of Kohn-Sham states=         1200
     kinetic-energy cutoff     =      69.0000  Ry
     charge density cutoff     =     276.0000  Ry
     Exchange-correlation= PBE
                           (   1   4   3   4   0   0   0)

     celldm(1)=  10.032228  celldm(2)=   0.000000  celldm(3)=   0.000000
     celldm(4)=   0.000000  celldm(5)=   0.000000  celldm(6)=   0.000000

     crystal axes: (cart. coord. in units of alat)
               a(1) = (  -0.500000   0.000000   0.500000 )  
               a(2) = (   0.000000   0.500000   0.500000 )  
               a(3) = (  -0.500000   0.500000   0.000000 )  

     reciprocal axes: (cart. coord. in units 2 pi/alat)
               b(1) = ( -1.000000 -1.000000  1.000000 )  
               b(2) = (  1.000000  1.000000  1.000000 )  
               b(3) = ( -1.000000  1.000000 -1.000000 )  


     PseudoPot. # 1 for F  read from file:
     /usr/scratch4/magr4985/MG/HTDF/pseudo/SG15/F.upf
     MD5 check sum: 1d8275f47d602dd53cad6bcdc0eda7dc
     Pseudo is Norm-conserving, Zval =  7.0
     Generated using ONCVPSP code by D. R. Hamann
     Using radial grid of  602 points,  4 beta functions with: 
                l(1) =   0
                l(2) =   0
                l(3) =   1
                l(4) =   1

     PseudoPot. # 2 for K  read from file:
     /usr/scratch4/magr4985/MG/HTDF/pseudo/SG15/K.upf
     MD5 check sum: 254690d02b26e0029262a4c77e854448
     Pseudo is Norm-conserving, Zval =  9.0
     Generated using ONCVPSP code by D. R. Hamann
     Using radial grid of  602 points,  6 beta functions with: 
                l(1) =   0
                l(2) =   0
                l(3) =   1
                l(4) =   1
                l(5) =   2
                l(6) =   2

     atomic species   valence    mass     pseudopotential
        F              7.00    18.99840     F ( 1.00)
        K              9.00    39.09830     K ( 1.00)

     48 Sym. Ops., with inversion, found



   Cartesian axes

     site n.     atom                  positions (alat units)
         1           K   tau(   1) = (   0.0000000   0.0000000   0.0000000  )
         2           F   tau(   2) = (  -0.5000000   0.5000000   0.5000000  )

     number of k points=    16  Gaussian smearing, width (Ry)=  0.0005
                       cart. coord. in units 2pi/alat
        k(    1) = (   0.0000000   0.0000000   0.0000000), wk =   0.0092593
        k(    2) = (  -0.1666667   0.1666667  -0.1666667), wk =   0.0740741
        k(    3) = (  -0.3333333   0.3333333  -0.3333333), wk =   0.0740741
        k(    4) = (   0.5000000  -0.5000000   0.5000000), wk =   0.0370370
        k(    5) = (   0.0000000   0.3333333   0.0000000), wk =   0.0555556
        k(    6) = (  -0.1666667   0.5000000  -0.1666667), wk =   0.2222222
        k(    7) = (   0.6666667  -0.3333333   0.6666667), wk =   0.2222222
        k(    8) = (   0.5000000  -0.1666667   0.5000000), wk =   0.2222222
        k(    9) = (   0.3333333   0.0000000   0.3333333), wk =   0.1111111
        k(   10) = (   0.0000000   0.6666667   0.0000000), wk =   0.0555556
        k(   11) = (   0.8333333  -0.1666667   0.8333333), wk =   0.2222222
        k(   12) = (   0.6666667  -0.0000000   0.6666667), wk =   0.1111111
        k(   13) = (   0.0000000  -1.0000000   0.0000000), wk =   0.0277778
        k(   14) = (   0.6666667  -0.3333333   1.0000000), wk =   0.2222222
        k(   15) = (   0.5000000  -0.1666667   0.8333333), wk =   0.2222222
        k(   16) = (  -0.3333333  -1.0000000   0.0000000), wk =   0.1111111

     Dense  grid:    19579 G-vectors     FFT dimensions: (  40,  40,  40)

     Estimated max dynamical RAM per process >      77.30 MB

     Estimated total dynamical RAM >       1.81 GB

     The potential is recalculated from file :
     out/mp-463.save/charge-density

     Starting wfcs are random

     Band Structure Calculation
     ParO style diagonalization

     ethr =  5.00E-06,  avg # of iterations =  5.7

     total cpu time spent up to now is      409.9 secs

     End of band structure calculation

          k = 0.0000 0.0000 0.0000 (  2421 PWs)   bands (ev):

   -24.4126 -16.9480  -7.6508  -7.6508  -7.6508   1.6472   1.6472   1.6472
     7.9544  12.3977  12.3977  12.3977  14.0519  14.0519  18.7156  26.2004
    26.2004  26.2004  26.3202  26.3202  26.3202  28.8196  28.8196  28.8196
    30.6499  30.6499  34.9444  40.6436  40.6436  40.6436  42.3620  43.8604
    43.8604  46.2014  46.2014  46.2014  54.5784  54.5784  54.5784  55.0725
    55.0725  55.0725  55.6935  56.5727  56.5727  56.5727  57.7567  57.7567
    57.7567  58.6278  58.6278  58.6278  60.9236  60.9236  60.9236  60.9577
    60.9577  62.1311  62.1537  64.2869  64.2869  69.1684  69.1684  69.1684
    71.9310  71.9310  71.9310  80.0100  80.6159  80.6159  80.6159  86.2208
    86.2208  89.7254  89.7254  89.7254  92.6924  92.6924  92.6924  94.8889
    96.3919  96.3919  96.3919  96.8869  97.8799  97.8799  99.5523  99.5523
    99.5523 100.7024 100.7024 100.7024 101.8048 101.8048 101.8048 101.9616
   101.9616 101.9616 102.1535 102.1535 102.4570 102.4570 102.4570 103.1531
   103.4340 103.4340 103.4340 105.1539 105.1539 106.0508 106.0508 106.0508
   106.7633 111.2849 111.2849 113.0849 113.0849 113.0849 114.6151 114.6151
   114.6151 119.7007 121.4801 121.4801 121.4801 124.6098 125.1928 125.1928
   125.1928 125.4795 125.4795 125.6911 125.6911 125.6911 125.7504 125.7504
   125.7504 125.7955 125.7955 125.7955 126.1813 126.1813 130.0536 130.0536
   130.0536 135.9681 136.6244 136.6244 136.6244 139.5297 140.6408 140.6408
   140.6408 140.9873 140.9873 140.9873 141.6664 141.6664 141.6664 141.7508
   141.7508 141.7508 141.8241 145.6677 145.6724 145.6724 145.6724 145.6877
   145.6877 148.1799 148.1799 148.1799 149.4950 149.4950 152.9728 152.9728
   152.9728 163.6081 163.6081 163.6081 163.7714 163.7714 163.7714 168.5002
   168.5002 168.6118 168.6118 168.6118 168.9003 175.4346 175.4346 175.9344
   175.9344 175.9344 178.1187 178.1187 178.1187 178.1855 178.1855 178.1855
   179.3159 179.3159 179.3159 180.1978 180.1978 180.1978 180.5556 180.9300
   180.9300 181.8719 181.8719 181.8719 182.2011 182.6432 183.5165 183.5165
   183.5165 183.9869 183.9869 184.0202 184.0202 184.0202 184.9053 185.1068
   185.1068 185.1068 185.2570 185.2570 185.2570 185.5175 186.7491 186.7491
   186.7491 187.0955 187.0955 187.2034 187.2034 187.2034 187.8858 187.8858
   187.8858 188.3413 189.8727 189.8727 189.8727 189.9697 189.9697 190.0091
   190.0091 190.0091 190.5495 190.5495 190.5495 190.7274 190.7274 190.7739
   190.7739 190.7739 191.4826 199.6642 199.6642 201.2822 201.2822 201.2822
   203.0411 203.0411 203.0411 207.1687 207.1687 207.1687 207.5644 207.5644
   207.5644 207.7458 207.7458 207.7458 209.9018 212.0722 212.0722 212.1665
   212.1665 212.1665 212.1713 212.1713 212.1713 212.2967 215.5508 215.5508
   215.5508 220.2281 220.2281 220.4103 224.6481 225.8786 225.8786 225.8786
   225.9300 225.9300 225.9300 226.2868 226.2868 226.2868 226.3003 226.3003
   226.3965 226.3965 226.3965 227.1528 227.1528 227.1528 227.9270 227.9270
   227.9270 229.8481 229.8481 230.2118 231.2873 231.2873 231.2873 231.3323
   231.3323 231.3323 231.3600 231.3600 231.3600 231.4365 231.4365 231.5635
   231.5635 231.5635 233.7756 238.0340 238.0340 241.6179 241.6179 241.6179
   243.0003 243.0003 243.0003 250.8365 251.1847 251.1847 251.1847 252.6498
   252.6498 252.6498 252.7181 258.7183 259.0513 259.0513 259.9124 259.9124
   259.9124 260.6894 260.6894 260.6894 262.8027 262.8027 262.8027 264.2553
   266.4349 266.4349 266.4349 267.3041 267.3041 267.9095 267.9095 267.9095
   268.4653 268.4653 268.4653 268.5128 268.5128 268.5128 268.7653 268.7653
   268.7653 269.8021 269.8021 269.8021 270.6519 270.6519 270.6519 270.7211
   271.0399 271.0399 271.0399 271.1746 271.1746 271.1756 271.1756 271.1756
   272.8836 272.8836 273.5657 273.5890 273.5890 273.5890 273.6378 273.6378
   273.6378 273.6481 273.6481 273.7621 273.7621 273.7621 273.9665 273.9665
   273.9665 274.1143 274.6634 284.0330 284.0330 284.0330 286.1820 286.1820
   286.1820 288.3395 288.3395 289.4032 292.3325 292.3325 292.3325 292.3814
   292.3814 292.3814 292.5148 292.5148 292.6853 292.6853 292.6853 292.9588
   292.9588 292.9588 293.4323 294.1862 294.1862 294.1862 296.1575 296.1575
   296.2488 296.2488 296.2942 296.2942 296.2942 296.4196 296.4196 296.4196
   296.4832 296.4832 296.4832 296.5397 296.5397 296.5397 296.7444 296.7444
   296.7444 297.6421 297.7635 297.7635 297.7635 297.8863 297.8863 297.8863
   297.9595 297.9595 298.0078 303.9998 303.9998 303.9998 304.4666 304.7902
   304.7902 304.7902 305.6444 305.6444 305.6444 307.0858 307.0858 307.0858
   307.3427 307.7867 307.7867 307.7867 308.1366 308.1366 308.4353 308.4353
   308.4353 308.7485 309.2064 311.8330 311.8330 312.0222 312.0222 312.0222
   312.3220 312.3220 312.3220 312.4426 312.4426 312.4426 312.5176 312.5176
   312.5825 312.5825 312.5825 312.9822 313.3055 313.3055 313.3055 313.4172
   313.4172 314.6309 314.6309 314.6309 314.6487 314.6487 314.6487 314.8034
   314.8034 314.8034 314.8231 314.8231 314.8231 315.8491 315.8491 315.8848
   315.8848 315.8848 315.9115 322.7773 322.7773 325.5224 325.5224 325.5224
   333.6500 342.7176 342.7176 342.7176 343.3897 343.3897 343.3897 347.6322
   347.6322 350.3164 350.3164 350.3164 351.9016 351.9016 351.9016 352.0509
   352.0509 352.3098 352.3996 352.5309 352.5309 352.5309 352.5700 352.5700
   352.5700 352.6984 352.6984 352.6984 352.8344 352.8344 352.8344 352.8756
   352.8756 352.9374 353.9247 353.9247 353.9247 354.9285 356.2945 356.2945
   356.2945 356.5015 356.5015 356.5015 356.5628 356.5628 356.5628 356.8537
   356.8537 356.8537 358.5981 360.3894 360.3894 360.3894 360.4117 360.4117
   360.4156 360.4156 360.4555 360.4555 360.4555 360.4567 360.4567 360.4567
   360.5428 360.5428 360.5428 361.3966 361.3966 361.4801 361.4801 361.4801
   361.5536 371.3549 371.3549 371.3549 372.9933 372.9933 372.9933 373.5248
   373.5248 376.3010 376.3010 376.3010 376.5630 376.5630 376.5630 376.9467
   379.7874 379.7874 379.9079 379.9326 379.9326 379.9326 380.0722 380.0722
   380.1004 380.1004 380.1004 380.1978 380.1978 380.1978 380.2234 380.2234
   380.2234 380.2871 380.2871 380.2871 381.5562 382.1079 382.1079 382.1079
   383.3135 383.3135 383.3135 384.8499 384.8499 387.0701 387.0701 387.0701
   391.4900 392.9327 392.9327 393.6944 393.6944 393.6944 393.9377 393.9377
   393.9377 393.9565 393.9565 393.9565 393.9633 393.9633 393.9633 393.9757
   394.0582 394.6186 394.6186 394.6186 395.6380 396.7564 396.7564 396.7600
   396.7600 396.7600 396.8523 396.8523 396.8523 396.8825 396.8825 396.8825
   397.1927 398.6408 398.6408 398.6408 399.6396 399.6396 399.6396 400.3123
   400.3123 400.3123 400.3313 400.3313 400.3558 400.3558 400.3558 400.4495
   400.4495 400.4495 400.5359 400.6965 400.6965 401.1485 401.1485 401.1485
   401.8050 402.1928 402.1928 402.1928 402.4304 402.4304 402.4304 402.6104
   402.6104 402.6139 402.6139 402.6139 402.7799 414.0844 414.0844 414.0844
   417.1081 417.1081 418.8556 418.8556 419.1087 419.1087 419.1087 420.2805
   420.2805 420.2805 420.4922 420.4922 420.4922 420.7830 420.7830 420.7830
   421.2840 421.2840 421.3925 421.3925 421.3925 421.5372 421.6224 421.6224
   421.6224 422.2793 426.5274 429.4626 429.4626 429.4626 430.8449 430.8449
   430.8449 433.0264 435.1679 435.1839 435.1839 435.8702 435.8702 435.8702
   435.9181 435.9181 435.9181 436.1299 436.1299 436.1299 436.2020 436.2020
   436.2020 436.2909 436.2909 438.3582 438.3582 438.3582 439.1473 439.1473
   439.1473 439.1725 439.1725 439.1725 439.2138 439.2138 439.2138 439.3551
   439.3551 439.3551 439.6498 439.6498 439.6498 439.6647 439.6647 439.7211
   439.7211 439.7211 439.7736 439.7736 439.9563 439.9563 439.9563 439.9927
   439.9927 439.9927 440.0025 440.0025 440.0025 440.9112 441.3189 441.3465
   441.3465 441.3465 441.3875 441.3875 441.3875 441.4517 441.7192 441.7192
   442.3332 442.3332 442.3332 442.4174 442.4174 442.4174 442.4434 442.4434
   442.5235 442.5235 442.5235 442.5834 442.5834 442.5834 444.3272 444.3511
   444.3953 444.3953 444.3953 444.3990 444.3990 446.2244 446.2244 446.2400
   446.2400 446.2400 446.2540 446.2540 446.2540 446.2596 446.2596 446.2596
   446.3068 446.3068 446.3260 446.3260 446.3260 446.4890 446.5987 446.5987
   446.5987 446.7114 446.7114 446.7114 446.8237 458.0310 458.0310 458.0310
   458.8112 458.8112 458.8112 459.7705 461.3529 466.7795 466.7795 466.7795
   466.8873 466.8873 466.9336 466.9336 466.9336 466.9452 466.9452 466.9452
   466.9646 466.9646 466.9762 466.9762 466.9762 469.3284 469.3284 469.3284
   470.5369 470.5369 474.6825 474.6825 474.6825 475.5313 475.5352 475.5352
   475.5352 475.7309 475.7309 475.7309 475.8537 475.8537 475.8537 478.9671
   478.9671 479.0254 479.0254 479.0254 479.1295 483.2405 483.2907 483.2907
   483.2907 483.3220 483.3220 485.2398 485.2398 485.2398 485.2698 485.2698
   485.2698 485.2937 485.2937 485.2937 485.2948 485.2948 485.2948 486.4936
   486.4936 486.5462 486.5462 486.5462 486.5852 501.4571 501.4571 501.4571
   505.5214 505.5214 505.5214 506.2157 506.2157 506.8236 507.1983 507.1983
   507.1983 507.2122 507.2122 507.2122 507.2342 507.2342 507.2342 507.2824
   507.2824 507.2922 507.2922 507.2922 507.6538 509.6093 509.6093 509.6093
   512.9689 512.9689 512.9689 515.4159 515.4159 515.9509 515.9509 515.9509
   516.4902 516.4902 516.4902 516.7380 517.2110 517.6341 517.6341 517.6341
   519.2650 519.4169 519.4169 519.4169 519.5783 519.5783 522.0722 522.0722
   522.0722 522.4233 522.4233 522.4233 522.7470 522.7470 523.0250 523.0250
   523.0250 523.2688 523.2688 523.2688 523.3975 523.4387 523.4387 523.8635
   523.8635 523.8635 524.0327 524.0327 524.0327 524.2594 524.4146 524.5079
   524.5079 524.8551 524.8551 524.8551 524.9221 524.9221 524.9221 525.0039
   525.0039 525.0039 526.0603 526.0603 526.0603 526.1110 526.1110 526.1215
   526.1215 526.1215 526.2162 526.2162 526.2181 526.2181 526.2181 526.2573
   526.2573 526.2573 526.8261 527.1985 527.2244 527.2244 527.2244 527.2661
   527.2661 527.2776 527.2776 527.2776 527.2925 527.2925 527.2925 529.7536
   529.7536 529.7914 529.7914 529.7914 529.7937 529.7937 529.7937 529.8335
   529.8335 529.8335 529.8760 543.3297 543.3297 543.3297 544.7378 544.7378
   546.3706 547.0835 547.0835 547.0835 547.3979 547.3979 547.3979 548.0207
   548.2340 548.2340 548.2340 548.3055 548.3055 548.3055 548.4092 548.4092
   548.4092 548.4916 548.4916 548.6017 548.6017 548.6017 548.7646 548.7646
   548.7646 548.9246 548.9246 549.1000 549.1000 549.1000 549.3459 549.3561
   549.3561 549.3561 549.4323 549.4323 549.4323 552.1950 552.1950 552.2129
   552.2129 552.2129 552.2414 552.2457 552.2457 552.2457 552.2485 552.2485
   552.2485 552.3783 552.3783 552.4764 552.4764 552.4764 552.5360 552.5536
   552.5536 552.5536 552.5692 552.5692 552.5692 553.5816 553.5816 553.6468
   553.6468 553.6468 553.7046 556.5535 556.5535 556.5535 559.4183 559.4183
   559.4183 559.6972 559.6972 560.3179 560.3179 560.3179 561.5751 561.6513
   561.6513 561.6600 561.6600 561.6600 561.8667 561.8667 561.8667 562.0855
   562.0855 562.0855 562.2431 565.1601 565.5500 565.5500 565.5500 565.8765
   565.8765 565.8765 566.3735 566.3735 566.4124 566.4124 566.4124 566.8445
   566.8445 566.8445 566.8825 566.9691 566.9691 566.9691 567.0269 567.0269
   567.0269 567.0282 567.0282 570.2143 570.2143 570.2143 570.2835 570.2835
   570.2835 570.3063 570.3063 570.3151 570.3735 570.3735 570.3735 570.3742

          k =-0.1667 0.1667-0.1667 (  2457 PWs)   bands (ev):

   -24.3871 -16.9722  -7.7228  -7.6603  -7.6603   1.4107   1.5533   1.5533
     8.7056  12.0210  12.7581  12.7581  14.3074  14.3074  19.8476  23.7605
    24.6798  24.6798  25.7009  26.7731  26.7731  28.0772  28.0772  30.2203
    32.5360  32.5360  36.8277  38.7542  38.7542  41.0364  43.3869  44.3414
    45.0209  45.0209  47.2916  47.2916  50.7607  50.7607  51.1324  52.3592
    53.6112  53.6112  54.2167  55.4367  55.5818  55.5818  57.4605  58.5065
    58.5065  60.6111  60.6111  61.6325  61.6325  61.9057  62.8971  63.1179
    63.6663  63.6663  66.8270  67.7013  67.7013  69.4165  70.4724  70.4724
    71.1477  71.1477  72.4586  78.1512  81.1013  81.1013  82.2651  83.1276
    83.1276  87.8590  87.8590  89.1036  90.7865  91.7915  91.7915  92.2116
    92.6740  92.6740  93.3472  93.3472  94.9171  95.0405  95.0405  95.3512
    97.1115  98.9684  98.9684  99.8249 100.2013 100.2013 101.2451 102.4288
   102.4288 102.8864 102.9925 103.3906 103.3906 103.9916 105.5356 105.5356
   107.1335 107.6235 108.5746 108.5746 109.6353 110.6461 110.6461 111.5641
   111.5641 112.7413 112.7413 113.2061 113.2061 114.2188 114.2188 114.7232
   116.4200 116.7539 116.7539 117.4207 119.1766 119.8105 119.8105 121.2798
   123.5575 123.5575 123.8016 124.5968 124.5968 124.7598 126.8696 126.8696
   129.3548 129.9644 129.9644 130.0253 131.3207 131.3207 131.5016 132.4052
   132.8932 132.8932 133.3301 134.1713 134.7278 134.7278 137.5128 137.5128
   137.6817 139.4638 139.7404 139.7404 139.8795 139.8795 140.4044 145.0643
   145.1452 145.1452 148.7921 148.8401 148.8401 149.2806 149.2806 150.0837
   150.6221 150.6221 150.7473 151.7924 151.7924 153.6787 156.0981 156.0981
   157.0286 158.2853 158.2853 160.4290 163.3985 163.3985 163.9084 165.4686
   165.4686 166.4636 166.4636 166.5329 167.6804 169.1376 169.4297 169.4297
   170.5049 171.2923 171.2923 172.3385 172.6469 172.6469 172.9777 173.9123
   173.9123 174.1573 174.1573 175.5824 175.7795 175.7795 176.0650 178.9316
   178.9316 179.3184 180.1026 180.1026 180.7642 181.8979 182.2294 182.2294
   182.7126 182.7126 182.9236 183.0602 183.8820 183.8820 184.2454 184.7428
   185.2041 185.2041 185.4405 185.4405 187.0483 187.1702 187.1702 187.4660
   187.4660 187.4910 190.0566 190.0566 190.5080 190.8771 191.5376 191.5376
   191.6450 191.9376 191.9376 194.1207 194.1207 194.1501 194.5536 194.6930
   194.6930 195.1984 195.1984 195.6994 195.8359 196.7876 197.4509 198.2927
   198.2927 198.5236 198.5236 200.5907 200.5907 200.6089 201.6111 202.2966
   202.2966 202.4758 203.2657 203.2946 203.2946 203.8424 205.2916 205.2916
   207.6438 207.6438 208.3656 208.3656 209.0967 209.0967 209.7829 213.3933
   213.3933 213.9819 215.4964 215.8830 215.8830 216.3904 216.3904 216.6361
   216.6361 216.7668 216.8305 217.7034 219.6582 219.6582 221.0273 221.0882
   221.0882 221.2640 221.2640 221.5467 223.3517 223.3517 223.4533 224.5023
   224.6621 224.6621 225.2156 226.0936 226.0936 226.6517 228.1444 228.1444
   228.7429 231.6226 231.6231 231.6231 233.9488 234.3156 234.3156 234.9996
   234.9996 235.3026 235.7900 237.0813 238.2730 238.2730 239.5680 239.5680
   241.3851 242.1742 242.1742 242.4430 242.9840 242.9840 243.9171 244.7385
   244.9314 244.9314 246.5601 246.5601 247.1475 249.0773 249.5451 249.5451
   250.5890 250.5890 253.2881 254.0352 254.0352 254.1247 254.1247 254.9186
   255.9332 255.9332 256.2430 256.5534 256.5534 256.7154 257.1870 257.1870
   257.5876 257.8842 257.8842 259.3136 260.8634 260.8634 260.8730 262.6816
   262.7195 262.7195 263.7599 265.3902 265.3902 266.6133 266.6133 266.8281
   267.8555 269.6924 269.9351 269.9351 271.2777 271.4804 271.4804 271.6766
   271.9330 271.9330 271.9479 273.0099 273.0099 273.9508 273.9508 275.2328
   275.6303 275.6303 275.9252 275.9252 276.1131 276.1446 277.0091 277.1236
   277.8211 277.8211 278.7018 280.5096 280.5096 280.7264 280.7264 281.0753
   281.4073 281.4088 281.4088 281.8027 281.8027 281.9049 284.9160 285.3613
   285.3613 286.3079 286.3079 286.9888 287.3222 287.3222 287.5940 287.5940
   287.6193 288.0361 288.0361 288.2249 288.6691 289.0406 289.6508 289.6508
   289.9345 289.9345 289.9415 290.3961 290.3961 291.4484 291.4484 291.5405
   292.0779 292.3550 292.3550 293.4354 293.4883 293.4883 294.5398 294.5398
   295.4793 296.1434 296.1434 296.2627 296.7793 297.1266 297.1266 297.2907
   297.6874 297.6874 297.7084 298.0107 298.0107 298.9498 299.9922 299.9922
   300.2424 300.2424 300.2861 301.2333 301.4286 301.4286 302.2273 302.6856
   302.6856 304.1906 304.8363 304.8363 306.4639 306.8941 306.8941 307.1670
   307.5702 307.5702 307.6040 307.7823 307.7823 308.4471 309.2199 309.2199
   309.3197 310.0925 310.0925 311.0418 311.1653 311.1653 311.3295 312.4956
   312.4956 312.7065 313.3462 314.0810 314.0810 314.1723 315.0163 315.0163
   317.9503 317.9503 318.1090 318.1090 318.2710 319.5132 319.5872 319.5872
   319.9287 321.4657 321.4657 321.7938 322.0530 323.0507 323.0507 324.0570
   324.0954 324.0954 325.5344 325.5885 325.7432 325.7432 328.2657 328.9946
   328.9946 329.1709 331.6627 331.6627 332.5170 333.3127 333.3127 333.9959
   333.9959 334.2281 335.0191 335.0191 336.1977 336.1977 336.5277 336.5277
   336.5668 336.9740 336.9740 340.2027 340.2027 340.2928 340.7164 341.0339
   341.0339 341.0356 341.8215 342.8460 342.8460 343.5896 343.5896 344.9563
   346.9407 349.2180 349.3052 349.3052 350.0350 350.0350 350.2568 350.2568
   350.3447 350.4725 352.1480 352.1480 352.3164 353.5643 353.5643 354.1736
   355.1687 355.1687 356.3225 356.8520 356.8520 357.1932 359.4339 359.4339
   360.1452 360.6301 362.4106 362.4106 362.9122 362.9122 364.1006 364.1006
   365.1977 365.1977 365.2273 365.4073 365.9816 365.9825 365.9825 366.2927
   366.2927 366.5095 366.8441 367.5348 367.5348 368.6910 369.1049 369.4364
   369.6247 369.6247 370.5246 371.3781 371.3781 371.7127 371.8492 371.8492
   372.0297 372.4311 372.4311 372.6372 372.9353 372.9353 373.8704 374.1642
   374.1642 375.1013 375.1013 375.6004 375.7701 375.7701 376.0230 376.0230
   376.1347 376.7687 377.3843 377.7284 377.7284 377.9920 378.2864 378.2864
   378.3019 379.2452 379.2452 379.9386 379.9386 380.0048 383.2012 383.2012
   383.7116 383.7116 383.8518 385.5744 385.5744 385.6803 385.7441 387.2588
   387.2588 387.4130 387.8093 387.8093 388.0918 392.8616 393.0129 393.0129
   393.3806 393.3806 394.3089 394.3089 394.6458 394.6458 394.7885 394.7965
   395.4036 395.4174 395.4174 395.5090 395.5315 395.5315 395.6076 396.3009
   396.8176 396.8615 396.8615 397.2434 397.2434 398.3062 398.3062 398.6982
   398.7450 398.9519 398.9519 399.9630 399.9630 400.3329 400.7710 401.3320
   401.3320 402.2327 402.2327 402.3793 402.5007 402.5007 403.0743 403.0743
   403.4707 403.4716 403.7385 403.7385 404.9075 405.3227 405.3227 405.7616
   405.7616 405.8420 405.8454 406.2746 407.6345 407.6345 410.0438 410.0438
   410.3716 412.5218 412.5218 413.7697 413.8137 413.8137 413.9539 413.9539
   414.3217 414.9381 414.9381 415.2459 415.3198 415.5034 417.0841 417.0841
   417.6723 417.8256 417.8256 418.0900 418.0900 419.7406 420.3156 420.8679
   420.8679 421.8147 421.8147 422.0780 422.1236 422.3961 422.3961 422.5579
   422.5579 422.7113 422.8515 422.9505 423.0142 423.0142 423.5780 423.5780
   423.8239 424.0496 424.0496 424.6917 426.0349 426.1489 426.1489 426.7418
   426.7418 426.8504 426.8504 426.9668 427.8545 427.8545 428.2762 428.4153
   428.4248 428.4248 428.9884 429.6017 429.6017 429.8078 429.8078 429.8293
   429.8776 431.3188 432.6426 432.6426 434.1888 434.5858 434.5858 434.7009
   434.9586 434.9586 435.2857 435.3008 435.3008 436.5984 436.6104 436.6104
   438.1489 438.4321 438.4321 438.9755 438.9755 439.1429 439.1429 439.1706
   439.8631 440.8200 440.8200 440.9642 441.0621 441.0621 441.3820 442.4721
   442.4721 442.8088 443.6491 443.6491 443.6756 444.4632 444.4632 446.0477
   446.0477 446.0511 446.6045 447.5141 447.5141 447.5997 448.7025 448.7025
   449.4040 450.2469 450.2469 450.3040 450.9934 450.9934 451.2285 452.7137
   452.7137 453.5776 453.6388 453.6388 454.4431 454.4431 454.5292 454.5517
   454.7828 454.8884 454.8884 455.6180 455.6180 455.6427 456.2038 456.2038
   456.5961 456.6798 456.6798 456.7668 457.1926 457.1926 457.4353 458.3493
   460.2101 460.2101 460.3190 461.5332 461.5332 461.7525 461.7525 461.9710
   462.3412 462.3412 462.3788 463.0538 463.0626 463.0626 463.3284 463.3284
   463.3635 463.8471 463.8471 464.0325 465.0963 465.2656 465.2656 465.9021
   466.3610 466.3610 467.2697 467.2697 467.4712 467.7477 467.7477 468.1566
   468.1566 468.2255 468.6814 471.6785 471.6785 472.1948 473.9284 473.9284
   473.9537 474.4926 474.4926 474.5390 476.3893 476.3893 476.4132 477.5322
   478.9362 478.9362 480.2050 480.2050 480.2394 482.1119 482.1119 482.2645
   486.1975 488.0250 488.0693 488.0693 488.4652 490.1855 490.1855 490.8944
   490.8944 491.3422 492.4164 493.1370 493.1370 493.4969 493.8530 493.9224
   493.9224 494.9833 494.9833 495.7416 495.7416 495.9428 495.9428 496.0320
   496.5221 497.3775 497.3775 497.6147 497.7084 497.7084 498.7432 498.7432
   499.3855 499.3855 499.3909 499.5491 501.6996 501.6996 502.6476 502.6476
   502.7346 504.6554 504.6554 504.7409 505.3325 505.5634 505.5634 505.8104
   505.9711 505.9711 506.5262 506.7937 506.7937 507.1697 507.1697 507.4694
   507.6644 507.6984 507.6984 507.7565 508.3870 508.3870 508.4398 509.2985
   509.2985 509.3851 513.5098 513.5098 513.7487 514.4260 514.4260 515.3954
   515.3954 515.6497 516.6600 516.7924 516.7924 518.4277 518.8416 518.8416
   519.0012 519.3449 520.1199 520.1199 520.7988 520.7988 521.2467 521.2467
   521.5980 521.6041 522.3326 522.3326 523.1501 523.1501 523.1888 523.8813
   524.2494 524.2494 524.5105 525.0027 525.8544 525.8544 525.9423 525.9423
   526.6684 527.2784 527.2784 527.7150 527.8667 527.8667 527.8898 528.4527
   528.4676 528.4676 529.1682 529.1682 529.4211 529.5008 529.6566 529.6566
   531.1731 531.1731 531.2654 531.3720 531.3720 531.4721 531.7569 531.7569
   531.7806 531.9583 533.1312 533.1312 533.2830 534.0350 534.0350 534.5316
   534.5316 534.9525 535.3891 535.8179 535.8179 536.8659 536.8659 537.2005
   537.6523 537.6523 537.8300 537.8304 537.8304 537.9834 538.1026 538.1924
   538.1924 538.8572 538.9966 538.9966 539.5877 540.0196 540.0196 540.2512
   540.6758 540.7092 540.7092 541.2227 541.5579 541.5579 543.1319 543.1319
   543.4587 543.5720 543.5720 543.6655 545.0186 545.2458 545.2458 545.7276
   546.2741 546.2741 546.3652 547.9118 547.9553 547.9553 547.9805 547.9805
   548.1299 548.5048 548.5048 549.6951 549.6951 549.8412 550.3145 550.3945
   550.3945 550.4963 550.6840 550.6840 550.9973 550.9973 551.3541 551.5013
   551.5013 551.5313 551.7662 552.7946 552.7946 552.8869 552.8869 553.1524
   553.8501 553.8501 554.0086 554.2552 554.8531 554.8531 555.0085 555.0459
   555.0459 555.1282 555.1465 555.1465 555.2718 556.5683 556.5683 558.1813
   558.1813 558.3163 558.3665 558.3665 558.4937 559.5812 559.5812 560.1907
   561.0875 561.0875 561.2496 561.5711 561.5711 561.6517 561.6856 561.6856
   561.8589 561.8589 561.9711 562.0644 563.7056 563.7056 563.8477 564.1143
   564.1143 564.1347 565.0705 565.0705 565.1120 567.7558 567.7558 568.1774
   568.5631 568.5631 568.6371 568.6771 568.6771 568.7483 570.3630 570.3630
   570.5442 571.9997 571.9997 572.1438 572.4618 572.4618 572.5000 573.4840
   573.5455 573.5455 574.2764 574.2764 574.3815 575.1346 575.9435 576.5992

          k =-0.3333 0.3333-0.3333 (  2442 PWs)   bands (ev):

   -24.3354 -17.0213  -7.8649  -7.6791  -7.6791   1.0139   1.3722   1.3722
    10.2540  11.8408  13.4759  13.4759  15.1152  15.1152  19.3932  21.8825
    21.8825  22.6159  25.4365  27.5173  27.5173  28.0649  28.0649  31.8185
    34.7767  34.7767  36.9924  36.9924  39.6340  40.3288  42.1237  44.1302
    44.1302  45.4552  45.4552  46.3882  46.5714  48.6531  51.8069  51.8069
    52.2683  52.2683  52.8454  54.5927  54.5927  55.3305  57.0126  59.4504
    59.4504  61.3922  61.3922  61.4492  64.2889  64.6307  64.6307  67.4302
    67.4302  69.2103  69.4712  69.5853  69.5853  72.4534  72.4534  72.4792
    74.2428  77.0152  77.0152  77.9643  77.9643  78.6181  79.2677  79.2677
    81.6733  84.3798  84.3798  84.9828  84.9828  85.1595  87.0050  87.0857
    87.0857  90.4783  90.9265  90.9265  92.8284  94.4912  96.3525  96.3525
    97.2481  98.3174  98.3174  98.6183  99.3227  99.4483  99.4483 100.7268
   100.7268 102.3920 104.2343 104.5697 104.5697 105.1749 105.3678 105.3678
   108.5932 108.5932 109.6445 110.1034 110.3386 110.3386 111.5376 111.5376
   112.3800 113.4138 113.4138 113.6376 115.1245 116.1602 116.5010 116.5010
   119.2892 120.6893 120.6893 122.0390 122.0390 123.3598 123.4419 123.4419
   124.6134 124.9136 125.5695 125.5695 125.8345 126.1992 126.1992 126.5264
   126.5264 127.4085 127.4085 128.1149 129.4518 129.4518 130.5820 131.3965
   132.7095 132.7095 134.0822 134.7695 135.3449 135.3449 137.8663 137.8663
   140.1802 140.1802 140.5029 141.8048 143.3340 143.8193 143.8193 144.3885
   144.3885 148.3966 149.5321 150.3117 150.3117 152.9164 153.0767 153.0767
   154.0273 154.3944 154.3944 154.8245 154.8245 154.9172 156.0122 156.0122
   158.1464 158.1464 158.6552 158.6552 159.4403 160.1804 160.2017 160.2017
   161.7015 161.7134 161.7134 161.8571 163.3016 163.3016 164.8441 165.0514
   165.7490 165.7490 167.2771 167.2771 167.3113 168.3092 168.7300 168.7300
   170.3066 170.3066 171.1164 172.1300 173.2141 175.5643 175.5643 176.6789
   177.3157 177.3157 177.9942 179.6026 179.7074 179.7074 180.3941 180.3941
   181.4787 181.4787 182.5082 182.8771 182.8771 183.0931 183.2512 183.8825
   183.8825 184.4888 184.4888 184.8434 186.0536 186.7713 186.7713 187.9012
   188.3948 188.9465 188.9465 189.6735 189.9882 189.9882 192.7970 192.7970
   194.7495 194.8068 194.8068 195.4347 195.4347 195.6601 195.7964 196.7470
   196.7470 197.2399 197.3939 197.5589 197.5589 198.1349 198.1349 199.4737
   199.5475 199.7025 199.7025 200.9543 200.9543 203.2416 203.2416 205.0487
   207.6959 208.1316 208.1316 209.0422 209.0422 209.3700 209.4841 209.4841
   209.7184 209.7554 210.6040 210.8373 210.8373 211.2230 212.4719 212.4719
   212.8133 213.0844 215.1903 215.1903 215.8119 216.5926 216.5926 218.9410
   218.9410 219.2638 219.2638 220.1533 221.4639 221.6829 221.6829 221.9609
   223.3400 223.3400 224.0521 224.0521 224.1347 225.2790 225.2790 225.4360
   225.5746 227.0725 227.0725 228.0592 228.6886 228.6886 230.8521 231.3620
   231.3620 233.3587 234.5473 234.8424 234.8424 236.4763 236.4763 237.2672
   237.2672 238.0938 239.3092 239.3092 239.5453 239.5453 239.6224 240.1462
   240.2303 240.7541 240.7541 240.8265 240.8265 241.0356 242.5850 242.6232
   242.6232 243.2204 243.3072 243.3072 245.2953 245.4941 245.4941 246.0875
   246.3834 248.4243 248.4243 251.4296 251.5146 251.5146 252.3409 252.3409
   253.7578 253.9000 253.9000 254.4363 254.4628 254.4628 254.8710 255.8203
   255.8203 256.4133 256.9858 256.9858 257.1104 259.5559 259.5559 260.8100
   261.5278 261.5278 262.3945 264.0718 264.4447 264.4447 265.9468 266.1105
   266.1758 266.1758 266.3674 266.3674 267.4967 267.4967 267.5203 268.0748
   268.5677 268.5677 269.0600 269.0600 269.3005 269.4891 269.4891 269.5540
   271.4932 271.4932 272.0801 272.0801 273.0150 273.2523 273.2523 274.0323
   274.1623 274.6539 274.6539 276.3164 276.3164 276.6112 278.6005 278.6005
   279.3668 280.2311 280.3091 280.3091 281.1507 281.1507 281.8126 282.1130
   282.1942 282.1942 282.3652 282.6994 282.6994 282.8828 285.2669 285.2669
   285.8533 288.4081 288.4081 288.5015 290.2888 290.3234 290.3234 290.6321
   290.6321 292.7231 292.7231 292.7654 293.4314 293.9658 293.9658 294.0602
   294.0999 294.0999 294.7505 295.0907 295.5882 295.5882 296.4222 297.5557
   297.5557 297.7470 298.1665 298.1665 298.3993 298.4500 298.5409 298.5409
   299.5743 299.5743 299.8251 300.7799 300.7799 301.5308 302.7328 302.9447
   302.9447 303.7067 303.7067 303.8034 303.8298 303.8431 303.8431 304.7765
   304.7765 304.8150 306.2067 307.5950 307.5950 308.0767 308.9556 308.9556
   309.1807 309.1807 309.6595 310.0196 310.2214 310.2214 310.3652 311.2752
   311.2752 311.4511 312.4588 312.4588 313.8386 313.8386 316.5570 316.5570
   317.4136 319.6949 320.4348 320.4348 321.2857 322.0652 322.3717 322.3717
   322.5114 322.5114 323.6809 324.0234 324.0234 324.7369 324.7369 324.9045
   325.0782 326.5408 326.5408 326.8841 326.9600 326.9600 327.8874 328.5793
   328.7141 328.7141 329.5074 329.5074 329.6795 330.9572 330.9572 331.1342
   331.4339 331.4339 331.5276 332.1859 333.4156 333.4156 334.4805 334.4805
   335.2708 335.7838 336.3404 336.3404 336.5077 336.6621 336.6621 338.6058
   339.2965 339.4737 339.4737 339.6854 339.6854 340.2807 340.2807 340.4382
   340.7962 340.7962 340.9670 340.9798 340.9798 341.3899 341.8588 342.5664
   342.5664 343.0119 343.0119 343.1438 345.8460 347.9354 348.0186 348.0186
   350.9922 350.9922 351.0231 351.2127 351.2127 351.4776 351.4776 351.5027
   351.5242 352.3606 352.3606 352.7910 353.2823 353.2823 353.5172 353.5172
   353.5681 353.8010 354.2029 354.2029 354.3929 354.3929 354.4643 354.5811
   357.4103 357.4103 358.2348 358.2348 358.2790 358.6567 360.1238 360.4565
   360.4565 360.9928 360.9928 361.1304 361.5757 361.5757 364.5712 366.2228
   366.2228 367.6851 368.0312 368.0312 368.0677 371.4863 371.4863 372.9574
   372.9574 373.2044 374.9721 375.2101 375.2101 376.5374 376.5374 377.2728
   378.0551 378.3904 378.3904 378.5847 378.6403 378.6403 378.8781 378.8781
   378.9645 379.4112 379.4112 379.6009 379.9693 379.9693 379.9822 380.2540
   381.3609 381.5188 381.5525 381.5525 382.0644 382.0644 382.9820 382.9820
   383.3976 384.2374 384.2374 384.3214 384.3214 384.4539 385.1342 388.3891
   388.3891 388.6380 388.8848 388.8848 390.0921 391.3739 391.3739 391.8238
   392.3796 392.8467 392.8467 394.0495 394.0495 394.1789 394.4182 394.4295
   394.4295 395.3492 395.3492 395.8619 395.8619 395.8641 396.2071 396.2071
   396.4153 396.6399 396.6426 396.6426 397.0269 397.3193 397.3193 398.3564
   398.3564 398.4679 398.6115 398.8693 398.8693 398.9728 400.0002 400.3811
   400.3811 402.0134 403.2581 403.2581 404.1929 404.4827 404.4827 405.0493
   406.1244 406.1244 407.0300 407.0300 407.1798 407.4861 407.9562 407.9562
   407.9601 408.1300 408.4028 408.4028 408.4899 408.7590 408.7590 408.8714
   408.9755 408.9755 409.1156 409.1493 409.5002 409.5002 409.8644 409.8644
   410.3285 410.3285 410.4886 411.1223 411.2280 411.2280 411.4479 411.5235
   411.5235 411.7126 411.7126 411.7601 411.7892 411.7892 411.8889 411.9144
   411.9144 413.6029 413.6029 414.4593 417.4423 417.4612 417.4612 418.8286
   419.1165 419.1165 420.6737 420.6737 421.1709 421.5694 421.5694 421.9092
   423.1223 423.9136 423.9136 424.5192 424.5192 425.4245 425.4245 425.4852
   425.5072 426.8955 428.4126 428.4126 430.2419 430.2419 431.6227 433.0252
   433.0252 433.5711 433.5711 434.4636 434.9818 434.9818 435.7793 435.7793
   435.9580 436.0211 436.1942 436.3935 436.3935 436.5719 436.5736 436.5736
   436.7503 436.8614 436.8614 437.0279 438.0280 438.0280 438.1165 438.5456
   438.5456 438.6191 439.7204 439.7204 440.1230 440.1230 440.1680 441.2751
   442.8557 443.7371 443.7371 444.3733 444.3733 444.6579 444.9541 444.9541
   445.1736 445.6565 445.6565 445.7507 446.2946 446.2946 446.5143 448.0685
   448.0685 448.2460 449.0814 450.5643 451.1814 451.1814 451.6658 452.0834
   452.0834 452.5060 452.6365 452.6365 452.7064 452.7064 453.4140 453.6034
   453.6034 454.1469 454.2602 454.2602 454.9843 455.5718 455.5734 455.5734
   455.9683 455.9683 456.3123 456.7416 456.7416 457.3793 457.6103 457.7144
   457.7144 458.9134 462.2278 462.2278 463.0544 464.2950 464.2950 464.8434
   464.9564 464.9564 465.1085 465.7328 465.7328 466.4539 466.7028 466.7028
   466.7937 467.0671 467.0671 467.1640 467.1640 467.2362 468.2445 468.2445
   468.2693 469.5034 469.5034 469.6610 471.0981 471.0981 471.1177 471.9078
   471.9078 471.9596 472.7916 472.8745 472.8745 473.6075 473.6075 474.0032
   474.0032 474.0838 474.3671 475.9548 475.9548 477.9027 479.6063 479.6063
   479.9505 479.9505 479.9991 480.3338 480.3338 480.4390 480.5308 481.3198
   481.4567 481.4567 481.7855 481.7855 481.8450 481.8450 481.9002 481.9078
   482.1562 482.1562 482.2118 483.0962 483.0962 483.1222 485.6268 485.6268
   486.1589 487.5594 490.3775 490.3775 490.6951 490.6951 491.7754 492.6488
   492.9202 492.9202 493.2007 493.2117 493.2117 493.2965 494.0611 494.0611
   494.3036 494.3036 495.1819 495.1819 495.4651 495.4651 495.5798 495.6531
   495.9270 497.1870 497.1870 497.3951 497.3951 497.4535 497.5364 498.1503
   498.1503 498.9350 499.8098 499.8098 500.0281 502.5468 502.5468 502.5847
   504.2020 505.3642 505.3642 506.6079 507.0628 507.0628 507.0980 507.0980
   507.7710 507.8649 507.8649 508.2589 508.2589 508.3338 508.4796 508.4796
   508.6023 508.8891 508.9472 509.0323 509.0323 509.1702 509.8431 509.9818
   509.9818 511.0690 511.0690 511.3027 511.6789 511.6789 511.9248 512.6577
   512.6577 512.9137 512.9137 512.9360 514.3048 514.3048 514.3985 514.7526
   515.5548 515.5548 515.9391 515.9391 516.0737 516.6851 517.0850 517.6951
   517.6951 518.7043 518.7043 518.7195 520.0446 520.0446 520.0635 520.2896
   520.8647 520.8647 521.1808 521.9611 521.9611 522.7102 523.0677 523.0677
   523.2095 523.6936 523.6936 523.7731 524.7222 524.7376 524.7376 524.7852
   524.8141 524.8141 525.6089 525.6089 528.9032 529.0388 529.0388 529.1362
   529.1362 529.2892 529.3687 529.3687 529.8755 529.9852 529.9852 530.0140
   532.2467 532.2467 532.3080 532.9047 532.9047 534.5236 534.5277 534.5277
   535.1375 535.1375 535.3555 535.3586 536.1398 536.1398 536.4002 536.9592
   537.1408 537.1408 537.5779 537.5779 537.6395 538.0658 538.0658 538.3068
   538.3068 538.3244 538.4153 538.9433 538.9588 538.9588 539.0344 539.0344
   539.0683 544.8261 545.8927 545.8927 546.2179 547.3365 547.4411 547.4411
   547.4915 547.4915 547.7234 547.7280 547.7280 548.4560 549.9688 549.9688
   550.3627 550.3627 550.7090 550.7090 550.8395 551.2374 551.6685 551.6685
   551.7302 551.8645 551.8645 551.8862 552.1167 552.1167 552.1858 552.6987
   552.6987 552.7096 552.7096 552.7612 552.7619 552.8583 552.8820 552.8820
   555.0342 555.0342 555.9618 555.9618 556.4331 556.4783 557.3489 557.3489
   557.4427 557.4427 557.4701 557.5999 557.9126 557.9126 557.9583 558.4570
   558.4570 558.7512 558.9496 558.9496 559.0859 559.3958 559.3958 559.4116
   563.0063 563.4399 563.4399 564.7100 564.7100 564.9230 564.9419 565.8248
   565.8248 565.9925 566.3497 566.3497 566.5856 566.5856 566.6145 566.6548
   566.7599 566.7599 570.3398 570.3398 570.5895 571.0739 571.0739 571.1699
   572.9208 574.0152 574.0152 575.0019 575.0019 575.5434 575.9196 575.9196
   576.0900 576.9832 577.1206 577.1206 577.7637 578.0570 578.0570 578.2639
   578.3763 578.3763 578.5591 578.5630 578.5630 578.9546 579.0728 579.0728

          k = 0.5000-0.5000 0.5000 (  2452 PWs)   bands (ev):

   -24.3091 -17.0463  -7.9348  -7.6883  -7.6883   0.8403   1.2843   1.2843
    10.8177  12.4268  13.7869  13.7869  15.9280  15.9280  17.8498  20.2838
    20.2838  22.2918  26.6882  27.7934  27.7934  28.2822  28.2822  33.1922
    35.6686  35.6686  36.6077  36.8151  36.8151  41.7358  42.1102  42.1102
    43.0747  44.6161  44.7691  44.7691  46.8260  48.8658  51.5484  51.5484
    52.3260  53.5560  53.5560  54.4169  55.2326  55.2326  57.8318  58.2539
    58.2539  58.5586  62.7856  62.7856  65.7268  66.0075  66.0075  69.8264
    70.6513  70.6513  71.9236  71.9236  72.3649  72.3649  74.3767  74.3767
    74.8065  74.9799  76.0815  76.0815  76.9106  76.9303  77.8261  79.3034
    79.3034  82.9857  83.8016  83.8016  84.3128  86.8150  86.8150  87.3041
    87.3041  87.8707  87.8707  90.8693  90.8693  92.7237  93.6396  95.3250
    95.4065  96.1713  96.1713  98.6645  98.9286  99.3700  99.3700  99.9350
    99.9350 101.0859 103.6993 104.9078 104.9078 105.3771 107.2649 107.2649
   108.2252 108.5566 108.5566 109.3821 110.6665 111.2071 111.2071 113.8031
   113.8031 114.8635 115.6763 115.6763 115.8399 115.8399 116.8813 116.8813
   117.6126 117.7761 118.7643 120.9153 121.5963 121.5963 121.8814 124.1704
   124.1704 126.5464 126.5464 126.7759 127.6825 127.6825 129.4419 129.4419
   129.8033 129.8039 131.1452 131.1452 131.2194 132.5039 132.8824 134.0973
   134.0973 134.3244 134.3244 135.5814 138.5016 138.5016 139.0181 139.0181
   140.7060 140.7210 140.7430 140.7430 141.0350 141.0350 142.1328 142.1328
   146.6237 146.6237 147.1876 148.1035 148.1035 148.1333 150.9383 150.9383
   151.1730 151.1730 151.2308 151.2803 151.8679 152.4856 152.4856 154.2906
   155.3396 158.0272 158.0272 159.0610 159.9898 161.2029 161.2029 162.6459
   162.6459 164.3526 164.3526 164.6431 165.2641 165.6599 166.5959 166.5959
   168.2461 168.5827 168.5827 169.6752 169.6752 170.3811 170.6496 170.6496
   171.3023 171.3023 171.4642 171.5225 171.5850 171.8587 171.8587 172.1172
   172.1172 173.4171 176.5262 176.5262 177.5588 179.0965 179.9710 179.9710
   180.1033 180.1033 180.9727 181.7193 181.7193 181.7771 182.6048 182.7431
   182.7431 183.0974 183.0974 183.9663 183.9663 184.1355 184.5273 184.5273
   186.7711 187.7321 187.7321 188.1134 188.3629 190.5938 190.5938 191.3461
   191.5087 191.9300 191.9300 193.1684 197.2966 197.2966 197.5193 198.1278
   198.5667 198.5667 199.3847 199.9511 199.9511 202.0535 202.0535 202.2671
   202.4524 202.7186 202.7186 203.3095 203.3095 204.3960 205.0803 205.0803
   205.2591 205.2591 205.2833 205.5672 206.6817 206.8327 208.0637 208.0637
   208.4125 208.9759 208.9759 214.7687 214.7687 214.8362 214.8362 218.0893
   218.4805 218.8831 218.8831 219.2964 219.2964 220.5714 223.4523 223.4523
   223.6700 223.8270 223.8883 223.8883 224.0238 224.0238 224.1182 224.1182
   224.4215 224.4215 224.5360 224.5430 224.6717 225.2637 226.4457 227.3615
   227.3615 231.1010 231.6197 231.6197 232.2723 232.2723 232.5342 233.1593
   233.2417 233.4650 233.4650 233.5619 233.5619 233.6021 233.6021 233.7993
   233.7993 234.3537 234.9002 235.0859 235.0859 235.1640 235.7068 236.8532
   236.8532 236.8999 236.8999 238.1431 238.1443 240.3167 243.8359 243.8359
   244.9380 244.9380 246.0715 246.0715 246.3267 246.5029 246.5029 246.6686
   246.7873 246.7873 247.8041 247.8041 248.9072 249.3197 249.3197 251.8084
   251.8084 252.3939 252.8891 252.8891 253.9300 254.7701 255.7683 255.7683
   255.8246 255.8246 256.0248 256.0392 256.7372 256.8367 256.8367 257.2380
   257.3398 257.9583 257.9583 259.4927 259.4927 259.8905 259.8905 260.9710
   264.5728 264.5728 265.0299 265.3767 265.8296 265.8296 266.7305 266.7305
   267.0281 267.0281 267.0468 267.6231 267.7530 267.7724 267.7724 267.9144
   272.2262 273.1679 273.1679 274.0777 274.0777 275.9007 275.9007 275.9573
   275.9573 276.1004 276.4631 276.4896 276.4896 276.6538 277.2372 278.2077
   278.2077 278.5713 278.8131 279.6418 279.6418 281.4369 281.4369 281.4874
   281.8178 284.3624 284.3624 285.1222 285.3764 285.7592 285.7781 285.7781
   286.5283 286.5283 286.9194 286.9194 286.9282 286.9282 287.5066 287.8206
   288.6364 288.6364 290.3949 290.3949 290.6200 290.8313 290.8313 293.0862
   293.0862 294.0115 294.4061 295.4532 295.4532 295.6400 297.0469 297.0469
   297.6672 297.9328 297.9328 299.0605 299.1498 299.1498 299.1900 299.1900
   299.3792 299.5271 302.0507 302.0723 302.0723 302.0983 302.0983 302.1916
   302.9637 302.9637 303.5184 306.8506 306.8506 307.5018 307.5222 307.5222
   309.3117 309.3117 309.6853 309.6876 309.9282 310.6519 310.6519 312.7879
   314.3182 314.6561 314.6561 315.3518 315.3518 317.4265 317.4265 318.2159
   318.2943 318.2943 318.7194 319.3665 319.3665 319.4512 319.5912 319.7855
   320.7150 320.7150 320.8047 321.1497 321.1497 321.2091 321.2156 321.2156
   321.6222 323.3299 323.3299 324.1581 324.1581 325.1055 325.1055 325.2200
   325.6604 325.6604 326.3840 326.8456 326.8456 327.3330 328.2441 328.8600
   329.0445 329.9627 330.2833 330.2833 330.4733 330.4733 330.5268 330.7033
   330.7033 330.7324 330.7324 330.9872 330.9872 331.0384 331.0929 331.1280
   331.1280 332.2223 332.3041 332.3041 332.3894 332.3894 332.5004 332.5307
   338.9456 338.9456 340.1211 340.2557 340.2557 340.2747 340.5902 340.5902
   341.2980 341.4686 341.4686 341.6723 341.6723 341.9873 341.9873 342.0868
   342.1069 342.4211 343.1748 343.1748 343.4056 343.4056 343.4800 343.4826
   348.0921 348.0921 348.5541 349.4537 350.7102 350.7102 350.8679 350.8679
   351.2921 351.5774 351.5774 352.3274 353.2689 355.1766 356.1402 356.1402
   356.9226 357.2653 357.2653 359.4686 359.4686 359.7089 360.0044 360.0044
   360.2453 360.2453 360.7963 360.7963 360.9316 360.9316 361.0834 361.0871
   361.9014 361.9014 361.9153 363.3952 363.9146 363.9146 364.2750 364.2750
   364.7513 364.7513 365.7519 365.7524 367.7014 368.6166 368.6166 370.4611
   371.0916 371.0916 371.6534 372.1022 372.1022 372.1911 372.1911 372.9624
   373.6379 373.6379 374.1100 375.6539 375.6539 375.8638 375.8679 375.8679
   375.8878 375.8878 376.0815 376.0852 377.4611 377.4611 377.6993 378.0285
   378.7665 379.4689 380.3457 380.3457 382.0323 382.1116 382.1116 384.6936
   385.6337 385.6337 385.7319 385.7319 388.3341 388.3341 389.9360 389.9360
   390.6185 390.8025 390.8025 391.2119 391.4438 391.4438 392.1880 392.1880
   392.2000 392.5873 392.9113 392.9331 392.9557 392.9557 393.0529 393.0529
   393.0566 393.0566 393.3310 393.9334 394.2002 394.3400 394.3400 394.4235
   394.4235 394.8224 395.0259 395.0259 395.1213 395.1260 395.1260 395.5316
   395.5316 395.5957 395.8952 395.8952 395.9644 395.9811 396.9155 396.9155
   396.9472 396.9472 396.9587 397.1688 399.9766 399.9766 401.7592 401.7592
   401.9984 402.6499 402.8335 403.8065 403.8065 403.8211 403.8211 404.6694
   406.1616 406.3838 406.3838 406.5354 406.5354 406.5950 407.6869 409.0583
   409.0583 411.1259 411.1259 412.0920 413.3067 413.3067 414.3507 414.4884
   414.4884 414.5244 414.6138 414.6138 414.7021 414.7776 414.7776 415.1973
   415.5298 415.5298 415.7592 415.7592 415.9644 415.9842 416.3457 416.3457
   416.8932 417.2213 417.2213 417.6473 417.6473 417.6834 417.6834 417.7195
   417.7484 418.2415 422.2773 423.1830 423.1830 424.1266 424.7865 424.7865
   425.0927 425.5628 425.5628 425.7284 425.8890 425.8890 426.4592 426.4592
   426.9849 426.9849 427.0186 427.0207 427.0207 427.3902 427.3902 427.3950
   427.4021 427.4673 427.5272 431.0929 433.1390 433.1390 434.2922 434.2922
   434.3248 435.2872 438.1098 438.1098 438.6879 438.6879 438.6895 438.6895
   438.9307 438.9307 438.9391 439.0375 439.6017 439.6017 441.3222 441.3222
   441.7346 442.0617 442.2569 442.6760 442.6760 443.6855 443.6855 444.6805
   445.0999 445.6491 445.6491 445.7418 445.7586 445.7586 446.2100 446.2100
   446.2883 446.2990 446.2990 446.6088 446.6328 447.6527 447.6527 447.8111
   447.8111 448.2071 449.5120 449.5120 449.6770 449.6770 449.7021 449.7569
   449.9238 450.2695 450.2695 452.2221 452.2221 453.8516 457.3514 457.3514
   457.6244 457.6998 457.6998 457.9367 457.9494 457.9494 458.2148 458.4168
   458.4168 458.6311 458.6311 458.7004 458.7004 458.8409 458.8410 459.4109
   461.2508 461.2508 461.2551 461.2551 461.2664 461.2958 464.8196 464.8196
   466.5616 467.1261 467.4718 467.5007 467.5007 467.5769 467.5769 468.2554
   468.2554 468.2634 468.2634 468.5727 468.6513 468.6513 468.6775 468.6962
   469.5765 469.5765 470.1422 470.7352 470.7352 471.4672 471.4672 471.5141
   471.5144 471.6174 471.6174 472.5924 476.1263 476.1263 476.3697 478.1438
   478.2596 478.2596 478.8775 478.9631 478.9631 479.0487 479.3555 479.3826
   479.3826 479.4625 479.5022 479.6982 479.6982 479.7306 479.7306 480.1507
   485.0643 485.0643 485.5985 486.2889 486.2889 487.0217 487.0217 487.1963
   487.3294 487.5845 487.5845 487.6909 487.6909 487.7742 488.0305 488.0305
   488.3499 488.3499 488.5904 488.5921 488.5921 488.7260 488.7260 488.7373
   488.7655 488.7663 488.8955 489.0066 489.0366 489.0366 490.8740 490.8800
   491.0124 491.0124 491.0329 491.0329 492.2522 492.2522 492.2613 492.2613
   492.2885 492.3265 492.3265 492.3273 492.3588 492.3588 492.4500 492.4571
   501.3494 501.3494 501.4387 501.8608 501.8608 501.9810 502.2873 502.2873
   502.3373 502.3373 502.3989 502.4833 502.4888 502.4933 502.6120 502.6120
   502.6860 502.6860 504.0767 504.0767 506.4672 506.4672 506.6643 507.9806
   509.2175 509.2175 509.6389 509.7330 509.7330 510.2162 511.0327 511.0327
   511.5583 511.6106 511.6106 511.7079 511.7787 511.7787 511.9297 511.9297
   511.9534 511.9998 512.2139 512.2139 512.6124 512.6124 512.6830 512.7276
   514.2088 515.6570 515.6570 515.7620 515.7620 515.9683 516.2345 516.7560
   518.2595 518.8579 518.8579 519.1685 519.1685 519.3586 519.3586 519.5001
   520.8006 520.8795 520.8795 521.0088 521.0088 521.0140 521.0140 522.2746
   522.9800 523.0255 523.0255 523.0505 523.0505 523.2852 523.2852 523.3204
   523.3410 523.3454 523.3454 523.3513 523.3513 523.4918 523.4976 523.4976
   523.5232 523.5790 525.8857 525.8857 525.8887 525.8887 527.0485 527.0488
   531.4373 531.4373 532.3349 532.3349 532.4067 532.5152 534.1729 534.1729
   534.2275 534.3364 534.3364 534.6886 537.2605 537.2605 538.4399 539.8275
   539.8275 540.0237 540.0617 540.3594 540.3594 540.6771 540.6771 541.3907
   541.7799 541.7799 542.0095 542.0095 542.0998 542.1956 542.2522 542.3522
   542.3522 542.5370 542.5370 542.5651 542.5651 542.6513 542.7610 542.7610
   542.9024 543.0994 543.7419 543.7419 543.7519 543.7519 543.8610 544.0324
   547.8121 548.8007 551.8990 551.8990 552.6568 552.6568 552.7143 553.0210
   553.0669 553.1142 553.1142 553.2733 553.2733 553.5149 553.5149 553.5661
   553.5661 553.6468 553.7050 553.7639 553.7639 553.7705 553.8679 553.9063
   554.0047 554.0143 554.0143 554.0403 554.0403 554.1235 554.1433 554.1433
   555.5015 555.5015 555.8358 555.8651 555.8651 556.2706 556.3039 556.3039
   556.3192 556.3192 556.5070 556.5070 556.5161 556.5161 556.5168 556.5392
   557.2851 557.2851 557.2932 557.2932 557.3352 557.3356 561.4831 561.4831
   561.6804 562.1254 562.1254 562.6884 566.6648 566.6648 566.7550 566.7550
   566.7807 566.7937 572.8567 572.8567 573.0626 574.8688 574.8688 575.4001
   575.4001 575.4002 575.4002 575.4864 575.4864 575.5202 575.5325 575.6217
   575.6707 575.6707 575.7471 575.7471 575.8025 575.8529 575.9362 575.9362
   575.9636 576.0138 577.3154 577.3154 577.8539 578.0125 578.0125 578.3519

          k = 0.0000 0.3333 0.0000 (  2453 PWs)   bands (ev):

   -24.3793 -16.9736  -7.7065  -7.7065  -7.6974   1.2772   1.6182   1.6182
     8.8829  11.5252  13.0978  13.0978  14.3099  14.3183  20.2757  23.6166
    23.6166  24.5032  25.9596  26.7083  26.7813  26.7813  29.9458  31.2625
    31.2625  32.7364  37.4949  37.6159  40.0744  40.0744  43.5300  43.8925
    45.4318  45.4318  45.6102  48.6994  49.8433  49.8433  50.7043  52.7602
    53.7797  53.7797  54.4851  55.2883  55.2883  56.0402  56.1346  57.6844
    58.4482  59.7033  60.9427  60.9427  62.5586  62.5586  63.8554  64.5237
    65.3523  65.3523  65.7115  66.3682  69.6227  69.6227  70.2330  71.7238
    71.8883  71.8883  72.7542  77.6175  80.8222  81.1014  81.1014  82.0873
    82.8162  88.8374  88.8374  89.5137  89.7056  89.7056  91.7853  91.7853
    91.8784  92.0233  92.4203  92.6151  92.6786  92.6786  95.1476  96.2539
    96.4980  97.3030  97.3030  97.6853 100.0898 101.4972 102.1233 102.1233
   103.7049 104.2509 104.3006 104.3006 104.6053 105.0193 106.1071 106.6334
   106.6334 107.9517 108.8472 108.8472 110.3455 110.8506 111.7134 111.8028
   111.8028 112.0057 113.1460 113.3439 114.0722 114.0722 114.8080 115.9695
   115.9695 117.6213 117.6213 118.4287 119.2122 119.2122 119.2914 120.1393
   120.6851 121.9744 121.9922 122.5705 122.5705 125.5342 125.5342 127.8727
   128.0807 129.0961 129.3059 129.3059 129.6694 132.8646 133.1413 133.1413
   133.1896 134.4985 134.4985 136.1221 136.8275 138.8786 138.8786 139.0703
   139.6497 139.6708 139.6708 139.6863 141.6099 141.6573 143.8445 143.9491
   143.9491 145.4666 147.3409 147.3409 147.5295 148.2307 149.0910 149.1637
   149.4492 149.4492 150.7899 150.7899 152.1479 152.8231 156.8401 157.5661
   158.2385 158.2385 160.4415 160.4415 163.0853 163.9827 164.2555 164.2555
   165.1296 165.1296 165.7548 165.8350 168.3164 168.3795 168.3795 169.3504
   169.4300 169.6803 169.9832 170.9367 170.9367 170.9606 173.1688 173.1688
   173.4386 174.4206 175.4110 175.4110 176.4381 176.7088 176.7088 176.8378
   177.5583 177.6405 178.8059 178.8059 179.1129 179.6214 180.1113 180.1113
   180.3445 180.3715 181.5635 182.2620 182.4854 182.4854 183.4560 183.4560
   184.1444 184.2995 185.6871 186.3109 186.5509 186.5509 187.5057 187.5057
   188.2201 188.9915 189.5686 189.5686 190.4670 190.4670 190.4862 190.5463
   191.4529 192.9122 195.3488 195.4602 195.4602 195.9753 196.2639 196.9517
   197.1813 197.1813 198.3223 199.2181 199.4109 199.4109 199.6870 199.6870
   200.8370 202.5602 202.5602 202.5669 203.2018 203.6265 203.7591 203.7591
   203.9385 203.9598 203.9599 205.9153 205.9153 206.2000 206.5324 206.8758
   207.0540 207.0540 207.2320 207.3846 208.2396 208.3544 208.3544 209.4298
   209.4298 209.6997 211.6332 212.7090 212.9449 212.9449 213.8725 214.4502
   215.7671 215.7671 216.3142 216.3489 216.5788 216.5788 216.6248 217.9121
   219.1633 219.1633 222.2042 223.4631 224.8483 224.8483 224.9568 225.4259
   226.3185 226.3185 227.2529 227.6456 227.9155 227.9155 229.7016 230.9893
   232.6929 232.6929 234.0631 234.8565 235.2124 235.2124 235.6567 236.5709
   236.6745 236.6745 237.7820 238.6562 238.6562 238.9005 239.0115 239.3397
   239.7246 239.7246 240.0807 241.4103 243.1059 243.3769 243.3769 243.7003
   244.4339 244.4339 244.9362 244.9362 246.4782 246.7661 246.9368 249.3406
   250.5707 250.6290 250.7920 250.7920 252.2008 252.2008 252.7205 253.3853
   253.6849 253.6849 253.9873 254.0914 257.4787 257.4787 257.4833 258.1735
   259.3941 259.7814 259.7814 261.1032 261.1032 263.3316 264.1690 264.3490
   264.3490 267.0072 267.2821 267.3075 267.3075 267.6781 268.0117 268.3318
   268.3318 268.6834 268.9621 270.1078 270.1078 270.5071 270.9120 271.8538
   272.6453 272.6453 272.7441 272.8009 273.2869 274.0176 274.0176 274.1326
   274.1326 274.1577 275.0353 275.3746 275.3802 275.3802 275.7128 275.9267
   276.0738 276.1029 276.1029 277.0887 278.3840 278.3840 279.3323 279.7706
   280.0092 280.0092 280.6520 280.8480 280.9383 280.9383 280.9819 282.6389
   282.6389 283.9911 284.8265 285.0817 285.1414 286.6290 286.6290 286.8790
   287.1706 287.1945 287.1945 288.9424 289.2108 289.2108 289.5248 289.6899
   289.8417 290.1882 290.2097 290.2097 290.3177 290.3177 290.3991 291.2286
   291.4912 292.7198 293.1361 293.1361 293.8065 293.8065 293.8774 293.8774
   294.3266 295.3809 295.5616 295.7794 295.7794 295.9748 296.3303 297.3419
   297.8940 297.8940 299.0705 299.2295 299.8130 299.8130 300.8370 301.4807
   301.9231 302.6767 302.6767 302.8376 302.8956 303.0095 303.0095 303.1997
   303.3456 303.3456 304.7371 305.4092 305.5404 306.3833 306.3833 306.6469
   307.4742 307.4742 308.4454 308.6227 308.9903 309.4123 309.4284 309.4284
   310.0757 310.0757 311.9955 313.1277 314.0585 314.5090 314.5090 314.5649
   314.6791 315.6295 315.6295 316.0609 317.4191 317.7923 317.7923 318.2644
   318.3852 318.4512 318.4512 318.8656 319.3290 319.3301 319.6428 319.6428
   321.4031 323.1770 324.2772 324.2772 324.8147 325.5463 325.5891 325.5891
   325.6777 326.1494 326.1494 327.4153 327.4153 327.5965 327.7927 328.3974
   328.6064 328.6064 329.4685 330.3729 330.6039 330.6039 331.0749 331.5176
   331.5176 331.7793 333.1159 333.5247 333.5247 333.6042 334.0985 335.2692
   338.2209 339.6052 339.6052 339.8614 340.0942 340.0942 340.7575 341.3156
   341.5489 342.3157 342.3157 342.4534 342.7405 342.7405 343.8394 344.1314
   346.1421 346.5412 346.5412 347.0709 348.7683 348.9550 349.1759 349.1759
   350.1310 351.3253 351.3253 352.1891 352.8078 352.8078 353.5854 354.3952
   354.5906 354.9480 354.9480 355.2443 356.6663 357.1194 357.1194 357.1386
   357.8170 360.8425 360.8425 361.1940 361.3889 361.4324 361.4324 362.6022
   364.0041 364.0041 364.1257 364.3119 364.6033 364.8004 364.8004 365.5645
   366.1361 366.4759 367.2220 367.2220 369.4189 371.9993 372.1667 372.1667
   372.5109 373.2217 373.2803 373.2803 373.5071 373.8750 373.8750 373.9410
   373.9742 374.1650 374.2369 374.3452 374.3452 374.7474 375.0221 375.0221
   375.0315 375.0959 375.5231 376.3051 376.3768 376.3768 376.5404 376.5404
   377.0889 377.0889 377.2157 377.6275 377.8135 378.5042 379.1069 379.1069
   379.7266 380.1266 380.1471 380.1471 380.2909 380.6900 380.6900 381.2025
   381.3586 382.6280 383.0381 383.0381 383.0616 383.2734 383.6126 383.6126
   384.6646 385.4748 385.4748 385.9734 387.0448 387.4854 387.4854 387.4938
   387.5020 387.7447 387.8136 387.8136 389.9944 390.4810 391.7462 391.9428
   392.0263 392.0263 392.8007 392.8007 392.9280 393.5808 393.7462 393.7462
   394.1550 394.6263 395.9677 395.9677 397.3508 397.3635 399.2668 399.5368
   399.5368 399.6607 402.0834 402.0834 402.2907 402.5913 402.7400 402.7400
   403.2653 405.3885 406.2570 406.2570 406.6286 406.6286 406.8711 407.7233
   407.8368 408.0680 408.0680 408.5038 409.0087 409.0740 409.0740 409.3211
   409.5313 409.5313 410.1876 410.2511 412.4095 412.7359 412.7359 412.7704
   413.0082 413.5091 413.5091 413.8789 414.1288 414.1586 414.7713 414.7713
   414.8998 415.9257 416.5233 416.5233 416.8161 416.8342 416.9153 416.9153
   417.1867 417.1867 417.3647 417.5594 418.5543 418.5588 418.5588 418.8165
   418.9968 419.7835 419.7835 420.1143 420.2291 420.2794 420.7392 420.7392
   420.7804 421.1374 421.2526 421.2526 421.3204 421.9453 421.9453 422.1037
   422.5152 422.5817 422.6161 422.6161 422.6817 422.8277 422.8277 422.9351
   424.4751 425.5299 425.8027 425.8027 426.0867 426.3359 426.7272 426.7272
   426.8951 428.7467 428.7467 429.2902 429.6391 429.9115 430.0079 430.0079
   430.0098 430.2652 430.2774 430.2774 430.3057 434.8542 434.8542 435.0799
   435.2797 437.0640 437.0640 437.3972 437.6240 437.6821 437.9008 437.9658
   437.9658 438.3464 438.6472 438.6683 438.6691 438.6691 439.8646 439.8646
   440.2009 440.2009 440.3580 440.3586 440.7823 440.8458 443.9065 443.9065
   444.8748 444.8752 444.8752 446.1843 446.2588 446.2588 446.2616 446.5900
   446.7259 446.8372 446.8372 446.9753 447.6523 447.6995 448.4039 448.4039
   448.8525 449.3705 449.3705 449.4281 449.9888 449.9888 450.0575 450.2344
   450.8441 451.8568 452.0314 452.0314 452.0739 452.1431 452.2811 452.3673
   452.3673 452.4014 452.4640 453.8580 453.8580 454.8002 454.8002 455.1139
   455.5915 456.0235 456.0557 456.3275 456.3275 456.3708 458.9632 458.9632
   459.2377 459.3044 459.7080 459.7905 459.7905 459.9285 462.0766 462.0766
   462.2559 462.4730 463.4589 463.4589 464.2781 465.8066 465.8946 465.8946
   466.0251 466.0842 469.3715 469.9912 469.9912 470.4673 471.8201 471.8201
   472.5473 472.7958 472.7958 473.2523 474.3271 474.3271 475.1284 475.1545
   475.2461 475.2461 475.3939 475.5629 476.2719 476.6376 476.6803 476.6803
   476.9315 477.0984 477.2034 477.2817 477.2817 478.5878 478.5878 478.9430
   479.2533 483.6541 483.9359 483.9359 484.3568 485.2438 485.6607 485.6607
   485.8904 486.2949 486.4548 486.5537 486.5537 486.5856 488.4433 488.4433
   488.7642 488.7681 488.8639 488.8639 488.9142 489.2603 489.2603 489.3188
   489.7765 490.5459 490.5459 491.5374 491.9415 492.3774 492.6653 492.6653
   492.8015 493.0301 493.3184 493.5658 493.5658 493.6489 495.8094 495.8437
   495.8437 496.3237 496.4150 496.4150 496.4253 496.5480 498.3677 498.7233
   498.7233 499.3044 502.7826 502.8448 502.8448 502.8509 503.5263 504.2217
   504.2217 504.8363 505.5343 506.5627 506.5627 506.6529 507.0909 507.9852
   507.9852 508.2941 508.3379 508.3379 508.3528 509.8140 511.6050 511.9998
   511.9998 513.2218 513.3782 513.5496 513.5802 513.5802 513.8834 513.8834
   514.0013 514.9579 515.5425 515.5425 515.8025 515.8932 516.5181 516.5181
   517.8799 517.8799 518.5805 519.1434 519.7883 520.5860 520.6753 521.4991
   521.4991 521.7516 521.8894 521.8894 522.0760 522.0871 522.2043 522.2043
   522.4287 522.5178 522.7306 522.7306 522.8260 522.9642 524.3589 524.4443
   524.4443 525.0292 526.7036 528.1379 528.1379 528.5844 529.0474 529.0474
   529.0704 529.5122 529.9524 529.9731 529.9731 530.0238 530.2596 530.2829
   530.2848 530.2848 530.4229 530.4997 530.4997 530.9676 532.5460 532.5460
   533.6647 533.9888 534.0639 534.7582 534.7582 534.9195 535.2101 535.7468
   535.7468 536.1349 537.0810 537.0938 537.3052 537.3052 537.6827 537.8853
   537.8853 538.3232 538.3771 538.5498 538.5498 538.9163 539.8773 539.8773
   540.8170 540.8771 541.2990 541.2990 541.4270 541.4672 541.8054 541.8054
   541.9421 542.2671 542.2671 542.3559 542.3952 542.4663 542.5647 542.7960
   542.7992 542.7992 543.9755 543.9970 543.9970 544.1084 544.9601 544.9601
   545.0002 545.0692 546.0275 546.0530 546.0551 546.0551 546.7512 546.7850
   546.7850 547.8285 548.9502 548.9502 548.9640 549.1263 549.3332 549.3332
   549.4692 549.5050 549.7638 549.7638 549.8075 549.9696 550.1875 550.1875
   550.1962 550.3416 552.6682 552.6701 552.6866 552.6866 553.1315 553.1700
   553.1700 553.1804 554.3655 554.6755 554.6755 555.2457 555.7194 555.8809
   555.9818 555.9818 556.0750 556.0750 556.1518 556.7573 556.7578 556.9260
   557.1418 557.1418 557.7535 557.7535 557.7753 557.7934 558.8200 559.7085
   559.7789 559.7789 559.7999 560.5122 560.5122 560.8217 561.1197 561.1595
   561.2209 561.2209 561.2355 565.8079 565.8079 565.9963 565.9993 566.0305
   566.0320 566.0320 566.1236 571.0614 571.1513 571.1513 571.3797 571.7489
   571.7489 571.7511 571.8507 571.9079 571.9079 571.9376 572.1081 572.3785
   572.4010 572.4010 572.4136 573.5579 574.7589 574.7589 575.3154 575.7297
   576.9746 576.9746 577.5081 577.5081 577.8026 577.8780 578.2227 578.4877

          k =-0.1667 0.5000-0.1667 (  2451 PWs)   bands (ev):

   -24.3377 -17.0010  -7.8531  -7.7441  -7.7368   1.1093   1.4733   1.5202
    10.1309  11.1572  13.6194  13.7980  14.7578  14.9425  20.0568  21.6747
    21.8760  23.4310  25.6540  26.7978  26.9672  27.9658  29.6790  31.7978
    32.7718  35.2100  36.5854  37.4890  39.5663  39.9784  42.3234  43.7448
    43.9622  44.4713  46.3130  47.2856  48.3661  48.6168  49.0187  50.8581
    52.6927  52.8474  53.6664  54.6982  55.2369  57.6512  58.7961  58.8256
    59.9474  60.0564  60.8176  61.6597  62.2591  64.2345  64.9360  66.2726
    66.3496  67.1425  69.0310  71.1430  71.2534  72.2236  72.3563  72.8942
    74.6496  74.7898  76.1622  77.7876  79.1466  79.5349  79.6543  81.3560
    82.0472  82.8265  84.1920  84.4071  84.4238  86.9124  87.0494  88.8695
    89.4141  90.0731  91.1307  91.4607  92.3524  93.7501  94.3541  95.1286
    95.6457  96.6316  97.5286  98.0143  99.4004 100.0023 100.7353 101.0988
   103.1839 103.5404 104.0243 104.1973 104.5310 105.8507 106.2519 106.4818
   108.1018 108.1177 108.5111 109.8842 111.5988 111.6321 111.9216 112.1063
   112.5351 112.6322 114.4342 114.5826 115.3629 115.4024 116.2437 116.7931
   117.2055 118.4263 119.4250 120.1097 120.7472 121.2404 121.4499 121.8387
   122.5480 123.3266 124.3175 125.1104 125.3079 125.5504 126.8519 126.8708
   127.4279 127.6831 128.4053 129.5751 129.9403 130.9473 131.0520 132.8158
   133.4801 134.0627 134.7108 135.8036 138.0095 138.7927 139.8653 140.6505
   140.8936 141.6986 142.8073 142.8297 143.7340 143.9157 144.8663 145.9637
   147.0614 147.3062 147.4982 148.1324 148.4855 149.3277 149.4825 152.2355
   152.5154 153.1107 153.5114 153.8715 153.9531 154.7248 155.0646 155.6451
   156.5934 157.5760 158.0116 158.6403 158.9974 159.9711 160.1683 160.9630
   161.4522 162.1882 162.9016 163.1407 163.8751 164.1881 165.0048 165.2798
   165.9238 167.4773 167.4784 167.8795 168.1834 168.3655 169.1587 170.2176
   170.4200 171.1527 171.8437 172.1127 172.2337 172.9014 173.7824 174.4144
   175.0453 175.8610 176.7716 177.1158 178.1268 179.1572 179.3616 179.4209
   179.7990 179.8852 180.7454 181.0070 181.0546 181.9379 183.1579 183.2566
   183.9670 185.0827 185.9643 187.0888 187.2854 187.8060 188.0200 188.8517
   190.0080 190.5683 191.5819 191.8562 192.4256 193.2938 193.7466 193.9241
   194.4333 194.5813 194.6020 194.8902 195.3704 195.4355 196.5834 196.6245
   197.8363 197.9529 198.5153 199.6449 200.5372 200.5722 201.2157 201.3162
   201.6206 202.0448 202.7869 202.8541 203.8058 204.8584 205.2890 205.6611
   205.9556 206.2417 206.9068 207.4386 207.8397 208.0036 208.2323 209.2077
   209.5366 209.8891 209.9926 210.3121 210.9444 211.2797 212.0836 212.5192
   212.5872 213.0625 213.8357 213.8491 214.3678 214.3678 214.9472 215.8899
   216.1162 216.3555 216.8975 218.4249 219.2110 219.5995 220.2039 221.1061
   221.2128 221.2505 222.3999 223.6290 224.3861 224.7445 225.3465 226.2339
   227.2948 228.5085 229.3722 229.8701 230.4636 230.5797 230.8188 231.1376
   231.1861 231.7894 232.8462 233.0099 233.4631 233.8080 234.3045 234.6313
   235.5701 236.7226 236.8729 237.0648 237.2406 237.2877 238.3188 238.4831
   239.0069 239.8764 240.0109 240.9454 240.9675 241.8648 242.9749 243.6160
   244.3893 245.2457 246.3615 246.7424 247.2954 247.3844 249.3651 249.4563
   250.5721 251.3117 252.0113 252.3725 252.9456 252.9775 253.9267 254.1579
   254.6920 254.8445 255.1465 255.3458 255.7966 255.9197 256.7470 256.7935
   257.3196 257.9486 258.4998 258.8456 259.4846 259.5410 259.5774 260.2167
   260.6376 260.6634 261.3405 261.3755 262.4496 262.9099 263.5445 264.5026
   264.7811 265.1598 265.6123 266.1988 266.5592 266.7934 267.2445 267.2970
   267.7491 267.9693 268.3528 269.5609 270.0847 270.5811 271.4060 271.5350
   272.2087 272.6516 273.1072 273.4484 273.4504 273.7343 274.9190 274.9444
   275.5872 275.7315 276.3014 276.4161 276.5355 276.9961 277.1858 277.7618
   279.2225 279.2714 279.8064 280.1381 280.9494 281.1686 281.2524 281.6155
   282.0760 282.4620 282.7698 283.0544 283.4295 283.8289 285.3046 285.5921
   286.2395 286.6233 286.8578 286.8998 287.5076 287.9858 288.1529 288.5095
   288.7422 289.2356 289.9184 289.9896 290.1020 290.5376 290.5873 291.0006
   291.0314 291.3926 292.4658 292.8610 293.3767 293.5427 294.2422 295.0785
   295.5806 296.5716 296.8446 297.5847 298.3075 298.9049 299.2555 300.0548
   300.2399 300.5801 300.8707 302.1666 302.1668 302.7417 302.7745 303.1121
   303.5354 304.7674 305.4715 306.3502 306.6726 307.2905 307.4625 307.6733
   308.5594 308.6557 308.6743 309.0393 309.3566 309.6365 309.6983 310.4846
   310.7386 310.8432 311.2604 311.5925 312.1755 312.3027 312.5081 312.8528
   313.0917 313.6707 313.7544 313.9780 314.4512 315.4851 315.7460 316.1410
   316.9502 317.9116 319.1330 319.3771 319.5860 319.7637 320.1555 320.3888
   320.7744 321.1490 322.0627 322.1978 322.4724 322.5191 322.6674 323.4639
   323.5092 324.3508 324.6893 324.8167 325.2793 325.8982 326.4291 326.7853
   326.8819 327.2494 328.9876 329.0349 329.7312 330.5159 331.4695 331.8510
   331.8782 332.1730 332.3596 333.0692 333.3845 333.6193 334.1541 334.6257
   334.6936 335.0762 335.2003 336.2825 336.5301 336.8999 337.1090 337.9034
   338.0678 338.9021 339.4220 339.6409 340.3064 340.5408 340.8747 341.1319
   341.3844 341.5206 341.8926 342.6591 342.6813 343.3577 343.8359 344.5669
   344.9462 345.2704 345.4438 346.1437 346.2442 346.3090 347.1519 347.8657
   348.6921 349.6459 350.6053 351.2284 351.7859 351.8729 351.9224 352.3980
   352.7189 353.0598 353.4758 353.5927 353.6750 354.2023 354.2954 354.9364
   355.0061 355.2451 355.5740 355.6366 355.9477 356.7259 357.2471 357.6997
   357.9340 358.3751 359.8159 360.2598 360.4175 360.5773 360.8700 361.6915
   361.8343 362.0453 362.5456 362.8160 362.9688 363.9648 363.9875 364.2675
   365.3040 366.6464 367.3378 368.3342 369.2335 369.5131 370.6718 370.9101
   371.1853 371.9574 371.9707 372.2746 372.2864 372.6727 373.8879 374.2963
   374.7582 375.0631 375.2796 375.4222 376.3970 376.4136 376.8298 377.1943
   377.3076 377.3839 377.9039 377.9378 380.0853 380.7554 381.1300 381.4443
   381.7046 381.9925 382.4679 382.5440 382.9338 383.6096 383.7914 383.8102
   384.0561 384.4858 384.8676 385.0772 385.7900 385.8278 386.1084 386.7076
   387.0767 387.2352 387.7431 388.1026 388.3305 388.9049 389.1467 389.2774
   389.6364 389.7723 390.0370 390.7370 391.6678 391.6997 391.7416 392.2270
   392.3833 392.7055 393.0102 393.3380 393.6810 394.1142 394.7990 394.8568
   395.3074 395.6716 395.9497 396.9623 397.3313 397.9317 398.2923 398.3386
   398.9030 399.0204 399.1461 399.5442 399.5737 400.1051 400.6225 400.7084
   401.1980 401.5103 401.8677 402.1953 402.9218 402.9305 404.3153 404.7080
   404.9385 404.9726 405.2929 405.7295 406.1594 406.1602 406.6362 406.8510
   406.9137 407.0992 407.1354 407.4315 407.4322 407.7765 408.3729 409.7817
   409.8091 409.9276 410.1348 411.5935 412.2039 412.8273 413.0341 413.4926
   413.5687 413.8323 414.2008 414.7400 414.8188 414.8620 414.9708 414.9929
   415.0987 415.7901 415.8446 417.2250 417.6950 418.1218 418.5111 418.6831
   418.9541 419.1037 419.5339 419.7584 419.8580 420.4099 420.4671 420.5678
   420.6768 421.5881 421.6171 422.1028 422.6040 423.0822 424.1690 424.2514
   424.6268 425.2237 425.3082 425.7388 425.9281 426.1346 426.3586 426.3601
   426.8912 427.7641 427.8543 428.3536 428.4617 428.8512 428.8677 429.2016
   429.4415 429.6290 429.6645 430.0610 430.4452 430.5336 430.6420 430.7679
   431.4200 431.6718 433.0771 433.2495 433.4936 433.7190 433.7222 434.0813
   434.2454 434.6301 434.8250 436.1876 436.6976 437.1682 437.2608 437.8211
   438.3730 438.4487 438.9637 438.9842 439.3060 439.8961 440.7587 441.0211
   441.8710 441.9144 442.9139 442.9214 443.0267 443.2119 443.4352 443.6018
   443.9861 444.7289 445.5687 445.9441 446.0131 446.6789 446.9984 447.0435
   447.2161 447.2767 447.4253 447.7950 448.2787 448.7944 449.6220 449.7676
   449.8025 450.5480 450.7575 451.4370 453.0278 453.4603 453.4946 453.5666
   454.3865 455.0330 455.0789 455.6770 455.8501 456.1117 456.8822 456.9254
   457.0136 457.4369 457.5211 457.7858 457.8832 459.0209 459.1334 459.3934
   459.8082 460.3899 462.2920 462.6980 463.2500 463.4319 464.0176 464.4286
   464.8076 464.8841 465.0954 465.1709 465.7080 465.7496 466.0666 466.7944
   466.8051 467.1742 467.2780 467.3000 467.6534 468.5168 470.6056 471.0232
   471.1738 472.1104 472.4726 472.7067 472.7832 473.7250 473.9288 474.0420
   474.2805 475.1657 475.3849 475.7033 476.0106 476.0145 476.2906 476.7439
   476.9462 477.4053 477.8210 478.1470 479.0521 479.0974 479.1946 479.2669
   479.3258 479.3646 479.5645 479.6068 479.6858 479.8091 480.2250 481.5308
   481.5545 482.5542 482.5619 482.8636 483.0032 483.1756 483.5238 483.5268
   484.5926 485.0395 485.2089 485.6596 485.6858 485.9839 486.1652 486.3513
   486.7831 487.1341 487.1467 487.1646 487.2336 487.8254 488.0040 488.1202
   488.7640 489.8325 490.1369 490.8548 491.0796 491.4510 492.3936 492.4306
   493.2370 493.3123 493.5761 494.1226 494.3833 494.5543 494.7902 494.8652
   495.0599 495.0928 495.2506 495.3267 495.8346 496.3428 496.3944 496.9317
   498.5936 498.7386 498.8315 499.0578 499.2680 499.4650 501.1092 501.1810
   501.5508 502.2117 502.4445 502.4772 502.5297 502.6563 502.7855 502.9908
   503.4123 503.6321 504.1769 504.1774 504.3587 505.0082 505.6597 506.0037
   506.3430 506.7831 507.8634 508.0583 508.3123 508.3191 508.5149 508.9967
   509.7738 509.8209 510.7469 510.9246 511.2528 511.3025 512.1746 512.8858
   513.5528 514.6931 514.8077 515.1033 515.2704 515.3738 515.3810 516.1099
   516.4039 516.4443 517.5082 518.2340 518.4747 518.6718 518.8559 518.9736
   519.1420 519.2049 519.5081 519.7480 519.8091 520.1420 520.3193 520.5158
   520.8623 521.5035 521.7696 521.9960 522.5614 522.7388 522.8133 523.0113
   523.1256 523.4706 523.7149 523.7331 523.8927 523.9788 526.0828 526.7337
   527.2944 527.6057 528.7942 529.0246 529.2037 529.3548 529.6582 529.7249
   529.7377 530.4432 530.5543 530.7240 530.7335 530.9543 531.2991 531.3154
   531.9002 532.3626 532.6035 532.6108 532.9374 533.2829 534.7736 535.1272
   535.4202 535.6473 535.7404 536.4827 536.7157 536.9716 537.2952 537.5922
   537.7328 537.9093 538.2125 538.2636 539.1182 539.6316 539.6874 539.7459
   540.1239 540.4519 540.4609 541.1387 541.3015 541.6024 542.2787 542.4436
   543.2464 543.2869 544.5212 545.0942 545.1577 545.8971 545.9642 546.0267
   547.2799 547.3022 547.7691 547.8636 548.2148 549.1723 549.1897 549.4804
   549.8430 550.1562 550.1741 550.3713 551.0665 551.1503 551.3527 551.3770
   551.4778 551.5072 551.6572 552.2306 552.2448 553.7392 553.8245 553.9426
   553.9489 554.1313 554.1788 555.5319 555.6334 555.6763 556.0226 557.0804
   557.7221 557.9347 557.9994 558.2050 558.3375 558.3640 559.0787 559.6918
   560.4256 560.4921 560.9577 560.9712 561.0607 561.6645 561.7779 562.1421
   562.4350 562.7112 562.8547 562.8670 562.9777 562.9779 563.6054 564.4316
   564.6888 564.9335 565.5995 565.9757 566.3090 566.3387 566.4338 566.4381
   566.5358 566.6332 566.7738 566.8096 567.1327 567.3741 567.4083 567.7818
   567.8425 567.8511 568.2898 568.5913 568.6291 569.0065 569.4548 569.7212
   569.8854 570.4994 570.7829 570.9826 571.5316 572.1428 572.2062 572.5326
   572.7309 572.7967 572.9072 573.0322 573.3475 573.5170 574.0095 574.0127
   574.2214 574.6344 574.8612 575.4588 575.9145 576.2792 576.3236 576.7800

          k = 0.6667-0.3333 0.6667 (  2450 PWs)   bands (ev):

   -24.3036 -17.0271  -7.9637  -7.7904  -7.7359   1.0223   1.3362   1.3635
    10.9617  11.8818  13.6104  14.1335  15.8078  16.0581  17.5540  20.3184
    20.4058  23.1210  26.3356  26.4710  27.8690  29.0687  30.0720  33.0711
    33.8453  35.1397  36.3921  37.6834  38.4310  39.3737  39.7359  42.7540
    43.7446  44.3467  44.7682  45.8623  46.8008  49.4050  49.8163  51.3181
    51.9328  51.9481  54.0221  55.0342  56.3945  57.8706  57.9921  59.1319
    59.6094  62.4199  62.7108  62.7244  63.7829  65.4883  65.9618  67.2516
    67.9328  68.5439  70.5759  70.9327  71.8600  73.4714  73.7706  74.4517
    75.0930  75.4587  76.8306  77.4183  78.1038  80.0096  80.1925  80.5078
    80.8253  81.3446  83.0990  83.6400  85.0336  85.3517  86.0157  86.9209
    88.3509  88.7430  88.9544  90.6903  91.4179  92.2952  92.6122  93.0468
    94.6393  95.6713  96.3035  96.6186  96.9727  98.6443  99.2840 100.8921
   101.0698 101.8097 103.4549 104.0059 105.1333 105.8500 106.1214 106.3815
   106.5481 107.1095 108.2123 109.2608 110.3552 110.4939 111.6384 111.7465
   113.4566 113.5344 115.2336 115.2954 116.3483 117.2295 117.3432 117.4721
   120.1421 120.6708 121.4175 121.8484 121.9232 122.7417 122.8866 123.4901
   123.9335 124.9495 125.0435 126.0942 126.1577 127.6695 128.2250 129.0319
   130.0271 130.0495 132.6690 132.7612 133.6809 133.9395 134.4714 135.4121
   135.9256 136.0175 136.0783 137.4806 137.7650 138.1732 138.4923 138.9940
   140.1300 140.6793 140.7833 142.0906 142.3438 142.6021 143.1125 143.5798
   145.7858 145.9813 146.1793 147.0163 147.4769 149.0509 149.6985 149.9581
   150.9185 151.0212 151.6996 151.8557 153.2609 153.9760 155.0003 155.3597
   155.5342 156.0219 156.9749 157.1287 157.9775 158.7445 158.8737 160.8863
   161.2122 162.5162 162.7779 163.2917 163.6474 164.4199 164.5350 164.7829
   165.6190 166.1029 166.7810 167.1450 167.2622 168.4007 169.1544 170.1926
   170.6275 170.8934 171.8057 172.7678 173.2098 173.4676 174.4328 174.4718
   175.2392 176.4355 176.5266 177.2084 177.5873 178.0100 178.1065 178.5720
   178.6484 179.1071 179.4855 179.9647 180.9426 181.5453 181.6677 182.8113
   183.4900 183.6847 184.0892 184.6919 185.1464 185.9267 186.6112 186.8139
   187.7496 188.2379 188.4969 189.9018 190.5478 191.3972 191.7303 191.7412
   192.6348 193.0313 193.1592 193.5912 194.1223 194.5419 195.9173 197.0797
   197.7522 198.5007 199.5256 199.8329 199.8842 200.4369 200.7848 201.7990
   201.8442 203.3234 203.9740 204.7069 205.2035 205.4957 206.1622 206.6668
   207.0731 207.2317 207.9092 208.3903 208.6365 209.2172 209.6077 211.4257
   211.8488 212.7560 212.9913 213.1525 213.2498 215.4754 215.7263 216.4966
   216.8502 216.9676 218.1699 218.2096 218.5613 219.4813 220.0472 220.2228
   220.4733 221.4128 221.4822 221.9741 222.7010 222.8854 223.2489 223.8423
   223.9018 224.2242 225.1465 225.2539 225.6824 225.8224 226.4611 226.6936
   226.8738 227.2468 227.5271 229.0966 230.3379 230.3556 230.7624 231.1576
   231.1668 231.5833 232.5843 234.0175 235.0425 235.2994 235.5895 235.6987
   235.9591 236.9142 237.3278 237.4587 237.4934 238.1851 238.5637 239.1957
   240.2309 240.5862 240.6035 242.1312 242.2068 242.5401 242.5979 242.6858
   243.1277 243.1475 243.8378 244.6364 245.7048 245.8431 246.1787 247.3095
   247.3259 247.7839 248.1708 248.3043 248.4796 248.9517 249.2875 249.5590
   249.7540 250.7387 250.9353 251.9355 252.3302 253.3591 254.4644 255.1652
   255.4227 255.4550 255.7587 256.7244 256.9246 257.5472 257.8095 258.2607
   258.3684 258.7639 259.1020 259.6496 260.2812 260.5076 261.1878 261.2326
   262.7715 262.9163 263.0281 263.1143 263.4702 264.1562 265.2902 265.5859
   266.2945 266.5050 268.1187 268.2296 268.3464 269.3699 269.4520 270.2002
   270.7237 270.9309 272.4114 272.9805 273.1385 273.6116 274.0690 274.7065
   275.3315 275.4386 276.3944 276.4310 277.2351 277.5509 277.7148 278.0209
   278.0280 278.3064 278.5271 278.9592 279.4610 280.7845 280.8628 281.4005
   281.8996 281.9686 282.7961 282.9841 283.3760 283.7591 284.0553 284.8102
   285.4864 285.5017 286.0417 286.3383 286.6890 288.1881 289.5356 290.1592
   290.2585 291.0773 291.4636 291.7596 292.4966 292.7643 293.3009 293.8551
   294.1694 294.4405 294.6074 294.7334 295.3444 296.5343 296.6421 297.0423
   297.5815 297.9510 298.0499 298.1359 298.4604 299.1476 299.4413 300.5407
   301.2379 301.5043 301.6687 301.8406 302.6942 303.6887 304.5596 304.6615
   305.2660 305.3352 306.0133 307.4373 307.4766 307.9438 308.0697 308.0865
   308.3558 309.0624 310.1350 310.3482 310.8929 311.2268 311.6482 312.1147
   312.1733 312.8178 313.4293 313.7341 314.4907 314.9066 315.1096 315.4014
   315.8203 316.3901 316.4217 317.2152 317.8778 318.3908 318.6279 318.9416
   319.2379 319.3668 319.6453 319.7140 319.7458 320.4845 320.7747 320.8919
   321.3339 321.9006 322.3351 322.3602 322.8352 323.4608 323.7658 324.0055
   324.8229 324.9152 325.9696 326.0212 326.1706 327.0086 327.1183 327.3373
   327.9330 328.3741 329.1829 329.8883 330.5038 330.5171 330.8679 331.9014
   331.9916 332.5730 333.0406 333.2011 333.3757 333.5727 334.0936 334.6644
   335.1443 335.3620 335.8033 336.3467 336.3654 336.7437 336.7641 338.2218
   338.4205 339.2196 339.7999 339.8603 340.1717 340.5166 340.7679 341.3708
   341.4945 342.0300 342.0743 343.4769 343.5223 343.9562 344.4506 345.1820
   345.5271 346.0349 346.2124 347.2713 347.5805 348.0877 348.2719 348.4109
   348.5648 348.8652 348.8978 349.2850 349.3059 349.5910 349.8268 350.5815
   351.6455 351.9797 352.2983 352.7397 353.5901 354.5693 354.6209 355.5697
   355.9770 356.2664 356.5833 356.7011 356.9397 357.7394 357.9799 358.2363
   358.3362 359.7794 360.3088 360.5125 361.4232 361.8008 362.2260 362.4505
   362.5750 362.7142 362.8075 363.1594 364.0315 364.2215 364.6788 365.3745
[...]
   307.1350 307.6061 308.0919 308.5621 309.4894 309.8310 309.8397 311.7599
   311.9662 312.4287 313.2208 313.8946 314.2069 314.6530 314.7721 314.9020
   315.1868 315.5674 316.2962 316.6349 317.2870 317.5032 317.9569 319.0209
   319.3036 319.6162 320.0948 320.3443 321.6524 321.7982 322.2257 322.4446
   322.6231 322.6912 323.0430 323.2728 323.5603 323.9101 324.5216 324.7690
   325.1352 325.7854 327.0415 327.1693 328.0096 328.8190 329.2608 329.9081
   330.1397 330.8803 331.1763 331.7227 332.3339 332.4663 332.7230 332.7522
   332.9367 333.5407 333.9363 334.1536 334.5717 334.7540 334.7581 335.5354
   335.6693 336.2281 336.9144 337.0519 337.1705 337.2997 337.3590 337.5896
   337.7582 338.3888 338.5970 339.2220 339.3896 341.5239 341.6221 342.6563
   343.0455 344.4004 344.5275 344.8044 345.4910 346.0772 346.7881 346.9747
   347.2212 347.6477 347.7540 347.8165 349.3931 349.8009 349.9006 350.7484
   350.7887 351.2432 352.0104 352.4856 352.5268 352.7329 353.0584 353.4809
   353.7729 353.9137 354.3890 354.9120 354.9931 355.3694 355.6850 355.8038
   355.9859 356.1352 356.4209 356.6040 357.0804 357.4129 358.0500 358.4123
   358.7814 359.2781 359.9681 361.0479 361.1318 361.2731 361.4048 361.6716
   362.0104 362.4243 363.0853 363.1907 363.2706 363.6156 364.1241 364.2272
   364.6274 365.5602 365.8219 365.8750 365.8789 366.6142 366.6908 367.1526
   367.1844 367.4476 368.1739 368.6978 368.7017 369.2572 369.3857 370.8691
   370.9844 371.1195 371.1310 371.2812 372.5950 372.7568 372.8991 373.0081
   373.0429 373.3496 373.3870 374.0969 374.3329 374.4157 374.5967 375.0177
   375.0843 375.8517 376.0492 376.1614 376.2802 376.9197 378.1228 378.2022
   378.4634 378.6368 379.9705 380.4438 381.3503 381.4603 381.5200 381.6880
   382.8164 382.9961 383.5012 383.7943 384.1191 384.4201 385.8987 385.9912
   387.2108 387.2109 387.4244 387.4947 387.6903 387.9465 387.9486 388.8819
   389.8013 389.8771 390.1814 390.2307 390.4645 390.5623 392.4036 392.6010
   392.6065 392.9694 393.5186 394.2658 394.2764 394.3059 395.4964 395.6461
   396.0920 396.0941 397.6651 397.9264 398.0378 398.2372 398.3228 398.3384
   398.8051 399.6294 400.9757 401.0659 402.1491 402.4069 402.7008 402.8049
   403.1002 403.1722 403.4875 403.9726 404.6208 404.7121 405.0350 405.5854
   405.8334 406.6300 406.7541 407.2951 407.7676 407.9428 408.5098 408.6581
   409.0716 409.4873 411.5975 411.7108 411.7602 412.2516 412.9627 413.0560
   414.5366 415.0931 415.2718 415.3693 416.0614 416.2507 417.4857 417.9012
   418.5076 418.8396 418.8716 419.0552 419.4157 420.8293 420.8442 421.8756
   422.0345 423.1297 423.2937 423.5858 423.9999 424.1221 424.3038 424.4441
   425.5458 426.1098 426.3015 426.5548 426.6417 426.6811 426.6993 427.4566
   428.4154 428.5695 428.7648 429.1902 429.2779 429.3912 429.6482 429.6532
   429.8050 430.2012 430.3663 430.7599 431.2219 431.3023 431.8826 432.1242
   432.2438 432.8707 432.9737 432.9941 434.5036 434.9539 435.1519 435.8140
   436.2214 436.6792 437.4932 437.5508 437.6646 437.8716 438.1056 438.4001
   438.5392 439.2822 439.7825 439.9360 440.5001 440.6137 440.8027 441.0249
   441.1823 441.2736 441.5202 441.8245 442.5438 442.8459 442.8644 443.6434
   443.8979 443.9450 444.8093 445.1203 445.4473 445.5214 445.5379 445.5956
   445.9187 446.4945 446.8146 447.6541 447.7185 448.4206 448.6293 448.7198
   448.9350 449.7613 449.9985 450.2032 451.6181 452.4544 454.2072 454.2266
   454.8292 454.8874 455.0890 455.2744 455.6876 455.7504 455.8687 456.0574
   456.1709 456.5880 457.7675 457.7975 458.3649 458.4753 458.6078 458.9466
   459.3327 459.8080 459.9560 459.9959 460.1766 460.1818 460.4020 460.5863
   461.3895 461.7352 462.0368 462.2298 462.5667 462.8300 463.1801 463.3435
   463.4651 463.4760 464.4946 464.8913 464.9645 465.3560 465.5086 465.8871
   466.5491 466.7543 467.7640 468.0271 468.1721 468.8235 469.0962 469.1262
   469.2220 469.2493 470.1078 470.1482 470.4817 471.0513 471.3345 472.4368
   472.7751 473.1956 473.3491 473.4323 473.6482 474.3539 474.6340 474.7367
   474.9279 474.9817 474.9868 475.6623 476.4017 476.4790 477.4632 477.4910
   477.6400 477.7737 479.4639 479.8270 481.0394 481.0494 481.3034 481.4638
   481.4711 481.6866 481.7610 482.4069 482.5438 483.0038 483.0088 483.1620
   483.4877 483.5059 483.9240 484.2792 484.3624 484.8932 485.0368 485.4935
   485.4967 485.7340 485.8010 485.8069 487.7035 488.1222 488.6065 488.8751
   489.1669 489.3749 489.9813 490.5156 491.1936 491.8205 492.0956 492.9659
   493.2813 493.8281 493.9084 494.8369 494.9116 495.4072 495.4078 495.6234
   495.7541 495.7921 495.8043 496.8120 497.0346 497.4791 497.8805 497.9510
   498.7100 498.8577 500.3567 500.5064 500.7184 500.8896 501.1556 501.3990
   501.5440 501.8472 502.1822 502.2248 502.4391 502.7816 503.6350 503.6442
   503.7711 504.0915 504.1956 504.2605 504.4922 504.5169 504.6208 504.8547
   504.9473 505.4087 505.8699 506.8293 507.3629 507.3948 507.5355 507.6607
   508.3343 508.4644 509.4721 509.5772 510.5525 510.9565 511.2847 511.4370
   511.6417 511.8812 511.9346 512.0289 512.0917 512.3830 512.5337 512.8252
   512.8615 513.0787 514.1817 514.1846 514.5700 514.7409 515.9837 516.4675
   516.5650 517.1911 517.5540 517.5547 517.8587 517.8979 518.1906 518.3694
   518.7498 518.7726 519.1252 519.2601 520.7741 521.0752 521.1006 521.1372
   521.5346 521.6522 522.0470 522.1407 522.6056 522.8382 523.2344 523.2526
   523.9590 524.0436 525.3695 525.4068 525.6141 525.6480 526.2296 526.2641
   527.0790 527.1675 527.2138 527.3559 527.6625 527.6882 528.1751 528.7026
   528.7346 528.8233 529.8987 530.0566 531.2095 531.2128 531.7228 531.9344
   532.5737 533.0050 533.3604 533.3608 534.1770 534.1847 535.4989 535.6870
   535.7186 536.0343 536.5927 537.0861 537.3314 537.7565 537.7633 538.1026
   538.2120 538.2398 538.3884 538.5605 538.6485 539.1607 539.9147 540.1523
   540.4644 540.4989 541.0976 541.1420 541.6185 542.2731 543.1302 543.2108
   544.0662 544.0883 544.7729 545.1080 545.2175 545.6035 546.3467 546.6096
   547.6857 547.9224 548.1384 548.2456 548.3361 548.5664 548.5906 548.6185
   549.4560 549.6076 549.7491 549.7625 551.6060 551.6437 552.6442 552.6742
   553.8023 553.8026 554.3390 554.6204 554.8482 554.9228 555.0502 555.4259
   555.4352 555.6607 555.7064 555.7440 555.8441 555.8763 556.2142 556.3956
   556.6176 556.7300 557.1847 557.2470 558.1674 558.2166 558.8503 559.0224
   561.2023 561.2335 562.1906 562.2748 562.5529 562.8984 562.9370 563.0798
   563.6990 563.7940 564.2340 564.4279 565.2420 565.2746 565.6669 565.8243
   566.5167 566.5484 566.6411 566.6702 567.3724 567.6808 567.8401 568.7962
   568.8771 569.1259 569.1376 569.1590 569.4350 569.4954 569.7482 570.2499
   570.2648 571.5518 571.7765 571.8962 572.7637 572.9900 573.0026 573.6029
   573.6514 573.7803 573.7840 574.2592 575.7436 575.8860 576.7896 577.5109
   577.5465 577.8469 578.8190 578.8368 579.4210 579.4425 579.7915 579.8686

          k =-0.3333-1.0000 0.0000 (  2436 PWs)   bands (ev):

   -24.2845 -16.9900  -8.1517  -7.9680  -7.7743   1.3201   1.4630   1.5338
    10.6616  12.3821  12.7167  15.2196  15.8548  16.9045  17.0025  18.6054
    20.0353  23.8699  25.2676  28.6637  28.7805  30.8515  31.6107  32.5762
    33.4559  34.7856  35.1559  35.2691  37.3965  38.6573  38.9552  39.7570
    43.4178  44.6498  44.9417  45.7553  45.8323  49.9721  50.3725  51.3344
    52.9181  54.6169  55.7562  56.4003  56.9019  57.1228  58.1377  59.1519
    61.7290  61.9671  63.0589  63.6922  64.5506  64.9990  65.6559  66.8416
    67.4697  67.9186  69.8245  71.9552  72.0825  72.8437  74.4640  74.9056
    75.6788  75.9367  76.3659  77.4230  77.6494  78.4037  79.3056  80.1986
    80.3079  81.8534  83.4777  84.3727  85.5853  86.8016  87.0283  87.0781
    89.1937  89.8531  90.0289  90.3523  91.6390  93.1970  93.2278  93.3466
    95.1131  95.1937  95.4929  96.1494  96.3944  97.8706  97.9643  98.7313
    99.4373  99.7501 100.4668 100.6643 100.8447 102.7060 103.0295 104.1030
   105.3668 105.5246 106.1239 106.2404 107.5150 109.8375 110.9532 112.7241
   113.2181 115.6300 116.1415 117.2005 118.5175 118.7828 119.0939 119.6402
   121.1175 121.8221 122.5314 123.5249 123.8382 124.9704 126.0379 126.1132
   126.6323 126.8562 126.9418 127.2218 127.6419 129.1957 130.0686 130.3659
   130.4755 131.1804 131.4981 134.0016 134.6626 134.9947 135.8520 136.8857
   137.3234 137.6878 138.5291 138.5883 139.3087 139.3764 139.6852 140.3135
   141.2357 141.6677 141.7801 142.0273 142.7475 142.9709 143.2976 144.2651
   144.6757 145.9399 147.1968 147.2632 147.7432 147.7784 148.4459 149.3695
   149.4089 150.2664 150.3913 150.8538 153.0240 153.2768 153.6565 154.1766
   155.2296 155.4338 155.9647 157.5301 157.6677 158.1303 159.3450 159.4595
   160.0035 160.9206 161.1985 161.2560 161.4379 161.9675 162.6625 163.0947
   163.1521 163.1691 164.6306 164.8212 165.2089 165.2779 165.4384 166.5967
   167.0209 167.2228 167.8124 168.1425 169.4482 170.1892 171.5033 173.5660
   173.6619 174.1524 175.1440 175.4198 176.7324 177.7835 178.2111 179.4795
   179.9250 180.0824 180.4421 180.4576 180.5675 181.0503 183.3245 184.3619
   185.2897 186.8023 187.5476 187.9042 187.9655 188.2678 188.3624 188.7921
   188.8218 189.0579 189.6085 189.8499 190.0195 191.7855 193.4950 194.3628
   194.3661 194.5347 195.3953 196.2864 196.4768 196.8255 197.1032 197.8396
   198.3301 198.6871 200.0545 200.1105 200.7363 201.2010 201.6307 201.8681
   204.0477 204.4170 204.5453 205.9003 206.2493 206.7727 206.9928 207.1107
   207.2258 207.4972 207.8391 208.9976 209.0408 209.7426 209.9083 211.5715
   211.7294 211.9479 212.2636 213.5851 214.4519 214.9587 215.7886 216.4231
   216.5656 216.9516 217.0137 217.0530 218.6699 219.4008 220.3340 220.6098
   220.8424 222.1100 222.9366 223.6193 223.6308 223.7407 224.4033 224.7121
   224.8614 225.2687 225.3752 225.5945 227.4852 227.6743 228.2835 228.4967
   229.1396 229.3028 229.5242 230.5334 230.8073 230.8687 231.3794 231.8959
   232.1961 232.6424 232.7305 233.7691 234.3100 234.4144 234.6960 235.6742
   235.8549 236.3348 236.5072 236.7812 237.0074 237.3648 238.9169 240.0431
   240.0819 240.2209 240.4454 240.7219 241.1102 241.3664 241.8780 241.9080
   242.5890 242.6461 243.3049 243.4121 243.6309 244.3944 245.0577 246.3435
   246.6967 246.8440 247.1944 248.3482 248.8323 249.0293 249.0962 249.2901
   249.7922 249.9858 250.6189 250.7710 250.9776 251.1705 251.9107 252.8378
   252.9048 252.9312 253.4791 253.4992 254.3400 255.3585 256.5446 256.5652
   256.6931 256.8024 259.4306 259.9867 260.0310 260.9302 260.9883 262.5650
   262.7952 263.0421 263.1801 263.9758 264.2025 264.6895 265.3956 265.9602
   266.1686 266.2152 266.5134 266.8602 268.6714 268.8525 269.1649 269.3046
   269.4066 270.2155 270.7795 272.6021 272.7662 272.9613 273.7753 274.2639
   275.4903 275.6045 275.7632 276.4383 276.5737 277.0518 277.3683 277.5755
   277.9122 278.1239 278.1806 278.1888 278.9011 279.5159 279.5900 280.2772
   280.9855 281.2997 281.5792 281.6875 283.1118 283.3472 284.0764 284.6587
   285.1195 285.3604 287.4551 288.7124 288.8156 289.2388 289.2821 290.5302
   290.6744 292.0289 292.5200 292.6150 292.8069 292.9403 293.8251 293.9175
   294.0155 294.0925 294.3535 294.6017 295.2376 295.6753 295.8376 295.9122
   296.8261 296.9459 297.8048 298.3667 299.2221 299.3190 300.6829 301.4620
   301.5185 301.6719 301.9417 302.5566 302.6127 303.1171 303.2037 303.7997
   304.2457 304.8714 304.9019 305.1795 305.5483 305.5874 306.1681 306.6145
   307.3633 307.4945 308.2878 309.3794 309.8682 311.8993 312.1514 312.3996
   312.5550 312.8704 313.1389 313.4650 313.6630 313.9880 314.0606 314.1746
   314.8112 315.8629 315.9231 316.0032 316.2259 316.5506 317.7368 317.9984
   318.0727 319.2346 319.8260 320.7713 320.8478 321.2080 321.4596 322.5979
   325.1596 326.1859 326.4355 326.7543 327.0596 327.2879 327.8711 327.8907
   327.9748 328.3133 328.6443 329.1379 329.4669 330.1154 330.5874 330.9144
   331.1942 331.2913 331.4498 331.6291 332.1892 333.0581 333.0582 333.7696
   334.7719 335.2866 335.3876 335.5780 335.8732 336.1067 336.7285 336.9607
   337.3876 338.1785 338.7509 339.1874 339.6090 339.6792 340.1312 340.3257
   340.5486 341.5581 341.7103 341.9786 342.5099 342.9057 343.0600 343.1252
   343.2717 343.4369 345.6123 345.7418 346.7837 346.9623 347.1976 347.3061
   347.9139 348.0644 348.3002 348.5193 348.7222 349.3026 349.3261 349.5343
   349.7272 349.8204 349.8377 350.1325 350.2592 351.2863 351.2889 351.6659
   352.0505 352.2156 352.2325 352.3721 353.6288 353.6528 353.7596 354.0570
   354.1975 354.3184 354.8100 355.2869 355.4751 355.9706 356.0260 356.0529
   356.7522 356.7957 357.2322 357.3404 357.7054 359.0907 359.6031 359.9923
   360.2189 360.8733 360.9555 360.9812 361.6972 362.4845 363.2319 363.7180
   363.7361 363.8242 364.1637 364.3715 365.0985 365.4420 365.4923 365.7823
   365.8276 366.2967 366.4695 367.4648 367.4790 368.0277 368.3705 369.9133
   369.9659 370.3097 370.5259 371.0587 371.4620 372.5986 374.2940 374.5642
   374.6060 374.7259 376.2387 376.5740 376.5861 376.8987 377.1561 377.7269
   378.2504 378.4342 378.4370 378.8738 378.9652 378.9716 378.9882 379.3132
   379.3449 379.5542 379.7073 379.7141 381.4410 382.4376 382.5525 382.6050
   382.6753 382.8681 383.6113 383.8309 384.2703 384.4893 384.5356 384.5776
   385.6474 386.1127 386.2582 386.3761 386.7295 386.9692 387.1767 387.4168
   387.4798 388.0912 388.1169 388.2410 389.9213 391.2689 392.3209 392.3223
   392.6272 393.7094 393.8529 393.8811 394.1885 394.7186 394.9466 394.9575
   395.6119 395.8401 395.9006 396.0161 396.5026 396.6019 398.0041 398.0122
   398.5262 398.6979 399.2991 400.0001 400.3790 400.5025 400.6161 401.0311
   401.0777 403.5438 403.5678 404.1650 404.5564 404.6447 405.7264 405.7275
   406.1585 406.8603 407.2105 407.4422 408.4506 409.9649 409.9686 409.9975
   410.3678 410.7868 411.5057 411.7066 411.8651 412.6069 412.6841 413.3000
   413.4059 413.5967 413.8253 414.1603 414.3367 415.1208 415.3943 415.9493
   416.1312 416.3612 417.5472 418.0758 418.0843 418.0860 418.9735 418.9807
   419.3211 419.3941 419.8012 419.9801 420.3002 422.1076 422.5371 422.7025
   422.7695 423.1532 426.0027 426.2451 426.5347 426.7229 427.6260 427.7348
   428.0443 428.3271 429.0809 429.3381 429.4002 429.8001 432.6795 432.9370
   434.0261 434.2715 434.4049 434.9758 435.2495 435.4228 435.8249 435.8921
   436.3169 436.8129 437.2056 437.3387 437.4215 437.5850 437.8097 437.9512
   438.1572 438.3667 439.1028 439.7467 440.4953 440.7239 440.7853 441.1413
   441.3179 441.7333 442.0209 442.1128 442.3039 442.5104 442.6508 442.6830
   443.1077 443.7052 443.7794 444.0021 444.1406 444.5465 445.9860 446.0392
   446.1762 446.7662 447.0259 447.2497 447.8924 448.1109 448.1766 448.2846
   448.4432 448.9794 449.2169 449.2234 449.2316 449.7722 449.9168 449.9893
   450.1203 450.1565 450.2431 450.4143 450.4371 450.6429 450.6498 450.7194
   452.1721 452.6784 452.9652 453.1468 454.4682 454.5413 455.2904 455.5490
   455.6605 456.0403 456.4021 458.3644 458.6797 458.6890 458.7242 459.0069
   459.1539 459.2352 459.5672 459.9838 460.0438 460.1867 460.1999 460.6836
   460.7208 462.2879 462.3354 463.0643 463.2990 463.4993 463.7072 463.8048
   463.9071 464.0280 464.0624 464.1877 464.3800 464.5438 464.7719 464.8349
   464.8435 464.8646 464.9605 465.7698 465.9219 465.9540 466.4857 466.5335
   467.0929 468.0305 468.4989 468.5729 469.4923 469.9408 470.1421 470.5895
   470.7837 470.9327 471.2043 471.5195 472.0855 472.6679 472.9730 473.0404
   473.9433 474.1443 476.7046 476.9833 476.9845 477.2303 478.6188 478.6230
   478.6331 478.6697 480.9956 481.5308 481.6134 481.7828 481.8363 482.1865
   482.2448 482.5545 482.8524 482.9754 482.9792 483.8590 483.9838 484.4184
   484.5335 484.6070 484.7563 484.8245 484.8989 485.0324 485.6585 486.1032
   486.4864 486.6754 486.7940 487.7862 487.7917 487.9435 487.9549 488.6192
   489.0561 489.2805 490.1830 490.2928 490.3937 490.4550 490.5891 490.6929
   490.7383 490.7615 491.0397 491.1583 491.8350 491.9306 491.9726 492.3635
   492.7197 492.8586 493.0157 496.4726 496.5502 497.3985 497.4619 497.7228
   498.1447 498.2295 498.4150 498.5562 498.8535 499.0406 499.2211 499.2359
   499.3938 499.4228 499.5352 499.7905 499.9475 500.3401 500.3745 501.4535
   501.7262 501.9259 501.9679 502.3250 505.6141 506.3684 506.3972 507.0074
   507.0897 507.4402 508.3135 508.6112 508.6304 508.6316 508.7110 508.8659
   508.8677 508.8917 509.1230 509.1927 509.2781 509.4538 509.4853 510.6137
   510.7656 511.2842 512.2191 512.3800 512.4074 512.6629 512.6886 513.0014
   513.0372 513.1005 514.4801 514.5922 515.0233 515.0666 516.0640 516.3423
   518.1769 518.2346 519.1018 519.9552 520.1212 520.1518 520.1532 520.1681
   520.3672 520.4041 521.1060 521.1192 521.3235 521.3391 521.4851 521.8286
   521.8564 523.0114 523.0599 523.0611 523.3528 523.4570 524.0741 524.2409
   524.2602 524.3607 524.3800 524.5121 525.8116 525.9175 526.3476 526.6174
   526.7331 526.9523 526.9784 527.2788 528.6094 528.6625 528.6951 528.8904
   529.1476 529.1652 529.1966 529.2205 529.2331 529.3156 529.4272 529.8967
   529.9116 530.0365 530.3575 530.6325 532.6705 533.0561 533.3331 533.3723
   536.8485 536.9796 537.2737 537.3100 537.7878 537.8101 539.1602 539.2473
   539.5541 539.7524 540.0469 540.1458 540.4132 540.7888 540.8366 541.0765
   541.3045 541.3528 541.3681 541.4149 541.4715 541.7636 542.0609 542.1237
   545.4403 545.5521 545.7778 546.0211 547.2623 547.5864 547.8932 548.0752
   548.1002 548.1423 548.2043 548.2075 548.5436 548.6793 548.7978 548.8579
   549.9636 550.0297 550.1320 550.1501 550.2091 550.2383 550.2444 550.8851
   551.4483 551.6065 551.7058 551.7596 553.0646 553.0754 554.8554 554.9004
   555.4220 555.8897 556.0388 556.2573 556.5040 556.5330 556.7049 556.7721
   556.7759 556.7816 556.8573 556.8844 557.6983 558.0901 558.6427 559.0586
   559.0874 559.2935 560.3051 562.8128 563.1760 563.5451 563.7485 564.0119
   564.1724 564.4048 564.7721 564.7937 564.8112 564.9001 565.1186 565.4205
   566.1073 566.1081 566.1560 566.1579 566.2876 566.5342 566.6235 566.7431
   566.7444 567.9683 567.9960 569.1876 569.4803 569.5255 569.5555 571.3143
   572.1076 572.1533 572.3904 573.3390 573.5135 573.5178 574.3836 574.4185
   575.4025 575.8695 575.9608 576.2783 576.3334 576.9097 577.9564 578.0544
   578.2759 578.3155 578.8298 579.0109 579.5294 579.5525 580.1272 580.2417

     the Fermi energy is     3.9914 ev
     (compare with:     7.3085 eV, computed in scf)

     Writing all to output data dir out/mp-463.save/
 
     init_run     :      0.02s CPU      0.03s WALL (       1 calls)
     electrons    :    385.87s CPU    409.68s WALL (       1 calls)

     Called by init_run:
     wfcinit      :      0.00s CPU      0.00s WALL (       1 calls)
     potinit      :      0.00s CPU      0.01s WALL (       1 calls)
     hinit0       :      0.01s CPU      0.01s WALL (       1 calls)

     Called by electrons:
     c_bands      :    385.86s CPU    409.65s WALL (       1 calls)
     v_of_rho     :      0.00s CPU      0.00s WALL (       1 calls)

     Called by c_bands:
     init_us_2    :      0.00s CPU      0.00s WALL (       8 calls)
     init_us_2:cp :      0.00s CPU      0.00s WALL (       8 calls)
     paro_k       :    373.77s CPU    396.67s WALL (       8 calls)

     Called by paro_*:
     h_psi        :      8.25s CPU      8.75s WALL (     804 calls)
     g_psi        :      0.17s CPU      0.19s WALL (   78352 calls)

     Called by h_psi:
     h_psi:calbec :      0.20s CPU      0.21s WALL (     804 calls)
     vloc_psi     :      7.87s CPU      8.35s WALL (     804 calls)
     add_vuspsi   :      0.11s CPU      0.11s WALL (     804 calls)

     General routines
     calbec       :      0.20s CPU      0.21s WALL (     804 calls)
     fft          :      0.00s CPU      0.00s WALL (      10 calls)
     fftw         :      7.04s CPU      7.47s WALL (  128530 calls)
 
     Parallel routines
 
     PWSCF        :   6m26.53s CPU   6m50.68s WALL

 
   This run was terminated on:   8:16: 4  17Nov2023            

=------------------------------------------------------------------------------=
   JOB DONE.
=------------------------------------------------------------------------------=
