
     Program PWSCF v.7.1 starts on 17Nov2023 at  8:23:33 

     This program is part of the open-source Quantum ESPRESSO suite
     for quantum simulation of materials; please cite
         "P. Giannozzi et al., J. Phys.:Condens. Matter 21 395502 (2009);
         "P. Giannozzi et al., J. Phys.:Condens. Matter 29 465901 (2017);
         "P. Giannozzi et al., J. Chem. Phys. 152 154105 (2020);
          URL http://www.quantum-espresso.org", 
     in publications or presentations arising from this work. More details at
     http://www.quantum-espresso.org/quote

     Parallel version (MPI), running on    24 processors

     MPI processes distributed on     1 nodes
     123206 MiB available memory on the printing compute node when the environment starts
 
     Reading input from pw_mp-463_scf_k3000_E69.in
Warning: card &CELL ignored
Warning: card / ignored

     Current dimensions of program PWSCF are:
     Max number of different atomic species (ntypx) = 10
     Max number of k-points (npk) =  40000
     Max angular momentum in pseudopotentials (lmaxx) =  4
 
     K-points division:     npool     =       2
     R & G space division:  proc/nbgrp/npool/nimage =      12
     Subspace diagonalization in iterative solution of the eigenvalue problem:
     a serial algorithm will be used

 
     Parallelization info
     --------------------
     sticks:   dense  smooth     PW     G-vecs:    dense   smooth      PW
     Min          79      79     24                 1629     1629     273
     Max          80      80     25                 1633     1633     275
     Sum         955     955    295                19579    19579    3287
 
     Using Slab Decomposition
 


     bravais-lattice index     =            2
     lattice parameter (alat)  =      10.0322  a.u.
     unit-cell volume          =     252.4249 (a.u.)^3
     number of atoms/cell      =            2
     number of atomic types    =            2
     number of electrons       =        16.00
     number of Kohn-Sham states=           16
     kinetic-energy cutoff     =      69.0000  Ry
     charge density cutoff     =     276.0000  Ry
     scf convergence threshold =      1.0E-10
     mixing beta               =       0.7000
     number of iterations used =            8  plain     mixing
     Exchange-correlation= PBE
                           (   1   4   3   4   0   0   0)

     celldm(1)=  10.032228  celldm(2)=   0.000000  celldm(3)=   0.000000
     celldm(4)=   0.000000  celldm(5)=   0.000000  celldm(6)=   0.000000

     crystal axes: (cart. coord. in units of alat)
               a(1) = (  -0.500000   0.000000   0.500000 )  
               a(2) = (   0.000000   0.500000   0.500000 )  
               a(3) = (  -0.500000   0.500000   0.000000 )  

     reciprocal axes: (cart. coord. in units 2 pi/alat)
               b(1) = ( -1.000000 -1.000000  1.000000 )  
               b(2) = (  1.000000  1.000000  1.000000 )  
               b(3) = ( -1.000000  1.000000 -1.000000 )  


     PseudoPot. # 1 for F  read from file:
     /usr/scratch4/magr4985/MG/HTDF/pseudo/SG15/F.upf
     MD5 check sum: 1d8275f47d602dd53cad6bcdc0eda7dc
     Pseudo is Norm-conserving, Zval =  7.0
     Generated using ONCVPSP code by D. R. Hamann
     Using radial grid of  602 points,  4 beta functions with: 
                l(1) =   0
                l(2) =   0
                l(3) =   1
                l(4) =   1

     PseudoPot. # 2 for K  read from file:
     /usr/scratch4/magr4985/MG/HTDF/pseudo/SG15/K.upf
     MD5 check sum: 254690d02b26e0029262a4c77e854448
     Pseudo is Norm-conserving, Zval =  9.0
     Generated using ONCVPSP code by D. R. Hamann
     Using radial grid of  602 points,  6 beta functions with: 
                l(1) =   0
                l(2) =   0
                l(3) =   1
                l(4) =   1
                l(5) =   2
                l(6) =   2

     atomic species   valence    mass     pseudopotential
        F              7.00    18.99840     F ( 1.00)
        K              9.00    39.09830     K ( 1.00)

     48 Sym. Ops., with inversion, found



   Cartesian axes

     site n.     atom                  positions (alat units)
         1           K   tau(   1) = (   0.0000000   0.0000000   0.0000000  )
         2           F   tau(   2) = (  -0.5000000   0.5000000   0.5000000  )

     number of k points=    72  Gaussian smearing, width (Ry)=  0.0005
                       cart. coord. in units 2pi/alat
        k(    1) = (   0.0000000   0.0000000   0.0000000), wk =   0.0011574
        k(    2) = (  -0.0833333   0.0833333  -0.0833333), wk =   0.0092593
        k(    3) = (  -0.1666667   0.1666667  -0.1666667), wk =   0.0092593
        k(    4) = (  -0.2500000   0.2500000  -0.2500000), wk =   0.0092593
        k(    5) = (  -0.3333333   0.3333333  -0.3333333), wk =   0.0092593
        k(    6) = (  -0.4166667   0.4166667  -0.4166667), wk =   0.0092593
        k(    7) = (   0.5000000  -0.5000000   0.5000000), wk =   0.0046296
        k(    8) = (   0.0000000   0.1666667   0.0000000), wk =   0.0069444
        k(    9) = (  -0.0833333   0.2500000  -0.0833333), wk =   0.0277778
        k(   10) = (  -0.1666667   0.3333333  -0.1666667), wk =   0.0277778
        k(   11) = (  -0.2500000   0.4166667  -0.2500000), wk =   0.0277778
        k(   12) = (  -0.3333333   0.5000000  -0.3333333), wk =   0.0277778
        k(   13) = (   0.5833333  -0.4166667   0.5833333), wk =   0.0277778
        k(   14) = (   0.5000000  -0.3333333   0.5000000), wk =   0.0277778
        k(   15) = (   0.4166667  -0.2500000   0.4166667), wk =   0.0277778
        k(   16) = (   0.3333333  -0.1666667   0.3333333), wk =   0.0277778
        k(   17) = (   0.2500000  -0.0833333   0.2500000), wk =   0.0277778
        k(   18) = (   0.1666667  -0.0000000   0.1666667), wk =   0.0138889
        k(   19) = (   0.0000000   0.3333333   0.0000000), wk =   0.0069444
        k(   20) = (  -0.0833333   0.4166667  -0.0833333), wk =   0.0277778
        k(   21) = (  -0.1666667   0.5000000  -0.1666667), wk =   0.0277778
        k(   22) = (  -0.2500000   0.5833333  -0.2500000), wk =   0.0277778
        k(   23) = (   0.6666667  -0.3333333   0.6666667), wk =   0.0277778
        k(   24) = (   0.5833333  -0.2500000   0.5833333), wk =   0.0277778
        k(   25) = (   0.5000000  -0.1666667   0.5000000), wk =   0.0277778
        k(   26) = (   0.4166667  -0.0833333   0.4166667), wk =   0.0277778
        k(   27) = (   0.3333333   0.0000000   0.3333333), wk =   0.0138889
        k(   28) = (   0.0000000   0.5000000   0.0000000), wk =   0.0069444
        k(   29) = (  -0.0833333   0.5833333  -0.0833333), wk =   0.0277778
        k(   30) = (  -0.1666667   0.6666667  -0.1666667), wk =   0.0277778
        k(   31) = (   0.7500000  -0.2500000   0.7500000), wk =   0.0277778
        k(   32) = (   0.6666667  -0.1666667   0.6666667), wk =   0.0277778
        k(   33) = (   0.5833333  -0.0833333   0.5833333), wk =   0.0277778
        k(   34) = (   0.5000000   0.0000000   0.5000000), wk =   0.0138889
        k(   35) = (   0.0000000   0.6666667   0.0000000), wk =   0.0069444
        k(   36) = (  -0.0833333   0.7500000  -0.0833333), wk =   0.0277778
        k(   37) = (   0.8333333  -0.1666667   0.8333333), wk =   0.0277778
        k(   38) = (   0.7500000  -0.0833333   0.7500000), wk =   0.0277778
        k(   39) = (   0.6666667  -0.0000000   0.6666667), wk =   0.0138889
        k(   40) = (   0.0000000   0.8333333   0.0000000), wk =   0.0069444
        k(   41) = (   0.9166667  -0.0833333   0.9166667), wk =   0.0277778
        k(   42) = (   0.8333333   0.0000000   0.8333333), wk =   0.0138889
        k(   43) = (   0.0000000  -1.0000000   0.0000000), wk =   0.0034722
        k(   44) = (  -0.1666667   0.3333333   0.0000000), wk =   0.0277778
        k(   45) = (  -0.2500000   0.4166667  -0.0833333), wk =   0.0555556
        k(   46) = (  -0.3333333   0.5000000  -0.1666667), wk =   0.0555556
        k(   47) = (   0.5833333  -0.4166667   0.7500000), wk =   0.0555556
        k(   48) = (   0.5000000  -0.3333333   0.6666667), wk =   0.0277778
        k(   49) = (  -0.1666667   0.5000000   0.0000000), wk =   0.0277778
        k(   50) = (  -0.2500000   0.5833333  -0.0833333), wk =   0.0555556
        k(   51) = (   0.6666667  -0.3333333   0.8333333), wk =   0.0555556
        k(   52) = (   0.5833333  -0.2500000   0.7500000), wk =   0.0555556
        k(   53) = (   0.5000000  -0.1666667   0.6666667), wk =   0.0555556
        k(   54) = (   0.4166667  -0.0833333   0.5833333), wk =   0.0555556
        k(   55) = (   0.3333333   0.0000000   0.5000000), wk =   0.0277778
        k(   56) = (  -0.1666667   0.6666667  -0.0000000), wk =   0.0277778
        k(   57) = (   0.7500000  -0.2500000   0.9166667), wk =   0.0555556
        k(   58) = (   0.6666667  -0.1666667   0.8333333), wk =   0.0555556
        k(   59) = (   0.5833333  -0.0833333   0.7500000), wk =   0.0555556
        k(   60) = (   0.5000000   0.0000000   0.6666667), wk =   0.0277778
        k(   61) = (   0.8333333  -0.1666667   1.0000000), wk =   0.0277778
        k(   62) = (   0.7500000  -0.0833333   0.9166667), wk =   0.0555556
        k(   63) = (   0.6666667   0.0000000   0.8333333), wk =   0.0277778
        k(   64) = (  -0.1666667  -1.0000000  -0.0000000), wk =   0.0138889
        k(   65) = (   0.6666667  -0.3333333   1.0000000), wk =   0.0277778
        k(   66) = (   0.5833333  -0.2500000   0.9166667), wk =   0.0555556
        k(   67) = (   0.5000000  -0.1666667   0.8333333), wk =   0.0277778
        k(   68) = (   0.6666667  -0.1666667   1.0000000), wk =   0.0277778
        k(   69) = (   0.5833333  -0.0833333   0.9166667), wk =   0.0555556
        k(   70) = (   0.5000000   0.0000000   0.8333333), wk =   0.0277778
        k(   71) = (  -0.3333333  -1.0000000   0.0000000), wk =   0.0138889
        k(   72) = (  -0.5000000  -1.0000000   0.0000000), wk =   0.0069444

     Dense  grid:    19579 G-vectors     FFT dimensions: (  40,  40,  40)

     Estimated max dynamical RAM per process >       4.22 MB

     Estimated total dynamical RAM >      96.44 MB

     Initial potential from superposition of free atoms

     starting charge      15.7348, renormalised to      16.0000
     Starting wfcs are random

     total cpu time spent up to now is        0.2 secs

     Self-consistent Calculation

     iteration #  1     ecut=    69.00 Ry     beta= 0.70
     Davidson diagonalization with overlap
     ethr =  1.00E-02,  avg # of iterations =  8.7

     Threshold (ethr) on eigenvalues was too large:
     Diagonalizing with lowered threshold

     Davidson diagonalization with overlap
     ethr =  8.91E-04,  avg # of iterations =  1.0

     total cpu time spent up to now is        1.4 secs

     total energy              =    -104.77067933 Ry
     estimated scf accuracy    <       0.14600091 Ry

     iteration #  2     ecut=    69.00 Ry     beta= 0.70
     Davidson diagonalization with overlap
     ethr =  9.13E-04,  avg # of iterations =  2.2

     total cpu time spent up to now is        1.8 secs

     total energy              =    -104.79948790 Ry
     estimated scf accuracy    <       0.14185490 Ry

     iteration #  3     ecut=    69.00 Ry     beta= 0.70
     Davidson diagonalization with overlap
     ethr =  8.87E-04,  avg # of iterations =  2.0

     total cpu time spent up to now is        2.1 secs

     total energy              =    -104.83113161 Ry
     estimated scf accuracy    <       0.00232422 Ry

     iteration #  4     ecut=    69.00 Ry     beta= 0.70
     Davidson diagonalization with overlap
     ethr =  1.45E-05,  avg # of iterations =  4.4

     total cpu time spent up to now is        2.5 secs

     total energy              =    -104.83149373 Ry
     estimated scf accuracy    <       0.00003280 Ry

     iteration #  5     ecut=    69.00 Ry     beta= 0.70
     Davidson diagonalization with overlap
     ethr =  2.05E-07,  avg # of iterations =  2.9

     total cpu time spent up to now is        2.8 secs

     total energy              =    -104.83150143 Ry
     estimated scf accuracy    <       0.00000202 Ry

     iteration #  6     ecut=    69.00 Ry     beta= 0.70
     Davidson diagonalization with overlap
     ethr =  1.26E-08,  avg # of iterations =  2.0

     total cpu time spent up to now is        3.2 secs

     total energy              =    -104.83150205 Ry
     estimated scf accuracy    <       0.00000027 Ry

     iteration #  7     ecut=    69.00 Ry     beta= 0.70
     Davidson diagonalization with overlap
     ethr =  1.67E-09,  avg # of iterations =  2.0

     total cpu time spent up to now is        3.5 secs

     total energy              =    -104.83150211 Ry
     estimated scf accuracy    <          4.1E-10 Ry

     iteration #  8     ecut=    69.00 Ry     beta= 0.70
     Davidson diagonalization with overlap
     ethr =  2.57E-12,  avg # of iterations =  2.4

     total cpu time spent up to now is        3.8 secs

     End of self-consistent calculation

          k = 0.0000 0.0000 0.0000 (  2421 PWs)   bands (ev):

   -24.4126 -16.9479  -7.6507  -7.6507  -7.6507   1.6473   1.6473   1.6473
     7.9544  12.3977  12.3977  12.3977  14.0519  14.0519  18.7156  26.3161

          k =-0.0833 0.0833-0.0833 (  2442 PWs)   bands (ev):

   -24.4057 -16.9543  -7.6701  -7.6533  -7.6533   1.5804   1.6219   1.6219
     8.1542  12.2761  12.4929  12.4929  14.1156  14.1156  19.0563  25.2337

          k =-0.1667 0.1667-0.1667 (  2457 PWs)   bands (ev):

   -24.3870 -16.9721  -7.7228  -7.6603  -7.6603   1.4108   1.5534   1.5534
     8.7056  12.0211  12.7581  12.7581  14.3074  14.3074  19.8476  23.7605

          k =-0.2500 0.2500-0.2500 (  2451 PWs)   bands (ev):

   -24.3613 -16.9965  -7.7942  -7.6697  -7.6697   1.2024   1.4619   1.4619
     9.4799  11.8223  13.1246  13.1246  14.6367  14.6367  20.2496  22.7542

          k =-0.3333 0.3333-0.3333 (  2442 PWs)   bands (ev):

   -24.3353 -17.0212  -7.8648  -7.6790  -7.6790   1.0140   1.3723   1.3723
    10.2541  11.8408  13.4759  13.4759  15.1152  15.1152  19.3932  21.8825

          k =-0.4167 0.4167-0.4167 (  2449 PWs)   bands (ev):

   -24.3161 -17.0394  -7.9161  -7.6858  -7.6858   0.8856   1.3077   1.3077
    10.7072  12.1749  13.7085  13.7085  15.6548  15.6548  18.3206  20.7552

          k = 0.5000-0.5000 0.5000 (  2452 PWs)   bands (ev):

   -24.3091 -17.0462  -7.9348  -7.6882  -7.6882   0.8404   1.2844   1.2844
    10.8177  12.4268  13.7869  13.7869  15.9280  15.9280  17.8498  20.2838

          k = 0.0000 0.1667 0.0000 (  2449 PWs)   bands (ev):

   -24.4035 -16.9560  -7.6657  -7.6657  -7.6562   1.5193   1.6383   1.6383
     8.2143  12.1296  12.5809  12.5809  14.1214  14.1422  19.1683  25.1725

          k =-0.0833 0.2500-0.0833 (  2458 PWs)   bands (ev):

   -24.3889 -16.9687  -7.7065  -7.6812  -7.6596   1.3821   1.5920   1.6061
     8.6335  11.8726  12.8006  12.8395  14.2589  14.2747  19.8190  23.9221

          k =-0.1667 0.3333-0.1667 (  2455 PWs)   bands (ev):

   -24.3657 -16.9891  -7.7750  -7.6956  -7.6691   1.2208   1.4953   1.5353
     9.3219  11.6655  13.1012  13.1984  14.5175  14.5532  20.4181  22.5797

          k =-0.2500 0.4167-0.2500 (  2453 PWs)   bands (ev):

   -24.3400 -17.0119  -7.8493  -7.7050  -7.6850   1.0684   1.3923   1.4459
    10.1067  11.6249  13.4147  13.5413  14.9074  15.0243  19.7289  21.8320

          k =-0.3333 0.5000-0.3333 (  2447 PWs)   bands (ev):

   -24.3187 -17.0310  -7.9096  -7.7070  -7.7031   0.9513   1.3199   1.3622
    10.6743  11.8889  13.6395  13.7766  15.4508  15.5796  18.5112  20.7704

          k = 0.5833-0.4167 0.5833 (  2447 PWs)   bands (ev):

   -24.3076 -17.0410  -7.9401  -7.7186  -7.7011   0.8897   1.2982   1.3057
    10.8648  12.2631  13.7438  13.8759  15.8952  15.9521  17.7438  20.3031

          k = 0.5000-0.3333 0.5000 (  2439 PWs)   bands (ev):

   -24.3099 -17.0393  -7.9330  -7.7274  -7.6888   0.8968   1.2904   1.3300
    10.8341  12.1933  13.7273  13.8252  15.6817  15.9906  17.9029  20.2175

          k = 0.4167-0.2500 0.4167 (  2444 PWs)   bands (ev):

   -24.3249 -17.0262  -7.8902  -7.7271  -7.6735   0.9749   1.3197   1.4041
    10.5311  11.8228  13.6079  13.6113  15.1917  15.5064  18.8734  20.8384

          k = 0.3333-0.1667 0.3333 (  2455 PWs)   bands (ev):

   -24.3484 -17.0054  -7.8225  -7.7180  -7.6591   1.1138   1.3869   1.4981
     9.8538  11.6906  13.2517  13.3975  14.7513  14.9076  20.0875  21.5941

          k = 0.2500-0.0833 0.2500 (  2456 PWs)   bands (ev):

   -24.3741 -16.9827  -7.7479  -7.7022  -7.6495   1.2901   1.4754   1.5828
     9.0782  11.8173  12.8727  13.0844  14.4355  14.4603  20.2785  22.6215

          k = 0.1667-0.0000 0.1667 (  2459 PWs)   bands (ev):

   -24.3950 -16.9641  -7.6892  -7.6813  -7.6474   1.4645   1.5616   1.6285
     8.4648  12.0659  12.5967  12.7441  14.2107  14.2247  19.5501  24.1828

          k = 0.0000 0.3333 0.0000 (  2453 PWs)   bands (ev):

   -24.3793 -16.9735  -7.7065  -7.7065  -7.6974   1.2773   1.6183   1.6183
     8.8829  11.5253  13.0978  13.0978  14.3100  14.3183  20.2757  23.6167

          k =-0.0833 0.4167-0.0833 (  2457 PWs)   bands (ev):

   -24.3605 -16.9852  -7.7720  -7.7295  -7.7138   1.1791   1.5713   1.5865
     9.4182  11.2537  13.4187  13.4613  14.4278  14.5288  20.8694  22.3249

          k =-0.1667 0.5000-0.1667 (  2451 PWs)   bands (ev):

   -24.3377 -17.0009  -7.8531  -7.7441  -7.7367   1.1094   1.4734   1.5203
    10.1309  11.1572  13.6194  13.7980  14.7578  14.9425  20.0569  21.6747

          k =-0.2500 0.5833-0.2500 (  2443 PWs)   bands (ev):

   -24.3168 -17.0162  -7.9231  -7.7648  -7.7464   1.0646   1.3755   1.4387
    10.7360  11.3771  13.6422  14.0224  15.3623  15.4766  18.6118  20.7468

          k = 0.6667-0.3333 0.6667 (  2450 PWs)   bands (ev):

   -24.3035 -17.0270  -7.9636  -7.7904  -7.7359   1.0224   1.3363   1.3636
    10.9617  11.8818  13.6104  14.1335  15.8078  16.0581  17.5541  20.3184

          k = 0.5833-0.2500 0.5833 (  2435 PWs)   bands (ev):

   -24.3016 -17.0304  -7.9644  -7.8065  -7.7153   0.9857   1.3140   1.3719
    11.0161  12.0490  13.5825  14.1166  15.6535  16.4009  17.3858  19.8004

          k = 0.5000-0.1667 0.5000 (  2445 PWs)   bands (ev):

   -24.3115 -17.0254  -7.9251  -7.8089  -7.6900   0.9859   1.3019   1.4481
    10.8750  11.7798  13.5392  13.9264  15.2351  16.1268  18.0793  19.9770

          k = 0.4167-0.0833 0.4167 (  2449 PWs)   bands (ev):

   -24.3305 -17.0135  -7.8556  -7.7973  -7.6668   1.0411   1.3309   1.5276
    10.3760  11.5656  13.5024  13.5636  14.8756  15.4688  19.3432  20.5143

          k = 0.3333 0.0000 0.3333 (  2445 PWs)   bands (ev):

   -24.3535 -16.9978  -7.7768  -7.7721  -7.6519   1.1491   1.3941   1.5793
     9.6813  11.6128  13.1644  13.3792  14.6234  14.8405  20.6640  20.9478

          k = 0.0000 0.5000 0.0000 (  2429 PWs)   bands (ev):

   -24.3471 -16.9859  -7.8150  -7.7624  -7.7624   1.1495   1.6010   1.6010
     9.7756  10.8785  13.8574  13.8574  14.3311  14.6066  21.5722  22.0810

          k =-0.0833 0.5833-0.0833 (  2448 PWs)   bands (ev):

   -24.3290 -16.9910  -7.9043  -7.7894  -7.7855   1.1531   1.5590   1.5745
    10.3500  10.6780  13.9582  14.2201  14.6177  14.8935  20.2995  21.3263

          k =-0.1667 0.6667-0.1667 (  2440 PWs)   bands (ev):

   -24.3110 -16.9991  -7.9845  -7.8196  -7.7929   1.1837   1.4676   1.5159
    10.6534  11.0781  13.6912  14.4184  15.3467  15.3765  18.7092  20.5813

          k = 0.7500-0.2500 0.7500 (  2437 PWs)   bands (ev):

   -24.2980 -17.0080  -8.0311  -7.8486  -7.7828   1.1963   1.3934   1.4418
    10.8196  11.7228  13.4205  14.5269  15.6970  16.2107  17.4569  20.2204

          k = 0.6667-0.1667 0.6667 (  2432 PWs)   bands (ev):

   -24.2935 -17.0153  -8.0320  -7.8685  -7.7576   1.1298   1.3715   1.4167
    11.0411  11.9889  13.3296  14.5497  15.5800  16.6062  17.2234  19.3849

          k = 0.5833-0.0833 0.5833 (  2444 PWs)   bands (ev):

   -24.2988 -17.0191  -7.9874  -7.8733  -7.7238   1.0536   1.3227   1.4763
    11.1406  11.8111  13.3574  14.3947  15.2380  16.5610  17.6433  19.1759

          k = 0.5000 0.0000 0.5000 (  2437 PWs)   bands (ev):

   -24.3123 -17.0185  -7.9124  -7.8578  -7.6905   1.0196   1.3078   1.5201
    10.9031  11.5842  13.4287  14.0001  15.0128  16.1916  18.2206  19.7954

          k = 0.0000 0.6667 0.0000 (  2453 PWs)   bands (ev):

   -24.3163 -16.9850  -7.9990  -7.8183  -7.8183   1.2138   1.5932   1.5932
    10.3515  10.7596  14.1009  14.7234  14.7234  14.9215  19.9383  20.7893

          k =-0.0833 0.7500-0.0833 (  2436 PWs)   bands (ev):

   -24.3029 -16.9842  -8.0849  -7.8439  -7.8340   1.2865   1.5567   1.5726
    10.2507  11.3148  13.7802  14.8917  15.3259  15.3492  18.7074  20.2242

          k = 0.8333-0.1667 0.8333 (  2436 PWs)   bands (ev):

   -24.2924 -16.9889  -8.1312  -7.8689  -7.8288   1.3491   1.4686   1.5190
    10.3824  11.9242  13.3244  14.9689  15.6233  16.2130  17.5230  19.9314

          k = 0.7500-0.0833 0.7500 (  2431 PWs)   bands (ev):

   -24.2877 -16.9980  -8.1251  -7.8877  -7.8039   1.2961   1.4472   1.4481
    10.6905  12.3278  12.9886  15.0408  15.4960  16.6901  17.2214  19.0843

          k = 0.6667-0.0000 0.6667 (  2440 PWs)   bands (ev):

   -24.2900 -17.0090  -8.0696  -7.8928  -7.7656   1.1658   1.3757   1.4753
    11.0352  12.0816  13.1600  14.9040  15.2354  16.4178  18.2453  18.2593

          k = 0.0000 0.8333 0.0000 (  2446 PWs)   bands (ev):

   -24.2945 -16.9754  -8.1714  -7.8592  -7.8592   1.3693   1.5938   1.5938
    10.0158  11.6643  13.7782  15.1728  15.4993  15.4993  18.3148  19.7938

          k = 0.9167-0.0833 0.9167 (  2446 PWs)   bands (ev):

   -24.2883 -16.9750  -8.2117  -7.8736  -7.8621   1.4269   1.5563   1.5749
    10.0297  12.0643  13.4728  15.2339  15.7199  16.0052  17.6247  19.4816

          k = 0.8333 0.0000 0.8333 (  2434 PWs)   bands (ev):

   -24.2858 -16.9832  -8.1942  -7.8852  -7.8420   1.4489   1.4538   1.5213
    10.2818  12.4730  12.9677  15.2826  15.5953  16.7187  17.0316  19.1934

          k = 0.0000-1.0000 0.0000 (  2450 PWs)   bands (ev):

   -24.2868 -16.9699  -8.2417  -7.8742  -7.8742   1.4482   1.5952   1.5952
     9.9011  12.0869  13.6266  15.2700  15.8487  15.8487  17.6517  19.3811

          k =-0.1667 0.3333 0.0000 (  2450 PWs)   bands (ev):

   -24.3722 -16.9813  -7.7377  -7.7241  -7.6657   1.2515   1.5232   1.6065
     9.1087  11.6005  13.0454  13.1831  14.4095  14.4470  20.4387  22.5290

          k =-0.2500 0.4167-0.0833 (  2452 PWs)   bands (ev):

   -24.3492 -16.9987  -7.8080  -7.7531  -7.6756   1.1302   1.4288   1.5586
     9.7979  11.4402  13.3725  13.4761  14.6401  14.8545  20.4610  21.2550

          k =-0.3333 0.5000-0.1667 (  2449 PWs)   bands (ev):

   -24.3261 -17.0162  -7.8828  -7.7717  -7.6908   1.0376   1.3484   1.4768
    10.5047  11.4964  13.5644  13.7637  15.0105  15.4643  19.0870  20.7275

          k = 0.5833-0.4167 0.7500 (  2440 PWs)   bands (ev):

   -24.3090 -17.0291  -7.9374  -7.7821  -7.7049   0.9803   1.3102   1.3907
    10.8938  11.8601  13.6186  13.9900  15.5029  16.0412  17.9075  20.1420

          k = 0.5000-0.3333 0.6667 (  2438 PWs)   bands (ev):

   -24.3027 -17.0339  -7.9574  -7.7853  -7.7107   0.9607   1.3184   1.3365
    10.9819  12.1074  13.6434  14.0642  15.7888  16.2673  17.4155  20.0314

          k =-0.1667 0.5000 0.0000 (  2451 PWs)   bands (ev):

   -24.3421 -16.9934  -7.8295  -7.7826  -7.7273   1.1314   1.5079   1.5864
     9.9652  11.0178  13.6973  13.8061  14.5449  14.8316  20.8141  21.0668

          k =-0.2500 0.5833-0.0833 (  2440 PWs)   bands (ev):

   -24.3219 -17.0037  -7.9060  -7.8240  -7.7360   1.1168   1.4200   1.5424
    10.6245  10.9945  13.6553  14.1558  14.8709  15.4200  19.2335  20.5995

          k = 0.6667-0.3333 0.8333 (  2439 PWs)   bands (ev):

   -24.3052 -17.0133  -7.9682  -7.8536  -7.7401   1.1140   1.3578   1.4680
    10.9473  11.4490  13.5014  14.3555  15.3848  16.0726  17.9097  20.0171

          k = 0.5833-0.2500 0.7500 (  2437 PWs)   bands (ev):

   -24.2966 -17.0197  -7.9948  -7.8718  -7.7351   1.0890   1.3629   1.3944
    11.0944  11.8506  13.4248  14.4297  15.6571  16.6139  17.1151  19.7073

          k = 0.5000-0.1667 0.6667 (  2437 PWs)   bands (ev):

   -24.2985 -17.0211  -7.9779  -7.8757  -7.7212   1.0564   1.3323   1.4339
    11.1375  11.7982  13.4190  14.3821  15.4551  16.5661  17.3811  19.4724

          k = 0.4167-0.0833 0.5833 (  2444 PWs)   bands (ev):

   -24.3104 -17.0171  -7.9211  -7.8643  -7.7025   1.0456   1.3216   1.5049
    10.9581  11.4684  13.4588  14.1544  15.0748  16.1574  18.1577  19.8532

          k = 0.3333 0.0000 0.5000 (  2446 PWs)   bands (ev):

   -24.3290 -17.0089  -7.8412  -7.8376  -7.6854   1.0687   1.3582   1.5530
    10.4169  11.3407  13.5310  13.7619  14.8081  15.4558  19.4225  20.4581

          k =-0.1667 0.6667-0.0000 (  2437 PWs)   bands (ev):

   -24.3134 -16.9921  -7.9896  -7.8410  -7.7881   1.2011   1.5049   1.5768
    10.5272  10.9092  13.7906  14.6883  14.8075  15.3676  19.1939  20.4390

          k = 0.7500-0.2500 0.9167 (  2438 PWs)   bands (ev):

   -24.2994 -16.9962  -8.0542  -7.8845  -7.7833   1.2549   1.4279   1.5373
    10.5977  11.5270  13.4332  14.8296  15.3244  16.0434  17.9565  19.7878

          k = 0.6667-0.1667 0.8333 (  2438 PWs)   bands (ev):

   -24.2908 -17.0024  -8.0775  -7.9148  -7.7698   1.2419   1.4120   1.4683
    10.8413  11.9659  13.1555  14.8909  15.5778  16.8160  17.0111  19.3280

          k = 0.5833-0.0833 0.7500 (  2435 PWs)   bands (ev):

   -24.2900 -17.0090  -8.0523  -7.9273  -7.7485   1.1631   1.3909   1.4629
    11.1353  11.8977  13.1828  14.8949  15.3694  16.5349  17.6535  18.7587

          k = 0.5000 0.0000 0.6667 (  2442 PWs)   bands (ev):

   -24.2972 -17.0145  -7.9867  -7.9175  -7.7239   1.0907   1.3371   1.4998
    11.2543  11.5944  13.2922  14.6392  15.1439  16.5666  17.7171  19.0299

          k = 0.8333-0.1667 1.0000 (  2445 PWs)   bands (ev):

   -24.2932 -16.9822  -8.1507  -7.8838  -7.8274   1.3629   1.5069   1.5759
    10.2106  11.8058  13.4662  15.1453  15.4865  15.9408  17.8946  19.5638

          k = 0.7500-0.0833 0.9167 (  2435 PWs)   bands (ev):

   -24.2869 -16.9866  -8.1671  -7.9170  -7.8074   1.3861   1.4477   1.5377
    10.4062  12.3055  12.9776  15.2163  15.6765  16.6264  17.1409  19.0969

          k = 0.6667 0.0000 0.8333 (  2448 PWs)   bands (ev):

   -24.2858 -16.9964  -8.1298  -7.9340  -7.7795   1.2822   1.4653   1.4678
    10.7718  12.3221  12.8729  15.2440  15.4431  16.6315  17.4693  18.6593

          k =-0.1667-1.0000-0.0000 (  2436 PWs)   bands (ev):

   -24.2860 -16.9766  -8.2177  -7.8994  -7.8412   1.4511   1.5025   1.5768
    10.1019  12.2838  13.2188  15.2738  15.8507  16.2313  17.3414  19.1679

          k = 0.6667-0.3333 1.0000 (  2433 PWs)   bands (ev):

   -24.3060 -17.0065  -7.9597  -7.9029  -7.7348   1.1444   1.3677   1.5384
    10.9970  11.1889  13.4352  14.6215  14.9900  16.1207  18.1645  19.7720

          k = 0.5833-0.2500 0.9167 (  2436 PWs)   bands (ev):

   -24.2943 -17.0084  -8.0038  -7.9542  -7.7351   1.1606   1.3704   1.4952
    11.1712  11.5724  13.2363  14.8539  15.3226  16.6125  17.4551  19.1486

          k = 0.5000-0.1667 0.8333 (  2442 PWs)   bands (ev):

   -24.2900 -17.0091  -8.0215  -7.9712  -7.7354   1.1605   1.4167   1.4396
    11.3083  11.6501  13.1998  14.8895  15.4902  16.8064  17.1917  18.9976

          k = 0.6667-0.1667 1.0000 (  2436 PWs)   bands (ev):

   -24.2900 -16.9958  -8.0935  -7.9505  -7.7647   1.2784   1.4141   1.5341
    10.7495  11.9083  13.0736  15.1781  15.4541  16.5896  17.3865  18.9923

          k = 0.5833-0.0833 0.9167 (  2444 PWs)   bands (ev):

   -24.2856 -16.9981  -8.0893  -7.9968  -7.7485   1.2374   1.4576   1.4931
    11.0721  11.8757  12.9766  15.1670  15.6386  16.7379  17.4363  18.4634

          k = 0.5000 0.0000 0.8333 (  2442 PWs)   bands (ev):

   -24.2871 -17.0027  -8.0407  -8.0139  -7.7380   1.1958   1.4278   1.4922
    11.4258  11.5110  13.0801  15.1772  15.4237  16.5805  17.8799  18.2567

          k =-0.3333-1.0000 0.0000 (  2436 PWs)   bands (ev):

   -24.2844 -16.9899  -8.1517  -7.9679  -7.7742   1.3202   1.4631   1.5339
    10.6616  12.3822  12.7167  15.2197  15.8548  16.9045  17.0025  18.6054

          k =-0.5000-1.0000 0.0000 (  2468 PWs)   bands (ev):

   -24.2836 -16.9965  -8.0604  -8.0604  -7.7403   1.2303   1.4907   1.4907
    11.4700  11.4700  12.9662  15.1370  15.8569  16.7498  17.8402  17.8402

     the Fermi energy is     7.3085 ev

!    total energy              =    -104.83150211 Ry
     estimated scf accuracy    <          9.7E-11 Ry
     smearing contrib. (-TS)   =      -0.00000000 Ry
     internal energy E=F+TS    =    -104.83150211 Ry

     The total energy is F=E-TS. E is the sum of the following terms:
     one-electron contribution =     -41.84410254 Ry
     hartree contribution      =      28.17239453 Ry
     xc contribution           =     -18.06153380 Ry
     ewald contribution        =     -73.09826030 Ry

     convergence has been achieved in   8 iterations

     Writing all to output data dir out/mp-463.save/
 
     init_run     :      0.12s CPU      0.17s WALL (       1 calls)
     electrons    :      3.23s CPU      3.63s WALL (       1 calls)

     Called by init_run:
     wfcinit      :      0.10s CPU      0.12s WALL (       1 calls)
     potinit      :      0.00s CPU      0.01s WALL (       1 calls)
     hinit0       :      0.00s CPU      0.04s WALL (       1 calls)

     Called by electrons:
     c_bands      :      2.79s CPU      3.09s WALL (       9 calls)
     sum_band     :      0.40s CPU      0.48s WALL (       9 calls)
     v_of_rho     :      0.03s CPU      0.03s WALL (       9 calls)
     mix_rho      :      0.00s CPU      0.01s WALL (       9 calls)

     Called by c_bands:
     init_us_2    :      0.04s CPU      0.05s WALL (     684 calls)
     init_us_2:cp :      0.04s CPU      0.04s WALL (     684 calls)
     cegterg      :      2.49s CPU      2.64s WALL (     324 calls)

     Called by *egterg:
     cdiaghg      :      0.37s CPU      0.39s WALL (    1307 calls)
     h_psi        :      2.00s CPU      2.13s WALL (    1379 calls)
     g_psi        :      0.01s CPU      0.01s WALL (    1019 calls)

     Called by h_psi:
     h_psi:calbec :      0.06s CPU      0.06s WALL (    1379 calls)
     vloc_psi     :      1.89s CPU      2.01s WALL (    1379 calls)
     add_vuspsi   :      0.03s CPU      0.04s WALL (    1379 calls)

     General routines
     calbec       :      0.05s CPU      0.06s WALL (    1379 calls)
     fft          :      0.01s CPU      0.04s WALL (      90 calls)
     ffts         :      0.00s CPU      0.00s WALL (       9 calls)
     fftw         :      2.01s CPU      2.13s WALL (   35894 calls)
     davcio       :      0.04s CPU      0.19s WALL (    1112 calls)
 
     Parallel routines
 
     PWSCF        :      3.42s CPU      4.05s WALL

 
   This run was terminated on:   8:23:37  17Nov2023            

=------------------------------------------------------------------------------=
   JOB DONE.
=------------------------------------------------------------------------------=
