
     Program PWSCF v.7.1 starts on 17Nov2023 at  7:48:53 

     This program is part of the open-source Quantum ESPRESSO suite
     for quantum simulation of materials; please cite
         "P. Giannozzi et al., J. Phys.:Condens. Matter 21 395502 (2009);
         "P. Giannozzi et al., J. Phys.:Condens. Matter 29 465901 (2017);
         "P. Giannozzi et al., J. Chem. Phys. 152 154105 (2020);
          URL http://www.quantum-espresso.org", 
     in publications or presentations arising from this work. More details at
     http://www.quantum-espresso.org/quote

     Parallel version (MPI), running on     8 processors

     MPI processes distributed on     1 nodes
     123470 MiB available memory on the printing compute node when the environment starts
 
     Reading input from pw_mp-463_nscf_k10_E69.in
Warning: card &IONS ignored
Warning: card / ignored
Warning: card &CELL ignored
Warning: card / ignored

     Current dimensions of program PWSCF are:
     Max number of different atomic species (ntypx) = 10
     Max number of k-points (npk) =  40000
     Max angular momentum in pseudopotentials (lmaxx) =  4

     Atomic positions and unit cell read from directory:
     out/mp-463.save/
     Atomic positions from file used, from input discarded
 
 
     R & G space division:  proc/nbgrp/npool/nimage =       8
     Subspace diagonalization in iterative solution of the eigenvalue problem:
     one sub-group per band group will be used
     scalapack distributed-memory algorithm (size of sub-group:  2*  2 procs)

 
     Parallelization info
     --------------------
     sticks:   dense  smooth     PW     G-vecs:    dense   smooth      PW
     Min         119     119     35                 2446     2446     383
     Max         120     120     36                 2450     2450     384
     Sum         955     955    283                19579    19579    3071
 
     Using Slab Decomposition
 


     bravais-lattice index     =            2
     lattice parameter (alat)  =      10.0322  a.u.
     unit-cell volume          =     252.4249 (a.u.)^3
     number of atoms/cell      =            2
     number of atomic types    =            2
     number of electrons       =        16.00
     number of Kohn-Sham states=         1200
     kinetic-energy cutoff     =      69.0000  Ry
     charge density cutoff     =     276.0000  Ry
     Exchange-correlation= PBE
                           (   1   4   3   4   0   0   0)

     celldm(1)=  10.032228  celldm(2)=   0.000000  celldm(3)=   0.000000
     celldm(4)=   0.000000  celldm(5)=   0.000000  celldm(6)=   0.000000

     crystal axes: (cart. coord. in units of alat)
               a(1) = (  -0.500000   0.000000   0.500000 )  
               a(2) = (   0.000000   0.500000   0.500000 )  
               a(3) = (  -0.500000   0.500000   0.000000 )  

     reciprocal axes: (cart. coord. in units 2 pi/alat)
               b(1) = ( -1.000000 -1.000000  1.000000 )  
               b(2) = (  1.000000  1.000000  1.000000 )  
               b(3) = ( -1.000000  1.000000 -1.000000 )  


     PseudoPot. # 1 for F  read from file:
     /usr/scratch4/magr4985/MG/HTDF/pseudo/SG15/F.upf
     MD5 check sum: 1d8275f47d602dd53cad6bcdc0eda7dc
     Pseudo is Norm-conserving, Zval =  7.0
     Generated using ONCVPSP code by D. R. Hamann
     Using radial grid of  602 points,  4 beta functions with: 
                l(1) =   0
                l(2) =   0
                l(3) =   1
                l(4) =   1

     PseudoPot. # 2 for K  read from file:
     /usr/scratch4/magr4985/MG/HTDF/pseudo/SG15/K.upf
     MD5 check sum: 254690d02b26e0029262a4c77e854448
     Pseudo is Norm-conserving, Zval =  9.0
     Generated using ONCVPSP code by D. R. Hamann
     Using radial grid of  602 points,  6 beta functions with: 
                l(1) =   0
                l(2) =   0
                l(3) =   1
                l(4) =   1
                l(5) =   2
                l(6) =   2

     atomic species   valence    mass     pseudopotential
        F              7.00    18.99840     F ( 1.00)
        K              9.00    39.09830     K ( 1.00)

     48 Sym. Ops., with inversion, found



   Cartesian axes

     site n.     atom                  positions (alat units)
         1           K   tau(   1) = (   0.0000000   0.0000000   0.0000000  )
         2           F   tau(   2) = (  -0.5000000   0.5000000   0.5000000  )

     number of k points=     3  Gaussian smearing, width (Ry)=  0.0005
                       cart. coord. in units 2pi/alat
        k(    1) = (   0.0000000   0.0000000   0.0000000), wk =   0.2500000
        k(    2) = (   0.5000000  -0.5000000   0.5000000), wk =   1.0000000
        k(    3) = (   0.0000000  -1.0000000   0.0000000), wk =   0.7500000

     Dense  grid:    19579 G-vectors     FFT dimensions: (  40,  40,  40)

     Estimated max dynamical RAM per process >      70.21 MB

     Estimated total dynamical RAM >     561.69 MB

     The potential is recalculated from file :
     out/mp-463.save/charge-density

     Starting wfcs are random

     Band Structure Calculation
     ParO style diagonalization

     ethr =  5.00E-06,  avg # of iterations =  6.0

     total cpu time spent up to now is      230.2 secs

     End of band structure calculation

          k = 0.0000 0.0000 0.0000 (  2421 PWs)   bands (ev):

   -24.4126 -16.9480  -7.6507  -7.6507  -7.6507   1.6472   1.6472   1.6472
     7.9544  12.3977  12.3977  12.3977  14.0519  14.0519  18.7156  26.2004
    26.2004  26.2004  26.3202  26.3202  26.3202  28.8196  28.8196  28.8196
    30.6499  30.6499  34.9444  40.6436  40.6436  40.6436  42.3620  43.8604
    43.8604  46.2014  46.2014  46.2014  54.5784  54.5784  54.5784  55.0725
    55.0725  55.0725  55.6936  56.5727  56.5727  56.5727  57.7567  57.7567
    57.7567  58.6278  58.6278  58.6278  60.9236  60.9236  60.9236  60.9577
    60.9577  62.1311  62.1537  64.2869  64.2869  69.1684  69.1684  69.1684
    71.9310  71.9310  71.9310  80.0100  80.6159  80.6159  80.6159  86.2208
    86.2208  89.7254  89.7254  89.7254  92.6924  92.6924  92.6924  94.8889
    96.3919  96.3919  96.3919  96.8869  97.8799  97.8799  99.5523  99.5523
    99.5523 100.7024 100.7024 100.7024 101.8048 101.8048 101.8048 101.9616
   101.9616 101.9616 102.1535 102.1535 102.4570 102.4570 102.4570 103.1532
   103.4340 103.4340 103.4340 105.1539 105.1539 106.0508 106.0508 106.0508
   106.7633 111.2850 111.2850 113.0849 113.0849 113.0849 114.6151 114.6151
   114.6151 119.7007 121.4801 121.4801 121.4801 124.6098 125.1928 125.1928
   125.1928 125.4795 125.4795 125.6911 125.6911 125.6911 125.7504 125.7504
   125.7504 125.7956 125.7956 125.7956 126.1813 126.1813 130.0536 130.0536
   130.0536 135.9681 136.6244 136.6244 136.6244 139.5297 140.6408 140.6408
   140.6408 140.9873 140.9873 140.9873 141.6664 141.6664 141.6664 141.7508
   141.7508 141.7508 141.8242 145.6677 145.6724 145.6724 145.6724 145.6877
   145.6877 148.1799 148.1799 148.1799 149.4950 149.4950 152.9728 152.9728
   152.9728 163.6081 163.6081 163.6081 163.7714 163.7714 163.7714 168.5002
   168.5002 168.6118 168.6118 168.6118 168.9003 175.4346 175.4346 175.9344
   175.9344 175.9344 178.1187 178.1187 178.1187 178.1855 178.1855 178.1855
   179.3159 179.3159 179.3159 180.1978 180.1978 180.1978 180.5556 180.9300
   180.9300 181.8719 181.8719 181.8719 182.2011 182.6432 183.5165 183.5165
   183.5165 183.9869 183.9869 184.0202 184.0202 184.0202 184.9053 185.1068
   185.1068 185.1068 185.2570 185.2570 185.2570 185.5175 186.7491 186.7491
   186.7491 187.0955 187.0955 187.2034 187.2034 187.2034 187.8858 187.8858
   187.8858 188.3413 189.8727 189.8727 189.8727 189.9697 189.9697 190.0091
   190.0091 190.0091 190.5495 190.5495 190.5495 190.7274 190.7274 190.7739
   190.7739 190.7739 191.4826 199.6642 199.6642 201.2822 201.2822 201.2822
   203.0411 203.0411 203.0411 207.1687 207.1687 207.1687 207.5644 207.5644
   207.5644 207.7458 207.7458 207.7458 209.9018 212.0722 212.0722 212.1665
   212.1665 212.1665 212.1713 212.1713 212.1713 212.2968 215.5509 215.5509
   215.5509 220.2281 220.2281 220.4103 224.6481 225.8786 225.8786 225.8786
   225.9300 225.9300 225.9300 226.2868 226.2868 226.2868 226.3003 226.3003
   226.3965 226.3965 226.3965 227.1528 227.1528 227.1528 227.9270 227.9270
   227.9270 229.8481 229.8481 230.2118 231.2873 231.2873 231.2873 231.3323
   231.3323 231.3323 231.3600 231.3600 231.3600 231.4365 231.4365 231.5635
   231.5635 231.5635 233.7756 238.0340 238.0340 241.6179 241.6179 241.6179
   243.0003 243.0003 243.0003 250.8365 251.1847 251.1847 251.1847 252.6498
   252.6498 252.6498 252.7181 258.7183 259.0513 259.0513 259.9124 259.9124
   259.9124 260.6894 260.6894 260.6894 262.8028 262.8028 262.8028 264.2553
   266.4349 266.4349 266.4349 267.3041 267.3041 267.9095 267.9095 267.9095
   268.4653 268.4653 268.4653 268.5128 268.5128 268.5128 268.7653 268.7653
   268.7653 269.8021 269.8021 269.8021 270.6519 270.6519 270.6519 270.7211
   271.0399 271.0399 271.0399 271.1746 271.1746 271.1756 271.1756 271.1756
   272.8836 272.8836 273.5657 273.5890 273.5890 273.5890 273.6378 273.6378
   273.6378 273.6481 273.6481 273.7621 273.7621 273.7621 273.9665 273.9665
   273.9665 274.1143 274.6634 284.0330 284.0330 284.0330 286.1821 286.1821
   286.1821 288.3396 288.3396 289.4032 292.3326 292.3326 292.3326 292.3814
   292.3814 292.3814 292.5148 292.5148 292.6853 292.6853 292.6853 292.9588
   292.9588 292.9588 293.4323 294.1862 294.1862 294.1862 296.1575 296.1575
   296.2488 296.2488 296.2942 296.2942 296.2942 296.4196 296.4196 296.4196
   296.4832 296.4832 296.4832 296.5397 296.5397 296.5397 296.7444 296.7444
   296.7444 297.6421 297.7635 297.7635 297.7635 297.8863 297.8863 297.8863
   297.9595 297.9595 298.0078 303.9998 303.9998 303.9998 304.4666 304.7902
   304.7902 304.7902 305.6444 305.6444 305.6444 307.0858 307.0858 307.0858
   307.3427 307.7867 307.7867 307.7867 308.1366 308.1366 308.4353 308.4353
   308.4353 308.7485 309.2064 311.8330 311.8330 312.0222 312.0222 312.0222
   312.3220 312.3220 312.3220 312.4426 312.4426 312.4426 312.5176 312.5176
   312.5825 312.5825 312.5825 312.9822 313.3055 313.3055 313.3055 313.4172
   313.4172 314.6309 314.6309 314.6309 314.6487 314.6487 314.6487 314.8034
   314.8034 314.8034 314.8231 314.8231 314.8231 315.8491 315.8491 315.8848
   315.8848 315.8848 315.9115 322.7774 322.7774 325.5224 325.5224 325.5224
   333.6500 342.7177 342.7177 342.7177 343.3897 343.3897 343.3897 347.6322
   347.6322 350.3165 350.3165 350.3165 351.9016 351.9016 351.9016 352.0509
   352.0509 352.3098 352.3996 352.5309 352.5309 352.5309 352.5700 352.5700
   352.5700 352.6984 352.6984 352.6984 352.8344 352.8344 352.8344 352.8756
   352.8756 352.9374 353.9247 353.9247 353.9247 354.9285 356.2945 356.2945
   356.2945 356.5015 356.5015 356.5015 356.5628 356.5628 356.5628 356.8537
   356.8537 356.8537 358.5981 360.3894 360.3894 360.3894 360.4117 360.4117
   360.4156 360.4156 360.4555 360.4555 360.4555 360.4567 360.4567 360.4567
   360.5428 360.5428 360.5428 361.3966 361.3966 361.4801 361.4801 361.4801
   361.5536 371.3549 371.3549 371.3549 372.9933 372.9933 372.9933 373.5249
   373.5249 376.3010 376.3010 376.3010 376.5630 376.5630 376.5630 376.9467
   379.7874 379.7874 379.9079 379.9326 379.9326 379.9326 380.0722 380.0722
   380.1004 380.1004 380.1004 380.1978 380.1978 380.1978 380.2234 380.2234
   380.2234 380.2871 380.2871 380.2871 381.5562 382.1079 382.1079 382.1079
   383.3135 383.3135 383.3135 384.8499 384.8499 387.0701 387.0701 387.0701
   391.4900 392.9327 392.9327 393.6944 393.6944 393.6944 393.9377 393.9377
   393.9377 393.9565 393.9565 393.9565 393.9633 393.9633 393.9633 393.9757
   394.0582 394.6186 394.6186 394.6186 395.6380 396.7564 396.7564 396.7601
   396.7601 396.7601 396.8523 396.8523 396.8523 396.8825 396.8825 396.8825
   397.1928 398.6408 398.6408 398.6408 399.6396 399.6396 399.6396 400.3123
   400.3123 400.3123 400.3313 400.3313 400.3558 400.3558 400.3558 400.4495
   400.4495 400.4495 400.5359 400.6965 400.6965 401.1485 401.1485 401.1485
   401.8050 402.1928 402.1928 402.1928 402.4304 402.4304 402.4304 402.6104
   402.6104 402.6140 402.6140 402.6140 402.7799 414.0844 414.0844 414.0844
   417.1081 417.1081 418.8557 418.8557 419.1087 419.1087 419.1087 420.2805
   420.2805 420.2805 420.4923 420.4923 420.4923 420.7830 420.7830 420.7830
   421.2840 421.2840 421.3925 421.3925 421.3925 421.5372 421.6224 421.6224
   421.6224 422.2793 426.5274 429.4626 429.4626 429.4626 430.8449 430.8449
   430.8449 433.0264 435.1679 435.1839 435.1839 435.8702 435.8702 435.8702
   435.9181 435.9181 435.9181 436.1299 436.1299 436.1299 436.2020 436.2020
   436.2020 436.2909 436.2909 438.3582 438.3582 438.3582 439.1473 439.1473
   439.1473 439.1725 439.1725 439.1725 439.2138 439.2138 439.2138 439.3551
   439.3551 439.3551 439.6498 439.6498 439.6498 439.6647 439.6647 439.7211
   439.7211 439.7211 439.7736 439.7736 439.9563 439.9563 439.9563 439.9927
   439.9927 439.9927 440.0025 440.0025 440.0025 440.9112 441.3189 441.3465
   441.3465 441.3465 441.3875 441.3875 441.3875 441.4517 441.7192 441.7192
   442.3332 442.3332 442.3332 442.4174 442.4174 442.4174 442.4434 442.4434
   442.5235 442.5235 442.5235 442.5834 442.5834 442.5834 444.3272 444.3511
   444.3953 444.3953 444.3953 444.3990 444.3990 446.2244 446.2244 446.2400
   446.2400 446.2400 446.2540 446.2540 446.2540 446.2596 446.2596 446.2596
   446.3068 446.3068 446.3260 446.3260 446.3260 446.4890 446.5987 446.5987
   446.5987 446.7114 446.7114 446.7114 446.8237 458.0310 458.0310 458.0310
   458.8112 458.8112 458.8112 459.7706 461.3529 466.7796 466.7796 466.7796
   466.8873 466.8873 466.9336 466.9336 466.9336 466.9452 466.9452 466.9452
   466.9646 466.9646 466.9762 466.9762 466.9762 469.3285 469.3285 469.3285
   470.5369 470.5369 474.6825 474.6825 474.6825 475.5314 475.5352 475.5352
   475.5352 475.7309 475.7309 475.7309 475.8537 475.8537 475.8537 478.9671
   478.9671 479.0255 479.0255 479.0255 479.1295 483.2405 483.2907 483.2907
   483.2907 483.3220 483.3220 485.2398 485.2398 485.2398 485.2698 485.2698
   485.2698 485.2937 485.2937 485.2937 485.2948 485.2948 485.2948 486.4936
   486.4936 486.5462 486.5462 486.5462 486.5852 501.4571 501.4571 501.4571
   505.5214 505.5214 505.5214 506.2157 506.2157 506.8236 507.1983 507.1983
   507.1983 507.2122 507.2122 507.2122 507.2342 507.2342 507.2342 507.2824
   507.2824 507.2922 507.2922 507.2922 507.6538 509.6093 509.6093 509.6093
   512.9689 512.9689 512.9689 515.4159 515.4159 515.9509 515.9509 515.9509
   516.4902 516.4902 516.4902 516.7380 517.2111 517.6342 517.6342 517.6342
   519.2650 519.4169 519.4169 519.4169 519.5783 519.5783 522.0722 522.0722
   522.0722 522.4234 522.4234 522.4234 522.7470 522.7470 523.0250 523.0250
   523.0250 523.2688 523.2688 523.2688 523.3975 523.4388 523.4388 523.8635
   523.8635 523.8635 524.0327 524.0327 524.0327 524.2594 524.4146 524.5079
   524.5079 524.8551 524.8551 524.8551 524.9221 524.9221 524.9221 525.0039
   525.0039 525.0039 526.0603 526.0603 526.0603 526.1110 526.1110 526.1215
   526.1215 526.1215 526.2162 526.2162 526.2181 526.2181 526.2181 526.2573
   526.2573 526.2573 526.8261 527.1985 527.2244 527.2244 527.2244 527.2661
   527.2661 527.2776 527.2776 527.2776 527.2925 527.2925 527.2925 529.7536
   529.7536 529.7915 529.7915 529.7915 529.7937 529.7937 529.7937 529.8335
   529.8335 529.8335 529.8760 543.3297 543.3297 543.3297 544.7378 544.7378
   546.3706 547.0835 547.0835 547.0835 547.3979 547.3979 547.3979 548.0207
   548.2340 548.2340 548.2340 548.3055 548.3055 548.3055 548.4092 548.4092
   548.4092 548.4916 548.4916 548.6017 548.6017 548.6017 548.7646 548.7646
   548.7646 548.9246 548.9246 549.1000 549.1000 549.1000 549.3459 549.3561
   549.3561 549.3561 549.4323 549.4323 549.4323 552.1950 552.1950 552.2129
   552.2129 552.2129 552.2414 552.2457 552.2457 552.2457 552.2485 552.2485
   552.2485 552.3783 552.3783 552.4764 552.4764 552.4764 552.5360 552.5536
   552.5536 552.5536 552.5692 552.5692 552.5692 553.5816 553.5816 553.6468
   553.6468 553.6468 553.7046 556.5535 556.5535 556.5535 559.4183 559.4183
   559.4183 559.6972 559.6972 560.3179 560.3179 560.3179 561.5751 561.6513
   561.6513 561.6601 561.6601 561.6601 561.8667 561.8667 561.8667 562.0855
   562.0855 562.0855 562.2431 565.1601 565.5500 565.5500 565.5500 565.8765
   565.8765 565.8765 566.3735 566.3735 566.4124 566.4124 566.4124 566.8446
   566.8446 566.8446 566.8825 566.9691 566.9691 566.9691 567.0269 567.0269
   567.0269 567.0282 567.0282 570.2143 570.2143 570.2143 570.2835 570.2835
   570.2835 570.3064 570.3064 570.3151 570.3735 570.3735 570.3735 570.3742

          k = 0.5000-0.5000 0.5000 (  2452 PWs)   bands (ev):

   -24.3091 -17.0462  -7.9348  -7.6883  -7.6883   0.8403   1.2844   1.2844
    10.8177  12.4268  13.7869  13.7869  15.9280  15.9280  17.8498  20.2838
    20.2838  22.2918  26.6882  27.7934  27.7934  28.2822  28.2822  33.1922
    35.6686  35.6686  36.6077  36.8151  36.8151  41.7358  42.1102  42.1102
    43.0747  44.6161  44.7691  44.7691  46.8260  48.8658  51.5484  51.5484
    52.3260  53.5560  53.5560  54.4169  55.2326  55.2326  57.8318  58.2539
    58.2539  58.5586  62.7856  62.7856  65.7268  66.0075  66.0075  69.8264
    70.6513  70.6513  71.9236  71.9236  72.3649  72.3649  74.3768  74.3768
    74.8065  74.9799  76.0815  76.0815  76.9106  76.9303  77.8261  79.3034
    79.3034  82.9857  83.8017  83.8017  84.3128  86.8150  86.8150  87.3041
    87.3041  87.8707  87.8707  90.8693  90.8693  92.7237  93.6396  95.3250
    95.4065  96.1713  96.1713  98.6645  98.9286  99.3700  99.3700  99.9350
    99.9350 101.0860 103.6993 104.9079 104.9079 105.3771 107.2649 107.2649
   108.2252 108.5566 108.5566 109.3821 110.6665 111.2071 111.2071 113.8031
   113.8031 114.8635 115.6764 115.6764 115.8399 115.8399 116.8813 116.8813
   117.6126 117.7761 118.7643 120.9153 121.5963 121.5963 121.8814 124.1704
   124.1704 126.5465 126.5465 126.7759 127.6825 127.6825 129.4419 129.4419
   129.8033 129.8039 131.1452 131.1452 131.2194 132.5039 132.8824 134.0973
   134.0973 134.3244 134.3244 135.5814 138.5016 138.5016 139.0181 139.0181
   140.7060 140.7210 140.7430 140.7430 141.0350 141.0350 142.1328 142.1328
   146.6237 146.6237 147.1876 148.1035 148.1035 148.1333 150.9383 150.9383
   151.1730 151.1730 151.2308 151.2803 151.8680 152.4856 152.4856 154.2906
   155.3396 158.0272 158.0272 159.0610 159.9898 161.2029 161.2029 162.6459
   162.6459 164.3526 164.3526 164.6431 165.2641 165.6599 166.5959 166.5959
   168.2461 168.5827 168.5827 169.6752 169.6752 170.3811 170.6496 170.6496
   171.3023 171.3023 171.4642 171.5225 171.5850 171.8587 171.8587 172.1172
   172.1172 173.4171 176.5263 176.5263 177.5588 179.0965 179.9710 179.9710
   180.1033 180.1033 180.9727 181.7193 181.7193 181.7771 182.6048 182.7431
   182.7431 183.0974 183.0974 183.9663 183.9663 184.1355 184.5273 184.5273
   186.7711 187.7321 187.7321 188.1134 188.3629 190.5938 190.5938 191.3461
   191.5087 191.9300 191.9300 193.1684 197.2966 197.2966 197.5193 198.1278
   198.5667 198.5667 199.3847 199.9511 199.9511 202.0535 202.0535 202.2671
   202.4524 202.7186 202.7186 203.3095 203.3095 204.3960 205.0803 205.0803
   205.2591 205.2591 205.2833 205.5672 206.6817 206.8327 208.0637 208.0637
   208.4125 208.9759 208.9759 214.7687 214.7687 214.8363 214.8363 218.0893
   218.4805 218.8831 218.8831 219.2964 219.2964 220.5715 223.4523 223.4523
   223.6700 223.8270 223.8883 223.8883 224.0238 224.0238 224.1182 224.1182
   224.4215 224.4215 224.5360 224.5430 224.6717 225.2637 226.4457 227.3615
   227.3615 231.1010 231.6197 231.6197 232.2723 232.2723 232.5342 233.1593
   233.2417 233.4650 233.4650 233.5619 233.5619 233.6021 233.6021 233.7993
   233.7993 234.3537 234.9002 235.0859 235.0859 235.1640 235.7068 236.8532
   236.8532 236.8999 236.8999 238.1431 238.1443 240.3167 243.8359 243.8359
   244.9380 244.9380 246.0715 246.0715 246.3267 246.5029 246.5029 246.6686
   246.7873 246.7873 247.8041 247.8041 248.9072 249.3197 249.3197 251.8084
   251.8084 252.3939 252.8891 252.8891 253.9300 254.7701 255.7683 255.7683
   255.8246 255.8246 256.0248 256.0392 256.7372 256.8367 256.8367 257.2380
   257.3398 257.9583 257.9583 259.4927 259.4927 259.8905 259.8905 260.9710
   264.5728 264.5728 265.0299 265.3767 265.8296 265.8296 266.7305 266.7305
   267.0281 267.0281 267.0468 267.6231 267.7530 267.7724 267.7724 267.9144
   272.2262 273.1679 273.1679 274.0777 274.0777 275.9007 275.9007 275.9573
   275.9573 276.1004 276.4631 276.4896 276.4896 276.6538 277.2372 278.2077
   278.2077 278.5713 278.8131 279.6418 279.6418 281.4369 281.4369 281.4875
   281.8178 284.3624 284.3624 285.1222 285.3764 285.7592 285.7781 285.7781
   286.5283 286.5283 286.9194 286.9194 286.9282 286.9282 287.5066 287.8207
   288.6364 288.6364 290.3949 290.3949 290.6200 290.8313 290.8313 293.0862
   293.0862 294.0116 294.4061 295.4532 295.4532 295.6400 297.0469 297.0469
   297.6672 297.9328 297.9328 299.0605 299.1498 299.1498 299.1900 299.1900
   299.3792 299.5271 302.0507 302.0723 302.0723 302.0983 302.0983 302.1916
   302.9637 302.9637 303.5184 306.8506 306.8506 307.5018 307.5222 307.5222
   309.3117 309.3117 309.6853 309.6876 309.9282 310.6519 310.6519 312.7879
   314.3182 314.6561 314.6561 315.3518 315.3518 317.4265 317.4265 318.2159
   318.2943 318.2943 318.7194 319.3665 319.3665 319.4512 319.5912 319.7855
   320.7150 320.7150 320.8047 321.1497 321.1497 321.2091 321.2156 321.2156
   321.6222 323.3299 323.3299 324.1581 324.1581 325.1055 325.1055 325.2200
   325.6604 325.6604 326.3840 326.8456 326.8456 327.3330 328.2441 328.8600
   329.0445 329.9627 330.2833 330.2833 330.4733 330.4733 330.5268 330.7033
   330.7033 330.7324 330.7324 330.9872 330.9872 331.0384 331.0929 331.1280
   331.1280 332.2223 332.3041 332.3041 332.3894 332.3894 332.5004 332.5307
   338.9456 338.9456 340.1211 340.2558 340.2558 340.2747 340.5902 340.5902
   341.2980 341.4686 341.4686 341.6723 341.6723 341.9873 341.9873 342.0868
   342.1069 342.4211 343.1748 343.1748 343.4056 343.4056 343.4800 343.4826
   348.0921 348.0921 348.5541 349.4537 350.7102 350.7102 350.8679 350.8679
   351.2921 351.5774 351.5774 352.3274 353.2689 355.1766 356.1402 356.1402
   356.9226 357.2653 357.2653 359.4686 359.4686 359.7089 360.0044 360.0044
   360.2453 360.2453 360.7963 360.7963 360.9316 360.9316 361.0834 361.0871
   361.9014 361.9014 361.9153 363.3952 363.9146 363.9146 364.2750 364.2750
   364.7513 364.7513 365.7519 365.7524 367.7014 368.6166 368.6166 370.4611
   371.0916 371.0916 371.6534 372.1022 372.1022 372.1911 372.1911 372.9624
   373.6379 373.6379 374.1100 375.6539 375.6539 375.8638 375.8679 375.8679
   375.8878 375.8878 376.0815 376.0852 377.4611 377.4611 377.6993 378.0285
   378.7665 379.4689 380.3458 380.3458 382.0323 382.1116 382.1116 384.6936
   385.6337 385.6337 385.7319 385.7319 388.3341 388.3341 389.9360 389.9360
   390.6185 390.8025 390.8025 391.2119 391.4438 391.4438 392.1880 392.1880
   392.2000 392.5873 392.9113 392.9331 392.9557 392.9557 393.0529 393.0529
   393.0566 393.0566 393.3310 393.9334 394.2002 394.3400 394.3400 394.4235
   394.4235 394.8224 395.0259 395.0259 395.1213 395.1260 395.1260 395.5316
   395.5316 395.5957 395.8952 395.8952 395.9644 395.9811 396.9155 396.9155
   396.9472 396.9472 396.9587 397.1688 399.9766 399.9766 401.7592 401.7592
   401.9984 402.6499 402.8335 403.8065 403.8065 403.8211 403.8211 404.6694
   406.1616 406.3838 406.3838 406.5354 406.5354 406.5950 407.6869 409.0583
   409.0583 411.1259 411.1259 412.0921 413.3067 413.3067 414.3507 414.4884
   414.4884 414.5244 414.6138 414.6138 414.7021 414.7776 414.7776 415.1973
   415.5298 415.5298 415.7592 415.7592 415.9645 415.9842 416.3457 416.3457
   416.8932 417.2213 417.2213 417.6473 417.6473 417.6834 417.6834 417.7195
   417.7484 418.2415 422.2773 423.1830 423.1830 424.1266 424.7865 424.7865
   425.0928 425.5628 425.5628 425.7284 425.8890 425.8890 426.4592 426.4592
   426.9849 426.9849 427.0186 427.0207 427.0207 427.3902 427.3902 427.3950
   427.4021 427.4673 427.5272 431.0929 433.1390 433.1390 434.2922 434.2922
   434.3248 435.2872 438.1098 438.1098 438.6879 438.6879 438.6895 438.6895
   438.9307 438.9307 438.9391 439.0375 439.6017 439.6017 441.3222 441.3222
   441.7346 442.0617 442.2569 442.6760 442.6760 443.6855 443.6855 444.6805
   445.0999 445.6491 445.6491 445.7418 445.7586 445.7586 446.2100 446.2100
   446.2883 446.2990 446.2990 446.6088 446.6328 447.6527 447.6527 447.8111
   447.8111 448.2071 449.5120 449.5120 449.6770 449.6770 449.7021 449.7569
   449.9238 450.2695 450.2695 452.2221 452.2221 453.8516 457.3515 457.3515
   457.6245 457.6998 457.6998 457.9367 457.9494 457.9494 458.2148 458.4168
   458.4168 458.6311 458.6311 458.7004 458.7004 458.8409 458.8410 459.4109
   461.2508 461.2508 461.2551 461.2551 461.2664 461.2958 464.8196 464.8196
   466.5616 467.1261 467.4718 467.5007 467.5007 467.5769 467.5769 468.2554
   468.2554 468.2634 468.2634 468.5727 468.6513 468.6513 468.6775 468.6962
   469.5765 469.5765 470.1422 470.7352 470.7352 471.4672 471.4672 471.5141
   471.5144 471.6174 471.6174 472.5924 476.1263 476.1263 476.3697 478.1438
   478.2596 478.2596 478.8775 478.9631 478.9631 479.0487 479.3555 479.3826
   479.3826 479.4625 479.5022 479.6982 479.6982 479.7306 479.7306 480.1507
   485.0643 485.0643 485.5985 486.2889 486.2889 487.0217 487.0217 487.1963
   487.3294 487.5845 487.5845 487.6909 487.6909 487.7742 488.0305 488.0305
   488.3499 488.3499 488.5904 488.5921 488.5921 488.7260 488.7260 488.7373
   488.7655 488.7663 488.8955 489.0067 489.0366 489.0366 490.8740 490.8800
   491.0124 491.0124 491.0329 491.0329 492.2522 492.2522 492.2613 492.2613
   492.2885 492.3265 492.3265 492.3273 492.3588 492.3588 492.4500 492.4571
   501.3494 501.3494 501.4387 501.8608 501.8608 501.9810 502.2873 502.2873
   502.3373 502.3373 502.3989 502.4833 502.4888 502.4933 502.6120 502.6120
   502.6860 502.6860 504.0767 504.0767 506.4672 506.4672 506.6643 507.9806
   509.2176 509.2176 509.6389 509.7330 509.7330 510.2162 511.0327 511.0327
   511.5583 511.6106 511.6106 511.7079 511.7787 511.7787 511.9297 511.9297
   511.9534 511.9998 512.2139 512.2139 512.6124 512.6124 512.6830 512.7276
   514.2088 515.6570 515.6570 515.7620 515.7620 515.9683 516.2345 516.7560
   518.2595 518.8579 518.8579 519.1685 519.1685 519.3586 519.3586 519.5001
   520.8006 520.8795 520.8795 521.0088 521.0088 521.0140 521.0140 522.2746
   522.9800 523.0256 523.0256 523.0505 523.0505 523.2852 523.2852 523.3204
   523.3410 523.3454 523.3454 523.3513 523.3513 523.4918 523.4976 523.4976
   523.5232 523.5790 525.8857 525.8857 525.8887 525.8887 527.0485 527.0488
   531.4373 531.4373 532.3349 532.3349 532.4068 532.5152 534.1729 534.1729
   534.2275 534.3364 534.3364 534.6886 537.2605 537.2605 538.4399 539.8275
   539.8275 540.0237 540.0617 540.3594 540.3594 540.6771 540.6771 541.3907
   541.7799 541.7799 542.0095 542.0095 542.0998 542.1957 542.2522 542.3522
   542.3522 542.5371 542.5371 542.5651 542.5651 542.6513 542.7610 542.7610
   542.9024 543.0994 543.7419 543.7419 543.7519 543.7519 543.8610 544.0324
   547.8121 548.8007 551.8990 551.8990 552.6568 552.6568 552.7143 553.0211
   553.0670 553.1142 553.1142 553.2733 553.2733 553.5149 553.5149 553.5661
   553.5661 553.6468 553.7050 553.7639 553.7639 553.7705 553.8679 553.9063
   554.0047 554.0143 554.0143 554.0403 554.0403 554.1235 554.1433 554.1433
   555.5015 555.5015 555.8358 555.8651 555.8651 556.2706 556.3040 556.3040
   556.3192 556.3192 556.5070 556.5070 556.5161 556.5161 556.5168 556.5392
   557.2851 557.2851 557.2932 557.2932 557.3352 557.3356 561.4832 561.4832
   561.6804 562.1254 562.1254 562.6884 566.6648 566.6648 566.7550 566.7550
   566.7807 566.7937 572.8567 572.8567 573.0626 574.8688 574.8688 575.4001
   575.4001 575.4002 575.4002 575.4864 575.4864 575.5203 575.5325 575.6217
   575.6708 575.6708 575.7471 575.7471 575.8025 575.8529 575.9362 575.9362
   575.9636 576.0138 577.3154 577.3154 577.8539 578.0125 578.0125 578.3519

          k = 0.0000-1.0000 0.0000 (  2450 PWs)   bands (ev):

   -24.2868 -16.9700  -8.2417  -7.8742  -7.8742   1.4481   1.5951   1.5951
     9.9011  12.0869  13.6266  15.2700  15.8486  15.8486  17.6517  19.3811
    19.3811  23.4341  27.3950  28.0805  29.1360  29.1360  32.7766  33.0942
    34.2042  34.2042  34.7618  35.1011  35.9949  35.9949  40.4825  40.4825
    41.8441  44.8884  47.0652  47.1692  49.0320  49.2529  51.2039  51.2039
    51.7950  51.7950  53.8467  56.7820  57.2670  57.3016  57.6247  57.6247
    60.7913  60.7913  61.6888  64.8357  66.1999  66.1999  66.6881  69.2916
    69.5859  70.5584  71.3314  71.3314  71.8675  72.9436  73.7902  73.7902
    73.9871  73.9871  74.7156  75.4058  75.5732  77.7543  80.0695  80.0695
    83.1995  83.2159  86.0396  86.0396  86.3532  86.8327  87.1074  87.1074
    87.4865  89.5338  89.5338  89.6683  90.3206  91.5072  91.5072  92.1157
    92.1157  92.2452  96.3523  97.1154  97.1154  97.1205  97.6490  97.7291
    99.4163  99.4163 100.1918 103.7236 106.0193 106.0193 106.1306 107.1624
   107.1624 108.1464 108.8169 109.5273 111.1137 111.2437 111.6553 111.6553
   112.1163 112.1894 112.4204 112.4204 114.2989 115.8649 115.8649 116.1741
   116.4217 119.4467 119.4467 122.0874 123.7557 123.7557 125.1207 125.5550
   125.8074 126.8657 127.9324 129.3588 129.3588 130.2042 130.2042 130.4651
   133.0282 133.2775 134.4357 136.0491 136.8787 137.0558 137.0558 137.4111
   137.4111 137.5078 138.1005 138.1005 139.3078 139.3897 139.4224 140.5473
   140.7463 140.7463 141.1790 141.5267 141.5267 144.6032 147.8056 148.4381
   148.4381 148.9975 149.4608 149.4608 150.4356 150.4356 150.6282 150.6282
   150.7009 150.9016 151.8945 151.9407 151.9407 152.0824 152.1295 152.2855
   152.5548 152.7859 153.0054 153.0054 154.1782 154.4359 155.1871 158.8288
   158.8288 159.3045 159.4740 159.4740 159.6103 159.7632 159.8745 160.1803
   163.1162 163.1162 165.5647 165.5647 165.7023 166.3815 166.7066 166.7066
   170.1269 171.6448 171.7816 171.8284 171.8284 172.0169 172.2181 173.3786
   173.9891 173.9891 175.0703 175.1584 175.3518 175.3518 176.9326 177.1476
   177.1476 177.5472 177.9959 177.9959 178.1866 178.2228 178.7956 180.1381
   180.3881 180.3881 181.6585 185.8023 185.8023 187.8020 189.8390 194.1205
   194.1205 194.5497 195.2969 195.7862 195.8032 195.8032 195.8853 196.5588
   198.2336 198.2336 198.8144 198.8144 198.9698 199.6539 199.8603 199.8603
   200.0635 200.0635 200.1459 200.3334 201.0594 201.0594 202.0101 202.2223
   202.7380 202.7380 204.2518 204.2597 204.3592 205.8675 209.6417 209.8225
   209.8225 210.0639 210.0639 210.2477 210.2594 210.6528 212.1539 212.1539
   213.2029 213.5247 213.5247 213.8497 214.8678 215.0940 215.1891 215.1891
   215.1954 215.4929 215.4929 215.8448 216.7558 218.0362 218.0362 218.1222
   218.1673 218.2472 218.3745 218.3745 218.4205 218.5849 221.5565 222.5678
   222.5678 222.8321 222.9306 222.9306 223.1291 223.1729 224.1657 226.4547
   228.2035 228.2035 228.8266 228.8266 229.7935 230.7859 232.5591 233.4682
   233.6086 233.6086 233.9666 234.1396 234.1396 235.7939 235.7939 235.8231
   235.8512 236.1940 236.1940 236.4722 237.2431 237.3794 237.4598 237.4813
   238.0096 238.0096 238.1110 238.1110 238.9553 239.1518 240.1192 241.1449
   242.7186 242.7186 243.2560 243.5622 244.8141 245.2876 245.2876 245.4235
   245.4235 246.5655 246.5848 247.8130 251.2829 251.2829 253.8408 254.9686
   254.9686 255.3376 255.9682 256.4969 256.6212 256.6691 256.6714 256.6714
   256.7078 256.7891 256.7891 256.9064 256.9809 256.9809 257.3609 258.1985
   258.1985 258.2279 258.9775 259.4335 260.1432 260.1432 260.1999 262.8456
   264.0576 264.1904 264.3568 264.3568 264.4161 264.4161 264.5242 264.8043
   265.2550 265.3262 265.3262 265.5349 267.1565 268.1922 268.2607 268.2607
   270.2707 273.5018 273.5018 274.3463 275.2145 276.1178 276.1178 276.6828
   276.6828 276.6911 277.6122 277.6122 277.6321 277.8203 277.9600 277.9600
   278.9661 279.0144 279.3880 279.3880 279.4612 279.5200 281.0921 281.4517
   281.4611 281.7559 282.1143 282.1143 282.9883 283.0408 283.0408 283.0858
   283.0930 283.0930 283.3152 283.6076 283.6076 283.7483 283.7585 285.0074
   285.0178 285.0806 285.0806 285.4132 287.2388 287.2512 287.3264 287.3264
   287.4781 287.5036 287.5036 287.5184 292.3847 292.8987 292.8987 294.5708
   294.5708 295.9909 297.8964 298.3343 300.4460 300.4996 300.5305 300.7096
   300.8052 300.8052 300.9095 300.9300 300.9300 301.7477 301.7841 301.7841
   302.6723 303.9262 303.9262 304.1059 306.7297 306.7297 307.8606 310.0550
   311.0810 311.0810 313.4918 314.5412 314.7306 315.9143 315.9143 316.5126
   318.4145 318.4145 318.7032 318.7516 319.3917 319.3998 319.3998 320.1967
   320.1967 320.3726 321.1328 321.6387 322.0247 322.0536 322.0836 322.1612
   322.1612 322.1933 322.1933 322.4411 324.4238 324.9343 324.9343 326.0445
   326.0445 326.1139 326.2147 326.2334 326.4341 326.9629 326.9629 326.9799
   327.1498 327.1498 327.2551 327.3162 327.3651 329.3840 329.4453 329.4453
   329.5409 329.5867 329.5867 329.6428 329.7534 329.7553 330.0382 330.0382
   330.3451 332.0884 336.6134 336.7914 336.7914 338.1710 338.1710 340.1197
   340.2722 340.4430 340.4430 340.6444 340.7634 340.9419 341.5328 341.5328
   341.7911 341.9670 342.1300 342.1300 342.2562 342.2562 342.3013 342.3727
   342.4371 342.4762 343.4781 343.5718 343.5718 343.8894 343.8894 344.3088
   344.4028 344.5086 345.3983 345.3983 345.4510 345.4889 345.8316 346.2088
   346.2088 346.2506 346.2506 346.4714 346.8554 348.2719 348.3883 348.3883
   348.4609 348.4609 351.6785 351.7165 351.7236 351.7236 351.7454 351.7687
   351.7687 351.8022 353.6131 353.6412 356.0112 357.0084 357.0084 357.9536
   358.1182 358.9860 359.1104 359.1104 359.7100 359.7100 359.9791 361.0420
   361.4475 361.5668 361.5668 362.1187 363.0508 365.1784 365.1784 365.2758
   365.2758 365.3968 365.4115 365.6447 365.6447 365.7533 365.7533 365.7730
   365.8476 366.1190 366.8942 366.9915 366.9915 367.1111 367.1648 367.4599
   367.4599 367.4804 367.5375 368.0264 370.7311 370.8879 371.1332 371.1332
   371.1756 371.1756 371.4369 371.4763 371.7776 375.5117 376.0571 376.0571
   378.4404 378.4404 378.9728 380.3300 381.4399 382.5083 382.5083 383.1170
   383.1498 383.5023 383.5023 383.6759 383.8163 384.4877 384.4877 385.1304
   385.1304 387.1350 387.9361 387.9361 388.2633 388.3218 388.3967 388.4528
   388.4733 388.7772 388.7772 389.0717 389.3256 389.3256 389.8428 389.8642
   389.8663 389.8817 390.1389 390.1389 390.2600 390.2729 390.2729 390.8163
   391.4751 391.5073 391.5073 391.5376 392.6071 392.6162 394.5708 394.5708
   394.5883 394.5883 395.8217 395.8459 398.3576 398.4419 398.4419 399.5000
   399.7807 399.7807 401.9931 404.1044 404.4418 405.2053 405.2053 405.6787
   406.0884 406.0884 406.1567 406.2381 406.4190 406.4942 406.4942 406.6377
   407.0966 407.1803 407.1803 407.2398 408.6775 408.6991 408.7759 408.7759
   408.7772 408.8297 408.8448 408.8448 408.9088 409.0200 409.0200 409.4560
   409.4560 409.6739 409.8712 410.4812 412.6546 413.5188 413.5623 413.5623
   413.6169 413.7028 413.7028 413.8204 415.4757 417.3349 417.6527 417.6527
   418.2489 420.1992 421.5290 421.5290 422.4488 422.8630 423.4073 423.7188
   423.7188 423.9238 425.6252 425.6252 426.4164 426.8437 426.8437 426.9885
   427.1102 427.1520 427.3588 427.5812 427.5812 427.6067 428.2560 428.2560
   428.2570 428.5152 429.3338 431.6696 431.6972 431.6972 431.7398 431.9053
   431.9133 431.9133 431.9289 432.1669 432.1669 432.1757 432.1757 433.1705
   433.2505 433.3361 435.7838 435.9563 435.9563 435.9859 440.0238 440.1853
   440.1853 442.5283 442.5863 442.7156 443.2176 443.2176 443.5087 443.5087
   444.5949 445.1156 446.1931 446.2291 446.2291 447.6455 447.7020 447.7578
   447.7578 448.0016 448.0016 450.4067 450.7633 450.7633 450.8019 450.8372
   451.0086 451.2067 451.2067 451.5323 451.8212 452.3037 452.3455 452.8630
   453.0566 453.0566 453.0775 453.0775 453.6003 454.1953 457.3437 457.5239
   457.5518 457.5518 457.5931 457.6259 457.6259 457.6721 457.9178 457.9578
   457.9578 457.9881 458.2042 458.2375 458.2375 458.2418 462.9901 462.9901
   463.6224 465.2573 465.3054 465.3054 466.8431 467.0298 467.9824 468.4227
   468.9497 468.9497 468.9564 468.9759 468.9759 469.1675 469.1782 469.1782
   469.4293 469.5764 469.5764 469.6580 469.7302 469.8202 469.8216 469.8799
   470.0645 470.1303 470.1303 470.1431 470.1431 470.2784 470.3035 470.3035
   470.3476 470.3633 470.4187 470.4226 470.4267 470.4267 470.4881 470.6725
   470.6725 470.7677 470.9720 470.9720 470.9832 471.0081 471.0081 471.0845
   471.4203 472.1685 472.2378 472.4083 472.4083 472.5486 472.5486 472.5889
   472.6466 473.2627 473.2627 473.3760 473.3858 473.3951 474.0434 474.0434
   474.2982 474.8004 474.8214 474.9646 474.9646 474.9994 477.6631 477.6748
   477.6748 477.7133 477.8050 477.8050 477.8064 477.8286 479.4803 479.5019
   479.6673 479.6673 479.6827 479.6827 479.9175 479.9252 491.1068 491.1068
   491.3007 491.3396 491.3396 491.4660 491.5498 491.6444 491.6690 491.6888
   491.6888 491.7022 491.7954 491.7954 492.1293 492.2024 493.3318 493.3318
   493.8024 495.3378 495.3378 495.5146 496.0324 496.2008 496.5189 496.8259
   496.8259 496.8755 496.8755 497.0192 497.1019 497.2486 497.3775 497.5046
   497.5355 497.5355 497.5548 497.5548 497.6924 497.7037 497.7563 497.7582
   497.9247 497.9247 498.0074 498.0255 498.0255 498.1029 506.1648 508.6165
   508.6165 509.9099 510.3358 510.3358 510.7540 511.3861 511.3861 511.6930
   511.7502 511.8091 511.8091 511.8808 511.8823 512.3498 512.6775 512.6775
   512.9823 513.2069 513.3987 513.3987 513.6794 513.6973 513.7119 514.4331
   514.4761 514.4761 514.5086 515.6134 515.6134 515.9536 515.9536 516.1534
   516.1705 516.2674 519.6270 519.6270 520.0886 520.1511 520.2674 520.2674
   520.2811 520.2811 520.4092 520.4400 521.6925 522.2579 522.2872 522.2907
   522.2907 522.3012 522.3410 522.3410 522.3576 522.8611 523.6833 524.3393
   524.3692 525.4120 525.4120 526.0793 528.8107 529.8402 529.8402 529.8626
   529.8626 530.2144 530.3244 531.4891 532.4881 532.5211 532.5360 532.5360
   533.9731 533.9760 534.1287 534.1287 534.1368 534.1368 534.1529 534.2356
   535.3855 535.3855 535.4252 535.4785 535.8194 535.8305 535.8305 535.8391
   535.8542 535.8542 535.8922 535.9009 537.0677 537.0718 537.2178 537.2178
   537.2351 537.2351 537.2830 537.3007 537.3312 537.3312 537.4096 537.4270
   538.6141 538.6141 539.0226 539.1144 539.1150 539.1150 539.1167 539.7818
   540.5140 540.5140 540.5249 540.5249 540.8811 540.9400 540.9400 540.9520
   545.7636 545.7737 549.8793 549.8793 550.6673 550.7587 550.8752 550.8752
   551.2114 552.0990 554.2190 554.5131 554.5131 554.6177 554.6177 554.6547
   554.9312 555.1029 555.1574 555.1600 555.1600 555.1838 555.1993 555.2137
   555.2218 555.2218 556.3455 556.3455 557.9039 558.3275 558.7868 558.7909
   558.8360 558.8360 558.9142 559.1867 559.1867 559.1929 559.5776 559.5776
   559.5869 559.5899 559.8028 560.3759 560.3759 560.7302 560.8222 561.0873
   561.0873 561.2190 561.2363 561.2363 561.5035 561.6174 561.6232 561.7704
   561.7704 561.8391 570.1229 573.0081 573.0081 573.8873 574.2248 574.6046
   574.7410 574.8324 574.8324 574.9498 575.0888 575.1710 575.1710 575.6169
   575.6599 575.6763 575.7015 575.7015 576.2169 576.2169 576.5884 576.5884
   577.9473 577.9473 577.9936 578.1485 578.3690 578.3690 578.4701 578.4907
   578.4988 578.5015 578.5015 578.5061 578.5091 578.5233 578.5233 579.1724

     the Fermi energy is     3.8238 ev
     (compare with:     7.2362 eV, computed in scf)

     Writing all to output data dir out/mp-463.save/
 
     init_run     :      0.04s CPU      0.05s WALL (       1 calls)
     electrons    :    214.06s CPU    229.88s WALL (       1 calls)

     Called by init_run:
     wfcinit      :      0.00s CPU      0.00s WALL (       1 calls)
     potinit      :      0.01s CPU      0.01s WALL (       1 calls)
     hinit0       :      0.02s CPU      0.02s WALL (       1 calls)

     Called by electrons:
     c_bands      :    214.06s CPU    229.88s WALL (       1 calls)
     v_of_rho     :      0.01s CPU      0.01s WALL (       1 calls)

     Called by c_bands:
     init_us_2    :      0.00s CPU      0.00s WALL (       3 calls)
     init_us_2:cp :      0.00s CPU      0.00s WALL (       3 calls)
     paro_k       :    207.08s CPU    222.39s WALL (       3 calls)

     Called by paro_*:
     h_psi        :      4.00s CPU      4.20s WALL (     315 calls)
     g_psi        :      0.08s CPU      0.09s WALL (   30437 calls)

     Called by h_psi:
     h_psi:calbec :      0.08s CPU      0.08s WALL (     315 calls)
     vloc_psi     :      3.84s CPU      4.03s WALL (     315 calls)
     add_vuspsi   :      0.06s CPU      0.06s WALL (     315 calls)

     General routines
     calbec       :      0.08s CPU      0.08s WALL (     315 calls)
     fft          :      0.01s CPU      0.01s WALL (      10 calls)
     fftw         :      3.43s CPU      3.60s WALL (   50094 calls)
 
     Parallel routines
 
     PWSCF        :   3m34.54s CPU   3m50.65s WALL

 
   This run was terminated on:   7:52:44  17Nov2023            

=------------------------------------------------------------------------------=
   JOB DONE.
=------------------------------------------------------------------------------=
