
     Program PWSCF v.6.8 starts on 13Mar2022 at 15:21:11 

     This program is part of the open-source Quantum ESPRESSO suite
     for quantum simulation of materials; please cite
         "P. Giannozzi et al., J. Phys.:Condens. Matter 21 395502 (2009);
         "P. Giannozzi et al., J. Phys.:Condens. Matter 29 465901 (2017);
         "P. Giannozzi et al., J. Chem. Phys. 152 154105 (2020);
          URL http://www.quantum-espresso.org", 
     in publications or presentations arising from this work. More details at
     http://www.quantum-espresso.org/quote

     Parallel version (MPI), running on    16 processors

     MPI processes distributed on     2 nodes
     R & G space division:  proc/nbgrp/npool/nimage =      16
     482258 MiB available memory on the printing compute node when the environment starts
 
     Reading input from aiida.in

     Current dimensions of program PWSCF are:
     Max number of different atomic species (ntypx) = 10
     Max number of k-points (npk) =  40000
     Max angular momentum in pseudopotentials (lmaxx) =  4
     Message from routine setup:
     using ibrav=0 with symmetry is DISCOURAGED, use correct ibrav instead

     Subspace diagonalization in iterative solution of the eigenvalue problem:
     a serial algorithm will be used

 
     Parallelization info
     --------------------
     sticks:   dense  smooth     PW     G-vecs:    dense   smooth      PW
     Min          64      64     19                 1378     1378     220
     Max          65      65     21                 1381     1381     221
     Sum        1039    1039    313                22075    22075    3527
 
     Using Slab Decomposition
 


     bravais-lattice index     =            0
     lattice parameter (alat)  =       7.2005  a.u.
     unit-cell volume          =     263.9777 (a.u.)^3
     number of atoms/cell      =            2
     number of atomic types    =            1
     number of electrons       =         8.00
     number of Kohn-Sham states=           40
     kinetic-energy cutoff     =      72.0000  Ry
     charge density cutoff     =     288.0000  Ry
     scf convergence threshold =      1.0E-08
     mixing beta               =       0.6000
     number of iterations used =            8  plain     mixing
     Exchange-correlation= PBE
                           (   1   4   3   4   0   0   0)

     GPU acceleration is ACTIVE.

     Message from routine print_cuda_info:
     High GPU oversubscription detected. Are you sure this is what you want?

     GPU used by master process:

        Device Number: 0
        Device name: NVIDIA A100-SXM4-40GB
        Compute capability : 80
        Ratio of single to double precision performance  : 2
        Memory Clock Rate (KHz): 1215000
        Memory Bus Width (bits): 5120
        Peak Memory Bandwidth (GB/s): ******

     celldm(1)=   7.200468  celldm(2)=   0.000000  celldm(3)=   0.000000
     celldm(4)=   0.000000  celldm(5)=   0.000000  celldm(6)=   0.000000

     crystal axes: (cart. coord. in units of alat)
               a(1) = (  -0.707107   0.000000   0.707107 )  
               a(2) = (   0.000000   0.707107   0.707107 )  
               a(3) = (  -0.707107   0.707107   0.000000 )  

     reciprocal axes: (cart. coord. in units 2 pi/alat)
               b(1) = ( -0.707107 -0.707107  0.707107 )  
               b(2) = (  0.707107  0.707107  0.707107 )  
               b(3) = ( -0.707107  0.707107 -0.707107 )  


     PseudoPot. # 1 for Si read from file:
     ./pseudo/Si.upf
     MD5 check sum: 79dec85d05fec7cbd5344aef70449f80
     Pseudo is Norm-conserving + core correction, Zval =  4.0
     Generated using ONCVPSP code by D. R. Hamann
     Using radial grid of 1510 points,  6 beta functions with: 
                l(1) =   0
                l(2) =   0
                l(3) =   1
                l(4) =   1
                l(5) =   2
                l(6) =   2

     atomic species   valence    mass     pseudopotential
        Si             4.00    28.08500     Si( 1.00)

     24 Sym. Ops. (no inversion) found


                                    s                        frac. trans.

      isym =  1     identity                                     

 cryst.   s( 1) = (     1          0          0      )
                  (     0          1          0      )
                  (     0          0          1      )

 cart.    s( 1) = (  1.0000000  0.0000000 -0.0000000 )
                  (  0.0000000  1.0000000  0.0000000 )
                  ( -0.0000000 -0.0000000  1.0000000 )


      isym =  2     180 deg rotation - cart. axis [0,0,1]        

 cryst.   s( 2) = (     0          1         -1      )
                  (     1          0         -1      )
                  (     0          0         -1      )

 cart.    s( 2) = ( -1.0000000 -0.0000000 -0.0000000 )
                  ( -0.0000000 -1.0000000  0.0000000 )
                  (  0.0000000  0.0000000  1.0000000 )


      isym =  3     180 deg rotation - cart. axis [0,1,0]        

 cryst.   s( 3) = (    -1          0          0      )
                  (    -1          0          1      )
                  (    -1          1          0      )

 cart.    s( 3) = ( -1.0000000  0.0000000  0.0000000 )
                  ( -0.0000000  1.0000000 -0.0000000 )
                  (  0.0000000 -0.0000000 -1.0000000 )


      isym =  4     180 deg rotation - cart. axis [1,0,0]        

 cryst.   s( 4) = (     0         -1          1      )
                  (     0         -1          0      )
                  (     1         -1          0      )

 cart.    s( 4) = (  1.0000000 -0.0000000  0.0000000 )
                  (  0.0000000 -1.0000000 -0.0000000 )
                  ( -0.0000000  0.0000000 -1.0000000 )


      isym =  5     120 deg rotation - cart. axis [-1,-1,-1]     

 cryst.   s( 5) = (    -1          0          1      )
                  (    -1          1          0      )
                  (    -1          0          0      )

 cart.    s( 5) = ( -0.0000000  1.0000000  0.0000000 )
                  (  0.0000000  0.0000000  1.0000000 )
                  (  1.0000000 -0.0000000 -0.0000000 )


      isym =  6     120 deg rotation - cart. axis [-1,1,1]       

 cryst.   s( 6) = (     0          1          0      )
                  (     0          0          1      )
                  (     1          0          0      )

 cart.    s( 6) = (  0.0000000 -1.0000000  0.0000000 )
                  ( -0.0000000 -0.0000000  1.0000000 )
                  ( -1.0000000  0.0000000 -0.0000000 )


      isym =  7     120 deg rotation - cart. axis [1,1,-1]       

 cryst.   s( 7) = (     1          0         -1      )
                  (     0          0         -1      )
                  (     0          1         -1      )

 cart.    s( 7) = (  0.0000000  1.0000000 -0.0000000 )
                  ( -0.0000000  0.0000000 -1.0000000 )
                  ( -1.0000000 -0.0000000  0.0000000 )


      isym =  8     120 deg rotation - cart. axis [1,-1,1]       

 cryst.   s( 8) = (     0         -1          0      )
                  (     1         -1          0      )
                  (     0         -1          1      )

 cart.    s( 8) = ( -0.0000000 -1.0000000 -0.0000000 )
                  (  0.0000000 -0.0000000 -1.0000000 )
                  (  1.0000000  0.0000000  0.0000000 )


      isym =  9     120 deg rotation - cart. axis [1,1,1]        

 cryst.   s( 9) = (     0          0         -1      )
                  (     0          1         -1      )
                  (     1          0         -1      )

 cart.    s( 9) = (  0.0000000 -0.0000000  1.0000000 )
                  (  1.0000000  0.0000000  0.0000000 )
                  ( -0.0000000  1.0000000 -0.0000000 )


      isym = 10     120 deg rotation - cart. axis [-1,1,-1]      

 cryst.   s(10) = (    -1          1          0      )
                  (    -1          0          0      )
                  (    -1          0          1      )

 cart.    s(10) = ( -0.0000000  0.0000000  1.0000000 )
                  ( -1.0000000 -0.0000000  0.0000000 )
                  (  0.0000000 -1.0000000 -0.0000000 )


      isym = 11     120 deg rotation - cart. axis [1,-1,-1]      

 cryst.   s(11) = (     0          0          1      )
                  (     1          0          0      )
                  (     0          1          0      )

 cart.    s(11) = ( -0.0000000 -0.0000000 -1.0000000 )
                  ( -1.0000000  0.0000000 -0.0000000 )
                  (  0.0000000  1.0000000  0.0000000 )


      isym = 12     120 deg rotation - cart. axis [-1,-1,1]      

 cryst.   s(12) = (     1         -1          0      )
                  (     0         -1          1      )
                  (     0         -1          0      )

 cart.    s(12) = (  0.0000000  0.0000000 -1.0000000 )
                  (  1.0000000 -0.0000000 -0.0000000 )
                  ( -0.0000000 -1.0000000  0.0000000 )


      isym = 13     inv. 180 deg rotation - cart. axis [1,1,0]   

 cryst.   s(13) = (     0          1          0      )
                  (     1          0          0      )
                  (     0          0          1      )

 cart.    s(13) = ( -0.0000000 -1.0000000 -0.0000000 )
                  ( -1.0000000 -0.0000000  0.0000000 )
                  (  0.0000000  0.0000000  1.0000000 )


      isym = 14     inv. 180 deg rotation - cart. axis [1,-1,0]  

 cryst.   s(14) = (     1          0         -1      )
                  (     0          1         -1      )
                  (     0          0         -1      )

 cart.    s(14) = (  0.0000000  1.0000000 -0.0000000 )
                  (  1.0000000  0.0000000  0.0000000 )
                  ( -0.0000000 -0.0000000  1.0000000 )


      isym = 15     inv.  90 deg rotation - cart. axis [0,0,-1]  

 cryst.   s(15) = (     0         -1          0      )
                  (     0         -1          1      )
                  (     1         -1          0      )

 cart.    s(15) = (  0.0000000 -1.0000000  0.0000000 )
                  (  1.0000000 -0.0000000 -0.0000000 )
                  ( -0.0000000  0.0000000 -1.0000000 )


      isym = 16     inv.  90 deg rotation - cart. axis [0,0,1]   

 cryst.   s(16) = (    -1          0          1      )
                  (    -1          0          0      )
                  (    -1          1          0      )

 cart.    s(16) = ( -0.0000000  1.0000000  0.0000000 )
                  ( -1.0000000  0.0000000 -0.0000000 )
                  (  0.0000000 -0.0000000 -1.0000000 )


      isym = 17     inv. 180 deg rotation - cart. axis [1,0,1]   

 cryst.   s(17) = (     1          0          0      )
                  (     0          0          1      )
                  (     0          1          0      )

 cart.    s(17) = (  0.0000000  0.0000000 -1.0000000 )
                  ( -0.0000000  1.0000000 -0.0000000 )
                  ( -1.0000000 -0.0000000  0.0000000 )


      isym = 18     inv. 180 deg rotation - cart. axis [-1,0,1]  

 cryst.   s(18) = (    -1          0          0      )
                  (    -1          1          0      )
                  (    -1          0          1      )

 cart.    s(18) = ( -0.0000000  0.0000000  1.0000000 )
                  (  0.0000000  1.0000000  0.0000000 )
                  (  1.0000000 -0.0000000 -0.0000000 )


      isym = 19     inv.  90 deg rotation - cart. axis [0,1,0]   

 cryst.   s(19) = (     0         -1          1      )
                  (     1         -1          0      )
                  (     0         -1          0      )

 cart.    s(19) = ( -0.0000000 -0.0000000 -1.0000000 )
                  (  0.0000000 -1.0000000 -0.0000000 )
                  (  1.0000000  0.0000000  0.0000000 )


      isym = 20     inv.  90 deg rotation - cart. axis [0,-1,0]  

 cryst.   s(20) = (     0          1         -1      )
                  (     0          0         -1      )
                  (     1          0         -1      )

 cart.    s(20) = (  0.0000000 -0.0000000  1.0000000 )
                  ( -0.0000000 -1.0000000  0.0000000 )
                  ( -1.0000000  0.0000000 -0.0000000 )


      isym = 21     inv. 180 deg rotation - cart. axis [0,1,1]   

 cryst.   s(21) = (     1         -1          0      )
                  (     0         -1          0      )
                  (     0         -1          1      )

 cart.    s(21) = (  1.0000000  0.0000000 -0.0000000 )
                  (  0.0000000 -0.0000000 -1.0000000 )
                  ( -0.0000000 -1.0000000  0.0000000 )


      isym = 22     inv. 180 deg rotation - cart. axis [0,1,-1]  

 cryst.   s(22) = (     0          0          1      )
                  (     0          1          0      )
                  (     1          0          0      )

 cart.    s(22) = (  1.0000000 -0.0000000  0.0000000 )
                  (  0.0000000  0.0000000  1.0000000 )
                  ( -0.0000000  1.0000000 -0.0000000 )


      isym = 23     inv.  90 deg rotation - cart. axis [-1,0,0]  

 cryst.   s(23) = (     0          0         -1      )
                  (     1          0         -1      )
                  (     0          1         -1      )

 cart.    s(23) = ( -1.0000000 -0.0000000 -0.0000000 )
                  ( -0.0000000  0.0000000 -1.0000000 )
                  (  0.0000000  1.0000000  0.0000000 )


      isym = 24     inv.  90 deg rotation - cart. axis [1,0,0]   

 cryst.   s(24) = (    -1          1          0      )
                  (    -1          0          1      )
                  (    -1          0          0      )

 cart.    s(24) = ( -1.0000000  0.0000000  0.0000000 )
                  ( -0.0000000 -0.0000000  1.0000000 )
                  (  0.0000000 -1.0000000 -0.0000000 )


   Cartesian axes

     site n.     atom                  positions (alat units)
         1           Si  tau(   1) = (   0.0000000   0.0000000   0.0000000  )
         2           Si  tau(   2) = (  -0.3535534   0.3535534   0.3535534  )

   Crystallographic axes

     site n.     atom                  positions (cryst. coord.)
         1           Si  tau(   1) = (  0.0000000  0.0000000  0.0000000  )
         2           Si  tau(   2) = (  0.2500000  0.2500000  0.2500000  )

     number of k points=    29
                       cart. coord. in units 2pi/alat
        k(    1) = (   0.0000000   0.0000000   0.0000000), wk =   0.0039063
        k(    2) = (  -0.0883883   0.0883883  -0.0883883), wk =   0.0312500
        k(    3) = (  -0.1767767   0.1767767  -0.1767767), wk =   0.0312500
        k(    4) = (  -0.2651650   0.2651650  -0.2651650), wk =   0.0312500
        k(    5) = (   0.3535534  -0.3535534   0.3535534), wk =   0.0156250
        k(    6) = (   0.0000000   0.1767767   0.0000000), wk =   0.0234375
        k(    7) = (  -0.0883883   0.2651650  -0.0883883), wk =   0.0937500
        k(    8) = (  -0.1767767   0.3535534  -0.1767767), wk =   0.0937500
        k(    9) = (   0.4419417  -0.2651650   0.4419417), wk =   0.0937500
        k(   10) = (   0.3535534  -0.1767767   0.3535534), wk =   0.0937500
        k(   11) = (   0.2651650  -0.0883883   0.2651650), wk =   0.0937500
        k(   12) = (   0.1767767   0.0000000   0.1767767), wk =   0.0468750
        k(   13) = (   0.0000000   0.3535534   0.0000000), wk =   0.0234375
        k(   14) = (  -0.0883883   0.4419417  -0.0883883), wk =   0.0937500
        k(   15) = (   0.5303301  -0.1767767   0.5303301), wk =   0.0937500
        k(   16) = (   0.4419417  -0.0883883   0.4419417), wk =   0.0937500
        k(   17) = (   0.3535534   0.0000000   0.3535534), wk =   0.0468750
        k(   18) = (   0.0000000   0.5303301   0.0000000), wk =   0.0234375
        k(   19) = (   0.6187184  -0.0883883   0.6187184), wk =   0.0937500
        k(   20) = (   0.5303301   0.0000000   0.5303301), wk =   0.0468750
        k(   21) = (   0.0000000  -0.7071068   0.0000000), wk =   0.0117188
        k(   22) = (  -0.1767767   0.3535534   0.0000000), wk =   0.0937500
        k(   23) = (   0.4419417  -0.2651650   0.6187184), wk =   0.1875000
        k(   24) = (   0.3535534  -0.1767767   0.5303301), wk =   0.0937500
        k(   25) = (   0.5303301  -0.1767767   0.7071068), wk =   0.0937500
        k(   26) = (   0.4419417  -0.0883883   0.6187184), wk =   0.1875000
        k(   27) = (   0.3535534   0.0000000   0.5303301), wk =   0.0937500
        k(   28) = (  -0.1767767  -0.7071068  -0.0000000), wk =   0.0468750
        k(   29) = (  -0.3535534  -0.7071068   0.0000000), wk =   0.0234375

                       cryst. coord.
        k(    1) = (   0.0000000   0.0000000   0.0000000), wk =   0.0039063
        k(    2) = (   0.0000000   0.0000000   0.1250000), wk =   0.0312500
        k(    3) = (   0.0000000   0.0000000   0.2500000), wk =   0.0312500
        k(    4) = (  -0.0000000  -0.0000000   0.3750000), wk =   0.0312500
        k(    5) = (  -0.0000000  -0.0000000  -0.5000000), wk =   0.0156250
        k(    6) = (   0.0000000   0.1250000   0.1250000), wk =   0.0234375
        k(    7) = (   0.0000000   0.1250000   0.2500000), wk =   0.0937500
        k(    8) = (   0.0000000   0.1250000   0.3750000), wk =   0.0937500
        k(    9) = (  -0.0000000   0.1250000  -0.5000000), wk =   0.0937500
        k(   10) = (  -0.0000000   0.1250000  -0.3750000), wk =   0.0937500
        k(   11) = (   0.0000000   0.1250000  -0.2500000), wk =   0.0937500
        k(   12) = (  -0.0000000   0.1250000  -0.1250000), wk =   0.0468750
        k(   13) = (   0.0000000   0.2500000   0.2500000), wk =   0.0234375
        k(   14) = (   0.0000000   0.2500000   0.3750000), wk =   0.0937500
        k(   15) = (   0.0000000   0.2500000  -0.5000000), wk =   0.0937500
        k(   16) = (  -0.0000000   0.2500000  -0.3750000), wk =   0.0937500
        k(   17) = (  -0.0000000   0.2500000  -0.2500000), wk =   0.0468750
        k(   18) = (   0.0000000   0.3750000   0.3750000), wk =   0.0234375
        k(   19) = (  -0.0000000   0.3750000  -0.5000000), wk =   0.0937500
        k(   20) = (   0.0000000   0.3750000  -0.3750000), wk =   0.0468750
        k(   21) = (   0.0000000  -0.5000000  -0.5000000), wk =   0.0117188
        k(   22) = (   0.1250000   0.2500000   0.3750000), wk =   0.0937500
        k(   23) = (   0.1250000   0.2500000  -0.5000000), wk =   0.1875000
        k(   24) = (   0.1250000   0.2500000  -0.3750000), wk =   0.0937500
        k(   25) = (   0.1250000   0.3750000  -0.5000000), wk =   0.0937500
        k(   26) = (   0.1250000   0.3750000  -0.3750000), wk =   0.1875000
        k(   27) = (   0.1250000   0.3750000  -0.2500000), wk =   0.0937500
        k(   28) = (   0.1250000  -0.5000000  -0.3750000), wk =   0.0468750
        k(   29) = (   0.2500000  -0.5000000  -0.2500000), wk =   0.0234375

     Dense  grid:    22075 G-vectors     FFT dimensions: (  40,  40,  40)

     Dynamical RAM for                 wfc:       0.10 MB

     Dynamical RAM for     wfc (w. buffer):       3.11 MB

     Dynamical RAM for           str. fact:       0.02 MB

     Dynamical RAM for           local pot:       0.00 MB

     Dynamical RAM for          nlocal pot:       0.09 MB

     Dynamical RAM for                qrad:       1.36 MB

     Dynamical RAM for          rho,v,vnew:       0.17 MB

     Dynamical RAM for               rhoin:       0.06 MB

     Dynamical RAM for            rho*nmix:       0.34 MB

     Dynamical RAM for           G-vectors:       0.09 MB

     Dynamical RAM for          h,s,v(r/c):       0.29 MB

     Dynamical RAM for          <psi|beta>:       0.02 MB

     Dynamical RAM for                 psi:       0.21 MB

     Dynamical RAM for                hpsi:       0.21 MB

     Dynamical RAM for      wfcinit/wfcrot:       0.24 MB

     Estimated static dynamical RAM per process >       5.14 MB

     Estimated max dynamical RAM per process >       6.20 MB

     Estimated total dynamical RAM >      99.23 MB

     Initial potential from superposition of free atoms

     starting charge    7.99877, renormalised to    8.00000
     Starting wfcs are    8 randomized atomic wfcs +   32 random wfcs

     total cpu time spent up to now is        3.5 secs

     Self-consistent Calculation
[tb_dev] Currently allocated     1.90E+00 Mbytes, locked:    0 /  10
[tb_pin] Currently allocated     0.00E+00 Mbytes, locked:    0 /   0

     iteration #  1     ecut=    72.00 Ry     beta= 0.60
     Davidson diagonalization with overlap

---- Real-time Memory Report at c_bands before calling an iterative solver
          1353 MiB given to the printing process from OS
             0 MiB allocation reported by mallinfo(arena+hblkhd)
        475727 MiB available memory on the node where the printing process lives
     GPU memory used/free/total (MiB): 1695 / 38840 / 40536
------------------
     c_bands:  1 eigenvalues not converged
     c_bands:  1 eigenvalues not converged
     ethr =  5.00E-06,  avg # of iterations = 16.9

     total cpu time spent up to now is       14.3 secs

     total energy              =     -16.92190159 Ry
     estimated scf accuracy    <       0.05940939 Ry
[tb_dev] Currently allocated     2.80E+00 Mbytes, locked:    0 /  11
[tb_pin] Currently allocated     9.77E-02 Mbytes, locked:    0 /   1

     iteration #  2     ecut=    72.00 Ry     beta= 0.60
     Davidson diagonalization with overlap

---- Real-time Memory Report at c_bands before calling an iterative solver
          1354 MiB given to the printing process from OS
             0 MiB allocation reported by mallinfo(arena+hblkhd)
        475740 MiB available memory on the node where the printing process lives
     GPU memory used/free/total (MiB): 1697 / 38838 / 40536
------------------
     ethr =  7.43E-04,  avg # of iterations =  1.0

     total cpu time spent up to now is       15.9 secs

     total energy              =     -16.92314773 Ry
     estimated scf accuracy    <       0.00492711 Ry
[tb_dev] Currently allocated     2.80E+00 Mbytes, locked:    0 /  11
[tb_pin] Currently allocated     9.77E-02 Mbytes, locked:    0 /   1

     iteration #  3     ecut=    72.00 Ry     beta= 0.60
     Davidson diagonalization with overlap

---- Real-time Memory Report at c_bands before calling an iterative solver
          1354 MiB given to the printing process from OS
             0 MiB allocation reported by mallinfo(arena+hblkhd)
        475741 MiB available memory on the node where the printing process lives
     GPU memory used/free/total (MiB): 1697 / 38838 / 40536
------------------
     ethr =  6.16E-05,  avg # of iterations =  1.3

     total cpu time spent up to now is       17.6 secs

     total energy              =     -16.92329619 Ry
     estimated scf accuracy    <       0.00008603 Ry
[tb_dev] Currently allocated     2.80E+00 Mbytes, locked:    0 /  11
[tb_pin] Currently allocated     9.77E-02 Mbytes, locked:    0 /   1

     iteration #  4     ecut=    72.00 Ry     beta= 0.60
     Davidson diagonalization with overlap

---- Real-time Memory Report at c_bands before calling an iterative solver
          1356 MiB given to the printing process from OS
             0 MiB allocation reported by mallinfo(arena+hblkhd)
        475725 MiB available memory on the node where the printing process lives
     GPU memory used/free/total (MiB): 1697 / 38838 / 40536
------------------
     ethr =  1.08E-06,  avg # of iterations =  4.2

     total cpu time spent up to now is       20.4 secs

     total energy              =     -16.92330006 Ry
     estimated scf accuracy    <       0.00000029 Ry
[tb_dev] Currently allocated     2.80E+00 Mbytes, locked:    0 /  11
[tb_pin] Currently allocated     9.77E-02 Mbytes, locked:    0 /   1

     iteration #  5     ecut=    72.00 Ry     beta= 0.60
     Davidson diagonalization with overlap

---- Real-time Memory Report at c_bands before calling an iterative solver
          1357 MiB given to the printing process from OS
             0 MiB allocation reported by mallinfo(arena+hblkhd)
        475725 MiB available memory on the node where the printing process lives
     GPU memory used/free/total (MiB): 1697 / 38838 / 40536
------------------
     ethr =  3.56E-09,  avg # of iterations =  6.6

     total cpu time spent up to now is       24.5 secs

     total energy              =     -16.92330016 Ry
     estimated scf accuracy    <       0.00000002 Ry
[tb_dev] Currently allocated     2.80E+00 Mbytes, locked:    0 /  11
[tb_pin] Currently allocated     9.77E-02 Mbytes, locked:    0 /   1

     iteration #  6     ecut=    72.00 Ry     beta= 0.60
     Davidson diagonalization with overlap

---- Real-time Memory Report at c_bands before calling an iterative solver
          1357 MiB given to the printing process from OS
             0 MiB allocation reported by mallinfo(arena+hblkhd)
        475727 MiB available memory on the node where the printing process lives
     GPU memory used/free/total (MiB): 1697 / 38838 / 40536
------------------
     ethr =  1.97E-10,  avg # of iterations =  3.2

     total cpu time spent up to now is       27.3 secs

     End of self-consistent calculation

          k = 0.0000 0.0000 0.0000 (  2733 PWs)   bands (ev):

    -5.6484   6.4781   6.4781   6.4781   9.0425   9.0425   9.0425  10.0865
    14.2187  14.2187  14.5333  17.8123  17.8123  17.8123  22.0361  29.7641
    29.7641  29.7641  30.8332  30.8332  32.7046  32.7046  32.7046  36.1981
    36.1981  36.1981  41.4603  41.4603  41.4603  45.2540  45.2540  45.4717
    47.3860  47.3860  49.4747  49.4747  49.4747  51.2888  51.2888  51.2888

     occupation numbers 
     1.0000   1.0000   1.0000   1.0000   0.0000   0.0000   0.0000   0.0000
     0.0000   0.0000   0.0000   0.0000   0.0000   0.0000   0.0000   0.0000
     0.0000   0.0000   0.0000   0.0000   0.0000   0.0000   0.0000   0.0000
     0.0000   0.0000   0.0000   0.0000   0.0000   0.0000   0.0000   0.0000
     0.0000   0.0000   0.0000   0.0000   0.0000   0.0000   0.0000   0.0000

          k =-0.0884 0.0884-0.0884 (  2719 PWs)   bands (ev):

    -5.4402   4.8669   6.1813   6.1813   9.0338   9.4774   9.4774  11.3843
    13.7277  13.7277  15.3301  17.2489  18.9946  18.9946  23.2851  27.7767
    27.7767  28.1417  30.5051  30.5051  33.1952  33.1952  34.0134  36.3886
    38.3193  38.3193  39.2339  41.0031  41.0031  43.5321  43.5321  45.5914
    45.5914  46.0185  49.0021  49.0021  49.0890  49.3418  50.6548  51.0412

     occupation numbers 
     1.0000   1.0000   1.0000   1.0000   0.0000   0.0000   0.0000   0.0000
     0.0000   0.0000   0.0000   0.0000   0.0000   0.0000   0.0000   0.0000
     0.0000   0.0000   0.0000   0.0000   0.0000   0.0000   0.0000   0.0000
     0.0000   0.0000   0.0000   0.0000   0.0000   0.0000   0.0000   0.0000
     0.0000   0.0000   0.0000   0.0000   0.0000   0.0000   0.0000   0.0000

          k =-0.1768 0.1768-0.1768 (  2716 PWs)   bands (ev):

    -4.8324   2.5019   5.7012   5.7012   8.5760   9.9964   9.9964  13.5758
    13.6911  13.6911  15.5546  18.4700  21.2567  21.2567  24.5401  24.5401
    24.7177  26.8143  30.6809  30.6809  33.5314  33.5314  34.5924  36.2976
    36.9245  38.7161  38.7161  40.2273  40.2273  41.2463  41.2463  45.2479
    45.2479  45.4572  45.9881  46.4553  48.2913  48.2913  50.7410  51.0183

     occupation numbers 
     1.0000   1.0000   1.0000   1.0000   0.0000   0.0000   0.0000   0.0000
     0.0000   0.0000   0.0000   0.0000   0.0000   0.0000   0.0000   0.0000
     0.0000   0.0000   0.0000   0.0000   0.0000   0.0000   0.0000   0.0000
     0.0000   0.0000   0.0000   0.0000   0.0000   0.0000   0.0000   0.0000
     0.0000   0.0000   0.0000   0.0000   0.0000   0.0000   0.0000   0.0000

          k =-0.2652 0.2652-0.2652 (  2734 PWs)   bands (ev):

    -3.9175   0.4425   5.3694   5.3694   8.2151   9.9228   9.9228  14.4105
    15.1144  15.1144  16.3658  20.3825  20.3825  20.8246  23.3762  25.2157
    25.2157  29.7398  30.5224  30.5224  30.6316  33.6453  33.6453  35.2236
    35.2236  36.6453  37.6410  39.3888  39.3888  40.3958  40.3958  41.7221
    44.3166  44.6991  47.6934  47.6934  48.8247  48.8247  50.2479  51.0480

     occupation numbers 
     1.0000   1.0000   1.0000   1.0000   0.0000   0.0000   0.0000   0.0000
     0.0000   0.0000   0.0000   0.0000   0.0000   0.0000   0.0000   0.0000
     0.0000   0.0000   0.0000   0.0000   0.0000   0.0000   0.0000   0.0000
     0.0000   0.0000   0.0000   0.0000   0.0000   0.0000   0.0000   0.0000
     0.0000   0.0000   0.0000   0.0000   0.0000   0.0000   0.0000   0.0000

          k = 0.3536-0.3536 0.3536 (  2764 PWs)   bands (ev):

    -3.2588  -0.6071   5.2562   5.2562   8.0877   9.8039   9.8039  14.2390
    17.0961  17.0961  17.9570  17.9570  18.0274  19.7967  26.0912  26.7257
    28.3288  28.3288  28.5120  28.5120  32.4420  33.1884  33.1884  34.3277
    34.3277  35.1817  38.0419  39.2205  39.2205  39.7453  39.7453  40.7909
    43.4405  43.8878  47.6974  47.6974  49.7679  49.7679  50.1873  50.8101

     occupation numbers 
     1.0000   1.0000   1.0000   1.0000   0.0000   0.0000   0.0000   0.0000
     0.0000   0.0000   0.0000   0.0000   0.0000   0.0000   0.0000   0.0000
     0.0000   0.0000   0.0000   0.0000   0.0000   0.0000   0.0000   0.0000
     0.0000   0.0000   0.0000   0.0000   0.0000   0.0000   0.0000   0.0000
     0.0000   0.0000   0.0000   0.0000   0.0000   0.0000   0.0000   0.0000

          k = 0.0000 0.1768 0.0000 (  2722 PWs)   bands (ev):

    -5.3701   5.1610   5.6478   5.6478   8.4811  10.2126  10.2126  11.0557
    13.0251  14.5263  15.6372  18.2908  18.2908  18.7885  23.8788  27.3192
    27.3192  28.4944  29.4332  30.1325  33.2858  33.7636  33.7636  38.1432
    38.1432  38.6058  39.8653  39.8653  39.9090  42.2079  44.1220  44.7087
    46.8646  47.2608  47.6150  47.6150  49.0029  49.3985  49.3985  50.7478

     occupation numbers 
     1.0000   1.0000   1.0000   1.0000   0.0000   0.0000   0.0000   0.0000
     0.0000   0.0000   0.0000   0.0000   0.0000   0.0000   0.0000   0.0000
     0.0000   0.0000   0.0000   0.0000   0.0000   0.0000   0.0000   0.0000
     0.0000   0.0000   0.0000   0.0000   0.0000   0.0000   0.0000   0.0000
     0.0000   0.0000   0.0000   0.0000   0.0000   0.0000   0.0000   0.0000

          k =-0.0884 0.2652-0.0884 (  2725 PWs)   bands (ev):

    -4.8920   3.2292   5.1254   5.2157   8.6255  10.2686  10.9870  11.2397
    14.1481  14.6988  16.6137  18.1845  19.7295  21.0159  24.2774  24.8103
    25.9509  28.2513  28.3397  29.7765  33.0223  34.1290  35.0009  36.6735
    38.2540  38.6809  38.9304  39.8015  40.3079  41.0253  42.6065  42.8494
    45.3461  45.8519  47.1177  47.3484  47.7073  49.2231  50.4313  50.7609

     occupation numbers 
     1.0000   1.0000   1.0000   1.0000   0.0000   0.0000   0.0000   0.0000
     0.0000   0.0000   0.0000   0.0000   0.0000   0.0000   0.0000   0.0000
     0.0000   0.0000   0.0000   0.0000   0.0000   0.0000   0.0000   0.0000
     0.0000   0.0000   0.0000   0.0000   0.0000   0.0000   0.0000   0.0000
     0.0000   0.0000   0.0000   0.0000   0.0000   0.0000   0.0000   0.0000

          k =-0.1768 0.3536-0.1768 (  2718 PWs)   bands (ev):

    -4.0590   1.1260   4.6146   4.8538   8.7398  10.1704  10.9642  11.9777
    15.8620  15.9083  16.6231  20.0204  20.1439  21.8483  23.3303  24.3506
    25.3170  28.5730  29.3329  30.3429  31.5600  32.3028  34.3457  35.9083
    37.0484  37.1450  37.2819  38.5796  39.6746  40.0472  41.6985  43.2954
    44.6337  44.9194  46.0201  46.6227  49.3601  49.5188  49.7980  51.1184

     occupation numbers 
     1.0000   1.0000   1.0000   1.0000   0.0000   0.0000   0.0000   0.0000
     0.0000   0.0000   0.0000   0.0000   0.0000   0.0000   0.0000   0.0000
     0.0000   0.0000   0.0000   0.0000   0.0000   0.0000   0.0000   0.0000
     0.0000   0.0000   0.0000   0.0000   0.0000   0.0000   0.0000   0.0000
     0.0000   0.0000   0.0000   0.0000   0.0000   0.0000   0.0000   0.0000

          k = 0.4419-0.2652 0.4419 (  2725 PWs)   bands (ev):

    -3.1726  -0.3739   4.1592   4.8812   8.6979  10.0224  10.5833  13.9194
    15.5377  17.0393  18.1817  18.2604  19.2388  21.7610  25.0286  26.3329
    27.0324  27.7862  28.6316  29.0207  31.5189  32.7682  33.2107  34.3578
    34.8802  36.4978  36.9153  37.2806  39.5973  40.1057  40.6750  41.8573
    44.0728  44.6599  45.8062  47.6175  48.4188  50.8024  51.1498  52.7671

     occupation numbers 
     1.0000   1.0000   1.0000   1.0000   0.0000   0.0000   0.0000   0.0000
     0.0000   0.0000   0.0000   0.0000   0.0000   0.0000   0.0000   0.0000
     0.0000   0.0000   0.0000   0.0000   0.0000   0.0000   0.0000   0.0000
     0.0000   0.0000   0.0000   0.0000   0.0000   0.0000   0.0000   0.0000
     0.0000   0.0000   0.0000   0.0000   0.0000   0.0000   0.0000   0.0000

          k = 0.3536-0.1768 0.3536 (  2731 PWs)   bands (ev):

    -3.4253   0.0073   3.9701   5.1860   8.8832  10.1197  10.3476  14.4884
    14.6225  15.7796  17.7952  19.1117  20.8988  21.4560  23.5673  25.3219
    27.2130  28.9286  29.0729  29.2726  31.5357  31.8870  34.1791  34.3576
    34.7159  36.0439  37.2481  38.1384  40.2607  40.3783  40.4100  41.9294
    44.1366  44.9945  46.1283  47.5410  47.9224  49.1320  51.0967  52.4935

     occupation numbers 
     1.0000   1.0000   1.0000   1.0000   0.0000   0.0000   0.0000   0.0000
     0.0000   0.0000   0.0000   0.0000   0.0000   0.0000   0.0000   0.0000
     0.0000   0.0000   0.0000   0.0000   0.0000   0.0000   0.0000   0.0000
     0.0000   0.0000   0.0000   0.0000   0.0000   0.0000   0.0000   0.0000
     0.0000   0.0000   0.0000   0.0000   0.0000   0.0000   0.0000   0.0000

          k = 0.2652-0.0884 0.2652 (  2729 PWs)   bands (ev):

    -4.3723   1.7996   4.1172   5.6895   9.2591  10.1671  10.3570  12.8692
    12.9567  16.4271  16.7003  19.0616  20.6132  22.0915  23.0286  24.7825
    25.5367  28.5007  28.6903  29.6310  32.8117  33.3393  34.2056  36.4024
    36.4435  37.8057  37.9822  39.0332  40.1756  40.9437  41.3610  44.0267
    44.7184  45.5746  45.8378  46.9945  47.3374  48.6158  48.7164  51.1790

     occupation numbers 
     1.0000   1.0000   1.0000   1.0000   0.0000   0.0000   0.0000   0.0000
     0.0000   0.0000   0.0000   0.0000   0.0000   0.0000   0.0000   0.0000
     0.0000   0.0000   0.0000   0.0000   0.0000   0.0000   0.0000   0.0000
     0.0000   0.0000   0.0000   0.0000   0.0000   0.0000   0.0000   0.0000
     0.0000   0.0000   0.0000   0.0000   0.0000   0.0000   0.0000   0.0000

          k = 0.1768 0.0000 0.1768 (  2721 PWs)   bands (ev):

    -5.0973   3.7796   4.8045   6.1817   9.5909   9.6127   9.8681  12.1523
    12.8142  14.5954  16.3617  17.7459  18.9471  21.0911  24.4078  24.8180
    27.7292  27.8428  28.4507  29.7510  33.3547  33.5905  35.5491  37.2306
    37.6222  38.8753  39.2262  40.5958  40.6823  41.1291  42.7074  42.9029
    45.5142  46.4949  46.6836  48.0725  48.2625  49.1234  49.5821  50.9166

     occupation numbers 
     1.0000   1.0000   1.0000   1.0000   0.0000   0.0000   0.0000   0.0000
     0.0000   0.0000   0.0000   0.0000   0.0000   0.0000   0.0000   0.0000
     0.0000   0.0000   0.0000   0.0000   0.0000   0.0000   0.0000   0.0000
     0.0000   0.0000   0.0000   0.0000   0.0000   0.0000   0.0000   0.0000
     0.0000   0.0000   0.0000   0.0000   0.0000   0.0000   0.0000   0.0000

          k = 0.0000 0.3536 0.0000 (  2706 PWs)   bands (ev):

    -4.5451   2.9586   4.5412   4.5412   7.5816   9.6030  12.3057  12.3057
    14.7587  15.4473  18.0678  19.5976  19.5976  20.3180  24.1202  24.1202
    24.9923  27.1681  27.6426  31.6224  32.9909  34.1371  34.1371  36.3843
    36.3843  36.3984  37.2075  41.4339  42.1418  42.2413  42.2413  43.7188
    44.4120  44.4120  47.9702  47.9954  47.9954  48.4319  48.5434  51.0505

     occupation numbers 
     1.0000   1.0000   1.0000   1.0000   0.0000   0.0000   0.0000   0.0000
     0.0000   0.0000   0.0000   0.0000   0.0000   0.0000   0.0000   0.0000
     0.0000   0.0000   0.0000   0.0000   0.0000   0.0000   0.0000   0.0000
     0.0000   0.0000   0.0000   0.0000   0.0000   0.0000   0.0000   0.0000
     0.0000   0.0000   0.0000   0.0000   0.0000   0.0000   0.0000   0.0000

          k =-0.0884 0.4419-0.0884 (  2729 PWs)   bands (ev):

    -3.8202   1.5051   3.7443   4.2174   7.8038   9.3603  12.5709  12.8115
    16.5264  16.8930  18.2716  19.8196  20.4022  21.4817  22.5341  23.7855
    25.0838  26.6786  28.5831  30.9153  31.9592  33.1059  33.1737  34.2587
    35.8505  35.9810  37.3350  40.1611  40.1983  42.0373  43.3956  43.8086
    44.0524  44.3790  46.5106  47.0500  48.9819  49.0757  50.0740  51.1815

     occupation numbers 
     1.0000   1.0000   1.0000   1.0000   0.0000   0.0000   0.0000   0.0000
     0.0000   0.0000   0.0000   0.0000   0.0000   0.0000   0.0000   0.0000
     0.0000   0.0000   0.0000   0.0000   0.0000   0.0000   0.0000   0.0000
     0.0000   0.0000   0.0000   0.0000   0.0000   0.0000   0.0000   0.0000
     0.0000   0.0000   0.0000   0.0000   0.0000   0.0000   0.0000   0.0000

          k = 0.5303-0.1768 0.5303 (  2713 PWs)   bands (ev):

    -2.8709   0.0257   2.8638   4.2219   7.9708  10.9429  12.3296  12.4407
    16.8236  17.1058  18.7610  19.3729  19.7225  23.5241  24.3818  25.3661
    26.0644  26.2989  26.6468  29.6927  30.4574  31.9538  32.3663  34.6383
    35.9698  36.0788  36.2782  38.0729  38.8872  41.1551  42.5001  43.0062
    44.0921  44.1015  45.7832  47.7266  50.0707  51.2294  51.4858  52.1325

     occupation numbers 
     1.0000   1.0000   1.0000   1.0000   0.0000   0.0000   0.0000   0.0000
     0.0000   0.0000   0.0000   0.0000   0.0000   0.0000   0.0000   0.0000
     0.0000   0.0000   0.0000   0.0000   0.0000   0.0000   0.0000   0.0000
     0.0000   0.0000   0.0000   0.0000   0.0000   0.0000   0.0000   0.0000
     0.0000   0.0000   0.0000   0.0000   0.0000   0.0000   0.0000   0.0000

          k = 0.4419-0.0884 0.4419 (  2721 PWs)   bands (ev):

    -2.6586  -0.2422   2.3930   4.5485   8.3059  11.9953  12.0112  13.5220
    14.5054  14.6290  19.1757  21.4589  21.8805  22.7102  23.1458  25.0757
    26.1795  26.6844  28.5364  28.8125  31.4456  32.1791  32.6554  33.1376
    34.6981  35.4804  36.2768  36.9283  40.3160  40.8912  42.7349  42.9128
    43.9471  44.3445  45.2159  47.0365  49.1984  49.9844  51.5841  51.6958

     occupation numbers 
     1.0000   1.0000   1.0000   1.0000   0.0000   0.0000   0.0000   0.0000
     0.0000   0.0000   0.0000   0.0000   0.0000   0.0000   0.0000   0.0000
     0.0000   0.0000   0.0000   0.0000   0.0000   0.0000   0.0000   0.0000
     0.0000   0.0000   0.0000   0.0000   0.0000   0.0000   0.0000   0.0000
     0.0000   0.0000   0.0000   0.0000   0.0000   0.0000   0.0000   0.0000

          k = 0.3536 0.0000 0.3536 (  2720 PWs)   bands (ev):

    -3.5610   0.9486   2.6320   5.1210   8.9357  11.3068  11.6671  12.7371
    12.9260  16.2385  19.2328  19.8675  20.0832  23.3409  23.6845  24.1935
    25.4213  27.9886  28.4060  30.6606  31.5799  32.0215  33.6164  33.9217
    34.5922  36.2987  37.0855  38.0671  40.8516  40.9767  43.0663  43.8927
    44.5787  44.9407  45.5729  45.5762  45.7335  49.2843  50.8587  52.0843

     occupation numbers 
     1.0000   1.0000   1.0000   1.0000   0.0000   0.0000   0.0000   0.0000
     0.0000   0.0000   0.0000   0.0000   0.0000   0.0000   0.0000   0.0000
     0.0000   0.0000   0.0000   0.0000   0.0000   0.0000   0.0000   0.0000
     0.0000   0.0000   0.0000   0.0000   0.0000   0.0000   0.0000   0.0000
     0.0000   0.0000   0.0000   0.0000   0.0000   0.0000   0.0000   0.0000

          k = 0.0000 0.5303 0.0000 (  2730 PWs)   bands (ev):

    -3.2062   0.6924   3.8108   3.8108   7.0519   7.9757  14.6278  14.6278
    16.9758  17.4689  19.6307  19.6307  20.3523  21.7915  22.5803  23.5224
    23.5224  25.6119  30.1637  30.2852  30.8397  30.8397  32.2325  33.8536
    35.8459  35.9623  35.9623  42.0663  42.0663  42.1680  42.2709  42.9246
    46.3068  46.3068  46.5788  47.0802  47.0802  48.2615  49.3095  50.6992

     occupation numbers 
     1.0000   1.0000   1.0000   1.0000   0.0000   0.0000   0.0000   0.0000
     0.0000   0.0000   0.0000   0.0000   0.0000   0.0000   0.0000   0.0000
     0.0000   0.0000   0.0000   0.0000   0.0000   0.0000   0.0000   0.0000
     0.0000   0.0000   0.0000   0.0000   0.0000   0.0000   0.0000   0.0000
     0.0000   0.0000   0.0000   0.0000   0.0000   0.0000   0.0000   0.0000

          k = 0.6187-0.0884 0.6187 (  2724 PWs)   bands (ev):

    -2.2891  -0.4129   2.9555   3.7336   7.3302   8.4242  14.8393  14.9638
    17.3868  17.3961  18.9027  19.6238  21.5635  21.6645  22.5791  25.3956
    25.5117  26.1021  27.5545  29.0414  29.5267  30.2465  30.8304  32.5650
    36.2520  36.8938  38.7314  39.7748  39.8174  41.5147  42.2836  43.7358
    44.4712  45.9303  46.8561  46.9944  47.5227  49.2207  49.4646  50.2404

     occupation numbers 
     1.0000   1.0000   1.0000   1.0000   0.0000   0.0000   0.0000   0.0000
     0.0000   0.0000   0.0000   0.0000   0.0000   0.0000   0.0000   0.0000
     0.0000   0.0000   0.0000   0.0000   0.0000   0.0000   0.0000   0.0000
     0.0000   0.0000   0.0000   0.0000   0.0000   0.0000   0.0000   0.0000
     0.0000   0.0000   0.0000   0.0000   0.0000   0.0000   0.0000   0.0000

          k = 0.5303 0.0000 0.5303 (  2702 PWs)   bands (ev):

    -1.8329  -0.8222   2.0630   3.9972   7.6461  10.6237  14.0375  14.5995
    14.8731  15.0290  21.4762  21.4981  22.1416  22.3436  22.5693  23.8035
    26.3649  26.6439  28.2446  28.3527  29.7057  29.7112  31.9204  32.7196
    35.7998  36.3396  36.4764  37.8183  41.5401  41.7638  41.9229  42.2790
    43.5918  44.9042  45.9548  46.8404  49.9293  49.9426  50.7414  52.1164

     occupation numbers 
     1.0000   1.0000   1.0000   1.0000   0.0000   0.0000   0.0000   0.0000
     0.0000   0.0000   0.0000   0.0000   0.0000   0.0000   0.0000   0.0000
     0.0000   0.0000   0.0000   0.0000   0.0000   0.0000   0.0000   0.0000
     0.0000   0.0000   0.0000   0.0000   0.0000   0.0000   0.0000   0.0000
     0.0000   0.0000   0.0000   0.0000   0.0000   0.0000   0.0000   0.0000

          k = 0.0000-0.7071 0.0000 (  2762 PWs)   bands (ev):

    -1.4206  -1.4206   3.5606   3.5606   7.1397   7.1397  16.7663  16.7663
    17.5405  17.5405  19.0991  19.0991  19.8079  19.8079  25.5031  25.5031
    26.4415  26.4415  26.9389  26.9389  28.3259  28.3259  32.1385  32.1385
    36.3579  36.3579  41.1414  41.1414  41.2028  41.2028  42.4896  42.4896
    45.3995  45.3995  46.7656  46.7656  47.5306  47.5306  48.8820  48.8820

     occupation numbers 
     1.0000   1.0000   1.0000   1.0000   0.0000   0.0000   0.0000   0.0000
     0.0000   0.0000   0.0000   0.0000   0.0000   0.0000   0.0000   0.0000
     0.0000   0.0000   0.0000   0.0000   0.0000   0.0000   0.0000   0.0000
     0.0000   0.0000   0.0000   0.0000   0.0000   0.0000   0.0000   0.0000
     0.0000   0.0000   0.0000   0.0000   0.0000   0.0000   0.0000   0.0000

          k =-0.1768 0.3536 0.0000 (  2724 PWs)   bands (ev):

    -4.2920   2.1610   3.6965   5.0190   8.9277  10.4488  10.6685  12.0439
    14.3524  16.8998  17.7029  18.6847  20.4913  21.7409  22.5026  24.9283
    26.0409  27.2294  28.4603  30.2029  32.0711  32.8245  34.6651  35.6290
    36.3968  38.3560  38.5738  38.7203  40.7226  40.7630  42.4480  42.5185
    43.7460  46.0907  47.2126  47.3025  47.5955  48.7833  49.8205  50.5623

     occupation numbers 
     1.0000   1.0000   1.0000   1.0000   0.0000   0.0000   0.0000   0.0000
     0.0000   0.0000   0.0000   0.0000   0.0000   0.0000   0.0000   0.0000
     0.0000   0.0000   0.0000   0.0000   0.0000   0.0000   0.0000   0.0000
     0.0000   0.0000   0.0000   0.0000   0.0000   0.0000   0.0000   0.0000
     0.0000   0.0000   0.0000   0.0000   0.0000   0.0000   0.0000   0.0000

          k = 0.4419-0.2652 0.6187 (  2726 PWs)   bands (ev):

    -3.3830   0.5730   3.0845   4.5015   9.3646  10.0564  11.5403  12.4776
    15.5995  16.3256  18.5937  19.6208  20.9044  21.7832  23.9318  24.9718
    25.6963  27.6995  28.5455  29.5737  31.0255  32.4817  32.8406  34.0881
    35.5808  36.4771  38.0206  38.2208  39.2141  40.0362  41.9458  42.9272
    43.4222  45.8833  46.2616  47.7935  48.7344  49.3932  50.2954  52.0146

     occupation numbers 
     1.0000   1.0000   1.0000   1.0000   0.0000   0.0000   0.0000   0.0000
     0.0000   0.0000   0.0000   0.0000   0.0000   0.0000   0.0000   0.0000
     0.0000   0.0000   0.0000   0.0000   0.0000   0.0000   0.0000   0.0000
     0.0000   0.0000   0.0000   0.0000   0.0000   0.0000   0.0000   0.0000
     0.0000   0.0000   0.0000   0.0000   0.0000   0.0000   0.0000   0.0000

          k = 0.3536-0.1768 0.5303 (  2724 PWs)   bands (ev):

    -2.7103  -0.4005   2.9586   4.2643   9.5874   9.5941  12.4560  13.6574
    13.9664  17.1457  18.3390  19.0307  22.2372  22.2903  24.8131  25.1473
    26.1778  27.5299  27.6777  28.7323  31.7586  32.1828  32.2773  33.1138
    35.1125  36.5702  36.7882  37.9785  38.7709  39.2378  41.7071  42.2886
    43.4343  45.7998  46.7737  47.6205  49.7756  50.3910  51.1478  52.2865

     occupation numbers 
     1.0000   1.0000   1.0000   1.0000   0.0000   0.0000   0.0000   0.0000
     0.0000   0.0000   0.0000   0.0000   0.0000   0.0000   0.0000   0.0000
     0.0000   0.0000   0.0000   0.0000   0.0000   0.0000   0.0000   0.0000
     0.0000   0.0000   0.0000   0.0000   0.0000   0.0000   0.0000   0.0000
     0.0000   0.0000   0.0000   0.0000   0.0000   0.0000   0.0000   0.0000

          k = 0.5303-0.1768 0.7071 (  2719 PWs)   bands (ev):

    -3.0017   0.4695   3.0327   3.6477   8.4135   9.1086  12.3044  14.5746
    16.7874  16.8232  19.5717  19.9451  20.8763  21.2728  23.3730  23.7182
    26.2532  26.7322  28.5439  28.6313  30.2203  30.9836  33.0809  34.3305
    35.0381  36.0468  38.6074  39.4454  39.5566  40.0229  40.9164  44.4750
    45.3153  45.6101  47.2677  47.4388  48.6119  48.9494  49.7812  50.8671

     occupation numbers 
     1.0000   1.0000   1.0000   1.0000   0.0000   0.0000   0.0000   0.0000
     0.0000   0.0000   0.0000   0.0000   0.0000   0.0000   0.0000   0.0000
     0.0000   0.0000   0.0000   0.0000   0.0000   0.0000   0.0000   0.0000
     0.0000   0.0000   0.0000   0.0000   0.0000   0.0000   0.0000   0.0000
     0.0000   0.0000   0.0000   0.0000   0.0000   0.0000   0.0000   0.0000

          k = 0.4419-0.0884 0.6187 (  2720 PWs)   bands (ev):

    -2.1034  -0.5201   2.3146   3.4417   8.8568  10.7720  11.8215  14.0081
    14.9879  17.6957  18.8764  20.9654  22.0437  22.7034  24.1919  25.0539
    25.4493  26.1270  27.7980  28.5064  29.4859  30.9270  31.8150  34.3539
    34.9996  35.8530  37.4680  38.2103  38.8305  39.3549  41.4956  43.4062
    45.2914  46.1206  46.7381  47.6525  49.4663  49.9274  50.1300  51.8940

     occupation numbers 
     1.0000   1.0000   1.0000   1.0000   0.0000   0.0000   0.0000   0.0000
     0.0000   0.0000   0.0000   0.0000   0.0000   0.0000   0.0000   0.0000
     0.0000   0.0000   0.0000   0.0000   0.0000   0.0000   0.0000   0.0000
     0.0000   0.0000   0.0000   0.0000   0.0000   0.0000   0.0000   0.0000
     0.0000   0.0000   0.0000   0.0000   0.0000   0.0000   0.0000   0.0000

          k = 0.3536 0.0000 0.5303 (  2715 PWs)   bands (ev):

    -2.4617  -0.1509   2.1427   3.8281   9.3473  11.0536  11.7436  13.5777
    14.4627  15.8389  20.7053  20.9664  21.2663  23.0109  23.2366  25.0619
    25.8354  26.7469  27.8366  28.8538  30.0396  31.3065  32.7339  34.2555
    34.8497  36.0411  36.0864  37.9529  38.3957  39.7946  41.8574  44.4765
    44.6455  45.3959  46.2148  47.1249  49.5417  50.5214  50.7649  51.6002

     occupation numbers 
     1.0000   1.0000   1.0000   1.0000   0.0000   0.0000   0.0000   0.0000
     0.0000   0.0000   0.0000   0.0000   0.0000   0.0000   0.0000   0.0000
     0.0000   0.0000   0.0000   0.0000   0.0000   0.0000   0.0000   0.0000
     0.0000   0.0000   0.0000   0.0000   0.0000   0.0000   0.0000   0.0000
     0.0000   0.0000   0.0000   0.0000   0.0000   0.0000   0.0000   0.0000

          k =-0.1768-0.7071-0.0000 (  2722 PWs)   bands (ev):

    -1.3378  -1.3378   2.9747   2.9747   8.4298   8.4298  14.4239  14.4239
    17.1864  17.1864  19.5338  19.5338  22.2867  22.2867  24.0313  24.0313
    25.7901  25.7901  28.4265  28.4265  29.8449  29.8449  30.8117  30.8117
    37.1863  37.1863  38.9299  38.9299  39.3198  39.3198  43.2577  43.2577
    45.0637  45.0637  47.0849  47.0849  48.8144  48.8144  49.7771  49.7771

     occupation numbers 
     1.0000   1.0000   1.0000   1.0000   0.0000   0.0000   0.0000   0.0000
     0.0000   0.0000   0.0000   0.0000   0.0000   0.0000   0.0000   0.0000
     0.0000   0.0000   0.0000   0.0000   0.0000   0.0000   0.0000   0.0000
     0.0000   0.0000   0.0000   0.0000   0.0000   0.0000   0.0000   0.0000
     0.0000   0.0000   0.0000   0.0000   0.0000   0.0000   0.0000   0.0000

          k =-0.3536-0.7071 0.0000 (  2720 PWs)   bands (ev):

    -1.2462  -1.2462   2.5230   2.5230  10.7487  10.7487  11.5532  11.5532
    17.1945  17.1945  19.7054  19.7054  23.0816  23.0816  25.2955  25.2955
    25.6586  25.6586  26.5167  26.5167  30.4440  30.4440  34.2605  34.2605
    34.4863  34.4863  36.4116  36.4116  39.3632  39.3632  43.8159  43.8159
    44.9030  44.9030  47.0924  47.0924  50.1538  50.1538  51.2700  51.2700

     occupation numbers 
     1.0000   1.0000   1.0000   1.0000   0.0000   0.0000   0.0000   0.0000
     0.0000   0.0000   0.0000   0.0000   0.0000   0.0000   0.0000   0.0000
     0.0000   0.0000   0.0000   0.0000   0.0000   0.0000   0.0000   0.0000
     0.0000   0.0000   0.0000   0.0000   0.0000   0.0000   0.0000   0.0000
     0.0000   0.0000   0.0000   0.0000   0.0000   0.0000   0.0000   0.0000

     highest occupied, lowest unoccupied level (ev):     6.4781    7.0519

!    total energy              =     -16.92330016 Ry
     estimated scf accuracy    <          1.9E-10 Ry

     The total energy is the sum of the following terms:
     one-electron contribution =       5.13918812 Ry
     hartree contribution      =       1.07588330 Ry
     xc contribution           =      -6.21039964 Ry
     ewald contribution        =     -16.92797194 Ry

     convergence has been achieved in   6 iterations

     Writing output data file ./out/aiida.save/
 
     init_run     :      1.20s CPU      3.36s WALL (       1 calls)
     electrons    :     23.67s CPU     23.85s WALL (       1 calls)

     Called by init_run:
     wfcinit      :      1.15s CPU      3.28s WALL (       1 calls)
                                        3.28s GPU  (       1 calls)
     wfcinit:atom :      0.03s CPU      0.04s WALL (      29 calls)
                                        0.02s GPU  (      29 calls)
     wfcinit:wfcr :      1.08s CPU      3.21s WALL (      29 calls)
                                        3.20s GPU  (      29 calls)
     potinit      :      0.01s CPU      0.01s WALL (       1 calls)
     hinit0       :      0.01s CPU      0.01s WALL (       1 calls)

     Called by electrons:
     c_bands      :     22.48s CPU     22.61s WALL (       6 calls)
     sum_band     :      1.16s CPU      1.20s WALL (       6 calls)
     v_of_rho     :      0.02s CPU      0.02s WALL (       7 calls)
     v_h          :      0.00s CPU      0.00s WALL (       7 calls)
     v_xc         :      0.02s CPU      0.02s WALL (       7 calls)
     mix_rho      :      0.00s CPU      0.00s WALL (       6 calls)

     Called by c_bands:
     init_us_2_gp :      0.10s CPU      0.11s WALL (     377 calls)
     cegterg      :     22.32s CPU     22.44s WALL (     174 calls)

     Called by sum_band:
     sum_band:wei :      0.00s CPU      0.00s WALL (       6 calls)
                                        0.00s GPU  (       6 calls)
     sum_band:loo :      1.15s CPU      1.19s WALL (       6 calls)
                                        1.19s GPU  (       6 calls)
     sum_band:buf :      0.07s CPU      0.07s WALL (     174 calls)
                                        0.00s GPU  (     174 calls)
     sum_band:ini :      0.05s CPU      0.11s WALL (     174 calls)
                                        0.11s GPU  (     174 calls)

     Called by *egterg:
     cdiaghg      :      2.97s CPU      4.18s WALL (    1137 calls)
                                        3.88s GPU  (    1137 calls)
     cegterg:over :      1.12s CPU      1.13s WALL (     963 calls)
     cegterg:upda :      0.82s CPU      0.83s WALL (     963 calls)
     cegterg:last :      0.24s CPU      0.24s WALL (     535 calls)
     h_psi        :     10.37s CPU     11.73s WALL (    1166 calls)
                                       11.31s GPU  (    1166 calls)
     g_psi        :      0.00s CPU      0.30s WALL (     963 calls)
                                        0.01s GPU  (     963 calls)

     Called by h_psi:
     h_psi:calbec :      1.34s CPU      2.52s WALL (    1166 calls)
                                        2.17s GPU  (    1166 calls)
     vloc_psi     :      7.56s CPU      8.09s WALL (    1166 calls)
                                        7.67s GPU  (    1166 calls)
     add_vuspsi   :      0.03s CPU      0.39s WALL (    1166 calls)
                                        0.03s GPU  (    1166 calls)

     General routines
     calbec       :      1.34s CPU      2.18s WALL (    1166 calls)
     fft          :      0.01s CPU      0.01s WALL (      70 calls)
     ffts         :      0.00s CPU      0.00s WALL (       6 calls)
     fftw         :      6.56s CPU      8.61s WALL (    5258 calls)
                                        6.34s GPU  (    5258 calls)
 
     Parallel routines
 
     PWSCF        :     25.36s CPU     27.78s WALL

 
   This run was terminated on:  15:21:39  13Mar2022            

=------------------------------------------------------------------------------=
   JOB DONE.
=------------------------------------------------------------------------------=
